2gCDOC_2PEG_l11
22035
    1LIG      O    1   2.384   2.328   0.024
    1LIG      C    2   2.356   2.402   0.150
    1LIG     C1    3   2.427   2.340   0.278
    1LIG     O1    4   2.360   2.383   0.402
    1LIG     C2    5   2.427   2.342   0.527
    1LIG     C3    6   2.350   2.394   0.656
    1LIG     O2    7   2.405   2.339   0.781
    1LIG     C4    8   2.365   2.413   0.901
    1LIG     C5    9   2.437   2.360   1.031
    1LIG     O3   10   2.366   2.401   1.153
    1LIG     C6   11   2.429   2.348   1.273
    1LIG     C7   12   2.363   2.409   1.401
    1LIG     O4   13   2.422   2.357   1.523
    1LIG     C8   14   2.367   2.416   1.645
    1LIG     C9   15   2.429   2.348   1.772
    1LIG     O5   16   2.363   2.397   1.891
    1LIG    C10   17   2.424   2.346   2.013
    1LIG    C11   18   2.344   2.395   2.138
    1LIG     O6   19   2.396   2.334   2.260
    1LIG    C12   20   2.350   2.398   2.382
    1LIG    C13   21   2.422   2.337   2.507
    1LIG     O7   22   2.352   2.370   2.630
    1LIG    C14   23   2.428   2.331   2.748
    1LIG    C15   24   2.368   2.397   2.876
    1LIG     O8   25   2.409   2.327   2.998
    1LIG    C16   26   2.375   2.399   3.119
    1LIG    C17   27   2.435   2.332   3.247
    1LIG     O9   28   2.384   2.397   3.368
    1LIG    C18   29   2.440   2.337   3.489
    1LIG    C19   30   2.376   2.400   3.619
    1LIG    O10   31   2.415   2.327   3.738
    1LIG    C20   32   2.364   2.387   3.861
    1LIG    C21   33   2.422   2.316   3.988
    1LIG    O11   34   2.361   2.367   4.111
    1LIG    C22   35   2.428   2.324   4.233
    1LIG    C23   36   2.368   2.395   4.360
    1LIG    O12   37   2.410   2.330   4.484
    1LIG    C24   38   2.359   2.391   4.606
    1LIG    C25   39   2.443   2.344   4.729
    1LIG    O13   40   2.379   2.379   4.853
    1LIG    C26   41   2.448   2.326   4.968
    1LIG    C27   42   2.393   2.391   5.098
    1LIG    O14   43   2.429   2.316   5.216
    1LIG    C28   44   2.388   2.384   5.337
    1LIG    C29   45   2.450   2.319   5.465
    1LIG    O15   46   2.387   2.374   5.584
    1LIG    C30   47   2.452   2.332   5.707
    1LIG    C31   48   2.381   2.394   5.833
    1LIG    O16   49   2.425   2.329   5.954
    1LIG    C32   50   2.383   2.399   6.073
    1LIG    C33   51   2.442   2.327   6.199
    1LIG    O17   52   2.383   2.382   6.319
    1LIG    C34   53   2.436   2.320   6.437
    1LIG    C35   54   2.376   2.388   6.563
    1LIG    O18   55   2.415   2.318   6.683
    1LIG    C36   56   2.380   2.394   6.801
    1LIG    C37   57   2.439   2.329   6.929
    1LIG    O19   58   2.385   2.397   7.046
    1LIG    C38   59   2.440   2.343   7.169
    1LIG    C39   60   2.373   2.410   7.293
    1LIG    O20   61   2.420   2.344   7.414
    1LIG    C40   62   2.366   2.400   7.536
    1LIG    C41   63   2.427   2.329   7.661
    1LIG    O21   64   2.358   2.374   7.781
    1LIG    C42   65   2.419   2.326   7.904
    1LIG    C43   66   2.348   2.390   8.028
    1LIG    O22   67   2.402   2.334   8.151
    1LIG    C44   68   2.363   2.403   8.273
    1LIG    C45   69   2.429   2.333   8.397
    1LIG    O23   70   2.371   2.384   8.520
    1LIG    C46   71   2.432   2.326   8.639
    1LIG    C47   72   2.376   2.401   8.764
    1LIG    O24   73   2.427   2.347   8.888
    1LIG    C48   74   2.368   2.406   9.008
    1LIG    C49   75   2.430   2.341   9.135
    1LIG    O25   76   2.368   2.395   9.255
    1LIG    C50   77   2.432   2.347   9.376
    1LIG    C51   78   2.357   2.403   9.502
    1LIG    O26   79   2.413   2.348   9.625
    1LIG    C52   80   2.356   2.401   9.749
    1LIG    C53   81   2.427   2.336   9.873
    1LIG    O27   82   2.355   2.362   9.997
    1LIG    C54   83   2.432   2.331  10.118
    1LIG    C55   84   2.368   2.399  10.245
    1LIG    O28   85   2.407   2.334  10.370
    1LIG    C56   86   2.368   2.406  10.491
    1LIG    C57   87   2.428   2.343  10.624
    1LIG    O29   88   2.369   2.399  10.746
    1LIG    C58   89   2.416   2.331  10.868
    1LIG    C59   90   2.384   2.412  11.002
    1LIG      H   91   2.248   2.405   0.168
    1LIG     H1   92   2.388   2.506   0.137
    1LIG     H2   93   2.532   2.373   0.280
    1LIG     H3   94   2.427   2.231   0.273
    1LIG     H4   95   2.529   2.383   0.528
    1LIG     H5   96   2.434   2.233   0.531
    1LIG     H6   97   2.244   2.369   0.649
    1LIG     H7   98   2.350   2.503   0.661
    1LIG     H8   99   2.257   2.405   0.914
    1LIG     H9  100   2.389   2.519   0.888
    1LIG    H10  101   2.540   2.398   1.034
    1LIG    H11  102   2.442   2.251   1.027
    1LIG    H12  103   2.536   2.373   1.273
    1LIG    H13  104   2.419   2.239   1.276
    1LIG    H14  105   2.255   2.393   1.401
    1LIG    H15  106   2.375   2.517   1.400
    1LIG    H16  107   2.259   2.403   1.646
    1LIG    H17  108   2.388   2.523   1.647
    1LIG    H18  109   2.536   2.371   1.777
    1LIG    H19  110   2.415   2.239   1.766
    1LIG    H20  111   2.528   2.381   2.019
    1LIG    H21  112   2.425   2.237   2.011
    1LIG    H22  113   2.239   2.370   2.126
    1LIG    H23  114   2.344   2.503   2.146
    1LIG    H24  115   2.242   2.386   2.391
    1LIG    H25  116   2.369   2.506   2.375
    1LIG    H26  117   2.523   2.378   2.511
    1LIG    H27  118   2.430   2.228   2.497
    1LIG    H28  119   2.532   2.365   2.738
    1LIG    H29  120   2.429   2.222   2.757
    1LIG    H30  121   2.258   2.399   2.870
    1LIG    H31  122   2.400   2.501   2.881
    1LIG    H32  123   2.266   2.406   3.129
    1LIG    H33  124   2.414   2.501   3.113
    1LIG    H34  125   2.544   2.341   3.245
    1LIG    H35  126   2.409   2.225   3.248
    1LIG    H36  127   2.548   2.355   3.490
    1LIG    H37  128   2.422   2.230   3.489
    1LIG    H38  129   2.267   2.398   3.610
    1LIG    H39  130   2.408   2.505   3.627
    1LIG    H40  131   2.256   2.380   3.861
    1LIG    H41  132   2.389   2.494   3.861
    1LIG    H42  133   2.530   2.333   3.991
    1LIG    H43  134   2.408   2.207   3.983
    1LIG    H44  135   2.534   2.350   4.226
    1LIG    H45  136   2.421   2.215   4.243
    1LIG    H46  137   2.259   2.395   4.355
    1LIG    H47  138   2.401   2.499   4.359
    1LIG    H48  139   2.254   2.365   4.621
    1LIG    H49  140   2.358   2.499   4.601
    1LIG    H50  141   2.543   2.389   4.725
    1LIG    H51  142   2.456   2.236   4.724
    1LIG    H52  143   2.556   2.346   4.960
    1LIG    H53  144   2.434   2.218   4.974
    1LIG    H54  145   2.283   2.396   5.091
    1LIG    H55  146   2.432   2.493   5.105
    1LIG    H56  147   2.279   2.384   5.344
    1LIG    H57  148   2.422   2.488   5.333
    1LIG    H58  149   2.557   2.340   5.467
    1LIG    H59  150   2.435   2.210   5.463
    1LIG    H60  151   2.557   2.364   5.705
    1LIG    H61  152   2.451   2.223   5.712
    1LIG    H62  153   2.273   2.388   5.824
    1LIG    H63  154   2.403   2.499   5.844
    1LIG    H64  155   2.274   2.401   6.079
    1LIG    H65  156   2.418   2.503   6.071
    1LIG    H66  157   2.550   2.340   6.202
    1LIG    H67  158   2.424   2.219   6.195
    1LIG    H68  159   2.544   2.335   6.439
    1LIG    H69  160   2.414   2.213   6.437
    1LIG    H70  161   2.267   2.395   6.556
    1LIG    H71  162   2.417   2.489   6.568
    1LIG    H72  163   2.271   2.401   6.809
    1LIG    H73  164   2.419   2.496   6.792
    1LIG    H74  165   2.548   2.341   6.928
    1LIG    H75  166   2.414   2.223   6.933
    1LIG    H76  167   2.548   2.362   7.171
    1LIG    H77  168   2.423   2.235   7.172
    1LIG    H78  169   2.264   2.401   7.286
    1LIG    H79  170   2.398   2.517   7.296
    1LIG    H80  171   2.258   2.389   7.535
    1LIG    H81  172   2.388   2.508   7.539
    1LIG    H82  173   2.533   2.353   7.667
    1LIG    H83  174   2.418   2.220   7.652
    1LIG    H84  175   2.525   2.354   7.907
    1LIG    H85  176   2.414   2.217   7.909
    1LIG    H86  177   2.240   2.372   8.023
    1LIG    H87  178   2.359   2.498   8.024
    1LIG    H88  179   2.254   2.400   8.284
    1LIG    H89  180   2.392   2.508   8.271
    1LIG    H90  181   2.536   2.354   8.396
    1LIG    H91  182   2.416   2.225   8.392
    1LIG    H92  183   2.540   2.339   8.636
    1LIG    H93  184   2.410   2.219   8.645
    1LIG    H94  185   2.267   2.399   8.764
    1LIG    H95  186   2.405   2.506   8.756
    1LIG    H96  187   2.260   2.391   9.007
    1LIG    H97  188   2.386   2.513   9.010
    1LIG    H98  189   2.538   2.362   9.137
    1LIG    H99  190   2.415   2.232   9.132
    1LIG   H100  191   2.537   2.381   9.378
    1LIG   H101  192   2.431   2.238   9.378
    1LIG   H102  193   2.252   2.376   9.495
    1LIG   H103  194   2.359   2.512   9.500
    1LIG   H104  195   2.249   2.382   9.752
    1LIG   H105  196   2.368   2.510   9.753
    1LIG   H106  197   2.528   2.379   9.880
    1LIG   H107  198   2.437   2.228   9.859
    1LIG   H108  199   2.534   2.369  10.107
    1LIG   H109  200   2.437   2.222  10.130
    1LIG   H110  201   2.258   2.398  10.236
    1LIG   H111  202   2.398   2.504  10.247
    1LIG   H112  203   2.259   2.411  10.498
    1LIG   H113  204   2.404   2.509  10.483
    1LIG   H114  205   2.536   2.362  10.625
    1LIG   H115  206   2.414   2.234  10.622
    1LIG   H116  207   2.525   2.318  10.860
    1LIG   H117  208   2.373   2.231  10.872
    1LIG   H118  209   2.288   2.464  10.993
    1LIG   H119  210   2.461   2.489  11.015
    2LIG      O  211   2.115   2.061   0.033
    2LIG      C  212   2.157   2.131   0.156
    2LIG     C1  213   2.084   2.080   0.288
    2LIG     O1  214   2.159   2.108   0.412
    2LIG     C2  215   2.091   2.063   0.535
    2LIG     C3  216   2.143   2.138   0.663
    2LIG     O2  217   2.104   2.074   0.788
    2LIG     C4  218   2.141   2.154   0.906
    2LIG     C5  219   2.086   2.094   1.040
    2LIG     O3  220   2.161   2.135   1.158
    2LIG     C6  221   2.088   2.094   1.278
    2LIG     C7  222   2.155   2.148   1.407
    2LIG     O4  223   2.102   2.086   1.525
    2LIG     C8  224   2.142   2.156   1.644
    2LIG     C9  225   2.083   2.088   1.770
    2LIG     O5  226   2.152   2.130   1.890
    2LIG    C10  227   2.089   2.075   2.008
    2LIG    C11  228   2.148   2.136   2.138
    2LIG     O6  229   2.107   2.064   2.258
    2LIG    C12  230   2.141   2.139   2.378
    2LIG    C13  231   2.080   2.076   2.507
    2LIG     O7  232   2.152   2.122   2.625
    2LIG    C14  233   2.076   2.096   2.746
    2LIG    C15  234   2.144   2.152   2.875
    2LIG     O8  235   2.093   2.090   2.995
    2LIG    C16  236   2.145   2.149   3.117
    2LIG    C17  237   2.081   2.089   3.246
    2LIG     O9  238   2.136   2.152   3.366
    2LIG    C18  239   2.088   2.085   3.486
    2LIG    C19  240   2.151   2.145   3.614
    2LIG    O10  241   2.120   2.062   3.731
    2LIG    C20  242   2.156   2.130   3.854
    2LIG    C21  243   2.086   2.068   3.980
    2LIG    O11  244   2.153   2.112   4.102
    2LIG    C22  245   2.079   2.076   4.222
    2LIG    C23  246   2.135   2.150   4.348
    2LIG    O12  247   2.077   2.095   4.469
    2LIG    C24  248   2.115   2.168   4.588
    2LIG    C25  249   2.057   2.104   4.719
    2LIG    O13  250   2.110   2.167   4.839
    2LIG    C26  251   2.059   2.101   4.959
    2LIG    C27  252   2.122   2.164   5.087
    2LIG    O14  253   2.056   2.118   5.209
    2LIG    C28  254   2.110   2.185   5.325
    2LIG    C29  255   2.040   2.143   5.459
    2LIG    O15  256   2.119   2.190   5.574
    2LIG    C30  257   2.100   2.106   5.690
    2LIG    C31  258   2.170   2.160   5.819
    2LIG    O16  259   2.153   2.075   5.936
    2LIG    C32  260   2.170   2.148   6.062
    2LIG    C33  261   2.089   2.090   6.183
    2LIG    O17  262   2.131   2.155   6.307
    2LIG    C34  263   2.053   2.117   6.424
    2LIG    C35  264   2.114   2.178   6.555
    2LIG    O18  265   2.066   2.114   6.676
    2LIG    C36  266   2.131   2.164   6.797
    2LIG    C37  267   2.075   2.101   6.929
    2LIG    O19  268   2.138   2.157   7.047
    2LIG    C38  269   2.091   2.089   7.168
    2LIG    C39  270   2.153   2.150   7.298
    2LIG    O20  271   2.124   2.066   7.414
    2LIG    C40  272   2.160   2.130   7.540
    2LIG    C41  273   2.090   2.062   7.663
    2LIG    O21  274   2.154   2.102   7.787
    2LIG    C42  275   2.075   2.070   7.905
    2LIG    C43  276   2.138   2.137   8.030
    2LIG    O22  277   2.108   2.067   8.153
    2LIG    C44  278   2.154   2.144   8.267
    2LIG    C45  279   2.085   2.098   8.399
    2LIG    O23  280   2.155   2.143   8.518
    2LIG    C46  281   2.084   2.097   8.637
    2LIG    C47  282   2.151   2.146   8.769
    2LIG    O24  283   2.090   2.088   8.887
    2LIG    C48  284   2.140   2.149   9.009
    2LIG    C49  285   2.083   2.080   9.137
    2LIG    O25  286   2.151   2.129   9.257
    2LIG    C50  287   2.092   2.077   9.379
    2LIG    C51  288   2.155   2.141   9.507
    2LIG    O26  289   2.121   2.065   9.627
    2LIG    C52  290   2.153   2.136   9.750
    2LIG    C53  291   2.098   2.062   9.877
    2LIG    O27  292   2.160   2.111   9.999
    2LIG    C54  293   2.081   2.085  10.120
    2LIG    C55  294   2.149   2.145  10.250
    2LIG    O28  295   2.108   2.080  10.375
    2LIG    C56  296   2.157   2.146  10.497
    2LIG    C57  297   2.090   2.089  10.629
    2LIG    O29  298   2.145   2.145  10.754
    2LIG    C58  299   2.098   2.071  10.873
    2LIG    C59  300   2.150   2.135  11.009
    2LIG      H  301   2.134   2.237   0.145
    2LIG     H1  302   2.266   2.122   0.168
    2LIG     H2  303   2.067   1.972   0.283
    2LIG     H3  304   1.986   2.129   0.294
    2LIG     H4  305   2.108   1.955   0.547
    2LIG     H5  306   1.983   2.079   0.525
    2LIG     H6  307   2.100   2.239   0.662
    2LIG     H7  308   2.252   2.144   0.659
    2LIG     H8  309   2.101   2.255   0.895
    2LIG     H9  310   2.250   2.162   0.913
    2LIG    H10  311   2.084   1.984   1.035
    2LIG    H11  312   1.984   2.132   1.052
    2LIG    H12  313   2.080   1.986   1.283
    2LIG    H13  314   1.988   2.138   1.275
    2LIG    H14  315   2.129   2.254   1.412
    2LIG    H15  316   2.264   2.136   1.403
    2LIG    H16  317   2.107   2.260   1.640
    2LIG    H17  318   2.252   2.155   1.651
    2LIG    H18  319   2.095   1.980   1.758
    2LIG    H19  320   1.976   2.112   1.778
    2LIG    H20  321   2.098   1.966   2.009
    2LIG    H21  322   1.982   2.102   2.004
    2LIG    H22  323   2.106   2.237   2.146
    2LIG    H23  324   2.257   2.140   2.133
    2LIG    H24  325   2.102   2.241   2.369
    2LIG    H25  326   2.250   2.144   2.388
    2LIG    H26  327   2.085   1.967   2.502
    2LIG    H27  328   1.975   2.107   2.513
    2LIG    H28  329   2.062   1.989   2.756
    2LIG    H29  330   1.978   2.145   2.736
    2LIG    H30  331   2.121   2.259   2.880
    2LIG    H31  332   2.253   2.138   2.869
    2LIG    H32  333   2.123   2.256   3.115
    2LIG    H33  334   2.254   2.136   3.120
    2LIG    H34  335   2.099   1.981   3.250
    2LIG    H35  336   1.974   2.107   3.246
    2LIG    H36  337   2.117   1.979   3.481
    2LIG    H37  338   1.979   2.092   3.491
    2LIG    H38  339   2.112   2.246   3.629
    2LIG    H39  340   2.260   2.150   3.603
    2LIG    H40  341   2.124   2.235   3.848
    2LIG    H41  342   2.264   2.126   3.866
    2LIG    H42  343   2.089   1.959   3.974
    2LIG    H43  344   1.982   2.100   3.982
    2LIG    H44  345   2.086   1.968   4.237
    2LIG    H45  346   1.973   2.102   4.208
    2LIG    H46  347   2.112   2.256   4.340
    2LIG    H47  348   2.244   2.138   4.351
    2LIG    H48  349   2.080   2.271   4.580
    2LIG    H49  350   2.224   2.166   4.596
    2LIG    H50  351   2.085   2.000   4.720
    2LIG    H51  352   1.947   2.112   4.718
    2LIG    H52  353   2.083   1.993   4.955
    2LIG    H53  354   1.951   2.114   4.962
    2LIG    H54  355   2.111   2.272   5.081
    2LIG    H55  356   2.229   2.139   5.092
    2LIG    H56  357   2.097   2.293   5.312
    2LIG    H57  358   2.217   2.163   5.332
    2LIG    H58  359   2.029   2.034   5.463
    2LIG    H59  360   1.940   2.186   5.465
    2LIG    H60  361   2.140   2.007   5.670
    2LIG    H61  362   1.992   2.100   5.708
    2LIG    H62  363   2.125   2.258   5.839
    2LIG    H63  364   2.277   2.169   5.799
    2LIG    H64  365   2.135   2.252   6.049
    2LIG    H65  366   2.276   2.149   6.086
    2LIG    H66  367   2.105   1.982   6.191
    2LIG    H67  368   1.982   2.108   6.169
    2LIG    H68  369   2.048   2.008   6.431
    2LIG    H69  370   1.950   2.153   6.411
    2LIG    H70  371   2.089   2.285   6.559
    2LIG    H71  372   2.223   2.168   6.550
    2LIG    H72  373   2.115   2.272   6.802
    2LIG    H73  374   2.239   2.145   6.791
    2LIG    H74  375   2.088   1.992   6.927
    2LIG    H75  376   1.968   2.123   6.936
    2LIG    H76  377   2.121   1.984   7.163
    2LIG    H77  378   1.982   2.095   7.173
    2LIG    H78  379   2.111   2.250   7.313
    2LIG    H79  380   2.261   2.158   7.287
    2LIG    H80  381   2.130   2.235   7.538
    2LIG    H81  382   2.269   2.125   7.551
    2LIG    H82  383   2.095   1.953   7.653
    2LIG    H83  384   1.985   2.091   7.666
    2LIG    H84  385   2.074   1.961   7.918
    2LIG    H85  386   1.972   2.105   7.892
    2LIG    H86  387   2.098   2.239   8.036
    2LIG    H87  388   2.247   2.141   8.018
    2LIG    H88  389   2.128   2.249   8.252
    2LIG    H89  390   2.263   2.134   8.276
    2LIG    H90  391   2.078   1.989   8.400
    2LIG    H91  392   1.985   2.143   8.399
    2LIG    H92  393   2.078   1.988   8.635
    2LIG    H93  394   1.983   2.138   8.633
    2LIG    H94  395   2.135   2.254   8.773
    2LIG    H95  396   2.258   2.126   8.768
    2LIG    H96  397   2.110   2.254   9.010
    2LIG    H97  398   2.249   2.143   9.011
    2LIG    H98  399   2.099   1.972   9.131
    2LIG    H99  400   1.976   2.100   9.145
    2LIG   H100  401   2.107   1.969   9.384
    2LIG   H101  402   1.984   2.098   9.379
    2LIG   H102  403   2.112   2.242   9.517
    2LIG   H103  404   2.264   2.146   9.497
    2LIG   H104  405   2.108   2.236   9.746
    2LIG   H105  406   2.262   2.146   9.757
    2LIG   H106  407   2.119   1.955   9.868
    2LIG   H107  408   1.990   2.075   9.880
    2LIG   H108  409   2.069   1.977  10.130
    2LIG   H109  410   1.982   2.129  10.108
    2LIG   H110  411   2.121   2.251  10.255
    2LIG   H111  412   2.258   2.138  10.240
    2LIG   H112  413   2.132   2.252  10.490
    2LIG   H113  414   2.266   2.136  10.502
    2LIG   H114  415   2.100   1.981  10.631
    2LIG   H115  416   1.984   2.116  10.627
    2LIG   H116  417   2.133   1.968  10.867
    2LIG   H117  418   1.988   2.071  10.873
    2LIG   H118  419   2.258   2.143  11.005
    2LIG   H119  420   2.107   2.236  11.017
    3MOL     C1  421   1.723   1.797   4.887
    3MOL     H1  422   1.701   1.692   4.871
    3MOL     O1  423   1.682   1.833   5.021
    3MOL     C2  424   1.699   1.973   5.056
    3MOL     H2  425   1.804   2.001   5.040
    3MOL     C3  426   1.670   1.987   5.206
    3MOL     H3  427   1.702   2.086   5.241
    3MOL     H4  428   1.727   1.911   5.261
    3MOL     O2  429   1.528   1.969   5.227
    3MOL     C4  430   1.487   1.986   5.363
    3MOL     C5  431   1.639   1.880   4.785
    3MOL     H5  432   1.536   1.844   4.788
    3MOL     O3  433   1.693   1.865   4.654
    3MOL     C6  434   1.662   1.740   4.592
    3MOL     C7  435   1.636   2.030   4.816
    3MOL     H6  436   1.733   2.074   4.789
    3MOL     O4  437   1.529   2.088   4.740
    3MOL     C8  438   1.572   2.176   4.637
    3MOL     C9  439   1.608   2.058   4.963
    3MOL     H7  440   1.502   2.033   4.983
    3MOL     O5  441   1.632   2.198   4.982
    3MOL    C10  442   1.543   2.269   5.069
    3MOL     H8  443   1.460   2.203   5.100
    3MOL     O6  444   1.618   2.309   5.185
    3MOL    C11  445   1.735   2.390   5.154
    3MOL     H9  446   1.797   2.340   5.080
    3MOL    C12  447   1.817   2.402   5.283
    3MOL    H10  448   1.910   2.457   5.263
    3MOL    H11  449   1.843   2.301   5.317
    3MOL     O7  450   1.738   2.469   5.382
    3MOL    C13  451   1.813   2.506   5.498
    3MOL    C14  452   1.486   2.395   4.998
    3MOL    H12  453   1.411   2.440   5.062
    3MOL     O8  454   1.428   2.359   4.870
    3MOL    C15  455   1.300   2.293   4.876
    3MOL    C16  456   1.597   2.499   4.970
    3MOL    H13  457   1.660   2.464   4.889
    3MOL     O9  458   1.531   2.623   4.935
    3MOL    C17  459   1.542   2.659   4.797
    3MOL    C18  460   1.684   2.525   5.096
    3MOL    H14  461   1.623   2.576   5.169
    3MOL    O10  462   1.797   2.605   5.055
    3MOL    C19  463   1.832   2.714   5.145
    3MOL    H15  464   1.759   2.724   5.224
    3MOL    O11  465   1.961   2.687   5.200
    3MOL    C20  466   2.069   2.674   5.106
    3MOL    H16  467   2.048   2.590   5.037
    3MOL    C21  468   2.193   2.640   5.187
    3MOL    H17  469   2.276   2.623   5.118
    3MOL    H18  470   2.175   2.549   5.245
    3MOL    O12  471   2.224   2.751   5.275
    3MOL    C22  472   2.339   2.729   5.357
    3MOL    C23  473   1.839   2.847   5.065
    3MOL    H19  474   1.860   2.929   5.137
    3MOL    O13  475   1.713   2.871   5.002
    3MOL    C24  476   1.604   2.897   5.091
    3MOL    C25  477   1.951   2.847   4.960
    3MOL    H20  478   1.924   2.774   4.880
    3MOL    O14  479   1.964   2.981   4.905
    3MOL    C26  480   1.926   2.996   4.767
    3MOL    C27  481   2.085   2.803   5.022
    3MOL    H21  482   2.120   2.884   5.091
    3MOL    O15  483   2.184   2.779   4.920
    3MOL    C28  484   2.255   2.896   4.874
    3MOL    H22  485   2.186   2.981   4.864
    3MOL    O16  486   2.356   2.931   4.971
    3MOL    C29  487   2.461   2.834   4.994
    3MOL    H23  488   2.418   2.741   5.032
    3MOL    C30  489   2.553   2.894   5.103
    3MOL    H24  490   2.614   2.815   5.149
    3MOL    H25  491   2.491   2.938   5.183
    3MOL    O17  492   2.637   2.995   5.044
    3MOL    C31  493   2.727   3.058   5.136
    3MOL    C32  494   2.321   2.873   4.737
    3MOL    H26  495   2.361   2.969   4.704
    3MOL    O18  496   2.219   2.825   4.645
    3MOL    C33  497   2.226   2.881   4.513
    3MOL    C34  498   2.437   2.771   4.744
    3MOL    H27  499   2.396   2.671   4.757
    3MOL    O19  500   2.515   2.784   4.622
    3MOL    C35  501   2.536   2.662   4.550
    3MOL    C36  502   2.534   2.804   4.860
    3MOL    H28  503   2.591   2.891   4.829
    3MOL    O20  504   2.620   2.688   4.875
    3MOL    C37  505   2.757   2.717   4.909
    3MOL    H29  506   2.775   2.825   4.904
    3MOL    O21  507   2.781   2.671   5.044
    3MOL    C38  508   2.764   2.530   5.067
    3MOL    H30  509   2.662   2.501   5.038
    3MOL    C39  510   2.779   2.503   5.218
    3MOL    H31  511   2.745   2.402   5.241
    3MOL    H32  512   2.714   2.573   5.273
    3MOL    O22  513   2.917   2.522   5.256
    3MOL    C40  514   2.952   2.469   5.385
    3MOL    C41  515   2.855   2.645   4.812
    3MOL    H33  516   2.957   2.679   4.834
    3MOL    O23  517   2.822   2.673   4.673
    3MOL    C42  518   2.851   2.806   4.627
    3MOL    C43  519   2.851   2.492   4.830
    3MOL    H34  520   2.754   2.455   4.793
    3MOL    O24  521   2.961   2.437   4.754
    3MOL    C44  522   2.921   2.343   4.653
    3MOL    C45  523   2.866   2.452   4.978
    3MOL    H35  524   2.968   2.476   5.010
    3MOL    O25  525   2.841   2.309   4.986
    3MOL    C46  526   2.926   2.237   5.078
    3MOL    H36  527   3.003   2.302   5.118
    3MOL    O26  528   2.843   2.187   5.185
    3MOL    C47  529   2.736   2.097   5.148
    3MOL    H37  530   2.671   2.145   5.073
    3MOL    C48  531   2.650   2.070   5.272
    3MOL    H38  532   2.554   2.026   5.243
    3MOL    H39  533   2.631   2.165   5.324
    3MOL    O27  534   2.723   1.981   5.360
    3MOL    C49  535   2.654   1.948   5.481
    3MOL    C50  536   2.993   2.116   5.006
    3MOL    H40  537   3.066   2.072   5.075
    3MOL    O28  538   3.058   2.158   4.884
    3MOL    C51  539   3.184   2.225   4.900
    3MOL    C52  540   2.891   2.006   4.969
    3MOL    H41  541   2.828   2.043   4.886
    3MOL    O29  542   2.965   1.889   4.931
    3MOL    C53  543   2.966   1.865   4.790
    3MOL    C54  544   2.798   1.969   5.086
    3MOL    H42  545   2.861   1.919   5.162
    3MOL    O30  546   2.694   1.880   5.038
    3MOL    C55  547   2.677   1.757   5.113
    3MOL    H43  548   2.764   1.741   5.179
    3MOL    O31  549   2.558   1.767   5.193
    3MOL    C56  550   2.433   1.782   5.119
    3MOL    H44  551   2.434   1.875   5.063
    3MOL    C57  552   2.319   1.785   5.222
    3MOL    H45  553   2.316   1.690   5.275
    3MOL    H46  554   2.224   1.801   5.171
    3MOL    O32  555   2.344   1.892   5.314
    3MOL    C58  556   2.251   1.892   5.422
    3MOL    C59  557   2.664   1.633   5.021
    3MOL    H47  558   2.661   1.543   5.083
    3MOL    O33  559   2.777   1.626   4.932
    3MOL    C60  560   2.899   1.582   4.994
    3MOL    C61  561   2.536   1.635   4.935
    3MOL    H48  562   2.544   1.715   4.861
    3MOL    O34  563   2.519   1.506   4.872
    3MOL    C62  564   2.568   1.496   4.736
    3MOL    C63  565   2.412   1.663   5.022
    3MOL    H49  566   2.388   1.574   5.082
    3MOL    O35  567   2.301   1.698   4.935
    3MOL    C64  568   2.219   1.585   4.894
    3MOL    H50  569   2.280   1.495   4.888
    3MOL    O36  570   2.114   1.569   4.992
    3MOL    C65  571   2.022   1.680   5.003
    3MOL    H51  572   2.076   1.773   5.026
    3MOL    C66  573   1.928   1.649   5.121
    3MOL    H52  574   1.880   1.551   5.105
    3MOL    H53  575   1.850   1.724   5.130
    3MOL    O37  576   2.006   1.648   5.241
    3MOL    C67  577   1.932   1.608   5.357
    3MOL    C68  578   2.157   1.608   4.753
    3MOL    H54  579   2.110   1.514   4.721
    3MOL    O38  580   2.262   1.646   4.662
    3MOL    C69  581   2.257   1.584   4.532
    3MOL    C70  582   2.050   1.719   4.753
    3MOL    H55  583   2.104   1.813   4.767
    3MOL    O39  584   1.979   1.713   4.628
    3MOL    C71  585   1.989   1.829   4.545
    3MOL    C72  586   1.948   1.701   4.868
    3MOL    H56  587   1.888   1.612   4.845
    3MOL    O40  588   1.866   1.821   4.873
    3MOL    H57  589   1.378   1.975   5.370
    3MOL    H58  590   1.534   1.910   5.427
    3MOL    H59  591   1.515   2.086   5.399
    3MOL    H60  592   1.996   1.614   5.446
    3MOL    H61  593   1.846   1.675   5.372
    3MOL    H62  594   1.897   1.505   5.347
    3MOL    H63  595   2.265   1.981   5.483
    3MOL    H64  596   2.149   1.890   5.382
    3MOL    H65  597   2.266   1.803   5.484
    3MOL    H66  598   2.710   1.871   5.536
    3MOL    H67  599   2.645   2.037   5.544
    3MOL    H68  600   2.555   1.909   5.458
    3MOL    H69  601   3.059   2.483   5.402
    3MOL    H70  602   2.899   2.521   5.465
    3MOL    H71  603   2.929   2.362   5.390
    3MOL    H72  604   2.782   3.139   5.087
    3MOL    H73  605   2.671   3.102   5.220
    3MOL    H74  606   2.799   2.985   5.175
    3MOL    H75  607   2.368   2.823   5.406
    3MOL    H76  608   2.316   2.654   5.434
    3MOL    H77  609   2.424   2.695   5.297
    3MOL    H78  610   1.748   2.560   5.568
    3MOL    H79  611   1.853   2.417   5.548
    3MOL    H80  612   1.896   2.573   5.471
    3MOL    H81  613   1.480   2.748   4.776
    3MOL    H82  614   1.646   2.684   4.772
    3MOL    H83  615   1.507   2.578   4.733
    3MOL    H84  616   1.258   2.284   4.775
    3MOL    H85  617   1.311   2.192   4.916
    3MOL    H86  618   1.230   2.350   4.938
    3MOL    H87  619   1.485   2.214   4.582
    3MOL    H88  620   1.626   2.262   4.680
    3MOL    H89  621   1.638   2.124   4.566
    3MOL    H90  622   1.715   1.735   4.497
    3MOL    H91  623   1.697   1.657   4.654
    3MOL    H92  624   1.554   1.731   4.576
    3MOL    H93  625   1.946   1.811   4.446
    3MOL    H94  626   1.933   1.912   4.591
    3MOL    H95  627   2.094   1.858   4.534
    3MOL    H96  628   2.343   1.617   4.472
    3MOL    H97  629   2.261   1.475   4.542
    3MOL    H98  630   2.164   1.611   4.480
    3MOL    H99  631   2.548   1.397   4.696
    3MOL   H100  632   2.518   1.569   4.672
    3MOL   H101  633   2.676   1.514   4.733
    3MOL   H102  634   2.975   1.569   4.917
    3MOL   H103  635   2.935   1.657   5.065
    3MOL   H104  636   2.884   1.486   5.046
    3MOL   H105  637   3.017   1.770   4.767
    3MOL   H106  638   2.862   1.859   4.754
    3MOL   H107  639   3.017   1.946   4.736
    3MOL   H108  640   3.236   2.230   4.804
    3MOL   H109  641   3.168   2.327   4.937
    3MOL   H110  642   3.248   2.171   4.971
    3MOL   H111  643   3.009   2.302   4.602
    3MOL   H112  644   2.865   2.260   4.697
    3MOL   H113  645   2.858   2.394   4.578
    3MOL   H114  646   2.834   2.812   4.518
    3MOL   H115  647   2.785   2.879   4.676
    3MOL   H116  648   2.955   2.833   4.647
    3MOL   H117  649   2.618   2.672   4.478
    3MOL   H118  650   2.561   2.580   4.619
    3MOL   H119  651   2.445   2.639   4.495
    3MOL   H120  652   2.140   2.849   4.453
    3MOL   H121  653   2.226   2.991   4.518
    3MOL   H122  654   2.317   2.847   4.463
    3MOL   H123  655   1.934   3.101   4.737
    3MOL   H124  656   1.991   2.935   4.703
    3MOL   H125  657   1.823   2.963   4.753
    3MOL   H126  658   1.520   2.938   5.034
    3MOL   H127  659   1.570   2.805   5.140
    3MOL   H128  660   1.633   2.971   5.166
    4MOL     C1  661   1.710   1.793   6.008
    4MOL     H1  662   1.687   1.688   5.989
    4MOL     O1  663   1.666   1.828   6.139
    4MOL     C2  664   1.686   1.966   6.174
    4MOL     H2  665   1.790   1.995   6.155
    4MOL     C3  666   1.661   1.974   6.323
    4MOL     H3  667   1.693   2.072   6.360
    4MOL     H4  668   1.719   1.895   6.371
    4MOL     O2  669   1.521   1.953   6.348
    4MOL     C4  670   1.485   1.975   6.483
    4MOL     C5  671   1.629   1.881   5.905
    4MOL     H5  672   1.527   1.840   5.902
    4MOL     O3  673   1.688   1.873   5.774
    4MOL     C6  674   1.664   1.747   5.711
    4MOL     C7  675   1.611   2.032   5.942
    4MOL     H6  676   1.698   2.087   5.916
    4MOL     O4  677   1.504   2.092   5.867
    4MOL     C8  678   1.553   2.171   5.756
    4MOL     C9  679   1.590   2.056   6.092
    4MOL     H7  680   1.486   2.035   6.117
    4MOL     O5  681   1.625   2.195   6.115
    4MOL    C10  682   1.540   2.266   6.207
    4MOL     H8  683   1.456   2.203   6.238
    4MOL     O6  684   1.619   2.302   6.323
    4MOL    C11  685   1.734   2.387   6.298
    4MOL     H9  686   1.801   2.338   6.226
    4MOL    C12  687   1.811   2.405   6.431
    4MOL    H10  688   1.908   2.452   6.411
    4MOL    H11  689   1.829   2.307   6.477
    4MOL     O7  690   1.733   2.486   6.521
    4MOL    C13  691   1.803   2.517   6.643
    4MOL    C14  692   1.485   2.393   6.137
    4MOL    H12  693   1.407   2.438   6.198
    4MOL     O8  694   1.434   2.361   6.005
    4MOL    C15  695   1.306   2.296   6.001
    4MOL    C16  696   1.595   2.497   6.116
    4MOL    H13  697   1.660   2.465   6.034
    4MOL     O9  698   1.531   2.622   6.088
    4MOL    C17  699   1.552   2.669   5.955
    4MOL    C18  700   1.684   2.520   6.239
    4MOL    H14  701   1.624   2.574   6.313
    4MOL    O10  702   1.795   2.599   6.192
    4MOL    C19  703   1.831   2.710   6.276
    4MOL    H15  704   1.759   2.722   6.358
    4MOL    O11  705   1.961   2.685   6.331
    4MOL    C20  706   2.069   2.671   6.235
    4MOL    H16  707   2.045   2.590   6.165
    4MOL    C21  708   2.195   2.631   6.314
    4MOL    H17  709   2.273   2.598   6.243
    4MOL    H18  710   2.171   2.547   6.380
    4MOL    O12  711   2.240   2.745   6.389
    4MOL    C22  712   2.340   2.718   6.487
    4MOL    C23  713   1.836   2.841   6.192
    4MOL    H19  714   1.857   2.923   6.260
    4MOL    O13  715   1.711   2.864   6.125
    4MOL    C24  716   1.607   2.920   6.207
    4MOL    C25  717   1.949   2.840   6.087
    4MOL    H20  718   1.929   2.765   6.010
    4MOL    O14  719   1.957   2.973   6.031
    4MOL    C26  720   1.895   2.987   5.901
    4MOL    C27  721   2.084   2.804   6.156
    4MOL    H21  722   2.112   2.884   6.226
    4MOL    O15  723   2.187   2.785   6.057
    4MOL    C28  724   2.253   2.907   6.015
    4MOL    H22  725   2.183   2.990   6.007
    4MOL    O16  726   2.357   2.939   6.110
    4MOL    C29  727   2.457   2.838   6.132
    4MOL    H23  728   2.411   2.746   6.170
    4MOL    C30  729   2.551   2.894   6.240
    4MOL    H24  730   2.618   2.814   6.275
    4MOL    H25  731   2.492   2.929   6.325
    4MOL    O17  732   2.627   3.001   6.182
    4MOL    C31  733   2.728   3.051   6.268
    4MOL    C32  734   2.318   2.884   5.877
    4MOL    H26  735   2.359   2.979   5.842
    4MOL    O18  736   2.214   2.836   5.789
    4MOL    C33  737   2.226   2.881   5.654
    4MOL    C34  738   2.429   2.778   5.885
    4MOL    H27  739   2.381   2.683   5.905
    4MOL    O19  740   2.501   2.780   5.759
    4MOL    C35  741   2.490   2.657   5.686
    4MOL    C36  742   2.530   2.807   5.997
    4MOL    H28  743   2.589   2.894   5.966
    4MOL    O20  744   2.615   2.690   6.013
    4MOL    C37  745   2.753   2.718   6.046
    4MOL    H29  746   2.772   2.825   6.043
    4MOL    O21  747   2.780   2.669   6.179
    4MOL    C38  748   2.760   2.528   6.200
    4MOL    H30  749   2.658   2.503   6.170
    4MOL    C39  750   2.776   2.499   6.350
    4MOL    H31  751   2.740   2.398   6.372
    4MOL    H32  752   2.712   2.569   6.406
    4MOL    O22  753   2.914   2.512   6.390
    4MOL    C40  754   2.939   2.482   6.528
    4MOL    C41  755   2.849   2.646   5.948
    4MOL    H33  756   2.950   2.679   5.973
    4MOL    O23  757   2.818   2.682   5.811
    4MOL    C42  758   2.855   2.816   5.774
    4MOL    C43  759   2.845   2.492   5.962
    4MOL    H34  760   2.750   2.454   5.922
    4MOL    O24  761   2.959   2.440   5.889
    4MOL    C44  762   2.926   2.354   5.778
    4MOL    C45  763   2.859   2.449   6.109
    4MOL    H35  764   2.962   2.472   6.141
    4MOL    O25  765   2.832   2.307   6.119
    4MOL    C46  766   2.920   2.234   6.208
    4MOL    H36  767   2.999   2.300   6.244
    4MOL    O26  768   2.844   2.186   6.322
    4MOL    C47  769   2.737   2.092   6.292
    4MOL    H37  770   2.667   2.138   6.222
    4MOL    C48  771   2.661   2.062   6.423
    4MOL    H38  772   2.566   2.014   6.400
    4MOL    H39  773   2.639   2.156   6.475
    4MOL    O27  774   2.741   1.980   6.511
    4MOL    C49  775   2.669   1.935   6.627
    4MOL    C50  776   2.986   2.113   6.135
    4MOL    H40  777   3.061   2.070   6.201
    4MOL    O28  778   3.047   2.156   6.012
    4MOL    C51  779   3.169   2.231   6.025
    4MOL    C52  780   2.881   2.004   6.102
    4MOL    H41  781   2.814   2.042   6.024
    4MOL    O29  782   2.952   1.886   6.058
    4MOL    C53  783   2.946   1.861   5.917
    4MOL    C54  784   2.798   1.966   6.226
    4MOL    H42  785   2.863   1.915   6.297
    4MOL    O30  786   2.692   1.880   6.180
    4MOL    C55  787   2.671   1.758   6.256
    4MOL    H43  788   2.755   1.741   6.325
    4MOL    O31  789   2.548   1.770   6.331
    4MOL    C56  790   2.429   1.794   6.252
    4MOL    H44  791   2.438   1.888   6.196
    4MOL    C57  792   2.308   1.804   6.346
    4MOL    H45  793   2.293   1.707   6.394
    4MOL    H46  794   2.217   1.828   6.290
    4MOL    O32  795   2.331   1.905   6.445
    4MOL    C58  796   2.261   1.880   6.567
    4MOL    C59  797   2.659   1.637   6.160
    4MOL    H47  798   2.651   1.545   6.220
    4MOL    O33  799   2.776   1.628   6.075
    4MOL    C60  800   2.895   1.579   6.139
    4MOL    C61  801   2.535   1.647   6.069
    4MOL    H48  802   2.549   1.730   5.998
    4MOL    O34  803   2.517   1.521   6.001
    4MOL    C62  804   2.565   1.517   5.866
    4MOL    C63  805   2.408   1.677   6.153
    4MOL    H49  806   2.382   1.588   6.212
    4MOL    O35  807   2.300   1.712   6.064
    4MOL    C64  808   2.220   1.599   6.022
    4MOL    H50  809   2.284   1.510   6.015
    4MOL    O36  810   2.117   1.576   6.120
    4MOL    C65  811   2.016   1.680   6.134
    4MOL    H51  812   2.063   1.776   6.157
    4MOL    C66  813   1.924   1.638   6.250
    4MOL    H52  814   1.897   1.532   6.240
    4MOL    H53  815   1.831   1.696   6.249
    4MOL    O37  816   1.992   1.661   6.375
    4MOL    C67  817   1.921   1.611   6.488
    4MOL    C68  818   2.156   1.621   5.883
    4MOL    H54  819   2.115   1.526   5.850
    4MOL    O38  820   2.257   1.664   5.790
    4MOL    C69  821   2.263   1.586   5.669
    4MOL    C70  822   2.039   1.721   5.883
    4MOL    H55  823   2.080   1.822   5.893
    4MOL    O39  824   1.968   1.701   5.759
    4MOL    C71  825   1.985   1.805   5.664
    4MOL    C72  826   1.940   1.696   5.998
    4MOL    H56  827   1.882   1.604   5.977
    4MOL    O40  828   1.854   1.813   6.002
    4MOL    H57  829   1.376   1.961   6.495
    4MOL    H58  830   1.536   1.904   6.549
    4MOL    H59  831   1.511   2.077   6.513
    4MOL    H60  832   1.976   1.630   6.581
    4MOL    H61  833   1.821   1.657   6.495
    4MOL    H62  834   1.907   1.502   6.479
    4MOL    H63  835   2.275   1.963   6.637
    4MOL    H64  836   2.153   1.867   6.548
    4MOL    H65  837   2.298   1.788   6.615
    4MOL    H66  838   2.732   1.867   6.686
    4MOL    H67  839   2.640   2.021   6.690
    4MOL    H68  840   2.578   1.881   6.598
    4MOL    H69  841   3.045   2.493   6.551
    4MOL    H70  842   2.883   2.551   6.593
    4MOL    H71  843   2.909   2.379   6.551
    4MOL    H72  844   2.781   3.134   6.219
    4MOL    H73  845   2.683   3.088   6.360
    4MOL    H74  846   2.800   2.972   6.293
    4MOL    H75  847   2.380   2.811   6.527
    4MOL    H76  848   2.296   2.661   6.570
    4MOL    H77  849   2.423   2.660   6.443
    4MOL    H78  850   1.737   2.574   6.708
    4MOL    H79  851   1.831   2.425   6.695
    4MOL    H80  852   1.892   2.576   6.622
    4MOL    H81  853   1.502   2.765   5.947
    4MOL    H82  854   1.659   2.681   5.934
    4MOL    H83  855   1.508   2.599   5.882
    4MOL    H84  856   1.275   2.276   5.898
    4MOL    H85  857   1.310   2.200   6.054
    4MOL    H86  858   1.230   2.359   6.049
    4MOL    H87  859   1.471   2.198   5.690
    4MOL    H88  860   1.601   2.263   5.794
    4MOL    H89  861   1.628   2.115   5.698
    4MOL    H90  862   1.689   1.751   5.605
    4MOL    H91  863   1.723   1.667   5.759
    4MOL    H92  864   1.558   1.722   5.721
    4MOL    H93  865   1.931   1.782   5.572
    4MOL    H94  866   1.945   1.898   5.705
    4MOL    H95  867   2.092   1.816   5.641
    4MOL    H96  868   2.347   1.619   5.607
    4MOL    H97  869   2.277   1.480   5.693
    4MOL    H98  870   2.170   1.597   5.612
    4MOL    H99  871   2.537   1.421   5.820
    4MOL   H100  872   2.521   1.598   5.807
    4MOL   H101  873   2.674   1.526   5.864
    4MOL   H102  874   2.974   1.565   6.064
    4MOL   H103  875   2.931   1.652   6.212
    4MOL   H104  876   2.876   1.484   6.189
    4MOL   H105  877   3.008   1.773   5.892
    4MOL   H106  878   2.843   1.841   5.886
    4MOL   H107  879   2.984   1.947   5.861
    4MOL   H108  880   3.219   2.238   5.928
    4MOL   H109  881   3.149   2.332   6.061
    4MOL   H110  882   3.237   2.181   6.096
    4MOL   H111  883   3.017   2.317   5.731
    4MOL   H112  884   2.868   2.268   5.813
    4MOL   H113  885   2.868   2.410   5.703
    4MOL   H114  886   2.853   2.828   5.665
    4MOL   H115  887   2.786   2.889   5.819
    4MOL   H116  888   2.958   2.839   5.807
    4MOL   H117  889   2.520   2.670   5.582
    4MOL   H118  890   2.555   2.582   5.732
    4MOL   H119  891   2.386   2.624   5.684
    4MOL   H120  892   2.146   2.837   5.594
    4MOL   H121  893   2.220   2.990   5.651
    4MOL   H122  894   2.322   2.851   5.611
    4MOL   H123  895   1.894   3.092   5.871
    4MOL   H124  896   1.950   2.929   5.826
    4MOL   H125  897   1.791   2.953   5.904
    4MOL   H126  898   1.522   2.950   6.143
    4MOL   H127  899   1.571   2.846   6.279
    4MOL   H128  900   1.643   3.009   6.259
    5SOL     OW  901   0.242   0.597   0.109
    5SOL    HW1  902   0.167   0.591   0.169
    5SOL    HW2  903   0.206   0.638   0.031
    6SOL     OW  904   0.194   0.293   0.989
    6SOL    HW1  905   0.229   0.268   1.075
    6SOL    HW2  906   0.130   0.225   0.969
    7SOL     OW  907   0.003   0.382   0.639
    7SOL    HW1  908   4.427   0.421   0.684
    7SOL    HW2  909   4.466   0.310   0.588
    8SOL     OW  910   0.567   1.288   1.176
    8SOL    HW1  911   0.480   1.293   1.137
    8SOL    HW2  912   0.583   1.375   1.211
    9SOL     OW  913   1.561   1.511   0.708
    9SOL    HW1  914   1.518   1.491   0.791
    9SOL    HW2  915   1.489   1.514   0.644
   10SOL     OW  916   1.135   0.699   0.698
   10SOL    HW1  917   1.181   0.782   0.688
   10SOL    HW2  918   1.084   0.708   0.778
   11SOL     OW  919   1.777   0.602   0.216
   11SOL    HW1  920   1.721   0.608   0.139
   11SOL    HW2  921   1.738   0.532   0.268
   12SOL     OW  922   0.754   1.142   1.041
   12SOL    HW1  923   0.686   1.177   1.098
   12SOL    HW2  924   0.790   1.218   0.996
   13SOL     OW  925   0.866   0.772   1.821
   13SOL    HW1  926   0.852   0.843   1.884
   13SOL    HW2  927   0.890   0.817   1.740
   14SOL     OW  928   0.685   1.003   0.647
   14SOL    HW1  929   0.751   0.990   0.715
   14SOL    HW2  930   0.616   1.054   0.689
   15SOL     OW  931   0.711   1.150   1.813
   15SOL    HW1  932   0.758   1.229   1.840
   15SOL    HW2  933   0.629   1.182   1.776
   16SOL     OW  934   0.335   1.421   1.069
   16SOL    HW1  935   0.254   1.402   1.022
   16SOL    HW2  936   0.386   1.475   1.008
   17SOL     OW  937   1.461   1.499   1.354
   17SOL    HW1  938   1.512   1.580   1.363
   17SOL    HW2  939   1.399   1.502   1.427
   18SOL     OW  940   0.439   0.394   1.489
   18SOL    HW1  941   0.529   0.360   1.490
   18SOL    HW2  942   0.385   0.319   1.513
   19SOL     OW  943   1.610   0.446   0.739
   19SOL    HW1  944   1.529   0.465   0.693
   19SOL    HW2  945   1.627   0.524   0.791
   20SOL     OW  946   0.245   1.691   0.482
   20SOL    HW1  947   0.232   1.778   0.520
   20SOL    HW2  948   0.307   1.705   0.411
   21SOL     OW  949   1.136   1.341   1.693
   21SOL    HW1  950   1.177   1.337   1.779
   21SOL    HW2  951   1.084   1.262   1.686
   22SOL     OW  952   0.245   1.427   0.528
   22SOL    HW1  953   0.240   1.522   0.528
   22SOL    HW2  954   0.180   1.400   0.593
   23SOL     OW  955   0.246   1.082   0.883
   23SOL    HW1  956   0.264   0.992   0.912
   23SOL    HW2  957   0.187   1.117   0.950
   24SOL     OW  958   0.613   1.791   1.431
   24SOL    HW1  959   0.529   1.773   1.475
   24SOL    HW2  960   0.633   1.881   1.455
   25SOL     OW  961   0.570   0.995   0.149
   25SOL    HW1  962   0.620   1.032   0.076
   25SOL    HW2  963   0.620   1.021   0.227
   26SOL     OW  964   1.581   0.116   1.470
   26SOL    HW1  965   1.605   0.185   1.408
   26SOL    HW2  966   1.571   0.162   1.554
   27SOL     OW  967   0.136   0.644   0.574
   27SOL    HW1  968   0.084   0.566   0.593
   27SOL    HW2  969   0.110   0.708   0.641
   28SOL     OW  970   1.846   1.781   0.335
   28SOL    HW1  971   1.900   1.743   0.405
   28SOL    HW2  972   1.909   1.826   0.278
   29SOL     OW  973   0.074   1.590   0.151
   29SOL    HW1  974   0.039   1.501   0.158
   29SOL    HW2  975   0.027   1.639   0.218
   30SOL     OW  976   1.690   0.919   0.641
   30SOL    HW1  977   1.773   0.878   0.619
   30SOL    HW2  978   1.667   0.971   0.564
   31SOL     OW  979   1.647   1.105   0.432
   31SOL    HW1  980   1.729   1.116   0.384
   31SOL    HW2  981   1.652   1.167   0.504
   32SOL     OW  982   0.104   0.765   1.579
   32SOL    HW1  983   0.195   0.760   1.549
   32SOL    HW2  984   0.092   0.858   1.602
   33SOL     OW  985   0.614   1.386   0.736
   33SOL    HW1  986   0.567   1.303   0.746
   33SOL    HW2  987   0.597   1.413   0.646
   34SOL     OW  988   1.288   1.238   1.423
   34SOL    HW1  989   1.321   1.171   1.363
   34SOL    HW2  990   1.346   1.232   1.499
   35SOL     OW  991   0.822   0.011   0.553
   35SOL    HW1  992   0.860   0.089   0.513
   35SOL    HW2  993   0.727   0.022   0.543
   36SOL     OW  994   0.179   0.940   1.279
   36SOL    HW1  995   0.270   0.922   1.259
   36SOL    HW2  996   0.133   0.928   1.196
   37SOL     OW  997   1.516   1.001   0.204
   37SOL    HW1  998   1.452   0.941   0.240
   37SOL    HW2  999   1.566   1.032   0.279
   38SOL     OW 1000   1.185   1.806   1.622
   38SOL    HW1 1001   1.197   1.865   1.547
   38SOL    HW2 1002   1.201   1.719   1.587
   39SOL     OW 1003   0.318   0.260   1.768
   39SOL    HW1 1004   0.386   0.311   1.813
   39SOL    HW2 1005   0.241   0.267   1.825
   40SOL     OW 1006   1.466   1.419   0.951
   40SOL    HW1 1007   1.398   1.435   1.017
   40SOL    HW2 1008   1.453   1.328   0.925
   41SOL     OW 1009   1.656   1.737   0.581
   41SOL    HW1 1010   1.634   1.709   0.492
   41SOL    HW2 1011   1.631   1.663   0.636
   42SOL     OW 1012   0.594   0.719   0.263
   42SOL    HW1 1013   0.598   0.801   0.214
   42SOL    HW2 1014   0.532   0.736   0.334
   43SOL     OW 1015   1.289   0.363   0.934
   43SOL    HW1 1016   1.199   0.332   0.922
   43SOL    HW2 1017   1.328   0.300   0.995
   44SOL     OW 1018   1.584   1.672   0.313
   44SOL    HW1 1019   1.671   1.709   0.303
   44SOL    HW2 1020   1.556   1.651   0.224
   45SOL     OW 1021   0.797   0.618   1.454
   45SOL    HW1 1022   0.769   0.593   1.542
   45SOL    HW2 1023   0.754   0.555   1.396
   46SOL     OW 1024   1.388   0.479   1.676
   46SOL    HW1 1025   1.392   0.524   1.761
   46SOL    HW2 1026   1.455   0.411   1.682
   47SOL     OW 1027   0.954   0.888   1.583
   47SOL    HW1 1028   1.009   0.817   1.547
   47SOL    HW2 1029   0.908   0.922   1.507
   48SOL     OW 1030   0.998   0.417   1.236
   48SOL    HW1 1031   0.910   0.426   1.274
   48SOL    HW2 1032   0.983   0.367   1.155
   49SOL     OW 1033   1.050   0.701   0.427
   49SOL    HW1 1034   1.067   0.692   0.521
   49SOL    HW2 1035   0.967   0.654   0.414
   50SOL     OW 1036   0.098   0.824   0.784
   50SOL    HW1 1037   0.184   0.812   0.824
   50SOL    HW2 1038   0.042   0.854   0.856
   51SOL     OW 1039   0.122   1.860   1.577
   51SOL    HW1 1040   0.116   1.835   1.670
   51SOL    HW2 1041   0.046   1.818   1.536
   52SOL     OW 1042   0.879   0.361   0.204
   52SOL    HW1 1043   0.930   0.415   0.143
   52SOL    HW2 1044   0.906   0.271   0.185
   53SOL     OW 1045   1.704   0.573   1.828
   53SOL    HW1 1046   1.668   0.648   1.780
   53SOL    HW2 1047   1.740   0.516   1.760
   54SOL     OW 1048   1.378   1.142   0.541
   54SOL    HW1 1049   1.456   1.129   0.487
   54SOL    HW2 1050   1.324   1.204   0.492
   55SOL     OW 1051   0.541   0.205   0.899
   55SOL    HW1 1052   0.562   0.223   0.991
   55SOL    HW2 1053   0.536   0.291   0.858
   56SOL     OW 1054   1.005   1.444   0.474
   56SOL    HW1 1055   0.968   1.517   0.424
   56SOL    HW2 1056   0.985   1.465   0.565
   57SOL     OW 1057   0.356   1.811   0.860
   57SOL    HW1 1058   0.398   1.725   0.869
   57SOL    HW2 1059   0.426   1.874   0.875
   58SOL     OW 1060   1.799   1.056   0.868
   58SOL    HW1 1061   1.744   1.039   0.791
   58SOL    HW2 1062   1.738   1.062   0.941
   59SOL     OW 1063   1.228   1.539   1.513
   59SOL    HW1 1064   1.214   1.466   1.574
   59SOL    HW2 1065   1.165   1.524   1.443
   60SOL     OW 1066   0.313   0.955   0.279
   60SOL    HW1 1067   0.396   0.983   0.240
   60SOL    HW2 1068   0.309   0.861   0.263
   61SOL     OW 1069   1.480   0.741   0.723
   61SOL    HW1 1070   1.469   0.699   0.808
   61SOL    HW2 1071   1.556   0.798   0.735
   62SOL     OW 1072   0.468   1.263   1.735
   62SOL    HW1 1073   0.441   1.269   1.644
   62SOL    HW2 1074   0.386   1.267   1.785
   63SOL     OW 1075   1.108   1.779   0.227
   63SOL    HW1 1076   1.047   1.728   0.280
   63SOL    HW2 1077   1.149   1.715   0.169
   64SOL     OW 1078   0.162   0.266   1.510
   64SOL    HW1 1079   0.135   0.353   1.481
   64SOL    HW2 1080   0.197   0.279   1.598
   65SOL     OW 1081   1.627   1.374   0.092
   65SOL    HW1 1082   1.586   1.459   0.077
   65SOL    HW2 1083   1.562   1.310   0.061
   66SOL     OW 1084   0.468   1.741   0.318
   66SOL    HW1 1085   0.508   1.798   0.384
   66SOL    HW2 1086   0.542   1.712   0.264
   67SOL     OW 1087   1.420   0.137   0.425
   67SOL    HW1 1088   1.399   0.101   0.338
   67SOL    HW2 1089   1.516   0.135   0.429
   68SOL     OW 1090   0.256   1.788   1.233
   68SOL    HW1 1091   0.304   1.714   1.269
   68SOL    HW2 1092   0.225   1.759   1.148
   69SOL     OW 1093   0.938   1.699   0.899
   69SOL    HW1 1094   1.015   1.647   0.920
   69SOL    HW2 1095   0.894   1.649   0.830
   70SOL     OW 1096   0.393   0.692   0.469
   70SOL    HW1 1097   0.419   0.601   0.484
   70SOL    HW2 1098   0.302   0.696   0.499
   71SOL     OW 1099   1.525   0.233   1.723
   71SOL    HW1 1100   1.525   0.255   1.816
   71SOL    HW2 1101   1.447   0.179   1.711
   72SOL     OW 1102   0.601   0.103   0.122
   72SOL    HW1 1103   0.694   0.082   0.120
   72SOL    HW2 1104   0.567   0.071   0.038
   73SOL     OW 1105   0.768   0.270   1.754
   73SOL    HW1 1106   0.835   0.202   1.761
   73SOL    HW2 1107   0.729   0.274   1.842
   74SOL     OW 1108   0.877   1.522   1.194
   74SOL    HW1 1109   0.861   1.486   1.106
   74SOL    HW2 1110   0.946   1.467   1.230
   75SOL     OW 1111   1.341   0.589   1.429
   75SOL    HW1 1112   1.369   0.561   1.516
   75SOL    HW2 1113   1.375   0.678   1.421
   76SOL     OW 1114   0.816   1.395   0.940
   76SOL    HW1 1115   0.899   1.383   0.895
   76SOL    HW2 1116   0.751   1.396   0.869
   77SOL     OW 1117   0.924   0.517   0.900
   77SOL    HW1 1118   0.907   0.518   0.806
   77SOL    HW2 1119   0.962   0.431   0.916
   78SOL     OW 1120   0.563   0.069   0.513
   78SOL    HW1 1121   0.475   0.056   0.549
   78SOL    HW2 1122   0.551   0.137   0.447
   79SOL     OW 1123   1.425   1.196   0.029
   79SOL    HW1 1124   1.456   1.124   0.084
   79SOL    HW2 1125   1.342   1.222   0.069
   80SOL     OW 1126   0.297   0.054   0.191
   80SOL    HW1 1127   0.377   0.089   0.151
   80SOL    HW2 1128   0.329   4.499   0.263
   81SOL     OW 1129   0.952   0.227   0.445
   81SOL    HW1 1130   0.906   0.290   0.390
   81SOL    HW2 1131   1.041   0.261   0.451
   82SOL     OW 1132   1.081   0.681   1.461
   82SOL    HW1 1133   1.010   0.616   1.460
   82SOL    HW2 1134   1.160   0.630   1.449
   83SOL     OW 1135   1.223   1.570   0.794
   83SOL    HW1 1136   1.240   1.636   0.727
   83SOL    HW2 1137   1.292   1.584   0.860
   84SOL     OW 1138   0.468   1.150   0.739
   84SOL    HW1 1139   0.397   1.130   0.800
   84SOL    HW2 1140   0.429   1.137   0.652
   85SOL     OW 1141   1.268   1.794   0.607
   85SOL    HW1 1142   1.315   1.856   0.550
   85SOL    HW2 1143   1.203   1.847   0.652
   86SOL     OW 1144   1.020   0.531   0.037
   86SOL    HW1 1145   0.982   0.616   0.015
   86SOL    HW2 1146   1.094   0.551   0.095
   87SOL     OW 1147   0.094   0.516   1.413
   87SOL    HW1 1148   0.151   0.524   1.337
   87SOL    HW2 1149   0.059   0.605   1.426
   88SOL     OW 1150   0.561   0.245   1.166
   88SOL    HW1 1151   0.592   0.162   1.203
   88SOL    HW2 1152   0.467   0.246   1.185
   89SOL     OW 1153   0.860   0.511   0.630
   89SOL    HW1 1154   0.823   0.544   0.548
   89SOL    HW2 1155   0.831   0.420   0.634
   90SOL     OW 1156   0.958   0.029   0.786
   90SOL    HW1 1157   0.912   0.025   0.703
   90SOL    HW2 1158   0.981   4.438   0.805
   91SOL     OW 1159   1.437   1.162   0.857
   91SOL    HW1 1160   1.368   1.096   0.856
   91SOL    HW2 1161   1.461   1.173   0.765
   92SOL     OW 1162   1.466   0.605   0.974
   92SOL    HW1 1163   1.412   0.526   0.976
   92SOL    HW2 1164   1.523   0.597   1.050
   93SOL     OW 1165   1.849   0.813   0.378
   93SOL    HW1 1166   1.902   0.763   0.440
   93SOL    HW2 1167   1.821   0.749   0.313
   94SOL     OW 1168   0.494   1.423   0.174
   94SOL    HW1 1169   0.415   1.398   0.221
   94SOL    HW2 1170   0.490   1.373   0.092
   95SOL     OW 1171   1.671   1.265   0.647
   95SOL    HW1 1172   1.766   1.269   0.659
   95SOL    HW2 1173   1.640   1.353   0.668
   96SOL     OW 1174   1.391   0.574   0.077
   96SOL    HW1 1175   1.328   0.556   0.147
   96SOL    HW2 1176   1.458   0.507   0.088
   97SOL     OW 1177   0.524   0.262   0.325
   97SOL    HW1 1178   0.557   0.204   0.257
   97SOL    HW2 1179   0.510   0.345   0.281
   98SOL     OW 1180   1.753   1.239   1.574
   98SOL    HW1 1181   1.840   1.200   1.567
   98SOL    HW2 1182   1.768   1.329   1.601
   99SOL     OW 1183   1.058   1.354   1.334
   99SOL    HW1 1184   0.983   1.323   1.385
   99SOL    HW2 1185   1.134   1.312   1.375
  100SOL     OW 1186   1.609   1.625   1.654
  100SOL    HW1 1187   1.602   1.660   1.565
  100SOL    HW2 1188   1.692   1.578   1.655
  101SOL     OW 1189   1.129   1.204   1.105
  101SOL    HW1 1190   1.070   1.242   1.170
  101SOL    HW2 1191   1.097   1.236   1.021
  102SOL     OW 1192   1.628   1.098   1.077
  102SOL    HW1 1193   1.623   1.160   1.150
  102SOL    HW2 1194   1.550   1.115   1.026
  103SOL     OW 1195   0.901   0.134   1.387
  103SOL    HW1 1196   0.923   0.089   1.306
  103SOL    HW2 1197   0.985   0.150   1.430
  104SOL     OW 1198   0.984   1.114   1.723
  104SOL    HW1 1199   0.892   1.131   1.745
  104SOL    HW2 1200   0.982   1.037   1.667
  105SOL     OW 1201   0.710   1.059   0.374
  105SOL    HW1 1202   0.698   1.044   0.468
  105SOL    HW2 1203   0.786   1.005   0.351
  106SOL     OW 1204   0.430   0.827   1.242
  106SOL    HW1 1205   0.498   0.837   1.308
  106SOL    HW2 1206   0.372   0.759   1.277
  107SOL     OW 1207   1.269   0.375   1.274
  107SOL    HW1 1208   1.301   0.454   1.318
  107SOL    HW2 1209   1.180   0.397   1.247
  108SOL     OW 1210   0.063   1.577   1.345
  108SOL    HW1 1211   0.037   1.665   1.319
  108SOL    HW2 1212   0.158   1.579   1.348
  109SOL     OW 1213   0.345   1.118   0.499
  109SOL    HW1 1214   0.350   1.193   0.439
  109SOL    HW2 1215   0.339   1.042   0.443
  110SOL     OW 1216   0.563   0.525   0.852
  110SOL    HW1 1217   0.575   0.586   0.780
  110SOL    HW2 1218   0.624   0.556   0.920
  111SOL     OW 1219   1.247   1.346   0.396
  111SOL    HW1 1220   1.303   1.419   0.423
  111SOL    HW2 1221   1.160   1.369   0.427
  112SOL     OW 1222   1.281   1.458   1.147
  112SOL    HW1 1223   1.337   1.460   1.225
  112SOL    HW2 1224   1.226   1.381   1.160
  113SOL     OW 1225   1.585   0.627   0.476
  113SOL    HW1 1226   1.534   0.668   0.546
  113SOL    HW2 1227   1.619   0.700   0.425
  114SOL     OW 1228   0.347   1.532   1.314
  114SOL    HW1 1229   0.333   1.484   1.232
  114SOL    HW2 1230   0.442   1.541   1.321
  115SOL     OW 1231   0.487   0.760   1.671
  115SOL    HW1 1232   0.512   0.798   1.587
  115SOL    HW2 1233   0.532   0.676   1.674
  116SOL     OW 1234   1.601   0.778   1.681
  116SOL    HW1 1235   1.515   0.820   1.675
  116SOL    HW2 1236   1.654   0.820   1.613
  117SOL     OW 1237   1.004   0.086   1.718
  117SOL    HW1 1238   1.037   0.168   1.681
  117SOL    HW2 1239   1.028   0.019   1.654
  118SOL     OW 1240   0.495   0.044   1.752
  118SOL    HW1 1241   0.481   4.497   1.670
  118SOL    HW2 1242   0.429   0.113   1.752
  119SOL     OW 1243   0.589   0.874   1.024
  119SOL    HW1 1244   0.620   0.965   1.026
  119SOL    HW2 1245   0.534   0.866   1.101
  120SOL     OW 1246   1.357   0.858   1.029
  120SOL    HW1 1247   1.274   0.849   0.983
  120SOL    HW2 1248   1.398   0.772   1.022
  121SOL     OW 1249   1.199   0.532   0.265
  121SOL    HW1 1250   1.208   0.453   0.319
  121SOL    HW2 1251   1.157   0.596   0.323
  122SOL     OW 1252   0.284   0.216   1.234
  122SOL    HW1 1253   0.245   0.233   1.320
  122SOL    HW2 1254   0.326   0.130   1.244
  123SOL     OW 1255   0.037   1.313   1.286
  123SOL    HW1 1256   0.075   1.265   1.360
  123SOL    HW2 1257   0.044   1.405   1.311
  124SOL     OW 1258   0.724   0.630   1.057
  124SOL    HW1 1259   0.798   0.611   1.000
  124SOL    HW2 1260   0.698   0.719   1.033
  125SOL     OW 1261   1.735   0.959   1.853
  125SOL    HW1 1262   1.688   0.899   1.795
  125SOL    HW2 1263   1.675   0.973   1.927
  126SOL     OW 1264   0.318   0.073   0.629
  126SOL    HW1 1265   0.302   0.162   0.661
  126SOL    HW2 1266   0.308   0.017   0.706
  127SOL     OW 1267   1.619   0.378   0.362
  127SOL    HW1 1268   1.645   0.313   0.427
  127SOL    HW2 1269   1.593   0.455   0.414
  128SOL     OW 1270   1.029   0.761   0.961
  128SOL    HW1 1271   1.025   0.777   1.055
  128SOL    HW2 1272   1.000   0.671   0.951
  129SOL     OW 1273   0.982   1.566   1.717
  129SOL    HW1 1274   0.967   1.610   1.633
  129SOL    HW2 1275   1.025   1.484   1.694
  130SOL     OW 1276   1.856   1.503   1.605
  130SOL    HW1 1277   1.869   1.532   1.515
  130SOL    HW2 1278   1.937   1.526   1.651
  131SOL     OW 1279   0.346   0.934   1.818
  131SOL    HW1 1280   0.418   0.965   1.873
  131SOL    HW2 1281   0.386   0.867   1.762
  132SOL     OW 1282   1.532   0.296   0.110
  132SOL    HW1 1283   1.475   0.222   0.125
  132SOL    HW2 1284   1.567   0.319   0.196
  133SOL     OW 1285   1.287   0.822   0.032
  133SOL    HW1 1286   1.331   0.737   0.042
  133SOL    HW2 1287   1.322   0.858  11.051
  134SOL     OW 1288   1.066   1.335   0.854
  134SOL    HW1 1289   1.069   1.263   0.791
  134SOL    HW2 1290   1.127   1.400   0.819
  135SOL     OW 1291   0.319   0.813   0.947
  135SOL    HW1 1292   0.413   0.830   0.944
  135SOL    HW2 1293   0.312   0.722   0.976
  136SOL     OW 1294   0.334   0.530   0.989
  136SOL    HW1 1295   0.290   0.448   0.970
  136SOL    HW2 1296   0.412   0.529   0.934
  137SOL     OW 1297   1.136   0.373   1.697
  137SOL    HW1 1298   1.085   0.437   1.747
  137SOL    HW2 1299   1.221   0.414   1.683
  138SOL     OW 1300   1.156   0.213   1.473
  138SOL    HW1 1301   1.151   0.277   1.544
  138SOL    HW2 1302   1.197   0.261   1.401
  139SOL     OW 1303   4.497   1.324   0.202
  139SOL    HW1 1304   4.403   1.343   0.194
  139SOL    HW2 1305   0.000   1.232   0.228
  140SOL     OW 1306   0.097   1.775   0.940
  140SOL    HW1 1307   0.059   1.725   0.868
  140SOL    HW2 1308   0.185   1.797   0.909
  141SOL     OW 1309   0.496   1.574   0.907
  141SOL    HW1 1310   0.564   1.637   0.931
  141SOL    HW2 1311   0.540   1.511   0.850
  142SOL     OW 1312   0.984   0.793   1.227
  142SOL    HW1 1313   1.039   0.770   1.301
  142SOL    HW2 1314   0.899   0.754   1.248
  143SOL     OW 1315   0.036   0.566   1.109
  143SOL    HW1 1316   0.113   0.527   1.069
  143SOL    HW2 1317   0.014   0.508   1.182
  144SOL     OW 1318   0.179   0.525   1.713
  144SOL    HW1 1319   0.267   0.507   1.678
  144SOL    HW2 1320   0.152   0.605   1.668
  145SOL     OW 1321   1.378   0.939   1.658
  145SOL    HW1 1322   1.398   1.032   1.657
  145SOL    HW2 1323   1.374   0.913   1.566
  146SOL     OW 1324   0.811   0.577   0.361
  146SOL    HW1 1325   0.820   0.501   0.303
  146SOL    HW2 1326   0.738   0.626   0.324
  147SOL     OW 1327   1.640   0.601   1.186
  147SOL    HW1 1328   1.630   0.542   1.260
  147SOL    HW2 1329   1.727   0.582   1.152
  148SOL     OW 1330   0.272   1.562   1.740
  148SOL    HW1 1331   0.216   1.613   1.798
  148SOL    HW2 1332   0.254   1.471   1.763
  149SOL     OW 1333   0.688   0.464   1.266
  149SOL    HW1 1334   0.648   0.384   1.231
  149SOL    HW2 1335   0.693   0.522   1.191
  150SOL     OW 1336   0.927   1.679   1.468
  150SOL    HW1 1337   0.902   1.644   1.382
  150SOL    HW2 1338   0.923   1.774   1.457
  151SOL     OW 1339   0.475   0.483   0.180
  151SOL    HW1 1340   0.531   0.557   0.203
  151SOL    HW2 1341   0.391   0.523   0.159
  152SOL     OW 1342   0.161   1.140   1.461
  152SOL    HW1 1343   0.145   1.096   1.544
  152SOL    HW2 1344   0.169   1.070   1.396
  153SOL     OW 1345   1.326   1.046   1.223
  153SOL    HW1 1346   1.349   0.983   1.155
  153SOL    HW2 1347   1.256   1.099   1.184
  154SOL     OW 1348   1.309   0.852   0.310
  154SOL    HW1 1349   1.232   0.821   0.359
  154SOL    HW2 1350   1.286   0.838   0.218
  155SOL     OW 1351   1.767   1.743   1.149
  155SOL    HW1 1352   1.831   1.772   1.084
  155SOL    HW2 1353   1.748   1.652   1.126
  156SOL     OW 1354   1.241   1.733   1.112
  156SOL    HW1 1355   1.323   1.754   1.068
  156SOL    HW2 1356   1.247   1.639   1.131
  157SOL     OW 1357   0.066   1.184   1.050
  157SOL    HW1 1358   0.064   1.216   1.140
  157SOL    HW2 1359   0.027   1.254   0.998
  158SOL     OW 1360   0.679   1.666   1.730
  158SOL    HW1 1361   0.623   1.743   1.723
  158SOL    HW2 1362   0.743   1.677   1.660
  159SOL     OW 1363   0.878   0.065   0.124
  159SOL    HW1 1364   0.964   0.094   0.094
  159SOL    HW2 1365   0.897   0.012   0.201
  160SOL     OW 1366   1.720   0.134   0.495
  160SOL    HW1 1367   1.792   0.141   0.433
  160SOL    HW2 1368   1.741   0.057   0.548
  161SOL     OW 1369   1.390   1.568   0.486
  161SOL    HW1 1370   1.450   1.600   0.419
  161SOL    HW2 1371   1.342   1.646   0.514
  162SOL     OW 1372   0.118   1.808   1.848
  162SOL    HW1 1373   0.078   1.735   1.896
  162SOL    HW2 1374   0.182   1.845   1.909
  163SOL     OW 1375   1.279   0.928   0.673
  163SOL    HW1 1376   1.351   0.865   0.677
  163SOL    HW2 1377   1.312   1.000   0.620
  164SOL     OW 1378   0.814   1.274   1.430
  164SOL    HW1 1379   0.786   1.313   1.512
  164SOL    HW2 1380   0.744   1.296   1.368
  165SOL     OW 1381   0.674   1.621   0.168
  165SOL    HW1 1382   0.688   1.629   0.074
  165SOL    HW2 1383   0.617   1.545   0.178
  166SOL     OW 1384   1.623   1.725   1.390
  166SOL    HW1 1385   1.674   1.732   1.309
  166SOL    HW2 1386   1.611   1.815   1.420
  167SOL     OW 1387   1.839   0.154   0.966
  167SOL    HW1 1388   1.867   0.076   0.919
  167SOL    HW2 1389   1.752   0.173   0.930
  168SOL     OW 1390   0.263   0.324   0.722
  168SOL    HW1 1391   0.180   0.359   0.690
  168SOL    HW2 1392   0.250   0.315   0.816
  169SOL     OW 1393   1.223   1.602   0.053
  169SOL    HW1 1394   1.210   1.509   0.073
  169SOL    HW2 1395   1.159   1.621  11.085
  170SOL     OW 1396   0.825   1.007   1.372
  170SOL    HW1 1397   0.868   1.003   1.287
  170SOL    HW2 1398   0.824   1.100   1.394
  171SOL     OW 1399   0.914   0.906   0.281
  171SOL    HW1 1400   0.980   0.946   0.225
  171SOL    HW2 1401   0.962   0.842   0.334
  172SOL     OW 1402   1.499   1.622   0.048
  172SOL    HW1 1403   1.404   1.617   0.044
  172SOL    HW2 1404   1.525   1.637  11.057
  173SOL     OW 1405   0.373   1.308   1.491
  173SOL    HW1 1406   0.356   1.386   1.439
  173SOL    HW2 1407   0.298   1.251   1.474
  174SOL     OW 1408   1.610   1.283   1.280
  174SOL    HW1 1409   1.672   1.273   1.352
  174SOL    HW2 1410   1.550   1.352   1.308
  175SOL     OW 1411   1.052   1.107   0.706
  175SOL    HW1 1412   0.982   1.056   0.746
  175SOL    HW2 1413   1.116   1.042   0.677
  176SOL     OW 1414   1.010   0.242   1.000
  176SOL    HW1 1415   1.010   0.214   0.908
  176SOL    HW2 1416   1.001   0.161   1.050
  177SOL     OW 1417   0.603   1.490   0.483
  177SOL    HW1 1418   0.643   1.440   0.412
  177SOL    HW2 1419   0.530   1.536   0.441
  178SOL     OW 1420   1.722   0.394   1.377
  178SOL    HW1 1421   1.794   0.456   1.376
  178SOL    HW2 1422   1.751   0.322   1.320
  179SOL     OW 1423   0.263   1.328   0.284
  179SOL    HW1 1424   0.176   1.340   0.247
  179SOL    HW2 1425   0.259   1.368   0.370
  180SOL     OW 1426   0.115   1.006   1.695
  180SOL    HW1 1427   0.052   1.051   1.752
  180SOL    HW2 1428   0.194   0.997   1.748
  181SOL     OW 1429   0.658   0.209   1.498
  181SOL    HW1 1430   0.738   0.182   1.451
  181SOL    HW2 1431   0.687   0.226   1.588
  182SOL     OW 1432   0.051   0.339   0.015
  182SOL    HW1 1433   4.460   0.330   0.044
  182SOL    HW2 1434   0.069   0.433   0.026
  183SOL     OW 1435   1.429   0.858   1.400
  183SOL    HW1 1436   1.381   0.919   1.344
  183SOL    HW2 1437   1.519   0.861   1.365
  184SOL     OW 1438   0.081   0.182   0.294
  184SOL    HW1 1439   0.084   0.264   0.244
  184SOL    HW2 1440   0.159   0.134   0.266
  185SOL     OW 1441   1.183   1.339   0.122
  185SOL    HW1 1442   1.089   1.322   0.114
  185SOL    HW2 1443   1.201   1.332   0.216
  186SOL     OW 1444   0.624   0.830   1.430
  186SOL    HW1 1445   0.678   0.907   1.416
  186SOL    HW2 1446   0.686   0.758   1.439
  187SOL     OW 1447   1.484   1.777   0.979
  187SOL    HW1 1448   1.506   1.839   0.909
  187SOL    HW2 1449   1.568   1.761   1.023
  188SOL     OW 1450   0.713   0.562   1.705
  188SOL    HW1 1451   0.752   0.628   1.762
  188SOL    HW2 1452   0.747   0.479   1.737
  189SOL     OW 1453   1.472   1.200   1.632
  189SOL    HW1 1454   1.459   1.214   1.726
  189SOL    HW2 1455   1.565   1.215   1.617
  190SOL     OW 1456   0.379   1.744   1.565
  190SOL    HW1 1457   0.295   1.785   1.546
  190SOL    HW2 1458   0.357   1.664   1.613
  191SOL     OW 1459   1.670   0.881   1.255
  191SOL    HW1 1460   1.661   0.796   1.212
  191SOL    HW2 1461   1.660   0.945   1.185
  192SOL     OW 1462   1.218   0.327   0.447
  192SOL    HW1 1463   1.285   0.260   0.436
  192SOL    HW2 1464   1.244   0.374   0.527
  193SOL     OW 1465   0.584   0.738   0.671
  193SOL    HW1 1466   0.627   0.822   0.657
  193SOL    HW2 1467   0.519   0.732   0.602
  194SOL     OW 1468   1.762   0.366   1.644
  194SOL    HW1 1469   1.746   0.379   1.550
  194SOL    HW2 1470   1.684   0.320   1.675
  195SOL     OW 1471   1.745   0.933   1.512
  195SOL    HW1 1472   1.742   1.028   1.526
  195SOL    HW2 1473   1.730   0.922   1.419
  196SOL     OW 1474   0.905   1.356   0.070
  196SOL    HW1 1475   0.834   1.355   0.134
  196SOL    HW2 1476   0.891   1.437   0.020
  197SOL     OW 1477   0.661   1.791   0.946
  197SOL    HW1 1478   0.640   1.881   0.921
  197SOL    HW2 1479   0.756   1.785   0.936
  198SOL     OW 1480   0.868   0.967   0.854
  198SOL    HW1 1481   0.918   0.895   0.893
  198SOL    HW2 1482   0.833   1.015   0.929
  199SOL     OW 1483   1.079   0.989   0.085
  199SOL    HW1 1484   1.054   1.023  11.099
  199SOL    HW2 1485   1.155   0.934   0.068
  200SOL     OW 1486   1.854   1.550   0.841
  200SOL    HW1 1487   1.772   1.542   0.792
  200SOL    HW2 1488   1.844   1.491   0.915
  201SOL     OW 1489   0.231   1.305   1.858
  201SOL    HW1 1490   0.155   1.250   1.837
  201SOL    HW2 1491   0.227   1.316   1.953
  202SOL     OW 1492   0.105   1.229   0.668
  202SOL    HW1 1493   0.125   1.188   0.752
  202SOL    HW2 1494   0.170   1.195   0.608
  203SOL     OW 1495   0.682   1.403   1.628
  203SOL    HW1 1496   0.602   1.359   1.657
  203SOL    HW2 1497   0.676   1.491   1.666
  204SOL     OW 1498   1.808   0.181   1.238
  204SOL    HW1 1499   1.805   0.087   1.259
  204SOL    HW2 1500   1.824   0.184   1.144
  205SOL     OW 1501   0.439   0.431   0.530
  205SOL    HW1 1502   0.459   0.360   0.469
  205SOL    HW2 1503   0.382   0.391   0.596
  206SOL     OW 1504   1.703   1.487   1.092
  206SOL    HW1 1505   1.620   1.464   1.049
  206SOL    HW2 1506   1.714   1.420   1.159
  207SOL     OW 1507   0.310   0.505   1.253
  207SOL    HW1 1508   0.382   0.456   1.292
  207SOL    HW2 1509   0.336   0.516   1.161
  208SOL     OW 1510   0.827   1.578   0.678
  208SOL    HW1 1511   0.813   1.632   0.600
  208SOL    HW2 1512   0.751   1.520   0.681
  209SOL     OW 1513   1.432   0.217   1.117
  209SOL    HW1 1514   1.467   0.145   1.170
  209SOL    HW2 1515   1.381   0.269   1.179
  210SOL     OW 1516   0.996   0.008   1.151
  210SOL    HW1 1517   0.953   4.423   1.141
  210SOL    HW2 1518   1.089   4.488   1.162
  211SOL     OW 1519   0.768   1.328   0.317
  211SOL    HW1 1520   0.740   1.237   0.331
  211SOL    HW2 1521   0.852   1.334   0.362
  212SOL     OW 1522   0.621   1.556   1.286
  212SOL    HW1 1523   0.623   1.638   1.335
  212SOL    HW2 1524   0.708   1.549   1.247
  213SOL     OW 1525   1.351   0.058   0.169
  213SOL    HW1 1526   1.387   4.497   0.105
  213SOL    HW2 1527   1.270   0.017   0.199
  214SOL     OW 1528   1.315   0.463   0.677
  214SOL    HW1 1529   1.255   0.537   0.677
  214SOL    HW2 1530   1.302   0.421   0.762
  215SOL     OW 1531   1.586   0.200   0.868
  215SOL    HW1 1532   1.526   0.215   0.941
  215SOL    HW2 1533   1.588   0.283   0.821
  216SOL     OW 1534   0.038   1.051   0.284
  216SOL    HW1 1535   0.134   1.043   0.283
  216SOL    HW2 1536   0.012   1.020   0.371
  217SOL     OW 1537   0.886   1.654   0.347
  217SOL    HW1 1538   0.813   1.634   0.287
  217SOL    HW2 1539   0.854   1.727   0.399
  218SOL     OW 1540   0.246   0.627   1.984
  218SOL    HW1 1541   0.172   0.605   2.040
  218SOL    HW2 1542   0.214   0.615   1.895
  219SOL     OW 1543   0.193   0.293   2.851
  219SOL    HW1 1544   0.227   0.267   2.937
  219SOL    HW2 1545   0.132   0.224   2.827
  220SOL     OW 1546   0.003   0.383   2.501
  220SOL    HW1 1547   4.425   0.419   2.543
  220SOL    HW2 1548   4.470   0.311   2.448
  221SOL     OW 1549   0.568   1.288   3.038
  221SOL    HW1 1550   0.480   1.293   2.999
  221SOL    HW2 1551   0.583   1.376   3.073
  222SOL     OW 1552   1.560   1.510   2.570
  222SOL    HW1 1553   1.518   1.491   2.653
  222SOL    HW2 1554   1.489   1.515   2.507
  223SOL     OW 1555   1.135   0.698   2.560
  223SOL    HW1 1556   1.181   0.782   2.550
  223SOL    HW2 1557   1.085   0.708   2.641
  224SOL     OW 1558   1.768   0.606   2.089
  224SOL    HW1 1559   1.747   0.597   1.997
  224SOL    HW2 1560   1.734   0.526   2.130
  225SOL     OW 1561   0.754   1.142   2.903
  225SOL    HW1 1562   0.686   1.177   2.960
  225SOL    HW2 1563   0.790   1.219   2.859
  226SOL     OW 1564   0.866   0.772   3.683
  226SOL    HW1 1565   0.852   0.843   3.746
  226SOL    HW2 1566   0.890   0.817   3.601
  227SOL     OW 1567   0.685   1.003   2.509
  227SOL    HW1 1568   0.751   0.991   2.578
  227SOL    HW2 1569   0.616   1.054   2.551
  228SOL     OW 1570   0.711   1.150   3.675
  228SOL    HW1 1571   0.758   1.229   3.702
  228SOL    HW2 1572   0.629   1.182   3.638
  229SOL     OW 1573   0.335   1.421   2.931
  229SOL    HW1 1574   0.254   1.401   2.885
  229SOL    HW2 1575   0.385   1.475   2.870
  230SOL     OW 1576   1.461   1.500   3.216
  230SOL    HW1 1577   1.512   1.580   3.225
  230SOL    HW2 1578   1.399   1.502   3.289
  231SOL     OW 1579   0.440   0.394   3.352
  231SOL    HW1 1580   0.529   0.359   3.352
  231SOL    HW2 1581   0.385   0.319   3.375
  232SOL     OW 1582   1.611   0.445   2.601
  232SOL    HW1 1583   1.531   0.467   2.553
  232SOL    HW2 1584   1.628   0.523   2.653
  233SOL     OW 1585   0.245   1.691   2.339
  233SOL    HW1 1586   0.230   1.776   2.380
  233SOL    HW2 1587   0.314   1.708   2.275
  234SOL     OW 1588   1.136   1.341   3.555
  234SOL    HW1 1589   1.177   1.336   3.641
  234SOL    HW2 1590   1.084   1.262   3.548
  235SOL     OW 1591   0.249   1.426   2.389
  235SOL    HW1 1592   0.240   1.522   2.392
  235SOL    HW2 1593   0.186   1.394   2.454
  236SOL     OW 1594   0.248   1.082   2.746
  236SOL    HW1 1595   0.264   0.992   2.774
  236SOL    HW2 1596   0.188   1.117   2.812
  237SOL     OW 1597   0.613   1.791   3.293
  237SOL    HW1 1598   0.529   1.773   3.337
  237SOL    HW2 1599   0.633   1.881   3.317
  238SOL     OW 1600   0.578   0.987   2.001
  238SOL    HW1 1601   0.626   1.030   1.930
  238SOL    HW2 1602   0.623   1.016   2.080
  239SOL     OW 1603   1.580   0.116   3.332
  239SOL    HW1 1604   1.605   0.185   3.270
  239SOL    HW2 1605   1.571   0.161   3.416
  240SOL     OW 1606   0.136   0.644   2.436
  240SOL    HW1 1607   0.084   0.565   2.455
  240SOL    HW2 1608   0.108   0.707   2.502
  241SOL     OW 1609   1.840   1.732   2.200
  241SOL    HW1 1610   1.908   1.715   2.266
  241SOL    HW2 1611   1.842   1.827   2.189
  242SOL     OW 1612   0.032   1.602   2.003
  242SOL    HW1 1613   0.021   1.507   2.000
  242SOL    HW2 1614   0.024   1.624   2.096
  243SOL     OW 1615   1.691   0.920   2.503
  243SOL    HW1 1616   1.773   0.877   2.481
  243SOL    HW2 1617   1.667   0.970   2.425
  244SOL     OW 1618   1.646   1.107   2.291
  244SOL    HW1 1619   1.732   1.112   2.249
  244SOL    HW2 1620   1.651   1.168   2.364
  245SOL     OW 1621   0.104   0.766   3.441
  245SOL    HW1 1622   0.194   0.760   3.411
  245SOL    HW2 1623   0.092   0.858   3.464
  246SOL     OW 1624   0.614   1.385   2.598
  246SOL    HW1 1625   0.567   1.302   2.608
  246SOL    HW2 1626   0.597   1.412   2.508
  247SOL     OW 1627   1.289   1.238   3.285
  247SOL    HW1 1628   1.321   1.171   3.225
  247SOL    HW2 1629   1.347   1.232   3.361
  248SOL     OW 1630   0.821   0.014   2.414
  248SOL    HW1 1631   0.856   0.100   2.389
  248SOL    HW2 1632   0.726   0.022   2.402
  249SOL     OW 1633   0.179   0.941   3.141
  249SOL    HW1 1634   0.271   0.922   3.121
  249SOL    HW2 1635   0.133   0.927   3.058
  250SOL     OW 1636   1.532   0.993   2.061
  250SOL    HW1 1637   1.461   0.936   2.093
  250SOL    HW2 1638   1.572   1.028   2.140
  251SOL     OW 1639   1.186   1.807   3.484
  251SOL    HW1 1640   1.196   1.865   3.409
  251SOL    HW2 1641   1.201   1.719   3.449
  252SOL     OW 1642   0.318   0.260   3.630
  252SOL    HW1 1643   0.386   0.311   3.674
  252SOL    HW2 1644   0.241   0.267   3.687
  253SOL     OW 1645   1.466   1.419   2.814
  253SOL    HW1 1646   1.398   1.435   2.879
  253SOL    HW2 1647   1.453   1.328   2.787
  254SOL     OW 1648   1.660   1.732   2.444
  254SOL    HW1 1649   1.639   1.705   2.355
  254SOL    HW2 1650   1.633   1.659   2.499
  255SOL     OW 1651   0.595   0.723   2.128
  255SOL    HW1 1652   0.598   0.804   2.078
  255SOL    HW2 1653   0.530   0.738   2.196
  256SOL     OW 1654   1.292   0.364   2.795
  256SOL    HW1 1655   1.202   0.334   2.778
  256SOL    HW2 1656   1.327   0.301   2.857
  257SOL     OW 1657   1.574   1.669   2.171
  257SOL    HW1 1658   1.668   1.687   2.166
  257SOL    HW2 1659   1.548   1.653   2.080
  258SOL     OW 1660   0.797   0.618   3.316
  258SOL    HW1 1661   0.769   0.593   3.404
  258SOL    HW2 1662   0.755   0.555   3.258
  259SOL     OW 1663   1.388   0.479   3.538
  259SOL    HW1 1664   1.392   0.524   3.623
  259SOL    HW2 1665   1.455   0.411   3.544
  260SOL     OW 1666   0.955   0.888   3.445
  260SOL    HW1 1667   1.009   0.817   3.409
  260SOL    HW2 1668   0.907   0.922   3.369
  261SOL     OW 1669   0.998   0.417   3.097
  261SOL    HW1 1670   0.910   0.425   3.135
  261SOL    HW2 1671   0.985   0.365   3.018
  262SOL     OW 1672   1.050   0.697   2.289
  262SOL    HW1 1673   1.066   0.690   2.383
  262SOL    HW2 1674   0.967   0.651   2.275
  263SOL     OW 1675   0.097   0.826   2.646
  263SOL    HW1 1676   0.184   0.812   2.684
  263SOL    HW2 1677   0.042   0.852   2.720
  264SOL     OW 1678   0.122   1.860   3.439
  264SOL    HW1 1679   0.116   1.835   3.532
  264SOL    HW2 1680   0.046   1.818   3.399
  265SOL     OW 1681   0.853   0.369   2.042
  265SOL    HW1 1682   0.926   0.404   1.991
  265SOL    HW2 1683   0.870   0.275   2.048
  266SOL     OW 1684   1.703   0.573   3.690
  266SOL    HW1 1685   1.668   0.648   3.642
  266SOL    HW2 1686   1.740   0.516   3.622
  267SOL     OW 1687   1.377   1.142   2.403
  267SOL    HW1 1688   1.456   1.130   2.350
  267SOL    HW2 1689   1.324   1.205   2.353
  268SOL     OW 1690   0.541   0.205   2.762
  268SOL    HW1 1691   0.562   0.224   2.854
  268SOL    HW2 1692   0.533   0.291   2.721
  269SOL     OW 1693   1.005   1.444   2.334
  269SOL    HW1 1694   0.968   1.517   2.285
  269SOL    HW2 1695   0.987   1.465   2.425
  270SOL     OW 1696   0.356   1.811   2.721
  270SOL    HW1 1697   0.398   1.725   2.731
  270SOL    HW2 1698   0.426   1.874   2.737
  271SOL     OW 1699   1.799   1.057   2.729
  271SOL    HW1 1700   1.745   1.038   2.653
  271SOL    HW2 1701   1.738   1.063   2.802
  272SOL     OW 1702   1.228   1.539   3.376
  272SOL    HW1 1703   1.214   1.466   3.436
  272SOL    HW2 1704   1.165   1.524   3.305
  273SOL     OW 1705   0.316   0.954   2.116
  273SOL    HW1 1706   0.400   0.977   2.076
  273SOL    HW2 1707   0.300   0.863   2.089
  274SOL     OW 1708   1.480   0.742   2.586
  274SOL    HW1 1709   1.469   0.699   2.671
  274SOL    HW2 1710   1.556   0.799   2.598
  275SOL     OW 1711   0.468   1.263   3.597
  275SOL    HW1 1712   0.441   1.269   3.506
  275SOL    HW2 1713   0.386   1.267   3.647
  276SOL     OW 1714   1.122   1.778   2.093
  276SOL    HW1 1715   1.049   1.736   2.138
  276SOL    HW2 1716   1.145   1.717   2.023
  277SOL     OW 1717   0.162   0.266   3.372
  277SOL    HW1 1718   0.135   0.353   3.343
  277SOL    HW2 1719   0.197   0.279   3.460
  278SOL     OW 1720   1.628   1.380   1.951
  278SOL    HW1 1721   1.588   1.465   1.934
  278SOL    HW2 1722   1.560   1.316   1.931
  279SOL     OW 1723   0.469   1.743   2.176
  279SOL    HW1 1724   0.511   1.797   2.243
  279SOL    HW2 1725   0.541   1.708   2.124
  280SOL     OW 1726   1.421   0.139   2.280
  280SOL    HW1 1727   1.405   0.087   2.201
  280SOL    HW2 1728   1.516   0.132   2.294
  281SOL     OW 1729   0.256   1.788   3.095
  281SOL    HW1 1730   0.304   1.714   3.131
  281SOL    HW2 1731   0.225   1.759   3.010
  282SOL     OW 1732   0.938   1.699   2.761
  282SOL    HW1 1733   1.015   1.647   2.782
  282SOL    HW2 1734   0.894   1.649   2.692
  283SOL     OW 1735   0.394   0.693   2.334
  283SOL    HW1 1736   0.419   0.601   2.348
  283SOL    HW2 1737   0.302   0.697   2.360
  284SOL     OW 1738   1.525   0.233   3.585
  284SOL    HW1 1739   1.525   0.255   3.678
  284SOL    HW2 1740   1.447   0.179   3.573
  285SOL     OW 1741   0.625   0.120   1.980
  285SOL    HW1 1742   0.713   0.085   1.992
  285SOL    HW2 1743   0.595   0.083   1.897
  286SOL     OW 1744   0.768   0.270   3.616
  286SOL    HW1 1745   0.835   0.202   3.623
  286SOL    HW2 1746   0.729   0.274   3.704
  287SOL     OW 1747   0.877   1.522   3.056
  287SOL    HW1 1748   0.861   1.486   2.969
  287SOL    HW2 1749   0.946   1.467   3.092
  288SOL     OW 1750   1.341   0.589   3.291
  288SOL    HW1 1751   1.369   0.561   3.378
  288SOL    HW2 1752   1.375   0.678   3.283
  289SOL     OW 1753   0.815   1.395   2.802
  289SOL    HW1 1754   0.899   1.383   2.758
  289SOL    HW2 1755   0.751   1.396   2.731
  290SOL     OW 1756   0.923   0.519   2.761
  290SOL    HW1 1757   0.907   0.517   2.667
  290SOL    HW2 1758   0.960   0.433   2.781
  291SOL     OW 1759   0.562   0.069   2.370
  291SOL    HW1 1760   0.476   0.055   2.409
  291SOL    HW2 1761   0.549   0.138   2.305
  292SOL     OW 1762   1.428   1.198   1.903
  292SOL    HW1 1763   1.458   1.123   1.953
  292SOL    HW2 1764   1.342   1.220   1.940
  293SOL     OW 1765   0.305   0.073   2.051
  293SOL    HW1 1766   0.388   0.120   2.049
  293SOL    HW2 1767   0.320   4.499   2.109
  294SOL     OW 1768   0.954   0.240   2.330
  294SOL    HW1 1769   0.902   0.297   2.274
  294SOL    HW2 1770   1.043   0.276   2.324
  295SOL     OW 1771   1.080   0.681   3.322
  295SOL    HW1 1772   1.010   0.616   3.322
  295SOL    HW2 1773   1.160   0.630   3.311
  296SOL     OW 1774   1.224   1.570   2.656
  296SOL    HW1 1775   1.240   1.637   2.589
  296SOL    HW2 1776   1.292   1.585   2.722
  297SOL     OW 1777   0.466   1.150   2.597
  297SOL    HW1 1778   0.396   1.131   2.659
  297SOL    HW2 1779   0.427   1.134   2.511
  298SOL     OW 1780   1.269   1.794   2.470
  298SOL    HW1 1781   1.315   1.856   2.413
  298SOL    HW2 1782   1.203   1.847   2.515
  299SOL     OW 1783   1.028   0.547   1.879
  299SOL    HW1 1784   0.980   0.628   1.864
  299SOL    HW2 1785   1.088   0.567   1.952
  300SOL     OW 1786   0.094   0.516   3.275
  300SOL    HW1 1787   0.151   0.524   3.198
  300SOL    HW2 1788   0.058   0.604   3.288
  301SOL     OW 1789   0.561   0.245   3.029
  301SOL    HW1 1790   0.591   0.162   3.065
  301SOL    HW2 1791   0.467   0.246   3.047
  302SOL     OW 1792   0.865   0.503   2.489
  302SOL    HW1 1793   0.822   0.544   2.414
  302SOL    HW2 1794   0.829   0.415   2.493
  303SOL     OW 1795   0.961   0.023   2.648
  303SOL    HW1 1796   0.914   0.023   2.565
  303SOL    HW2 1797   0.976   4.430   2.667
  304SOL     OW 1798   1.437   1.162   2.719
  304SOL    HW1 1799   1.368   1.096   2.718
  304SOL    HW2 1800   1.460   1.173   2.627
  305SOL     OW 1801   1.465   0.605   2.836
  305SOL    HW1 1802   1.412   0.526   2.838
  305SOL    HW2 1803   1.523   0.597   2.912
  306SOL     OW 1804   1.845   0.816   2.245
  306SOL    HW1 1805   1.902   0.765   2.303
  306SOL    HW2 1806   1.817   0.754   2.178
  307SOL     OW 1807   0.491   1.418   2.021
  307SOL    HW1 1808   0.414   1.389   2.069
  307SOL    HW2 1809   0.476   1.389   1.931
  308SOL     OW 1810   1.671   1.265   2.507
  308SOL    HW1 1811   1.766   1.269   2.521
  308SOL    HW2 1812   1.640   1.352   2.529
  309SOL     OW 1813   1.394   0.571   1.932
  309SOL    HW1 1814   1.333   0.555   2.003
  309SOL    HW2 1815   1.480   0.553   1.970
  310SOL     OW 1816   0.521   0.264   2.182
  310SOL    HW1 1817   0.570   0.215   2.117
  310SOL    HW2 1818   0.505   0.349   2.142
  311SOL     OW 1819   1.753   1.239   3.436
  311SOL    HW1 1820   1.840   1.200   3.430
  311SOL    HW2 1821   1.769   1.329   3.462
  312SOL     OW 1822   1.058   1.354   3.196
  312SOL    HW1 1823   0.983   1.323   3.247
  312SOL    HW2 1824   1.134   1.312   3.237
  313SOL     OW 1825   1.610   1.626   3.515
  313SOL    HW1 1826   1.603   1.660   3.426
  313SOL    HW2 1827   1.692   1.577   3.516
  314SOL     OW 1828   1.129   1.204   2.967
  314SOL    HW1 1829   1.070   1.241   3.032
  314SOL    HW2 1830   1.097   1.236   2.883
  315SOL     OW 1831   1.628   1.098   2.939
  315SOL    HW1 1832   1.624   1.160   3.012
  315SOL    HW2 1833   1.549   1.115   2.888
  316SOL     OW 1834   0.901   0.134   3.249
  316SOL    HW1 1835   0.923   0.089   3.167
  316SOL    HW2 1836   0.985   0.150   3.292
  317SOL     OW 1837   0.984   1.114   3.585
  317SOL    HW1 1838   0.892   1.130   3.607
  317SOL    HW2 1839   0.983   1.037   3.529
  318SOL     OW 1840   0.709   1.061   2.234
  318SOL    HW1 1841   0.696   1.045   2.328
  318SOL    HW2 1842   0.784   1.008   2.211
  319SOL     OW 1843   0.430   0.827   3.104
  319SOL    HW1 1844   0.498   0.836   3.170
  319SOL    HW2 1845   0.372   0.758   3.138
  320SOL     OW 1846   1.269   0.375   3.136
  320SOL    HW1 1847   1.301   0.454   3.180
  320SOL    HW2 1848   1.180   0.397   3.109
  321SOL     OW 1849   0.063   1.576   3.207
  321SOL    HW1 1850   0.037   1.665   3.182
  321SOL    HW2 1851   0.158   1.580   3.210
  322SOL     OW 1852   0.345   1.109   2.355
  322SOL    HW1 1853   0.356   1.183   2.295
  322SOL    HW2 1854   0.346   1.032   2.299
  323SOL     OW 1855   0.563   0.525   2.714
  323SOL    HW1 1856   0.575   0.586   2.642
  323SOL    HW2 1857   0.624   0.556   2.782
  324SOL     OW 1858   1.248   1.348   2.251
  324SOL    HW1 1859   1.303   1.420   2.282
  324SOL    HW2 1860   1.161   1.369   2.285
  325SOL     OW 1861   1.281   1.458   3.009
  325SOL    HW1 1862   1.337   1.460   3.086
  325SOL    HW2 1863   1.226   1.380   3.022
  326SOL     OW 1864   1.582   0.623   2.340
  326SOL    HW1 1865   1.535   0.673   2.406
  326SOL    HW2 1866   1.626   0.690   2.287
  327SOL     OW 1867   0.347   1.532   3.176
  327SOL    HW1 1868   0.333   1.484   3.094
  327SOL    HW2 1869   0.442   1.541   3.183
  328SOL     OW 1870   0.487   0.760   3.533
  328SOL    HW1 1871   0.512   0.798   3.449
  328SOL    HW2 1872   0.531   0.675   3.536
  329SOL     OW 1873   1.601   0.778   3.543
  329SOL    HW1 1874   1.515   0.820   3.537
  329SOL    HW2 1875   1.654   0.820   3.475
  330SOL     OW 1876   1.003   0.086   3.580
  330SOL    HW1 1877   1.037   0.168   3.543
  330SOL    HW2 1878   1.028   0.019   3.516
  331SOL     OW 1879   0.495   0.044   3.614
  331SOL    HW1 1880   0.481   4.497   3.532
  331SOL    HW2 1881   0.430   0.113   3.614
  332SOL     OW 1882   0.589   0.875   2.886
  332SOL    HW1 1883   0.620   0.965   2.888
  332SOL    HW2 1884   0.534   0.866   2.963
  333SOL     OW 1885   1.357   0.858   2.891
  333SOL    HW1 1886   1.274   0.849   2.846
  333SOL    HW2 1887   1.398   0.772   2.884
  334SOL     OW 1888   1.203   0.535   2.124
  334SOL    HW1 1889   1.210   0.455   2.176
  334SOL    HW2 1890   1.160   0.598   2.182
  335SOL     OW 1891   0.284   0.216   3.096
  335SOL    HW1 1892   0.244   0.233   3.182
  335SOL    HW2 1893   0.326   0.130   3.106
  336SOL     OW 1894   0.037   1.313   3.148
  336SOL    HW1 1895   0.075   1.265   3.222
  336SOL    HW2 1896   0.044   1.405   3.173
  337SOL     OW 1897   0.723   0.631   2.919
  337SOL    HW1 1898   0.798   0.611   2.863
  337SOL    HW2 1899   0.698   0.720   2.895
  338SOL     OW 1900   1.735   0.959   3.715
  338SOL    HW1 1901   1.687   0.899   3.657
  338SOL    HW2 1902   1.676   0.973   3.789
  339SOL     OW 1903   0.321   0.074   2.493
  339SOL    HW1 1904   0.303   0.163   2.524
  339SOL    HW2 1905   0.309   0.019   2.570
  340SOL     OW 1906   1.615   0.378   2.224
  340SOL    HW1 1907   1.644   0.315   2.289
  340SOL    HW2 1908   1.592   0.456   2.275
  341SOL     OW 1909   1.029   0.762   2.823
  341SOL    HW1 1910   1.025   0.778   2.917
  341SOL    HW2 1911   1.000   0.671   2.813
  342SOL     OW 1912   0.983   1.567   3.579
  342SOL    HW1 1913   0.967   1.610   3.495
  342SOL    HW2 1914   1.025   1.484   3.556
  343SOL     OW 1915   1.855   1.503   3.467
  343SOL    HW1 1916   1.870   1.531   3.377
  343SOL    HW2 1917   1.936   1.524   3.513
  344SOL     OW 1918   0.346   0.934   3.680
  344SOL    HW1 1919   0.418   0.965   3.736
  344SOL    HW2 1920   0.386   0.867   3.624
  345SOL     OW 1921   1.530   0.264   1.990
  345SOL    HW1 1922   1.459   0.208   2.020
  345SOL    HW2 1923   1.560   0.310   2.069
  346SOL     OW 1924   1.291   0.826   1.892
  346SOL    HW1 1925   1.333   0.740   1.895
  346SOL    HW2 1926   1.322   0.866   1.811
  347SOL     OW 1927   1.066   1.336   2.716
  347SOL    HW1 1928   1.069   1.263   2.653
  347SOL    HW2 1929   1.127   1.400   2.681
  348SOL     OW 1930   0.318   0.812   2.809
  348SOL    HW1 1931   0.413   0.830   2.806
  348SOL    HW2 1932   0.312   0.722   2.838
  349SOL     OW 1933   0.334   0.530   2.851
  349SOL    HW1 1934   0.290   0.447   2.832
  349SOL    HW2 1935   0.412   0.528   2.795
  350SOL     OW 1936   1.136   0.373   3.559
  350SOL    HW1 1937   1.085   0.437   3.609
  350SOL    HW2 1938   1.221   0.414   3.546
  351SOL     OW 1939   1.156   0.213   3.335
  351SOL    HW1 1940   1.151   0.277   3.406
  351SOL    HW2 1941   1.197   0.261   3.263
  352SOL     OW 1942   4.491   1.322   2.068
  352SOL    HW1 1943   4.399   1.338   2.050
  352SOL    HW2 1944   4.495   1.229   2.089
  353SOL     OW 1945   0.098   1.775   2.802
  353SOL    HW1 1946   0.059   1.723   2.731
  353SOL    HW2 1947   0.186   1.797   2.771
  354SOL     OW 1948   0.496   1.574   2.769
  354SOL    HW1 1949   0.564   1.637   2.793
  354SOL    HW2 1950   0.540   1.511   2.712
  355SOL     OW 1951   0.983   0.793   3.089
  355SOL    HW1 1952   1.039   0.770   3.163
  355SOL    HW2 1953   0.899   0.754   3.109
  356SOL     OW 1954   0.038   0.568   2.973
  356SOL    HW1 1955   0.112   0.526   2.930
  356SOL    HW2 1956   0.013   0.507   3.043
  357SOL     OW 1957   0.179   0.525   3.575
  357SOL    HW1 1958   0.267   0.507   3.540
  357SOL    HW2 1959   0.151   0.605   3.530
  358SOL     OW 1960   1.378   0.939   3.520
  358SOL    HW1 1961   1.399   1.032   3.518
  358SOL    HW2 1962   1.374   0.913   3.428
  359SOL     OW 1963   0.811   0.574   2.218
  359SOL    HW1 1964   0.815   0.503   2.154
  359SOL    HW2 1965   0.739   0.630   2.188
  360SOL     OW 1966   1.640   0.601   3.048
  360SOL    HW1 1967   1.630   0.542   3.122
  360SOL    HW2 1968   1.727   0.582   3.014
  361SOL     OW 1969   0.272   1.562   3.602
  361SOL    HW1 1970   0.216   1.613   3.660
  361SOL    HW2 1971   0.254   1.471   3.625
  362SOL     OW 1972   0.688   0.463   3.128
  362SOL    HW1 1973   0.648   0.384   3.094
  362SOL    HW2 1974   0.693   0.522   3.053
  363SOL     OW 1975   0.928   1.679   3.330
  363SOL    HW1 1976   0.902   1.644   3.245
  363SOL    HW2 1977   0.922   1.774   3.319
  364SOL     OW 1978   0.472   0.490   2.044
  364SOL    HW1 1979   0.532   0.561   2.068
  364SOL    HW2 1980   0.389   0.534   2.029
  365SOL     OW 1981   0.162   1.141   3.323
  365SOL    HW1 1982   0.145   1.096   3.406
  365SOL    HW2 1983   0.169   1.070   3.258
  366SOL     OW 1984   1.326   1.047   3.085
  366SOL    HW1 1985   1.349   0.983   3.017
  366SOL    HW2 1986   1.256   1.099   3.046
  367SOL     OW 1987   1.312   0.856   2.168
  367SOL    HW1 1988   1.237   0.828   2.219
  367SOL    HW2 1989   1.286   0.843   2.077
  368SOL     OW 1990   1.763   1.742   3.011
  368SOL    HW1 1991   1.829   1.771   2.949
  368SOL    HW2 1992   1.747   1.651   2.988
  369SOL     OW 1993   1.241   1.733   2.974
  369SOL    HW1 1994   1.323   1.754   2.930
  369SOL    HW2 1995   1.247   1.639   2.993
  370SOL     OW 1996   0.067   1.185   2.912
  370SOL    HW1 1997   0.064   1.216   3.002
  370SOL    HW2 1998   0.025   1.254   2.861
  371SOL     OW 1999   0.679   1.666   3.592
  371SOL    HW1 2000   0.623   1.743   3.585
  371SOL    HW2 2001   0.743   1.677   3.522
  372SOL     OW 2002   1.719   0.130   2.354
  372SOL    HW1 2003   1.790   0.139   2.290
  372SOL    HW2 2004   1.747   0.058   2.411
  373SOL     OW 2005   1.389   1.567   2.349
  373SOL    HW1 2006   1.448   1.600   2.280
  373SOL    HW2 2007   1.340   1.645   2.377
  374SOL     OW 2008   0.118   1.808   3.710
  374SOL    HW1 2009   0.078   1.735   3.758
  374SOL    HW2 2010   0.182   1.845   3.771
  375SOL     OW 2011   1.279   0.927   2.534
  375SOL    HW1 2012   1.351   0.866   2.540
  375SOL    HW2 2013   1.312   1.000   2.481
  376SOL     OW 2014   0.814   1.274   3.292
  376SOL    HW1 2015   0.786   1.313   3.374
  376SOL    HW2 2016   0.744   1.295   3.230
  377SOL     OW 2017   0.672   1.620   2.017
  377SOL    HW1 2018   0.682   1.632   1.923
  377SOL    HW2 2019   0.617   1.542   2.026
  378SOL     OW 2020   1.624   1.726   3.253
  378SOL    HW1 2021   1.674   1.732   3.171
  378SOL    HW2 2022   1.612   1.816   3.281
  379SOL     OW 2023   1.839   0.154   2.828
  379SOL    HW1 2024   1.868   0.076   2.780
  379SOL    HW2 2025   1.752   0.173   2.792
  380SOL     OW 2026   0.263   0.325   2.584
  380SOL    HW1 2027   0.180   0.359   2.551
  380SOL    HW2 2028   0.248   0.315   2.678
  381SOL     OW 2029   1.207   1.606   1.894
  381SOL    HW1 2030   1.198   1.514   1.920
  381SOL    HW2 2031   1.142   1.618   1.824
  382SOL     OW 2032   0.825   1.007   3.234
  382SOL    HW1 2033   0.869   1.003   3.149
  382SOL    HW2 2034   0.824   1.100   3.256
  383SOL     OW 2035   0.915   0.910   2.152
  383SOL    HW1 2036   0.977   0.942   2.086
  383SOL    HW2 2037   0.963   0.841   2.197
  384SOL     OW 2038   1.492   1.625   1.903
  384SOL    HW1 2039   1.397   1.619   1.890
  384SOL    HW2 2040   1.529   1.631   1.815
  385SOL     OW 2041   0.373   1.308   3.353
  385SOL    HW1 2042   0.356   1.386   3.301
  385SOL    HW2 2043   0.298   1.250   3.336
  386SOL     OW 2044   1.610   1.283   3.142
  386SOL    HW1 2045   1.672   1.273   3.214
  386SOL    HW2 2046   1.550   1.352   3.170
  387SOL     OW 2047   1.052   1.107   2.568
  387SOL    HW1 2048   0.982   1.057   2.608
  387SOL    HW2 2049   1.115   1.042   2.538
  388SOL     OW 2050   1.004   0.244   2.868
  388SOL    HW1 2051   1.010   0.223   2.775
  388SOL    HW2 2052   0.997   0.159   2.912
  389SOL     OW 2053   0.604   1.489   2.344
  389SOL    HW1 2054   0.647   1.439   2.274
  389SOL    HW2 2055   0.530   1.532   2.302
  390SOL     OW 2056   1.722   0.394   3.239
  390SOL    HW1 2057   1.794   0.456   3.239
  390SOL    HW2 2058   1.751   0.322   3.182
  391SOL     OW 2059   0.252   1.344   2.138
  391SOL    HW1 2060   0.157   1.342   2.124
  391SOL    HW2 2061   0.263   1.376   2.227
  392SOL     OW 2062   0.115   1.007   3.557
  392SOL    HW1 2063   0.052   1.051   3.614
  392SOL    HW2 2064   0.194   0.997   3.610
  393SOL     OW 2065   0.658   0.209   3.360
  393SOL    HW1 2066   0.738   0.182   3.313
  393SOL    HW2 2067   0.687   0.226   3.450
  394SOL     OW 2068   0.072   0.320   1.888
  394SOL    HW1 2069   4.478   0.328   1.903
  394SOL    HW2 2070   0.098   0.407   1.857
  395SOL     OW 2071   1.429   0.858   3.262
  395SOL    HW1 2072   1.381   0.919   3.206
  395SOL    HW2 2073   1.519   0.861   3.228
  396SOL     OW 2074   0.085   0.188   2.164
  396SOL    HW1 2075   0.076   0.261   2.103
  396SOL    HW2 2076   0.165   0.143   2.136
  397SOL     OW 2077   1.179   1.339   1.979
  397SOL    HW1 2078   1.088   1.309   1.981
  397SOL    HW2 2079   1.207   1.339   2.071
  398SOL     OW 2080   0.624   0.830   3.292
  398SOL    HW1 2081   0.678   0.907   3.278
  398SOL    HW2 2082   0.686   0.758   3.301
  399SOL     OW 2083   1.485   1.777   2.841
  399SOL    HW1 2084   1.506   1.840   2.772
  399SOL    HW2 2085   1.568   1.762   2.886
  400SOL     OW 2086   0.713   0.562   3.567
  400SOL    HW1 2087   0.752   0.627   3.625
  400SOL    HW2 2088   0.747   0.478   3.599
  401SOL     OW 2089   1.472   1.200   3.494
  401SOL    HW1 2090   1.460   1.214   3.588
  401SOL    HW2 2091   1.565   1.215   3.479
  402SOL     OW 2092   0.379   1.744   3.427
  402SOL    HW1 2093   0.295   1.785   3.408
  402SOL    HW2 2094   0.357   1.664   3.475
  403SOL     OW 2095   1.669   0.881   3.117
  403SOL    HW1 2096   1.662   0.796   3.073
  403SOL    HW2 2097   1.660   0.945   3.047
  404SOL     OW 2098   1.218   0.330   2.309
  404SOL    HW1 2099   1.284   0.261   2.298
  404SOL    HW2 2100   1.246   0.378   2.388
  405SOL     OW 2101   0.587   0.737   2.533
  405SOL    HW1 2102   0.627   0.822   2.518
  405SOL    HW2 2103   0.520   0.730   2.465
  406SOL     OW 2104   1.762   0.365   3.506
  406SOL    HW1 2105   1.746   0.379   3.412
  406SOL    HW2 2106   1.683   0.320   3.537
  407SOL     OW 2107   1.745   0.933   3.374
  407SOL    HW1 2108   1.743   1.028   3.388
  407SOL    HW2 2109   1.730   0.922   3.280
  408SOL     OW 2110   0.863   1.367   1.897
  408SOL    HW1 2111   0.824   1.394   1.980
  408SOL    HW2 2112   0.880   1.449   1.850
  409SOL     OW 2113   0.661   1.791   2.807
  409SOL    HW1 2114   0.641   1.882   2.783
  409SOL    HW2 2115   0.756   1.785   2.799
  410SOL     OW 2116   0.868   0.968   2.716
  410SOL    HW1 2117   0.918   0.896   2.755
  410SOL    HW2 2118   0.833   1.015   2.791
  411SOL     OW 2119   1.079   0.988   1.951
  411SOL    HW1 2120   1.057   1.039   1.873
  411SOL    HW2 2121   1.154   0.935   1.924
  412SOL     OW 2122   1.853   1.546   2.701
  412SOL    HW1 2123   1.770   1.539   2.653
  412SOL    HW2 2124   1.842   1.488   2.777
  413SOL     OW 2125   0.230   1.305   3.720
  413SOL    HW1 2126   0.155   1.250   3.699
  413SOL    HW2 2127   0.226   1.316   3.815
  414SOL     OW 2128   0.108   1.234   2.530
  414SOL    HW1 2129   0.122   1.189   2.613
  414SOL    HW2 2130   0.167   1.191   2.469
  415SOL     OW 2131   0.683   1.403   3.491
  415SOL    HW1 2132   0.602   1.359   3.519
  415SOL    HW2 2133   0.676   1.491   3.528
  416SOL     OW 2134   1.808   0.181   3.100
  416SOL    HW1 2135   1.805   0.087   3.121
  416SOL    HW2 2136   1.824   0.184   3.006
  417SOL     OW 2137   0.441   0.431   2.394
  417SOL    HW1 2138   0.457   0.361   2.331
  417SOL    HW2 2139   0.381   0.392   2.457
  418SOL     OW 2140   1.704   1.485   2.952
  418SOL    HW1 2141   1.620   1.463   2.911
  418SOL    HW2 2142   1.715   1.419   3.021
  419SOL     OW 2143   0.311   0.506   3.115
  419SOL    HW1 2144   0.383   0.456   3.154
  419SOL    HW2 2145   0.336   0.516   3.023
  420SOL     OW 2146   0.828   1.578   2.540
  420SOL    HW1 2147   0.814   1.632   2.462
  420SOL    HW2 2148   0.751   1.521   2.542
  421SOL     OW 2149   1.432   0.216   2.980
  421SOL    HW1 2150   1.467   0.145   3.033
  421SOL    HW2 2151   1.381   0.269   3.041
  422SOL     OW 2152   0.996   0.006   3.013
  422SOL    HW1 2153   0.954   4.421   3.004
  422SOL    HW2 2154   1.089   4.487   3.024
  423SOL     OW 2155   0.772   1.333   2.176
  423SOL    HW1 2156   0.741   1.242   2.183
  423SOL    HW2 2157   0.854   1.334   2.226
  424SOL     OW 2158   0.621   1.556   3.147
  424SOL    HW1 2159   0.623   1.638   3.197
  424SOL    HW2 2160   0.708   1.549   3.109
  425SOL     OW 2161   1.340   0.052   2.016
  425SOL    HW1 2162   1.379   4.477   1.972
  425SOL    HW2 2163   1.264   0.017   2.063
  426SOL     OW 2164   1.314   0.463   2.538
  426SOL    HW1 2165   1.256   0.539   2.539
  426SOL    HW2 2166   1.303   0.423   2.624
  427SOL     OW 2167   1.585   0.200   2.730
  427SOL    HW1 2168   1.526   0.215   2.803
  427SOL    HW2 2169   1.588   0.284   2.683
  428SOL     OW 2170   0.041   1.051   2.150
  428SOL    HW1 2171   0.135   1.034   2.140
  428SOL    HW2 2172   0.021   1.020   2.239
  429SOL     OW 2173   0.885   1.653   2.204
  429SOL    HW1 2174   0.812   1.636   2.144
  429SOL    HW2 2175   0.856   1.728   2.256
  430SOL     OW 2176   0.246   0.627   3.846
  430SOL    HW1 2177   0.172   0.605   3.902
  430SOL    HW2 2178   0.214   0.615   3.757
  431SOL     OW 2179   0.193   0.293   4.713
  431SOL    HW1 2180   0.227   0.267   4.799
  431SOL    HW2 2181   0.131   0.224   4.690
  432SOL     OW 2182   0.003   0.383   4.363
  432SOL    HW1 2183   4.425   0.419   4.406
  432SOL    HW2 2184   4.470   0.311   4.310
  433SOL     OW 2185   0.568   1.288   4.900
  433SOL    HW1 2186   0.481   1.292   4.861
  433SOL    HW2 2187   0.583   1.376   4.935
  434SOL     OW 2188   1.551   1.510   4.420
  434SOL    HW1 2189   1.512   1.484   4.503
  434SOL    HW2 2190   1.478   1.510   4.358
  435SOL     OW 2191   1.135   0.698   4.422
  435SOL    HW1 2192   1.181   0.782   4.412
  435SOL    HW2 2193   1.085   0.709   4.503
  436SOL     OW 2194   1.768   0.606   3.951
  436SOL    HW1 2195   1.746   0.597   3.859
  436SOL    HW2 2196   1.734   0.526   3.992
  437SOL     OW 2197   0.756   1.142   4.766
  437SOL    HW1 2198   0.687   1.177   4.822
  437SOL    HW2 2199   0.790   1.219   4.720
  438SOL     OW 2200   0.866   0.772   5.545
  438SOL    HW1 2201   0.852   0.843   5.608
  438SOL    HW2 2202   0.890   0.818   5.464
  439SOL     OW 2203   0.685   1.003   4.371
  439SOL    HW1 2204   0.751   0.991   4.440
  439SOL    HW2 2205   0.616   1.054   4.413
  440SOL     OW 2206   0.711   1.150   5.537
  440SOL    HW1 2207   0.758   1.229   5.564
  440SOL    HW2 2208   0.629   1.182   5.500
  441SOL     OW 2209   0.335   1.421   4.793
  441SOL    HW1 2210   0.254   1.401   4.747
  441SOL    HW2 2211   0.385   1.475   4.732
  442SOL     OW 2212   1.466   1.502   5.089
  442SOL    HW1 2213   1.466   1.597   5.080
  442SOL    HW2 2214   1.400   1.484   5.156
  443SOL     OW 2215   0.440   0.394   5.213
  443SOL    HW1 2216   0.529   0.359   5.214
  443SOL    HW2 2217   0.385   0.319   5.237
  444SOL     OW 2218   1.611   0.445   4.462
  444SOL    HW1 2219   1.531   0.467   4.415
  444SOL    HW2 2220   1.629   0.524   4.514
  445SOL     OW 2221   0.245   1.692   4.201
  445SOL    HW1 2222   0.229   1.777   4.242
  445SOL    HW2 2223   0.314   1.708   4.136
  446SOL     OW 2224   1.137   1.342   5.415
  446SOL    HW1 2225   1.178   1.338   5.502
  446SOL    HW2 2226   1.084   1.263   5.411
  447SOL     OW 2227   0.250   1.427   4.251
  447SOL    HW1 2228   0.240   1.522   4.254
  447SOL    HW2 2229   0.187   1.394   4.315
  448SOL     OW 2230   0.249   1.082   4.609
  448SOL    HW1 2231   0.264   0.992   4.636
  448SOL    HW2 2232   0.188   1.117   4.674
  449SOL     OW 2233   0.614   1.790   5.156
  449SOL    HW1 2234   0.530   1.772   5.199
  449SOL    HW2 2235   0.634   1.881   5.179
  450SOL     OW 2236   0.578   0.987   3.863
  450SOL    HW1 2237   0.626   1.029   3.792
  450SOL    HW2 2238   0.623   1.016   3.942
  451SOL     OW 2239   1.580   0.116   5.194
  451SOL    HW1 2240   1.605   0.185   5.132
  451SOL    HW2 2241   1.571   0.161   5.278
  452SOL     OW 2242   0.136   0.644   4.298
  452SOL    HW1 2243   0.084   0.565   4.316
  452SOL    HW2 2244   0.108   0.707   4.364
  453SOL     OW 2245   1.845   1.777   4.054
  453SOL    HW1 2246   1.894   1.736   4.126
  453SOL    HW2 2247   1.904   1.843   4.019
  454SOL     OW 2248   0.032   1.602   3.865
  454SOL    HW1 2249   0.021   1.507   3.861
  454SOL    HW2 2250   0.024   1.624   3.958
  455SOL     OW 2251   1.687   0.917   4.363
  455SOL    HW1 2252   1.773   0.879   4.345
  455SOL    HW2 2253   1.668   0.970   4.286
  456SOL     OW 2254   1.647   1.109   4.155
  456SOL    HW1 2255   1.733   1.113   4.113
  456SOL    HW2 2256   1.654   1.170   4.228
  457SOL     OW 2257   0.104   0.766   5.303
  457SOL    HW1 2258   0.195   0.760   5.273
  457SOL    HW2 2259   0.092   0.858   5.326
  458SOL     OW 2260   0.614   1.385   4.460
  458SOL    HW1 2261   0.567   1.303   4.470
  458SOL    HW2 2262   0.597   1.412   4.370
  459SOL     OW 2263   1.294   1.244   5.142
  459SOL    HW1 2264   1.322   1.173   5.085
  459SOL    HW2 2265   1.346   1.233   5.222
  460SOL     OW 2266   0.821   0.014   4.276
  460SOL    HW1 2267   0.856   0.100   4.251
  460SOL    HW2 2268   0.727   0.022   4.264
  461SOL     OW 2269   0.179   0.941   5.003
  461SOL    HW1 2270   0.270   0.922   4.983
  461SOL    HW2 2271   0.133   0.927   4.921
  462SOL     OW 2272   1.532   0.994   3.923
  462SOL    HW1 2273   1.462   0.937   3.956
  462SOL    HW2 2274   1.573   1.028   4.002
  463SOL     OW 2275   1.180   1.804   5.344
  463SOL    HW1 2276   1.197   1.864   5.271
  463SOL    HW2 2277   1.198   1.717   5.309
  464SOL     OW 2278   0.318   0.260   5.492
  464SOL    HW1 2279   0.386   0.311   5.537
  464SOL    HW2 2280   0.241   0.267   5.549
  465SOL     OW 2281   1.453   1.427   4.667
  465SOL    HW1 2282   1.392   1.435   4.740
  465SOL    HW2 2283   1.450   1.334   4.643
  466SOL     OW 2284   1.649   1.725   4.273
  466SOL    HW1 2285   1.624   1.698   4.185
  466SOL    HW2 2286   1.627   1.650   4.329
  467SOL     OW 2287   0.595   0.723   3.990
  467SOL    HW1 2288   0.597   0.804   3.940
  467SOL    HW2 2289   0.529   0.738   4.058
  468SOL     OW 2290   1.292   0.365   4.657
  468SOL    HW1 2291   1.202   0.334   4.640
  468SOL    HW2 2292   1.327   0.301   4.719
  469SOL     OW 2293   1.579   1.667   4.019
  469SOL    HW1 2294   1.665   1.706   4.008
  469SOL    HW2 2295   1.549   1.649   3.930
  470SOL     OW 2296   0.797   0.618   5.178
  470SOL    HW1 2297   0.769   0.593   5.266
  470SOL    HW2 2298   0.755   0.555   5.120
  471SOL     OW 2299   1.388   0.480   5.400
  471SOL    HW1 2300   1.392   0.523   5.485
  471SOL    HW2 2301   1.455   0.411   5.406
  472SOL     OW 2302   0.955   0.888   5.307
  472SOL    HW1 2303   1.009   0.817   5.271
  472SOL    HW2 2304   0.907   0.922   5.231
  473SOL     OW 2305   0.997   0.418   4.959
  473SOL    HW1 2306   0.910   0.425   4.997
  473SOL    HW2 2307   0.985   0.365   4.880
  474SOL     OW 2308   1.050   0.698   4.151
  474SOL    HW1 2309   1.067   0.690   4.245
  474SOL    HW2 2310   0.967   0.651   4.137
  475SOL     OW 2311   0.097   0.827   4.508
  475SOL    HW1 2312   0.183   0.812   4.546
  475SOL    HW2 2313   0.042   0.851   4.583
  476SOL     OW 2314   0.122   1.860   5.301
  476SOL    HW1 2315   0.117   1.835   5.393
  476SOL    HW2 2316   0.046   1.818   5.260
  477SOL     OW 2317   0.853   0.369   3.905
  477SOL    HW1 2318   0.926   0.404   3.853
  477SOL    HW2 2319   0.870   0.275   3.910
  478SOL     OW 2320   1.704   0.572   5.552
  478SOL    HW1 2321   1.668   0.647   5.504
  478SOL    HW2 2322   1.740   0.515   5.484
  479SOL     OW 2323   1.378   1.143   4.265
  479SOL    HW1 2324   1.458   1.131   4.213
  479SOL    HW2 2325   1.325   1.204   4.213
  480SOL     OW 2326   0.542   0.204   4.624
  480SOL    HW1 2327   0.562   0.224   4.716
  480SOL    HW2 2328   0.533   0.290   4.583
  481SOL     OW 2329   1.006   1.445   4.197
  481SOL    HW1 2330   0.969   1.518   4.146
  481SOL    HW2 2331   0.985   1.466   4.288
  482SOL     OW 2332   0.356   1.811   4.583
  482SOL    HW1 2333   0.398   1.725   4.593
  482SOL    HW2 2334   0.426   1.874   4.599
  483SOL     OW 2335   1.800   1.052   4.592
  483SOL    HW1 2336   1.745   1.042   4.515
  483SOL    HW2 2337   1.738   1.061   4.665
  484SOL     OW 2338   1.228   1.537   5.234
  484SOL    HW1 2339   1.215   1.467   5.297
  484SOL    HW2 2340   1.159   1.524   5.169
  485SOL     OW 2341   0.316   0.954   3.978
  485SOL    HW1 2342   0.400   0.977   3.938
  485SOL    HW2 2343   0.300   0.863   3.951
  486SOL     OW 2344   1.479   0.742   4.449
  486SOL    HW1 2345   1.470   0.699   4.534
  486SOL    HW2 2346   1.556   0.798   4.458
  487SOL     OW 2347   0.468   1.263   5.459
  487SOL    HW1 2348   0.441   1.269   5.368
  487SOL    HW2 2349   0.386   1.266   5.509
  488SOL     OW 2350   1.122   1.777   3.956
  488SOL    HW1 2351   1.048   1.736   4.000
  488SOL    HW2 2352   1.145   1.716   3.886
  489SOL     OW 2353   0.162   0.266   5.234
  489SOL    HW1 2354   0.136   0.353   5.205
  489SOL    HW2 2355   0.197   0.279   5.322
  490SOL     OW 2356   1.628   1.381   3.812
  490SOL    HW1 2357   1.585   1.465   3.794
  490SOL    HW2 2358   1.560   1.316   3.793
  491SOL     OW 2359   0.469   1.743   4.038
  491SOL    HW1 2360   0.511   1.797   4.105
  491SOL    HW2 2361   0.541   1.708   3.986
  492SOL     OW 2362   1.421   0.139   4.142
  492SOL    HW1 2363   1.405   0.087   4.063
  492SOL    HW2 2364   1.516   0.132   4.156
  493SOL     OW 2365   0.256   1.789   4.957
  493SOL    HW1 2366   0.304   1.713   4.992
  493SOL    HW2 2367   0.224   1.759   4.872
  494SOL     OW 2368   0.938   1.699   4.622
  494SOL    HW1 2369   1.016   1.647   4.641
  494SOL    HW2 2370   0.893   1.651   4.553
  495SOL     OW 2371   0.394   0.693   4.196
  495SOL    HW1 2372   0.419   0.601   4.210
  495SOL    HW2 2373   0.302   0.696   4.222
  496SOL     OW 2374   1.525   0.233   5.447
  496SOL    HW1 2375   1.525   0.255   5.540
  496SOL    HW2 2376   1.447   0.178   5.435
  497SOL     OW 2377   0.625   0.121   3.842
  497SOL    HW1 2378   0.713   0.085   3.854
  497SOL    HW2 2379   0.595   0.083   3.759
  498SOL     OW 2380   0.768   0.270   5.478
  498SOL    HW1 2381   0.835   0.202   5.485
  498SOL    HW2 2382   0.729   0.274   5.566
  499SOL     OW 2383   0.877   1.523   4.917
  499SOL    HW1 2384   0.860   1.486   4.830
  499SOL    HW2 2385   0.945   1.467   4.955
  500SOL     OW 2386   1.341   0.589   5.153
  500SOL    HW1 2387   1.369   0.560   5.240
  500SOL    HW2 2388   1.376   0.678   5.145
  501SOL     OW 2389   0.815   1.395   4.664
  501SOL    HW1 2390   0.899   1.383   4.619
  501SOL    HW2 2391   0.750   1.396   4.594
  502SOL     OW 2392   0.923   0.519   4.623
  502SOL    HW1 2393   0.907   0.517   4.529
  502SOL    HW2 2394   0.960   0.433   4.643
  503SOL     OW 2395   0.562   0.069   4.232
  503SOL    HW1 2396   0.476   0.055   4.271
  503SOL    HW2 2397   0.549   0.138   4.167
  504SOL     OW 2398   1.428   1.198   3.765
  504SOL    HW1 2399   1.458   1.122   3.815
  504SOL    HW2 2400   1.342   1.219   3.802
  505SOL     OW 2401   0.305   0.073   3.913
  505SOL    HW1 2402   0.388   0.120   3.910
  505SOL    HW2 2403   0.320   4.499   3.971
  506SOL     OW 2404   0.954   0.240   4.192
  506SOL    HW1 2405   0.902   0.297   4.136
  506SOL    HW2 2406   1.043   0.276   4.186
  507SOL     OW 2407   1.080   0.681   5.184
  507SOL    HW1 2408   1.010   0.617   5.184
  507SOL    HW2 2409   1.160   0.630   5.173
  508SOL     OW 2410   1.217   1.571   4.519
  508SOL    HW1 2411   1.237   1.637   4.453
  508SOL    HW2 2412   1.297   1.563   4.570
  509SOL     OW 2413   0.467   1.150   4.459
  509SOL    HW1 2414   0.396   1.131   4.521
  509SOL    HW2 2415   0.428   1.134   4.373
  510SOL     OW 2416   1.270   1.794   4.335
  510SOL    HW1 2417   1.315   1.855   4.277
  510SOL    HW2 2418   1.199   1.845   4.375
  511SOL     OW 2419   1.028   0.547   3.742
  511SOL    HW1 2420   0.980   0.628   3.726
  511SOL    HW2 2421   1.088   0.567   3.814
  512SOL     OW 2422   0.095   0.516   5.137
  512SOL    HW1 2423   0.151   0.525   5.060
  512SOL    HW2 2424   0.058   0.604   5.150
  513SOL     OW 2425   0.561   0.245   4.891
  513SOL    HW1 2426   0.592   0.162   4.927
  513SOL    HW2 2427   0.467   0.246   4.909
  514SOL     OW 2428   0.865   0.504   4.351
  514SOL    HW1 2429   0.822   0.544   4.276
  514SOL    HW2 2430   0.829   0.415   4.355
  515SOL     OW 2431   0.961   0.023   4.510
  515SOL    HW1 2432   0.914   0.023   4.427
  515SOL    HW2 2433   0.976   4.430   4.529
  516SOL     OW 2434   1.438   1.166   4.582
  516SOL    HW1 2435   1.370   1.099   4.579
  516SOL    HW2 2436   1.467   1.174   4.491
  517SOL     OW 2437   1.465   0.606   4.699
  517SOL    HW1 2438   1.412   0.526   4.700
  517SOL    HW2 2439   1.523   0.597   4.775
  518SOL     OW 2440   1.845   0.816   4.106
  518SOL    HW1 2441   1.902   0.766   4.165
  518SOL    HW2 2442   1.818   0.754   4.039
  519SOL     OW 2443   0.491   1.418   3.883
  519SOL    HW1 2444   0.414   1.389   3.932
  519SOL    HW2 2445   0.476   1.388   3.793
  520SOL     OW 2446   1.673   1.266   4.373
  520SOL    HW1 2447   1.768   1.267   4.386
  520SOL    HW2 2448   1.645   1.355   4.393
  521SOL     OW 2449   1.394   0.571   3.793
  521SOL    HW1 2450   1.333   0.555   3.865
  521SOL    HW2 2451   1.480   0.553   3.832
  522SOL     OW 2452   0.521   0.264   4.044
  522SOL    HW1 2453   0.570   0.215   3.979
  522SOL    HW2 2454   0.505   0.349   4.004
  523SOL     OW 2455   1.752   1.229   5.299
  523SOL    HW1 2456   1.841   1.196   5.285
  523SOL    HW2 2457   1.761   1.289   5.373
  524SOL     OW 2458   1.057   1.356   5.060
  524SOL    HW1 2459   0.982   1.323   5.110
  524SOL    HW2 2460   1.133   1.314   5.100
  525SOL     OW 2461   1.591   1.646   5.356
  525SOL    HW1 2462   1.603   1.674   5.265
  525SOL    HW2 2463   1.658   1.579   5.370
  526SOL     OW 2464   1.132   1.210   4.830
  526SOL    HW1 2465   1.067   1.240   4.893
  526SOL    HW2 2466   1.097   1.235   4.744
  527SOL     OW 2467   1.627   1.097   4.801
  527SOL    HW1 2468   1.619   1.158   4.875
  527SOL    HW2 2469   1.549   1.115   4.748
  528SOL     OW 2470   0.901   0.134   5.111
  528SOL    HW1 2471   0.924   0.089   5.029
  528SOL    HW2 2472   0.985   0.149   5.154
  529SOL     OW 2473   0.984   1.116   5.446
  529SOL    HW1 2474   0.893   1.131   5.469
  529SOL    HW2 2475   0.983   1.037   5.391
  530SOL     OW 2476   0.709   1.061   4.096
  530SOL    HW1 2477   0.696   1.045   4.189
  530SOL    HW2 2478   0.784   1.008   4.072
  531SOL     OW 2479   0.430   0.826   4.966
  531SOL    HW1 2480   0.498   0.836   5.032
  531SOL    HW2 2481   0.372   0.758   5.000
  532SOL     OW 2482   1.269   0.375   4.998
  532SOL    HW1 2483   1.301   0.454   5.042
  532SOL    HW2 2484   1.180   0.397   4.971
  533SOL     OW 2485   0.062   1.576   5.069
  533SOL    HW1 2486   0.036   1.665   5.044
  533SOL    HW2 2487   0.158   1.580   5.072
  534SOL     OW 2488   0.346   1.109   4.217
  534SOL    HW1 2489   0.356   1.183   4.157
  534SOL    HW2 2490   0.346   1.032   4.161
  535SOL     OW 2491   0.564   0.525   4.577
  535SOL    HW1 2492   0.575   0.586   4.504
  535SOL    HW2 2493   0.624   0.556   4.644
  536SOL     OW 2494   1.246   1.347   4.113
  536SOL    HW1 2495   1.302   1.419   4.142
  536SOL    HW2 2496   1.159   1.368   4.147
  537SOL     OW 2497   1.282   1.454   4.875
  537SOL    HW1 2498   1.331   1.446   4.956
  537SOL    HW2 2499   1.223   1.378   4.875
  538SOL     OW 2500   1.581   0.623   4.201
  538SOL    HW1 2501   1.535   0.674   4.268
  538SOL    HW2 2502   1.628   0.689   4.149
  539SOL     OW 2503   0.346   1.532   5.038
  539SOL    HW1 2504   0.333   1.484   4.956
  539SOL    HW2 2505   0.442   1.542   5.045
  540SOL     OW 2506   0.487   0.761   5.396
  540SOL    HW1 2507   0.512   0.798   5.311
  540SOL    HW2 2508   0.530   0.675   5.398
  541SOL     OW 2509   1.601   0.778   5.406
  541SOL    HW1 2510   1.515   0.819   5.399
  541SOL    HW2 2511   1.654   0.820   5.338
  542SOL     OW 2512   1.003   0.086   5.442
  542SOL    HW1 2513   1.036   0.168   5.405
  542SOL    HW2 2514   1.028   0.019   5.378
  543SOL     OW 2515   0.495   0.044   5.476
  543SOL    HW1 2516   0.480   4.497   5.394
  543SOL    HW2 2517   0.430   0.113   5.476
  544SOL     OW 2518   0.589   0.874   4.748
  544SOL    HW1 2519   0.619   0.965   4.750
  544SOL    HW2 2520   0.533   0.865   4.825
  545SOL     OW 2521   1.357   0.858   4.754
  545SOL    HW1 2522   1.274   0.849   4.707
  545SOL    HW2 2523   1.399   0.773   4.747
  546SOL     OW 2524   1.203   0.535   3.986
  546SOL    HW1 2525   1.210   0.455   4.038
  546SOL    HW2 2526   1.160   0.598   4.044
  547SOL     OW 2527   0.285   0.216   4.958
  547SOL    HW1 2528   0.244   0.233   5.044
  547SOL    HW2 2529   0.326   0.130   4.968
  548SOL     OW 2530   0.039   1.313   5.010
  548SOL    HW1 2531   0.075   1.265   5.084
  548SOL    HW2 2532   0.044   1.405   5.036
  549SOL     OW 2533   0.724   0.631   4.781
  549SOL    HW1 2534   0.798   0.611   4.725
  549SOL    HW2 2535   0.698   0.719   4.757
  550SOL     OW 2536   1.731   0.963   5.573
  550SOL    HW1 2537   1.686   0.898   5.520
  550SOL    HW2 2538   1.676   0.974   5.650
  551SOL     OW 2539   0.321   0.074   4.355
  551SOL    HW1 2540   0.302   0.163   4.386
  551SOL    HW2 2541   0.309   0.018   4.432
  552SOL     OW 2542   1.615   0.378   4.086
  552SOL    HW1 2543   1.643   0.315   4.152
  552SOL    HW2 2544   1.592   0.456   4.136
  553SOL     OW 2545   1.029   0.762   4.685
  553SOL    HW1 2546   1.025   0.778   4.779
  553SOL    HW2 2547   1.000   0.671   4.674
  554SOL     OW 2548   0.981   1.566   5.439
  554SOL    HW1 2549   0.967   1.610   5.355
  554SOL    HW2 2550   1.023   1.483   5.416
  555SOL     OW 2551   0.346   0.934   5.542
  555SOL    HW1 2552   0.418   0.964   5.598
  555SOL    HW2 2553   0.386   0.867   5.486
  556SOL     OW 2554   1.530   0.264   3.852
  556SOL    HW1 2555   1.459   0.208   3.882
  556SOL    HW2 2556   1.560   0.310   3.931
  557SOL     OW 2557   1.291   0.826   3.754
  557SOL    HW1 2558   1.333   0.740   3.757
  557SOL    HW2 2559   1.322   0.866   3.673
  558SOL     OW 2560   1.065   1.334   4.578
  558SOL    HW1 2561   1.068   1.262   4.516
  558SOL    HW2 2562   1.123   1.400   4.541
  559SOL     OW 2563   0.318   0.812   4.671
  559SOL    HW1 2564   0.412   0.829   4.668
  559SOL    HW2 2565   0.311   0.721   4.700
  560SOL     OW 2566   0.334   0.530   4.713
  560SOL    HW1 2567   0.290   0.447   4.694
  560SOL    HW2 2568   0.412   0.528   4.657
  561SOL     OW 2569   1.136   0.373   5.421
  561SOL    HW1 2570   1.086   0.437   5.471
  561SOL    HW2 2571   1.221   0.415   5.407
  562SOL     OW 2572   1.156   0.213   5.197
  562SOL    HW1 2573   1.151   0.277   5.268
  562SOL    HW2 2574   1.197   0.261   5.125
  563SOL     OW 2575   4.491   1.322   3.930
  563SOL    HW1 2576   4.399   1.338   3.912
  563SOL    HW2 2577   4.495   1.229   3.951
  564SOL     OW 2578   0.098   1.776   4.665
  564SOL    HW1 2579   0.059   1.724   4.594
  564SOL    HW2 2580   0.186   1.797   4.633
  565SOL     OW 2581   0.496   1.574   4.631
  565SOL    HW1 2582   0.564   1.637   4.655
  565SOL    HW2 2583   0.540   1.511   4.574
  566SOL     OW 2584   0.983   0.794   4.951
  566SOL    HW1 2585   1.039   0.770   5.025
  566SOL    HW2 2586   0.899   0.754   4.970
  567SOL     OW 2587   0.038   0.568   4.836
  567SOL    HW1 2588   0.112   0.526   4.792
  567SOL    HW2 2589   0.012   0.507   4.905
  568SOL     OW 2590   0.179   0.525   5.437
  568SOL    HW1 2591   0.266   0.507   5.402
  568SOL    HW2 2592   0.151   0.605   5.392
  569SOL     OW 2593   1.377   0.938   5.383
  569SOL    HW1 2594   1.395   1.032   5.381
  569SOL    HW2 2595   1.375   0.913   5.290
  570SOL     OW 2596   0.811   0.574   4.080
  570SOL    HW1 2597   0.815   0.503   4.016
  570SOL    HW2 2598   0.739   0.629   4.050
  571SOL     OW 2599   1.641   0.602   4.910
  571SOL    HW1 2600   1.630   0.542   4.985
  571SOL    HW2 2601   1.728   0.582   4.876
  572SOL     OW 2602   0.273   1.562   5.465
  572SOL    HW1 2603   0.216   1.613   5.521
  572SOL    HW2 2604   0.254   1.471   5.487
  573SOL     OW 2605   0.688   0.463   4.990
  573SOL    HW1 2606   0.648   0.384   4.956
  573SOL    HW2 2607   0.694   0.522   4.915
  574SOL     OW 2608   0.931   1.677   5.189
  574SOL    HW1 2609   0.901   1.643   5.104
  574SOL    HW2 2610   0.923   1.772   5.180
  575SOL     OW 2611   0.472   0.491   3.907
  575SOL    HW1 2612   0.532   0.561   3.930
  575SOL    HW2 2613   0.389   0.534   3.891
  576SOL     OW 2614   0.162   1.141   5.185
  576SOL    HW1 2615   0.145   1.096   5.268
  576SOL    HW2 2616   0.169   1.070   5.121
  577SOL     OW 2617   1.325   1.047   4.947
  577SOL    HW1 2618   1.348   0.983   4.880
  577SOL    HW2 2619   1.256   1.100   4.907
  578SOL     OW 2620   1.312   0.856   4.030
  578SOL    HW1 2621   1.237   0.827   4.081
  578SOL    HW2 2622   1.286   0.844   3.939
  579SOL     OW 2623   1.235   1.727   4.849
  579SOL    HW1 2624   1.319   1.749   4.808
  579SOL    HW2 2625   1.237   1.633   4.860
  580SOL     OW 2626   0.067   1.185   4.774
  580SOL    HW1 2627   0.065   1.216   4.864
  580SOL    HW2 2628   0.024   1.253   4.723
  581SOL     OW 2629   0.679   1.666   5.455
  581SOL    HW1 2630   0.622   1.743   5.448
  581SOL    HW2 2631   0.742   1.677   5.384
  582SOL     OW 2632   1.719   0.129   4.216
  582SOL    HW1 2633   1.789   0.139   4.152
  582SOL    HW2 2634   1.747   0.058   4.273
  583SOL     OW 2635   1.384   1.568   4.202
  583SOL    HW1 2636   1.443   1.599   4.133
  583SOL    HW2 2637   1.340   1.647   4.233
  584SOL     OW 2638   0.119   1.808   5.572
  584SOL    HW1 2639   0.078   1.735   5.619
  584SOL    HW2 2640   0.182   1.844   5.634
  585SOL     OW 2641   1.279   0.928   4.397
  585SOL    HW1 2642   1.351   0.866   4.402
  585SOL    HW2 2643   1.313   1.000   4.344
  586SOL     OW 2644   0.813   1.274   5.153
  586SOL    HW1 2645   0.786   1.313   5.236
  586SOL    HW2 2646   0.742   1.294   5.092
  587SOL     OW 2647   0.672   1.620   3.879
  587SOL    HW1 2648   0.682   1.632   3.785
  587SOL    HW2 2649   0.617   1.542   3.888
  588SOL     OW 2650   1.839   0.154   4.690
  588SOL    HW1 2651   1.868   0.076   4.642
  588SOL    HW2 2652   1.752   0.173   4.654
  589SOL     OW 2653   0.263   0.325   4.446
  589SOL    HW1 2654   0.179   0.359   4.413
  589SOL    HW2 2655   0.248   0.315   4.540
  590SOL     OW 2656   1.207   1.606   3.755
  590SOL    HW1 2657   1.197   1.515   3.782
  590SOL    HW2 2658   1.142   1.617   3.686
  591SOL     OW 2659   0.825   1.007   5.097
  591SOL    HW1 2660   0.867   1.002   5.011
  591SOL    HW2 2661   0.824   1.100   5.118
  592SOL     OW 2662   0.915   0.910   4.014
  592SOL    HW1 2663   0.977   0.942   3.948
  592SOL    HW2 2664   0.963   0.841   4.059
  593SOL     OW 2665   1.490   1.625   3.762
  593SOL    HW1 2666   1.396   1.619   3.747
  593SOL    HW2 2667   1.527   1.631   3.673
  594SOL     OW 2668   0.373   1.308   5.214
  594SOL    HW1 2669   0.355   1.386   5.163
  594SOL    HW2 2670   0.299   1.250   5.198
  595SOL     OW 2671   1.608   1.280   5.008
  595SOL    HW1 2672   1.674   1.269   5.076
  595SOL    HW2 2673   1.552   1.351   5.039
  596SOL     OW 2674   1.052   1.107   4.430
  596SOL    HW1 2675   0.981   1.056   4.469
  596SOL    HW2 2676   1.115   1.042   4.400
  597SOL     OW 2677   1.004   0.244   4.730
  597SOL    HW1 2678   1.010   0.223   4.637
  597SOL    HW2 2679   0.997   0.159   4.774
  598SOL     OW 2680   0.605   1.490   4.206
  598SOL    HW1 2681   0.647   1.440   4.136
  598SOL    HW2 2682   0.530   1.531   4.164
  599SOL     OW 2683   1.722   0.394   5.101
  599SOL    HW1 2684   1.795   0.456   5.100
  599SOL    HW2 2685   1.751   0.322   5.044
  600SOL     OW 2686   0.252   1.344   4.000
  600SOL    HW1 2687   0.157   1.342   3.986
  600SOL    HW2 2688   0.263   1.376   4.089
  601SOL     OW 2689   0.115   1.007   5.419
  601SOL    HW1 2690   0.052   1.051   5.476
  601SOL    HW2 2691   0.194   0.997   5.472
  602SOL     OW 2692   0.658   0.209   5.222
  602SOL    HW1 2693   0.738   0.182   5.175
  602SOL    HW2 2694   0.687   0.226   5.312
  603SOL     OW 2695   0.072   0.320   3.750
  603SOL    HW1 2696   4.478   0.328   3.765
  603SOL    HW2 2697   0.098   0.407   3.719
  604SOL     OW 2698   1.430   0.859   5.124
  604SOL    HW1 2699   1.381   0.919   5.068
  604SOL    HW2 2700   1.519   0.860   5.089
  605SOL     OW 2701   0.085   0.188   4.026
  605SOL    HW1 2702   0.076   0.261   3.965
  605SOL    HW2 2703   0.165   0.143   3.998
  606SOL     OW 2704   1.179   1.340   3.841
  606SOL    HW1 2705   1.088   1.309   3.842
  606SOL    HW2 2706   1.206   1.339   3.932
  607SOL     OW 2707   0.623   0.830   5.154
  607SOL    HW1 2708   0.678   0.907   5.141
  607SOL    HW2 2709   0.685   0.757   5.163
  608SOL     OW 2710   0.713   0.562   5.429
  608SOL    HW1 2711   0.752   0.627   5.487
  608SOL    HW2 2712   0.747   0.478   5.461
  609SOL     OW 2713   1.467   1.201   5.355
  609SOL    HW1 2714   1.456   1.214   5.449
  609SOL    HW2 2715   1.561   1.207   5.341
  610SOL     OW 2716   0.379   1.744   5.289
  610SOL    HW1 2717   0.295   1.785   5.270
  610SOL    HW2 2718   0.358   1.665   5.337
  611SOL     OW 2719   1.669   0.881   4.978
  611SOL    HW1 2720   1.662   0.795   4.936
  611SOL    HW2 2721   1.660   0.944   4.907
  612SOL     OW 2722   1.218   0.330   4.171
  612SOL    HW1 2723   1.284   0.261   4.160
  612SOL    HW2 2724   1.247   0.378   4.250
  613SOL     OW 2725   0.587   0.737   4.395
  613SOL    HW1 2726   0.627   0.823   4.379
  613SOL    HW2 2727   0.519   0.730   4.327
  614SOL     OW 2728   1.761   0.366   5.368
  614SOL    HW1 2729   1.746   0.379   5.274
  614SOL    HW2 2730   1.683   0.320   5.399
  615SOL     OW 2731   1.745   0.932   5.235
  615SOL    HW1 2732   1.740   1.027   5.247
  615SOL    HW2 2733   1.729   0.919   5.141
  616SOL     OW 2734   0.864   1.367   3.759
  616SOL    HW1 2735   0.824   1.395   3.841
  616SOL    HW2 2736   0.880   1.449   3.712
  617SOL     OW 2737   0.661   1.792   4.669
  617SOL    HW1 2738   0.640   1.882   4.645
  617SOL    HW2 2739   0.756   1.786   4.661
  618SOL     OW 2740   0.868   0.968   4.579
  618SOL    HW1 2741   0.917   0.895   4.617
  618SOL    HW2 2742   0.832   1.015   4.654
  619SOL     OW 2743   1.079   0.989   3.813
  619SOL    HW1 2744   1.057   1.039   3.735
  619SOL    HW2 2745   1.154   0.935   3.786
  620SOL     OW 2746   1.848   1.470   4.527
  620SOL    HW1 2747   1.794   1.547   4.515
  620SOL    HW2 2748   1.865   1.466   4.621
  621SOL     OW 2749   0.231   1.305   5.582
  621SOL    HW1 2750   0.155   1.250   5.560
  621SOL    HW2 2751   0.226   1.316   5.677
  622SOL     OW 2752   0.108   1.235   4.392
  622SOL    HW1 2753   0.119   1.190   4.475
  622SOL    HW2 2754   0.167   1.190   4.331
  623SOL     OW 2755   0.682   1.403   5.352
  623SOL    HW1 2756   0.603   1.359   5.381
  623SOL    HW2 2757   0.676   1.491   5.390
  624SOL     OW 2758   1.807   0.181   4.962
  624SOL    HW1 2759   1.806   0.087   4.983
  624SOL    HW2 2760   1.824   0.184   4.868
  625SOL     OW 2761   0.441   0.430   4.256
  625SOL    HW1 2762   0.457   0.361   4.193
  625SOL    HW2 2763   0.381   0.392   4.320
  626SOL     OW 2764   1.704   1.456   4.811
  626SOL    HW1 2765   1.621   1.444   4.765
  626SOL    HW2 2766   1.701   1.395   4.884
  627SOL     OW 2767   0.311   0.506   4.977
  627SOL    HW1 2768   0.383   0.455   5.016
  627SOL    HW2 2769   0.336   0.516   4.885
  628SOL     OW 2770   0.828   1.578   4.401
  628SOL    HW1 2771   0.814   1.632   4.324
  628SOL    HW2 2772   0.751   1.520   4.404
  629SOL     OW 2773   1.432   0.216   4.841
  629SOL    HW1 2774   1.467   0.145   4.895
  629SOL    HW2 2775   1.381   0.269   4.903
  630SOL     OW 2776   0.996   0.006   4.875
  630SOL    HW1 2777   0.954   4.421   4.866
  630SOL    HW2 2778   1.089   4.487   4.886
  631SOL     OW 2779   0.772   1.333   4.039
  631SOL    HW1 2780   0.741   1.242   4.045
  631SOL    HW2 2781   0.854   1.333   4.088
  632SOL     OW 2782   0.621   1.556   5.009
  632SOL    HW1 2783   0.623   1.637   5.060
  632SOL    HW2 2784   0.708   1.550   4.970
  633SOL     OW 2785   1.340   0.052   3.878
  633SOL    HW1 2786   1.379   4.477   3.834
  633SOL    HW2 2787   1.264   0.017   3.925
  634SOL     OW 2788   1.314   0.463   4.400
  634SOL    HW1 2789   1.256   0.539   4.401
  634SOL    HW2 2790   1.303   0.422   4.486
  635SOL     OW 2791   1.585   0.200   4.592
  635SOL    HW1 2792   1.526   0.215   4.665
  635SOL    HW2 2793   1.588   0.284   4.545
  636SOL     OW 2794   0.041   1.051   4.012
  636SOL    HW1 2795   0.134   1.034   4.002
  636SOL    HW2 2796   0.020   1.020   4.101
  637SOL     OW 2797   0.885   1.653   4.066
  637SOL    HW1 2798   0.812   1.635   4.006
  637SOL    HW2 2799   0.855   1.728   4.118
  638SOL     OW 2800   0.246   0.627   5.708
  638SOL    HW1 2801   0.172   0.605   5.764
  638SOL    HW2 2802   0.214   0.614   5.619
  639SOL     OW 2803   0.193   0.293   6.575
  639SOL    HW1 2804   0.227   0.267   6.661
  639SOL    HW2 2805   0.131   0.224   6.552
  640SOL     OW 2806   0.003   0.383   6.225
  640SOL    HW1 2807   4.425   0.419   6.268
  640SOL    HW2 2808   4.470   0.311   6.172
  641SOL     OW 2809   0.568   1.288   6.762
  641SOL    HW1 2810   0.480   1.293   6.723
  641SOL    HW2 2811   0.583   1.376   6.797
  642SOL     OW 2812   1.562   1.506   6.285
  642SOL    HW1 2813   1.518   1.494   6.369
  642SOL    HW2 2814   1.492   1.527   6.223
  643SOL     OW 2815   1.135   0.698   6.284
  643SOL    HW1 2816   1.181   0.781   6.274
  643SOL    HW2 2817   1.085   0.708   6.365
  644SOL     OW 2818   1.768   0.606   5.813
  644SOL    HW1 2819   1.747   0.596   5.720
  644SOL    HW2 2820   1.734   0.526   5.854
  645SOL     OW 2821   0.754   1.142   6.627
  645SOL    HW1 2822   0.686   1.177   6.684
  645SOL    HW2 2823   0.790   1.219   6.583
  646SOL     OW 2824   0.866   0.772   7.407
  646SOL    HW1 2825   0.852   0.843   7.470
  646SOL    HW2 2826   0.890   0.817   7.326
  647SOL     OW 2827   0.685   1.003   6.233
  647SOL    HW1 2828   0.751   0.991   6.301
  647SOL    HW2 2829   0.616   1.054   6.275
  648SOL     OW 2830   0.711   1.150   7.399
  648SOL    HW1 2831   0.758   1.229   7.426
  648SOL    HW2 2832   0.629   1.182   7.362
  649SOL     OW 2833   0.335   1.421   6.655
  649SOL    HW1 2834   0.254   1.401   6.609
  649SOL    HW2 2835   0.385   1.475   6.594
  650SOL     OW 2836   1.460   1.499   6.941
  650SOL    HW1 2837   1.513   1.579   6.951
  650SOL    HW2 2838   1.399   1.502   7.014
  651SOL     OW 2839   0.440   0.394   7.075
  651SOL    HW1 2840   0.529   0.360   7.076
  651SOL    HW2 2841   0.385   0.319   7.099
  652SOL     OW 2842   1.611   0.446   6.324
  652SOL    HW1 2843   1.530   0.467   6.277
  652SOL    HW2 2844   1.629   0.523   6.377
  653SOL     OW 2845   0.246   1.692   6.063
  653SOL    HW1 2846   0.229   1.776   6.104
  653SOL    HW2 2847   0.314   1.709   5.998
  654SOL     OW 2848   1.136   1.342   7.279
  654SOL    HW1 2849   1.177   1.337   7.366
  654SOL    HW2 2850   1.084   1.262   7.272
  655SOL     OW 2851   0.250   1.426   6.113
  655SOL    HW1 2852   0.240   1.522   6.116
  655SOL    HW2 2853   0.187   1.394   6.177
  656SOL     OW 2854   0.248   1.082   6.470
  656SOL    HW1 2855   0.265   0.992   6.498
  656SOL    HW2 2856   0.188   1.117   6.536
  657SOL     OW 2857   0.613   1.791   7.016
  657SOL    HW1 2858   0.530   1.773   7.060
  657SOL    HW2 2859   0.633   1.881   7.041
  658SOL     OW 2860   0.578   0.988   5.725
  658SOL    HW1 2861   0.627   1.029   5.654
  658SOL    HW2 2862   0.623   1.016   5.804
  659SOL     OW 2863   1.580   0.116   7.056
  659SOL    HW1 2864   1.605   0.185   6.994
  659SOL    HW2 2865   1.571   0.161   7.140
  660SOL     OW 2866   0.136   0.644   6.160
  660SOL    HW1 2867   0.084   0.565   6.179
  660SOL    HW2 2868   0.108   0.707   6.226
  661SOL     OW 2869   0.032   1.602   5.727
  661SOL    HW1 2870   0.021   1.507   5.723
  661SOL    HW2 2871   0.023   1.624   5.820
  662SOL     OW 2872   1.688   0.917   6.225
  662SOL    HW1 2873   1.773   0.879   6.206
  662SOL    HW2 2874   1.667   0.970   6.147
  663SOL     OW 2875   1.646   1.109   6.015
  663SOL    HW1 2876   1.733   1.111   5.975
  663SOL    HW2 2877   1.653   1.169   6.089
  664SOL     OW 2878   0.104   0.766   7.165
  664SOL    HW1 2879   0.195   0.760   7.135
  664SOL    HW2 2880   0.092   0.858   7.188
  665SOL     OW 2881   0.614   1.386   6.322
  665SOL    HW1 2882   0.567   1.303   6.332
  665SOL    HW2 2883   0.598   1.412   6.232
  666SOL     OW 2884   1.288   1.238   7.009
  666SOL    HW1 2885   1.321   1.171   6.949
  666SOL    HW2 2886   1.346   1.232   7.085
  667SOL     OW 2887   0.821   0.014   6.138
  667SOL    HW1 2888   0.856   0.099   6.113
  667SOL    HW2 2889   0.726   0.022   6.126
  668SOL     OW 2890   0.179   0.941   6.865
  668SOL    HW1 2891   0.271   0.922   6.845
  668SOL    HW2 2892   0.133   0.926   6.782
  669SOL     OW 2893   1.532   0.992   5.786
  669SOL    HW1 2894   1.462   0.936   5.819
  669SOL    HW2 2895   1.574   1.027   5.865
  670SOL     OW 2896   1.185   1.807   7.209
  670SOL    HW1 2897   1.196   1.865   7.134
  670SOL    HW2 2898   1.201   1.719   7.173
  671SOL     OW 2899   0.318   0.260   7.354
  671SOL    HW1 2900   0.386   0.311   7.398
  671SOL    HW2 2901   0.241   0.267   7.411
  672SOL     OW 2902   1.454   1.428   6.530
  672SOL    HW1 2903   1.392   1.435   6.603
  672SOL    HW2 2904   1.451   1.335   6.506
  673SOL     OW 2905   0.595   0.723   5.852
  673SOL    HW1 2906   0.597   0.804   5.802
  673SOL    HW2 2907   0.530   0.737   5.920
  674SOL     OW 2908   1.292   0.364   6.519
  674SOL    HW1 2909   1.202   0.334   6.503
  674SOL    HW2 2910   1.327   0.301   6.581
  675SOL     OW 2911   0.797   0.618   7.040
  675SOL    HW1 2912   0.769   0.593   7.128
  675SOL    HW2 2913   0.754   0.555   6.982
  676SOL     OW 2914   1.388   0.479   7.262
  676SOL    HW1 2915   1.392   0.524   7.347
  676SOL    HW2 2916   1.455   0.411   7.268
  677SOL     OW 2917   0.954   0.888   7.169
  677SOL    HW1 2918   1.009   0.817   7.133
  677SOL    HW2 2919   0.907   0.922   7.093
  678SOL     OW 2920   0.997   0.418   6.821
  678SOL    HW1 2921   0.910   0.425   6.859
  678SOL    HW2 2922   0.985   0.365   6.742
  679SOL     OW 2923   1.050   0.698   6.013
  679SOL    HW1 2924   1.067   0.690   6.107
  679SOL    HW2 2925   0.967   0.651   5.999
  680SOL     OW 2926   0.097   0.827   6.370
  680SOL    HW1 2927   0.184   0.812   6.408
  680SOL    HW2 2928   0.042   0.851   6.445
  681SOL     OW 2929   0.122   1.859   7.163
  681SOL    HW1 2930   0.116   1.834   7.256
  681SOL    HW2 2931   0.046   1.818   7.123
  682SOL     OW 2932   0.853   0.369   5.766
  682SOL    HW1 2933   0.927   0.403   5.715
  682SOL    HW2 2934   0.870   0.275   5.772
  683SOL     OW 2935   1.704   0.573   7.414
  683SOL    HW1 2936   1.668   0.648   7.366
  683SOL    HW2 2937   1.740   0.516   7.346
  684SOL     OW 2938   1.377   1.141   6.126
  684SOL    HW1 2939   1.458   1.131   6.076
  684SOL    HW2 2940   1.325   1.203   6.075
  685SOL     OW 2941   0.541   0.205   6.486
  685SOL    HW1 2942   0.562   0.223   6.578
  685SOL    HW2 2943   0.533   0.291   6.445
  686SOL     OW 2944   1.005   1.444   6.059
  686SOL    HW1 2945   0.968   1.517   6.010
  686SOL    HW2 2946   0.987   1.464   6.150
  687SOL     OW 2947   0.356   1.811   6.444
  687SOL    HW1 2948   0.397   1.725   6.455
  687SOL    HW2 2949   0.426   1.873   6.461
  688SOL     OW 2950   1.800   1.051   6.455
  688SOL    HW1 2951   1.744   1.041   6.378
  688SOL    HW2 2952   1.739   1.060   6.528
  689SOL     OW 2953   1.227   1.539   7.099
  689SOL    HW1 2954   1.214   1.466   7.160
  689SOL    HW2 2955   1.164   1.523   7.029
  690SOL     OW 2956   0.315   0.954   5.840
  690SOL    HW1 2957   0.400   0.977   5.800
  690SOL    HW2 2958   0.300   0.863   5.813
  691SOL     OW 2959   1.479   0.742   6.311
  691SOL    HW1 2960   1.470   0.700   6.396
  691SOL    HW2 2961   1.556   0.798   6.320
  692SOL     OW 2962   0.468   1.263   7.321
  692SOL    HW1 2963   0.441   1.269   7.230
  692SOL    HW2 2964   0.386   1.267   7.371
  693SOL     OW 2965   1.110   1.772   5.825
  693SOL    HW1 2966   1.037   1.728   5.867
  693SOL    HW2 2967   1.134   1.714   5.752
  694SOL     OW 2968   0.162   0.266   7.096
  694SOL    HW1 2969   0.135   0.353   7.067
  694SOL    HW2 2970   0.197   0.279   7.184
  695SOL     OW 2971   1.636   1.374   5.664
  695SOL    HW1 2972   1.583   1.451   5.646
  695SOL    HW2 2973   1.575   1.301   5.657
  696SOL     OW 2974   0.469   1.744   5.899
  696SOL    HW1 2975   0.511   1.796   5.967
  696SOL    HW2 2976   0.541   1.707   5.848
  697SOL     OW 2977   1.421   0.140   6.003
  697SOL    HW1 2978   1.405   0.087   5.925
  697SOL    HW2 2979   1.516   0.132   6.019
  698SOL     OW 2980   0.256   1.788   6.819
  698SOL    HW1 2981   0.304   1.714   6.855
  698SOL    HW2 2982   0.224   1.758   6.734
  699SOL     OW 2983   0.938   1.699   6.485
  699SOL    HW1 2984   1.016   1.648   6.506
  699SOL    HW2 2985   0.894   1.649   6.416
  700SOL     OW 2986   0.394   0.693   6.058
  700SOL    HW1 2987   0.419   0.601   6.071
  700SOL    HW2 2988   0.302   0.697   6.084
  701SOL     OW 2989   1.525   0.233   7.309
  701SOL    HW1 2990   1.525   0.255   7.402
  701SOL    HW2 2991   1.447   0.179   7.297
  702SOL     OW 2992   0.625   0.121   5.704
  702SOL    HW1 2993   0.713   0.085   5.716
  702SOL    HW2 2994   0.595   0.083   5.621
  703SOL     OW 2995   0.768   0.270   7.340
  703SOL    HW1 2996   0.835   0.202   7.347
  703SOL    HW2 2997   0.729   0.274   7.428
  704SOL     OW 2998   0.877   1.523   6.779
  704SOL    HW1 2999   0.861   1.486   6.693
  704SOL    HW2 3000   0.946   1.467   6.816
  705SOL     OW 3001   1.341   0.589   7.015
  705SOL    HW1 3002   1.369   0.561   7.102
  705SOL    HW2 3003   1.375   0.678   7.006
  706SOL     OW 3004   0.815   1.395   6.526
  706SOL    HW1 3005   0.899   1.383   6.482
  706SOL    HW2 3006   0.751   1.396   6.455
  707SOL     OW 3007   0.923   0.519   6.485
  707SOL    HW1 3008   0.907   0.517   6.391
  707SOL    HW2 3009   0.960   0.433   6.505
  708SOL     OW 3010   0.562   0.069   6.094
  708SOL    HW1 3011   0.476   0.055   6.133
  708SOL    HW2 3012   0.549   0.138   6.029
  709SOL     OW 3013   1.430   1.193   5.626
  709SOL    HW1 3014   1.457   1.117   5.679
  709SOL    HW2 3015   1.347   1.220   5.664
  710SOL     OW 3016   0.305   0.073   5.775
  710SOL    HW1 3017   0.388   0.120   5.773
  710SOL    HW2 3018   0.320   4.499   5.833
  711SOL     OW 3019   0.954   0.240   6.054
  711SOL    HW1 3020   0.902   0.297   5.998
  711SOL    HW2 3021   1.043   0.276   6.048
  712SOL     OW 3022   1.080   0.681   7.046
  712SOL    HW1 3023   1.010   0.616   7.046
  712SOL    HW2 3024   1.161   0.630   7.035
  713SOL     OW 3025   1.217   1.569   6.381
  713SOL    HW1 3026   1.241   1.634   6.315
  713SOL    HW2 3027   1.293   1.562   6.437
  714SOL     OW 3028   0.466   1.150   6.321
  714SOL    HW1 3029   0.396   1.131   6.383
  714SOL    HW2 3030   0.427   1.134   6.235
  715SOL     OW 3031   1.266   1.794   6.189
  715SOL    HW1 3032   1.309   1.861   6.136
  715SOL    HW2 3033   1.201   1.841   6.240
  716SOL     OW 3034   1.029   0.547   5.603
  716SOL    HW1 3035   0.981   0.628   5.588
  716SOL    HW2 3036   1.087   0.567   5.676
  717SOL     OW 3037   0.094   0.516   6.999
  717SOL    HW1 3038   0.151   0.524   6.922
  717SOL    HW2 3039   0.059   0.604   7.012
  718SOL     OW 3040   0.561   0.245   6.753
  718SOL    HW1 3041   0.592   0.162   6.789
  718SOL    HW2 3042   0.467   0.246   6.771
  719SOL     OW 3043   0.865   0.504   6.213
  719SOL    HW1 3044   0.821   0.544   6.138
  719SOL    HW2 3045   0.829   0.415   6.217
  720SOL     OW 3046   0.961   0.023   6.372
  720SOL    HW1 3047   0.913   0.023   6.289
  720SOL    HW2 3048   0.976   4.431   6.391
  721SOL     OW 3049   1.439   1.165   6.445
  721SOL    HW1 3050   1.370   1.098   6.441
  721SOL    HW2 3051   1.466   1.177   6.354
  722SOL     OW 3052   1.465   0.605   6.560
  722SOL    HW1 3053   1.412   0.526   6.562
  722SOL    HW2 3054   1.523   0.597   6.636
  723SOL     OW 3055   1.845   0.815   5.969
  723SOL    HW1 3056   1.902   0.765   6.027
  723SOL    HW2 3057   1.818   0.752   5.902
  724SOL     OW 3058   0.491   1.418   5.745
  724SOL    HW1 3059   0.414   1.389   5.794
  724SOL    HW2 3060   0.475   1.389   5.655
  725SOL     OW 3061   1.671   1.264   6.233
  725SOL    HW1 3062   1.766   1.267   6.244
  725SOL    HW2 3063   1.642   1.353   6.253
  726SOL     OW 3064   1.394   0.571   5.656
  726SOL    HW1 3065   1.333   0.555   5.727
  726SOL    HW2 3066   1.480   0.553   5.694
  727SOL     OW 3067   0.521   0.264   5.906
  727SOL    HW1 3068   0.571   0.215   5.841
  727SOL    HW2 3069   0.505   0.349   5.866
  728SOL     OW 3070   1.753   1.238   7.161
  728SOL    HW1 3071   1.840   1.200   7.153
  728SOL    HW2 3072   1.769   1.329   7.187
  729SOL     OW 3073   1.058   1.354   6.920
  729SOL    HW1 3074   0.983   1.323   6.971
  729SOL    HW2 3075   1.134   1.312   6.961
  730SOL     OW 3076   1.609   1.625   7.242
  730SOL    HW1 3077   1.601   1.660   7.153
  730SOL    HW2 3078   1.692   1.577   7.241
  731SOL     OW 3079   1.130   1.205   6.692
  731SOL    HW1 3080   1.069   1.241   6.756
  731SOL    HW2 3081   1.096   1.235   6.608
  732SOL     OW 3082   1.628   1.098   6.663
  732SOL    HW1 3083   1.623   1.159   6.736
  732SOL    HW2 3084   1.550   1.116   6.611
  733SOL     OW 3085   0.901   0.134   6.973
  733SOL    HW1 3086   0.924   0.089   6.891
  733SOL    HW2 3087   0.985   0.150   7.016
  734SOL     OW 3088   0.984   1.115   7.309
  734SOL    HW1 3089   0.892   1.130   7.331
  734SOL    HW2 3090   0.983   1.037   7.253
  735SOL     OW 3091   0.709   1.062   5.958
  735SOL    HW1 3092   0.696   1.045   6.052
  735SOL    HW2 3093   0.784   1.008   5.935
  736SOL     OW 3094   0.430   0.827   6.828
  736SOL    HW1 3095   0.498   0.836   6.894
  736SOL    HW2 3096   0.372   0.758   6.863
  737SOL     OW 3097   1.269   0.375   6.860
  737SOL    HW1 3098   1.301   0.454   6.904
  737SOL    HW2 3099   1.180   0.397   6.833
  738SOL     OW 3100   0.063   1.576   6.930
  738SOL    HW1 3101   0.036   1.665   6.907
  738SOL    HW2 3102   0.158   1.580   6.934
  739SOL     OW 3103   0.345   1.109   6.079
  739SOL    HW1 3104   0.355   1.182   6.019
  739SOL    HW2 3105   0.346   1.031   6.023
  740SOL     OW 3106   0.564   0.525   6.438
  740SOL    HW1 3107   0.575   0.586   6.366
  740SOL    HW2 3108   0.624   0.556   6.506
  741SOL     OW 3109   1.247   1.348   5.974
  741SOL    HW1 3110   1.303   1.419   6.008
  741SOL    HW2 3111   1.160   1.368   6.008
  742SOL     OW 3112   1.280   1.457   6.736
  742SOL    HW1 3113   1.336   1.458   6.813
  742SOL    HW2 3114   1.226   1.378   6.748
  743SOL     OW 3115   1.581   0.624   6.063
  743SOL    HW1 3116   1.535   0.673   6.131
  743SOL    HW2 3117   1.628   0.690   6.012
  744SOL     OW 3118   0.347   1.532   6.900
  744SOL    HW1 3119   0.333   1.484   6.818
  744SOL    HW2 3120   0.442   1.541   6.907
  745SOL     OW 3121   0.487   0.760   7.257
  745SOL    HW1 3122   0.512   0.798   7.173
  745SOL    HW2 3123   0.532   0.675   7.260
  746SOL     OW 3124   1.601   0.778   7.267
  746SOL    HW1 3125   1.515   0.820   7.261
  746SOL    HW2 3126   1.654   0.820   7.199
  747SOL     OW 3127   1.003   0.086   7.304
  747SOL    HW1 3128   1.037   0.168   7.267
  747SOL    HW2 3129   1.028   0.019   7.240
  748SOL     OW 3130   0.495   0.043   7.338
  748SOL    HW1 3131   0.481   4.497   7.256
  748SOL    HW2 3132   0.430   0.113   7.338
  749SOL     OW 3133   0.589   0.875   6.610
  749SOL    HW1 3134   0.620   0.965   6.613
  749SOL    HW2 3135   0.534   0.866   6.687
  750SOL     OW 3136   1.357   0.858   6.615
  750SOL    HW1 3137   1.274   0.849   6.569
  750SOL    HW2 3138   1.398   0.772   6.609
  751SOL     OW 3139   1.203   0.535   5.848
  751SOL    HW1 3140   1.210   0.455   5.900
  751SOL    HW2 3141   1.160   0.598   5.906
  752SOL     OW 3142   0.284   0.216   6.820
  752SOL    HW1 3143   0.245   0.233   6.906
  752SOL    HW2 3144   0.326   0.130   6.830
  753SOL     OW 3145   0.038   1.313   6.872
  753SOL    HW1 3146   0.075   1.265   6.946
  753SOL    HW2 3147   0.044   1.405   6.897
  754SOL     OW 3148   0.723   0.631   6.643
  754SOL    HW1 3149   0.798   0.611   6.587
  754SOL    HW2 3150   0.698   0.720   6.619
  755SOL     OW 3151   1.735   0.959   7.439
  755SOL    HW1 3152   1.688   0.899   7.381
  755SOL    HW2 3153   1.675   0.972   7.513
  756SOL     OW 3154   0.321   0.074   6.217
  756SOL    HW1 3155   0.303   0.163   6.248
  756SOL    HW2 3156   0.309   0.018   6.294
  757SOL     OW 3157   1.616   0.379   5.948
  757SOL    HW1 3158   1.643   0.315   6.013
  757SOL    HW2 3159   1.592   0.457   5.998
  758SOL     OW 3160   1.029   0.762   6.547
  758SOL    HW1 3161   1.025   0.778   6.641
  758SOL    HW2 3162   1.000   0.671   6.537
  759SOL     OW 3163   0.982   1.567   7.303
  759SOL    HW1 3164   0.967   1.610   7.219
  759SOL    HW2 3165   1.025   1.484   7.280
  760SOL     OW 3166   1.855   1.503   7.191
  760SOL    HW1 3167   1.869   1.531   7.101
  760SOL    HW2 3168   1.936   1.525   7.237
  761SOL     OW 3169   0.346   0.934   7.404
  761SOL    HW1 3170   0.418   0.965   7.460
  761SOL    HW2 3171   0.386   0.867   7.348
  762SOL     OW 3172   1.530   0.264   5.714
  762SOL    HW1 3173   1.459   0.208   5.744
  762SOL    HW2 3174   1.560   0.310   5.793
  763SOL     OW 3175   1.290   0.826   5.616
  763SOL    HW1 3176   1.333   0.740   5.620
  763SOL    HW2 3177   1.322   0.865   5.535
  764SOL     OW 3178   1.064   1.334   6.440
  764SOL    HW1 3179   1.068   1.262   6.377
  764SOL    HW2 3180   1.124   1.400   6.405
  765SOL     OW 3181   0.318   0.812   6.532
  765SOL    HW1 3182   0.412   0.830   6.531
  765SOL    HW2 3183   0.312   0.721   6.562
  766SOL     OW 3184   0.334   0.530   6.575
  766SOL    HW1 3185   0.290   0.447   6.556
  766SOL    HW2 3186   0.412   0.528   6.519
  767SOL     OW 3187   1.136   0.373   7.283
  767SOL    HW1 3188   1.085   0.437   7.333
  767SOL    HW2 3189   1.221   0.414   7.269
  768SOL     OW 3190   1.156   0.213   7.059
  768SOL    HW1 3191   1.151   0.277   7.130
  768SOL    HW2 3192   1.197   0.261   6.987
  769SOL     OW 3193   4.491   1.322   5.791
  769SOL    HW1 3194   4.399   1.338   5.773
  769SOL    HW2 3195   4.496   1.229   5.813
  770SOL     OW 3196   0.098   1.776   6.526
  770SOL    HW1 3197   0.059   1.723   6.456
  770SOL    HW2 3198   0.186   1.797   6.494
  771SOL     OW 3199   0.496   1.574   6.493
  771SOL    HW1 3200   0.564   1.636   6.517
  771SOL    HW2 3201   0.540   1.510   6.436
  772SOL     OW 3202   0.983   0.793   6.813
  772SOL    HW1 3203   1.039   0.770   6.887
  772SOL    HW2 3204   0.899   0.754   6.834
  773SOL     OW 3205   0.038   0.568   6.697
  773SOL    HW1 3206   0.112   0.526   6.655
  773SOL    HW2 3207   0.013   0.508   6.767
  774SOL     OW 3208   0.179   0.525   7.299
  774SOL    HW1 3209   0.267   0.507   7.264
  774SOL    HW2 3210   0.151   0.605   7.254
  775SOL     OW 3211   1.378   0.939   7.244
  775SOL    HW1 3212   1.398   1.032   7.242
  775SOL    HW2 3213   1.374   0.913   7.152
  776SOL     OW 3214   0.811   0.574   5.942
  776SOL    HW1 3215   0.815   0.503   5.878
  776SOL    HW2 3216   0.739   0.629   5.912
  777SOL     OW 3217   1.640   0.601   6.771
  777SOL    HW1 3218   1.630   0.542   6.847
  777SOL    HW2 3219   1.727   0.582   6.737
  778SOL     OW 3220   0.272   1.562   7.326
  778SOL    HW1 3221   0.216   1.613   7.384
  778SOL    HW2 3222   0.254   1.471   7.349
  779SOL     OW 3223   0.688   0.463   6.852
  779SOL    HW1 3224   0.648   0.384   6.817
  779SOL    HW2 3225   0.693   0.522   6.777
  780SOL     OW 3226   0.928   1.679   7.054
  780SOL    HW1 3227   0.902   1.644   6.969
  780SOL    HW2 3228   0.923   1.774   7.043
  781SOL     OW 3229   0.472   0.490   5.768
  781SOL    HW1 3230   0.532   0.561   5.792
  781SOL    HW2 3231   0.389   0.534   5.753
  782SOL     OW 3232   0.162   1.141   7.047
  782SOL    HW1 3233   0.145   1.096   7.130
  782SOL    HW2 3234   0.169   1.070   6.982
  783SOL     OW 3235   1.325   1.046   6.809
  783SOL    HW1 3236   1.349   0.983   6.741
  783SOL    HW2 3237   1.255   1.099   6.770
  784SOL     OW 3238   1.312   0.856   5.892
  784SOL    HW1 3239   1.237   0.827   5.944
  784SOL    HW2 3240   1.285   0.843   5.801
  785SOL     OW 3241   1.774   1.743   6.760
  785SOL    HW1 3242   1.809   1.789   6.684
  785SOL    HW2 3243   1.745   1.658   6.726
  786SOL     OW 3244   1.233   1.728   6.702
  786SOL    HW1 3245   1.324   1.753   6.685
  786SOL    HW2 3246   1.236   1.634   6.718
  787SOL     OW 3247   0.067   1.185   6.636
  787SOL    HW1 3248   0.065   1.216   6.726
  787SOL    HW2 3249   0.024   1.254   6.585
  788SOL     OW 3250   0.679   1.666   7.316
  788SOL    HW1 3251   0.623   1.743   7.310
  788SOL    HW2 3252   0.743   1.677   7.246
  789SOL     OW 3253   1.718   0.129   6.078
  789SOL    HW1 3254   1.789   0.139   6.014
  789SOL    HW2 3255   1.747   0.058   6.135
  790SOL     OW 3256   1.386   1.570   6.070
  790SOL    HW1 3257   1.441   1.603   5.999
  790SOL    HW2 3258   1.339   1.647   6.101
  791SOL     OW 3259   0.118   1.808   7.434
  791SOL    HW1 3260   0.078   1.735   7.482
  791SOL    HW2 3261   0.182   1.845   7.495
  792SOL     OW 3262   1.278   0.927   6.259
  792SOL    HW1 3263   1.351   0.866   6.264
  792SOL    HW2 3264   1.312   1.000   6.206
  793SOL     OW 3265   0.814   1.274   7.015
  793SOL    HW1 3266   0.786   1.313   7.098
  793SOL    HW2 3267   0.743   1.295   6.954
  794SOL     OW 3268   0.672   1.620   5.741
  794SOL    HW1 3269   0.682   1.632   5.647
  794SOL    HW2 3270   0.617   1.542   5.750
  795SOL     OW 3271   1.618   1.726   6.984
  795SOL    HW1 3272   1.674   1.729   6.906
  795SOL    HW2 3273   1.605   1.818   7.007
  796SOL     OW 3274   1.839   0.154   6.552
  796SOL    HW1 3275   1.868   0.076   6.504
  796SOL    HW2 3276   1.752   0.173   6.516
  797SOL     OW 3277   0.263   0.325   6.308
  797SOL    HW1 3278   0.179   0.359   6.275
  797SOL    HW2 3279   0.249   0.315   6.402
  798SOL     OW 3280   1.190   1.609   5.620
  798SOL    HW1 3281   1.189   1.517   5.646
  798SOL    HW2 3282   1.125   1.616   5.551
  799SOL     OW 3283   0.825   1.007   6.958
  799SOL    HW1 3284   0.869   1.003   6.873
  799SOL    HW2 3285   0.824   1.100   6.980
  800SOL     OW 3286   0.915   0.910   5.875
  800SOL    HW1 3287   0.977   0.942   5.810
  800SOL    HW2 3288   0.962   0.841   5.922
  801SOL     OW 3289   1.457   1.559   5.577
  801SOL    HW1 3290   1.368   1.591   5.592
  801SOL    HW2 3291   1.486   1.603   5.498
  802SOL     OW 3292   0.373   1.308   7.077
  802SOL    HW1 3293   0.355   1.386   7.025
  802SOL    HW2 3294   0.298   1.250   7.060
  803SOL     OW 3295   1.607   1.280   6.866
  803SOL    HW1 3296   1.673   1.274   6.935
  803SOL    HW2 3297   1.550   1.351   6.895
  804SOL     OW 3298   1.052   1.107   6.291
  804SOL    HW1 3299   0.982   1.056   6.331
  804SOL    HW2 3300   1.116   1.041   6.262
  805SOL     OW 3301   1.004   0.244   6.592
  805SOL    HW1 3302   1.010   0.223   6.499
  805SOL    HW2 3303   0.997   0.159   6.636
  806SOL     OW 3304   0.605   1.490   6.068
  806SOL    HW1 3305   0.647   1.440   5.998
  806SOL    HW2 3306   0.528   1.529   6.027
  807SOL     OW 3307   1.722   0.394   6.963
  807SOL    HW1 3308   1.794   0.456   6.962
  807SOL    HW2 3309   1.751   0.322   6.906
  808SOL     OW 3310   0.252   1.344   5.862
  808SOL    HW1 3311   0.157   1.342   5.848
  808SOL    HW2 3312   0.262   1.376   5.952
  809SOL     OW 3313   0.115   1.007   7.281
  809SOL    HW1 3314   0.052   1.051   7.338
  809SOL    HW2 3315   0.194   0.997   7.334
  810SOL     OW 3316   0.658   0.209   7.084
  810SOL    HW1 3317   0.738   0.182   7.037
  810SOL    HW2 3318   0.687   0.226   7.174
  811SOL     OW 3319   0.072   0.320   5.612
  811SOL    HW1 3320   4.478   0.327   5.627
  811SOL    HW2 3321   0.098   0.407   5.581
  812SOL     OW 3322   1.429   0.858   6.986
  812SOL    HW1 3323   1.381   0.919   6.930
  812SOL    HW2 3324   1.519   0.861   6.952
  813SOL     OW 3325   0.085   0.188   5.888
  813SOL    HW1 3326   0.076   0.261   5.827
  813SOL    HW2 3327   0.165   0.143   5.860
  814SOL     OW 3328   1.179   1.340   5.702
  814SOL    HW1 3329   1.089   1.308   5.705
  814SOL    HW2 3330   1.208   1.340   5.793
  815SOL     OW 3331   0.624   0.830   7.016
  815SOL    HW1 3332   0.678   0.907   7.002
  815SOL    HW2 3333   0.686   0.758   7.025
  816SOL     OW 3334   0.713   0.562   7.291
  816SOL    HW1 3335   0.752   0.627   7.348
  816SOL    HW2 3336   0.747   0.478   7.323
  817SOL     OW 3337   1.472   1.200   7.218
  817SOL    HW1 3338   1.460   1.214   7.312
  817SOL    HW2 3339   1.565   1.215   7.203
  818SOL     OW 3340   0.379   1.744   7.150
  818SOL    HW1 3341   0.295   1.785   7.132
  818SOL    HW2 3342   0.358   1.664   7.199
  819SOL     OW 3343   1.669   0.881   6.841
  819SOL    HW1 3344   1.662   0.796   6.797
  819SOL    HW2 3345   1.660   0.945   6.771
  820SOL     OW 3346   1.218   0.330   6.033
  820SOL    HW1 3347   1.284   0.262   6.022
  820SOL    HW2 3348   1.246   0.378   6.111
  821SOL     OW 3349   0.587   0.737   6.257
  821SOL    HW1 3350   0.627   0.822   6.242
  821SOL    HW2 3351   0.519   0.730   6.189
  822SOL     OW 3352   1.762   0.366   7.230
  822SOL    HW1 3353   1.746   0.379   7.137
  822SOL    HW2 3354   1.683   0.320   7.261
  823SOL     OW 3355   1.745   0.933   7.098
  823SOL    HW1 3356   1.742   1.028   7.112
  823SOL    HW2 3357   1.730   0.922   7.005
  824SOL     OW 3358   0.863   1.367   5.620
  824SOL    HW1 3359   0.825   1.393   5.704
  824SOL    HW2 3360   0.879   1.450   5.575
  825SOL     OW 3361   0.660   1.791   6.530
  825SOL    HW1 3362   0.641   1.882   6.507
  825SOL    HW2 3363   0.756   1.785   6.523
  826SOL     OW 3364   0.868   0.968   6.440
  826SOL    HW1 3365   0.918   0.896   6.479
  826SOL    HW2 3366   0.833   1.015   6.515
  827SOL     OW 3367   1.079   0.989   5.675
  827SOL    HW1 3368   1.057   1.039   5.596
  827SOL    HW2 3369   1.153   0.935   5.649
  828SOL     OW 3370   0.231   1.305   7.444
  828SOL    HW1 3371   0.155   1.250   7.423
  828SOL    HW2 3372   0.227   1.316   7.539
  829SOL     OW 3373   0.108   1.235   6.254
  829SOL    HW1 3374   0.120   1.190   6.337
  829SOL    HW2 3375   0.167   1.190   6.193
  830SOL     OW 3376   0.682   1.403   7.214
  830SOL    HW1 3377   0.602   1.359   7.243
  830SOL    HW2 3378   0.676   1.491   7.252
  831SOL     OW 3379   1.808   0.181   6.824
  831SOL    HW1 3380   1.805   0.087   6.845
  831SOL    HW2 3381   1.824   0.184   6.730
  832SOL     OW 3382   0.441   0.431   6.118
  832SOL    HW1 3383   0.457   0.361   6.055
  832SOL    HW2 3384   0.381   0.392   6.182
  833SOL     OW 3385   1.692   1.497   6.689
  833SOL    HW1 3386   1.619   1.467   6.635
  833SOL    HW2 3387   1.711   1.423   6.747
  834SOL     OW 3388   0.311   0.505   6.839
  834SOL    HW1 3389   0.383   0.456   6.878
  834SOL    HW2 3390   0.336   0.516   6.747
  835SOL     OW 3391   0.827   1.578   6.264
  835SOL    HW1 3392   0.813   1.630   6.185
  835SOL    HW2 3393   0.751   1.520   6.268
  836SOL     OW 3394   1.432   0.216   6.703
  836SOL    HW1 3395   1.467   0.145   6.757
  836SOL    HW2 3396   1.381   0.269   6.765
  837SOL     OW 3397   0.996   0.006   6.737
  837SOL    HW1 3398   0.954   4.420   6.728
  837SOL    HW2 3399   1.089   4.487   6.748
  838SOL     OW 3400   0.773   1.332   5.899
  838SOL    HW1 3401   0.741   1.242   5.906
  838SOL    HW2 3402   0.854   1.334   5.950
  839SOL     OW 3403   0.621   1.556   6.871
  839SOL    HW1 3404   0.623   1.638   6.921
  839SOL    HW2 3405   0.708   1.549   6.833
  840SOL     OW 3406   1.340   0.052   5.740
  840SOL    HW1 3407   1.378   4.477   5.696
  840SOL    HW2 3408   1.264   0.017   5.787
  841SOL     OW 3409   1.314   0.462   6.262
  841SOL    HW1 3410   1.256   0.538   6.263
  841SOL    HW2 3411   1.303   0.422   6.348
  842SOL     OW 3412   1.585   0.200   6.454
  842SOL    HW1 3413   1.526   0.215   6.527
  842SOL    HW2 3414   1.588   0.284   6.407
  843SOL     OW 3415   0.041   1.051   5.874
  843SOL    HW1 3416   0.134   1.034   5.864
  843SOL    HW2 3417   0.020   1.020   5.963
  844SOL     OW 3418   0.882   1.651   5.930
  844SOL    HW1 3419   0.810   1.634   5.869
  844SOL    HW2 3420   0.852   1.726   5.982
  845SOL     OW 3421   0.246   0.627   7.570
  845SOL    HW1 3422   0.172   0.605   7.626
  845SOL    HW2 3423   0.214   0.614   7.481
  846SOL     OW 3424   0.193   0.293   8.437
  846SOL    HW1 3425   0.227   0.267   8.523
  846SOL    HW2 3426   0.131   0.224   8.413
  847SOL     OW 3427   0.003   0.383   8.087
  847SOL    HW1 3428   4.425   0.419   8.130
  847SOL    HW2 3429   4.470   0.311   8.034
  848SOL     OW 3430   0.568   1.288   8.624
  848SOL    HW1 3431   0.480   1.293   8.585
  848SOL    HW2 3432   0.583   1.376   8.659
  849SOL     OW 3433   1.561   1.511   8.156
  849SOL    HW1 3434   1.518   1.491   8.240
  849SOL    HW2 3435   1.489   1.515   8.093
  850SOL     OW 3436   1.135   0.698   8.146
  850SOL    HW1 3437   1.181   0.782   8.136
  850SOL    HW2 3438   1.085   0.708   8.227
  851SOL     OW 3439   1.768   0.607   7.675
  851SOL    HW1 3440   1.747   0.598   7.583
  851SOL    HW2 3441   1.735   0.526   7.716
  852SOL     OW 3442   0.754   1.142   8.489
  852SOL    HW1 3443   0.686   1.177   8.546
  852SOL    HW2 3444   0.790   1.219   8.445
  853SOL     OW 3445   0.866   0.772   9.269
  853SOL    HW1 3446   0.852   0.843   9.332
  853SOL    HW2 3447   0.890   0.817   9.188
  854SOL     OW 3448   0.685   1.003   8.095
  854SOL    HW1 3449   0.751   0.991   8.164
  854SOL    HW2 3450   0.616   1.054   8.137
  855SOL     OW 3451   0.711   1.150   9.261
  855SOL    HW1 3452   0.758   1.229   9.288
  855SOL    HW2 3453   0.629   1.182   9.224
  856SOL     OW 3454   0.335   1.421   8.517
  856SOL    HW1 3455   0.254   1.401   8.471
  856SOL    HW2 3456   0.385   1.475   8.456
  857SOL     OW 3457   1.461   1.500   8.802
  857SOL    HW1 3458   1.512   1.580   8.811
  857SOL    HW2 3459   1.399   1.502   8.875
  858SOL     OW 3460   0.440   0.394   8.937
  858SOL    HW1 3461   0.529   0.359   8.938
  858SOL    HW2 3462   0.385   0.319   8.961
  859SOL     OW 3463   1.611   0.445   8.187
  859SOL    HW1 3464   1.531   0.467   8.139
  859SOL    HW2 3465   1.628   0.523   8.239
  860SOL     OW 3466   0.245   1.691   7.925
  860SOL    HW1 3467   0.230   1.776   7.966
  860SOL    HW2 3468   0.314   1.708   7.861
  861SOL     OW 3469   1.136   1.341   9.141
  861SOL    HW1 3470   1.177   1.337   9.227
  861SOL    HW2 3471   1.084   1.262   9.134
  862SOL     OW 3472   0.249   1.426   7.975
  862SOL    HW1 3473   0.240   1.522   7.978
  862SOL    HW2 3474   0.187   1.394   8.040
  863SOL     OW 3475   0.248   1.082   8.332
  863SOL    HW1 3476   0.264   0.992   8.360
  863SOL    HW2 3477   0.188   1.117   8.398
  864SOL     OW 3478   0.613   1.791   8.879
  864SOL    HW1 3479   0.529   1.773   8.923
  864SOL    HW2 3480   0.633   1.881   8.903
  865SOL     OW 3481   0.578   0.987   7.587
  865SOL    HW1 3482   0.626   1.029   7.516
  865SOL    HW2 3483   0.623   1.016   7.666
  866SOL     OW 3484   1.581   0.116   8.918
  866SOL    HW1 3485   1.605   0.185   8.856
  866SOL    HW2 3486   1.571   0.161   9.002
  867SOL     OW 3487   0.136   0.644   8.022
  867SOL    HW1 3488   0.084   0.565   8.041
  867SOL    HW2 3489   0.108   0.707   8.088
  868SOL     OW 3490   1.842   1.776   7.788
  868SOL    HW1 3491   1.899   1.738   7.855
  868SOL    HW2 3492   1.897   1.841   7.744
  869SOL     OW 3493   0.032   1.602   7.589
  869SOL    HW1 3494   0.021   1.508   7.586
  869SOL    HW2 3495   0.024   1.624   7.682
  870SOL     OW 3496   1.691   0.920   8.089
  870SOL    HW1 3497   1.773   0.877   8.067
  870SOL    HW2 3498   1.667   0.970   8.011
  871SOL     OW 3499   1.646   1.107   7.877
  871SOL    HW1 3500   1.732   1.112   7.835
  871SOL    HW2 3501   1.651   1.168   7.950
  872SOL     OW 3502   0.104   0.766   9.028
  872SOL    HW1 3503   0.195   0.760   8.997
  872SOL    HW2 3504   0.092   0.858   9.050
  873SOL     OW 3505   0.614   1.385   8.184
  873SOL    HW1 3506   0.567   1.302   8.194
  873SOL    HW2 3507   0.597   1.412   8.094
  874SOL     OW 3508   1.289   1.238   8.871
  874SOL    HW1 3509   1.321   1.171   8.811
  874SOL    HW2 3510   1.346   1.232   8.947
  875SOL     OW 3511   0.821   0.014   8.000
  875SOL    HW1 3512   0.856   0.100   7.975
  875SOL    HW2 3513   0.726   0.022   7.988
  876SOL     OW 3514   0.179   0.940   8.727
  876SOL    HW1 3515   0.271   0.922   8.707
  876SOL    HW2 3516   0.133   0.927   8.644
  877SOL     OW 3517   1.532   0.993   7.647
  877SOL    HW1 3518   1.461   0.937   7.679
  877SOL    HW2 3519   1.572   1.028   7.726
  878SOL     OW 3520   1.185   1.806   9.070
  878SOL    HW1 3521   1.197   1.865   8.995
  878SOL    HW2 3522   1.201   1.719   9.035
  879SOL     OW 3523   0.318   0.260   9.216
  879SOL    HW1 3524   0.386   0.311   9.260
  879SOL    HW2 3525   0.241   0.267   9.273
  880SOL     OW 3526   1.466   1.419   8.399
  880SOL    HW1 3527   1.398   1.435   8.465
  880SOL    HW2 3528   1.453   1.328   8.373
  881SOL     OW 3529   1.656   1.736   8.027
  881SOL    HW1 3530   1.633   1.707   7.939
  881SOL    HW2 3531   1.632   1.663   8.084
  882SOL     OW 3532   0.595   0.723   7.714
  882SOL    HW1 3533   0.598   0.804   7.664
  882SOL    HW2 3534   0.530   0.738   7.782
  883SOL     OW 3535   1.292   0.364   8.381
  883SOL    HW1 3536   1.202   0.334   8.364
  883SOL    HW2 3537   1.327   0.301   8.443
  884SOL     OW 3538   1.580   1.670   7.758
  884SOL    HW1 3539   1.668   1.708   7.749
  884SOL    HW2 3540   1.553   1.653   7.668
  885SOL     OW 3541   0.797   0.618   8.902
  885SOL    HW1 3542   0.769   0.593   8.990
  885SOL    HW2 3543   0.755   0.555   8.844
  886SOL     OW 3544   1.388   0.479   9.124
  886SOL    HW1 3545   1.392   0.524   9.209
  886SOL    HW2 3546   1.455   0.411   9.130
  887SOL     OW 3547   0.955   0.888   9.031
  887SOL    HW1 3548   1.009   0.817   8.995
  887SOL    HW2 3549   0.907   0.922   8.955
  888SOL     OW 3550   0.998   0.417   8.683
  888SOL    HW1 3551   0.910   0.425   8.721
  888SOL    HW2 3552   0.985   0.365   8.604
  889SOL     OW 3553   1.050   0.698   7.875
  889SOL    HW1 3554   1.066   0.690   7.969
  889SOL    HW2 3555   0.967   0.651   7.861
  890SOL     OW 3556   0.097   0.826   8.232
  890SOL    HW1 3557   0.184   0.812   8.270
  890SOL    HW2 3558   0.042   0.852   8.306
  891SOL     OW 3559   0.122   1.859   9.025
  891SOL    HW1 3560   0.116   1.834   9.118
  891SOL    HW2 3561   0.046   1.818   8.985
  892SOL     OW 3562   0.853   0.369   7.628
  892SOL    HW1 3563   0.926   0.404   7.577
  892SOL    HW2 3564   0.870   0.275   7.634
  893SOL     OW 3565   1.704   0.573   9.276
  893SOL    HW1 3566   1.668   0.648   9.228
  893SOL    HW2 3567   1.740   0.516   9.208
  894SOL     OW 3568   1.378   1.143   7.989
  894SOL    HW1 3569   1.456   1.130   7.936
  894SOL    HW2 3570   1.324   1.204   7.939
  895SOL     OW 3571   0.541   0.205   8.348
  895SOL    HW1 3572   0.562   0.224   8.440
  895SOL    HW2 3573   0.533   0.291   8.307
  896SOL     OW 3574   1.005   1.444   7.920
  896SOL    HW1 3575   0.968   1.517   7.871
  896SOL    HW2 3576   0.987   1.465   8.011
  897SOL     OW 3577   0.356   1.811   8.307
  897SOL    HW1 3578   0.398   1.725   8.317
  897SOL    HW2 3579   0.426   1.874   8.323
  898SOL     OW 3580   1.799   1.057   8.315
  898SOL    HW1 3581   1.745   1.038   8.239
  898SOL    HW2 3582   1.738   1.063   8.388
  899SOL     OW 3583   1.228   1.539   8.961
  899SOL    HW1 3584   1.214   1.466   9.022
  899SOL    HW2 3585   1.165   1.524   8.891
  900SOL     OW 3586   0.316   0.954   7.702
  900SOL    HW1 3587   0.400   0.977   7.662
  900SOL    HW2 3588   0.300   0.863   7.675
  901SOL     OW 3589   1.480   0.742   8.172
  901SOL    HW1 3590   1.468   0.699   8.257
  901SOL    HW2 3591   1.556   0.799   8.184
  902SOL     OW 3592   0.468   1.263   9.183
  902SOL    HW1 3593   0.441   1.269   9.092
  902SOL    HW2 3594   0.386   1.267   9.233
  903SOL     OW 3595   1.122   1.777   7.679
  903SOL    HW1 3596   1.048   1.736   7.724
  903SOL    HW2 3597   1.144   1.716   7.609
  904SOL     OW 3598   0.162   0.266   8.958
  904SOL    HW1 3599   0.135   0.353   8.929
  904SOL    HW2 3600   0.197   0.279   9.046
  905SOL     OW 3601   1.628   1.381   7.537
  905SOL    HW1 3602   1.586   1.466   7.520
  905SOL    HW2 3603   1.561   1.316   7.517
  906SOL     OW 3604   0.469   1.743   7.762
  906SOL    HW1 3605   0.511   1.797   7.829
  906SOL    HW2 3606   0.541   1.708   7.710
  907SOL     OW 3607   1.421   0.139   7.866
  907SOL    HW1 3608   1.405   0.087   7.787
  907SOL    HW2 3609   1.516   0.132   7.880
  908SOL     OW 3610   0.256   1.788   8.681
  908SOL    HW1 3611   0.304   1.714   8.717
  908SOL    HW2 3612   0.225   1.758   8.596
  909SOL     OW 3613   0.938   1.699   8.347
  909SOL    HW1 3614   1.015   1.647   8.369
  909SOL    HW2 3615   0.894   1.649   8.278
  910SOL     OW 3616   0.394   0.693   7.920
  910SOL    HW1 3617   0.419   0.601   7.934
  910SOL    HW2 3618   0.302   0.697   7.946
  911SOL     OW 3619   1.525   0.233   9.171
  911SOL    HW1 3620   1.525   0.255   9.264
  911SOL    HW2 3621   1.447   0.179   9.159
  912SOL     OW 3622   0.625   0.120   7.566
  912SOL    HW1 3623   0.713   0.086   7.578
  912SOL    HW2 3624   0.595   0.083   7.483
  913SOL     OW 3625   0.768   0.270   9.202
  913SOL    HW1 3626   0.835   0.202   9.209
  913SOL    HW2 3627   0.729   0.274   9.290
  914SOL     OW 3628   0.877   1.522   8.642
  914SOL    HW1 3629   0.861   1.485   8.555
  914SOL    HW2 3630   0.946   1.467   8.678
  915SOL     OW 3631   1.341   0.589   8.877
  915SOL    HW1 3632   1.369   0.561   8.964
  915SOL    HW2 3633   1.375   0.678   8.869
  916SOL     OW 3634   0.815   1.395   8.388
  916SOL    HW1 3635   0.900   1.383   8.344
  916SOL    HW2 3636   0.751   1.396   8.317
  917SOL     OW 3637   0.923   0.519   8.347
  917SOL    HW1 3638   0.907   0.517   8.253
  917SOL    HW2 3639   0.960   0.433   8.367
  918SOL     OW 3640   0.562   0.069   7.956
  918SOL    HW1 3641   0.476   0.055   7.995
  918SOL    HW2 3642   0.549   0.138   7.891
  919SOL     OW 3643   1.429   1.199   7.490
  919SOL    HW1 3644   1.458   1.123   7.539
  919SOL    HW2 3645   1.343   1.219   7.526
  920SOL     OW 3646   0.305   0.073   7.637
  920SOL    HW1 3647   0.388   0.120   7.635
  920SOL    HW2 3648   0.320   4.499   7.695
  921SOL     OW 3649   0.954   0.240   7.916
  921SOL    HW1 3650   0.902   0.297   7.860
  921SOL    HW2 3651   1.043   0.276   7.910
  922SOL     OW 3652   1.080   0.681   8.908
  922SOL    HW1 3653   1.010   0.617   8.908
  922SOL    HW2 3654   1.160   0.630   8.897
  923SOL     OW 3655   1.224   1.569   8.242
  923SOL    HW1 3656   1.240   1.637   8.176
  923SOL    HW2 3657   1.291   1.584   8.308
  924SOL     OW 3658   0.466   1.150   8.183
  924SOL    HW1 3659   0.396   1.131   8.245
  924SOL    HW2 3660   0.427   1.134   8.097
  925SOL     OW 3661   1.269   1.793   8.056
  925SOL    HW1 3662   1.314   1.855   7.999
  925SOL    HW2 3663   1.202   1.846   8.101
  926SOL     OW 3664   1.028   0.547   7.465
  926SOL    HW1 3665   0.980   0.628   7.450
  926SOL    HW2 3666   1.088   0.567   7.538
  927SOL     OW 3667   0.094   0.516   8.861
  927SOL    HW1 3668   0.151   0.524   8.784
  927SOL    HW2 3669   0.059   0.604   8.874
  928SOL     OW 3670   0.561   0.245   8.615
  928SOL    HW1 3671   0.592   0.162   8.651
  928SOL    HW2 3672   0.467   0.246   8.633
  929SOL     OW 3673   0.865   0.504   8.075
  929SOL    HW1 3674   0.821   0.544   8.000
  929SOL    HW2 3675   0.829   0.415   8.079
  930SOL     OW 3676   0.961   0.023   8.234
  930SOL    HW1 3677   0.914   0.023   8.151
  930SOL    HW2 3678   0.976   4.430   8.253
  931SOL     OW 3679   1.437   1.162   8.305
  931SOL    HW1 3680   1.368   1.096   8.305
  931SOL    HW2 3681   1.460   1.173   8.213
  932SOL     OW 3682   1.465   0.605   8.422
  932SOL    HW1 3683   1.412   0.526   8.424
  932SOL    HW2 3684   1.523   0.597   8.498
  933SOL     OW 3685   1.845   0.817   7.831
  933SOL    HW1 3686   1.902   0.765   7.889
  933SOL    HW2 3687   1.817   0.755   7.764
  934SOL     OW 3688   0.491   1.418   7.607
  934SOL    HW1 3689   0.414   1.389   7.656
  934SOL    HW2 3690   0.475   1.389   7.517
  935SOL     OW 3691   1.671   1.265   8.092
  935SOL    HW1 3692   1.766   1.269   8.107
  935SOL    HW2 3693   1.640   1.353   8.115
  936SOL     OW 3694   1.394   0.571   7.517
  936SOL    HW1 3695   1.333   0.555   7.589
  936SOL    HW2 3696   1.480   0.553   7.555
  937SOL     OW 3697   0.521   0.264   7.768
  937SOL    HW1 3698   0.570   0.215   7.703
  937SOL    HW2 3699   0.505   0.349   7.728
  938SOL     OW 3700   1.753   1.239   9.022
  938SOL    HW1 3701   1.840   1.200   9.015
  938SOL    HW2 3702   1.768   1.329   9.049
  939SOL     OW 3703   1.058   1.354   8.782
  939SOL    HW1 3704   0.983   1.323   8.833
  939SOL    HW2 3705   1.134   1.312   8.823
  940SOL     OW 3706   1.609   1.625   9.102
  940SOL    HW1 3707   1.602   1.660   9.013
  940SOL    HW2 3708   1.692   1.577   9.103
  941SOL     OW 3709   1.129   1.204   8.553
  941SOL    HW1 3710   1.070   1.241   8.618
  941SOL    HW2 3711   1.096   1.236   8.469
  942SOL     OW 3712   1.628   1.098   8.525
  942SOL    HW1 3713   1.624   1.160   8.598
  942SOL    HW2 3714   1.549   1.115   8.474
  943SOL     OW 3715   0.901   0.134   8.835
  943SOL    HW1 3716   0.924   0.089   8.753
  943SOL    HW2 3717   0.985   0.149   8.878
  944SOL     OW 3718   0.984   1.114   9.171
  944SOL    HW1 3719   0.892   1.130   9.193
  944SOL    HW2 3720   0.983   1.037   9.115
  945SOL     OW 3721   0.709   1.061   7.820
  945SOL    HW1 3722   0.696   1.045   7.914
  945SOL    HW2 3723   0.784   1.008   7.797
  946SOL     OW 3724   0.430   0.827   8.690
  946SOL    HW1 3725   0.498   0.836   8.756
  946SOL    HW2 3726   0.372   0.758   8.724
  947SOL     OW 3727   1.269   0.375   8.722
  947SOL    HW1 3728   1.301   0.454   8.766
  947SOL    HW2 3729   1.180   0.397   8.695
  948SOL     OW 3730   0.063   1.576   8.792
  948SOL    HW1 3731   0.037   1.665   8.768
  948SOL    HW2 3732   0.158   1.580   8.796
  949SOL     OW 3733   0.345   1.109   7.941
  949SOL    HW1 3734   0.356   1.183   7.881
  949SOL    HW2 3735   0.346   1.032   7.885
  950SOL     OW 3736   0.564   0.525   8.300
  950SOL    HW1 3737   0.575   0.586   8.228
  950SOL    HW2 3738   0.624   0.556   8.368
  951SOL     OW 3739   1.248   1.348   7.837
  951SOL    HW1 3740   1.303   1.420   7.869
  951SOL    HW2 3741   1.161   1.369   7.871
  952SOL     OW 3742   1.281   1.458   8.595
  952SOL    HW1 3743   1.337   1.461   8.672
  952SOL    HW2 3744   1.226   1.381   8.608
  953SOL     OW 3745   1.581   0.623   7.926
  953SOL    HW1 3746   1.535   0.673   7.992
  953SOL    HW2 3747   1.626   0.689   7.873
  954SOL     OW 3748   0.347   1.532   8.762
  954SOL    HW1 3749   0.333   1.484   8.680
  954SOL    HW2 3750   0.442   1.541   8.769
  955SOL     OW 3751   0.487   0.760   9.119
  955SOL    HW1 3752   0.512   0.798   9.035
  955SOL    HW2 3753   0.531   0.675   9.122
  956SOL     OW 3754   1.601   0.778   9.129
  956SOL    HW1 3755   1.515   0.820   9.123
  956SOL    HW2 3756   1.654   0.820   9.061
  957SOL     OW 3757   1.004   0.086   9.166
  957SOL    HW1 3758   1.037   0.168   9.129
  957SOL    HW2 3759   1.028   0.019   9.102
  958SOL     OW 3760   0.495   0.044   9.200
  958SOL    HW1 3761   0.481   4.497   9.118
  958SOL    HW2 3762   0.430   0.113   9.200
  959SOL     OW 3763   0.589   0.875   8.472
  959SOL    HW1 3764   0.620   0.965   8.474
  959SOL    HW2 3765   0.534   0.866   8.549
  960SOL     OW 3766   1.357   0.858   8.477
  960SOL    HW1 3767   1.273   0.849   8.432
  960SOL    HW2 3768   1.398   0.772   8.470
  961SOL     OW 3769   1.203   0.535   7.710
  961SOL    HW1 3770   1.210   0.455   7.762
  961SOL    HW2 3771   1.160   0.598   7.768
  962SOL     OW 3772   0.284   0.216   8.682
  962SOL    HW1 3773   0.245   0.233   8.768
  962SOL    HW2 3774   0.326   0.130   8.692
  963SOL     OW 3775   0.037   1.313   8.734
  963SOL    HW1 3776   0.075   1.265   8.808
  963SOL    HW2 3777   0.044   1.405   8.759
  964SOL     OW 3778   0.723   0.631   8.505
  964SOL    HW1 3779   0.798   0.611   8.449
  964SOL    HW2 3780   0.698   0.720   8.481
  965SOL     OW 3781   1.735   0.959   9.301
  965SOL    HW1 3782   1.688   0.899   9.243
  965SOL    HW2 3783   1.675   0.973   9.375
  966SOL     OW 3784   0.321   0.074   8.079
  966SOL    HW1 3785   0.303   0.163   8.110
  966SOL    HW2 3786   0.309   0.018   8.156
  967SOL     OW 3787   1.616   0.378   7.810
  967SOL    HW1 3788   1.644   0.314   7.875
  967SOL    HW2 3789   1.592   0.456   7.861
  968SOL     OW 3790   1.029   0.762   8.409
  968SOL    HW1 3791   1.025   0.778   8.503
  968SOL    HW2 3792   1.000   0.671   8.399
  969SOL     OW 3793   0.982   1.566   9.165
  969SOL    HW1 3794   0.967   1.610   9.081
  969SOL    HW2 3795   1.025   1.484   9.142
  970SOL     OW 3796   1.855   1.503   9.054
  970SOL    HW1 3797   1.869   1.532   8.963
  970SOL    HW2 3798   1.937   1.525   9.098
  971SOL     OW 3799   0.346   0.934   9.266
  971SOL    HW1 3800   0.418   0.965   9.322
  971SOL    HW2 3801   0.386   0.867   9.210
  972SOL     OW 3802   1.530   0.264   7.576
  972SOL    HW1 3803   1.459   0.208   7.606
  972SOL    HW2 3804   1.560   0.310   7.655
  973SOL     OW 3805   1.291   0.826   7.478
  973SOL    HW1 3806   1.333   0.740   7.481
  973SOL    HW2 3807   1.323   0.866   7.397
  974SOL     OW 3808   1.066   1.336   8.302
  974SOL    HW1 3809   1.069   1.263   8.239
  974SOL    HW2 3810   1.127   1.400   8.267
  975SOL     OW 3811   0.318   0.812   8.395
  975SOL    HW1 3812   0.413   0.830   8.393
  975SOL    HW2 3813   0.312   0.722   8.424
  976SOL     OW 3814   0.334   0.530   8.437
  976SOL    HW1 3815   0.290   0.447   8.418
  976SOL    HW2 3816   0.412   0.528   8.381
  977SOL     OW 3817   1.136   0.373   9.145
  977SOL    HW1 3818   1.085   0.437   9.195
  977SOL    HW2 3819   1.221   0.415   9.131
  978SOL     OW 3820   1.156   0.213   8.921
  978SOL    HW1 3821   1.151   0.277   8.992
  978SOL    HW2 3822   1.197   0.261   8.849
  979SOL     OW 3823   4.491   1.322   7.654
  979SOL    HW1 3824   4.399   1.338   7.636
  979SOL    HW2 3825   4.496   1.229   7.675
  980SOL     OW 3826   0.098   1.775   8.388
  980SOL    HW1 3827   0.059   1.723   8.317
  980SOL    HW2 3828   0.186   1.797   8.356
  981SOL     OW 3829   0.496   1.574   8.355
  981SOL    HW1 3830   0.564   1.637   8.379
  981SOL    HW2 3831   0.540   1.511   8.298
  982SOL     OW 3832   0.983   0.793   8.675
  982SOL    HW1 3833   1.039   0.770   8.749
  982SOL    HW2 3834   0.899   0.754   8.695
  983SOL     OW 3835   0.038   0.568   8.559
  983SOL    HW1 3836   0.112   0.526   8.516
  983SOL    HW2 3837   0.013   0.507   8.629
  984SOL     OW 3838   0.179   0.525   9.161
  984SOL    HW1 3839   0.267   0.507   9.126
  984SOL    HW2 3840   0.151   0.605   9.116
  985SOL     OW 3841   1.378   0.939   9.106
  985SOL    HW1 3842   1.398   1.032   9.105
  985SOL    HW2 3843   1.374   0.913   9.014
  986SOL     OW 3844   0.811   0.574   7.804
  986SOL    HW1 3845   0.815   0.503   7.740
  986SOL    HW2 3846   0.739   0.629   7.774
  987SOL     OW 3847   1.640   0.601   8.634
  987SOL    HW1 3848   1.630   0.542   8.708
  987SOL    HW2 3849   1.727   0.582   8.600
  988SOL     OW 3850   0.272   1.562   9.188
  988SOL    HW1 3851   0.216   1.613   9.246
  988SOL    HW2 3852   0.254   1.471   9.211
  989SOL     OW 3853   0.688   0.464   8.714
  989SOL    HW1 3854   0.648   0.384   8.680
  989SOL    HW2 3855   0.693   0.522   8.639
  990SOL     OW 3856   0.927   1.679   8.916
  990SOL    HW1 3857   0.902   1.644   8.830
  990SOL    HW2 3858   0.923   1.774   8.905
  991SOL     OW 3859   0.472   0.491   7.630
  991SOL    HW1 3860   0.532   0.561   7.654
  991SOL    HW2 3861   0.389   0.534   7.615
  992SOL     OW 3862   0.162   1.141   8.909
  992SOL    HW1 3863   0.145   1.096   8.992
  992SOL    HW2 3864   0.169   1.070   8.844
  993SOL     OW 3865   1.326   1.046   8.671
  993SOL    HW1 3866   1.349   0.983   8.603
  993SOL    HW2 3867   1.256   1.099   8.632
  994SOL     OW 3868   1.312   0.856   7.754
  994SOL    HW1 3869   1.237   0.827   7.805
  994SOL    HW2 3870   1.285   0.843   7.663
  995SOL     OW 3871   1.764   1.740   8.599
  995SOL    HW1 3872   1.828   1.771   8.534
  995SOL    HW2 3873   1.748   1.649   8.573
  996SOL     OW 3874   1.241   1.733   8.560
  996SOL    HW1 3875   1.323   1.754   8.516
  996SOL    HW2 3876   1.247   1.639   8.579
  997SOL     OW 3877   0.067   1.185   8.498
  997SOL    HW1 3878   0.064   1.216   8.588
  997SOL    HW2 3879   0.025   1.254   8.447
  998SOL     OW 3880   0.679   1.666   9.178
  998SOL    HW1 3881   0.623   1.743   9.171
  998SOL    HW2 3882   0.743   1.677   9.108
  999SOL     OW 3883   1.719   0.129   7.940
  999SOL    HW1 3884   1.789   0.139   7.876
  999SOL    HW2 3885   1.747   0.058   7.997
 1000SOL     OW 3886   1.390   1.567   7.934
 1000SOL    HW1 3887   1.449   1.600   7.866
 1000SOL    HW2 3888   1.341   1.644   7.962
 1001SOL     OW 3889   0.118   1.808   9.296
 1001SOL    HW1 3890   0.078   1.735   9.344
 1001SOL    HW2 3891   0.182   1.845   9.357
 1002SOL     OW 3892   1.278   0.928   8.120
 1002SOL    HW1 3893   1.351   0.866   8.126
 1002SOL    HW2 3894   1.312   1.000   8.068
 1003SOL     OW 3895   0.814   1.274   8.878
 1003SOL    HW1 3896   0.786   1.313   8.960
 1003SOL    HW2 3897   0.744   1.295   8.816
 1004SOL     OW 3898   0.672   1.620   7.603
 1004SOL    HW1 3899   0.682   1.632   7.509
 1004SOL    HW2 3900   0.617   1.542   7.612
 1005SOL     OW 3901   1.623   1.725   8.839
 1005SOL    HW1 3902   1.673   1.733   8.757
 1005SOL    HW2 3903   1.610   1.815   8.868
 1006SOL     OW 3904   1.839   0.154   8.414
 1006SOL    HW1 3905   1.868   0.076   8.366
 1006SOL    HW2 3906   1.752   0.173   8.378
 1007SOL     OW 3907   0.263   0.325   8.170
 1007SOL    HW1 3908   0.180   0.359   8.137
 1007SOL    HW2 3909   0.249   0.315   8.264
 1008SOL     OW 3910   1.208   1.606   7.480
 1008SOL    HW1 3911   1.198   1.514   7.506
 1008SOL    HW2 3912   1.143   1.618   7.410
 1009SOL     OW 3913   0.825   1.007   8.820
 1009SOL    HW1 3914   0.869   1.003   8.735
 1009SOL    HW2 3915   0.824   1.100   8.842
 1010SOL     OW 3916   0.915   0.910   7.738
 1010SOL    HW1 3917   0.977   0.942   7.672
 1010SOL    HW2 3918   0.963   0.841   7.783
 1011SOL     OW 3919   1.492   1.626   7.491
 1011SOL    HW1 3920   1.398   1.619   7.477
 1011SOL    HW2 3921   1.529   1.631   7.403
 1012SOL     OW 3922   0.373   1.308   8.939
 1012SOL    HW1 3923   0.356   1.386   8.887
 1012SOL    HW2 3924   0.298   1.250   8.922
 1013SOL     OW 3925   1.610   1.283   8.728
 1013SOL    HW1 3926   1.672   1.274   8.800
 1013SOL    HW2 3927   1.550   1.352   8.756
 1014SOL     OW 3928   1.053   1.107   8.154
 1014SOL    HW1 3929   0.982   1.057   8.194
 1014SOL    HW2 3930   1.115   1.041   8.124
 1015SOL     OW 3931   1.004   0.244   8.454
 1015SOL    HW1 3932   1.010   0.223   8.361
 1015SOL    HW2 3933   0.997   0.159   8.498
 1016SOL     OW 3934   0.604   1.489   7.930
 1016SOL    HW1 3935   0.647   1.439   7.860
 1016SOL    HW2 3936   0.530   1.532   7.888
 1017SOL     OW 3937   1.722   0.394   8.825
 1017SOL    HW1 3938   1.794   0.456   8.824
 1017SOL    HW2 3939   1.751   0.322   8.768
 1018SOL     OW 3940   0.252   1.344   7.724
 1018SOL    HW1 3941   0.157   1.342   7.710
 1018SOL    HW2 3942   0.263   1.376   7.813
 1019SOL     OW 3943   0.115   1.007   9.143
 1019SOL    HW1 3944   0.053   1.051   9.200
 1019SOL    HW2 3945   0.194   0.997   9.196
 1020SOL     OW 3946   0.658   0.209   8.946
 1020SOL    HW1 3947   0.738   0.182   8.899
 1020SOL    HW2 3948   0.687   0.226   9.036
 1021SOL     OW 3949   0.072   0.320   7.474
 1021SOL    HW1 3950   4.478   0.328   7.489
 1021SOL    HW2 3951   0.098   0.407   7.443
 1022SOL     OW 3952   1.429   0.858   8.848
 1022SOL    HW1 3953   1.381   0.919   8.792
 1022SOL    HW2 3954   1.519   0.861   8.814
 1023SOL     OW 3955   0.085   0.188   7.750
 1023SOL    HW1 3956   0.076   0.261   7.689
 1023SOL    HW2 3957   0.165   0.143   7.722
 1024SOL     OW 3958   1.179   1.339   7.565
 1024SOL    HW1 3959   1.088   1.309   7.567
 1024SOL    HW2 3960   1.206   1.339   7.657
 1025SOL     OW 3961   0.624   0.830   8.878
 1025SOL    HW1 3962   0.678   0.907   8.864
 1025SOL    HW2 3963   0.686   0.758   8.887
 1026SOL     OW 3964   1.485   1.777   8.428
 1026SOL    HW1 3965   1.507   1.838   8.358
 1026SOL    HW2 3966   1.568   1.762   8.473
 1027SOL     OW 3967   0.713   0.562   9.153
 1027SOL    HW1 3968   0.752   0.627   9.211
 1027SOL    HW2 3969   0.747   0.478   9.185
 1028SOL     OW 3970   1.472   1.200   9.080
 1028SOL    HW1 3971   1.459   1.214   9.174
 1028SOL    HW2 3972   1.565   1.215   9.065
 1029SOL     OW 3973   0.379   1.744   9.013
 1029SOL    HW1 3974   0.295   1.785   8.994
 1029SOL    HW2 3975   0.358   1.664   9.061
 1030SOL     OW 3976   1.670   0.881   8.703
 1030SOL    HW1 3977   1.662   0.796   8.660
 1030SOL    HW2 3978   1.660   0.945   8.633
 1031SOL     OW 3979   1.218   0.330   7.895
 1031SOL    HW1 3980   1.284   0.262   7.884
 1031SOL    HW2 3981   1.246   0.378   7.974
 1032SOL     OW 3982   0.587   0.737   8.119
 1032SOL    HW1 3983   0.627   0.822   8.104
 1032SOL    HW2 3984   0.520   0.730   8.051
 1033SOL     OW 3985   1.762   0.366   9.092
 1033SOL    HW1 3986   1.746   0.379   8.998
 1033SOL    HW2 3987   1.684   0.320   9.123
 1034SOL     OW 3988   1.745   0.933   8.960
 1034SOL    HW1 3989   1.742   1.028   8.974
 1034SOL    HW2 3990   1.730   0.922   8.867
 1035SOL     OW 3991   0.863   1.367   7.482
 1035SOL    HW1 3992   0.824   1.394   7.566
 1035SOL    HW2 3993   0.880   1.449   7.436
 1036SOL     OW 3994   0.661   1.791   8.393
 1036SOL    HW1 3995   0.641   1.882   8.369
 1036SOL    HW2 3996   0.756   1.785   8.385
 1037SOL     OW 3997   0.868   0.968   8.302
 1037SOL    HW1 3998   0.918   0.896   8.341
 1037SOL    HW2 3999   0.833   1.015   8.377
 1038SOL     OW 4000   1.079   0.989   7.537
 1038SOL    HW1 4001   1.057   1.039   7.459
 1038SOL    HW2 4002   1.154   0.935   7.510
 1039SOL     OW 4003   1.852   1.546   8.287
 1039SOL    HW1 4004   1.769   1.539   8.240
 1039SOL    HW2 4005   1.842   1.489   8.363
 1040SOL     OW 4006   0.230   1.305   9.306
 1040SOL    HW1 4007   0.155   1.250   9.285
 1040SOL    HW2 4008   0.226   1.316   9.401
 1041SOL     OW 4009   0.108   1.234   8.116
 1041SOL    HW1 4010   0.121   1.189   8.199
 1041SOL    HW2 4011   0.167   1.190   8.055
 1042SOL     OW 4012   0.682   1.403   9.076
 1042SOL    HW1 4013   0.602   1.359   9.105
 1042SOL    HW2 4014   0.676   1.491   9.114
 1043SOL     OW 4015   1.808   0.181   8.686
 1043SOL    HW1 4016   1.805   0.087   8.707
 1043SOL    HW2 4017   1.824   0.184   8.592
 1044SOL     OW 4018   0.441   0.431   7.980
 1044SOL    HW1 4019   0.457   0.361   7.917
 1044SOL    HW2 4020   0.381   0.392   8.044
 1045SOL     OW 4021   1.704   1.484   8.537
 1045SOL    HW1 4022   1.620   1.463   8.497
 1045SOL    HW2 4023   1.714   1.419   8.607
 1046SOL     OW 4024   0.311   0.505   8.701
 1046SOL    HW1 4025   0.383   0.456   8.740
 1046SOL    HW2 4026   0.336   0.516   8.609
 1047SOL     OW 4027   0.828   1.578   8.125
 1047SOL    HW1 4028   0.814   1.632   8.048
 1047SOL    HW2 4029   0.751   1.520   8.129
 1048SOL     OW 4030   1.432   0.216   8.566
 1048SOL    HW1 4031   1.467   0.144   8.619
 1048SOL    HW2 4032   1.381   0.269   8.627
 1049SOL     OW 4033   0.996   0.006   8.599
 1049SOL    HW1 4034   0.954   4.421   8.590
 1049SOL    HW2 4035   1.089   4.487   8.610
 1050SOL     OW 4036   0.772   1.333   7.762
 1050SOL    HW1 4037   0.741   1.242   7.769
 1050SOL    HW2 4038   0.854   1.334   7.812
 1051SOL     OW 4039   0.621   1.556   8.733
 1051SOL    HW1 4040   0.623   1.638   8.783
 1051SOL    HW2 4041   0.708   1.549   8.695
 1052SOL     OW 4042   1.340   0.052   7.602
 1052SOL    HW1 4043   1.379   4.477   7.558
 1052SOL    HW2 4044   1.264   0.017   7.649
 1053SOL     OW 4045   1.314   0.463   8.124
 1053SOL    HW1 4046   1.256   0.538   8.125
 1053SOL    HW2 4047   1.303   0.423   8.210
 1054SOL     OW 4048   1.585   0.200   8.316
 1054SOL    HW1 4049   1.526   0.215   8.389
 1054SOL    HW2 4050   1.588   0.284   8.269
 1055SOL     OW 4051   0.041   1.051   7.736
 1055SOL    HW1 4052   0.135   1.034   7.726
 1055SOL    HW2 4053   0.020   1.020   7.825
 1056SOL     OW 4054   0.885   1.653   7.790
 1056SOL    HW1 4055   0.812   1.636   7.730
 1056SOL    HW2 4056   0.856   1.728   7.842
 1057SOL     OW 4057   0.246   0.628   9.432
 1057SOL    HW1 4058   0.172   0.605   9.488
 1057SOL    HW2 4059   0.214   0.614   9.343
 1058SOL     OW 4060   0.196   0.293  10.300
 1058SOL    HW1 4061   0.228   0.268  10.386
 1058SOL    HW2 4062   0.134   0.224  10.277
 1059SOL     OW 4063   0.003   0.383   9.949
 1059SOL    HW1 4064   4.425   0.419   9.991
 1059SOL    HW2 4065   4.470   0.311   9.896
 1060SOL     OW 4066   0.568   1.288  10.487
 1060SOL    HW1 4067   0.481   1.292  10.447
 1060SOL    HW2 4068   0.583   1.376  10.521
 1061SOL     OW 4069   1.562   1.512  10.017
 1061SOL    HW1 4070   1.519   1.492  10.101
 1061SOL    HW2 4071   1.490   1.516   9.954
 1062SOL     OW 4072   1.135   0.698  10.008
 1062SOL    HW1 4073   1.181   0.782   9.998
 1062SOL    HW2 4074   1.085   0.708  10.089
 1063SOL     OW 4075   1.768   0.606   9.537
 1063SOL    HW1 4076   1.747   0.597   9.445
 1063SOL    HW2 4077   1.734   0.526   9.578
 1064SOL     OW 4078   0.755   1.142  10.352
 1064SOL    HW1 4079   0.686   1.178  10.408
 1064SOL    HW2 4080   0.790   1.219  10.306
 1065SOL     OW 4081   0.854   0.774   0.022
 1065SOL    HW1 4082   0.862   0.830   0.099
 1065SOL    HW2 4083   0.887   0.829  11.050
 1066SOL     OW 4084   0.685   1.003   9.957
 1066SOL    HW1 4085   0.751   0.991  10.026
 1066SOL    HW2 4086   0.616   1.054   9.999
 1067SOL     OW 4087   0.336   1.420  10.378
 1067SOL    HW1 4088   0.254   1.401  10.332
 1067SOL    HW2 4089   0.385   1.475  10.317
 1068SOL     OW 4090   1.463   1.499  10.660
 1068SOL    HW1 4091   1.519   1.577  10.667
 1068SOL    HW2 4092   1.408   1.502  10.738
 1069SOL     OW 4093   0.442   0.389  10.784
 1069SOL    HW1 4094   0.529   0.349  10.785
 1069SOL    HW2 4095   0.394   0.344  10.854
 1070SOL     OW 4096   1.611   0.445  10.049
 1070SOL    HW1 4097   1.530   0.467  10.001
 1070SOL    HW2 4098   1.628   0.523  10.101
 1071SOL     OW 4099   0.245   1.691   9.787
 1071SOL    HW1 4100   0.230   1.776   9.828
 1071SOL    HW2 4101   0.314   1.708   9.722
 1072SOL     OW 4102   0.250   1.426   9.837
 1072SOL    HW1 4103   0.240   1.522   9.840
 1072SOL    HW2 4104   0.187   1.394   9.902
 1073SOL     OW 4105   0.248   1.082  10.195
 1073SOL    HW1 4106   0.264   0.992  10.222
 1073SOL    HW2 4107   0.188   1.117  10.260
 1074SOL     OW 4108   0.611   1.790  10.738
 1074SOL    HW1 4109   0.531   1.771  10.787
 1074SOL    HW2 4110   0.633   1.880  10.763
 1075SOL     OW 4111   0.578   0.987   9.449
 1075SOL    HW1 4112   0.626   1.029   9.378
 1075SOL    HW2 4113   0.623   1.016   9.528
 1076SOL     OW 4114   1.553   0.137  10.785
 1076SOL    HW1 4115   1.599   0.193  10.722
 1076SOL    HW2 4116   1.616   0.126  10.857
 1077SOL     OW 4117   0.135   0.644   9.884
 1077SOL    HW1 4118   0.085   0.565   9.903
 1077SOL    HW2 4119   0.108   0.707   9.950
 1078SOL     OW 4120   1.840   1.740   9.647
 1078SOL    HW1 4121   1.910   1.723   9.711
 1078SOL    HW2 4122   1.847   1.834   9.629
 1079SOL     OW 4123   0.032   1.602   9.451
 1079SOL    HW1 4124   0.021   1.507   9.448
 1079SOL    HW2 4125   0.024   1.624   9.544
 1080SOL     OW 4126   1.690   0.920   9.951
 1080SOL    HW1 4127   1.773   0.877   9.929
 1080SOL    HW2 4128   1.667   0.970   9.872
 1081SOL     OW 4129   1.646   1.107   9.739
 1081SOL    HW1 4130   1.732   1.112   9.697
 1081SOL    HW2 4131   1.651   1.168   9.812
 1082SOL     OW 4132   0.096   0.762  10.910
 1082SOL    HW1 4133   0.184   0.744  10.878
 1082SOL    HW2 4134   0.090   0.858  10.912
 1083SOL     OW 4135   0.614   1.385  10.046
 1083SOL    HW1 4136   0.567   1.302  10.056
 1083SOL    HW2 4137   0.598   1.412   9.956
 1084SOL     OW 4138   1.294   1.237  10.752
 1084SOL    HW1 4139   1.319   1.177  10.682
 1084SOL    HW2 4140   1.351   1.213  10.825
 1085SOL     OW 4141   0.821   0.014   9.862
 1085SOL    HW1 4142   0.856   0.099   9.837
 1085SOL    HW2 4143   0.726   0.022   9.850
 1086SOL     OW 4144   0.177   0.939  10.590
 1086SOL    HW1 4145   0.269   0.921  10.571
 1086SOL    HW2 4146   0.132   0.926  10.506
 1087SOL     OW 4147   1.532   0.993   9.509
 1087SOL    HW1 4148   1.461   0.937   9.541
 1087SOL    HW2 4149   1.572   1.028   9.588
 1088SOL     OW 4150   1.195   1.806  10.928
 1088SOL    HW1 4151   1.195   1.870  10.857
 1088SOL    HW2 4152   1.205   1.721  10.885
 1089SOL     OW 4153   0.325   0.294  11.058
 1089SOL    HW1 4154   0.389   0.335   0.017
 1089SOL    HW2 4155   0.245   0.287   0.010
 1090SOL     OW 4156   1.466   1.419  10.260
 1090SOL    HW1 4157   1.398   1.435  10.325
 1090SOL    HW2 4158   1.453   1.328  10.234
 1091SOL     OW 4159   1.656   1.740   9.889
 1091SOL    HW1 4160   1.637   1.708   9.800
 1091SOL    HW2 4161   1.633   1.667   9.946
 1092SOL     OW 4162   0.595   0.723   9.576
 1092SOL    HW1 4163   0.597   0.804   9.526
 1092SOL    HW2 4164   0.529   0.738   9.644
 1093SOL     OW 4165   1.292   0.364  10.243
 1093SOL    HW1 4166   1.202   0.334  10.227
 1093SOL    HW2 4167   1.327   0.300  10.305
 1094SOL     OW 4168   1.575   1.670   9.618
 1094SOL    HW1 4169   1.669   1.691   9.613
 1094SOL    HW2 4170   1.549   1.653   9.528
 1095SOL     OW 4171   0.797   0.618  10.764
 1095SOL    HW1 4172   0.768   0.592  10.851
 1095SOL    HW2 4173   0.758   0.554  10.705
 1096SOL     OW 4174   0.965   0.899  10.903
 1096SOL    HW1 4175   1.014   0.827  10.863
 1096SOL    HW2 4176   0.915   0.937  10.831
 1097SOL     OW 4177   0.997   0.420  10.544
 1097SOL    HW1 4178   0.910   0.425  10.582
 1097SOL    HW2 4179   0.986   0.365  10.466
 1098SOL     OW 4180   1.050   0.698   9.737
 1098SOL    HW1 4181   1.067   0.690   9.831
 1098SOL    HW2 4182   0.967   0.651   9.723
 1099SOL     OW 4183   0.097   0.827  10.094
 1099SOL    HW1 4184   0.184   0.812  10.132
 1099SOL    HW2 4185   0.042   0.851  10.168
 1100SOL     OW 4186   0.117   1.850  10.900
 1100SOL    HW1 4187   0.114   1.789  10.974
 1100SOL    HW2 4188   0.051   1.818  10.839
 1101SOL     OW 4189   0.853   0.369   9.490
 1101SOL    HW1 4190   0.926   0.403   9.439
 1101SOL    HW2 4191   0.870   0.275   9.496
 1102SOL     OW 4192   1.377   1.143   9.851
 1102SOL    HW1 4193   1.456   1.130   9.798
 1102SOL    HW2 4194   1.324   1.204   9.801
 1103SOL     OW 4195   0.542   0.205  10.210
 1103SOL    HW1 4196   0.561   0.224  10.302
 1103SOL    HW2 4197   0.534   0.291  10.170
 1104SOL     OW 4198   1.006   1.444   9.782
 1104SOL    HW1 4199   0.968   1.517   9.732
 1104SOL    HW2 4200   0.987   1.465   9.873
 1105SOL     OW 4201   0.356   1.811  10.169
 1105SOL    HW1 4202   0.398   1.725  10.179
 1105SOL    HW2 4203   0.426   1.874  10.185
 1106SOL     OW 4204   1.799   1.057  10.177
 1106SOL    HW1 4205   1.744   1.038  10.101
 1106SOL    HW2 4206   1.738   1.063  10.250
 1107SOL     OW 4207   1.228   1.536  10.825
 1107SOL    HW1 4208   1.237   1.447  10.858
 1107SOL    HW2 4209   1.165   1.529  10.753
 1108SOL     OW 4210   0.316   0.954   9.564
 1108SOL    HW1 4211   0.400   0.977   9.524
 1108SOL    HW2 4212   0.300   0.863   9.537
 1109SOL     OW 4213   1.479   0.743  10.034
 1109SOL    HW1 4214   1.468   0.699  10.119
 1109SOL    HW2 4215   1.556   0.798  10.046
 1110SOL     OW 4216   0.455   1.268  11.052
 1110SOL    HW1 4217   0.426   1.281  10.962
 1110SOL    HW2 4218   0.388   1.210  11.090
 1111SOL     OW 4219   1.122   1.778   9.541
 1111SOL    HW1 4220   1.049   1.736   9.586
 1111SOL    HW2 4221   1.145   1.716   9.471
 1112SOL     OW 4222   0.161   0.260  10.821
 1112SOL    HW1 4223   0.138   0.349  10.795
 1112SOL    HW2 4224   0.206   0.271  10.905
 1113SOL     OW 4225   1.628   1.380   9.399
 1113SOL    HW1 4226   1.587   1.465   9.382
 1113SOL    HW2 4227   1.560   1.316   9.379
 1114SOL     OW 4228   0.469   1.743   9.624
 1114SOL    HW1 4229   0.511   1.797   9.691
 1114SOL    HW2 4230   0.541   1.708   9.572
 1115SOL     OW 4231   1.421   0.140   9.728
 1115SOL    HW1 4232   1.405   0.087   9.649
 1115SOL    HW2 4233   1.516   0.132   9.743
 1116SOL     OW 4234   0.254   1.789  10.545
 1116SOL    HW1 4235   0.304   1.716  10.583
 1116SOL    HW2 4236   0.227   1.757  10.459
 1117SOL     OW 4237   0.938   1.699  10.209
 1117SOL    HW1 4238   1.016   1.647  10.229
 1117SOL    HW2 4239   0.894   1.649  10.140
 1118SOL     OW 4240   0.394   0.693   9.782
 1118SOL    HW1 4241   0.419   0.601   9.796
 1118SOL    HW2 4242   0.302   0.697   9.808
 1119SOL     OW 4243   0.625   0.121   9.428
 1119SOL    HW1 4244   0.713   0.085   9.440
 1119SOL    HW2 4245   0.595   0.083   9.345
 1120SOL     OW 4246   0.766   0.273  11.043
 1120SOL    HW1 4247   0.828   0.205  11.070
 1120SOL    HW2 4248   0.711   0.287   0.019
 1121SOL     OW 4249   0.876   1.521  10.504
 1121SOL    HW1 4250   0.860   1.486  10.416
 1121SOL    HW2 4251   0.948   1.470  10.538
 1122SOL     OW 4252   1.344   0.590  10.753
 1122SOL    HW1 4253   1.394   0.573  10.833
 1122SOL    HW2 4254   1.369   0.679  10.727
 1123SOL     OW 4255   0.816   1.395  10.250
 1123SOL    HW1 4256   0.900   1.383  10.205
 1123SOL    HW2 4257   0.751   1.396  10.179
 1124SOL     OW 4258   0.923   0.519  10.209
 1124SOL    HW1 4259   0.907   0.517  10.115
 1124SOL    HW2 4260   0.960   0.433  10.229
 1125SOL     OW 4261   0.562   0.069   9.818
 1125SOL    HW1 4262   0.476   0.055   9.857
 1125SOL    HW2 4263   0.548   0.138   9.753
 1126SOL     OW 4264   1.428   1.198   9.351
 1126SOL    HW1 4265   1.458   1.122   9.401
 1126SOL    HW2 4266   1.342   1.220   9.388
 1127SOL     OW 4267   0.305   0.073   9.499
 1127SOL    HW1 4268   0.388   0.120   9.497
 1127SOL    HW2 4269   0.320   4.499   9.557
 1128SOL     OW 4270   0.954   0.240   9.778
 1128SOL    HW1 4271   0.902   0.297   9.722
 1128SOL    HW2 4272   1.043   0.276   9.772
 1129SOL     OW 4273   1.079   0.686  10.772
 1129SOL    HW1 4274   1.007   0.623  10.772
 1129SOL    HW2 4275   1.158   0.632  10.768
 1130SOL     OW 4276   1.223   1.570  10.104
 1130SOL    HW1 4277   1.240   1.637  10.037
 1130SOL    HW2 4278   1.292   1.584  10.170
 1131SOL     OW 4279   0.466   1.150  10.045
 1131SOL    HW1 4280   0.396   1.131  10.107
 1131SOL    HW2 4281   0.427   1.134   9.959
 1132SOL     OW 4282   1.268   1.794   9.918
 1132SOL    HW1 4283   1.314   1.856   9.861
 1132SOL    HW2 4284   1.202   1.847   9.962
 1133SOL     OW 4285   1.029   0.547   9.327
 1133SOL    HW1 4286   0.980   0.628   9.312
 1133SOL    HW2 4287   1.087   0.567   9.400
 1134SOL     OW 4288   0.088   0.516  10.724
 1134SOL    HW1 4289   0.151   0.525  10.653
 1134SOL    HW2 4290   0.063   0.606  10.746
 1135SOL     OW 4291   0.560   0.246  10.477
 1135SOL    HW1 4292   0.588   0.160  10.507
 1135SOL    HW2 4293   0.467   0.250  10.499
 1136SOL     OW 4294   0.865   0.504   9.937
 1136SOL    HW1 4295   0.821   0.544   9.862
 1136SOL    HW2 4296   0.829   0.415   9.941
 1137SOL     OW 4297   0.962   0.023  10.095
 1137SOL    HW1 4298   0.914   0.023  10.013
 1137SOL    HW2 4299   0.976   4.431  10.116
 1138SOL     OW 4300   1.436   1.162  10.167
 1138SOL    HW1 4301   1.368   1.095  10.166
 1138SOL    HW2 4302   1.460   1.173  10.075
 1139SOL     OW 4303   1.465   0.606  10.284
 1139SOL    HW1 4304   1.412   0.526  10.286
 1139SOL    HW2 4305   1.523   0.597  10.360
 1140SOL     OW 4306   1.845   0.816   9.693
 1140SOL    HW1 4307   1.902   0.765   9.751
 1140SOL    HW2 4308   1.817   0.754   9.626
 1141SOL     OW 4309   0.491   1.418   9.469
 1141SOL    HW1 4310   0.414   1.389   9.518
 1141SOL    HW2 4311   0.476   1.389   9.379
 1142SOL     OW 4312   1.671   1.265   9.955
 1142SOL    HW1 4313   1.766   1.268   9.969
 1142SOL    HW2 4314   1.640   1.353   9.977
 1143SOL     OW 4315   1.394   0.571   9.380
 1143SOL    HW1 4316   1.333   0.555   9.451
 1143SOL    HW2 4317   1.480   0.553   9.418
 1144SOL     OW 4318   0.521   0.264   9.630
 1144SOL    HW1 4319   0.570   0.215   9.565
 1144SOL    HW2 4320   0.505   0.349   9.590
 1145SOL     OW 4321   1.760   1.229  10.869
 1145SOL    HW1 4322   1.852   1.202  10.866
 1145SOL    HW2 4323   1.763   1.317  10.907
 1146SOL     OW 4324   1.063   1.353  10.649
 1146SOL    HW1 4325   0.985   1.321  10.694
 1146SOL    HW2 4326   1.135   1.306  10.689
 1147SOL     OW 4327   1.130   1.207  10.415
 1147SOL    HW1 4328   1.064   1.241  10.476
 1147SOL    HW2 4329   1.099   1.235  10.329
 1148SOL     OW 4330   1.629   1.098  10.387
 1148SOL    HW1 4331   1.625   1.160  10.460
 1148SOL    HW2 4332   1.550   1.116  10.337
 1149SOL     OW 4333   0.897   0.127  10.696
 1149SOL    HW1 4334   0.924   0.089  10.613
 1149SOL    HW2 4335   0.978   0.149  10.741
 1150SOL     OW 4336   0.709   1.061   9.682
 1150SOL    HW1 4337   0.696   1.045   9.776
 1150SOL    HW2 4338   0.784   1.008   9.658
 1151SOL     OW 4339   0.428   0.826  10.552
 1151SOL    HW1 4340   0.496   0.833  10.619
 1151SOL    HW2 4341   0.370   0.757  10.585
 1152SOL     OW 4342   1.271   0.382  10.582
 1152SOL    HW1 4343   1.301   0.459  10.630
 1152SOL    HW2 4344   1.181   0.404  10.555
 1153SOL     OW 4345   0.064   1.579  10.658
 1153SOL    HW1 4346   0.040   1.665  10.624
 1153SOL    HW2 4347   0.160   1.579  10.659
 1154SOL     OW 4348   0.345   1.109   9.803
 1154SOL    HW1 4349   0.356   1.183   9.743
 1154SOL    HW2 4350   0.346   1.032   9.747
 1155SOL     OW 4351   0.563   0.525  10.162
 1155SOL    HW1 4352   0.575   0.586  10.090
 1155SOL    HW2 4353   0.623   0.556  10.230
 1156SOL     OW 4354   1.248   1.348   9.699
 1156SOL    HW1 4355   1.304   1.420   9.730
 1156SOL    HW2 4356   1.161   1.369   9.733
 1157SOL     OW 4357   1.280   1.459  10.455
 1157SOL    HW1 4358   1.338   1.462  10.531
 1157SOL    HW2 4359   1.227   1.380  10.468
 1158SOL     OW 4360   1.581   0.623   9.787
 1158SOL    HW1 4361   1.534   0.673   9.854
 1158SOL    HW2 4362   1.626   0.690   9.735
 1159SOL     OW 4363   0.346   1.528  10.624
 1159SOL    HW1 4364   0.333   1.482  10.541
 1159SOL    HW2 4365   0.440   1.541  10.630
 1160SOL     OW 4366   0.492   0.748  10.974
 1160SOL    HW1 4367   0.525   0.784  10.891
 1160SOL    HW2 4368   0.533   0.662  10.980
 1161SOL     OW 4369   1.595   0.758  10.969
 1161SOL    HW1 4370   1.518   0.815  10.963
 1161SOL    HW2 4371   1.665   0.808  10.925
 1162SOL     OW 4372   0.589   0.875  10.334
 1162SOL    HW1 4373   0.619   0.965  10.337
 1162SOL    HW2 4374   0.533   0.865  10.411
 1163SOL     OW 4375   1.357   0.860  10.343
 1163SOL    HW1 4376   1.274   0.851  10.296
 1163SOL    HW2 4377   1.399   0.775  10.336
 1164SOL     OW 4378   1.203   0.535   9.572
 1164SOL    HW1 4379   1.210   0.455   9.624
 1164SOL    HW2 4380   1.160   0.598   9.630
 1165SOL     OW 4381   0.285   0.214  10.546
 1165SOL    HW1 4382   0.252   0.232  10.634
 1165SOL    HW2 4383   0.323   0.127  10.552
 1166SOL     OW 4384   0.038   1.315  10.595
 1166SOL    HW1 4385   0.074   1.266  10.669
 1166SOL    HW2 4386   0.042   1.407  10.624
 1167SOL     OW 4387   0.723   0.631  10.367
 1167SOL    HW1 4388   0.798   0.611  10.310
 1167SOL    HW2 4389   0.697   0.720  10.342
 1168SOL     OW 4390   0.320   0.074   9.941
 1168SOL    HW1 4391   0.303   0.163   9.972
 1168SOL    HW2 4392   0.309   0.019  10.018
 1169SOL     OW 4393   1.616   0.379   9.672
 1169SOL    HW1 4394   1.643   0.314   9.737
 1169SOL    HW2 4395   1.592   0.456   9.723
 1170SOL     OW 4396   1.029   0.762  10.271
 1170SOL    HW1 4397   1.025   0.778  10.365
 1170SOL    HW2 4398   1.000   0.671  10.261
 1171SOL     OW 4399   0.972   1.572  11.004
 1171SOL    HW1 4400   0.958   1.623  10.924
 1171SOL    HW2 4401   1.005   1.487  10.973
 1172SOL     OW 4402   1.859   1.491  10.913
 1172SOL    HW1 4403   1.871   1.526  10.824
 1172SOL    HW2 4404   1.919   1.541  10.967
 1173SOL     OW 4405   0.348   0.935  11.093
 1173SOL    HW1 4406   0.420   0.964   0.048
 1173SOL    HW2 4407   0.384   0.862  11.042
 1174SOL     OW 4408   1.530   0.264   9.438
 1174SOL    HW1 4409   1.459   0.208   9.468
 1174SOL    HW2 4410   1.560   0.310   9.517
 1175SOL     OW 4411   1.291   0.826   9.340
 1175SOL    HW1 4412   1.333   0.740   9.343
 1175SOL    HW2 4413   1.323   0.866   9.259
 1176SOL     OW 4414   1.066   1.335  10.164
 1176SOL    HW1 4415   1.069   1.263  10.101
 1176SOL    HW2 4416   1.127   1.400  10.129
 1177SOL     OW 4417   0.318   0.812  10.257
 1177SOL    HW1 4418   0.412   0.829  10.254
 1177SOL    HW2 4419   0.311   0.721  10.286
 1178SOL     OW 4420   0.334   0.530  10.300
 1178SOL    HW1 4421   0.290   0.447  10.282
 1178SOL    HW2 4422   0.412   0.528  10.244
 1179SOL     OW 4423   1.147   0.218  10.768
 1179SOL    HW1 4424   1.175   0.256  10.851
 1179SOL    HW2 4425   1.192   0.270  10.701
 1180SOL     OW 4426   4.491   1.322   9.516
 1180SOL    HW1 4427   4.399   1.338   9.498
 1180SOL    HW2 4428   4.496   1.229   9.537
 1181SOL     OW 4429   0.097   1.774  10.249
 1181SOL    HW1 4430   0.059   1.723  10.178
 1181SOL    HW2 4431   0.185   1.797  10.219
 1182SOL     OW 4432   0.496   1.574  10.217
 1182SOL    HW1 4433   0.565   1.637  10.240
 1182SOL    HW2 4434   0.540   1.511  10.159
 1183SOL     OW 4435   0.983   0.795  10.537
 1183SOL    HW1 4436   1.038   0.772  10.612
 1183SOL    HW2 4437   0.899   0.753  10.556
 1184SOL     OW 4438   0.033   0.565  10.416
 1184SOL    HW1 4439   0.113   0.527  10.379
 1184SOL    HW2 4440   0.018   0.515  10.496
 1185SOL     OW 4441   0.811   0.574   9.666
 1185SOL    HW1 4442   0.815   0.503   9.602
 1185SOL    HW2 4443   0.739   0.629   9.636
 1186SOL     OW 4444   1.640   0.601  10.495
 1186SOL    HW1 4445   1.631   0.544  10.571
 1186SOL    HW2 4446   1.728   0.582  10.461
 1187SOL     OW 4447   0.262   1.575  11.054
 1187SOL    HW1 4448   0.208   1.598   0.030
 1187SOL    HW2 4449   0.246   1.481  11.041
 1188SOL     OW 4450   0.695   0.461  10.575
 1188SOL    HW1 4451   0.650   0.383  10.543
 1188SOL    HW2 4452   0.697   0.521  10.500
 1189SOL     OW 4453   0.939   1.682  10.757
 1189SOL    HW1 4454   0.903   1.648  10.676
 1189SOL    HW2 4455   0.924   1.777  10.753
 1190SOL     OW 4456   0.472   0.491   9.492
 1190SOL    HW1 4457   0.532   0.561   9.516
 1190SOL    HW2 4458   0.389   0.534   9.477
 1191SOL     OW 4459   0.163   1.142  10.768
 1191SOL    HW1 4460   0.138   1.103  10.851
 1191SOL    HW2 4461   0.168   1.069  10.707
 1192SOL     OW 4462   1.324   1.052  10.538
 1192SOL    HW1 4463   1.350   0.987  10.473
 1192SOL    HW2 4464   1.254   1.102  10.495
 1193SOL     OW 4465   1.312   0.856   9.616
 1193SOL    HW1 4466   1.237   0.827   9.667
 1193SOL    HW2 4467   1.286   0.843   9.525
 1194SOL     OW 4468   1.764   1.746  10.457
 1194SOL    HW1 4469   1.832   1.771  10.394
 1194SOL    HW2 4470   1.747   1.654  10.437
 1195SOL     OW 4471   1.241   1.734  10.422
 1195SOL    HW1 4472   1.323   1.755  10.379
 1195SOL    HW2 4473   1.247   1.640  10.440
 1196SOL     OW 4474   0.067   1.185  10.360
 1196SOL    HW1 4475   0.065   1.217  10.450
 1196SOL    HW2 4476   0.024   1.254  10.309
 1197SOL     OW 4477   1.718   0.129   9.802
 1197SOL    HW1 4478   1.789   0.139   9.738
 1197SOL    HW2 4479   1.747   0.058   9.859
 1198SOL     OW 4480   1.390   1.567   9.796
 1198SOL    HW1 4481   1.449   1.600   9.728
 1198SOL    HW2 4482   1.341   1.645   9.824
 1199SOL     OW 4483   1.279   0.928   9.983
 1199SOL    HW1 4484   1.351   0.866   9.988
 1199SOL    HW2 4485   1.312   1.000   9.930
 1200SOL     OW 4486   0.817   1.274  10.738
 1200SOL    HW1 4487   0.787   1.308  10.821
 1200SOL    HW2 4488   0.748   1.296  10.676
 1201SOL     OW 4489   0.672   1.620   9.465
 1201SOL    HW1 4490   0.682   1.632   9.371
 1201SOL    HW2 4491   0.617   1.542   9.474
 1202SOL     OW 4492   1.619   1.720  10.695
 1202SOL    HW1 4493   1.674   1.735  10.618
 1202SOL    HW2 4494   1.603   1.807  10.731
 1203SOL     OW 4495   1.839   0.154  10.276
 1203SOL    HW1 4496   1.868   0.076  10.230
 1203SOL    HW2 4497   1.752   0.173  10.240
 1204SOL     OW 4498   0.263   0.325  10.032
 1204SOL    HW1 4499   0.179   0.359  10.000
 1204SOL    HW2 4500   0.249   0.315  10.127
 1205SOL     OW 4501   1.207   1.606   9.342
 1205SOL    HW1 4502   1.198   1.514   9.368
 1205SOL    HW2 4503   1.142   1.618   9.272
 1206SOL     OW 4504   0.826   1.006  10.686
 1206SOL    HW1 4505   0.869   0.998  10.601
 1206SOL    HW2 4506   0.826   1.100  10.705
 1207SOL     OW 4507   0.915   0.910   9.600
 1207SOL    HW1 4508   0.977   0.942   9.534
 1207SOL    HW2 4509   0.963   0.841   9.645
 1208SOL     OW 4510   1.492   1.626   9.352
 1208SOL    HW1 4511   1.397   1.619   9.338
 1208SOL    HW2 4512   1.529   1.631   9.264
 1209SOL     OW 4513   0.367   1.313  10.807
 1209SOL    HW1 4514   0.354   1.387  10.747
 1209SOL    HW2 4515   0.296   1.252  10.785
 1210SOL     OW 4516   1.612   1.281  10.592
 1210SOL    HW1 4517   1.670   1.269  10.667
 1210SOL    HW2 4518   1.555   1.354  10.618
 1211SOL     OW 4519   1.052   1.107  10.016
 1211SOL    HW1 4520   0.982   1.056  10.055
 1211SOL    HW2 4521   1.115   1.042   9.986
 1212SOL     OW 4522   1.005   0.245  10.316
 1212SOL    HW1 4523   1.010   0.223  10.223
 1212SOL    HW2 4524   0.997   0.160  10.360
 1213SOL     OW 4525   0.605   1.489   9.792
 1213SOL    HW1 4526   0.647   1.439   9.722
 1213SOL    HW2 4527   0.530   1.531   9.750
 1214SOL     OW 4528   1.719   0.394  10.690
 1214SOL    HW1 4529   1.792   0.456  10.692
 1214SOL    HW2 4530   1.748   0.324  10.631
 1215SOL     OW 4531   0.252   1.344   9.586
 1215SOL    HW1 4532   0.157   1.342   9.572
 1215SOL    HW2 4533   0.263   1.376   9.675
 1216SOL     OW 4534   0.110   1.020  11.003
 1216SOL    HW1 4535   0.054   1.026  11.080
 1216SOL    HW2 4536   0.197   1.000  11.038
 1217SOL     OW 4537   0.654   0.198  10.803
 1217SOL    HW1 4538   0.733   0.172  10.755
 1217SOL    HW2 4539   0.687   0.226  10.889
 1218SOL     OW 4540   0.072   0.320   9.336
 1218SOL    HW1 4541   4.478   0.328   9.351
 1218SOL    HW2 4542   0.098   0.407   9.305
 1219SOL     OW 4543   1.429   0.849  10.709
 1219SOL    HW1 4544   1.381   0.918  10.662
 1219SOL    HW2 4545   1.519   0.858  10.678
 1220SOL     OW 4546   0.085   0.188   9.612
 1220SOL    HW1 4547   0.076   0.261   9.551
 1220SOL    HW2 4548   0.165   0.143   9.585
 1221SOL     OW 4549   1.179   1.339   9.427
 1221SOL    HW1 4550   1.088   1.309   9.429
 1221SOL    HW2 4551   1.206   1.339   9.518
 1222SOL     OW 4552   0.624   0.828  10.740
 1222SOL    HW1 4553   0.679   0.905  10.726
 1222SOL    HW2 4554   0.687   0.756  10.746
 1223SOL     OW 4555   1.485   1.777  10.290
 1223SOL    HW1 4556   1.509   1.838  10.220
 1223SOL    HW2 4557   1.567   1.759  10.335
 1224SOL     OW 4558   0.712   0.563  11.014
 1224SOL    HW1 4559   0.750   0.633  11.067
 1224SOL    HW2 4560   0.759   0.484  11.042
 1225SOL     OW 4561   0.383   1.739  10.873
 1225SOL    HW1 4562   0.306   1.796  10.865
 1225SOL    HW2 4563   0.355   1.670  10.933
 1226SOL     OW 4564   1.671   0.882  10.567
 1226SOL    HW1 4565   1.662   0.797  10.524
 1226SOL    HW2 4566   1.661   0.946  10.496
 1227SOL     OW 4567   1.218   0.330   9.757
 1227SOL    HW1 4568   1.284   0.262   9.746
 1227SOL    HW2 4569   1.246   0.378   9.836
 1228SOL     OW 4570   0.587   0.737   9.981
 1228SOL    HW1 4571   0.627   0.823   9.965
 1228SOL    HW2 4572   0.520   0.730   9.913
 1229SOL     OW 4573   1.749   0.312  10.953
 1229SOL    HW1 4574   1.732   0.352  10.867
 1229SOL    HW2 4575   1.672   0.334  11.005
 1230SOL     OW 4576   1.749   0.936  10.826
 1230SOL    HW1 4577   1.742   1.030  10.840
 1230SOL    HW2 4578   1.731   0.924  10.732
 1231SOL     OW 4579   0.863   1.367   9.345
 1231SOL    HW1 4580   0.824   1.394   9.427
 1231SOL    HW2 4581   0.880   1.449   9.298
 1232SOL     OW 4582   0.661   1.791  10.255
 1232SOL    HW1 4583   0.640   1.882  10.231
 1232SOL    HW2 4584   0.756   1.785  10.246
 1233SOL     OW 4585   0.868   0.968  10.165
 1233SOL    HW1 4586   0.917   0.895  10.203
 1233SOL    HW2 4587   0.833   1.015  10.240
 1234SOL     OW 4588   1.079   0.989   9.399
 1234SOL    HW1 4589   1.057   1.039   9.321
 1234SOL    HW2 4590   1.154   0.935   9.372
 1235SOL     OW 4591   1.854   1.552  10.152
 1235SOL    HW1 4592   1.772   1.542  10.103
 1235SOL    HW2 4593   1.845   1.492  10.226
 1236SOL     OW 4594   0.108   1.235   9.978
 1236SOL    HW1 4595   0.121   1.189  10.061
 1236SOL    HW2 4596   0.167   1.191   9.917
 1237SOL     OW 4597   0.681   1.396  10.940
 1237SOL    HW1 4598   0.608   1.345  10.977
 1237SOL    HW2 4599   0.645   1.484  10.930
 1238SOL     OW 4600   1.801   0.179  10.549
 1238SOL    HW1 4601   1.816   0.087  10.569
 1238SOL    HW2 4602   1.819   0.186  10.455
 1239SOL     OW 4603   0.441   0.431   9.842
 1239SOL    HW1 4604   0.457   0.361   9.779
 1239SOL    HW2 4605   0.381   0.392   9.906
 1240SOL     OW 4606   1.704   1.487  10.402
 1240SOL    HW1 4607   1.621   1.463  10.361
 1240SOL    HW2 4608   1.718   1.421  10.470
 1241SOL     OW 4609   0.305   0.507  10.565
 1241SOL    HW1 4610   0.372   0.455  10.610
 1241SOL    HW2 4611   0.337   0.513  10.475
 1242SOL     OW 4612   0.828   1.578   9.988
 1242SOL    HW1 4613   0.815   1.632   9.910
 1242SOL    HW2 4614   0.751   1.521   9.990
 1243SOL     OW 4615   1.431   0.215  10.428
 1243SOL    HW1 4616   1.470   0.148  10.483
 1243SOL    HW2 4617   1.382   0.270  10.490
 1244SOL     OW 4618   0.995   0.007  10.460
 1244SOL    HW1 4619   0.954   4.421  10.450
 1244SOL    HW2 4620   1.088   4.488  10.472
 1245SOL     OW 4621   0.772   1.333   9.624
 1245SOL    HW1 4622   0.741   1.242   9.631
 1245SOL    HW2 4623   0.854   1.334   9.674
 1246SOL     OW 4624   0.620   1.555  10.597
 1246SOL    HW1 4625   0.621   1.638  10.644
 1246SOL    HW2 4626   0.707   1.549  10.557
 1247SOL     OW 4627   1.340   0.052   9.464
 1247SOL    HW1 4628   1.379   4.477   9.420
 1247SOL    HW2 4629   1.264   0.017   9.511
 1248SOL     OW 4630   1.314   0.463   9.986
 1248SOL    HW1 4631   1.256   0.538   9.987
 1248SOL    HW2 4632   1.303   0.422  10.072
 1249SOL     OW 4633   1.585   0.200  10.178
 1249SOL    HW1 4634   1.526   0.215  10.251
 1249SOL    HW2 4635   1.588   0.283  10.132
 1250SOL     OW 4636   0.041   1.051   9.598
 1250SOL    HW1 4637   0.135   1.034   9.588
 1250SOL    HW2 4638   0.021   1.020   9.687
 1251SOL     OW 4639   0.885   1.653   9.652
 1251SOL    HW1 4640   0.812   1.636   9.592
 1251SOL    HW2 4641   0.855   1.728   9.704
 1252SOL     OW 4642   0.241   2.457   0.107
 1252SOL    HW1 4643   0.168   2.452   0.169
 1252SOL    HW2 4644   0.204   2.502   0.031
 1253SOL     OW 4645   0.212   2.137   0.992
 1253SOL    HW1 4646   0.249   2.110   1.076
 1253SOL    HW2 4647   0.137   2.079   0.978
 1254SOL     OW 4648   0.008   2.254   0.638
 1254SOL    HW1 4649   4.428   2.285   0.679
 1254SOL    HW2 4650   4.484   2.171   0.596
 1255SOL     OW 4651   0.568   3.150   1.176
 1255SOL    HW1 4652   0.481   3.154   1.137
 1255SOL    HW2 4653   0.583   3.237   1.211
 1256SOL     OW 4654   1.561   3.374   0.707
 1256SOL    HW1 4655   1.518   3.353   0.790
 1256SOL    HW2 4656   1.490   3.377   0.643
 1257SOL     OW 4657   1.130   2.561   0.701
 1257SOL    HW1 4658   1.180   2.641   0.687
 1257SOL    HW2 4659   1.084   2.574   0.783
 1258SOL     OW 4660   1.758   2.474   0.230
 1258SOL    HW1 4661   1.750   2.453   0.137
 1258SOL    HW2 4662   1.737   2.392   0.275
 1259SOL     OW 4663   0.755   3.004   1.041
 1259SOL    HW1 4664   0.686   3.039   1.098
 1259SOL    HW2 4665   0.791   3.081   0.996
 1260SOL     OW 4666   0.867   2.634   1.821
 1260SOL    HW1 4667   0.852   2.705   1.883
 1260SOL    HW2 4668   0.890   2.679   1.740
 1261SOL     OW 4669   0.685   2.865   0.647
 1261SOL    HW1 4670   0.751   2.853   0.716
 1261SOL    HW2 4671   0.616   2.916   0.689
 1262SOL     OW 4672   0.711   3.012   1.813
 1262SOL    HW1 4673   0.758   3.091   1.840
 1262SOL    HW2 4674   0.629   3.044   1.777
 1263SOL     OW 4675   0.335   3.283   1.069
 1263SOL    HW1 4676   0.253   3.263   1.023
 1263SOL    HW2 4677   0.385   3.337   1.008
 1264SOL     OW 4678   1.461   3.361   1.355
 1264SOL    HW1 4679   1.511   3.442   1.364
 1264SOL    HW2 4680   1.397   3.363   1.427
 1265SOL     OW 4681   0.445   2.266   1.491
 1265SOL    HW1 4682   0.525   2.213   1.496
 1265SOL    HW2 4683   0.374   2.203   1.497
 1266SOL     OW 4684   1.597   2.313   0.747
 1266SOL    HW1 4685   1.523   2.335   0.691
 1266SOL    HW2 4686   1.615   2.393   0.796
 1267SOL     OW 4687   0.245   3.553   0.482
 1267SOL    HW1 4688   0.232   3.640   0.520
 1267SOL    HW2 4689   0.306   3.568   0.410
 1268SOL     OW 4690   1.136   3.203   1.693
 1268SOL    HW1 4691   1.176   3.199   1.780
 1268SOL    HW2 4692   1.084   3.124   1.686
 1269SOL     OW 4693   0.246   3.289   0.528
 1269SOL    HW1 4694   0.240   3.384   0.528
 1269SOL    HW2 4695   0.181   3.261   0.593
 1270SOL     OW 4696   0.248   2.944   0.885
 1270SOL    HW1 4697   0.264   2.854   0.912
 1270SOL    HW2 4698   0.188   2.979   0.950
 1271SOL     OW 4699   0.614   3.653   1.432
 1271SOL    HW1 4700   0.530   3.635   1.475
 1271SOL    HW2 4701   0.634   3.743   1.456
 1272SOL     OW 4702   0.570   2.857   0.149
 1272SOL    HW1 4703   0.620   2.895   0.076
 1272SOL    HW2 4704   0.619   2.883   0.227
 1273SOL     OW 4705   1.594   1.983   1.472
 1273SOL    HW1 4706   1.605   2.060   1.416
 1273SOL    HW2 4707   1.581   2.019   1.560
 1274SOL     OW 4708   0.136   2.509   0.573
 1274SOL    HW1 4709   0.089   2.427   0.592
 1274SOL    HW2 4710   0.107   2.570   0.641
 1275SOL     OW 4711   1.843   3.621   0.333
 1275SOL    HW1 4712   1.907   3.592   0.397
 1275SOL    HW2 4713   1.868   3.712   0.314
 1276SOL     OW 4714   0.075   3.452   0.151
 1276SOL    HW1 4715   0.040   3.363   0.158
 1276SOL    HW2 4716   0.025   3.502   0.215
 1277SOL     OW 4717   1.690   2.780   0.641
 1277SOL    HW1 4718   1.771   2.736   0.617
 1277SOL    HW2 4719   1.667   2.832   0.564
 1278SOL     OW 4720   1.646   2.967   0.432
 1278SOL    HW1 4721   1.728   2.977   0.385
 1278SOL    HW2 4722   1.651   3.029   0.504
 1279SOL     OW 4723   0.111   2.626   1.583
 1279SOL    HW1 4724   0.202   2.623   1.552
 1279SOL    HW2 4725   0.095   2.718   1.602
 1280SOL     OW 4726   0.614   3.248   0.736
 1280SOL    HW1 4727   0.567   3.165   0.746
 1280SOL    HW2 4728   0.597   3.275   0.646
 1281SOL     OW 4729   1.289   3.100   1.423
 1281SOL    HW1 4730   1.321   3.033   1.363
 1281SOL    HW2 4731   1.346   3.094   1.499
 1282SOL     OW 4732   0.817   1.863   0.509
 1282SOL    HW1 4733   0.855   1.949   0.491
 1282SOL    HW2 4734   0.723   1.880   0.517
 1283SOL     OW 4735   0.179   2.802   1.280
 1283SOL    HW1 4736   0.271   2.784   1.259
 1283SOL    HW2 4737   0.133   2.789   1.196
 1284SOL     OW 4738   1.516   2.865   0.203
 1284SOL    HW1 4739   1.453   2.802   0.238
 1284SOL    HW2 4740   1.567   2.893   0.279
 1285SOL     OW 4741   1.187   3.669   1.622
 1285SOL    HW1 4742   1.196   3.727   1.547
 1285SOL    HW2 4743   1.202   3.581   1.587
 1286SOL     OW 4744   0.331   2.118   1.799
 1286SOL    HW1 4745   0.380   2.192   1.836
 1286SOL    HW2 4746   0.244   2.125   1.837
 1287SOL     OW 4747   1.467   3.281   0.952
 1287SOL    HW1 4748   1.398   3.296   1.017
 1287SOL    HW2 4749   1.454   3.190   0.924
 1288SOL     OW 4750   1.658   3.602   0.579
 1288SOL    HW1 4751   1.639   3.573   0.490
 1288SOL    HW2 4752   1.633   3.528   0.634
 1289SOL     OW 4753   0.595   2.580   0.265
 1289SOL    HW1 4754   0.599   2.662   0.216
 1289SOL    HW2 4755   0.533   2.597   0.335
 1290SOL     OW 4756   1.277   2.217   0.933
 1290SOL    HW1 4757   1.189   2.182   0.942
 1290SOL    HW2 4758   1.330   2.163   0.993
 1291SOL     OW 4759   1.582   3.532   0.312
 1291SOL    HW1 4760   1.673   3.563   0.305
 1291SOL    HW2 4761   1.556   3.514   0.222
 1292SOL     OW 4762   0.794   2.478   1.451
 1292SOL    HW1 4763   0.767   2.454   1.540
 1292SOL    HW2 4764   0.751   2.413   1.395
 1293SOL     OW 4765   1.394   2.336   1.677
 1293SOL    HW1 4766   1.396   2.380   1.762
 1293SOL    HW2 4767   1.455   2.263   1.686
 1294SOL     OW 4768   0.955   2.749   1.582
 1294SOL    HW1 4769   1.009   2.679   1.547
 1294SOL    HW2 4770   0.908   2.784   1.507
 1295SOL     OW 4771   0.993   2.276   1.238
 1295SOL    HW1 4772   0.908   2.296   1.276
 1295SOL    HW2 4773   0.972   2.228   1.158
 1296SOL     OW 4774   1.051   2.564   0.427
 1296SOL    HW1 4775   1.067   2.555   0.521
 1296SOL    HW2 4776   0.968   2.517   0.413
 1297SOL     OW 4777   0.097   2.689   0.784
 1297SOL    HW1 4778   0.183   2.674   0.823
 1297SOL    HW2 4779   0.041   2.715   0.858
 1298SOL     OW 4780   0.124   3.716   1.576
 1298SOL    HW1 4781   0.117   3.694   1.669
 1298SOL    HW2 4782   0.045   3.681   1.537
 1299SOL     OW 4783   0.890   2.217   0.209
 1299SOL    HW1 4784   0.935   2.273   0.147
 1299SOL    HW2 4785   0.902   2.128   0.175
 1300SOL     OW 4786   1.710   2.440   1.831
 1300SOL    HW1 4787   1.671   2.510   1.779
 1300SOL    HW2 4788   1.737   2.374   1.767
 1301SOL     OW 4789   1.377   3.004   0.542
 1301SOL    HW1 4790   1.455   2.990   0.488
 1301SOL    HW2 4791   1.324   3.066   0.492
 1302SOL     OW 4792   0.552   2.043   0.893
 1302SOL    HW1 4793   0.554   2.075   0.984
 1302SOL    HW2 4794   0.552   2.123   0.840
 1303SOL     OW 4795   1.005   3.306   0.474
 1303SOL    HW1 4796   0.968   3.379   0.424
 1303SOL    HW2 4797   0.985   3.327   0.565
 1304SOL     OW 4798   0.356   3.673   0.860
 1304SOL    HW1 4799   0.397   3.587   0.869
 1304SOL    HW2 4800   0.426   3.735   0.874
 1305SOL     OW 4801   1.799   2.917   0.868
 1305SOL    HW1 4802   1.745   2.900   0.791
 1305SOL    HW2 4803   1.737   2.924   0.940
 1306SOL     OW 4804   1.228   3.400   1.513
 1306SOL    HW1 4805   1.214   3.328   1.574
 1306SOL    HW2 4806   1.164   3.386   1.443
 1307SOL     OW 4807   0.312   2.818   0.279
 1307SOL    HW1 4808   0.395   2.845   0.240
 1307SOL    HW2 4809   0.309   2.723   0.264
 1308SOL     OW 4810   1.478   2.605   0.727
 1308SOL    HW1 4811   1.469   2.563   0.813
 1308SOL    HW2 4812   1.556   2.660   0.735
 1309SOL     OW 4813   0.468   3.125   1.735
 1309SOL    HW1 4814   0.441   3.131   1.643
 1309SOL    HW2 4815   0.386   3.128   1.785
 1310SOL     OW 4816   1.108   3.641   0.227
 1310SOL    HW1 4817   1.047   3.590   0.281
 1310SOL    HW2 4818   1.149   3.576   0.170
 1311SOL     OW 4819   0.196   2.139   1.485
 1311SOL    HW1 4820   0.138   2.214   1.492
 1311SOL    HW2 4821   0.183   2.091   1.567
 1312SOL     OW 4822   1.628   3.236   0.089
 1312SOL    HW1 4823   1.585   3.321   0.077
 1312SOL    HW2 4824   1.562   3.173   0.060
 1313SOL     OW 4825   0.469   3.604   0.317
 1313SOL    HW1 4826   0.508   3.660   0.383
 1313SOL    HW2 4827   0.543   3.573   0.264
 1314SOL     OW 4828   1.400   1.969   0.431
 1314SOL    HW1 4829   1.390   1.947   0.338
 1314SOL    HW2 4830   1.494   1.979   0.443
 1315SOL     OW 4831   0.260   3.655   1.230
 1315SOL    HW1 4832   0.305   3.580   1.268
 1315SOL    HW2 4833   0.225   3.623   1.147
 1316SOL     OW 4834   0.938   3.561   0.898
 1316SOL    HW1 4835   1.015   3.508   0.920
 1316SOL    HW2 4836   0.894   3.511   0.829
 1317SOL     OW 4837   0.393   2.557   0.469
 1317SOL    HW1 4838   0.417   2.465   0.483
 1317SOL    HW2 4839   0.302   2.562   0.499
 1318SOL     OW 4840   1.536   2.089   1.727
 1318SOL    HW1 4841   1.546   2.109   1.820
 1318SOL    HW2 4842   1.469   2.021   1.724
 1319SOL     OW 4843   0.615   1.968   0.123
 1319SOL    HW1 4844   0.705   1.936   0.122
 1319SOL    HW2 4845   0.582   1.951   0.035
 1320SOL     OW 4846   0.767   2.140   1.755
 1320SOL    HW1 4847   0.843   2.082   1.755
 1320SOL    HW2 4848   0.718   2.116   1.834
 1321SOL     OW 4849   0.877   3.385   1.193
 1321SOL    HW1 4850   0.860   3.348   1.107
 1321SOL    HW2 4851   0.946   3.329   1.230
 1322SOL     OW 4852   1.340   2.451   1.432
 1322SOL    HW1 4853   1.371   2.419   1.517
 1322SOL    HW2 4854   1.377   2.539   1.425
 1323SOL     OW 4855   0.816   3.257   0.940
 1323SOL    HW1 4856   0.899   3.245   0.895
 1323SOL    HW2 4857   0.751   3.258   0.869
 1324SOL     OW 4858   0.927   2.371   0.903
 1324SOL    HW1 4859   0.904   2.363   0.811
 1324SOL    HW2 4860   0.959   2.284   0.928
 1325SOL     OW 4861   0.553   1.923   0.504
 1325SOL    HW1 4862   0.471   1.921   0.553
 1325SOL    HW2 4863   0.547   2.002   0.450
 1326SOL     OW 4864   1.425   3.059   0.029
 1326SOL    HW1 4865   1.456   2.987   0.084
 1326SOL    HW2 4866   1.342   3.085   0.069
 1327SOL     OW 4867   0.286   1.911   0.192
 1327SOL    HW1 4868   0.335   1.961   0.126
 1327SOL    HW2 4869   0.349   1.846   0.223
 1328SOL     OW 4870   0.940   2.108   0.462
 1328SOL    HW1 4871   0.911   2.153   0.383
 1328SOL    HW2 4872   1.034   2.124   0.466
 1329SOL     OW 4873   1.080   2.543   1.459
 1329SOL    HW1 4874   1.012   2.476   1.464
 1329SOL    HW2 4875   1.162   2.493   1.452
 1330SOL     OW 4876   1.223   3.432   0.794
 1330SOL    HW1 4877   1.239   3.498   0.727
 1330SOL    HW2 4878   1.292   3.447   0.859
 1331SOL     OW 4879   0.469   3.012   0.739
 1331SOL    HW1 4880   0.398   2.993   0.800
 1331SOL    HW2 4881   0.430   3.000   0.652
 1332SOL     OW 4882   1.269   3.656   0.607
 1332SOL    HW1 4883   1.316   3.717   0.551
 1332SOL    HW2 4884   1.203   3.710   0.651
 1333SOL     OW 4885   1.011   2.398   0.040
 1333SOL    HW1 4886   0.978   2.486   0.020
 1333SOL    HW2 4887   1.092   2.413   0.089
 1334SOL     OW 4888   0.083   2.389   1.410
 1334SOL    HW1 4889   0.147   2.386   1.339
 1334SOL    HW2 4890   0.068   2.483   1.424
 1335SOL     OW 4891   0.560   2.090   1.166
 1335SOL    HW1 4892   0.603   2.011   1.200
 1335SOL    HW2 4893   0.469   2.081   1.193
 1336SOL     OW 4894   0.868   2.322   0.640
 1336SOL    HW1 4895   0.823   2.376   0.575
 1336SOL    HW2 4896   0.888   2.240   0.594
 1337SOL     OW 4897   1.015   1.916   0.751
 1337SOL    HW1 4898   0.957   1.908   0.676
 1337SOL    HW2 4899   0.994   1.840   0.806
 1338SOL     OW 4900   1.437   3.024   0.857
 1338SOL    HW1 4901   1.368   2.959   0.855
 1338SOL    HW2 4902   1.462   3.036   0.765
 1339SOL     OW 4903   1.465   2.469   0.978
 1339SOL    HW1 4904   1.414   2.387   0.979
 1339SOL    HW2 4905   1.523   2.461   1.053
 1340SOL     OW 4906   1.854   2.678   0.381
 1340SOL    HW1 4907   1.904   2.623   0.441
 1340SOL    HW2 4908   1.815   2.616   0.319
 1341SOL     OW 4909   0.495   3.285   0.174
 1341SOL    HW1 4910   0.415   3.260   0.221
 1341SOL    HW2 4911   0.490   3.235   0.092
 1342SOL     OW 4912   1.670   3.126   0.648
 1342SOL    HW1 4913   1.765   3.130   0.659
 1342SOL    HW2 4914   1.640   3.215   0.667
 1343SOL     OW 4915   1.388   2.438   0.078
 1343SOL    HW1 4916   1.330   2.416   0.150
 1343SOL    HW2 4917   1.461   2.377   0.086
 1344SOL     OW 4918   0.529   2.125   0.327
 1344SOL    HW1 4919   0.556   2.065   0.258
 1344SOL    HW2 4920   0.510   2.208   0.282
 1345SOL     OW 4921   1.752   3.101   1.573
 1345SOL    HW1 4922   1.840   3.063   1.566
 1345SOL    HW2 4923   1.767   3.191   1.602
 1346SOL     OW 4924   1.058   3.216   1.334
 1346SOL    HW1 4925   0.983   3.185   1.385
 1346SOL    HW2 4926   1.134   3.174   1.375
 1347SOL     OW 4927   1.608   3.488   1.654
 1347SOL    HW1 4928   1.602   3.522   1.565
 1347SOL    HW2 4929   1.691   3.440   1.656
 1348SOL     OW 4930   1.130   3.066   1.105
 1348SOL    HW1 4931   1.069   3.103   1.170
 1348SOL    HW2 4932   1.097   3.098   1.021
 1349SOL     OW 4933   1.628   2.960   1.077
 1349SOL    HW1 4934   1.623   3.022   1.150
 1349SOL    HW2 4935   1.549   2.977   1.025
 1350SOL     OW 4936   0.917   1.960   1.396
 1350SOL    HW1 4937   0.940   1.940   1.305
 1350SOL    HW2 4938   0.997   1.998   1.433
 1351SOL     OW 4939   0.984   2.976   1.723
 1351SOL    HW1 4940   0.892   2.992   1.745
 1351SOL    HW2 4941   0.983   2.898   1.667
 1352SOL     OW 4942   0.711   2.922   0.374
 1352SOL    HW1 4943   0.697   2.906   0.468
 1352SOL    HW2 4944   0.786   2.868   0.351
 1353SOL     OW 4945   0.430   2.688   1.242
 1353SOL    HW1 4946   0.500   2.700   1.307
 1353SOL    HW2 4947   0.373   2.622   1.281
 1354SOL     OW 4948   1.266   2.238   1.275
 1354SOL    HW1 4949   1.298   2.316   1.321
 1354SOL    HW2 4950   1.176   2.260   1.252
 1355SOL     OW 4951   0.063   3.438   1.343
 1355SOL    HW1 4952   0.036   3.528   1.322
 1355SOL    HW2 4953   0.158   3.443   1.348
 1356SOL     OW 4954   0.347   2.980   0.499
 1356SOL    HW1 4955   0.350   3.054   0.439
 1356SOL    HW2 4956   0.340   2.903   0.443
 1357SOL     OW 4957   0.560   2.395   0.855
 1357SOL    HW1 4958   0.574   2.455   0.782
 1357SOL    HW2 4959   0.622   2.425   0.922
 1358SOL     OW 4960   1.247   3.208   0.395
 1358SOL    HW1 4961   1.303   3.281   0.423
 1358SOL    HW2 4962   1.160   3.232   0.427
 1359SOL     OW 4963   1.281   3.320   1.147
 1359SOL    HW1 4964   1.336   3.321   1.225
 1359SOL    HW2 4965   1.225   3.243   1.158
 1360SOL     OW 4966   1.581   2.483   0.480
 1360SOL    HW1 4967   1.534   2.537   0.543
 1360SOL    HW2 4968   1.618   2.545   0.417
 1361SOL     OW 4969   0.346   3.395   1.314
 1361SOL    HW1 4970   0.333   3.347   1.232
 1361SOL    HW2 4971   0.441   3.404   1.321
 1362SOL     OW 4972   0.481   2.620   1.667
 1362SOL    HW1 4973   0.511   2.658   1.584
 1362SOL    HW2 4974   0.526   2.536   1.672
 1363SOL     OW 4975   1.603   2.642   1.682
 1363SOL    HW1 4976   1.516   2.682   1.675
 1363SOL    HW2 4977   1.654   2.683   1.612
 1364SOL     OW 4978   0.996   1.986   1.754
 1364SOL    HW1 4979   1.053   2.058   1.727
 1364SOL    HW2 4980   1.044   1.907   1.729
 1365SOL     OW 4981   0.497   1.904   1.747
 1365SOL    HW1 4982   0.456   1.848   1.682
 1365SOL    HW2 4983   0.438   1.979   1.755
 1366SOL     OW 4984   0.590   2.735   1.025
 1366SOL    HW1 4985   0.619   2.827   1.026
 1366SOL    HW2 4986   0.533   2.727   1.101
 1367SOL     OW 4987   1.357   2.721   1.030
 1367SOL    HW1 4988   1.274   2.712   0.983
 1367SOL    HW2 4989   1.398   2.634   1.024
 1368SOL     OW 4990   1.202   2.387   0.271
 1368SOL    HW1 4991   1.211   2.310   0.327
 1368SOL    HW2 4992   1.159   2.453   0.326
 1369SOL     OW 4993   0.302   2.053   1.242
 1369SOL    HW1 4994   0.262   2.086   1.323
 1369SOL    HW2 4995   0.285   1.958   1.244
 1370SOL     OW 4996   0.037   3.175   1.286
 1370SOL    HW1 4997   0.075   3.127   1.360
 1370SOL    HW2 4998   0.044   3.267   1.310
 1371SOL     OW 4999   0.725   2.493   1.058
 1371SOL    HW1 5000   0.800   2.475   1.001
 1371SOL    HW2 5001   0.698   2.582   1.035
 1372SOL     OW 5002   1.735   2.821   1.853
 1372SOL    HW1 5003   1.689   2.758   1.796
 1372SOL    HW2 5004   1.676   2.836   1.926
 1373SOL     OW 5005   0.312   1.932   0.620
 1373SOL    HW1 5006   0.287   2.021   0.646
 1373SOL    HW2 5007   0.308   1.881   0.701
 1374SOL     OW 5008   1.613   2.232   0.370
 1374SOL    HW1 5009   1.646   2.173   0.438
 1374SOL    HW2 5010   1.592   2.313   0.417
 1375SOL     OW 5011   1.028   2.621   0.960
 1375SOL    HW1 5012   1.024   2.638   1.054
 1375SOL    HW2 5013   1.001   2.529   0.952
 1376SOL     OW 5014   0.983   3.429   1.717
 1376SOL    HW1 5015   0.967   3.473   1.633
 1376SOL    HW2 5016   1.025   3.346   1.693
 1377SOL     OW 5017   1.855   3.367   1.605
 1377SOL    HW1 5018   1.873   3.394   1.515
 1377SOL    HW2 5019   1.936   3.386   1.652
 1378SOL     OW 5020   0.347   2.796   1.818
 1378SOL    HW1 5021   0.419   2.825   1.873
 1378SOL    HW2 5022   0.385   2.728   1.762
 1379SOL     OW 5023   1.537   2.151   0.117
 1379SOL    HW1 5024   1.475   2.080   0.132
 1379SOL    HW2 5025   1.566   2.176   0.204
 1380SOL     OW 5026   1.287   2.685   0.032
 1380SOL    HW1 5027   1.330   2.600   0.044
 1380SOL    HW2 5028   1.322   2.719  11.050
 1381SOL     OW 5029   1.066   3.197   0.854
 1381SOL    HW1 5030   1.069   3.125   0.791
 1381SOL    HW2 5031   1.127   3.262   0.819
 1382SOL     OW 5032   0.318   2.673   0.947
 1382SOL    HW1 5033   0.412   2.690   0.945
 1382SOL    HW2 5034   0.311   2.582   0.975
 1383SOL     OW 5035   0.330   2.387   0.989
 1383SOL    HW1 5036   0.292   2.300   0.974
 1383SOL    HW2 5037   0.409   2.389   0.935
 1384SOL     OW 5038   1.134   2.238   1.682
 1384SOL    HW1 5039   1.087   2.293   1.744
 1384SOL    HW2 5040   1.222   2.276   1.678
 1385SOL     OW 5041   1.160   2.065   1.470
 1385SOL    HW1 5042   1.150   2.128   1.541
 1385SOL    HW2 5043   1.201   2.115   1.399
 1386SOL     OW 5044   4.497   3.186   0.201
 1386SOL    HW1 5045   4.403   3.205   0.194
 1386SOL    HW2 5046   0.000   3.094   0.228
 1387SOL     OW 5047   0.098   3.638   0.940
 1387SOL    HW1 5048   0.058   3.587   0.870
 1387SOL    HW2 5049   0.186   3.659   0.909
 1388SOL     OW 5050   0.496   3.436   0.907
 1388SOL    HW1 5051   0.564   3.498   0.931
 1388SOL    HW2 5052   0.540   3.373   0.849
 1389SOL     OW 5053   0.983   2.654   1.226
 1389SOL    HW1 5054   1.039   2.631   1.301
 1389SOL    HW2 5055   0.898   2.617   1.248
 1390SOL     OW 5056   0.033   2.425   1.103
 1390SOL    HW1 5057   0.118   2.392   1.072
 1390SOL    HW2 5058   0.018   2.379   1.185
 1391SOL     OW 5059   0.179   2.382   1.715
 1391SOL    HW1 5060   0.259   2.352   1.672
 1391SOL    HW2 5061   0.157   2.463   1.669
 1392SOL     OW 5062   1.377   2.800   1.659
 1392SOL    HW1 5063   1.398   2.894   1.656
 1392SOL    HW2 5064   1.374   2.774   1.567
 1393SOL     OW 5065   0.816   2.436   0.366
 1393SOL    HW1 5066   0.825   2.361   0.307
 1393SOL    HW2 5067   0.741   2.485   0.331
 1394SOL     OW 5068   1.641   2.465   1.187
 1394SOL    HW1 5069   1.633   2.403   1.260
 1394SOL    HW2 5070   1.728   2.448   1.151
 1395SOL     OW 5071   0.274   3.424   1.741
 1395SOL    HW1 5072   0.216   3.476   1.796
 1395SOL    HW2 5073   0.254   3.333   1.764
 1396SOL     OW 5074   0.693   2.316   1.262
 1396SOL    HW1 5075   0.646   2.239   1.229
 1396SOL    HW2 5076   0.693   2.377   1.188
 1397SOL     OW 5077   0.929   3.541   1.467
 1397SOL    HW1 5078   0.902   3.506   1.382
 1397SOL    HW2 5079   0.922   3.636   1.457
 1398SOL     OW 5080   0.475   2.345   0.180
 1398SOL    HW1 5081   0.531   2.419   0.205
 1398SOL    HW2 5082   0.390   2.385   0.161
 1399SOL     OW 5083   0.162   3.003   1.460
 1399SOL    HW1 5084   0.145   2.958   1.543
 1399SOL    HW2 5085   0.169   2.932   1.396
 1400SOL     OW 5086   1.326   2.909   1.223
 1400SOL    HW1 5087   1.349   2.845   1.155
 1400SOL    HW2 5088   1.256   2.962   1.184
 1401SOL     OW 5089   1.307   2.715   0.311
 1401SOL    HW1 5090   1.231   2.681   0.358
 1401SOL    HW2 5091   1.286   2.701   0.218
 1402SOL     OW 5092   1.773   3.605   1.151
 1402SOL    HW1 5093   1.832   3.632   1.081
 1402SOL    HW2 5094   1.748   3.516   1.129
 1403SOL     OW 5095   1.241   3.596   1.114
 1403SOL    HW1 5096   1.323   3.616   1.068
 1403SOL    HW2 5097   1.247   3.502   1.131
 1404SOL     OW 5098   0.066   3.046   1.050
 1404SOL    HW1 5099   0.064   3.078   1.140
 1404SOL    HW2 5100   0.026   3.116   0.998
 1405SOL     OW 5101   0.679   3.528   1.730
 1405SOL    HW1 5102   0.622   3.605   1.724
 1405SOL    HW2 5103   0.742   3.539   1.659
 1406SOL     OW 5104   0.918   1.954   0.106
 1406SOL    HW1 5105   0.968   1.917   0.034
 1406SOL    HW2 5106   0.955   1.912   0.184
 1407SOL     OW 5107   1.721   2.000   0.515
 1407SOL    HW1 5108   1.772   1.957   0.445
 1407SOL    HW2 5109   1.691   1.928   0.570
 1408SOL     OW 5110   1.390   3.430   0.486
 1408SOL    HW1 5111   1.451   3.462   0.419
 1408SOL    HW2 5112   1.343   3.508   0.514
 1409SOL     OW 5113   0.119   3.669   1.847
 1409SOL    HW1 5114   0.078   3.597   1.895
 1409SOL    HW2 5115   0.182   3.706   1.909
 1410SOL     OW 5116   1.277   2.788   0.672
 1410SOL    HW1 5117   1.351   2.727   0.678
 1410SOL    HW2 5118   1.311   2.860   0.619
 1411SOL     OW 5119   0.814   3.136   1.429
 1411SOL    HW1 5120   0.786   3.175   1.512
 1411SOL    HW2 5121   0.743   3.157   1.368
 1412SOL     OW 5122   0.674   3.483   0.168
 1412SOL    HW1 5123   0.687   3.490   0.073
 1412SOL    HW2 5124   0.617   3.407   0.178
 1413SOL     OW 5125   1.627   3.588   1.392
 1413SOL    HW1 5126   1.676   3.595   1.310
 1413SOL    HW2 5127   1.613   3.679   1.419
 1414SOL     OW 5128   1.800   2.012   0.967
 1414SOL    HW1 5129   1.852   1.942   0.927
 1414SOL    HW2 5130   1.725   2.022   0.909
 1415SOL     OW 5131   0.264   2.182   0.719
 1415SOL    HW1 5132   0.181   2.220   0.691
 1415SOL    HW2 5133   0.253   2.169   0.814
 1416SOL     OW 5134   1.223   3.464   0.053
 1416SOL    HW1 5135   1.210   3.371   0.073
 1416SOL    HW2 5136   1.157   3.483  11.086
 1417SOL     OW 5137   0.826   2.869   1.372
 1417SOL    HW1 5138   0.868   2.865   1.286
 1417SOL    HW2 5139   0.824   2.962   1.394
 1418SOL     OW 5140   0.914   2.769   0.281
 1418SOL    HW1 5141   0.980   2.809   0.225
 1418SOL    HW2 5142   0.962   2.704   0.333
 1419SOL     OW 5143   1.498   3.484   0.047
 1419SOL    HW1 5144   1.403   3.479   0.045
 1419SOL    HW2 5145   1.524   3.498  11.056
 1420SOL     OW 5146   0.373   3.170   1.490
 1420SOL    HW1 5147   0.355   3.248   1.439
 1420SOL    HW2 5148   0.298   3.113   1.474
 1421SOL     OW 5149   1.611   3.145   1.281
 1421SOL    HW1 5150   1.670   3.134   1.356
 1421SOL    HW2 5151   1.550   3.214   1.308
 1422SOL     OW 5152   1.052   2.969   0.706
 1422SOL    HW1 5153   0.982   2.918   0.746
 1422SOL    HW2 5154   1.115   2.904   0.676
 1423SOL     OW 5155   1.021   2.102   0.966
 1423SOL    HW1 5156   1.016   2.054   0.883
 1423SOL    HW2 5157   1.016   2.034   1.033
 1424SOL     OW 5158   0.603   3.353   0.483
 1424SOL    HW1 5159   0.643   3.302   0.412
 1424SOL    HW2 5160   0.529   3.397   0.442
 1425SOL     OW 5161   1.722   2.254   1.379
 1425SOL    HW1 5162   1.800   2.310   1.377
 1425SOL    HW2 5163   1.743   2.180   1.323
 1426SOL     OW 5164   0.264   3.190   0.284
 1426SOL    HW1 5165   0.176   3.202   0.247
 1426SOL    HW2 5166   0.259   3.231   0.370
 1427SOL     OW 5167   0.116   2.870   1.694
 1427SOL    HW1 5168   0.052   2.912   1.751
 1427SOL    HW2 5169   0.194   2.859   1.748
 1428SOL     OW 5170   0.674   2.061   1.499
 1428SOL    HW1 5171   0.758   2.039   1.458
 1428SOL    HW2 5172   0.698   2.089   1.587
 1429SOL     OW 5173   0.058   2.204   0.003
 1429SOL    HW1 5174   4.472   2.189   0.040
 1429SOL    HW2 5175   0.078   2.296   0.023
 1430SOL     OW 5176   1.430   2.721   1.400
 1430SOL    HW1 5177   1.381   2.781   1.345
 1430SOL    HW2 5178   1.519   2.723   1.364
 1431SOL     OW 5179   0.079   2.032   0.307
 1431SOL    HW1 5180   0.084   2.116   0.261
 1431SOL    HW2 5181   0.154   1.982   0.276
 1432SOL     OW 5182   1.183   3.202   0.122
 1432SOL    HW1 5183   1.089   3.184   0.115
 1432SOL    HW2 5184   1.201   3.193   0.215
 1433SOL     OW 5185   0.624   2.693   1.431
 1433SOL    HW1 5186   0.680   2.769   1.417
 1433SOL    HW2 5187   0.685   2.619   1.438
 1434SOL     OW 5188   1.483   3.639   0.979
 1434SOL    HW1 5189   1.507   3.698   0.907
 1434SOL    HW2 5190   1.567   3.620   1.022
 1435SOL     OW 5191   0.714   2.424   1.704
 1435SOL    HW1 5192   0.755   2.487   1.763
 1435SOL    HW2 5193   0.744   2.339   1.735
 1436SOL     OW 5194   1.471   3.062   1.632
 1436SOL    HW1 5195   1.459   3.076   1.726
 1436SOL    HW2 5196   1.565   3.077   1.618
 1437SOL     OW 5197   0.380   3.606   1.565
 1437SOL    HW1 5198   0.295   3.646   1.547
 1437SOL    HW2 5199   0.359   3.526   1.613
 1438SOL     OW 5200   1.670   2.743   1.255
 1438SOL    HW1 5201   1.661   2.658   1.213
 1438SOL    HW2 5202   1.659   2.807   1.184
 1439SOL     OW 5203   1.216   2.180   0.460
 1439SOL    HW1 5204   1.280   2.109   0.450
 1439SOL    HW2 5205   1.246   2.229   0.536
 1440SOL     OW 5206   0.589   2.600   0.669
 1440SOL    HW1 5207   0.627   2.686   0.654
 1440SOL    HW2 5208   0.521   2.592   0.602
 1441SOL     OW 5209   1.762   2.236   1.653
 1441SOL    HW1 5210   1.749   2.240   1.559
 1441SOL    HW2 5211   1.697   2.173   1.684
 1442SOL     OW 5212   1.751   2.793   1.511
 1442SOL    HW1 5213   1.743   2.887   1.526
 1442SOL    HW2 5214   1.731   2.782   1.418
 1443SOL     OW 5215   0.905   3.219   0.069
 1443SOL    HW1 5216   0.835   3.216   0.134
 1443SOL    HW2 5217   0.890   3.300   0.021
 1444SOL     OW 5218   0.661   3.653   0.946
 1444SOL    HW1 5219   0.640   3.743   0.921
 1444SOL    HW2 5220   0.756   3.647   0.936
 1445SOL     OW 5221   0.868   2.829   0.855
 1445SOL    HW1 5222   0.917   2.757   0.894
 1445SOL    HW2 5223   0.832   2.878   0.929
 1446SOL     OW 5224   1.078   2.852   0.084
 1446SOL    HW1 5225   1.054   2.884  11.098
 1446SOL    HW2 5226   1.155   2.797   0.069
 1447SOL     OW 5227   1.853   3.417   0.845
 1447SOL    HW1 5228   1.777   3.406   0.789
 1447SOL    HW2 5229   1.844   3.350   0.912
 1448SOL     OW 5230   0.231   3.167   1.858
 1448SOL    HW1 5231   0.156   3.112   1.836
 1448SOL    HW2 5232   0.226   3.177   1.953
 1449SOL     OW 5233   0.105   3.094   0.669
 1449SOL    HW1 5234   0.123   3.050   0.752
 1449SOL    HW2 5235   0.169   3.056   0.608
 1450SOL     OW 5236   0.683   3.265   1.629
 1450SOL    HW1 5237   0.602   3.221   1.657
 1450SOL    HW2 5238   0.676   3.353   1.666
 1451SOL     OW 5239   1.774   2.035   1.231
 1451SOL    HW1 5240   1.795   1.944   1.252
 1451SOL    HW2 5241   1.781   2.040   1.136
 1452SOL     OW 5242   0.433   2.297   0.526
 1452SOL    HW1 5243   0.463   2.224   0.471
 1452SOL    HW2 5244   0.384   2.255   0.597
 1453SOL     OW 5245   1.700   3.351   1.096
 1453SOL    HW1 5246   1.619   3.329   1.050
 1453SOL    HW2 5247   1.709   3.282   1.162
 1454SOL     OW 5248   0.300   2.350   1.252
 1454SOL    HW1 5249   0.374   2.308   1.296
 1454SOL    HW2 5250   0.330   2.366   1.163
 1455SOL     OW 5251   0.827   3.440   0.678
 1455SOL    HW1 5252   0.813   3.493   0.599
 1455SOL    HW2 5253   0.751   3.382   0.682
 1456SOL     OW 5254   1.434   2.089   1.116
 1456SOL    HW1 5255   1.465   2.011   1.162
 1456SOL    HW2 5256   1.381   2.136   1.180
 1457SOL     OW 5257   1.009   1.880   1.142
 1457SOL    HW1 5258   0.954   1.813   1.102
 1457SOL    HW2 5259   1.097   1.843   1.144
 1458SOL     OW 5260   0.768   3.190   0.316
 1458SOL    HW1 5261   0.739   3.100   0.331
 1458SOL    HW2 5262   0.852   3.195   0.362
 1459SOL     OW 5263   0.621   3.418   1.286
 1459SOL    HW1 5264   0.623   3.500   1.336
 1459SOL    HW2 5265   0.708   3.411   1.247
 1460SOL     OW 5266   1.350   1.916   0.165
 1460SOL    HW1 5267   1.372   1.867   0.085
 1460SOL    HW2 5268   1.264   1.884   0.190
 1461SOL     OW 5269   1.296   2.323   0.681
 1461SOL    HW1 5270   1.242   2.402   0.688
 1461SOL    HW2 5271   1.292   2.284   0.768
 1462SOL     OW 5272   1.560   2.060   0.860
 1462SOL    HW1 5273   1.515   2.080   0.942
 1462SOL    HW2 5274   1.568   2.144   0.815
 1463SOL     OW 5275   0.038   2.913   0.284
 1463SOL    HW1 5276   0.133   2.905   0.284
 1463SOL    HW2 5277   0.011   2.882   0.370
 1464SOL     OW 5278   0.886   3.516   0.347
 1464SOL    HW1 5279   0.813   3.496   0.287
 1464SOL    HW2 5280   0.854   3.590   0.399
 1465SOL     OW 5281   0.247   2.491   1.982
 1465SOL    HW1 5282   0.173   2.470   2.039
 1465SOL    HW2 5283   0.216   2.473   1.894
 1466SOL     OW 5284   0.212   2.137   2.853
 1466SOL    HW1 5285   0.249   2.110   2.938
 1466SOL    HW2 5286   0.137   2.080   2.840
 1467SOL     OW 5287   0.008   2.254   2.502
 1467SOL    HW1 5288   4.427   2.285   2.541
 1467SOL    HW2 5289   4.483   2.174   2.456
 1468SOL     OW 5290   0.568   3.150   3.038
 1468SOL    HW1 5291   0.480   3.154   2.999
 1468SOL    HW2 5292   0.583   3.237   3.073
 1469SOL     OW 5293   1.561   3.374   2.569
 1469SOL    HW1 5294   1.518   3.354   2.652
 1469SOL    HW2 5295   1.490   3.378   2.505
 1470SOL     OW 5296   1.130   2.561   2.563
 1470SOL    HW1 5297   1.179   2.642   2.549
 1470SOL    HW2 5298   1.083   2.574   2.645
 1471SOL     OW 5299   1.780   2.458   2.089
 1471SOL    HW1 5300   1.751   2.456   1.998
 1471SOL    HW2 5301   1.728   2.391   2.133
 1472SOL     OW 5302   0.755   3.004   2.903
 1472SOL    HW1 5303   0.686   3.039   2.960
 1472SOL    HW2 5304   0.790   3.081   2.858
 1473SOL     OW 5305   0.867   2.635   3.683
 1473SOL    HW1 5306   0.852   2.705   3.746
 1473SOL    HW2 5307   0.890   2.679   3.602
 1474SOL     OW 5308   0.685   2.865   2.509
 1474SOL    HW1 5309   0.750   2.853   2.578
 1474SOL    HW2 5310   0.616   2.917   2.551
 1475SOL     OW 5311   0.711   3.012   3.675
 1475SOL    HW1 5312   0.758   3.091   3.702
 1475SOL    HW2 5313   0.629   3.044   3.639
 1476SOL     OW 5314   0.335   3.283   2.931
 1476SOL    HW1 5315   0.254   3.263   2.885
 1476SOL    HW2 5316   0.385   3.337   2.870
 1477SOL     OW 5317   1.461   3.361   3.217
 1477SOL    HW1 5318   1.511   3.442   3.227
 1477SOL    HW2 5319   1.398   3.363   3.289
 1478SOL     OW 5320   0.445   2.266   3.353
 1478SOL    HW1 5321   0.524   2.213   3.358
 1478SOL    HW2 5322   0.373   2.203   3.359
 1479SOL     OW 5323   1.597   2.304   2.606
 1479SOL    HW1 5324   1.522   2.332   2.553
 1479SOL    HW2 5325   1.635   2.386   2.638
 1480SOL     OW 5326   0.246   3.553   2.339
 1480SOL    HW1 5327   0.230   3.638   2.380
 1480SOL    HW2 5328   0.314   3.570   2.274
 1481SOL     OW 5329   1.137   3.203   3.554
 1481SOL    HW1 5330   1.176   3.199   3.641
 1481SOL    HW2 5331   1.084   3.124   3.548
 1482SOL     OW 5332   0.250   3.288   2.390
 1482SOL    HW1 5333   0.240   3.383   2.392
 1482SOL    HW2 5334   0.187   3.256   2.454
 1483SOL     OW 5335   0.249   2.944   2.747
 1483SOL    HW1 5336   0.264   2.854   2.774
 1483SOL    HW2 5337   0.188   2.979   2.812
 1484SOL     OW 5338   0.613   3.653   3.293
 1484SOL    HW1 5339   0.530   3.634   3.337
 1484SOL    HW2 5340   0.634   3.743   3.317
 1485SOL     OW 5341   0.579   2.849   2.001
 1485SOL    HW1 5342   0.627   2.892   1.930
 1485SOL    HW2 5343   0.623   2.878   2.080
 1486SOL     OW 5344   1.596   1.982   3.334
 1486SOL    HW1 5345   1.605   2.060   3.278
 1486SOL    HW2 5346   1.579   2.018   3.421
 1487SOL     OW 5347   0.136   2.508   2.436
 1487SOL    HW1 5348   0.089   2.427   2.454
 1487SOL    HW2 5349   0.106   2.569   2.503
 1488SOL     OW 5350   1.842   3.621   2.196
 1488SOL    HW1 5351   1.906   3.593   2.262
 1488SOL    HW2 5352   1.866   3.712   2.177
 1489SOL     OW 5353   0.033   3.464   2.003
 1489SOL    HW1 5354   0.021   3.369   2.000
 1489SOL    HW2 5355   0.022   3.486   2.096
 1490SOL     OW 5356   1.690   2.782   2.502
 1490SOL    HW1 5357   1.772   2.739   2.477
 1490SOL    HW2 5358   1.666   2.833   2.425
 1491SOL     OW 5359   1.645   2.968   2.291
 1491SOL    HW1 5360   1.731   2.975   2.249
 1491SOL    HW2 5361   1.650   3.030   2.364
 1492SOL     OW 5362   0.111   2.626   3.445
 1492SOL    HW1 5363   0.202   2.623   3.414
 1492SOL    HW2 5364   0.095   2.718   3.464
 1493SOL     OW 5365   0.614   3.247   2.598
 1493SOL    HW1 5366   0.567   3.165   2.608
 1493SOL    HW2 5367   0.598   3.274   2.508
 1494SOL     OW 5368   1.289   3.100   3.285
 1494SOL    HW1 5369   1.321   3.033   3.225
 1494SOL    HW2 5370   1.346   3.094   3.361
 1495SOL     OW 5371   0.816   1.862   2.371
 1495SOL    HW1 5372   0.856   1.947   2.352
 1495SOL    HW2 5373   0.723   1.881   2.380
 1496SOL     OW 5374   0.179   2.802   3.141
 1496SOL    HW1 5375   0.271   2.784   3.121
 1496SOL    HW2 5376   0.133   2.789   3.058
 1497SOL     OW 5377   1.532   2.855   2.060
 1497SOL    HW1 5378   1.462   2.798   2.091
 1497SOL    HW2 5379   1.572   2.890   2.140
 1498SOL     OW 5380   1.186   3.669   3.484
 1498SOL    HW1 5381   1.196   3.727   3.409
 1498SOL    HW2 5382   1.202   3.581   3.449
 1499SOL     OW 5383   0.331   2.118   3.661
 1499SOL    HW1 5384   0.380   2.192   3.698
 1499SOL    HW2 5385   0.244   2.125   3.699
 1500SOL     OW 5386   1.467   3.281   2.814
 1500SOL    HW1 5387   1.399   3.297   2.879
 1500SOL    HW2 5388   1.454   3.190   2.787
 1501SOL     OW 5389   1.659   3.601   2.440
 1501SOL    HW1 5390   1.638   3.572   2.351
 1501SOL    HW2 5391   1.634   3.528   2.496
 1502SOL     OW 5392   0.598   2.582   2.129
 1502SOL    HW1 5393   0.600   2.664   2.078
 1502SOL    HW2 5394   0.532   2.598   2.196
 1503SOL     OW 5395   1.278   2.217   2.794
 1503SOL    HW1 5396   1.189   2.182   2.803
 1503SOL    HW2 5397   1.330   2.164   2.854
 1504SOL     OW 5398   1.581   3.532   2.171
 1504SOL    HW1 5399   1.671   3.564   2.164
 1504SOL    HW2 5400   1.554   3.516   2.081
 1505SOL     OW 5401   0.794   2.478   3.313
 1505SOL    HW1 5402   0.767   2.454   3.402
 1505SOL    HW2 5403   0.751   2.413   3.257
 1506SOL     OW 5404   1.393   2.337   3.540
 1506SOL    HW1 5405   1.396   2.381   3.625
 1506SOL    HW2 5406   1.454   2.263   3.549
 1507SOL     OW 5407   0.955   2.749   3.444
 1507SOL    HW1 5408   1.009   2.679   3.409
 1507SOL    HW2 5409   0.907   2.784   3.369
 1508SOL     OW 5410   0.993   2.276   3.100
 1508SOL    HW1 5411   0.907   2.296   3.138
 1508SOL    HW2 5412   0.972   2.229   3.019
 1509SOL     OW 5413   1.051   2.560   2.288
 1509SOL    HW1 5414   1.067   2.553   2.382
 1509SOL    HW2 5415   0.969   2.514   2.274
 1510SOL     OW 5416   0.096   2.690   2.647
 1510SOL    HW1 5417   0.183   2.674   2.683
 1510SOL    HW2 5418   0.042   2.714   2.722
 1511SOL     OW 5419   0.125   3.715   3.438
 1511SOL    HW1 5420   0.117   3.694   3.531
 1511SOL    HW2 5421   0.044   3.681   3.399
 1512SOL     OW 5422   0.893   2.210   2.057
 1512SOL    HW1 5423   0.933   2.272   1.995
 1512SOL    HW2 5424   0.908   2.124   2.017
 1513SOL     OW 5425   1.698   2.448   3.690
 1513SOL    HW1 5426   1.662   2.520   3.639
 1513SOL    HW2 5427   1.722   2.382   3.624
 1514SOL     OW 5428   1.377   3.004   2.404
 1514SOL    HW1 5429   1.455   2.992   2.350
 1514SOL    HW2 5430   1.323   3.066   2.354
 1515SOL     OW 5431   0.552   2.044   2.755
 1515SOL    HW1 5432   0.554   2.074   2.846
 1515SOL    HW2 5433   0.552   2.124   2.703
 1516SOL     OW 5434   1.006   3.307   2.334
 1516SOL    HW1 5435   0.969   3.379   2.284
 1516SOL    HW2 5436   0.986   3.327   2.426
 1517SOL     OW 5437   0.356   3.672   2.720
 1517SOL    HW1 5438   0.398   3.587   2.731
 1517SOL    HW2 5439   0.426   3.736   2.737
 1518SOL     OW 5440   1.799   2.916   2.730
 1518SOL    HW1 5441   1.744   2.900   2.653
 1518SOL    HW2 5442   1.738   2.924   2.802
 1519SOL     OW 5443   1.228   3.400   3.375
 1519SOL    HW1 5444   1.214   3.328   3.436
 1519SOL    HW2 5445   1.164   3.386   3.305
 1520SOL     OW 5446   0.315   2.816   2.116
 1520SOL    HW1 5447   0.399   2.839   2.076
 1520SOL    HW2 5448   0.300   2.725   2.089
 1521SOL     OW 5449   1.480   2.602   2.587
 1521SOL    HW1 5450   1.468   2.559   2.672
 1521SOL    HW2 5451   1.555   2.659   2.599
 1522SOL     OW 5452   0.468   3.125   3.597
 1522SOL    HW1 5453   0.441   3.131   3.505
 1522SOL    HW2 5454   0.386   3.128   3.647
 1523SOL     OW 5455   1.122   3.640   2.093
 1523SOL    HW1 5456   1.048   3.598   2.138
 1523SOL    HW2 5457   1.145   3.578   2.023
 1524SOL     OW 5458   0.196   2.139   3.347
 1524SOL    HW1 5459   0.138   2.214   3.354
 1524SOL    HW2 5460   0.183   2.091   3.429
 1525SOL     OW 5461   1.629   3.242   1.950
 1525SOL    HW1 5462   1.587   3.327   1.935
 1525SOL    HW2 5463   1.560   3.178   1.931
 1526SOL     OW 5464   0.469   3.606   2.175
 1526SOL    HW1 5465   0.511   3.659   2.243
 1526SOL    HW2 5466   0.541   3.570   2.124
 1527SOL     OW 5467   1.400   1.971   2.296
 1527SOL    HW1 5468   1.396   1.943   2.204
 1527SOL    HW2 5469   1.494   1.975   2.315
 1528SOL     OW 5470   0.261   3.655   3.092
 1528SOL    HW1 5471   0.305   3.580   3.131
 1528SOL    HW2 5472   0.225   3.623   3.010
 1529SOL     OW 5473   0.938   3.561   2.760
 1529SOL    HW1 5474   1.015   3.508   2.783
 1529SOL    HW2 5475   0.894   3.511   2.691
 1530SOL     OW 5476   0.395   2.557   2.335
 1530SOL    HW1 5477   0.418   2.464   2.346
 1530SOL    HW2 5478   0.303   2.562   2.360
 1531SOL     OW 5479   1.531   2.086   3.588
 1531SOL    HW1 5480   1.541   2.106   3.681
 1531SOL    HW2 5481   1.464   2.019   3.584
 1532SOL     OW 5482   0.636   1.986   1.965
 1532SOL    HW1 5483   0.702   1.920   1.981
 1532SOL    HW2 5484   0.587   1.953   1.890
 1533SOL     OW 5485   0.767   2.140   3.617
 1533SOL    HW1 5486   0.843   2.081   3.617
 1533SOL    HW2 5487   0.718   2.116   3.695
 1534SOL     OW 5488   0.877   3.385   3.055
 1534SOL    HW1 5489   0.860   3.348   2.969
 1534SOL    HW2 5490   0.946   3.329   3.092
 1535SOL     OW 5491   1.340   2.451   3.294
 1535SOL    HW1 5492   1.371   2.419   3.379
 1535SOL    HW2 5493   1.377   2.539   3.287
 1536SOL     OW 5494   0.816   3.257   2.802
 1536SOL    HW1 5495   0.899   3.245   2.757
 1536SOL    HW2 5496   0.751   3.258   2.731
 1537SOL     OW 5497   0.928   2.371   2.765
 1537SOL    HW1 5498   0.904   2.363   2.673
 1537SOL    HW2 5499   0.959   2.284   2.790
 1538SOL     OW 5500   0.553   1.924   2.363
 1538SOL    HW1 5501   0.472   1.922   2.414
 1538SOL    HW2 5502   0.545   2.002   2.308
 1539SOL     OW 5503   1.428   3.061   1.903
 1539SOL    HW1 5504   1.458   2.984   1.953
 1539SOL    HW2 5505   1.342   3.081   1.940
 1540SOL     OW 5506   0.295   1.908   2.040
 1540SOL    HW1 5507   0.358   1.975   2.012
 1540SOL    HW2 5508   0.348   1.842   2.085
 1541SOL     OW 5509   0.938   2.109   2.322
 1541SOL    HW1 5510   0.912   2.150   2.240
 1541SOL    HW2 5511   1.033   2.122   2.326
 1542SOL     OW 5512   1.080   2.543   3.321
 1542SOL    HW1 5513   1.012   2.476   3.326
 1542SOL    HW2 5514   1.162   2.493   3.314
 1543SOL     OW 5515   1.224   3.431   2.655
 1543SOL    HW1 5516   1.240   3.499   2.589
 1543SOL    HW2 5517   1.292   3.447   2.722
 1544SOL     OW 5518   0.467   3.012   2.597
 1544SOL    HW1 5519   0.396   2.993   2.659
 1544SOL    HW2 5520   0.428   2.996   2.511
 1545SOL     OW 5521   1.269   3.656   2.471
 1545SOL    HW1 5522   1.315   3.717   2.413
 1545SOL    HW2 5523   1.202   3.709   2.514
 1546SOL     OW 5524   1.023   2.404   1.884
 1546SOL    HW1 5525   0.980   2.487   1.864
 1546SOL    HW2 5526   1.088   2.426   1.951
 1547SOL     OW 5527   0.083   2.389   3.272
 1547SOL    HW1 5528   0.147   2.386   3.201
 1547SOL    HW2 5529   0.068   2.483   3.286
 1548SOL     OW 5530   0.560   2.090   3.028
 1548SOL    HW1 5531   0.603   2.011   3.062
 1548SOL    HW2 5532   0.469   2.081   3.055
 1549SOL     OW 5533   0.868   2.321   2.502
 1549SOL    HW1 5534   0.822   2.375   2.438
 1549SOL    HW2 5535   0.889   2.241   2.455
 1550SOL     OW 5536   1.015   1.916   2.614
 1550SOL    HW1 5537   0.957   1.908   2.538
 1550SOL    HW2 5538   0.993   1.840   2.668
 1551SOL     OW 5539   1.437   3.024   2.719
 1551SOL    HW1 5540   1.367   2.959   2.720
 1551SOL    HW2 5541   1.459   3.035   2.626
 1552SOL     OW 5542   1.462   2.470   2.842
 1552SOL    HW1 5543   1.416   2.387   2.839
 1552SOL    HW2 5544   1.523   2.462   2.915
 1553SOL     OW 5545   1.846   2.676   2.243
 1553SOL    HW1 5546   1.905   2.627   2.301
 1553SOL    HW2 5547   1.821   2.614   2.175
 1554SOL     OW 5548   0.491   3.280   2.021
 1554SOL    HW1 5549   0.414   3.251   2.070
 1554SOL    HW2 5550   0.475   3.251   1.931
 1555SOL     OW 5551   1.670   3.127   2.507
 1555SOL    HW1 5552   1.765   3.131   2.521
 1555SOL    HW2 5553   1.639   3.215   2.529
 1556SOL     OW 5554   1.394   2.434   1.933
 1556SOL    HW1 5555   1.332   2.415   2.004
 1556SOL    HW2 5556   1.477   2.396   1.963
 1557SOL     OW 5557   0.524   2.122   2.179
 1557SOL    HW1 5558   0.571   2.076   2.109
 1557SOL    HW2 5559   0.505   2.208   2.141
 1558SOL     OW 5560   1.752   3.102   3.434
 1558SOL    HW1 5561   1.839   3.062   3.432
 1558SOL    HW2 5562   1.767   3.192   3.463
 1559SOL     OW 5563   1.058   3.216   3.196
 1559SOL    HW1 5564   0.983   3.185   3.247
 1559SOL    HW2 5565   1.134   3.174   3.237
 1560SOL     OW 5566   1.608   3.488   3.516
 1560SOL    HW1 5567   1.602   3.522   3.427
 1560SOL    HW2 5568   1.691   3.440   3.518
 1561SOL     OW 5569   1.130   3.066   2.967
 1561SOL    HW1 5570   1.070   3.103   3.032
 1561SOL    HW2 5571   1.096   3.098   2.883
 1562SOL     OW 5572   1.629   2.961   2.939
 1562SOL    HW1 5573   1.624   3.023   3.012
 1562SOL    HW2 5574   1.549   2.977   2.888
 1563SOL     OW 5575   0.917   1.960   3.258
 1563SOL    HW1 5576   0.940   1.940   3.167
 1563SOL    HW2 5577   0.997   1.999   3.295
 1564SOL     OW 5578   0.984   2.977   3.584
 1564SOL    HW1 5579   0.892   2.992   3.606
 1564SOL    HW2 5580   0.982   2.899   3.529
 1565SOL     OW 5581   0.709   2.924   2.234
 1565SOL    HW1 5582   0.695   2.907   2.327
 1565SOL    HW2 5583   0.784   2.870   2.210
 1566SOL     OW 5584   0.430   2.688   3.104
 1566SOL    HW1 5585   0.500   2.700   3.169
 1566SOL    HW2 5586   0.373   2.622   3.143
 1567SOL     OW 5587   1.266   2.238   3.138
 1567SOL    HW1 5588   1.298   2.316   3.183
 1567SOL    HW2 5589   1.176   2.261   3.114
 1568SOL     OW 5590   0.062   3.438   3.204
 1568SOL    HW1 5591   0.035   3.528   3.185
 1568SOL    HW2 5592   0.158   3.443   3.210
 1569SOL     OW 5593   0.346   2.971   2.355
 1569SOL    HW1 5594   0.355   3.044   2.294
 1569SOL    HW2 5595   0.346   2.893   2.299
 1570SOL     OW 5596   0.560   2.395   2.717
 1570SOL    HW1 5597   0.574   2.455   2.644
 1570SOL    HW2 5598   0.622   2.425   2.784
 1571SOL     OW 5599   1.248   3.210   2.252
 1571SOL    HW1 5600   1.304   3.282   2.282
 1571SOL    HW2 5601   1.161   3.232   2.285
 1572SOL     OW 5602   1.281   3.320   3.008
 1572SOL    HW1 5603   1.336   3.322   3.087
 1572SOL    HW2 5604   1.225   3.243   3.020
 1573SOL     OW 5605   1.585   2.489   2.339
 1573SOL    HW1 5606   1.533   2.534   2.406
 1573SOL    HW2 5607   1.623   2.559   2.287
 1574SOL     OW 5608   0.346   3.395   3.176
 1574SOL    HW1 5609   0.333   3.347   3.094
 1574SOL    HW2 5610   0.441   3.404   3.183
 1575SOL     OW 5611   0.481   2.620   3.529
 1575SOL    HW1 5612   0.511   2.658   3.446
 1575SOL    HW2 5613   0.527   2.536   3.534
 1576SOL     OW 5614   1.599   2.646   3.541
 1576SOL    HW1 5615   1.513   2.688   3.534
 1576SOL    HW2 5616   1.652   2.688   3.472
 1577SOL     OW 5617   0.996   1.986   3.617
 1577SOL    HW1 5618   1.052   2.058   3.589
 1577SOL    HW2 5619   1.044   1.907   3.591
 1578SOL     OW 5620   0.497   1.904   3.609
 1578SOL    HW1 5621   0.456   1.848   3.544
 1578SOL    HW2 5622   0.438   1.979   3.617
 1579SOL     OW 5623   0.590   2.735   2.887
 1579SOL    HW1 5624   0.619   2.827   2.888
 1579SOL    HW2 5625   0.533   2.727   2.963
 1580SOL     OW 5626   1.357   2.722   2.891
 1580SOL    HW1 5627   1.273   2.712   2.846
 1580SOL    HW2 5628   1.397   2.635   2.886
 1581SOL     OW 5629   1.206   2.391   2.129
 1581SOL    HW1 5630   1.212   2.312   2.183
 1581SOL    HW2 5631   1.162   2.455   2.185
 1582SOL     OW 5632   0.302   2.052   3.104
 1582SOL    HW1 5633   0.262   2.086   3.184
 1582SOL    HW2 5634   0.285   1.958   3.107
 1583SOL     OW 5635   0.037   3.175   3.148
 1583SOL    HW1 5636   0.075   3.127   3.222
 1583SOL    HW2 5637   0.044   3.267   3.172
 1584SOL     OW 5638   0.725   2.493   2.920
 1584SOL    HW1 5639   0.800   2.475   2.863
 1584SOL    HW2 5640   0.698   2.582   2.897
 1585SOL     OW 5641   1.733   2.823   3.714
 1585SOL    HW1 5642   1.688   2.760   3.657
 1585SOL    HW2 5643   1.674   2.836   3.788
 1586SOL     OW 5644   0.311   1.932   2.481
 1586SOL    HW1 5645   0.287   2.020   2.507
 1586SOL    HW2 5646   0.309   1.881   2.562
 1587SOL     OW 5647   1.628   2.237   2.233
 1587SOL    HW1 5648   1.635   2.169   2.301
 1587SOL    HW2 5649   1.599   2.314   2.281
 1588SOL     OW 5650   1.028   2.621   2.823
 1588SOL    HW1 5651   1.024   2.638   2.917
 1588SOL    HW2 5652   1.001   2.529   2.814
 1589SOL     OW 5653   0.983   3.429   3.579
 1589SOL    HW1 5654   0.967   3.473   3.495
 1589SOL    HW2 5655   1.025   3.346   3.556
 1590SOL     OW 5656   1.855   3.368   3.467
 1590SOL    HW1 5657   1.873   3.394   3.377
 1590SOL    HW2 5658   1.936   3.386   3.515
 1591SOL     OW 5659   0.347   2.795   3.680
 1591SOL    HW1 5660   0.419   2.825   3.735
 1591SOL    HW2 5661   0.385   2.728   3.624
 1592SOL     OW 5662   1.528   2.137   1.993
 1592SOL    HW1 5663   1.464   2.070   2.017
 1592SOL    HW2 5664   1.561   2.170   2.077
 1593SOL     OW 5665   1.292   2.688   1.893
 1593SOL    HW1 5666   1.334   2.603   1.897
 1593SOL    HW2 5667   1.323   2.727   1.811
 1594SOL     OW 5668   1.066   3.198   2.716
 1594SOL    HW1 5669   1.069   3.125   2.653
 1594SOL    HW2 5670   1.127   3.262   2.680
 1595SOL     OW 5671   0.318   2.673   2.809
 1595SOL    HW1 5672   0.412   2.690   2.806
 1595SOL    HW2 5673   0.311   2.582   2.837
 1596SOL     OW 5674   0.330   2.387   2.851
 1596SOL    HW1 5675   0.292   2.301   2.836
 1596SOL    HW2 5676   0.409   2.389   2.797
 1597SOL     OW 5677   1.134   2.238   3.544
 1597SOL    HW1 5678   1.087   2.293   3.607
 1597SOL    HW2 5679   1.222   2.277   3.540
 1598SOL     OW 5680   1.160   2.065   3.332
 1598SOL    HW1 5681   1.150   2.128   3.403
 1598SOL    HW2 5682   1.201   2.115   3.261
 1599SOL     OW 5683   4.491   3.184   2.068
 1599SOL    HW1 5684   4.399   3.200   2.050
 1599SOL    HW2 5685   4.496   3.091   2.089
 1600SOL     OW 5686   0.098   3.638   2.802
 1600SOL    HW1 5687   0.059   3.586   2.732
 1600SOL    HW2 5688   0.186   3.659   2.771
 1601SOL     OW 5689   0.496   3.436   2.769
 1601SOL    HW1 5690   0.564   3.498   2.793
 1601SOL    HW2 5691   0.540   3.373   2.712
 1602SOL     OW 5692   0.983   2.654   3.088
 1602SOL    HW1 5693   1.039   2.631   3.163
 1602SOL    HW2 5694   0.898   2.617   3.110
 1603SOL     OW 5695   0.033   2.425   2.965
 1603SOL    HW1 5696   0.118   2.393   2.935
 1603SOL    HW2 5697   0.018   2.379   3.047
 1604SOL     OW 5698   0.179   2.382   3.577
 1604SOL    HW1 5699   0.259   2.352   3.534
 1604SOL    HW2 5700   0.157   2.463   3.531
 1605SOL     OW 5701   1.375   2.802   3.520
 1605SOL    HW1 5702   1.396   2.895   3.518
 1605SOL    HW2 5703   1.372   2.776   3.428
 1606SOL     OW 5704   0.817   2.431   2.222
 1606SOL    HW1 5705   0.820   2.357   2.162
 1606SOL    HW2 5706   0.743   2.484   2.191
 1607SOL     OW 5707   1.643   2.466   3.049
 1607SOL    HW1 5708   1.634   2.404   3.121
 1607SOL    HW2 5709   1.730   2.450   3.014
 1608SOL     OW 5710   0.274   3.423   3.603
 1608SOL    HW1 5711   0.216   3.476   3.658
 1608SOL    HW2 5712   0.254   3.333   3.626
 1609SOL     OW 5713   0.693   2.316   3.123
 1609SOL    HW1 5714   0.646   2.239   3.091
 1609SOL    HW2 5715   0.693   2.377   3.050
 1610SOL     OW 5716   0.929   3.541   3.329
 1610SOL    HW1 5717   0.902   3.506   3.244
 1610SOL    HW2 5718   0.922   3.636   3.319
 1611SOL     OW 5719   0.472   2.352   2.046
 1611SOL    HW1 5720   0.531   2.423   2.071
 1611SOL    HW2 5721   0.388   2.396   2.031
 1612SOL     OW 5722   0.162   3.003   3.323
 1612SOL    HW1 5723   0.145   2.958   3.405
 1612SOL    HW2 5724   0.169   2.932   3.258
 1613SOL     OW 5725   1.327   2.909   3.084
 1613SOL    HW1 5726   1.349   2.845   3.017
 1613SOL    HW2 5727   1.256   2.962   3.046
 1614SOL     OW 5728   1.312   2.719   2.168
 1614SOL    HW1 5729   1.237   2.689   2.219
 1614SOL    HW2 5730   1.287   2.705   2.077
 1615SOL     OW 5731   1.772   3.606   3.012
 1615SOL    HW1 5732   1.832   3.632   2.943
 1615SOL    HW2 5733   1.748   3.516   2.991
 1616SOL     OW 5734   1.241   3.595   2.975
 1616SOL    HW1 5735   1.323   3.616   2.930
 1616SOL    HW2 5736   1.247   3.502   2.993
 1617SOL     OW 5737   0.067   3.047   2.912
 1617SOL    HW1 5738   0.064   3.078   3.002
 1617SOL    HW2 5739   0.025   3.116   2.861
 1618SOL     OW 5740   0.679   3.528   3.592
 1618SOL    HW1 5741   0.622   3.605   3.586
 1618SOL    HW2 5742   0.742   3.539   3.521
 1619SOL     OW 5743   1.675   1.996   2.377
 1619SOL    HW1 5744   1.750   1.989   2.318
 1619SOL    HW2 5745   1.674   1.913   2.425
 1620SOL     OW 5746   1.391   3.430   2.347
 1620SOL    HW1 5747   1.451   3.462   2.280
 1620SOL    HW2 5748   1.342   3.507   2.375
 1621SOL     OW 5749   0.119   3.669   3.709
 1621SOL    HW1 5750   0.078   3.597   3.757
 1621SOL    HW2 5751   0.182   3.706   3.771
 1622SOL     OW 5752   1.278   2.787   2.533
 1622SOL    HW1 5753   1.351   2.726   2.539
 1622SOL    HW2 5754   1.311   2.860   2.481
 1623SOL     OW 5755   0.814   3.136   3.291
 1623SOL    HW1 5756   0.786   3.175   3.374
 1623SOL    HW2 5757   0.743   3.157   3.230
 1624SOL     OW 5758   0.672   3.482   2.017
 1624SOL    HW1 5759   0.682   3.494   1.923
 1624SOL    HW2 5760   0.617   3.404   2.026
 1625SOL     OW 5761   1.626   3.589   3.253
 1625SOL    HW1 5762   1.676   3.595   3.172
 1625SOL    HW2 5763   1.613   3.679   3.281
 1626SOL     OW 5764   1.806   2.015   2.843
 1626SOL    HW1 5765   1.849   1.937   2.809
 1626SOL    HW2 5766   1.727   2.024   2.789
 1627SOL     OW 5767   0.264   2.181   2.581
 1627SOL    HW1 5768   0.181   2.220   2.553
 1627SOL    HW2 5769   0.254   2.169   2.675
 1628SOL     OW 5770   1.207   3.468   1.894
 1628SOL    HW1 5771   1.197   3.376   1.921
 1628SOL    HW2 5772   1.142   3.480   1.825
 1629SOL     OW 5773   0.826   2.869   3.234
 1629SOL    HW1 5774   0.868   2.865   3.149
 1629SOL    HW2 5775   0.824   2.962   3.256
 1630SOL     OW 5776   0.916   2.773   2.152
 1630SOL    HW1 5777   0.977   2.805   2.086
 1630SOL    HW2 5778   0.963   2.703   2.197
 1631SOL     OW 5779   1.492   3.487   1.905
 1631SOL    HW1 5780   1.397   3.481   1.891
 1631SOL    HW2 5781   1.528   3.493   1.816
 1632SOL     OW 5782   0.373   3.170   3.352
 1632SOL    HW1 5783   0.355   3.248   3.301
 1632SOL    HW2 5784   0.298   3.113   3.336
 1633SOL     OW 5785   1.612   3.146   3.143
 1633SOL    HW1 5786   1.669   3.133   3.219
 1633SOL    HW2 5787   1.551   3.214   3.170
 1634SOL     OW 5788   1.053   2.969   2.569
 1634SOL    HW1 5789   0.982   2.919   2.608
 1634SOL    HW2 5790   1.115   2.903   2.537
 1635SOL     OW 5791   1.020   2.102   2.829
 1635SOL    HW1 5792   1.016   2.055   2.746
 1635SOL    HW2 5793   1.016   2.034   2.896
 1636SOL     OW 5794   0.605   3.352   2.344
 1636SOL    HW1 5795   0.647   3.302   2.274
 1636SOL    HW2 5796   0.529   3.393   2.303
 1637SOL     OW 5797   1.723   2.260   3.242
 1637SOL    HW1 5798   1.801   2.315   3.241
 1637SOL    HW2 5799   1.747   2.184   3.189
 1638SOL     OW 5800   0.252   3.206   2.138
 1638SOL    HW1 5801   0.157   3.204   2.124
 1638SOL    HW2 5802   0.263   3.238   2.228
 1639SOL     OW 5803   0.116   2.869   3.556
 1639SOL    HW1 5804   0.052   2.912   3.613
 1639SOL    HW2 5805   0.194   2.859   3.610
 1640SOL     OW 5806   0.674   2.061   3.361
 1640SOL    HW1 5807   0.758   2.039   3.320
 1640SOL    HW2 5808   0.698   2.089   3.449
 1641SOL     OW 5809   0.072   2.187   1.894
 1641SOL    HW1 5810   4.477   2.200   1.901
 1641SOL    HW2 5811   0.104   2.269   1.855
 1642SOL     OW 5812   1.430   2.721   3.262
 1642SOL    HW1 5813   1.382   2.781   3.206
 1642SOL    HW2 5814   1.519   2.723   3.228
 1643SOL     OW 5815   0.086   2.038   2.166
 1643SOL    HW1 5816   0.080   2.110   2.104
 1643SOL    HW2 5817   0.162   1.988   2.137
 1644SOL     OW 5818   1.179   3.201   1.979
 1644SOL    HW1 5819   1.088   3.172   1.981
 1644SOL    HW2 5820   1.206   3.201   2.070
 1645SOL     OW 5821   0.624   2.693   3.293
 1645SOL    HW1 5822   0.680   2.769   3.279
 1645SOL    HW2 5823   0.685   2.619   3.300
 1646SOL     OW 5824   1.484   3.639   2.841
 1646SOL    HW1 5825   1.506   3.699   2.770
 1646SOL    HW2 5826   1.567   3.621   2.885
 1647SOL     OW 5827   0.714   2.425   3.566
 1647SOL    HW1 5828   0.755   2.488   3.625
 1647SOL    HW2 5829   0.744   2.339   3.597
 1648SOL     OW 5830   1.471   3.062   3.494
 1648SOL    HW1 5831   1.459   3.076   3.588
 1648SOL    HW2 5832   1.565   3.077   3.480
 1649SOL     OW 5833   0.380   3.605   3.427
 1649SOL    HW1 5834   0.295   3.646   3.409
 1649SOL    HW2 5835   0.359   3.526   3.475
 1650SOL     OW 5836   1.671   2.744   3.116
 1650SOL    HW1 5837   1.661   2.658   3.075
 1650SOL    HW2 5838   1.659   2.806   3.045
 1651SOL     OW 5839   1.217   2.182   2.319
 1651SOL    HW1 5840   1.279   2.109   2.312
 1651SOL    HW2 5841   1.246   2.230   2.397
 1652SOL     OW 5842   0.590   2.600   2.531
 1652SOL    HW1 5843   0.628   2.686   2.516
 1652SOL    HW2 5844   0.522   2.591   2.465
 1653SOL     OW 5845   1.750   2.235   3.516
 1653SOL    HW1 5846   1.744   2.245   3.421
 1653SOL    HW2 5847   1.680   2.174   3.538
 1654SOL     OW 5848   1.747   2.797   3.372
 1654SOL    HW1 5849   1.741   2.892   3.386
 1654SOL    HW2 5850   1.730   2.785   3.279
 1655SOL     OW 5851   0.865   3.229   1.897
 1655SOL    HW1 5852   0.824   3.256   1.980
 1655SOL    HW2 5853   0.880   3.311   1.850
 1656SOL     OW 5854   0.661   3.653   2.807
 1656SOL    HW1 5855   0.640   3.743   2.783
 1656SOL    HW2 5856   0.756   3.647   2.798
 1657SOL     OW 5857   0.868   2.830   2.717
 1657SOL    HW1 5858   0.917   2.757   2.756
 1657SOL    HW2 5859   0.832   2.878   2.791
 1658SOL     OW 5860   1.080   2.851   1.951
 1658SOL    HW1 5861   1.057   2.901   1.873
 1658SOL    HW2 5862   1.154   2.797   1.925
 1659SOL     OW 5863   1.854   3.416   2.706
 1659SOL    HW1 5864   1.775   3.406   2.652
 1659SOL    HW2 5865   1.843   3.351   2.776
 1660SOL     OW 5866   0.231   3.167   3.720
 1660SOL    HW1 5867   0.156   3.111   3.698
 1660SOL    HW2 5868   0.226   3.178   3.815
 1661SOL     OW 5869   0.108   3.097   2.530
 1661SOL    HW1 5870   0.121   3.051   2.613
 1661SOL    HW2 5871   0.166   3.052   2.469
 1662SOL     OW 5872   0.683   3.265   3.491
 1662SOL    HW1 5873   0.602   3.221   3.519
 1662SOL    HW2 5874   0.676   3.353   3.528
 1663SOL     OW 5875   1.790   2.042   3.104
 1663SOL    HW1 5876   1.821   1.954   3.127
 1663SOL    HW2 5877   1.800   2.047   3.009
 1664SOL     OW 5878   0.435   2.295   2.388
 1664SOL    HW1 5879   0.460   2.222   2.331
 1664SOL    HW2 5880   0.384   2.255   2.458
 1665SOL     OW 5881   1.701   3.351   2.957
 1665SOL    HW1 5882   1.619   3.328   2.912
 1665SOL    HW2 5883   1.710   3.282   3.024
 1666SOL     OW 5884   0.300   2.350   3.114
 1666SOL    HW1 5885   0.374   2.308   3.158
 1666SOL    HW2 5886   0.330   2.366   3.025
 1667SOL     OW 5887   0.828   3.440   2.539
 1667SOL    HW1 5888   0.814   3.493   2.461
 1667SOL    HW2 5889   0.751   3.382   2.543
 1668SOL     OW 5890   1.432   2.089   2.978
 1668SOL    HW1 5891   1.463   2.011   3.023
 1668SOL    HW2 5892   1.380   2.136   3.043
 1669SOL     OW 5893   1.009   1.880   3.005
 1669SOL    HW1 5894   0.955   1.813   2.964
 1669SOL    HW2 5895   1.097   1.843   3.006
 1670SOL     OW 5896   0.772   3.195   2.176
 1670SOL    HW1 5897   0.741   3.104   2.182
 1670SOL    HW2 5898   0.854   3.195   2.226
 1671SOL     OW 5899   0.621   3.418   3.147
 1671SOL    HW1 5900   0.623   3.500   3.197
 1671SOL    HW2 5901   0.708   3.411   3.109
 1672SOL     OW 5902   1.354   1.916   2.027
 1672SOL    HW1 5903   1.381   1.851   1.962
 1672SOL    HW2 5904   1.266   1.887   2.054
 1673SOL     OW 5905   1.295   2.325   2.542
 1673SOL    HW1 5906   1.240   2.402   2.551
 1673SOL    HW2 5907   1.292   2.284   2.629
 1674SOL     OW 5908   1.568   2.057   2.728
 1674SOL    HW1 5909   1.517   2.083   2.804
 1674SOL    HW2 5910   1.577   2.137   2.676
 1675SOL     OW 5911   0.041   2.913   2.151
 1675SOL    HW1 5912   0.135   2.896   2.140
 1675SOL    HW2 5913   0.021   2.881   2.239
 1676SOL     OW 5914   0.885   3.515   2.204
 1676SOL    HW1 5915   0.812   3.497   2.144
 1676SOL    HW2 5916   0.855   3.590   2.256
 1677SOL     OW 5917   0.248   2.491   3.844
 1677SOL    HW1 5918   0.173   2.469   3.901
 1677SOL    HW2 5919   0.216   2.473   3.756
 1678SOL     OW 5920   0.212   2.137   4.715
 1678SOL    HW1 5921   0.249   2.110   4.800
 1678SOL    HW2 5922   0.137   2.080   4.702
 1679SOL     OW 5923   0.008   2.254   4.364
 1679SOL    HW1 5924   4.427   2.285   4.404
 1679SOL    HW2 5925   4.482   2.174   4.318
 1680SOL     OW 5926   0.568   3.150   4.900
 1680SOL    HW1 5927   0.480   3.155   4.861
 1680SOL    HW2 5928   0.583   3.238   4.935
 1681SOL     OW 5929   1.560   3.376   4.430
 1681SOL    HW1 5930   1.517   3.356   4.514
 1681SOL    HW2 5931   1.489   3.379   4.367
 1682SOL     OW 5932   1.135   2.559   4.430
 1682SOL    HW1 5933   1.180   2.641   4.412
 1682SOL    HW2 5934   1.085   2.575   4.510
 1683SOL     OW 5935   1.773   2.470   3.950
 1683SOL    HW1 5936   1.747   2.464   3.858
 1683SOL    HW2 5937   1.743   2.388   3.989
 1684SOL     OW 5938   0.754   3.004   4.765
 1684SOL    HW1 5939   0.685   3.040   4.822
 1684SOL    HW2 5940   0.791   3.081   4.721
 1685SOL     OW 5941   0.867   2.634   5.544
 1685SOL    HW1 5942   0.850   2.704   5.607
 1685SOL    HW2 5943   0.889   2.680   5.463
 1686SOL     OW 5944   0.685   2.865   4.371
 1686SOL    HW1 5945   0.750   2.854   4.440
 1686SOL    HW2 5946   0.616   2.917   4.412
 1687SOL     OW 5947   0.711   3.012   5.537
 1687SOL    HW1 5948   0.758   3.091   5.564
 1687SOL    HW2 5949   0.629   3.044   5.500
 1688SOL     OW 5950   0.335   3.282   4.793
 1688SOL    HW1 5951   0.253   3.264   4.747
 1688SOL    HW2 5952   0.385   3.337   4.732
 1689SOL     OW 5953   1.454   3.372   5.082
 1689SOL    HW1 5954   1.507   3.451   5.094
 1689SOL    HW2 5955   1.393   3.372   5.155
 1690SOL     OW 5956   0.446   2.266   5.215
 1690SOL    HW1 5957   0.525   2.211   5.219
 1690SOL    HW2 5958   0.373   2.204   5.221
 1691SOL     OW 5959   1.615   2.358   4.415
 1691SOL    HW1 5960   1.528   2.377   4.381
 1691SOL    HW2 5961   1.617   2.400   4.501
 1692SOL     OW 5962   0.246   3.553   4.201
 1692SOL    HW1 5963   0.230   3.638   4.242
 1692SOL    HW2 5964   0.314   3.570   4.136
 1693SOL     OW 5965   1.136   3.203   5.417
 1693SOL    HW1 5966   1.176   3.199   5.504
 1693SOL    HW2 5967   1.083   3.123   5.411
 1694SOL     OW 5968   0.250   3.288   4.251
 1694SOL    HW1 5969   0.240   3.383   4.254
 1694SOL    HW2 5970   0.187   3.256   4.316
 1695SOL     OW 5971   0.249   2.944   4.609
 1695SOL    HW1 5972   0.264   2.854   4.636
 1695SOL    HW2 5973   0.188   2.979   4.674
 1696SOL     OW 5974   0.613   3.653   5.155
 1696SOL    HW1 5975   0.530   3.635   5.199
 1696SOL    HW2 5976   0.634   3.743   5.179
 1697SOL     OW 5977   0.579   2.849   3.862
 1697SOL    HW1 5978   0.627   2.891   3.792
 1697SOL    HW2 5979   0.623   2.878   3.942
 1698SOL     OW 5980   0.137   2.508   4.298
 1698SOL    HW1 5981   0.088   2.427   4.316
 1698SOL    HW2 5982   0.106   2.569   4.365
 1699SOL     OW 5983   1.842   3.621   4.058
 1699SOL    HW1 5984   1.906   3.593   4.124
 1699SOL    HW2 5985   1.866   3.712   4.039
 1700SOL     OW 5986   0.032   3.464   3.865
 1700SOL    HW1 5987   0.021   3.369   3.862
 1700SOL    HW2 5988   0.022   3.487   3.958
 1701SOL     OW 5989   1.689   2.765   4.358
 1701SOL    HW1 5990   1.773   2.732   4.326
 1701SOL    HW2 5991   1.662   2.829   4.291
 1702SOL     OW 5992   1.646   2.967   4.156
 1702SOL    HW1 5993   1.731   2.973   4.113
 1702SOL    HW2 5994   1.650   3.030   4.228
 1703SOL     OW 5995   0.110   2.626   5.304
 1703SOL    HW1 5996   0.202   2.623   5.276
 1703SOL    HW2 5997   0.094   2.718   5.325
 1704SOL     OW 5998   0.614   3.247   4.460
 1704SOL    HW1 5999   0.567   3.165   4.470
 1704SOL    HW2 6000   0.598   3.274   4.370
 1705SOL     OW 6001   1.286   3.103   5.149
 1705SOL    HW1 6002   1.305   3.029   5.090
 1705SOL    HW2 6003   1.352   3.095   5.217
 1706SOL     OW 6004   0.816   1.862   4.233
 1706SOL    HW1 6005   0.856   1.947   4.213
 1706SOL    HW2 6006   0.723   1.880   4.242
 1707SOL     OW 6007   0.179   2.802   5.004
 1707SOL    HW1 6008   0.271   2.784   4.983
 1707SOL    HW2 6009   0.133   2.789   4.921
 1708SOL     OW 6010   1.532   2.855   3.923
 1708SOL    HW1 6011   1.461   2.798   3.953
 1708SOL    HW2 6012   1.572   2.889   4.003
 1709SOL     OW 6013   1.186   3.669   5.347
 1709SOL    HW1 6014   1.195   3.727   5.271
 1709SOL    HW2 6015   1.200   3.581   5.312
 1710SOL     OW 6016   0.332   2.118   5.525
 1710SOL    HW1 6017   0.378   2.194   5.560
 1710SOL    HW2 6018   0.243   2.125   5.561
 1711SOL     OW 6019   1.465   3.288   4.674
 1711SOL    HW1 6020   1.401   3.302   4.743
 1711SOL    HW2 6021   1.443   3.202   4.638
 1712SOL     OW 6022   1.661   3.599   4.302
 1712SOL    HW1 6023   1.640   3.573   4.213
 1712SOL    HW2 6024   1.631   3.527   4.357
 1713SOL     OW 6025   0.598   2.582   3.991
 1713SOL    HW1 6026   0.600   2.664   3.940
 1713SOL    HW2 6027   0.532   2.598   4.058
 1714SOL     OW 6028   1.581   3.533   4.033
 1714SOL    HW1 6029   1.671   3.564   4.026
 1714SOL    HW2 6030   1.553   3.516   3.943
 1715SOL     OW 6031   0.800   2.479   5.175
 1715SOL    HW1 6032   0.770   2.455   5.263
 1715SOL    HW2 6033   0.757   2.416   5.118
 1716SOL     OW 6034   1.383   2.330   5.406
 1716SOL    HW1 6035   1.392   2.379   5.487
 1716SOL    HW2 6036   1.473   2.316   5.376
 1717SOL     OW 6037   0.958   2.748   5.305
 1717SOL    HW1 6038   1.012   2.677   5.269
 1717SOL    HW2 6039   0.911   2.783   5.230
 1718SOL     OW 6040   0.985   2.263   4.983
 1718SOL    HW1 6041   0.894   2.286   5.002
 1718SOL    HW2 6042   0.982   2.229   4.893
 1719SOL     OW 6043   1.051   2.560   4.151
 1719SOL    HW1 6044   1.065   2.553   4.245
 1719SOL    HW2 6045   0.969   2.514   4.136
 1720SOL     OW 6046   0.096   2.690   4.509
 1720SOL    HW1 6047   0.182   2.674   4.546
 1720SOL    HW2 6048   0.042   2.714   4.584
 1721SOL     OW 6049   0.125   3.715   5.300
 1721SOL    HW1 6050   0.117   3.694   5.393
 1721SOL    HW2 6051   0.044   3.682   5.261
 1722SOL     OW 6052   0.894   2.210   3.919
 1722SOL    HW1 6053   0.934   2.272   3.858
 1722SOL    HW2 6054   0.907   2.125   3.878
 1723SOL     OW 6055   1.378   3.006   4.263
 1723SOL    HW1 6056   1.455   2.991   4.209
 1723SOL    HW2 6057   1.325   3.067   4.213
 1724SOL     OW 6058   0.552   2.044   4.618
 1724SOL    HW1 6059   0.554   2.075   4.708
 1724SOL    HW2 6060   0.552   2.123   4.565
 1725SOL     OW 6061   1.006   3.307   4.196
 1725SOL    HW1 6062   0.969   3.380   4.147
 1725SOL    HW2 6063   0.986   3.327   4.288
 1726SOL     OW 6064   0.356   3.672   4.582
 1726SOL    HW1 6065   0.398   3.587   4.593
 1726SOL    HW2 6066   0.426   3.736   4.599
 1727SOL     OW 6067   1.225   3.402   5.240
 1727SOL    HW1 6068   1.212   3.328   5.299
 1727SOL    HW2 6069   1.163   3.387   5.169
 1728SOL     OW 6070   0.315   2.816   3.978
 1728SOL    HW1 6071   0.399   2.839   3.938
 1728SOL    HW2 6072   0.300   2.725   3.951
 1729SOL     OW 6073   1.474   2.613   4.443
 1729SOL    HW1 6074   1.465   2.587   4.534
 1729SOL    HW2 6075   1.554   2.665   4.440
 1730SOL     OW 6076   0.468   3.124   5.459
 1730SOL    HW1 6077   0.441   3.131   5.367
 1730SOL    HW2 6078   0.386   3.128   5.509
 1731SOL     OW 6079   1.122   3.640   3.955
 1731SOL    HW1 6080   1.048   3.598   4.000
 1731SOL    HW2 6081   1.145   3.578   3.885
 1732SOL     OW 6082   0.198   2.139   5.210
 1732SOL    HW1 6083   0.138   2.214   5.215
 1732SOL    HW2 6084   0.182   2.090   5.290
 1733SOL     OW 6085   1.629   3.242   3.812
 1733SOL    HW1 6086   1.587   3.327   3.797
 1733SOL    HW2 6087   1.560   3.178   3.793
 1734SOL     OW 6088   0.469   3.606   4.037
 1734SOL    HW1 6089   0.511   3.659   4.105
 1734SOL    HW2 6090   0.542   3.570   3.986
 1735SOL     OW 6091   1.399   1.969   4.157
 1735SOL    HW1 6092   1.387   1.944   4.065
 1735SOL    HW2 6093   1.494   1.979   4.167
 1736SOL     OW 6094   0.261   3.655   4.954
 1736SOL    HW1 6095   0.305   3.580   4.993
 1736SOL    HW2 6096   0.224   3.623   4.872
 1737SOL     OW 6097   0.938   3.561   4.622
 1737SOL    HW1 6098   1.015   3.508   4.644
 1737SOL    HW2 6099   0.894   3.511   4.553
 1738SOL     OW 6100   0.395   2.556   4.197
 1738SOL    HW1 6101   0.418   2.464   4.208
 1738SOL    HW2 6102   0.303   2.561   4.222
 1739SOL     OW 6103   0.636   1.986   3.827
 1739SOL    HW1 6104   0.702   1.919   3.843
 1739SOL    HW2 6105   0.587   1.953   3.752
 1740SOL     OW 6106   0.768   2.142   5.482
 1740SOL    HW1 6107   0.843   2.083   5.479
 1740SOL    HW2 6108   0.716   2.111   5.556
 1741SOL     OW 6109   0.877   3.385   4.917
 1741SOL    HW1 6110   0.860   3.348   4.830
 1741SOL    HW2 6111   0.946   3.330   4.954
 1742SOL     OW 6112   0.815   3.257   4.664
 1742SOL    HW1 6113   0.899   3.245   4.619
 1742SOL    HW2 6114   0.750   3.258   4.594
 1743SOL     OW 6115   0.929   2.368   4.629
 1743SOL    HW1 6116   0.906   2.360   4.536
 1743SOL    HW2 6117   0.954   2.279   4.655
 1744SOL     OW 6118   0.553   1.924   4.225
 1744SOL    HW1 6119   0.472   1.922   4.276
 1744SOL    HW2 6120   0.545   2.002   4.170
 1745SOL     OW 6121   1.429   3.060   3.765
 1745SOL    HW1 6122   1.458   2.984   3.815
 1745SOL    HW2 6123   1.342   3.081   3.802
 1746SOL     OW 6124   0.295   1.908   3.902
 1746SOL    HW1 6125   0.358   1.975   3.874
 1746SOL    HW2 6126   0.348   1.842   3.947
 1747SOL     OW 6127   0.938   2.109   4.184
 1747SOL    HW1 6128   0.911   2.150   4.102
 1747SOL    HW2 6129   1.033   2.123   4.188
 1748SOL     OW 6130   1.078   2.532   5.184
 1748SOL    HW1 6131   0.992   2.490   5.186
 1748SOL    HW2 6132   1.140   2.460   5.176
 1749SOL     OW 6133   1.224   3.432   4.518
 1749SOL    HW1 6134   1.240   3.499   4.452
 1749SOL    HW2 6135   1.292   3.446   4.584
 1750SOL     OW 6136   0.467   3.012   4.459
 1750SOL    HW1 6137   0.396   2.993   4.521
 1750SOL    HW2 6138   0.427   2.996   4.373
 1751SOL     OW 6139   1.269   3.656   4.333
 1751SOL    HW1 6140   1.315   3.717   4.275
 1751SOL    HW2 6141   1.202   3.709   4.375
 1752SOL     OW 6142   1.023   2.403   3.747
 1752SOL    HW1 6143   0.980   2.487   3.727
 1752SOL    HW2 6144   1.089   2.425   3.813
 1753SOL     OW 6145   0.085   2.389   5.135
 1753SOL    HW1 6146   0.147   2.387   5.063
 1753SOL    HW2 6147   0.066   2.482   5.148
 1754SOL     OW 6148   0.560   2.091   4.891
 1754SOL    HW1 6149   0.603   2.012   4.924
 1754SOL    HW2 6150   0.469   2.081   4.917
 1755SOL     OW 6151   0.871   2.322   4.364
 1755SOL    HW1 6152   0.822   2.376   4.302
 1755SOL    HW2 6153   0.889   2.241   4.316
 1756SOL     OW 6154   1.021   1.914   4.473
 1756SOL    HW1 6155   0.959   1.910   4.400
 1756SOL    HW2 6156   0.997   1.840   4.529
 1757SOL     OW 6157   1.412   3.044   4.561
 1757SOL    HW1 6158   1.347   2.974   4.562
 1757SOL    HW2 6159   1.446   3.044   4.472
 1758SOL     OW 6160   1.848   2.676   4.111
 1758SOL    HW1 6161   1.906   2.622   4.164
 1758SOL    HW2 6162   1.820   2.618   4.040
 1759SOL     OW 6163   0.491   3.280   3.883
 1759SOL    HW1 6164   0.414   3.251   3.932
 1759SOL    HW2 6165   0.475   3.251   3.793
 1760SOL     OW 6166   1.672   3.132   4.365
 1760SOL    HW1 6167   1.766   3.139   4.381
 1760SOL    HW2 6168   1.637   3.218   4.390
 1761SOL     OW 6169   1.394   2.434   3.794
 1761SOL    HW1 6170   1.334   2.414   3.867
 1761SOL    HW2 6171   1.480   2.409   3.826
 1762SOL     OW 6172   0.525   2.122   4.041
 1762SOL    HW1 6173   0.571   2.076   3.971
 1762SOL    HW2 6174   0.505   2.208   4.004
 1763SOL     OW 6175   1.745   3.109   5.344
 1763SOL    HW1 6176   1.822   3.054   5.355
 1763SOL    HW2 6177   1.781   3.198   5.334
 1764SOL     OW 6178   1.057   3.216   5.056
 1764SOL    HW1 6179   0.983   3.185   5.107
 1764SOL    HW2 6180   1.134   3.176   5.097
 1765SOL     OW 6181   1.609   3.488   5.378
 1765SOL    HW1 6182   1.603   3.522   5.289
 1765SOL    HW2 6183   1.690   3.438   5.380
 1766SOL     OW 6184   1.123   3.067   4.823
 1766SOL    HW1 6185   1.066   3.107   4.889
 1766SOL    HW2 6186   1.092   3.103   4.740
 1767SOL     OW 6187   1.574   2.978   4.774
 1767SOL    HW1 6188   1.588   3.045   4.841
 1767SOL    HW2 6189   1.521   3.022   4.707
 1768SOL     OW 6190   0.915   1.957   5.122
 1768SOL    HW1 6191   0.938   1.940   5.031
 1768SOL    HW2 6192   0.994   1.995   5.160
 1769SOL     OW 6193   0.983   2.976   5.446
 1769SOL    HW1 6194   0.892   2.994   5.467
 1769SOL    HW2 6195   0.981   2.898   5.390
 1770SOL     OW 6196   0.709   2.924   4.096
 1770SOL    HW1 6197   0.695   2.907   4.189
 1770SOL    HW2 6198   0.784   2.870   4.072
 1771SOL     OW 6199   0.430   2.688   4.966
 1771SOL    HW1 6200   0.499   2.699   5.031
 1771SOL    HW2 6201   0.373   2.621   5.004
 1772SOL     OW 6202   0.062   3.438   5.066
 1772SOL    HW1 6203   0.035   3.528   5.048
 1772SOL    HW2 6204   0.158   3.443   5.072
 1773SOL     OW 6205   0.346   2.971   4.217
 1773SOL    HW1 6206   0.355   3.044   4.156
 1773SOL    HW2 6207   0.346   2.893   4.161
 1774SOL     OW 6208   0.561   2.395   4.579
 1774SOL    HW1 6209   0.574   2.455   4.506
 1774SOL    HW2 6210   0.622   2.425   4.646
 1775SOL     OW 6211   1.248   3.211   4.113
 1775SOL    HW1 6212   1.304   3.282   4.144
 1775SOL    HW2 6213   1.161   3.232   4.147
 1776SOL     OW 6214   1.281   3.320   4.871
 1776SOL    HW1 6215   1.335   3.324   4.950
 1776SOL    HW2 6216   1.226   3.243   4.883
 1777SOL     OW 6217   1.563   2.499   4.171
 1777SOL    HW1 6218   1.534   2.550   4.246
 1777SOL    HW2 6219   1.626   2.556   4.126
 1778SOL     OW 6220   0.346   3.395   5.038
 1778SOL    HW1 6221   0.333   3.347   4.956
 1778SOL    HW2 6222   0.441   3.404   5.045
 1779SOL     OW 6223   0.483   2.623   5.392
 1779SOL    HW1 6224   0.510   2.660   5.308
 1779SOL    HW2 6225   0.521   2.535   5.393
 1780SOL     OW 6226   1.574   2.697   5.415
 1780SOL    HW1 6227   1.489   2.734   5.389
 1780SOL    HW2 6228   1.597   2.637   5.344
 1781SOL     OW 6229   0.994   1.985   5.477
 1781SOL    HW1 6230   1.052   2.057   5.451
 1781SOL    HW2 6231   1.042   1.906   5.454
 1782SOL     OW 6232   0.497   1.905   5.471
 1782SOL    HW1 6233   0.456   1.848   5.407
 1782SOL    HW2 6234   0.437   1.979   5.480
 1783SOL     OW 6235   0.590   2.735   4.749
 1783SOL    HW1 6236   0.619   2.826   4.750
 1783SOL    HW2 6237   0.533   2.727   4.825
 1784SOL     OW 6238   1.204   2.390   3.990
 1784SOL    HW1 6239   1.212   2.312   4.045
 1784SOL    HW2 6240   1.161   2.455   4.047
 1785SOL     OW 6241   0.302   2.053   4.966
 1785SOL    HW1 6242   0.262   2.086   5.047
 1785SOL    HW2 6243   0.285   1.959   4.968
 1786SOL     OW 6244   0.038   3.174   5.010
 1786SOL    HW1 6245   0.075   3.127   5.085
 1786SOL    HW2 6246   0.044   3.267   5.034
 1787SOL     OW 6247   0.725   2.494   4.782
 1787SOL    HW1 6248   0.800   2.477   4.724
 1787SOL    HW2 6249   0.697   2.583   4.760
 1788SOL     OW 6250   1.741   2.821   5.581
 1788SOL    HW1 6251   1.688   2.776   5.516
 1788SOL    HW2 6252   1.678   2.859   5.642
 1789SOL     OW 6253   0.312   1.932   4.343
 1789SOL    HW1 6254   0.287   2.021   4.369
 1789SOL    HW2 6255   0.309   1.881   4.423
 1790SOL     OW 6256   1.611   2.234   4.095
 1790SOL    HW1 6257   1.643   2.182   4.168
 1790SOL    HW2 6258   1.587   2.318   4.135
 1791SOL     OW 6259   1.018   2.620   4.681
 1791SOL    HW1 6260   1.023   2.639   4.775
 1791SOL    HW2 6261   0.996   2.527   4.676
 1792SOL     OW 6262   0.982   3.428   5.441
 1792SOL    HW1 6263   0.967   3.473   5.358
 1792SOL    HW2 6264   1.025   3.346   5.418
 1793SOL     OW 6265   1.857   3.374   5.329
 1793SOL    HW1 6266   1.874   3.395   5.237
 1793SOL    HW2 6267   1.941   3.389   5.373
 1794SOL     OW 6268   0.347   2.796   5.542
 1794SOL    HW1 6269   0.419   2.826   5.597
 1794SOL    HW2 6270   0.386   2.729   5.486
 1795SOL     OW 6271   1.531   2.132   3.852
 1795SOL    HW1 6272   1.464   2.070   3.879
 1795SOL    HW2 6273   1.563   2.171   3.934
 1796SOL     OW 6274   1.292   2.688   3.755
 1796SOL    HW1 6275   1.334   2.602   3.758
 1796SOL    HW2 6276   1.322   2.727   3.673
 1797SOL     OW 6277   1.065   3.198   4.576
 1797SOL    HW1 6278   1.069   3.126   4.514
 1797SOL    HW2 6279   1.127   3.262   4.542
 1798SOL     OW 6280   0.318   2.673   4.671
 1798SOL    HW1 6281   0.412   2.690   4.668
 1798SOL    HW2 6282   0.311   2.582   4.699
 1799SOL     OW 6283   0.330   2.387   4.713
 1799SOL    HW1 6284   0.292   2.300   4.697
 1799SOL    HW2 6285   0.409   2.389   4.659
 1800SOL     OW 6286   1.128   2.236   5.404
 1800SOL    HW1 6287   1.082   2.294   5.464
 1800SOL    HW2 6288   1.218   2.268   5.404
 1801SOL     OW 6289   1.158   2.067   5.191
 1801SOL    HW1 6290   1.149   2.125   5.266
 1801SOL    HW2 6291   1.161   2.125   5.115
 1802SOL     OW 6292   4.491   3.184   3.930
 1802SOL    HW1 6293   4.399   3.200   3.912
 1802SOL    HW2 6294   4.496   3.091   3.951
 1803SOL     OW 6295   0.098   3.638   4.664
 1803SOL    HW1 6296   0.059   3.586   4.594
 1803SOL    HW2 6297   0.186   3.659   4.633
 1804SOL     OW 6298   0.496   3.436   4.631
 1804SOL    HW1 6299   0.564   3.498   4.655
 1804SOL    HW2 6300   0.540   3.373   4.574
 1805SOL     OW 6301   0.985   2.652   4.950
 1805SOL    HW1 6302   1.041   2.630   5.024
 1805SOL    HW2 6303   0.899   2.616   4.973
 1806SOL     OW 6304   0.034   2.426   4.828
 1806SOL    HW1 6305   0.118   2.392   4.797
 1806SOL    HW2 6306   0.018   2.378   4.909
 1807SOL     OW 6307   0.179   2.383   5.438
 1807SOL    HW1 6308   0.258   2.352   5.394
 1807SOL    HW2 6309   0.155   2.463   5.393
 1808SOL     OW 6310   1.343   2.818   5.363
 1808SOL    HW1 6311   1.380   2.906   5.370
 1808SOL    HW2 6312   1.299   2.817   5.278
 1809SOL     OW 6313   0.817   2.431   4.084
 1809SOL    HW1 6314   0.820   2.357   4.024
 1809SOL    HW2 6315   0.743   2.484   4.053
 1810SOL     OW 6316   0.274   3.423   5.465
 1810SOL    HW1 6317   0.216   3.476   5.520
 1810SOL    HW2 6318   0.254   3.333   5.489
 1811SOL     OW 6319   0.696   2.317   4.986
 1811SOL    HW1 6320   0.648   2.240   4.954
 1811SOL    HW2 6321   0.694   2.378   4.912
 1812SOL     OW 6322   0.928   3.541   5.191
 1812SOL    HW1 6323   0.901   3.506   5.106
 1812SOL    HW2 6324   0.922   3.636   5.181
 1813SOL     OW 6325   0.472   2.352   3.909
 1813SOL    HW1 6326   0.531   2.423   3.933
 1813SOL    HW2 6327   0.388   2.395   3.893
 1814SOL     OW 6328   0.162   3.003   5.185
 1814SOL    HW1 6329   0.145   2.958   5.268
 1814SOL    HW2 6330   0.169   2.932   5.120
 1815SOL     OW 6331   1.293   2.903   4.961
 1815SOL    HW1 6332   1.357   2.865   4.902
 1815SOL    HW2 6333   1.232   2.949   4.904
 1816SOL     OW 6334   1.310   2.723   4.030
 1816SOL    HW1 6335   1.236   2.689   4.080
 1816SOL    HW2 6336   1.286   2.706   3.939
 1817SOL     OW 6337   1.772   3.608   4.873
 1817SOL    HW1 6338   1.833   3.636   4.805
 1817SOL    HW2 6339   1.750   3.518   4.851
 1818SOL     OW 6340   1.241   3.596   4.837
 1818SOL    HW1 6341   1.323   3.616   4.791
 1818SOL    HW2 6342   1.246   3.502   4.856
 1819SOL     OW 6343   0.067   3.046   4.774
 1819SOL    HW1 6344   0.064   3.078   4.864
 1819SOL    HW2 6345   0.025   3.116   4.723
 1820SOL     OW 6346   0.679   3.528   5.454
 1820SOL    HW1 6347   0.622   3.605   5.448
 1820SOL    HW2 6348   0.742   3.540   5.384
 1821SOL     OW 6349   1.716   1.996   4.244
 1821SOL    HW1 6350   1.772   1.966   4.172
 1821SOL    HW2 6351   1.687   1.915   4.287
 1822SOL     OW 6352   1.391   3.430   4.209
 1822SOL    HW1 6353   1.451   3.462   4.142
 1822SOL    HW2 6354   1.342   3.507   4.237
 1823SOL     OW 6355   0.119   3.668   5.571
 1823SOL    HW1 6356   0.079   3.596   5.619
 1823SOL    HW2 6357   0.182   3.706   5.633
 1824SOL     OW 6358   1.273   2.791   4.389
 1824SOL    HW1 6359   1.346   2.729   4.395
 1824SOL    HW2 6360   1.307   2.863   4.337
 1825SOL     OW 6361   0.813   3.135   5.154
 1825SOL    HW1 6362   0.786   3.175   5.236
 1825SOL    HW2 6363   0.744   3.157   5.092
 1826SOL     OW 6364   0.672   3.482   3.879
 1826SOL    HW1 6365   0.682   3.494   3.785
 1826SOL    HW2 6366   0.617   3.404   3.888
 1827SOL     OW 6367   1.625   3.590   5.116
 1827SOL    HW1 6368   1.677   3.597   5.035
 1827SOL    HW2 6369   1.613   3.681   5.143
 1828SOL     OW 6370   0.264   2.182   4.443
 1828SOL    HW1 6371   0.181   2.220   4.415
 1828SOL    HW2 6372   0.254   2.169   4.537
 1829SOL     OW 6373   1.207   3.468   3.756
 1829SOL    HW1 6374   1.197   3.376   3.783
 1829SOL    HW2 6375   1.142   3.479   3.687
 1830SOL     OW 6376   0.828   2.868   5.097
 1830SOL    HW1 6377   0.868   2.866   5.010
 1830SOL    HW2 6378   0.825   2.961   5.119
 1831SOL     OW 6379   0.916   2.773   4.014
 1831SOL    HW1 6380   0.977   2.805   3.947
 1831SOL    HW2 6381   0.964   2.703   4.059
 1832SOL     OW 6382   1.492   3.487   3.767
 1832SOL    HW1 6383   1.397   3.481   3.753
 1832SOL    HW2 6384   1.528   3.494   3.679
 1833SOL     OW 6385   0.373   3.170   5.214
 1833SOL    HW1 6386   0.355   3.248   5.163
 1833SOL    HW2 6387   0.298   3.113   5.198
 1834SOL     OW 6388   1.609   3.176   4.975
 1834SOL    HW1 6389   1.682   3.160   5.035
 1834SOL    HW2 6390   1.551   3.236   5.022
 1835SOL     OW 6391   1.053   2.969   4.430
 1835SOL    HW1 6392   0.981   2.919   4.470
 1835SOL    HW2 6393   1.115   2.903   4.400
 1836SOL     OW 6394   1.006   2.105   4.695
 1836SOL    HW1 6395   1.016   2.059   4.611
 1836SOL    HW2 6396   1.009   2.036   4.761
 1837SOL     OW 6397   0.605   3.351   4.206
 1837SOL    HW1 6398   0.647   3.302   4.136
 1837SOL    HW2 6399   0.529   3.393   4.165
 1838SOL     OW 6400   0.252   3.206   4.000
 1838SOL    HW1 6401   0.157   3.204   3.986
 1838SOL    HW2 6402   0.263   3.238   4.090
 1839SOL     OW 6403   0.115   2.868   5.418
 1839SOL    HW1 6404   0.052   2.913   5.475
 1839SOL    HW2 6405   0.194   2.859   5.472
 1840SOL     OW 6406   0.674   2.062   5.224
 1840SOL    HW1 6407   0.757   2.039   5.182
 1840SOL    HW2 6408   0.698   2.091   5.312
 1841SOL     OW 6409   0.072   2.187   3.756
 1841SOL    HW1 6410   4.478   2.199   3.763
 1841SOL    HW2 6411   0.104   2.269   3.717
 1842SOL     OW 6412   0.086   2.038   4.028
 1842SOL    HW1 6413   0.079   2.110   3.966
 1842SOL    HW2 6414   0.162   1.988   3.998
 1843SOL     OW 6415   1.179   3.202   3.841
 1843SOL    HW1 6416   1.088   3.171   3.843
 1843SOL    HW2 6417   1.206   3.201   3.932
 1844SOL     OW 6418   0.624   2.693   5.154
 1844SOL    HW1 6419   0.680   2.770   5.140
 1844SOL    HW2 6420   0.686   2.620   5.162
 1845SOL     OW 6421   1.484   3.638   4.702
 1845SOL    HW1 6422   1.506   3.699   4.632
 1845SOL    HW2 6423   1.567   3.625   4.748
 1846SOL     OW 6424   0.715   2.422   5.425
 1846SOL    HW1 6425   0.751   2.485   5.488
 1846SOL    HW2 6426   0.742   2.337   5.458
 1847SOL     OW 6427   1.473   3.062   5.352
 1847SOL    HW1 6428   1.454   3.085   5.443
 1847SOL    HW2 6429   1.566   3.080   5.342
 1848SOL     OW 6430   0.380   3.605   5.289
 1848SOL    HW1 6431   0.295   3.646   5.271
 1848SOL    HW2 6432   0.359   3.526   5.337
 1849SOL     OW 6433   1.218   2.183   4.184
 1849SOL    HW1 6434   1.280   2.110   4.174
 1849SOL    HW2 6435   1.250   2.231   4.260
 1850SOL     OW 6436   0.590   2.599   4.393
 1850SOL    HW1 6437   0.628   2.686   4.378
 1850SOL    HW2 6438   0.522   2.591   4.326
 1851SOL     OW 6439   0.864   3.229   3.759
 1851SOL    HW1 6440   0.824   3.256   3.842
 1851SOL    HW2 6441   0.880   3.311   3.712
 1852SOL     OW 6442   0.661   3.653   4.669
 1852SOL    HW1 6443   0.640   3.743   4.645
 1852SOL    HW2 6444   0.756   3.647   4.660
 1853SOL     OW 6445   0.867   2.831   4.578
 1853SOL    HW1 6446   0.916   2.758   4.616
 1853SOL    HW2 6447   0.832   2.878   4.653
 1854SOL     OW 6448   1.079   2.851   3.813
 1854SOL    HW1 6449   1.057   2.901   3.734
 1854SOL    HW2 6450   1.154   2.797   3.787
 1855SOL     OW 6451   1.855   3.407   4.570
 1855SOL    HW1 6452   1.783   3.409   4.506
 1855SOL    HW2 6453   1.814   3.374   4.650
 1856SOL     OW 6454   0.231   3.167   5.582
 1856SOL    HW1 6455   0.155   3.113   5.560
 1856SOL    HW2 6456   0.226   3.178   5.677
 1857SOL     OW 6457   0.108   3.096   4.392
 1857SOL    HW1 6458   0.121   3.051   4.475
 1857SOL    HW2 6459   0.167   3.052   4.331
 1858SOL     OW 6460   0.683   3.265   5.353
 1858SOL    HW1 6461   0.602   3.221   5.381
 1858SOL    HW2 6462   0.676   3.353   5.390
 1859SOL     OW 6463   0.436   2.295   4.250
 1859SOL    HW1 6464   0.460   2.222   4.194
 1859SOL    HW2 6465   0.384   2.256   4.320
 1860SOL     OW 6466   1.710   3.354   4.797
 1860SOL    HW1 6467   1.625   3.337   4.755
 1860SOL    HW2 6468   1.713   3.293   4.871
 1861SOL     OW 6469   0.301   2.352   4.976
 1861SOL    HW1 6470   0.374   2.307   5.019
 1861SOL    HW2 6471   0.331   2.367   4.887
 1862SOL     OW 6472   0.828   3.440   4.401
 1862SOL    HW1 6473   0.814   3.493   4.323
 1862SOL    HW2 6474   0.751   3.382   4.405
 1863SOL     OW 6475   1.007   1.881   4.868
 1863SOL    HW1 6476   0.951   1.815   4.826
 1863SOL    HW2 6477   1.093   1.840   4.872
 1864SOL     OW 6478   0.772   3.195   4.038
 1864SOL    HW1 6479   0.741   3.104   4.044
 1864SOL    HW2 6480   0.854   3.195   4.088
 1865SOL     OW 6481   0.621   3.418   5.010
 1865SOL    HW1 6482   0.623   3.499   5.059
 1865SOL    HW2 6483   0.708   3.411   4.971
 1866SOL     OW 6484   1.351   1.915   3.890
 1866SOL    HW1 6485   1.380   1.853   3.823
 1866SOL    HW2 6486   1.264   1.884   3.916
 1867SOL     OW 6487   1.297   2.327   4.414
 1867SOL    HW1 6488   1.243   2.406   4.412
 1867SOL    HW2 6489   1.273   2.283   4.496
 1868SOL     OW 6490   0.041   2.913   4.013
 1868SOL    HW1 6491   0.135   2.896   4.002
 1868SOL    HW2 6492   0.021   2.882   4.101
 1869SOL     OW 6493   0.885   3.515   4.066
 1869SOL    HW1 6494   0.812   3.497   4.006
 1869SOL    HW2 6495   0.855   3.590   4.118
 1870SOL     OW 6496   0.248   2.488   5.706
 1870SOL    HW1 6497   0.174   2.468   5.763
 1870SOL    HW2 6498   0.215   2.474   5.618
 1871SOL     OW 6499   0.213   2.137   6.577
 1871SOL    HW1 6500   0.249   2.110   6.662
 1871SOL    HW2 6501   0.137   2.080   6.565
 1872SOL     OW 6502   0.008   2.254   6.226
 1872SOL    HW1 6503   4.427   2.286   6.266
 1872SOL    HW2 6504   4.482   2.174   6.180
 1873SOL     OW 6505   0.568   3.150   6.762
 1873SOL    HW1 6506   0.480   3.155   6.723
 1873SOL    HW2 6507   0.583   3.237   6.797
 1874SOL     OW 6508   1.565   3.376   6.292
 1874SOL    HW1 6509   1.524   3.350   6.375
 1874SOL    HW2 6510   1.493   3.374   6.229
 1875SOL     OW 6511   1.134   2.570   6.291
 1875SOL    HW1 6512   1.184   2.651   6.282
 1875SOL    HW2 6513   1.085   2.580   6.372
 1876SOL     OW 6514   1.807   2.425   5.799
 1876SOL    HW1 6515   1.750   2.481   5.746
 1876SOL    HW2 6516   1.752   2.400   5.874
 1877SOL     OW 6517   0.754   3.004   6.626
 1877SOL    HW1 6518   0.686   3.038   6.683
 1877SOL    HW2 6519   0.790   3.082   6.583
 1878SOL     OW 6520   0.867   2.635   7.407
 1878SOL    HW1 6521   0.853   2.705   7.470
 1878SOL    HW2 6522   0.890   2.679   7.326
 1879SOL     OW 6523   0.686   2.866   6.234
 1879SOL    HW1 6524   0.750   2.853   6.303
 1879SOL    HW2 6525   0.616   2.917   6.274
 1880SOL     OW 6526   0.711   3.012   7.399
 1880SOL    HW1 6527   0.758   3.091   7.426
 1880SOL    HW2 6528   0.629   3.044   7.363
 1881SOL     OW 6529   0.335   3.282   6.655
 1881SOL    HW1 6530   0.253   3.264   6.610
 1881SOL    HW2 6531   0.385   3.337   6.594
 1882SOL     OW 6532   1.460   3.363   6.941
 1882SOL    HW1 6533   1.511   3.443   6.950
 1882SOL    HW2 6534   1.397   3.366   7.014
 1883SOL     OW 6535   0.445   2.267   7.076
 1883SOL    HW1 6536   0.524   2.214   7.082
 1883SOL    HW2 6537   0.373   2.203   7.083
 1884SOL     OW 6538   0.246   3.553   6.063
 1884SOL    HW1 6539   0.230   3.638   6.104
 1884SOL    HW2 6540   0.314   3.571   5.998
 1885SOL     OW 6541   1.136   3.203   7.278
 1885SOL    HW1 6542   1.177   3.199   7.365
 1885SOL    HW2 6543   1.084   3.124   7.272
 1886SOL     OW 6544   0.250   3.288   6.113
 1886SOL    HW1 6545   0.241   3.383   6.116
 1886SOL    HW2 6546   0.187   3.256   6.177
 1887SOL     OW 6547   0.250   2.944   6.471
 1887SOL    HW1 6548   0.264   2.854   6.498
 1887SOL    HW2 6549   0.189   2.979   6.536
 1888SOL     OW 6550   0.613   3.653   7.017
 1888SOL    HW1 6551   0.530   3.634   7.061
 1888SOL    HW2 6552   0.634   3.743   7.041
 1889SOL     OW 6553   0.579   2.848   5.724
 1889SOL    HW1 6554   0.627   2.892   5.654
 1889SOL    HW2 6555   0.623   2.878   5.804
 1890SOL     OW 6556   1.588   1.988   7.054
 1890SOL    HW1 6557   1.619   2.065   7.006
 1890SOL    HW2 6558   1.576   2.018   7.143
 1891SOL     OW 6559   0.137   2.508   6.160
 1891SOL    HW1 6560   0.089   2.428   6.177
 1891SOL    HW2 6561   0.107   2.570   6.227
 1892SOL     OW 6562   1.842   3.620   5.916
 1892SOL    HW1 6563   1.903   3.592   5.984
 1892SOL    HW2 6564   1.865   3.711   5.899
 1893SOL     OW 6565   0.033   3.464   5.727
 1893SOL    HW1 6566   0.020   3.369   5.724
 1893SOL    HW2 6567   0.022   3.487   5.820
 1894SOL     OW 6568   0.112   2.625   7.168
 1894SOL    HW1 6569   0.203   2.623   7.139
 1894SOL    HW2 6570   0.095   2.718   7.188
 1895SOL     OW 6571   0.614   3.247   6.322
 1895SOL    HW1 6572   0.567   3.165   6.332
 1895SOL    HW2 6573   0.597   3.274   6.232
 1896SOL     OW 6574   1.289   3.100   7.009
 1896SOL    HW1 6575   1.321   3.032   6.950
 1896SOL    HW2 6576   1.346   3.094   7.085
 1897SOL     OW 6577   0.814   1.860   6.095
 1897SOL    HW1 6578   0.851   1.947   6.077
 1897SOL    HW2 6579   0.720   1.877   6.105
 1898SOL     OW 6580   0.179   2.802   6.865
 1898SOL    HW1 6581   0.271   2.784   6.845
 1898SOL    HW2 6582   0.133   2.788   6.783
 1899SOL     OW 6583   1.532   2.886   5.745
 1899SOL    HW1 6584   1.462   2.822   5.759
 1899SOL    HW2 6585   1.566   2.903   5.833
 1900SOL     OW 6586   1.186   3.669   7.208
 1900SOL    HW1 6587   1.196   3.727   7.133
 1900SOL    HW2 6588   1.202   3.581   7.173
 1901SOL     OW 6589   0.331   2.118   7.384
 1901SOL    HW1 6590   0.380   2.191   7.422
 1901SOL    HW2 6591   0.244   2.125   7.423
 1902SOL     OW 6592   1.466   3.282   6.539
 1902SOL    HW1 6593   1.399   3.301   6.605
 1902SOL    HW2 6594   1.454   3.189   6.519
 1903SOL     OW 6595   1.660   3.602   6.163
 1903SOL    HW1 6596   1.636   3.570   6.075
 1903SOL    HW2 6597   1.639   3.528   6.221
 1904SOL     OW 6598   0.598   2.583   5.853
 1904SOL    HW1 6599   0.599   2.664   5.803
 1904SOL    HW2 6600   0.532   2.597   5.921
 1905SOL     OW 6601   1.284   2.219   6.555
 1905SOL    HW1 6602   1.196   2.181   6.555
 1905SOL    HW2 6603   1.335   2.163   6.614
 1906SOL     OW 6604   1.580   3.532   5.896
 1906SOL    HW1 6605   1.669   3.565   5.889
 1906SOL    HW2 6606   1.552   3.517   5.805
 1907SOL     OW 6607   0.792   2.479   7.037
 1907SOL    HW1 6608   0.767   2.455   7.126
 1907SOL    HW2 6609   0.750   2.413   6.981
 1908SOL     OW 6610   1.393   2.336   7.264
 1908SOL    HW1 6611   1.396   2.380   7.349
 1908SOL    HW2 6612   1.455   2.264   7.272
 1909SOL     OW 6613   0.955   2.749   7.168
 1909SOL    HW1 6614   1.008   2.679   7.133
 1909SOL    HW2 6615   0.907   2.784   7.093
 1910SOL     OW 6616   0.988   2.280   6.823
 1910SOL    HW1 6617   0.901   2.297   6.860
 1910SOL    HW2 6618   0.970   2.229   6.744
 1911SOL     OW 6619   1.049   2.569   6.010
 1911SOL    HW1 6620   1.068   2.554   6.102
 1911SOL    HW2 6621   0.971   2.516   5.993
 1912SOL     OW 6622   0.096   2.691   6.371
 1912SOL    HW1 6623   0.182   2.674   6.408
 1912SOL    HW2 6624   0.041   2.713   6.446
 1913SOL     OW 6625   0.125   3.715   7.162
 1913SOL    HW1 6626   0.117   3.694   7.255
 1913SOL    HW2 6627   0.044   3.682   7.123
 1914SOL     OW 6628   0.898   2.208   5.782
 1914SOL    HW1 6629   0.931   2.268   5.715
 1914SOL    HW2 6630   0.898   2.122   5.739
 1915SOL     OW 6631   1.695   2.447   7.414
 1915SOL    HW1 6632   1.659   2.520   7.363
 1915SOL    HW2 6633   1.722   2.383   7.350
 1916SOL     OW 6634   0.553   2.044   6.479
 1916SOL    HW1 6635   0.554   2.074   6.570
 1916SOL    HW2 6636   0.552   2.125   6.428
 1917SOL     OW 6637   1.003   3.305   6.060
 1917SOL    HW1 6638   0.968   3.378   6.009
 1917SOL    HW2 6639   0.985   3.329   6.151
 1918SOL     OW 6640   0.356   3.673   6.444
 1918SOL    HW1 6641   0.398   3.587   6.455
 1918SOL    HW2 6642   0.426   3.736   6.461
 1919SOL     OW 6643   1.794   2.950   6.498
 1919SOL    HW1 6644   1.743   2.938   6.418
 1919SOL    HW2 6645   1.729   2.945   6.568
 1920SOL     OW 6646   1.228   3.401   7.099
 1920SOL    HW1 6647   1.214   3.328   7.160
 1920SOL    HW2 6648   1.164   3.387   7.030
 1921SOL     OW 6649   0.315   2.816   5.840
 1921SOL    HW1 6650   0.399   2.839   5.800
 1921SOL    HW2 6651   0.300   2.726   5.813
 1922SOL     OW 6652   0.468   3.125   7.321
 1922SOL    HW1 6653   0.441   3.131   7.229
 1922SOL    HW2 6654   0.386   3.128   7.371
 1923SOL     OW 6655   1.121   3.640   5.816
 1923SOL    HW1 6656   1.049   3.598   5.863
 1923SOL    HW2 6657   1.145   3.578   5.747
 1924SOL     OW 6658   0.196   2.139   7.071
 1924SOL    HW1 6659   0.137   2.214   7.078
 1924SOL    HW2 6660   0.183   2.091   7.153
 1925SOL     OW 6661   1.645   3.258   5.680
 1925SOL    HW1 6662   1.595   3.337   5.663
 1925SOL    HW2 6663   1.587   3.186   5.653
 1926SOL     OW 6664   0.469   3.605   5.899
 1926SOL    HW1 6665   0.511   3.659   5.967
 1926SOL    HW2 6666   0.542   3.570   5.848
 1927SOL     OW 6667   0.261   3.655   6.816
 1927SOL    HW1 6668   0.305   3.580   6.855
 1927SOL    HW2 6669   0.224   3.623   6.734
 1928SOL     OW 6670   0.938   3.561   6.485
 1928SOL    HW1 6671   1.015   3.509   6.508
 1928SOL    HW2 6672   0.894   3.511   6.416
 1929SOL     OW 6673   0.395   2.556   6.058
 1929SOL    HW1 6674   0.418   2.464   6.070
 1929SOL    HW2 6675   0.303   2.562   6.084
 1930SOL     OW 6676   1.532   2.085   7.312
 1930SOL    HW1 6677   1.541   2.106   7.405
 1930SOL    HW2 6678   1.463   2.020   7.308
 1931SOL     OW 6679   0.640   1.988   5.686
 1931SOL    HW1 6680   0.700   1.916   5.707
 1931SOL    HW2 6681   0.588   1.954   5.613
 1932SOL     OW 6682   0.766   2.139   7.340
 1932SOL    HW1 6683   0.843   2.082   7.341
 1932SOL    HW2 6684   0.718   2.116   7.420
 1933SOL     OW 6685   0.877   3.385   6.779
 1933SOL    HW1 6686   0.860   3.348   6.693
 1933SOL    HW2 6687   0.946   3.329   6.816
 1934SOL     OW 6688   1.338   2.457   7.023
 1934SOL    HW1 6689   1.372   2.422   7.105
 1934SOL    HW2 6690   1.378   2.544   7.015
 1935SOL     OW 6691   0.815   3.257   6.526
 1935SOL    HW1 6692   0.899   3.246   6.481
 1935SOL    HW2 6693   0.750   3.258   6.456
 1936SOL     OW 6694   0.929   2.372   6.489
 1936SOL    HW1 6695   0.905   2.363   6.397
 1936SOL    HW2 6696   0.962   2.286   6.514
 1937SOL     OW 6697   0.552   1.923   6.087
 1937SOL    HW1 6698   0.471   1.922   6.138
 1937SOL    HW2 6699   0.544   2.002   6.033
 1938SOL     OW 6700   1.421   3.089   5.614
 1938SOL    HW1 6701   1.455   3.013   5.661
 1938SOL    HW2 6702   1.338   3.110   5.657
 1939SOL     OW 6703   0.294   1.908   5.764
 1939SOL    HW1 6704   0.356   1.976   5.737
 1939SOL    HW2 6705   0.348   1.843   5.808
 1940SOL     OW 6706   0.927   2.107   6.047
 1940SOL    HW1 6707   0.908   2.149   5.963
 1940SOL    HW2 6708   1.022   2.107   6.052
 1941SOL     OW 6709   1.079   2.544   7.045
 1941SOL    HW1 6710   1.013   2.475   7.050
 1941SOL    HW2 6711   1.162   2.497   7.040
 1942SOL     OW 6712   1.225   3.429   6.379
 1942SOL    HW1 6713   1.240   3.496   6.312
 1942SOL    HW2 6714   1.293   3.445   6.444
 1943SOL     OW 6715   0.467   3.011   6.321
 1943SOL    HW1 6716   0.397   2.993   6.383
 1943SOL    HW2 6717   0.427   2.996   6.235
 1944SOL     OW 6718   1.268   3.655   6.194
 1944SOL    HW1 6719   1.315   3.716   6.137
 1944SOL    HW2 6720   1.203   3.709   6.238
 1945SOL     OW 6721   1.020   2.413   5.604
 1945SOL    HW1 6722   0.966   2.486   5.575
 1945SOL    HW2 6723   1.079   2.451   5.670
 1946SOL     OW 6724   0.083   2.389   6.996
 1946SOL    HW1 6725   0.147   2.386   6.925
 1946SOL    HW2 6726   0.068   2.483   7.010
 1947SOL     OW 6727   0.560   2.089   6.752
 1947SOL    HW1 6728   0.603   2.012   6.788
 1947SOL    HW2 6729   0.469   2.081   6.779
 1948SOL     OW 6730   0.867   2.325   6.226
 1948SOL    HW1 6731   0.819   2.378   6.163
 1948SOL    HW2 6732   0.885   2.243   6.180
 1949SOL     OW 6733   1.019   1.911   6.334
 1949SOL    HW1 6734   0.955   1.905   6.263
 1949SOL    HW2 6735   0.997   1.839   6.392
 1950SOL     OW 6736   1.431   3.022   6.456
 1950SOL    HW1 6737   1.368   2.949   6.458
 1950SOL    HW2 6738   1.434   3.048   6.364
 1951SOL     OW 6739   1.450   2.463   6.605
 1951SOL    HW1 6740   1.400   2.383   6.589
 1951SOL    HW2 6741   1.541   2.437   6.592
 1952SOL     OW 6742   0.492   3.279   5.745
 1952SOL    HW1 6743   0.415   3.251   5.794
 1952SOL    HW2 6744   0.474   3.252   5.655
 1953SOL     OW 6745   1.393   2.443   5.668
 1953SOL    HW1 6746   1.340   2.419   5.744
 1953SOL    HW2 6747   1.481   2.411   5.690
 1954SOL     OW 6748   0.525   2.121   5.901
 1954SOL    HW1 6749   0.572   2.077   5.831
 1954SOL    HW2 6750   0.505   2.208   5.865
 1955SOL     OW 6751   1.753   3.101   7.160
 1955SOL    HW1 6752   1.841   3.064   7.153
 1955SOL    HW2 6753   1.767   3.191   7.189
 1956SOL     OW 6754   1.059   3.214   6.918
 1956SOL    HW1 6755   0.983   3.184   6.969
 1956SOL    HW2 6756   1.134   3.174   6.961
 1957SOL     OW 6757   1.608   3.488   7.240
 1957SOL    HW1 6758   1.602   3.522   7.151
 1957SOL    HW2 6759   1.691   3.440   7.242
 1958SOL     OW 6760   1.128   3.064   6.690
 1958SOL    HW1 6761   1.071   3.102   6.757
 1958SOL    HW2 6762   1.095   3.099   6.608
 1959SOL     OW 6763   1.605   2.960   6.680
 1959SOL    HW1 6764   1.604   3.027   6.748
 1959SOL    HW2 6765   1.528   2.979   6.627
 1960SOL     OW 6766   0.917   1.960   6.982
 1960SOL    HW1 6767   0.940   1.940   6.891
 1960SOL    HW2 6768   0.996   1.998   7.019
 1961SOL     OW 6769   0.984   2.977   7.308
 1961SOL    HW1 6770   0.892   2.992   7.331
 1961SOL    HW2 6771   0.982   2.899   7.253
 1962SOL     OW 6772   0.707   2.925   5.958
 1962SOL    HW1 6773   0.694   2.908   6.052
 1962SOL    HW2 6774   0.782   2.871   5.934
 1963SOL     OW 6775   0.431   2.688   6.828
 1963SOL    HW1 6776   0.500   2.700   6.892
 1963SOL    HW2 6777   0.373   2.623   6.867
 1964SOL     OW 6778   1.256   2.245   6.876
 1964SOL    HW1 6779   1.292   2.325   6.916
 1964SOL    HW2 6780   1.168   2.270   6.847
 1965SOL     OW 6781   0.062   3.438   6.927
 1965SOL    HW1 6782   0.035   3.528   6.910
 1965SOL    HW2 6783   0.158   3.443   6.935
 1966SOL     OW 6784   0.347   2.971   6.079
 1966SOL    HW1 6785   0.355   3.045   6.019
 1966SOL    HW2 6786   0.346   2.894   6.022
 1967SOL     OW 6787   0.561   2.394   6.440
 1967SOL    HW1 6788   0.574   2.455   6.367
 1967SOL    HW2 6789   0.621   2.424   6.508
 1968SOL     OW 6790   1.245   3.216   5.964
 1968SOL    HW1 6791   1.304   3.281   6.002
 1968SOL    HW2 6792   1.160   3.233   6.006
 1969SOL     OW 6793   1.281   3.320   6.734
 1969SOL    HW1 6794   1.337   3.324   6.811
 1969SOL    HW2 6795   1.224   3.245   6.749
 1970SOL     OW 6796   0.346   3.395   6.900
 1970SOL    HW1 6797   0.333   3.347   6.819
 1970SOL    HW2 6798   0.441   3.404   6.907
 1971SOL     OW 6799   0.480   2.619   7.253
 1971SOL    HW1 6800   0.510   2.658   7.170
 1971SOL    HW2 6801   0.527   2.536   7.259
 1972SOL     OW 6802   1.598   2.646   7.265
 1972SOL    HW1 6803   1.513   2.689   7.258
 1972SOL    HW2 6804   1.652   2.689   7.198
 1973SOL     OW 6805   0.996   1.986   7.340
 1973SOL    HW1 6806   1.052   2.058   7.314
 1973SOL    HW2 6807   1.044   1.907   7.315
 1974SOL     OW 6808   0.497   1.904   7.333
 1974SOL    HW1 6809   0.456   1.848   7.268
 1974SOL    HW2 6810   0.438   1.979   7.341
 1975SOL     OW 6811   0.591   2.736   6.611
 1975SOL    HW1 6812   0.618   2.827   6.613
 1975SOL    HW2 6813   0.534   2.726   6.687
 1976SOL     OW 6814   1.358   2.721   6.612
 1976SOL    HW1 6815   1.271   2.707   6.576
 1976SOL    HW2 6816   1.396   2.633   6.617
 1977SOL     OW 6817   0.302   2.052   6.828
 1977SOL    HW1 6818   0.262   2.086   6.908
 1977SOL    HW2 6819   0.285   1.958   6.831
 1978SOL     OW 6820   0.037   3.174   6.872
 1978SOL    HW1 6821   0.075   3.127   6.946
 1978SOL    HW2 6822   0.044   3.267   6.896
 1979SOL     OW 6823   0.724   2.492   6.643
 1979SOL    HW1 6824   0.800   2.475   6.587
 1979SOL    HW2 6825   0.698   2.582   6.621
 1980SOL     OW 6826   1.734   2.823   7.437
 1980SOL    HW1 6827   1.689   2.760   7.382
 1980SOL    HW2 6828   1.676   2.836   7.512
 1981SOL     OW 6829   0.311   1.932   6.205
 1981SOL    HW1 6830   0.287   2.021   6.232
 1981SOL    HW2 6831   0.309   1.881   6.286
 1982SOL     OW 6832   1.028   2.621   6.547
 1982SOL    HW1 6833   1.024   2.639   6.641
 1982SOL    HW2 6834   1.002   2.529   6.539
 1983SOL     OW 6835   0.983   3.429   7.303
 1983SOL    HW1 6836   0.968   3.472   7.219
 1983SOL    HW2 6837   1.025   3.346   7.280
 1984SOL     OW 6838   1.855   3.368   7.191
 1984SOL    HW1 6839   1.873   3.394   7.101
 1984SOL    HW2 6840   1.936   3.386   7.239
 1985SOL     OW 6841   0.347   2.796   7.404
 1985SOL    HW1 6842   0.419   2.825   7.459
 1985SOL    HW2 6843   0.385   2.728   7.348
 1986SOL     OW 6844   1.302   2.701   5.620
 1986SOL    HW1 6845   1.339   2.613   5.620
 1986SOL    HW2 6846   1.320   2.735   5.532
 1987SOL     OW 6847   1.066   3.199   6.441
 1987SOL    HW1 6848   1.070   3.127   6.378
 1987SOL    HW2 6849   1.126   3.265   6.406
 1988SOL     OW 6850   0.318   2.673   6.533
 1988SOL    HW1 6851   0.412   2.690   6.531
 1988SOL    HW2 6852   0.311   2.582   6.561
 1989SOL     OW 6853   0.330   2.387   6.575
 1989SOL    HW1 6854   0.292   2.301   6.560
 1989SOL    HW2 6855   0.409   2.389   6.520
 1990SOL     OW 6856   1.134   2.237   7.269
 1990SOL    HW1 6857   1.087   2.293   7.332
 1990SOL    HW2 6858   1.221   2.276   7.264
 1991SOL     OW 6859   1.159   2.064   7.058
 1991SOL    HW1 6860   1.149   2.125   7.131
 1991SOL    HW2 6861   1.198   2.116   6.988
 1992SOL     OW 6862   4.491   3.184   5.791
 1992SOL    HW1 6863   4.399   3.200   5.773
 1992SOL    HW2 6864   4.496   3.091   5.813
 1993SOL     OW 6865   0.098   3.638   6.526
 1993SOL    HW1 6866   0.059   3.586   6.456
 1993SOL    HW2 6867   0.186   3.659   6.495
 1994SOL     OW 6868   0.496   3.436   6.493
 1994SOL    HW1 6869   0.564   3.499   6.517
 1994SOL    HW2 6870   0.540   3.373   6.436
 1995SOL     OW 6871   0.983   2.655   6.812
 1995SOL    HW1 6872   1.039   2.631   6.886
 1995SOL    HW2 6873   0.898   2.618   6.834
 1996SOL     OW 6874   0.034   2.425   6.689
 1996SOL    HW1 6875   0.119   2.392   6.659
 1996SOL    HW2 6876   0.018   2.380   6.772
 1997SOL     OW 6877   0.179   2.382   7.301
 1997SOL    HW1 6878   0.259   2.353   7.259
 1997SOL    HW2 6879   0.156   2.463   7.255
 1998SOL     OW 6880   1.374   2.803   7.246
 1998SOL    HW1 6881   1.396   2.896   7.243
 1998SOL    HW2 6882   1.370   2.777   7.154
 1999SOL     OW 6883   0.819   2.433   5.943
 1999SOL    HW1 6884   0.818   2.356   5.886
 1999SOL    HW2 6885   0.744   2.485   5.914
 2000SOL     OW 6886   0.274   3.423   7.327
 2000SOL    HW1 6887   0.216   3.476   7.382
 2000SOL    HW2 6888   0.254   3.333   7.350
 2001SOL     OW 6889   0.693   2.315   6.847
 2001SOL    HW1 6890   0.646   2.238   6.815
 2001SOL    HW2 6891   0.693   2.377   6.774
 2002SOL     OW 6892   0.929   3.541   7.053
 2002SOL    HW1 6893   0.901   3.506   6.968
 2002SOL    HW2 6894   0.923   3.636   7.043
 2003SOL     OW 6895   0.473   2.352   5.770
 2003SOL    HW1 6896   0.531   2.424   5.795
 2003SOL    HW2 6897   0.389   2.394   5.754
 2004SOL     OW 6898   0.162   3.003   7.047
 2004SOL    HW1 6899   0.145   2.958   7.130
 2004SOL    HW2 6900   0.169   2.932   6.982
 2005SOL     OW 6901   1.324   2.907   6.808
 2005SOL    HW1 6902   1.348   2.845   6.740
 2005SOL    HW2 6903   1.253   2.959   6.770
 2006SOL     OW 6904   1.257   2.726   5.903
 2006SOL    HW1 6905   1.187   2.671   5.938
 2006SOL    HW2 6906   1.247   2.720   5.808
 2007SOL     OW 6907   1.775   3.607   6.738
 2007SOL    HW1 6908   1.833   3.632   6.667
 2007SOL    HW2 6909   1.748   3.518   6.718
 2008SOL     OW 6910   1.240   3.595   6.699
 2008SOL    HW1 6911   1.323   3.617   6.655
 2008SOL    HW2 6912   1.247   3.502   6.717
 2009SOL     OW 6913   0.067   3.047   6.635
 2009SOL    HW1 6914   0.065   3.078   6.726
 2009SOL    HW2 6915   0.024   3.116   6.585
 2010SOL     OW 6916   0.679   3.528   7.316
 2010SOL    HW1 6917   0.622   3.605   7.310
 2010SOL    HW2 6918   0.742   3.539   7.246
 2011SOL     OW 6919   1.390   3.428   6.072
 2011SOL    HW1 6920   1.451   3.461   6.005
 2011SOL    HW2 6921   1.342   3.506   6.101
 2012SOL     OW 6922   0.119   3.669   7.433
 2012SOL    HW1 6923   0.078   3.597   7.481
 2012SOL    HW2 6924   0.182   3.706   7.495
 2013SOL     OW 6925   1.302   2.787   6.244
 2013SOL    HW1 6926   1.368   2.719   6.234
 2013SOL    HW2 6927   1.300   2.831   6.159
 2014SOL     OW 6928   0.814   3.136   7.015
 2014SOL    HW1 6929   0.787   3.175   7.098
 2014SOL    HW2 6930   0.743   3.157   6.955
 2015SOL     OW 6931   0.672   3.482   5.741
 2015SOL    HW1 6932   0.682   3.494   5.647
 2015SOL    HW2 6933   0.618   3.404   5.750
 2016SOL     OW 6934   1.626   3.588   6.977
 2016SOL    HW1 6935   1.676   3.595   6.896
 2016SOL    HW2 6936   1.613   3.679   7.005
 2017SOL     OW 6937   1.815   1.985   6.574
 2017SOL    HW1 6938   1.876   1.957   6.506
 2017SOL    HW2 6939   1.742   2.026   6.526
 2018SOL     OW 6940   0.264   2.182   6.304
 2018SOL    HW1 6941   0.181   2.220   6.277
 2018SOL    HW2 6942   0.254   2.169   6.399
 2019SOL     OW 6943   1.208   3.468   5.618
 2019SOL    HW1 6944   1.198   3.376   5.645
 2019SOL    HW2 6945   1.143   3.480   5.549
 2020SOL     OW 6946   0.825   2.869   6.958
 2020SOL    HW1 6947   0.869   2.865   6.873
 2020SOL    HW2 6948   0.824   2.962   6.981
 2021SOL     OW 6949   0.913   2.775   5.875
 2021SOL    HW1 6950   0.975   2.806   5.809
 2021SOL    HW2 6951   0.960   2.706   5.922
 2022SOL     OW 6952   1.493   3.489   5.628
 2022SOL    HW1 6953   1.399   3.480   5.616
 2022SOL    HW2 6954   1.529   3.494   5.540
 2023SOL     OW 6955   0.373   3.170   7.076
 2023SOL    HW1 6956   0.355   3.248   7.025
 2023SOL    HW2 6957   0.298   3.112   7.060
 2024SOL     OW 6958   1.607   3.146   6.872
 2024SOL    HW1 6959   1.672   3.139   6.942
 2024SOL    HW2 6960   1.550   3.217   6.900
 2025SOL     OW 6961   1.055   2.969   6.295
 2025SOL    HW1 6962   0.982   2.924   6.338
 2025SOL    HW2 6963   1.104   2.899   6.251
 2026SOL     OW 6964   1.023   2.103   6.554
 2026SOL    HW1 6965   1.020   2.057   6.470
 2026SOL    HW2 6966   1.015   2.033   6.619
 2027SOL     OW 6967   0.604   3.351   6.068
 2027SOL    HW1 6968   0.646   3.302   5.997
 2027SOL    HW2 6969   0.529   3.393   6.027
 2028SOL     OW 6970   1.722   2.249   6.975
 2028SOL    HW1 6971   1.785   2.320   6.958
 2028SOL    HW2 6972   1.746   2.181   6.913
 2029SOL     OW 6973   0.252   3.206   5.862
 2029SOL    HW1 6974   0.157   3.205   5.848
 2029SOL    HW2 6975   0.263   3.238   5.952
 2030SOL     OW 6976   0.116   2.869   7.280
 2030SOL    HW1 6977   0.052   2.912   7.337
 2030SOL    HW2 6978   0.194   2.859   7.334
 2031SOL     OW 6979   0.674   2.061   7.085
 2031SOL    HW1 6980   0.758   2.039   7.044
 2031SOL    HW2 6981   0.697   2.089   7.173
 2032SOL     OW 6982   0.072   2.187   5.617
 2032SOL    HW1 6983   4.478   2.199   5.626
 2032SOL    HW2 6984   0.104   2.269   5.580
 2033SOL     OW 6985   1.427   2.724   6.990
 2033SOL    HW1 6986   1.377   2.782   6.932
 2033SOL    HW2 6987   1.517   2.733   6.961
 2034SOL     OW 6988   0.086   2.039   5.891
 2034SOL    HW1 6989   0.079   2.111   5.828
 2034SOL    HW2 6990   0.161   1.988   5.860
 2035SOL     OW 6991   1.176   3.201   5.701
 2035SOL    HW1 6992   1.083   3.175   5.705
 2035SOL    HW2 6993   1.203   3.204   5.793
 2036SOL     OW 6994   0.623   2.693   7.017
 2036SOL    HW1 6995   0.680   2.770   7.003
 2036SOL    HW2 6996   0.684   2.620   7.024
 2037SOL     OW 6997   1.483   3.640   6.567
 2037SOL    HW1 6998   1.507   3.697   6.493
 2037SOL    HW2 6999   1.566   3.615   6.606
 2038SOL     OW 7000   0.714   2.425   7.290
 2038SOL    HW1 7001   0.756   2.488   7.349
 2038SOL    HW2 7002   0.744   2.339   7.321
 2039SOL     OW 7003   1.472   3.062   7.218
 2039SOL    HW1 7004   1.459   3.076   7.312
 2039SOL    HW2 7005   1.565   3.077   7.204
 2040SOL     OW 7006   0.380   3.605   7.151
 2040SOL    HW1 7007   0.295   3.646   7.133
 2040SOL    HW2 7008   0.359   3.526   7.199
 2041SOL     OW 7009   1.663   2.760   6.851
 2041SOL    HW1 7010   1.641   2.682   6.799
 2041SOL    HW2 7011   1.651   2.833   6.790
 2042SOL     OW 7012   0.591   2.599   6.254
 2042SOL    HW1 7013   0.628   2.687   6.239
 2042SOL    HW2 7014   0.522   2.591   6.189
 2043SOL     OW 7015   1.752   2.233   7.242
 2043SOL    HW1 7016   1.749   2.244   7.147
 2043SOL    HW2 7017   1.680   2.173   7.261
 2044SOL     OW 7018   1.752   2.798   7.103
 2044SOL    HW1 7019   1.744   2.892   7.119
 2044SOL    HW2 7020   1.732   2.789   7.009
 2045SOL     OW 7021   0.865   3.229   5.621
 2045SOL    HW1 7022   0.824   3.256   5.703
 2045SOL    HW2 7023   0.880   3.310   5.574
 2046SOL     OW 7024   0.661   3.653   6.531
 2046SOL    HW1 7025   0.640   3.743   6.507
 2046SOL    HW2 7026   0.756   3.647   6.523
 2047SOL     OW 7027   0.869   2.831   6.441
 2047SOL    HW1 7028   0.916   2.758   6.481
 2047SOL    HW2 7029   0.832   2.879   6.515
 2048SOL     OW 7030   1.076   2.847   5.671
 2048SOL    HW1 7031   1.052   2.902   5.597
 2048SOL    HW2 7032   1.156   2.803   5.643
 2049SOL     OW 7033   1.850   3.420   6.433
 2049SOL    HW1 7034   1.784   3.395   6.367
 2049SOL    HW2 7035   1.859   3.343   6.488
 2050SOL     OW 7036   0.231   3.167   7.444
 2050SOL    HW1 7037   0.156   3.111   7.423
 2050SOL    HW2 7038   0.226   3.178   7.539
 2051SOL     OW 7039   0.108   3.097   6.254
 2051SOL    HW1 7040   0.119   3.052   6.338
 2051SOL    HW2 7041   0.166   3.052   6.194
 2052SOL     OW 7042   0.682   3.265   7.214
 2052SOL    HW1 7043   0.602   3.221   7.243
 2052SOL    HW2 7044   0.676   3.353   7.252
 2053SOL     OW 7045   1.778   2.032   6.830
 2053SOL    HW1 7046   1.799   1.942   6.855
 2053SOL    HW2 7047   1.802   2.037   6.737
 2054SOL     OW 7048   0.436   2.295   6.112
 2054SOL    HW1 7049   0.459   2.220   6.056
 2054SOL    HW2 7050   0.384   2.256   6.182
 2055SOL     OW 7051   1.695   3.356   6.692
 2055SOL    HW1 7052   1.620   3.330   6.638
 2055SOL    HW2 7053   1.709   3.282   6.750
 2056SOL     OW 7054   0.299   2.349   6.838
 2056SOL    HW1 7055   0.373   2.308   6.883
 2056SOL    HW2 7056   0.331   2.366   6.749
 2057SOL     OW 7057   0.828   3.439   6.263
 2057SOL    HW1 7058   0.815   3.494   6.186
 2057SOL    HW2 7059   0.751   3.382   6.267
 2058SOL     OW 7060   1.417   2.073   6.752
 2058SOL    HW1 7061   1.469   2.025   6.816
 2058SOL    HW2 7062   1.365   2.134   6.805
 2059SOL     OW 7063   1.005   1.881   6.727
 2059SOL    HW1 7064   0.951   1.813   6.689
 2059SOL    HW2 7065   1.093   1.843   6.731
 2060SOL     OW 7066   0.773   3.195   5.899
 2060SOL    HW1 7067   0.741   3.105   5.907
 2060SOL    HW2 7068   0.853   3.197   5.950
 2061SOL     OW 7069   0.621   3.418   6.871
 2061SOL    HW1 7070   0.623   3.499   6.921
 2061SOL    HW2 7071   0.708   3.411   6.833
 2062SOL     OW 7072   1.328   1.905   5.735
 2062SOL    HW1 7073   1.339   1.854   5.655
 2062SOL    HW2 7074   1.250   1.870   5.777
 2063SOL     OW 7075   1.227   2.298   6.301
 2063SOL    HW1 7076   1.193   2.387   6.306
 2063SOL    HW2 7077   1.255   2.278   6.391
 2064SOL     OW 7078   0.041   2.913   5.875
 2064SOL    HW1 7079   0.134   2.896   5.864
 2064SOL    HW2 7080   0.020   2.882   5.963
 2065SOL     OW 7081   0.885   3.515   5.928
 2065SOL    HW1 7082   0.813   3.497   5.868
 2065SOL    HW2 7083   0.856   3.589   5.980
 2066SOL     OW 7084   0.247   2.491   7.568
 2066SOL    HW1 7085   0.173   2.469   7.625
 2066SOL    HW2 7086   0.216   2.473   7.480
 2067SOL     OW 7087   0.213   2.137   8.439
 2067SOL    HW1 7088   0.249   2.110   8.524
 2067SOL    HW2 7089   0.137   2.080   8.427
 2068SOL     OW 7090   0.008   2.254   8.088
 2068SOL    HW1 7091   4.427   2.286   8.128
 2068SOL    HW2 7092   4.482   2.174   8.042
 2069SOL     OW 7093   0.568   3.150   8.624
 2069SOL    HW1 7094   0.480   3.154   8.585
 2069SOL    HW2 7095   0.583   3.237   8.659
 2070SOL     OW 7096   1.561   3.374   8.155
 2070SOL    HW1 7097   1.518   3.354   8.238
 2070SOL    HW2 7098   1.490   3.378   8.091
 2071SOL     OW 7099   1.130   2.560   8.149
 2071SOL    HW1 7100   1.179   2.641   8.135
 2071SOL    HW2 7101   1.084   2.574   8.231
 2072SOL     OW 7102   1.766   2.471   7.676
 2072SOL    HW1 7103   1.744   2.464   7.583
 2072SOL    HW2 7104   1.742   2.385   7.712
 2073SOL     OW 7105   0.755   3.004   8.489
 2073SOL    HW1 7106   0.686   3.039   8.546
 2073SOL    HW2 7107   0.790   3.081   8.444
 2074SOL     OW 7108   0.867   2.635   9.269
 2074SOL    HW1 7109   0.852   2.706   9.332
 2074SOL    HW2 7110   0.890   2.679   9.188
 2075SOL     OW 7111   0.685   2.865   8.095
 2075SOL    HW1 7112   0.751   2.853   8.164
 2075SOL    HW2 7113   0.616   2.917   8.137
 2076SOL     OW 7114   0.711   3.012   9.261
 2076SOL    HW1 7115   0.758   3.091   9.288
 2076SOL    HW2 7116   0.629   3.044   9.225
 2077SOL     OW 7117   0.335   3.283   8.517
 2077SOL    HW1 7118   0.253   3.263   8.471
 2077SOL    HW2 7119   0.385   3.337   8.456
 2078SOL     OW 7120   1.461   3.361   8.803
 2078SOL    HW1 7121   1.511   3.442   8.812
 2078SOL    HW2 7122   1.398   3.363   8.875
 2079SOL     OW 7123   0.445   2.266   8.939
 2079SOL    HW1 7124   0.524   2.213   8.944
 2079SOL    HW2 7125   0.373   2.203   8.945
 2080SOL     OW 7126   1.602   2.313   8.193
 2080SOL    HW1 7127   1.528   2.336   8.136
 2080SOL    HW2 7128   1.618   2.392   8.244
 2081SOL     OW 7129   0.246   3.553   7.925
 2081SOL    HW1 7130   0.230   3.638   7.966
 2081SOL    HW2 7131   0.314   3.570   7.860
 2082SOL     OW 7132   1.136   3.203   9.141
 2082SOL    HW1 7133   1.176   3.199   9.227
 2082SOL    HW2 7134   1.084   3.124   9.134
 2083SOL     OW 7135   0.250   3.288   7.975
 2083SOL    HW1 7136   0.240   3.383   7.978
 2083SOL    HW2 7137   0.187   3.256   8.039
 2084SOL     OW 7138   0.249   2.944   8.333
 2084SOL    HW1 7139   0.264   2.854   8.360
 2084SOL    HW2 7140   0.188   2.979   8.398
 2085SOL     OW 7141   0.613   3.653   8.879
 2085SOL    HW1 7142   0.530   3.634   8.923
 2085SOL    HW2 7143   0.634   3.743   8.903
 2086SOL     OW 7144   0.579   2.849   7.586
 2086SOL    HW1 7145   0.627   2.891   7.516
 2086SOL    HW2 7146   0.623   2.878   7.666
 2087SOL     OW 7147   1.590   1.980   8.922
 2087SOL    HW1 7148   1.608   2.054   8.864
 2087SOL    HW2 7149   1.578   2.020   9.008
 2088SOL     OW 7150   0.136   2.508   8.021
 2088SOL    HW1 7151   0.088   2.427   8.040
 2088SOL    HW2 7152   0.106   2.569   8.089
 2089SOL     OW 7153   1.842   3.621   7.782
 2089SOL    HW1 7154   1.906   3.593   7.848
 2089SOL    HW2 7155   1.866   3.712   7.763
 2090SOL     OW 7156   0.032   3.464   7.589
 2090SOL    HW1 7157   0.021   3.369   7.586
 2090SOL    HW2 7158   0.022   3.486   7.682
 2091SOL     OW 7159   1.691   2.781   8.089
 2091SOL    HW1 7160   1.772   2.736   8.064
 2091SOL    HW2 7161   1.667   2.831   8.011
 2092SOL     OW 7162   1.645   2.968   7.877
 2092SOL    HW1 7163   1.731   2.974   7.835
 2092SOL    HW2 7164   1.651   3.030   7.950
 2093SOL     OW 7165   0.111   2.626   9.030
 2093SOL    HW1 7166   0.202   2.623   9.000
 2093SOL    HW2 7167   0.095   2.718   9.050
 2094SOL     OW 7168   0.614   3.247   8.184
 2094SOL    HW1 7169   0.567   3.165   8.194
 2094SOL    HW2 7170   0.598   3.274   8.094
 2095SOL     OW 7171   1.289   3.100   8.871
 2095SOL    HW1 7172   1.321   3.033   8.811
 2095SOL    HW2 7173   1.346   3.094   8.947
 2096SOL     OW 7174   0.816   1.862   7.956
 2096SOL    HW1 7175   0.856   1.947   7.937
 2096SOL    HW2 7176   0.723   1.880   7.966
 2097SOL     OW 7177   0.179   2.802   8.727
 2097SOL    HW1 7178   0.271   2.784   8.707
 2097SOL    HW2 7179   0.133   2.789   8.644
 2098SOL     OW 7180   1.532   2.856   7.646
 2098SOL    HW1 7181   1.462   2.798   7.677
 2098SOL    HW2 7182   1.572   2.890   7.726
 2099SOL     OW 7183   1.186   3.669   9.070
 2099SOL    HW1 7184   1.196   3.727   8.995
 2099SOL    HW2 7185   1.202   3.581   9.035
 2100SOL     OW 7186   0.331   2.118   9.247
 2100SOL    HW1 7187   0.380   2.192   9.284
 2100SOL    HW2 7188   0.244   2.125   9.285
 2101SOL     OW 7189   1.467   3.281   8.400
 2101SOL    HW1 7190   1.399   3.297   8.465
 2101SOL    HW2 7191   1.454   3.190   8.373
 2102SOL     OW 7192   1.659   3.601   8.026
 2102SOL    HW1 7193   1.638   3.572   7.937
 2102SOL    HW2 7194   1.634   3.528   8.082
 2103SOL     OW 7195   0.598   2.582   7.715
 2103SOL    HW1 7196   0.600   2.664   7.664
 2103SOL    HW2 7197   0.532   2.598   7.782
 2104SOL     OW 7198   1.278   2.216   8.381
 2104SOL    HW1 7199   1.189   2.182   8.389
 2104SOL    HW2 7200   1.330   2.163   8.441
 2105SOL     OW 7201   1.580   3.532   7.757
 2105SOL    HW1 7202   1.671   3.564   7.750
 2105SOL    HW2 7203   1.554   3.516   7.667
 2106SOL     OW 7204   0.794   2.478   8.899
 2106SOL    HW1 7205   0.767   2.454   8.988
 2106SOL    HW2 7206   0.751   2.413   8.843
 2107SOL     OW 7207   1.393   2.336   9.125
 2107SOL    HW1 7208   1.396   2.380   9.210
 2107SOL    HW2 7209   1.455   2.264   9.134
 2108SOL     OW 7210   0.955   2.749   9.030
 2108SOL    HW1 7211   1.009   2.679   8.995
 2108SOL    HW2 7212   0.907   2.784   8.955
 2109SOL     OW 7213   0.993   2.276   8.686
 2109SOL    HW1 7214   0.908   2.296   8.725
 2109SOL    HW2 7215   0.972   2.228   8.606
 2110SOL     OW 7216   1.051   2.560   7.874
 2110SOL    HW1 7217   1.067   2.553   7.968
 2110SOL    HW2 7218   0.969   2.514   7.860
 2111SOL     OW 7219   0.096   2.690   8.233
 2111SOL    HW1 7220   0.183   2.674   8.270
 2111SOL    HW2 7221   0.042   2.714   8.308
 2112SOL     OW 7222   0.124   3.715   9.024
 2112SOL    HW1 7223   0.117   3.694   9.117
 2112SOL    HW2 7224   0.044   3.681   8.985
 2113SOL     OW 7225   0.893   2.210   7.642
 2113SOL    HW1 7226   0.934   2.272   7.581
 2113SOL    HW2 7227   0.909   2.125   7.603
 2114SOL     OW 7228   1.709   2.440   9.279
 2114SOL    HW1 7229   1.670   2.511   9.228
 2114SOL    HW2 7230   1.734   2.374   9.215
 2115SOL     OW 7231   1.377   3.004   7.990
 2115SOL    HW1 7232   1.455   2.991   7.936
 2115SOL    HW2 7233   1.324   3.066   7.940
 2116SOL     OW 7234   0.552   2.044   8.341
 2116SOL    HW1 7235   0.554   2.074   8.432
 2116SOL    HW2 7236   0.552   2.124   8.289
 2117SOL     OW 7237   1.006   3.306   7.920
 2117SOL    HW1 7238   0.969   3.380   7.871
 2117SOL    HW2 7239   0.986   3.327   8.012
 2118SOL     OW 7240   0.356   3.672   8.306
 2118SOL    HW1 7241   0.398   3.587   8.317
 2118SOL    HW2 7242   0.426   3.736   8.323
 2119SOL     OW 7243   1.800   2.918   8.315
 2119SOL    HW1 7244   1.746   2.899   8.239
 2119SOL    HW2 7245   1.737   2.924   8.388
 2120SOL     OW 7246   1.228   3.400   8.961
 2120SOL    HW1 7247   1.214   3.328   9.022
 2120SOL    HW2 7248   1.164   3.386   8.891
 2121SOL     OW 7249   0.315   2.816   7.702
 2121SOL    HW1 7250   0.399   2.839   7.662
 2121SOL    HW2 7251   0.300   2.725   7.675
 2122SOL     OW 7252   1.478   2.605   8.175
 2122SOL    HW1 7253   1.469   2.562   8.260
 2122SOL    HW2 7254   1.556   2.660   8.185
 2123SOL     OW 7255   0.468   3.125   9.183
 2123SOL    HW1 7256   0.441   3.131   9.091
 2123SOL    HW2 7257   0.386   3.128   9.233
 2124SOL     OW 7258   1.122   3.640   7.679
 2124SOL    HW1 7259   1.049   3.598   7.724
 2124SOL    HW2 7260   1.145   3.578   7.609
 2125SOL     OW 7261   0.196   2.139   8.933
 2125SOL    HW1 7262   0.138   2.214   8.940
 2125SOL    HW2 7263   0.183   2.091   9.015
 2126SOL     OW 7264   1.629   3.242   7.535
 2126SOL    HW1 7265   1.587   3.327   7.521
 2126SOL    HW2 7266   1.560   3.178   7.517
 2127SOL     OW 7267   0.469   3.606   7.761
 2127SOL    HW1 7268   0.511   3.659   7.829
 2127SOL    HW2 7269   0.541   3.570   7.710
 2128SOL     OW 7270   1.399   1.969   7.881
 2128SOL    HW1 7271   1.388   1.944   7.789
 2128SOL    HW2 7272   1.493   1.981   7.891
 2129SOL     OW 7273   0.261   3.655   8.678
 2129SOL    HW1 7274   0.305   3.580   8.717
 2129SOL    HW2 7275   0.224   3.623   8.596
 2130SOL     OW 7276   0.938   3.561   8.347
 2130SOL    HW1 7277   1.015   3.508   8.369
 2130SOL    HW2 7278   0.894   3.511   8.278
 2131SOL     OW 7279   0.395   2.557   7.921
 2131SOL    HW1 7280   0.418   2.464   7.932
 2131SOL    HW2 7281   0.303   2.562   7.946
 2132SOL     OW 7282   1.535   2.089   9.175
 2132SOL    HW1 7283   1.545   2.109   9.268
 2132SOL    HW2 7284   1.468   2.020   9.172
 2133SOL     OW 7285   0.635   1.986   7.551
 2133SOL    HW1 7286   0.702   1.920   7.567
 2133SOL    HW2 7287   0.587   1.953   7.476
 2134SOL     OW 7288   0.767   2.140   9.203
 2134SOL    HW1 7289   0.843   2.082   9.203
 2134SOL    HW2 7290   0.718   2.116   9.282
 2135SOL     OW 7291   0.877   3.385   8.641
 2135SOL    HW1 7292   0.860   3.348   8.555
 2135SOL    HW2 7293   0.946   3.329   8.678
 2136SOL     OW 7294   1.340   2.451   8.880
 2136SOL    HW1 7295   1.371   2.418   8.964
 2136SOL    HW2 7296   1.377   2.539   8.873
 2137SOL     OW 7297   0.816   3.257   8.388
 2137SOL    HW1 7298   0.899   3.245   8.343
 2137SOL    HW2 7299   0.751   3.258   8.317
 2138SOL     OW 7300   0.928   2.371   8.351
 2138SOL    HW1 7301   0.904   2.363   8.259
 2138SOL    HW2 7302   0.959   2.284   8.376
 2139SOL     OW 7303   0.553   1.924   7.949
 2139SOL    HW1 7304   0.472   1.922   8.000
 2139SOL    HW2 7305   0.545   2.002   7.894
 2140SOL     OW 7306   1.428   3.061   7.489
 2140SOL    HW1 7307   1.458   2.985   7.539
 2140SOL    HW2 7308   1.342   3.081   7.526
 2141SOL     OW 7309   0.295   1.908   7.626
 2141SOL    HW1 7310   0.358   1.975   7.599
 2141SOL    HW2 7311   0.348   1.842   7.671
 2142SOL     OW 7312   0.938   2.109   7.908
 2142SOL    HW1 7313   0.912   2.150   7.826
 2142SOL    HW2 7314   1.033   2.123   7.912
 2143SOL     OW 7315   1.080   2.543   8.907
 2143SOL    HW1 7316   1.012   2.476   8.912
 2143SOL    HW2 7317   1.162   2.493   8.901
 2144SOL     OW 7318   1.224   3.431   8.242
 2144SOL    HW1 7319   1.240   3.499   8.175
 2144SOL    HW2 7320   1.292   3.447   8.307
 2145SOL     OW 7321   0.467   3.012   8.183
 2145SOL    HW1 7322   0.396   2.993   8.245
 2145SOL    HW2 7323   0.427   2.996   8.097
 2146SOL     OW 7324   1.269   3.656   8.057
 2146SOL    HW1 7325   1.315   3.717   7.999
 2146SOL    HW2 7326   1.202   3.709   8.100
 2147SOL     OW 7327   1.023   2.403   7.471
 2147SOL    HW1 7328   0.980   2.487   7.451
 2147SOL    HW2 7329   1.089   2.425   7.537
 2148SOL     OW 7330   0.084   2.389   8.858
 2148SOL    HW1 7331   0.147   2.386   8.787
 2148SOL    HW2 7332   0.068   2.482   8.872
 2149SOL     OW 7333   0.560   2.090   8.614
 2149SOL    HW1 7334   0.603   2.011   8.649
 2149SOL    HW2 7335   0.469   2.081   8.641
 2150SOL     OW 7336   0.868   2.321   8.088
 2150SOL    HW1 7337   0.822   2.375   8.024
 2150SOL    HW2 7338   0.889   2.241   8.041
 2151SOL     OW 7339   1.015   1.915   8.199
 2151SOL    HW1 7340   0.957   1.908   8.124
 2151SOL    HW2 7341   0.994   1.840   8.254
 2152SOL     OW 7342   1.437   3.024   8.305
 2152SOL    HW1 7343   1.367   2.959   8.305
 2152SOL    HW2 7344   1.460   3.035   8.213
 2153SOL     OW 7345   1.465   2.468   8.426
 2153SOL    HW1 7346   1.414   2.387   8.427
 2153SOL    HW2 7347   1.524   2.461   8.501
 2154SOL     OW 7348   1.848   2.678   7.833
 2154SOL    HW1 7349   1.903   2.624   7.890
 2154SOL    HW2 7350   1.817   2.617   7.766
 2155SOL     OW 7351   0.491   3.280   7.607
 2155SOL    HW1 7352   0.414   3.251   7.656
 2155SOL    HW2 7353   0.475   3.251   7.517
 2156SOL     OW 7354   1.670   3.127   8.093
 2156SOL    HW1 7355   1.765   3.130   8.107
 2156SOL    HW2 7356   1.640   3.215   8.115
 2157SOL     OW 7357   1.393   2.435   7.519
 2157SOL    HW1 7358   1.335   2.414   7.591
 2157SOL    HW2 7359   1.480   2.408   7.549
 2158SOL     OW 7360   0.524   2.122   7.765
 2158SOL    HW1 7361   0.571   2.076   7.695
 2158SOL    HW2 7362   0.505   2.208   7.728
 2159SOL     OW 7363   1.752   3.101   9.021
 2159SOL    HW1 7364   1.840   3.063   9.015
 2159SOL    HW2 7365   1.767   3.191   9.050
 2160SOL     OW 7366   1.058   3.216   8.782
 2160SOL    HW1 7367   0.983   3.185   8.833
 2160SOL    HW2 7368   1.134   3.174   8.823
 2161SOL     OW 7369   1.608   3.488   9.102
 2161SOL    HW1 7370   1.602   3.522   9.013
 2161SOL    HW2 7371   1.691   3.440   9.104
 2162SOL     OW 7372   1.130   3.066   8.553
 2162SOL    HW1 7373   1.070   3.103   8.618
 2162SOL    HW2 7374   1.096   3.098   8.469
 2163SOL     OW 7375   1.629   2.960   8.525
 2163SOL    HW1 7376   1.624   3.022   8.598
 2163SOL    HW2 7377   1.549   2.977   8.474
 2164SOL     OW 7378   0.917   1.960   8.844
 2164SOL    HW1 7379   0.940   1.940   8.753
 2164SOL    HW2 7380   0.997   1.998   8.881
 2165SOL     OW 7381   0.984   2.976   9.171
 2165SOL    HW1 7382   0.892   2.992   9.193
 2165SOL    HW2 7383   0.982   2.899   9.115
 2166SOL     OW 7384   0.709   2.924   7.820
 2166SOL    HW1 7385   0.695   2.907   7.913
 2166SOL    HW2 7386   0.784   2.870   7.796
 2167SOL     OW 7387   0.430   2.688   8.690
 2167SOL    HW1 7388   0.500   2.700   8.755
 2167SOL    HW2 7389   0.373   2.622   8.729
 2168SOL     OW 7390   1.266   2.238   8.723
 2168SOL    HW1 7391   1.299   2.316   8.769
 2168SOL    HW2 7392   1.176   2.261   8.700
 2169SOL     OW 7393   0.062   3.438   8.790
 2169SOL    HW1 7394   0.035   3.528   8.771
 2169SOL    HW2 7395   0.158   3.443   8.796
 2170SOL     OW 7396   0.346   2.971   7.941
 2170SOL    HW1 7397   0.355   3.044   7.880
 2170SOL    HW2 7398   0.346   2.893   7.885
 2171SOL     OW 7399   0.561   2.395   8.303
 2171SOL    HW1 7400   0.574   2.455   8.230
 2171SOL    HW2 7401   0.622   2.425   8.370
 2172SOL     OW 7402   1.248   3.210   7.837
 2172SOL    HW1 7403   1.304   3.282   7.868
 2172SOL    HW2 7404   1.161   3.232   7.871
 2173SOL     OW 7405   1.281   3.320   8.595
 2173SOL    HW1 7406   1.336   3.322   8.673
 2173SOL    HW2 7407   1.225   3.243   8.606
 2174SOL     OW 7408   1.580   2.482   7.926
 2174SOL    HW1 7409   1.535   2.538   7.989
 2174SOL    HW2 7410   1.627   2.543   7.869
 2175SOL     OW 7411   0.346   3.395   8.762
 2175SOL    HW1 7412   0.333   3.347   8.681
 2175SOL    HW2 7413   0.441   3.404   8.769
 2176SOL     OW 7414   0.481   2.620   9.115
 2176SOL    HW1 7415   0.510   2.658   9.032
 2176SOL    HW2 7416   0.527   2.536   9.120
 2177SOL     OW 7417   1.602   2.642   9.130
 2177SOL    HW1 7418   1.516   2.682   9.123
 2177SOL    HW2 7419   1.654   2.683   9.061
 2178SOL     OW 7420   0.996   1.986   9.202
 2178SOL    HW1 7421   1.053   2.058   9.175
 2178SOL    HW2 7422   1.044   1.907   9.177
 2179SOL     OW 7423   0.497   1.904   9.195
 2179SOL    HW1 7424   0.456   1.848   9.130
 2179SOL    HW2 7425   0.438   1.979   9.203
 2180SOL     OW 7426   0.590   2.735   8.473
 2180SOL    HW1 7427   0.619   2.827   8.474
 2180SOL    HW2 7428   0.533   2.727   8.549
 2181SOL     OW 7429   1.357   2.721   8.478
 2181SOL    HW1 7430   1.274   2.711   8.432
 2181SOL    HW2 7431   1.398   2.634   8.472
 2182SOL     OW 7432   1.205   2.390   7.715
 2182SOL    HW1 7433   1.213   2.312   7.770
 2182SOL    HW2 7434   1.162   2.455   7.771
 2183SOL     OW 7435   0.302   2.053   8.690
 2183SOL    HW1 7436   0.262   2.086   8.770
 2183SOL    HW2 7437   0.285   1.958   8.693
 2184SOL     OW 7438   0.037   3.174   8.734
 2184SOL    HW1 7439   0.075   3.127   8.808
 2184SOL    HW2 7440   0.044   3.267   8.758
 2185SOL     OW 7441   0.725   2.493   8.506
 2185SOL    HW1 7442   0.800   2.475   8.449
 2185SOL    HW2 7443   0.698   2.582   8.483
 2186SOL     OW 7444   1.735   2.821   9.301
 2186SOL    HW1 7445   1.689   2.759   9.244
 2186SOL    HW2 7446   1.676   2.836   9.374
 2187SOL     OW 7447   0.311   1.932   8.067
 2187SOL    HW1 7448   0.287   2.020   8.093
 2187SOL    HW2 7449   0.309   1.881   8.148
 2188SOL     OW 7450   1.611   2.231   7.819
 2188SOL    HW1 7451   1.645   2.174   7.888
 2188SOL    HW2 7452   1.592   2.314   7.863
 2189SOL     OW 7453   1.028   2.621   8.408
 2189SOL    HW1 7454   1.024   2.638   8.502
 2189SOL    HW2 7455   1.001   2.529   8.400
 2190SOL     OW 7456   0.983   3.429   9.165
 2190SOL    HW1 7457   0.967   3.473   9.081
 2190SOL    HW2 7458   1.025   3.346   9.141
 2191SOL     OW 7459   1.855   3.368   9.053
 2191SOL    HW1 7460   1.873   3.394   8.963
 2191SOL    HW2 7461   1.936   3.386   9.101
 2192SOL     OW 7462   0.347   2.796   9.266
 2192SOL    HW1 7463   0.419   2.825   9.321
 2192SOL    HW2 7464   0.385   2.728   9.210
 2193SOL     OW 7465   1.530   2.132   7.576
 2193SOL    HW1 7466   1.463   2.070   7.602
 2193SOL    HW2 7467   1.562   2.170   7.658
 2194SOL     OW 7468   1.291   2.688   7.480
 2194SOL    HW1 7469   1.334   2.602   7.483
 2194SOL    HW2 7470   1.322   2.727   7.398
 2195SOL     OW 7471   1.066   3.198   8.302
 2195SOL    HW1 7472   1.069   3.125   8.239
 2195SOL    HW2 7473   1.127   3.262   8.267
 2196SOL     OW 7474   0.318   2.673   8.395
 2196SOL    HW1 7475   0.412   2.690   8.392
 2196SOL    HW2 7476   0.311   2.582   8.423
 2197SOL     OW 7477   0.330   2.387   8.437
 2197SOL    HW1 7478   0.292   2.300   8.422
 2197SOL    HW2 7479   0.409   2.389   8.383
 2198SOL     OW 7480   1.134   2.238   9.130
 2198SOL    HW1 7481   1.087   2.293   9.193
 2198SOL    HW2 7482   1.222   2.276   9.126
 2199SOL     OW 7483   1.160   2.065   8.918
 2199SOL    HW1 7484   1.150   2.128   8.989
 2199SOL    HW2 7485   1.201   2.115   8.847
 2200SOL     OW 7486   4.491   3.184   7.654
 2200SOL    HW1 7487   4.399   3.200   7.636
 2200SOL    HW2 7488   4.496   3.091   7.675
 2201SOL     OW 7489   0.098   3.638   8.388
 2201SOL    HW1 7490   0.059   3.586   8.318
 2201SOL    HW2 7491   0.186   3.659   8.357
 2202SOL     OW 7492   0.496   3.436   8.355
 2202SOL    HW1 7493   0.564   3.498   8.379
 2202SOL    HW2 7494   0.540   3.373   8.298
 2203SOL     OW 7495   0.983   2.654   8.674
 2203SOL    HW1 7496   1.039   2.631   8.749
 2203SOL    HW2 7497   0.898   2.617   8.696
 2204SOL     OW 7498   0.033   2.425   8.551
 2204SOL    HW1 7499   0.118   2.393   8.521
 2204SOL    HW2 7500   0.018   2.379   8.633
 2205SOL     OW 7501   0.179   2.382   9.163
 2205SOL    HW1 7502   0.260   2.352   9.120
 2205SOL    HW2 7503   0.156   2.463   9.117
 2206SOL     OW 7504   1.377   2.801   9.107
 2206SOL    HW1 7505   1.398   2.894   9.104
 2206SOL    HW2 7506   1.374   2.775   9.015
 2207SOL     OW 7507   0.817   2.431   7.808
 2207SOL    HW1 7508   0.820   2.357   7.748
 2207SOL    HW2 7509   0.743   2.484   7.777
 2208SOL     OW 7510   1.642   2.465   8.635
 2208SOL    HW1 7511   1.634   2.404   8.708
 2208SOL    HW2 7512   1.729   2.447   8.598
 2209SOL     OW 7513   0.274   3.423   9.189
 2209SOL    HW1 7514   0.216   3.476   9.244
 2209SOL    HW2 7515   0.254   3.333   9.212
 2210SOL     OW 7516   0.693   2.316   8.709
 2210SOL    HW1 7517   0.646   2.239   8.677
 2210SOL    HW2 7518   0.693   2.377   8.636
 2211SOL     OW 7519   0.929   3.541   8.915
 2211SOL    HW1 7520   0.902   3.506   8.830
 2211SOL    HW2 7521   0.922   3.636   8.905
 2212SOL     OW 7522   0.472   2.352   7.632
 2212SOL    HW1 7523   0.532   2.423   7.656
 2212SOL    HW2 7524   0.388   2.396   7.617
 2213SOL     OW 7525   0.162   3.003   8.909
 2213SOL    HW1 7526   0.145   2.958   8.991
 2213SOL    HW2 7527   0.169   2.932   8.844
 2214SOL     OW 7528   1.326   2.909   8.671
 2214SOL    HW1 7529   1.349   2.845   8.603
 2214SOL    HW2 7530   1.256   2.961   8.632
 2215SOL     OW 7531   1.311   2.719   7.755
 2215SOL    HW1 7532   1.236   2.688   7.805
 2215SOL    HW2 7533   1.287   2.705   7.663
 2216SOL     OW 7534   1.772   3.606   8.599
 2216SOL    HW1 7535   1.832   3.632   8.529
 2216SOL    HW2 7536   1.748   3.516   8.577
 2217SOL     OW 7537   1.241   3.595   8.561
 2217SOL    HW1 7538   1.323   3.616   8.516
 2217SOL    HW2 7539   1.247   3.502   8.579
 2218SOL     OW 7540   0.067   3.047   8.498
 2218SOL    HW1 7541   0.064   3.078   8.588
 2218SOL    HW2 7542   0.024   3.116   8.447
 2219SOL     OW 7543   0.679   3.528   9.178
 2219SOL    HW1 7544   0.622   3.605   9.172
 2219SOL    HW2 7545   0.742   3.539   9.107
 2220SOL     OW 7546   1.720   2.001   7.967
 2220SOL    HW1 7547   1.773   1.959   7.898
 2220SOL    HW2 7548   1.689   1.929   8.021
 2221SOL     OW 7549   1.391   3.430   7.933
 2221SOL    HW1 7550   1.451   3.462   7.866
 2221SOL    HW2 7551   1.342   3.507   7.961
 2222SOL     OW 7552   0.119   3.669   9.295
 2222SOL    HW1 7553   0.078   3.597   9.343
 2222SOL    HW2 7554   0.182   3.706   9.357
 2223SOL     OW 7555   1.277   2.788   8.119
 2223SOL    HW1 7556   1.351   2.727   8.126
 2223SOL    HW2 7557   1.311   2.860   8.067
 2224SOL     OW 7558   0.814   3.136   8.877
 2224SOL    HW1 7559   0.786   3.175   8.960
 2224SOL    HW2 7560   0.743   3.157   8.816
 2225SOL     OW 7561   0.672   3.482   7.603
 2225SOL    HW1 7562   0.682   3.494   7.509
 2225SOL    HW2 7563   0.618   3.404   7.612
 2226SOL     OW 7564   1.626   3.589   8.839
 2226SOL    HW1 7565   1.676   3.595   8.758
 2226SOL    HW2 7566   1.613   3.679   8.867
 2227SOL     OW 7567   1.795   2.002   8.435
 2227SOL    HW1 7568   1.846   1.933   8.392
 2227SOL    HW2 7569   1.723   2.020   8.374
 2228SOL     OW 7570   0.264   2.181   8.166
 2228SOL    HW1 7571   0.181   2.220   8.139
 2228SOL    HW2 7572   0.254   2.169   8.261
 2229SOL     OW 7573   1.207   3.468   7.480
 2229SOL    HW1 7574   1.198   3.376   7.507
 2229SOL    HW2 7575   1.142   3.479   7.411
 2230SOL     OW 7576   0.826   2.869   8.820
 2230SOL    HW1 7577   0.868   2.865   8.735
 2230SOL    HW2 7578   0.824   2.962   8.842
 2231SOL     OW 7579   0.916   2.773   7.738
 2231SOL    HW1 7580   0.977   2.805   7.671
 2231SOL    HW2 7581   0.963   2.703   7.783
 2232SOL     OW 7582   1.492   3.487   7.491
 2232SOL    HW1 7583   1.397   3.481   7.477
 2232SOL    HW2 7584   1.528   3.493   7.402
 2233SOL     OW 7585   0.373   3.170   8.938
 2233SOL    HW1 7586   0.355   3.248   8.887
 2233SOL    HW2 7587   0.298   3.112   8.922
 2234SOL     OW 7588   1.612   3.145   8.728
 2234SOL    HW1 7589   1.669   3.133   8.804
 2234SOL    HW2 7590   1.550   3.214   8.756
 2235SOL     OW 7591   1.053   2.969   8.154
 2235SOL    HW1 7592   0.982   2.919   8.194
 2235SOL    HW2 7593   1.115   2.903   8.123
 2236SOL     OW 7594   1.021   2.102   8.414
 2236SOL    HW1 7595   1.016   2.054   8.331
 2236SOL    HW2 7596   1.016   2.034   8.481
 2237SOL     OW 7597   0.605   3.352   7.930
 2237SOL    HW1 7598   0.647   3.302   7.860
 2237SOL    HW2 7599   0.529   3.393   7.889
 2238SOL     OW 7600   1.720   2.260   8.828
 2238SOL    HW1 7601   1.800   2.314   8.826
 2238SOL    HW2 7602   1.742   2.183   8.777
 2239SOL     OW 7603   0.252   3.206   7.724
 2239SOL    HW1 7604   0.157   3.204   7.710
 2239SOL    HW2 7605   0.263   3.238   7.814
 2240SOL     OW 7606   0.116   2.869   9.142
 2240SOL    HW1 7607   0.052   2.912   9.199
 2240SOL    HW2 7608   0.194   2.859   9.196
 2241SOL     OW 7609   0.674   2.061   8.947
 2241SOL    HW1 7610   0.758   2.039   8.906
 2241SOL    HW2 7611   0.698   2.089   9.035
 2242SOL     OW 7612   0.072   2.187   7.480
 2242SOL    HW1 7613   4.477   2.199   7.488
 2242SOL    HW2 7614   0.104   2.269   7.441
 2243SOL     OW 7615   1.430   2.721   8.849
 2243SOL    HW1 7616   1.381   2.781   8.793
 2243SOL    HW2 7617   1.519   2.723   8.813
 2244SOL     OW 7618   0.086   2.038   7.752
 2244SOL    HW1 7619   0.080   2.110   7.690
 2244SOL    HW2 7620   0.162   1.988   7.722
 2245SOL     OW 7621   1.179   3.202   7.565
 2245SOL    HW1 7622   1.088   3.171   7.567
 2245SOL    HW2 7623   1.206   3.201   7.656
 2246SOL     OW 7624   0.624   2.693   8.879
 2246SOL    HW1 7625   0.680   2.769   8.865
 2246SOL    HW2 7626   0.685   2.620   8.886
 2247SOL     OW 7627   1.484   3.639   8.427
 2247SOL    HW1 7628   1.507   3.699   8.356
 2247SOL    HW2 7629   1.567   3.620   8.470
 2248SOL     OW 7630   0.714   2.425   9.152
 2248SOL    HW1 7631   0.755   2.488   9.211
 2248SOL    HW2 7632   0.744   2.339   9.183
 2249SOL     OW 7633   1.471   3.062   9.080
 2249SOL    HW1 7634   1.459   3.076   9.174
 2249SOL    HW2 7635   1.565   3.077   9.066
 2250SOL     OW 7636   0.380   3.605   9.013
 2250SOL    HW1 7637   0.295   3.646   8.995
 2250SOL    HW2 7638   0.359   3.526   9.061
 2251SOL     OW 7639   1.670   2.743   8.703
 2251SOL    HW1 7640   1.661   2.658   8.661
 2251SOL    HW2 7641   1.659   2.806   8.632
 2252SOL     OW 7642   1.216   2.181   7.906
 2252SOL    HW1 7643   1.279   2.110   7.898
 2252SOL    HW2 7644   1.246   2.230   7.983
 2253SOL     OW 7645   0.590   2.600   8.117
 2253SOL    HW1 7646   0.628   2.686   8.102
 2253SOL    HW2 7647   0.522   2.591   8.051
 2254SOL     OW 7648   1.756   2.239   9.100
 2254SOL    HW1 7649   1.742   2.245   9.006
 2254SOL    HW2 7650   1.692   2.175   9.130
 2255SOL     OW 7651   1.750   2.793   8.959
 2255SOL    HW1 7652   1.742   2.888   8.974
 2255SOL    HW2 7653   1.731   2.783   8.866
 2256SOL     OW 7654   0.863   3.229   7.483
 2256SOL    HW1 7655   0.824   3.256   7.566
 2256SOL    HW2 7656   0.880   3.311   7.437
 2257SOL     OW 7657   0.661   3.653   8.393
 2257SOL    HW1 7658   0.640   3.743   8.369
 2257SOL    HW2 7659   0.756   3.647   8.384
 2258SOL     OW 7660   0.868   2.830   8.303
 2258SOL    HW1 7661   0.917   2.757   8.342
 2258SOL    HW2 7662   0.832   2.878   8.377
 2259SOL     OW 7663   1.079   2.851   7.537
 2259SOL    HW1 7664   1.057   2.901   7.458
 2259SOL    HW2 7665   1.154   2.797   7.511
 2260SOL     OW 7666   1.853   3.416   8.292
 2260SOL    HW1 7667   1.776   3.405   8.238
 2260SOL    HW2 7668   1.844   3.350   8.361
 2261SOL     OW 7669   0.231   3.167   9.306
 2261SOL    HW1 7670   0.156   3.112   9.284
 2261SOL    HW2 7671   0.226   3.178   9.401
 2262SOL     OW 7672   0.108   3.097   8.116
 2262SOL    HW1 7673   0.120   3.051   8.199
 2262SOL    HW2 7674   0.166   3.052   8.055
 2263SOL     OW 7675   0.683   3.265   9.077
 2263SOL    HW1 7676   0.602   3.221   9.105
 2263SOL    HW2 7677   0.676   3.353   9.114
 2264SOL     OW 7678   1.774   2.033   8.697
 2264SOL    HW1 7679   1.811   1.948   8.722
 2264SOL    HW2 7680   1.778   2.034   8.602
 2265SOL     OW 7681   0.435   2.295   7.973
 2265SOL    HW1 7682   0.460   2.222   7.918
 2265SOL    HW2 7683   0.384   2.256   8.044
 2266SOL     OW 7684   1.700   3.351   8.544
 2266SOL    HW1 7685   1.619   3.328   8.498
 2266SOL    HW2 7686   1.710   3.282   8.609
 2267SOL     OW 7687   0.300   2.350   8.700
 2267SOL    HW1 7688   0.374   2.308   8.744
 2267SOL    HW2 7689   0.330   2.366   8.611
 2268SOL     OW 7690   0.828   3.440   8.125
 2268SOL    HW1 7691   0.814   3.493   8.047
 2268SOL    HW2 7692   0.751   3.382   8.129
 2269SOL     OW 7693   1.434   2.088   8.564
 2269SOL    HW1 7694   1.466   2.012   8.611
 2269SOL    HW2 7695   1.382   2.136   8.629
 2270SOL     OW 7696   1.009   1.880   8.590
 2270SOL    HW1 7697   0.954   1.813   8.550
 2270SOL    HW2 7698   1.097   1.843   8.592
 2271SOL     OW 7699   0.772   3.195   7.762
 2271SOL    HW1 7700   0.741   3.104   7.768
 2271SOL    HW2 7701   0.854   3.195   7.812
 2272SOL     OW 7702   0.621   3.418   8.733
 2272SOL    HW1 7703   0.623   3.500   8.783
 2272SOL    HW2 7704   0.708   3.411   8.695
 2273SOL     OW 7705   1.352   1.915   7.614
 2273SOL    HW1 7706   1.379   1.852   7.547
 2273SOL    HW2 7707   1.265   1.885   7.640
 2274SOL     OW 7708   1.297   2.323   8.129
 2274SOL    HW1 7709   1.243   2.402   8.136
 2274SOL    HW2 7710   1.292   2.283   8.216
 2275SOL     OW 7711   1.566   2.061   8.310
 2275SOL    HW1 7712   1.516   2.082   8.389
 2275SOL    HW2 7713   1.573   2.145   8.263
 2276SOL     OW 7714   0.041   2.913   7.737
 2276SOL    HW1 7715   0.134   2.896   7.726
 2276SOL    HW2 7716   0.021   2.882   7.825
 2277SOL     OW 7717   0.885   3.515   7.790
 2277SOL    HW1 7718   0.812   3.497   7.730
 2277SOL    HW2 7719   0.855   3.590   7.842
 2278SOL     OW 7720   0.248   2.491   9.430
 2278SOL    HW1 7721   0.173   2.469   9.487
 2278SOL    HW2 7722   0.216   2.473   9.342
 2279SOL     OW 7723   0.214   2.137  10.301
 2279SOL    HW1 7724   0.249   2.111  10.386
 2279SOL    HW2 7725   0.137   2.081  10.289
 2280SOL     OW 7726   0.008   2.254   9.950
 2280SOL    HW1 7727   4.427   2.286   9.990
 2280SOL    HW2 7728   4.483   2.174   9.904
 2281SOL     OW 7729   0.568   3.150  10.487
 2281SOL    HW1 7730   0.481   3.154  10.447
 2281SOL    HW2 7731   0.583   3.238  10.521
 2282SOL     OW 7732   1.561   3.374  10.017
 2282SOL    HW1 7733   1.519   3.354  10.100
 2282SOL    HW2 7734   1.490   3.378   9.953
 2283SOL     OW 7735   1.131   2.560  10.011
 2283SOL    HW1 7736   1.179   2.641   9.997
 2283SOL    HW2 7737   1.084   2.574  10.093
 2284SOL     OW 7738   1.781   2.460   9.536
 2284SOL    HW1 7739   1.750   2.457   9.445
 2284SOL    HW2 7740   1.730   2.393   9.581
 2285SOL     OW 7741   0.756   3.005  10.352
 2285SOL    HW1 7742   0.686   3.039  10.408
 2285SOL    HW2 7743   0.790   3.081  10.306
 2286SOL     OW 7744   0.852   2.641   0.021
 2286SOL    HW1 7745   0.862   2.695   0.099
 2286SOL    HW2 7746   0.887   2.694  11.050
 2287SOL     OW 7747   0.685   2.865   9.957
 2287SOL    HW1 7748   0.750   2.853  10.026
 2287SOL    HW2 7749   0.616   2.917   9.998
 2288SOL     OW 7750   0.336   3.282  10.378
 2288SOL    HW1 7751   0.254   3.263  10.333
 2288SOL    HW2 7752   0.385   3.336  10.317
 2289SOL     OW 7753   1.464   3.361  10.660
 2289SOL    HW1 7754   1.520   3.438  10.669
 2289SOL    HW2 7755   1.406   3.365  10.737
 2290SOL     OW 7756   0.450   2.263  10.787
 2290SOL    HW1 7757   0.527   2.208  10.797
 2290SOL    HW2 7758   0.377   2.207  10.812
 2291SOL     OW 7759   1.596   2.313  10.057
 2291SOL    HW1 7760   1.518   2.333  10.006
 2291SOL    HW2 7761   1.612   2.392  10.109
 2292SOL     OW 7762   0.246   3.553   9.787
 2292SOL    HW1 7763   0.230   3.638   9.828
 2292SOL    HW2 7764   0.314   3.570   9.722
 2293SOL     OW 7765   0.250   3.288   9.838
 2293SOL    HW1 7766   0.240   3.383   9.840
 2293SOL    HW2 7767   0.187   3.256   9.902
 2294SOL     OW 7768   0.249   2.944  10.195
 2294SOL    HW1 7769   0.264   2.854  10.222
 2294SOL    HW2 7770   0.188   2.979  10.260
 2295SOL     OW 7771   0.611   3.651  10.739
 2295SOL    HW1 7772   0.531   3.632  10.787
 2295SOL    HW2 7773   0.633   3.741  10.763
 2296SOL     OW 7774   0.579   2.849   9.448
 2296SOL    HW1 7775   0.627   2.892   9.378
 2296SOL    HW2 7776   0.623   2.878   9.528
 2297SOL     OW 7777   1.584   1.977  10.782
 2297SOL    HW1 7778   1.604   2.048  10.721
 2297SOL    HW2 7779   1.610   2.011  10.868
 2298SOL     OW 7780   0.137   2.508   9.884
 2298SOL    HW1 7781   0.089   2.427   9.902
 2298SOL    HW2 7782   0.106   2.569   9.951
 2299SOL     OW 7783   1.842   3.621   9.644
 2299SOL    HW1 7784   1.906   3.593   9.710
 2299SOL    HW2 7785   1.866   3.712   9.625
 2300SOL     OW 7786   0.033   3.464   9.451
 2300SOL    HW1 7787   0.021   3.369   9.448
 2300SOL    HW2 7788   0.022   3.487   9.544
 2301SOL     OW 7789   1.690   2.780   9.951
 2301SOL    HW1 7790   1.772   2.737   9.930
 2301SOL    HW2 7791   1.668   2.831   9.873
 2302SOL     OW 7792   1.646   2.968   9.739
 2302SOL    HW1 7793   1.731   2.974   9.697
 2302SOL    HW2 7794   1.650   3.030   9.813
 2303SOL     OW 7795   0.102   2.623  10.911
 2303SOL    HW1 7796   0.191   2.608  10.878
 2303SOL    HW2 7797   0.092   2.718  10.910
 2304SOL     OW 7798   0.614   3.247  10.046
 2304SOL    HW1 7799   0.567   3.165  10.056
 2304SOL    HW2 7800   0.598   3.274   9.956
 2305SOL     OW 7801   1.293   3.099  10.752
 2305SOL    HW1 7802   1.319   3.038  10.682
 2305SOL    HW2 7803   1.350   3.075  10.826
 2306SOL     OW 7804   0.816   1.862   9.819
 2306SOL    HW1 7805   0.856   1.947   9.800
 2306SOL    HW2 7806   0.723   1.880   9.828
 2307SOL     OW 7807   0.177   2.801  10.590
 2307SOL    HW1 7808   0.269   2.783  10.570
 2307SOL    HW2 7809   0.132   2.787  10.506
 2308SOL     OW 7810   1.532   2.855   9.508
 2308SOL    HW1 7811   1.462   2.798   9.539
 2308SOL    HW2 7812   1.572   2.890   9.588
 2309SOL     OW 7813   1.197   3.669  10.928
 2309SOL    HW1 7814   1.194   3.732  10.856
 2309SOL    HW2 7815   1.206   3.584  10.884
 2310SOL     OW 7816   0.340   2.126   0.006
 2310SOL    HW1 7817   0.387   2.200   0.045
 2310SOL    HW2 7818   0.247   2.147   0.017
 2311SOL     OW 7819   1.467   3.281  10.261
 2311SOL    HW1 7820   1.398   3.297  10.326
 2311SOL    HW2 7821   1.454   3.190  10.234
 2312SOL     OW 7822   1.659   3.601   9.888
 2312SOL    HW1 7823   1.638   3.572   9.799
 2312SOL    HW2 7824   1.634   3.528   9.944
 2313SOL     OW 7825   0.598   2.582   9.577
 2313SOL    HW1 7826   0.600   2.664   9.526
 2313SOL    HW2 7827   0.532   2.598   9.644
 2314SOL     OW 7828   1.278   2.216  10.243
 2314SOL    HW1 7829   1.189   2.182  10.251
 2314SOL    HW2 7830   1.330   2.163  10.302
 2315SOL     OW 7831   1.581   3.532   9.619
 2315SOL    HW1 7832   1.671   3.564   9.612
 2315SOL    HW2 7833   1.554   3.516   9.529
 2316SOL     OW 7834   0.795   2.477  10.761
 2316SOL    HW1 7835   0.767   2.453  10.850
 2316SOL    HW2 7836   0.753   2.412  10.705
 2317SOL     OW 7837   0.966   2.762  10.902
 2317SOL    HW1 7838   1.014   2.689  10.862
 2317SOL    HW2 7839   0.916   2.800  10.830
 2318SOL     OW 7840   0.993   2.276  10.548
 2318SOL    HW1 7841   0.906   2.296  10.585
 2318SOL    HW2 7842   0.974   2.228  10.467
 2319SOL     OW 7843   1.051   2.560   9.736
 2319SOL    HW1 7844   1.067   2.553   9.830
 2319SOL    HW2 7845   0.969   2.514   9.722
 2320SOL     OW 7846   0.096   2.691  10.095
 2320SOL    HW1 7847   0.182   2.674  10.131
 2320SOL    HW2 7848   0.041   2.713  10.170
 2321SOL     OW 7849   0.119   3.711  10.900
 2321SOL    HW1 7850   0.113   3.651  10.974
 2321SOL    HW2 7851   0.051   3.681  10.839
 2322SOL     OW 7852   0.893   2.210   9.504
 2322SOL    HW1 7853   0.933   2.272   9.443
 2322SOL    HW2 7854   0.908   2.124   9.465
 2323SOL     OW 7855   1.377   3.004   9.852
 2323SOL    HW1 7856   1.455   2.991   9.798
 2323SOL    HW2 7857   1.324   3.066   9.801
 2324SOL     OW 7858   0.552   2.043  10.203
 2324SOL    HW1 7859   0.554   2.074  10.294
 2324SOL    HW2 7860   0.552   2.124  10.151
 2325SOL     OW 7861   1.006   3.307   9.782
 2325SOL    HW1 7862   0.969   3.379   9.732
 2325SOL    HW2 7863   0.986   3.328   9.874
 2326SOL     OW 7864   0.356   3.673  10.169
 2326SOL    HW1 7865   0.398   3.587  10.179
 2326SOL    HW2 7866   0.425   3.736  10.185
 2327SOL     OW 7867   1.799   2.918  10.177
 2327SOL    HW1 7868   1.744   2.900  10.101
 2327SOL    HW2 7869   1.738   2.924  10.251
 2328SOL     OW 7870   1.229   3.399  10.823
 2328SOL    HW1 7871   1.236   3.311  10.860
 2328SOL    HW2 7872   1.165   3.391  10.753
 2329SOL     OW 7873   0.315   2.816   9.564
 2329SOL    HW1 7874   0.399   2.839   9.524
 2329SOL    HW2 7875   0.300   2.725   9.537
 2330SOL     OW 7876   1.479   2.603  10.036
 2330SOL    HW1 7877   1.468   2.563  10.122
 2330SOL    HW2 7878   1.556   2.660  10.045
 2331SOL     OW 7879   0.455   3.129  11.052
 2331SOL    HW1 7880   0.426   3.142  10.962
 2331SOL    HW2 7881   0.388   3.073  11.091
 2332SOL     OW 7882   1.122   3.640   9.541
 2332SOL    HW1 7883   1.048   3.598   9.586
 2332SOL    HW2 7884   1.145   3.578   9.471
 2333SOL     OW 7885   0.194   2.138  10.796
 2333SOL    HW1 7886   0.139   2.217  10.804
 2333SOL    HW2 7887   0.188   2.096  10.882
 2334SOL     OW 7888   1.629   3.242   9.397
 2334SOL    HW1 7889   1.587   3.327   9.383
 2334SOL    HW2 7890   1.560   3.178   9.379
 2335SOL     OW 7891   0.469   3.605   9.623
 2335SOL    HW1 7892   0.511   3.659   9.691
 2335SOL    HW2 7893   0.542   3.570   9.572
 2336SOL     OW 7894   1.400   1.971   9.743
 2336SOL    HW1 7895   1.390   1.944   9.651
 2336SOL    HW2 7896   1.494   1.972   9.758
 2337SOL     OW 7897   0.256   3.654  10.543
 2337SOL    HW1 7898   0.304   3.581  10.582
 2337SOL    HW2 7899   0.227   3.621  10.459
 2338SOL     OW 7900   0.938   3.561  10.209
 2338SOL    HW1 7901   1.016   3.509  10.229
 2338SOL    HW2 7902   0.894   3.511  10.140
 2339SOL     OW 7903   0.395   2.556   9.783
 2339SOL    HW1 7904   0.418   2.464   9.794
 2339SOL    HW2 7905   0.303   2.562   9.808
 2340SOL     OW 7906   0.636   1.986   9.413
 2340SOL    HW1 7907   0.702   1.920   9.429
 2340SOL    HW2 7908   0.587   1.953   9.338
 2341SOL     OW 7909   0.769   2.137  11.046
 2341SOL    HW1 7910   0.834   2.078  11.087
 2341SOL    HW2 7911   0.707   2.156   0.016
 2342SOL     OW 7912   0.876   3.384  10.503
 2342SOL    HW1 7913   0.860   3.348  10.416
 2342SOL    HW2 7914   0.948   3.332  10.538
 2343SOL     OW 7915   1.343   2.452  10.754
 2343SOL    HW1 7916   1.394   2.431  10.831
 2343SOL    HW2 7917   1.370   2.541  10.730
 2344SOL     OW 7918   0.816   3.257  10.250
 2344SOL    HW1 7919   0.900   3.245  10.205
 2344SOL    HW2 7920   0.751   3.258  10.179
 2345SOL     OW 7921   0.928   2.371  10.213
 2345SOL    HW1 7922   0.904   2.363  10.121
 2345SOL    HW2 7923   0.959   2.284  10.238
 2346SOL     OW 7924   0.553   1.924   9.811
 2346SOL    HW1 7925   0.472   1.922   9.862
 2346SOL    HW2 7926   0.545   2.002   9.756
 2347SOL     OW 7927   1.428   3.060   9.351
 2347SOL    HW1 7928   1.458   2.984   9.401
 2347SOL    HW2 7929   1.342   3.081   9.388
 2348SOL     OW 7930   0.295   1.908   9.488
 2348SOL    HW1 7931   0.358   1.975   9.461
 2348SOL    HW2 7932   0.348   1.842   9.533
 2349SOL     OW 7933   0.938   2.109   9.770
 2349SOL    HW1 7934   0.912   2.150   9.688
 2349SOL    HW2 7935   1.033   2.123   9.774
 2350SOL     OW 7936   1.079   2.548  10.771
 2350SOL    HW1 7937   1.008   2.483  10.775
 2350SOL    HW2 7938   1.159   2.496  10.769
 2351SOL     OW 7939   1.223   3.432  10.104
 2351SOL    HW1 7940   1.239   3.498  10.037
 2351SOL    HW2 7941   1.292   3.447  10.169
 2352SOL     OW 7942   0.467   3.012  10.045
 2352SOL    HW1 7943   0.396   2.993  10.107
 2352SOL    HW2 7944   0.428   2.996   9.959
 2353SOL     OW 7945   1.269   3.656   9.918
 2353SOL    HW1 7946   1.315   3.717   9.861
 2353SOL    HW2 7947   1.202   3.709   9.962
 2354SOL     OW 7948   1.023   2.404   9.333
 2354SOL    HW1 7949   0.980   2.487   9.313
 2354SOL    HW2 7950   1.088   2.426   9.399
 2355SOL     OW 7951   0.075   2.389  10.717
 2355SOL    HW1 7952   0.146   2.388  10.652
 2355SOL    HW2 7953   0.070   2.480  10.745
 2356SOL     OW 7954   0.560   2.090  10.476
 2356SOL    HW1 7955   0.602   2.012  10.512
 2356SOL    HW2 7956   0.468   2.083  10.504
 2357SOL     OW 7957   0.869   2.322   9.950
 2357SOL    HW1 7958   0.821   2.375   9.886
 2357SOL    HW2 7959   0.889   2.241   9.902
 2358SOL     OW 7960   1.015   1.916  10.062
 2358SOL    HW1 7961   0.957   1.908   9.986
 2358SOL    HW2 7962   0.993   1.840  10.116
 2359SOL     OW 7963   1.436   3.025  10.167
 2359SOL    HW1 7964   1.368   2.958  10.166
 2359SOL    HW2 7965   1.460   3.036  10.075
 2360SOL     OW 7966   1.464   2.469  10.287
 2360SOL    HW1 7967   1.415   2.387  10.289
 2360SOL    HW2 7968   1.524   2.462  10.362
 2361SOL     OW 7969   1.846   2.676   9.692
 2361SOL    HW1 7970   1.901   2.626   9.752
 2361SOL    HW2 7971   1.822   2.614   9.623
 2362SOL     OW 7972   0.491   3.280   9.469
 2362SOL    HW1 7973   0.414   3.251   9.518
 2362SOL    HW2 7974   0.475   3.251   9.379
 2363SOL     OW 7975   1.670   3.127   9.955
 2363SOL    HW1 7976   1.765   3.130   9.969
 2363SOL    HW2 7977   1.640   3.215   9.977
 2364SOL     OW 7978   1.394   2.434   9.381
 2364SOL    HW1 7979   1.333   2.415   9.452
 2364SOL    HW2 7980   1.477   2.398   9.411
 2365SOL     OW 7981   0.525   2.122   9.627
 2365SOL    HW1 7982   0.571   2.076   9.557
 2365SOL    HW2 7983   0.505   2.208   9.590
 2366SOL     OW 7984   1.759   3.091  10.866
 2366SOL    HW1 7985   1.851   3.064  10.868
 2366SOL    HW2 7986   1.759   3.177  10.908
 2367SOL     OW 7987   1.063   3.216  10.649
 2367SOL    HW1 7988   0.985   3.183  10.694
 2367SOL    HW2 7989   1.135   3.168  10.690
 2368SOL     OW 7990   1.130   3.069  10.415
 2368SOL    HW1 7991   1.064   3.103  10.476
 2368SOL    HW2 7992   1.099   3.098  10.329
 2369SOL     OW 7993   1.629   2.961  10.387
 2369SOL    HW1 7994   1.625   3.022  10.461
 2369SOL    HW2 7995   1.550   2.978  10.337
 2370SOL     OW 7996   0.917   1.961  10.705
 2370SOL    HW1 7997   0.942   1.941  10.614
 2370SOL    HW2 7998   0.996   2.002  10.742
 2371SOL     OW 7999   0.709   2.924   9.682
 2371SOL    HW1 8000   0.695   2.907   9.775
 2371SOL    HW2 8001   0.784   2.870   9.658
 2372SOL     OW 8002   0.429   2.686  10.553
 2372SOL    HW1 8003   0.498   2.696  10.618
 2372SOL    HW2 8004   0.369   2.621  10.590
 2373SOL     OW 8005   1.266   2.240  10.588
 2373SOL    HW1 8006   1.298   2.318  10.634
 2373SOL    HW2 8007   1.177   2.263  10.563
 2374SOL     OW 8008   0.064   3.441  10.658
 2374SOL    HW1 8009   0.039   3.527  10.625
 2374SOL    HW2 8010   0.159   3.441  10.658
 2375SOL     OW 8011   0.347   2.971   9.803
 2375SOL    HW1 8012   0.355   3.044   9.742
 2375SOL    HW2 8013   0.346   2.893   9.747
 2376SOL     OW 8014   0.561   2.394  10.165
 2376SOL    HW1 8015   0.574   2.455  10.092
 2376SOL    HW2 8016   0.622   2.425  10.232
 2377SOL     OW 8017   1.248   3.210   9.699
 2377SOL    HW1 8018   1.304   3.282   9.730
 2377SOL    HW2 8019   1.161   3.232   9.733
 2378SOL     OW 8020   1.280   3.321  10.455
 2378SOL    HW1 8021   1.337   3.324  10.532
 2378SOL    HW2 8022   1.227   3.243  10.467
 2379SOL     OW 8023   1.580   2.487   9.783
 2379SOL    HW1 8024   1.533   2.533   9.852
 2379SOL    HW2 8025   1.630   2.555   9.738
 2380SOL     OW 8026   0.345   3.391  10.623
 2380SOL    HW1 8027   0.333   3.345  10.541
 2380SOL    HW2 8028   0.440   3.403  10.630
 2381SOL     OW 8029   0.487   2.608  10.970
 2381SOL    HW1 8030   0.523   2.644  10.889
 2381SOL    HW2 8031   0.529   2.522  10.978
 2382SOL     OW 8032   1.596   2.621  10.963
 2382SOL    HW1 8033   1.519   2.677  10.964
 2382SOL    HW2 8034   1.665   2.674  10.923
 2383SOL     OW 8035   0.590   2.735  10.336
 2383SOL    HW1 8036   0.617   2.827  10.337
 2383SOL    HW2 8037   0.533   2.726  10.412
 2384SOL     OW 8038   1.357   2.723  10.343
 2384SOL    HW1 8039   1.274   2.714  10.296
 2384SOL    HW2 8040   1.398   2.637  10.337
 2385SOL     OW 8041   1.205   2.391   9.577
 2385SOL    HW1 8042   1.212   2.312   9.631
 2385SOL    HW2 8043   1.162   2.455   9.633
 2386SOL     OW 8044   0.301   2.053  10.552
 2386SOL    HW1 8045   0.264   2.088  10.633
 2386SOL    HW2 8046   0.283   1.959  10.555
 2387SOL     OW 8047   0.039   3.177  10.595
 2387SOL    HW1 8048   0.074   3.128  10.669
 2387SOL    HW2 8049   0.042   3.269  10.623
 2388SOL     OW 8050   0.725   2.494  10.368
 2388SOL    HW1 8051   0.799   2.476  10.310
 2388SOL    HW2 8052   0.697   2.582  10.345
 2389SOL     OW 8053   0.311   1.932   9.929
 2389SOL    HW1 8054   0.287   2.020   9.955
 2389SOL    HW2 8055   0.309   1.881  10.010
 2390SOL     OW 8056   1.622   2.235   9.680
 2390SOL    HW1 8057   1.641   2.173   9.750
 2390SOL    HW2 8058   1.597   2.316   9.724
 2391SOL     OW 8059   1.027   2.621  10.270
 2391SOL    HW1 8060   1.024   2.638  10.364
 2391SOL    HW2 8061   1.001   2.529  10.262
 2392SOL     OW 8062   0.974   3.435  11.004
 2392SOL    HW1 8063   0.960   3.484  10.923
 2392SOL    HW2 8064   1.002   3.348  10.974
 2393SOL     OW 8065   1.856   3.355  10.911
 2393SOL    HW1 8066   1.873   3.390  10.824
 2393SOL    HW2 8067   1.922   3.396  10.967
 2394SOL     OW 8068   0.348   2.796  11.092
 2394SOL    HW1 8069   0.421   2.825   0.048
 2394SOL    HW2 8070   0.384   2.723  11.042
 2395SOL     OW 8071   1.528   2.135   9.440
 2395SOL    HW1 8072   1.463   2.070   9.464
 2395SOL    HW2 8073   1.559   2.170   9.524
 2396SOL     OW 8074   1.292   2.688   9.341
 2396SOL    HW1 8075   1.334   2.603   9.345
 2396SOL    HW2 8076   1.323   2.727   9.259
 2397SOL     OW 8077   1.067   3.197  10.164
 2397SOL    HW1 8078   1.069   3.125  10.101
 2397SOL    HW2 8079   1.127   3.262  10.129
 2398SOL     OW 8080   0.318   2.673  10.257
 2398SOL    HW1 8081   0.412   2.689  10.254
 2398SOL    HW2 8082   0.310   2.581  10.285
 2399SOL     OW 8083   0.330   2.387  10.300
 2399SOL    HW1 8084   0.292   2.301  10.285
 2399SOL    HW2 8085   0.409   2.388  10.245
 2400SOL     OW 8086   1.156   2.070  10.782
 2400SOL    HW1 8087   1.171   2.125  10.859
 2400SOL    HW2 8088   1.198   2.117  10.710
 2401SOL     OW 8089   4.491   3.184   9.516
 2401SOL    HW1 8090   4.399   3.200   9.498
 2401SOL    HW2 8091   4.496   3.091   9.537
 2402SOL     OW 8092   0.097   3.636  10.250
 2402SOL    HW1 8093   0.059   3.585  10.179
 2402SOL    HW2 8094   0.185   3.659  10.219
 2403SOL     OW 8095   0.497   3.436  10.217
 2403SOL    HW1 8096   0.565   3.499  10.240
 2403SOL    HW2 8097   0.540   3.373  10.159
 2404SOL     OW 8098   0.983   2.656  10.536
 2404SOL    HW1 8099   1.038   2.634  10.611
 2404SOL    HW2 8100   0.897   2.617  10.557
 2405SOL     OW 8101   0.032   2.422  10.411
 2405SOL    HW1 8102   0.119   2.393  10.384
 2405SOL    HW2 8103   0.020   2.386  10.498
 2406SOL     OW 8104   0.817   2.431   9.670
 2406SOL    HW1 8105   0.820   2.357   9.610
 2406SOL    HW2 8106   0.743   2.484   9.639
 2407SOL     OW 8107   1.642   2.466  10.495
 2407SOL    HW1 8108   1.636   2.405  10.569
 2407SOL    HW2 8109   1.730   2.452  10.460
 2408SOL     OW 8110   0.263   3.436  11.055
 2408SOL    HW1 8111   0.209   3.460   0.030
 2408SOL    HW2 8112   0.245   3.343  11.041
 2409SOL     OW 8113   0.699   2.314  10.570
 2409SOL    HW1 8114   0.647   2.239  10.540
 2409SOL    HW2 8115   0.695   2.376  10.497
 2410SOL     OW 8116   0.940   3.544  10.757
 2410SOL    HW1 8117   0.903   3.510  10.676
 2410SOL    HW2 8118   0.923   3.638  10.753
 2411SOL     OW 8119   0.472   2.352   9.494
 2411SOL    HW1 8120   0.532   2.423   9.519
 2411SOL    HW2 8121   0.388   2.395   9.479
 2412SOL     OW 8122   0.164   3.004  10.768
 2412SOL    HW1 8123   0.138   2.965  10.851
 2412SOL    HW2 8124   0.168   2.931  10.707
 2413SOL     OW 8125   1.324   2.915  10.538
 2413SOL    HW1 8126   1.350   2.849  10.473
 2413SOL    HW2 8127   1.255   2.964  10.495
 2414SOL     OW 8128   1.311   2.719   9.616
 2414SOL    HW1 8129   1.236   2.688   9.666
 2414SOL    HW2 8130   1.287   2.705   9.525
 2415SOL     OW 8131   1.773   3.607  10.461
 2415SOL    HW1 8132   1.833   3.632  10.390
 2415SOL    HW2 8133   1.748   3.517  10.440
 2416SOL     OW 8134   1.240   3.596  10.422
 2416SOL    HW1 8135   1.323   3.617  10.378
 2416SOL    HW2 8136   1.246   3.502  10.440
 2417SOL     OW 8137   0.067   3.047  10.360
 2417SOL    HW1 8138   0.065   3.079  10.450
 2417SOL    HW2 8139   0.024   3.116  10.309
 2418SOL     OW 8140   1.710   2.007   9.834
 2418SOL    HW1 8141   1.769   1.989   9.761
 2418SOL    HW2 8142   1.694   1.921   9.874
 2419SOL     OW 8143   1.391   3.430   9.795
 2419SOL    HW1 8144   1.451   3.462   9.728
 2419SOL    HW2 8145   1.342   3.507   9.823
 2420SOL     OW 8146   1.278   2.787   9.981
 2420SOL    HW1 8147   1.351   2.726   9.987
 2420SOL    HW2 8148   1.311   2.860   9.929
 2421SOL     OW 8149   0.817   3.136  10.738
 2421SOL    HW1 8150   0.786   3.171  10.822
 2421SOL    HW2 8151   0.747   3.158  10.676
 2422SOL     OW 8152   0.672   3.482   9.465
 2422SOL    HW1 8153   0.682   3.494   9.371
 2422SOL    HW2 8154   0.617   3.404   9.474
 2423SOL     OW 8155   1.621   3.582  10.695
 2423SOL    HW1 8156   1.677   3.596  10.619
 2423SOL    HW2 8157   1.606   3.670  10.731
 2424SOL     OW 8158   1.822   2.037  10.283
 2424SOL    HW1 8159   1.866   1.955  10.259
 2424SOL    HW2 8160   1.741   2.036  10.233
 2425SOL     OW 8161   0.264   2.182  10.028
 2425SOL    HW1 8162   0.181   2.220  10.001
 2425SOL    HW2 8163   0.255   2.169  10.123
 2426SOL     OW 8164   1.207   3.468   9.342
 2426SOL    HW1 8165   1.198   3.376   9.369
 2426SOL    HW2 8166   1.142   3.479   9.273
 2427SOL     OW 8167   0.827   2.868  10.686
 2427SOL    HW1 8168   0.869   2.861  10.600
 2427SOL    HW2 8169   0.826   2.962  10.705
 2428SOL     OW 8170   0.916   2.773   9.600
 2428SOL    HW1 8171   0.977   2.805   9.534
 2428SOL    HW2 8172   0.964   2.703   9.645
 2429SOL     OW 8173   1.492   3.487   9.353
 2429SOL    HW1 8174   1.397   3.481   9.339
 2429SOL    HW2 8175   1.528   3.493   9.264
 2430SOL     OW 8176   0.368   3.175  10.806
 2430SOL    HW1 8177   0.354   3.249  10.747
 2430SOL    HW2 8178   0.297   3.114  10.785
 2431SOL     OW 8179   1.614   3.144  10.593
 2431SOL    HW1 8180   1.669   3.129  10.670
 2431SOL    HW2 8181   1.556   3.216  10.618
 2432SOL     OW 8182   1.053   2.969  10.017
 2432SOL    HW1 8183   0.981   2.919  10.055
 2432SOL    HW2 8184   1.115   2.904   9.985
 2433SOL     OW 8185   1.021   2.102  10.277
 2433SOL    HW1 8186   1.016   2.055  10.194
 2433SOL    HW2 8187   1.016   2.034  10.343
 2434SOL     OW 8188   0.605   3.352   9.792
 2434SOL    HW1 8189   0.647   3.302   9.722
 2434SOL    HW2 8190   0.529   3.393   9.751
 2435SOL     OW 8191   1.722   2.261  10.688
 2435SOL    HW1 8192   1.802   2.313  10.688
 2435SOL    HW2 8193   1.742   2.185  10.632
 2436SOL     OW 8194   0.252   3.206   9.586
 2436SOL    HW1 8195   0.157   3.204   9.572
 2436SOL    HW2 8196   0.263   3.238   9.676
 2437SOL     OW 8197   0.110   2.882  11.002
 2437SOL    HW1 8198   0.053   2.886  11.079
 2437SOL    HW2 8199   0.197   2.862  11.038
 2438SOL     OW 8200   0.675   2.059  10.803
 2438SOL    HW1 8201   0.757   2.036  10.758
 2438SOL    HW2 8202   0.702   2.092  10.888
 2439SOL     OW 8203   0.072   2.187   9.342
 2439SOL    HW1 8204   4.477   2.200   9.349
 2439SOL    HW2 8205   0.104   2.269   9.303
 2440SOL     OW 8206   1.428   2.712  10.709
 2440SOL    HW1 8207   1.381   2.780  10.662
 2440SOL    HW2 8208   1.519   2.720  10.678
 2441SOL     OW 8209   0.086   2.038   9.614
 2441SOL    HW1 8210   0.080   2.110   9.552
 2441SOL    HW2 8211   0.162   1.988   9.584
 2442SOL     OW 8212   1.179   3.201   9.427
 2442SOL    HW1 8213   1.088   3.171   9.429
 2442SOL    HW2 8214   1.206   3.201   9.518
 2443SOL     OW 8215   0.625   2.690  10.740
 2443SOL    HW1 8216   0.680   2.767  10.727
 2443SOL    HW2 8217   0.686   2.618  10.746
 2444SOL     OW 8218   1.483   3.639  10.288
 2444SOL    HW1 8219   1.508   3.699  10.218
 2444SOL    HW2 8220   1.566   3.620  10.333
 2445SOL     OW 8221   0.715   2.426  11.014
 2445SOL    HW1 8222   0.750   2.499  11.066
 2445SOL    HW2 8223   0.765   2.350  11.042
 2446SOL     OW 8224   0.383   3.601  10.873
 2446SOL    HW1 8225   0.306   3.657  10.865
 2446SOL    HW2 8226   0.355   3.531  10.933
 2447SOL     OW 8227   1.671   2.744  10.568
 2447SOL    HW1 8228   1.661   2.659  10.526
 2447SOL    HW2 8229   1.661   2.808  10.497
 2448SOL     OW 8230   1.217   2.182   9.768
 2448SOL    HW1 8231   1.279   2.110   9.760
 2448SOL    HW2 8232   1.246   2.230   9.845
 2449SOL     OW 8233   0.590   2.600   9.979
 2449SOL    HW1 8234   0.628   2.686   9.964
 2449SOL    HW2 8235   0.522   2.591   9.913
 2450SOL     OW 8236   1.732   2.165  10.949
 2450SOL    HW1 8237   1.727   2.210  10.865
 2450SOL    HW2 8238   1.658   2.200  10.999
 2451SOL     OW 8239   1.755   2.798  10.825
 2451SOL    HW1 8240   1.743   2.891  10.840
 2451SOL    HW2 8241   1.733   2.785  10.732
 2452SOL     OW 8242   0.864   3.229   9.345
 2452SOL    HW1 8243   0.824   3.256   9.428
 2452SOL    HW2 8244   0.880   3.311   9.298
 2453SOL     OW 8245   0.661   3.653  10.255
 2453SOL    HW1 8246   0.640   3.743  10.232
 2453SOL    HW2 8247   0.756   3.648  10.246
 2454SOL     OW 8248   0.868   2.830  10.165
 2454SOL    HW1 8249   0.917   2.757  10.204
 2454SOL    HW2 8250   0.832   2.877  10.240
 2455SOL     OW 8251   1.080   2.851   9.399
 2455SOL    HW1 8252   1.057   2.901   9.321
 2455SOL    HW2 8253   1.154   2.797   9.373
 2456SOL     OW 8254   1.854   3.416  10.154
 2456SOL    HW1 8255   1.775   3.405  10.101
 2456SOL    HW2 8256   1.845   3.351  10.224
 2457SOL     OW 8257   0.108   3.097   9.978
 2457SOL    HW1 8258   0.120   3.051  10.061
 2457SOL    HW2 8259   0.166   3.052   9.917
 2458SOL     OW 8260   0.681   3.258  10.940
 2458SOL    HW1 8261   0.609   3.206  10.977
 2458SOL    HW2 8262   0.644   3.346  10.929
 2459SOL     OW 8263   1.776   2.038  10.545
 2459SOL    HW1 8264   1.801   1.947  10.560
 2459SOL    HW2 8265   1.796   2.052  10.452
 2460SOL     OW 8266   0.435   2.295   9.836
 2460SOL    HW1 8267   0.460   2.222   9.780
 2460SOL    HW2 8268   0.384   2.256   9.906
 2461SOL     OW 8269   1.701   3.352  10.406
 2461SOL    HW1 8270   1.620   3.328  10.361
 2461SOL    HW2 8271   1.714   3.283  10.471
 2462SOL     OW 8272   0.298   2.351  10.564
 2462SOL    HW1 8273   0.369   2.311  10.613
 2462SOL    HW2 8274   0.332   2.364  10.476
 2463SOL     OW 8275   0.828   3.440   9.988
 2463SOL    HW1 8276   0.814   3.494   9.910
 2463SOL    HW2 8277   0.751   3.382   9.990
 2464SOL     OW 8278   1.432   2.088  10.427
 2464SOL    HW1 8279   1.465   2.010  10.472
 2464SOL    HW2 8280   1.381   2.135  10.492
 2465SOL     OW 8281   1.009   1.881  10.452
 2465SOL    HW1 8282   0.955   1.813  10.411
 2465SOL    HW2 8283   1.097   1.843  10.454
 2466SOL     OW 8284   0.772   3.195   9.624
 2466SOL    HW1 8285   0.741   3.104   9.630
 2466SOL    HW2 8286   0.854   3.195   9.674
 2467SOL     OW 8287   0.620   3.416  10.598
 2467SOL    HW1 8288   0.621   3.500  10.644
 2467SOL    HW2 8289   0.707   3.411  10.557
 2468SOL     OW 8290   1.352   1.915   9.475
 2468SOL    HW1 8291   1.381   1.852   9.410
 2468SOL    HW2 8292   1.265   1.886   9.501
 2469SOL     OW 8293   1.298   2.324   9.992
 2469SOL    HW1 8294   1.242   2.402   9.998
 2469SOL    HW2 8295   1.292   2.284  10.078
 2470SOL     OW 8296   1.574   2.059  10.181
 2470SOL    HW1 8297   1.521   2.080  10.258
 2470SOL    HW2 8298   1.577   2.140  10.131
 2471SOL     OW 8299   0.041   2.913   9.599
 2471SOL    HW1 8300   0.134   2.895   9.588
 2471SOL    HW2 8301   0.021   2.882   9.686
 2472SOL     OW 8302   0.885   3.515   9.652
 2472SOL    HW1 8303   0.812   3.497   9.592
 2472SOL    HW2 8304   0.855   3.590   9.704
 2473SOL     OW 8305   0.205   4.283   0.085
 2473SOL    HW1 8306   0.150   4.310   0.159
 2473SOL    HW2 8307   0.229   4.364   0.042
 2474SOL     OW 8308   0.208   3.995   0.991
 2474SOL    HW1 8309   0.244   3.968   1.076
 2474SOL    HW2 8310   0.134   3.937   0.977
 2475SOL     OW 8311   4.499   4.101   0.629
 2475SOL    HW1 8312   4.417   4.128   0.671
 2475SOL    HW2 8313   4.481   4.015   0.592
 2476SOL     OW 8314   1.730   4.332   0.231
 2476SOL    HW1 8315   1.750   4.308   0.140
 2476SOL    HW2 8316   1.724   4.248   0.276
 2477SOL     OW 8317   0.735   0.271   0.686
 2477SOL    HW1 8318   0.721   0.204   0.753
 2477SOL    HW2 8319   0.648   0.289   0.651
 2478SOL     OW 8320   0.446   4.119   1.488
 2478SOL    HW1 8321   0.527   4.068   1.490
 2478SOL    HW2 8322   0.376   4.054   1.498
 2479SOL     OW 8323   1.615   4.171   0.741
 2479SOL    HW1 8324   1.549   4.197   0.676
 2479SOL    HW2 8325   1.613   4.241   0.806
 2480SOL     OW 8326   1.597   3.847   1.468
 2480SOL    HW1 8327   1.602   3.928   1.417
 2480SOL    HW2 8328   1.581   3.877   1.558
 2481SOL     OW 8329   0.163   4.320   0.634
 2481SOL    HW1 8330   0.102   4.248   0.622
 2481SOL    HW2 8331   0.117   4.397   0.599
 2482SOL     OW 8332   0.123   0.003   1.588
 2482SOL    HW1 8333   0.217   4.485   1.586
 2482SOL    HW2 8334   0.114   0.089   1.548
 2483SOL     OW 8335   0.817   3.726   0.509
 2483SOL    HW1 8336   0.855   3.812   0.492
 2483SOL    HW2 8337   0.723   3.742   0.517
 2484SOL     OW 8338   0.330   3.979   1.800
 2484SOL    HW1 8339   0.373   4.059   1.831
 2484SOL    HW2 8340   0.240   3.986   1.833
 2485SOL     OW 8341   1.277   4.074   0.933
 2485SOL    HW1 8342   1.188   4.041   0.943
 2485SOL    HW2 8343   1.329   4.022   0.994
 2486SOL     OW 8344   0.828   4.303   1.447
 2486SOL    HW1 8345   0.789   4.308   1.534
 2486SOL    HW2 8346   0.760   4.266   1.391
 2487SOL     OW 8347   1.395   4.200   1.676
 2487SOL    HW1 8348   1.398   4.244   1.761
 2487SOL    HW2 8349   1.453   4.124   1.687
 2488SOL     OW 8350   0.998   4.151   1.233
 2488SOL    HW1 8351   0.927   4.172   1.293
 2488SOL    HW2 8352   0.959   4.092   1.169
 2489SOL     OW 8353   1.060   4.403   0.422
 2489SOL    HW1 8354   1.056   4.460   0.499
 2489SOL    HW2 8355   0.968   4.382   0.403
 2490SOL     OW 8356   0.053   0.059   0.849
 2490SOL    HW1 8357   0.142   0.025   0.858
 2490SOL    HW2 8358   0.052   0.102   0.764
 2491SOL     OW 8359   0.888   4.073   0.210
 2491SOL    HW1 8360   0.932   4.132   0.148
 2491SOL    HW2 8361   0.902   3.986   0.173
 2492SOL     OW 8362   1.708   4.299   1.830
 2492SOL    HW1 8363   1.722   4.387   1.795
 2492SOL    HW2 8364   1.730   4.240   1.757
 2493SOL     OW 8365   0.552   3.904   0.893
 2493SOL    HW1 8366   0.554   3.935   0.984
 2493SOL    HW2 8367   0.547   3.984   0.840
 2494SOL     OW 8368   1.488   4.465   0.740
 2494SOL    HW1 8369   1.473   4.410   0.817
 2494SOL    HW2 8370   1.529   0.044   0.774
 2495SOL     OW 8371   0.189   4.001   1.485
 2495SOL    HW1 8372   0.140   4.082   1.495
 2495SOL    HW2 8373   0.183   3.958   1.570
 2496SOL     OW 8374   1.402   3.830   0.431
 2496SOL    HW1 8375   1.394   3.808   0.339
 2496SOL    HW2 8376   1.496   3.840   0.446
 2497SOL     OW 8377   0.347   4.377   0.402
 2497SOL    HW1 8378   0.393   4.303   0.444
 2497SOL    HW2 8379   0.300   4.419   0.474
 2498SOL     OW 8380   1.534   3.950   1.725
 2498SOL    HW1 8381   1.543   3.971   1.818
 2498SOL    HW2 8382   1.466   3.883   1.722
 2499SOL     OW 8383   0.617   3.833   0.122
 2499SOL    HW1 8384   0.706   3.796   0.120
 2499SOL    HW2 8385   0.580   3.811   0.037
 2500SOL     OW 8386   0.766   4.002   1.755
 2500SOL    HW1 8387   0.843   3.945   1.754
 2500SOL    HW2 8388   0.717   3.976   1.833
 2501SOL     OW 8389   1.342   4.312   1.430
 2501SOL    HW1 8390   1.364   4.275   1.515
 2501SOL    HW2 8391   1.386   4.397   1.428
 2502SOL     OW 8392   0.924   4.235   0.899
 2502SOL    HW1 8393   0.901   4.220   0.807
 2502SOL    HW2 8394   0.963   4.153   0.928
 2503SOL     OW 8395   0.554   3.786   0.503
 2503SOL    HW1 8396   0.472   3.783   0.552
 2503SOL    HW2 8397   0.546   3.864   0.448
 2504SOL     OW 8398   0.285   3.772   0.192
 2504SOL    HW1 8399   0.332   3.824   0.126
 2504SOL    HW2 8400   0.349   3.708   0.223
 2505SOL     OW 8401   0.939   3.974   0.464
 2505SOL    HW1 8402   0.913   4.013   0.381
 2505SOL    HW2 8403   1.034   3.987   0.467
 2506SOL     OW 8404   1.075   4.396   1.524
 2506SOL    HW1 8405   0.992   4.366   1.486
 2506SOL    HW2 8406   1.142   4.358   1.468
 2507SOL     OW 8407   1.008   4.263   0.041
 2507SOL    HW1 8408   1.022   4.319  11.064
 2507SOL    HW2 8409   1.089   4.272   0.092
 2508SOL     OW 8410   0.084   4.256   1.409
 2508SOL    HW1 8411   0.159   4.269   1.350
 2508SOL    HW2 8412   0.051   4.345   1.425
 2509SOL     OW 8413   0.560   3.951   1.166
 2509SOL    HW1 8414   0.601   3.872   1.200
 2509SOL    HW2 8415   0.469   3.945   1.194
 2510SOL     OW 8416   0.868   4.189   0.640
 2510SOL    HW1 8417   0.840   4.253   0.574
 2510SOL    HW2 8418   0.887   4.110   0.589
 2511SOL     OW 8419   1.014   3.778   0.751
 2511SOL    HW1 8420   0.956   3.770   0.676
 2511SOL    HW2 8421   0.993   3.702   0.806
 2512SOL     OW 8422   1.477   4.311   0.965
 2512SOL    HW1 8423   1.417   4.239   0.984
 2512SOL    HW2 8424   1.527   4.322   1.046
 2513SOL     OW 8425   1.401   4.293   0.072
 2513SOL    HW1 8426   1.335   4.276   0.140
 2513SOL    HW2 8427   1.466   4.224   0.085
 2514SOL     OW 8428   0.527   3.989   0.325
 2514SOL    HW1 8429   0.555   3.929   0.256
 2514SOL    HW2 8430   0.510   4.072   0.280
 2515SOL     OW 8431   0.917   3.822   1.395
 2515SOL    HW1 8432   0.941   3.801   1.305
 2515SOL    HW2 8433   0.997   3.860   1.433
 2516SOL     OW 8434   0.443   0.004   1.264
 2516SOL    HW1 8435   0.500   4.500   1.341
 2516SOL    HW2 8436   0.406   4.416   1.257
 2517SOL     OW 8437   1.265   4.099   1.276
 2517SOL    HW1 8438   1.299   4.177   1.321
 2517SOL    HW2 8439   1.176   4.123   1.250
 2518SOL     OW 8440   0.555   4.253   0.864
 2518SOL    HW1 8441   0.576   4.291   0.778
 2518SOL    HW2 8442   0.621   4.289   0.923
 2519SOL     OW 8443   1.577   4.337   0.482
 2519SOL    HW1 8444   1.536   4.404   0.537
 2519SOL    HW2 8445   1.622   4.388   0.414
 2520SOL     OW 8446   0.996   3.848   1.755
 2520SOL    HW1 8447   1.053   3.920   1.729
 2520SOL    HW2 8448   1.043   3.769   1.730
 2521SOL     OW 8449   0.497   3.767   1.747
 2521SOL    HW1 8450   0.455   3.710   1.683
 2521SOL    HW2 8451   0.437   3.841   1.756
 2522SOL     OW 8452   1.210   4.250   0.263
 2522SOL    HW1 8453   1.221   4.171   0.316
 2522SOL    HW2 8454   1.162   4.310   0.320
 2523SOL     OW 8455   0.299   3.922   1.244
 2523SOL    HW1 8456   0.258   3.950   1.326
 2523SOL    HW2 8457   0.286   3.827   1.242
 2524SOL     OW 8458   0.734   4.360   1.044
 2524SOL    HW1 8459   0.807   4.322   0.995
 2524SOL    HW2 8460   0.743   4.454   1.032
 2525SOL     OW 8461   1.752   0.132   1.854
 2525SOL    HW1 8462   1.686   0.148   1.786
 2525SOL    HW2 8463   1.709   0.157   1.936
 2526SOL     OW 8464   0.312   3.794   0.619
 2526SOL    HW1 8465   0.287   3.882   0.646
 2526SOL    HW2 8466   0.308   3.742   0.700
 2527SOL     OW 8467   1.616   4.092   0.367
 2527SOL    HW1 8468   1.645   4.029   0.433
 2527SOL    HW2 8469   1.592   4.170   0.417
 2528SOL     OW 8470   1.534   4.015   0.115
 2528SOL    HW1 8471   1.474   3.941   0.131
 2528SOL    HW2 8472   1.567   4.038   0.202
 2529SOL     OW 8473   0.318   0.016   0.913
 2529SOL    HW1 8474   0.399   0.066   0.921
 2529SOL    HW2 8475   0.333   4.438   0.967
 2530SOL     OW 8476   0.333   4.237   1.011
 2530SOL    HW1 8477   0.289   4.155   0.988
 2530SOL    HW2 8478   0.408   4.242   0.952
 2531SOL     OW 8479   1.137   4.093   1.686
 2531SOL    HW1 8480   1.085   4.152   1.740
 2531SOL    HW2 8481   1.222   4.137   1.677
 2532SOL     OW 8482   1.160   3.926   1.469
 2532SOL    HW1 8483   1.151   3.987   1.542
 2532SOL    HW2 8484   1.201   3.978   1.399
 2533SOL     OW 8485   0.023   4.278   1.105
 2533SOL    HW1 8486   0.109   4.260   1.068
 2533SOL    HW2 8487   0.024   4.237   1.191
 2534SOL     OW 8488   0.175   4.236   1.692
 2534SOL    HW1 8489   0.263   4.218   1.660
 2534SOL    HW2 8490   0.149   4.317   1.647
 2535SOL     OW 8491   0.814   4.310   0.328
 2535SOL    HW1 8492   0.825   4.223   0.288
 2535SOL    HW2 8493   0.720   4.315   0.347
 2536SOL     OW 8494   1.636   4.317   1.187
 2536SOL    HW1 8495   1.632   4.259   1.262
 2536SOL    HW2 8496   1.724   4.305   1.151
 2537SOL     OW 8497   0.674   4.188   1.257
 2537SOL    HW1 8498   0.637   4.106   1.223
 2537SOL    HW2 8499   0.684   4.243   1.179
 2538SOL     OW 8500   0.474   4.217   0.182
 2538SOL    HW1 8501   0.519   4.300   0.191
 2538SOL    HW2 8502   0.381   4.239   0.185
 2539SOL     OW 8503   0.919   3.814   0.104
 2539SOL    HW1 8504   0.968   3.777   0.031
 2539SOL    HW2 8505   0.956   3.772   0.182
 2540SOL     OW 8506   1.720   3.870   0.511
 2540SOL    HW1 8507   1.792   3.857   0.449
 2540SOL    HW2 8508   1.705   3.784   0.549
 2541SOL     OW 8509   1.278   0.136   0.682
 2541SOL    HW1 8510   1.334   0.060   0.694
 2541SOL    HW2 8511   1.327   0.193   0.623
 2542SOL     OW 8512   1.840   3.896   0.967
 2542SOL    HW1 8513   1.868   3.809   0.939
 2542SOL    HW2 8514   1.754   3.907   0.927
 2543SOL     OW 8515   0.268   4.041   0.721
 2543SOL    HW1 8516   0.192   4.091   0.692
 2543SOL    HW2 8517   0.254   4.028   0.815
 2544SOL     OW 8518   1.061   0.298   0.732
 2544SOL    HW1 8519   0.982   0.268   0.688
 2544SOL    HW2 8520   1.128   0.235   0.706
 2545SOL     OW 8521   1.020   3.964   0.965
 2545SOL    HW1 8522   1.016   3.916   0.882
 2545SOL    HW2 8523   1.016   3.896   1.033
 2546SOL     OW 8524   1.722   4.114   1.380
 2546SOL    HW1 8525   1.793   4.178   1.378
 2546SOL    HW2 8526   1.752   4.043   1.323
 2547SOL     OW 8527   0.674   3.923   1.499
 2547SOL    HW1 8528   0.758   3.901   1.458
 2547SOL    HW2 8529   0.698   3.952   1.587
 2548SOL     OW 8530   0.060   4.062   0.003
 2548SOL    HW1 8531   4.469   4.073   0.032
 2548SOL    HW2 8532   0.102   4.146   0.022
 2549SOL     OW 8533   0.081   3.897   0.310
 2549SOL    HW1 8534   0.078   3.972   0.251
 2549SOL    HW2 8535   0.155   3.845   0.279
 2550SOL     OW 8536   0.726   4.282   1.699
 2550SOL    HW1 8537   0.728   4.330   1.781
 2550SOL    HW2 8538   0.747   4.192   1.723
 2551SOL     OW 8539   1.217   4.039   0.456
 2551SOL    HW1 8540   1.281   3.968   0.447
 2551SOL    HW2 8541   1.246   4.088   0.533
 2552SOL     OW 8542   1.759   4.091   1.649
 2552SOL    HW1 8543   1.743   4.101   1.555
 2552SOL    HW2 8544   1.689   4.032   1.679
 2553SOL     OW 8545   1.100   0.204   0.051
 2553SOL    HW1 8546   1.095   0.291   0.011
 2553SOL    HW2 8547   1.191   0.176   0.037
 2554SOL     OW 8548   1.815   3.908   1.238
 2554SOL    HW1 8549   1.822   3.813   1.251
 2554SOL    HW2 8550   1.822   3.919   1.143
 2555SOL     OW 8551   0.450   4.156   0.536
 2555SOL    HW1 8552   0.470   4.082   0.479
 2555SOL    HW2 8553   0.392   4.120   0.603
 2556SOL     OW 8554   0.322   4.261   1.277
 2556SOL    HW1 8555   0.375   4.194   1.320
 2556SOL    HW2 8556   0.332   4.243   1.184
 2557SOL     OW 8557   1.432   3.949   1.118
 2557SOL    HW1 8558   1.455   3.868   1.163
 2557SOL    HW2 8559   1.380   3.998   1.181
 2558SOL     OW 8560   1.009   3.743   1.143
 2558SOL    HW1 8561   0.954   3.675   1.102
 2558SOL    HW2 8562   1.097   3.705   1.145
 2559SOL     OW 8563   1.350   3.779   0.164
 2559SOL    HW1 8564   1.372   3.727   0.087
 2559SOL    HW2 8565   1.264   3.748   0.190
 2560SOL     OW 8566   1.299   4.174   0.680
 2560SOL    HW1 8567   1.264   4.262   0.692
 2560SOL    HW2 8568   1.298   4.135   0.767
 2561SOL     OW 8569   1.586   3.926   0.878
 2561SOL    HW1 8570   1.526   3.948   0.949
 2561SOL    HW2 8571   1.587   4.004   0.822
 2562SOL     OW 8572   0.228   4.279   1.972
 2562SOL    HW1 8573   0.163   4.311   2.034
 2562SOL    HW2 8574   0.213   4.330   1.892
 2563SOL     OW 8575   0.209   3.995   2.853
 2563SOL    HW1 8576   0.245   3.968   2.938
 2563SOL    HW2 8577   0.133   3.938   2.839
 2564SOL     OW 8578   4.499   4.101   2.493
 2564SOL    HW1 8579   4.417   4.130   2.532
 2564SOL    HW2 8580   4.477   4.018   2.451
 2565SOL     OW 8581   1.728   4.335   2.100
 2565SOL    HW1 8582   1.730   4.323   2.005
 2565SOL    HW2 8583   1.731   4.246   2.135
 2566SOL     OW 8584   0.730   0.271   2.547
 2566SOL    HW1 8585   0.718   0.208   2.618
 2566SOL    HW2 8586   0.641   0.289   2.515
 2567SOL     OW 8587   0.446   4.119   3.350
 2567SOL    HW1 8588   0.527   4.068   3.352
 2567SOL    HW2 8589   0.376   4.054   3.360
 2568SOL     OW 8590   1.615   4.172   2.602
 2568SOL    HW1 8591   1.547   4.197   2.539
 2568SOL    HW2 8592   1.612   4.240   2.669
 2569SOL     OW 8593   1.596   3.847   3.330
 2569SOL    HW1 8594   1.603   3.928   3.279
 2569SOL    HW2 8595   1.581   3.877   3.420
 2570SOL     OW 8596   0.162   4.323   2.497
 2570SOL    HW1 8597   0.103   4.250   2.481
 2570SOL    HW2 8598   0.117   4.399   2.461
 2571SOL     OW 8599   0.123   0.003   3.450
 2571SOL    HW1 8600   0.217   4.485   3.448
 2571SOL    HW2 8601   0.114   0.089   3.410
 2572SOL     OW 8602   0.817   3.725   2.371
 2572SOL    HW1 8603   0.856   3.810   2.352
 2572SOL    HW2 8604   0.723   3.743   2.380
 2573SOL     OW 8605   0.330   3.979   3.661
 2573SOL    HW1 8606   0.373   4.058   3.693
 2573SOL    HW2 8607   0.240   3.986   3.695
 2574SOL     OW 8608   1.277   4.073   2.795
 2574SOL    HW1 8609   1.188   4.040   2.805
 2574SOL    HW2 8610   1.329   4.021   2.856
 2575SOL     OW 8611   0.829   4.303   3.309
 2575SOL    HW1 8612   0.789   4.308   3.395
 2575SOL    HW2 8613   0.760   4.266   3.253
 2576SOL     OW 8614   1.395   4.199   3.538
 2576SOL    HW1 8615   1.398   4.244   3.623
 2576SOL    HW2 8616   1.453   4.124   3.549
 2577SOL     OW 8617   0.998   4.151   3.095
 2577SOL    HW1 8618   0.927   4.173   3.155
 2577SOL    HW2 8619   0.958   4.092   3.031
 2578SOL     OW 8620   1.056   4.410   2.278
 2578SOL    HW1 8621   1.053   4.453   2.364
 2578SOL    HW2 8622   0.970   4.371   2.267
 2579SOL     OW 8623   0.056   0.069   2.715
 2579SOL    HW1 8624   0.142   0.027   2.721
 2579SOL    HW2 8625   0.048   0.094   2.623
 2580SOL     OW 8626   0.892   4.064   2.052
 2580SOL    HW1 8627   0.933   4.127   1.992
 2580SOL    HW2 8628   0.908   3.979   2.012
 2581SOL     OW 8629   1.708   4.299   3.692
 2581SOL    HW1 8630   1.722   4.387   3.657
 2581SOL    HW2 8631   1.731   4.241   3.619
 2582SOL     OW 8632   0.552   3.904   2.755
 2582SOL    HW1 8633   0.554   3.935   2.846
 2582SOL    HW2 8634   0.547   3.984   2.703
 2583SOL     OW 8635   1.491   4.466   2.601
 2583SOL    HW1 8636   1.474   4.411   2.677
 2583SOL    HW2 8637   1.531   0.045   2.637
 2584SOL     OW 8638   0.189   4.001   3.347
 2584SOL    HW1 8639   0.140   4.082   3.357
 2584SOL    HW2 8640   0.183   3.959   3.433
 2585SOL     OW 8641   1.401   3.830   2.295
 2585SOL    HW1 8642   1.391   3.805   2.203
 2585SOL    HW2 8643   1.495   3.840   2.307
 2586SOL     OW 8644   0.348   4.380   2.265
 2586SOL    HW1 8645   0.392   4.305   2.306
 2586SOL    HW2 8646   0.300   4.421   2.337
 2587SOL     OW 8647   1.535   3.950   3.587
 2587SOL    HW1 8648   1.544   3.971   3.680
 2587SOL    HW2 8649   1.466   3.883   3.584
 2588SOL     OW 8650   0.636   3.848   1.964
 2588SOL    HW1 8651   0.702   3.781   1.981
 2588SOL    HW2 8652   0.587   3.815   1.889
 2589SOL     OW 8653   0.766   4.002   3.617
 2589SOL    HW1 8654   0.843   3.945   3.616
 2589SOL    HW2 8655   0.717   3.976   3.695
 2590SOL     OW 8656   1.342   4.312   3.291
 2590SOL    HW1 8657   1.364   4.275   3.377
 2590SOL    HW2 8658   1.386   4.397   3.290
 2591SOL     OW 8659   0.924   4.235   2.760
 2591SOL    HW1 8660   0.901   4.219   2.668
 2591SOL    HW2 8661   0.963   4.153   2.789
 2592SOL     OW 8662   0.553   3.787   2.363
 2592SOL    HW1 8663   0.472   3.784   2.414
 2592SOL    HW2 8664   0.544   3.865   2.308
 2593SOL     OW 8665   0.294   3.770   2.040
 2593SOL    HW1 8666   0.356   3.837   2.011
 2593SOL    HW2 8667   0.348   3.704   2.084
 2594SOL     OW 8668   0.938   3.973   2.323
 2594SOL    HW1 8669   0.912   4.010   2.238
 2594SOL    HW2 8670   1.033   3.985   2.326
 2595SOL     OW 8671   1.075   4.396   3.386
 2595SOL    HW1 8672   0.992   4.366   3.348
 2595SOL    HW2 8673   1.142   4.358   3.330
 2596SOL     OW 8674   1.025   4.266   1.889
 2596SOL    HW1 8675   1.009   4.353   1.854
 2596SOL    HW2 8676   1.088   4.279   1.959
 2597SOL     OW 8677   0.084   4.256   3.270
 2597SOL    HW1 8678   0.159   4.269   3.212
 2597SOL    HW2 8679   0.051   4.345   3.287
 2598SOL     OW 8680   0.560   3.951   3.027
 2598SOL    HW1 8681   0.601   3.872   3.063
 2598SOL    HW2 8682   0.469   3.946   3.056
 2599SOL     OW 8683   0.870   4.190   2.499
 2599SOL    HW1 8684   0.835   4.249   2.432
 2599SOL    HW2 8685   0.888   4.109   2.451
 2600SOL     OW 8686   1.015   3.777   2.613
 2600SOL    HW1 8687   0.956   3.770   2.537
 2600SOL    HW2 8688   0.993   3.702   2.668
 2601SOL     OW 8689   1.478   4.310   2.826
 2601SOL    HW1 8690   1.417   4.240   2.846
 2601SOL    HW2 8691   1.528   4.322   2.906
 2602SOL     OW 8692   1.403   4.296   1.935
 2602SOL    HW1 8693   1.341   4.268   2.002
 2602SOL    HW2 8694   1.486   4.255   1.961
 2603SOL     OW 8695   0.524   3.985   2.177
 2603SOL    HW1 8696   0.569   3.938   2.107
 2603SOL    HW2 8697   0.510   4.073   2.141
 2604SOL     OW 8698   0.917   3.822   3.257
 2604SOL    HW1 8699   0.941   3.801   3.167
 2604SOL    HW2 8700   0.997   3.860   3.295
 2605SOL     OW 8701   0.443   0.004   3.126
 2605SOL    HW1 8702   0.499   0.000   3.203
 2605SOL    HW2 8703   0.406   4.416   3.119
 2606SOL     OW 8704   1.265   4.100   3.137
 2606SOL    HW1 8705   1.299   4.177   3.182
 2606SOL    HW2 8706   1.176   4.123   3.112
 2607SOL     OW 8707   0.555   4.252   2.726
 2607SOL    HW1 8708   0.574   4.292   2.641
 2607SOL    HW2 8709   0.621   4.289   2.785
 2608SOL     OW 8710   1.568   4.337   2.341
 2608SOL    HW1 8711   1.542   4.404   2.404
 2608SOL    HW2 8712   1.628   4.383   2.282
 2609SOL     OW 8713   0.996   3.848   3.617
 2609SOL    HW1 8714   1.053   3.920   3.591
 2609SOL    HW2 8715   1.044   3.769   3.592
 2610SOL     OW 8716   0.497   3.767   3.609
 2610SOL    HW1 8717   0.455   3.710   3.544
 2610SOL    HW2 8718   0.438   3.841   3.618
 2611SOL     OW 8719   1.210   4.253   2.125
 2611SOL    HW1 8720   1.220   4.174   2.177
 2611SOL    HW2 8721   1.161   4.313   2.181
 2612SOL     OW 8722   0.299   3.922   3.106
 2612SOL    HW1 8723   0.258   3.950   3.188
 2612SOL    HW2 8724   0.286   3.827   3.105
 2613SOL     OW 8725   0.734   4.360   2.906
 2613SOL    HW1 8726   0.807   4.322   2.857
 2613SOL    HW2 8727   0.743   4.454   2.895
 2614SOL     OW 8728   1.751   0.131   3.715
 2614SOL    HW1 8729   1.686   0.148   3.648
 2614SOL    HW2 8730   1.709   0.156   3.798
 2615SOL     OW 8731   0.311   3.793   2.480
 2615SOL    HW1 8732   0.286   3.881   2.507
 2615SOL    HW2 8733   0.308   3.742   2.561
 2616SOL     OW 8734   1.614   4.091   2.230
 2616SOL    HW1 8735   1.644   4.030   2.298
 2616SOL    HW2 8736   1.590   4.170   2.278
 2617SOL     OW 8737   1.526   3.999   1.989
 2617SOL    HW1 8738   1.463   3.932   2.015
 2617SOL    HW2 8739   1.561   4.032   2.071
 2618SOL     OW 8740   0.320   0.015   2.775
 2618SOL    HW1 8741   0.400   0.066   2.783
 2618SOL    HW2 8742   0.335   4.438   2.830
 2619SOL     OW 8743   0.333   4.237   2.874
 2619SOL    HW1 8744   0.290   4.155   2.850
 2619SOL    HW2 8745   0.408   4.242   2.814
 2620SOL     OW 8746   1.137   4.093   3.548
 2620SOL    HW1 8747   1.084   4.152   3.602
 2620SOL    HW2 8748   1.222   4.137   3.539
 2621SOL     OW 8749   1.160   3.926   3.331
 2621SOL    HW1 8750   1.151   3.987   3.404
 2621SOL    HW2 8751   1.201   3.978   3.261
 2622SOL     OW 8752   0.022   4.277   2.966
 2622SOL    HW1 8753   0.109   4.261   2.930
 2622SOL    HW2 8754   0.025   4.237   3.053
 2623SOL     OW 8755   0.175   4.236   3.553
 2623SOL    HW1 8756   0.264   4.219   3.522
 2623SOL    HW2 8757   0.149   4.317   3.509
 2624SOL     OW 8758   0.820   4.282   2.212
 2624SOL    HW1 8759   0.821   4.208   2.152
 2624SOL    HW2 8760   0.731   4.318   2.204
 2625SOL     OW 8761   1.636   4.317   3.048
 2625SOL    HW1 8762   1.632   4.260   3.124
 2625SOL    HW2 8763   1.724   4.304   3.013
 2626SOL     OW 8764   0.674   4.188   3.119
 2626SOL    HW1 8765   0.637   4.106   3.085
 2626SOL    HW2 8766   0.684   4.243   3.041
 2627SOL     OW 8767   0.485   4.224   2.050
 2627SOL    HW1 8768   0.514   4.309   2.081
 2627SOL    HW2 8769   0.392   4.235   2.032
 2628SOL     OW 8770   1.721   3.870   2.373
 2628SOL    HW1 8771   1.792   3.855   2.311
 2628SOL    HW2 8772   1.705   3.784   2.412
 2629SOL     OW 8773   1.279   0.136   2.541
 2629SOL    HW1 8774   1.337   0.061   2.553
 2629SOL    HW2 8775   1.330   0.197   2.488
 2630SOL     OW 8776   1.840   3.896   2.829
 2630SOL    HW1 8777   1.868   3.809   2.801
 2630SOL    HW2 8778   1.754   3.907   2.789
 2631SOL     OW 8779   0.268   4.041   2.582
 2631SOL    HW1 8780   0.190   4.089   2.554
 2631SOL    HW2 8781   0.255   4.029   2.676
 2632SOL     OW 8782   0.905   0.091   2.078
 2632SOL    HW1 8783   0.987   0.130   2.047
 2632SOL    HW2 8784   0.927   0.054   2.163
 2633SOL     OW 8785   1.066   0.297   2.606
 2633SOL    HW1 8786   0.991   0.287   2.547
 2633SOL    HW2 8787   1.130   0.234   2.574
 2634SOL     OW 8788   1.020   3.964   2.827
 2634SOL    HW1 8789   1.016   3.915   2.744
 2634SOL    HW2 8790   1.016   3.896   2.895
 2635SOL     OW 8791   1.722   4.114   3.242
 2635SOL    HW1 8792   1.793   4.179   3.240
 2635SOL    HW2 8793   1.752   4.043   3.185
 2636SOL     OW 8794   0.674   3.923   3.361
 2636SOL    HW1 8795   0.758   3.901   3.320
 2636SOL    HW2 8796   0.697   3.952   3.449
 2637SOL     OW 8797   0.067   4.045   1.899
 2637SOL    HW1 8798   4.474   4.065   1.889
 2637SOL    HW2 8799   0.111   4.129   1.889
 2638SOL     OW 8800   0.087   3.901   2.167
 2638SOL    HW1 8801   0.076   3.969   2.100
 2638SOL    HW2 8802   0.162   3.849   2.137
 2639SOL     OW 8803   0.726   4.282   3.561
 2639SOL    HW1 8804   0.728   4.330   3.643
 2639SOL    HW2 8805   0.747   4.192   3.585
 2640SOL     OW 8806   1.218   4.042   2.316
 2640SOL    HW1 8807   1.280   3.970   2.308
 2640SOL    HW2 8808   1.247   4.090   2.394
 2641SOL     OW 8809   1.759   4.090   3.511
 2641SOL    HW1 8810   1.743   4.101   3.417
 2641SOL    HW2 8811   1.689   4.032   3.541
 2642SOL     OW 8812   1.111   0.226   1.964
 2642SOL    HW1 8813   1.099   0.270   1.880
 2642SOL    HW2 8814   1.197   0.184   1.957
 2643SOL     OW 8815   1.814   3.908   3.100
 2643SOL    HW1 8816   1.822   3.813   3.114
 2643SOL    HW2 8817   1.822   3.919   3.005
 2644SOL     OW 8818   0.450   4.155   2.397
 2644SOL    HW1 8819   0.465   4.080   2.339
 2644SOL    HW2 8820   0.392   4.121   2.465
 2645SOL     OW 8821   0.322   4.261   3.139
 2645SOL    HW1 8822   0.375   4.194   3.182
 2645SOL    HW2 8823   0.332   4.243   3.046
 2646SOL     OW 8824   1.432   3.949   2.980
 2646SOL    HW1 8825   1.456   3.868   3.026
 2646SOL    HW2 8826   1.380   3.998   3.043
 2647SOL     OW 8827   1.009   3.743   3.005
 2647SOL    HW1 8828   0.954   3.675   2.964
 2647SOL    HW2 8829   1.097   3.705   3.006
 2648SOL     OW 8830   1.352   3.777   2.027
 2648SOL    HW1 8831   1.380   3.713   1.962
 2648SOL    HW2 8832   1.265   3.748   2.053
 2649SOL     OW 8833   1.299   4.175   2.543
 2649SOL    HW1 8834   1.263   4.262   2.557
 2649SOL    HW2 8835   1.298   4.134   2.629
 2650SOL     OW 8836   1.586   3.926   2.740
 2650SOL    HW1 8837   1.526   3.948   2.811
 2650SOL    HW2 8838   1.587   4.004   2.684
 2651SOL     OW 8839   0.228   4.279   3.834
 2651SOL    HW1 8840   0.163   4.311   3.896
 2651SOL    HW2 8841   0.213   4.330   3.755
 2652SOL     OW 8842   0.209   3.995   4.715
 2652SOL    HW1 8843   0.245   3.968   4.800
 2652SOL    HW2 8844   0.133   3.938   4.701
 2653SOL     OW 8845   4.499   4.101   4.355
 2653SOL    HW1 8846   4.417   4.131   4.395
 2653SOL    HW2 8847   4.477   4.018   4.313
 2654SOL     OW 8848   1.728   4.335   3.962
 2654SOL    HW1 8849   1.729   4.323   3.867
 2654SOL    HW2 8850   1.732   4.246   3.997
 2655SOL     OW 8851   0.730   0.271   4.409
 2655SOL    HW1 8852   0.718   0.208   4.480
 2655SOL    HW2 8853   0.641   0.289   4.377
 2656SOL     OW 8854   0.446   4.119   5.212
 2656SOL    HW1 8855   0.527   4.068   5.214
 2656SOL    HW2 8856   0.376   4.054   5.222
 2657SOL     OW 8857   1.615   4.172   4.464
 2657SOL    HW1 8858   1.547   4.197   4.401
 2657SOL    HW2 8859   1.613   4.240   4.531
 2658SOL     OW 8860   1.596   3.848   5.192
 2658SOL    HW1 8861   1.602   3.930   5.142
 2658SOL    HW2 8862   1.582   3.877   5.282
 2659SOL     OW 8863   0.162   4.323   4.359
 2659SOL    HW1 8864   0.103   4.250   4.343
 2659SOL    HW2 8865   0.117   4.399   4.323
 2660SOL     OW 8866   0.123   0.003   5.312
 2660SOL    HW1 8867   0.217   4.486   5.310
 2660SOL    HW2 8868   0.114   0.089   5.272
 2661SOL     OW 8869   0.817   3.725   4.233
 2661SOL    HW1 8870   0.856   3.810   4.214
 2661SOL    HW2 8871   0.723   3.743   4.242
 2662SOL     OW 8872   0.330   3.979   5.523
 2662SOL    HW1 8873   0.373   4.058   5.555
 2662SOL    HW2 8874   0.240   3.986   5.556
 2663SOL     OW 8875   1.277   4.073   4.657
 2663SOL    HW1 8876   1.188   4.040   4.667
 2663SOL    HW2 8877   1.329   4.021   4.718
 2664SOL     OW 8878   0.829   4.303   5.170
 2664SOL    HW1 8879   0.789   4.308   5.257
 2664SOL    HW2 8880   0.760   4.266   5.115
 2665SOL     OW 8881   1.395   4.199   5.400
 2665SOL    HW1 8882   1.398   4.244   5.485
 2665SOL    HW2 8883   1.453   4.124   5.411
 2666SOL     OW 8884   0.998   4.151   4.957
 2666SOL    HW1 8885   0.927   4.173   5.017
 2666SOL    HW2 8886   0.958   4.091   4.893
 2667SOL     OW 8887   1.056   4.410   4.140
 2667SOL    HW1 8888   1.053   4.453   4.226
 2667SOL    HW2 8889   0.970   4.371   4.130
 2668SOL     OW 8890   0.056   0.069   4.577
 2668SOL    HW1 8891   0.142   0.027   4.583
 2668SOL    HW2 8892   0.048   0.094   4.485
 2669SOL     OW 8893   0.892   4.064   3.914
 2669SOL    HW1 8894   0.933   4.127   3.855
 2669SOL    HW2 8895   0.908   3.979   3.874
 2670SOL     OW 8896   1.708   4.299   5.553
 2670SOL    HW1 8897   1.723   4.387   5.519
 2670SOL    HW2 8898   1.731   4.241   5.481
 2671SOL     OW 8899   0.552   3.904   4.617
 2671SOL    HW1 8900   0.554   3.935   4.708
 2671SOL    HW2 8901   0.547   3.984   4.565
 2672SOL     OW 8902   1.491   4.466   4.463
 2672SOL    HW1 8903   1.474   4.411   4.539
 2672SOL    HW2 8904   1.531   0.045   4.499
 2673SOL     OW 8905   0.189   4.001   5.209
 2673SOL    HW1 8906   0.140   4.083   5.218
 2673SOL    HW2 8907   0.183   3.959   5.295
 2674SOL     OW 8908   1.401   3.830   4.157
 2674SOL    HW1 8909   1.391   3.806   4.065
 2674SOL    HW2 8910   1.495   3.840   4.169
 2675SOL     OW 8911   0.348   4.380   4.127
 2675SOL    HW1 8912   0.392   4.305   4.168
 2675SOL    HW2 8913   0.300   4.421   4.198
 2676SOL     OW 8914   1.535   3.949   5.449
 2676SOL    HW1 8915   1.544   3.971   5.542
 2676SOL    HW2 8916   1.466   3.883   5.447
 2677SOL     OW 8917   0.636   3.848   3.826
 2677SOL    HW1 8918   0.702   3.781   3.843
 2677SOL    HW2 8919   0.587   3.815   3.751
 2678SOL     OW 8920   0.765   4.002   5.479
 2678SOL    HW1 8921   0.842   3.945   5.478
 2678SOL    HW2 8922   0.718   3.977   5.557
 2679SOL     OW 8923   1.342   4.312   5.154
 2679SOL    HW1 8924   1.364   4.275   5.239
 2679SOL    HW2 8925   1.386   4.397   5.152
 2680SOL     OW 8926   0.924   4.235   4.622
 2680SOL    HW1 8927   0.901   4.219   4.530
 2680SOL    HW2 8928   0.963   4.153   4.651
 2681SOL     OW 8929   0.553   3.787   4.225
 2681SOL    HW1 8930   0.472   3.784   4.276
 2681SOL    HW2 8931   0.544   3.865   4.170
 2682SOL     OW 8932   0.294   3.770   3.902
 2682SOL    HW1 8933   0.356   3.837   3.873
 2682SOL    HW2 8934   0.348   3.704   3.946
 2683SOL     OW 8935   0.938   3.973   4.185
 2683SOL    HW1 8936   0.912   4.010   4.100
 2683SOL    HW2 8937   1.033   3.985   4.188
 2684SOL     OW 8938   1.075   4.396   5.248
 2684SOL    HW1 8939   0.992   4.366   5.210
 2684SOL    HW2 8940   1.142   4.358   5.192
 2685SOL     OW 8941   1.025   4.266   3.751
 2685SOL    HW1 8942   1.009   4.353   3.716
 2685SOL    HW2 8943   1.088   4.279   3.821
 2686SOL     OW 8944   0.084   4.256   5.132
 2686SOL    HW1 8945   0.159   4.269   5.074
 2686SOL    HW2 8946   0.051   4.345   5.150
 2687SOL     OW 8947   0.560   3.951   4.889
 2687SOL    HW1 8948   0.601   3.872   4.925
 2687SOL    HW2 8949   0.469   3.946   4.918
 2688SOL     OW 8950   0.870   4.190   4.361
 2688SOL    HW1 8951   0.835   4.249   4.294
 2688SOL    HW2 8952   0.888   4.109   4.313
 2689SOL     OW 8953   1.015   3.777   4.475
 2689SOL    HW1 8954   0.956   3.769   4.399
 2689SOL    HW2 8955   0.994   3.702   4.530
 2690SOL     OW 8956   1.478   4.310   4.688
 2690SOL    HW1 8957   1.416   4.240   4.708
 2690SOL    HW2 8958   1.528   4.322   4.768
 2691SOL     OW 8959   1.403   4.296   3.797
 2691SOL    HW1 8960   1.341   4.268   3.864
 2691SOL    HW2 8961   1.486   4.255   3.823
 2692SOL     OW 8962   0.524   3.985   4.039
 2692SOL    HW1 8963   0.569   3.938   3.969
 2692SOL    HW2 8964   0.510   4.073   4.003
 2693SOL     OW 8965   0.917   3.822   5.119
 2693SOL    HW1 8966   0.941   3.801   5.029
 2693SOL    HW2 8967   0.997   3.860   5.157
 2694SOL     OW 8968   0.443   0.004   4.988
 2694SOL    HW1 8969   0.499   0.000   5.065
 2694SOL    HW2 8970   0.406   4.416   4.981
 2695SOL     OW 8971   1.266   4.100   4.999
 2695SOL    HW1 8972   1.299   4.177   5.044
 2695SOL    HW2 8973   1.176   4.124   4.974
 2696SOL     OW 8974   0.555   4.252   4.588
 2696SOL    HW1 8975   0.574   4.292   4.503
 2696SOL    HW2 8976   0.621   4.289   4.647
 2697SOL     OW 8977   1.568   4.337   4.203
 2697SOL    HW1 8978   1.542   4.404   4.267
 2697SOL    HW2 8979   1.628   4.383   4.144
 2698SOL     OW 8980   0.995   3.849   5.478
 2698SOL    HW1 8981   1.053   3.921   5.453
 2698SOL    HW2 8982   1.044   3.770   5.454
 2699SOL     OW 8983   0.497   3.766   5.471
 2699SOL    HW1 8984   0.455   3.710   5.406
 2699SOL    HW2 8985   0.438   3.841   5.480
 2700SOL     OW 8986   1.210   4.253   3.987
 2700SOL    HW1 8987   1.220   4.174   4.040
 2700SOL    HW2 8988   1.161   4.313   4.043
 2701SOL     OW 8989   0.299   3.922   4.968
 2701SOL    HW1 8990   0.258   3.950   5.050
 2701SOL    HW2 8991   0.286   3.827   4.967
 2702SOL     OW 8992   0.734   4.360   4.768
 2702SOL    HW1 8993   0.807   4.322   4.719
 2702SOL    HW2 8994   0.743   4.454   4.757
 2703SOL     OW 8995   1.752   0.132   5.577
 2703SOL    HW1 8996   1.685   0.148   5.510
 2703SOL    HW2 8997   1.710   0.156   5.660
 2704SOL     OW 8998   0.311   3.793   4.342
 2704SOL    HW1 8999   0.286   3.881   4.369
 2704SOL    HW2 9000   0.308   3.742   4.423
 2705SOL     OW 9001   1.614   4.090   4.092
 2705SOL    HW1 9002   1.644   4.030   4.160
 2705SOL    HW2 9003   1.590   4.170   4.139
 2706SOL     OW 9004   1.526   3.999   3.851
 2706SOL    HW1 9005   1.463   3.932   3.877
 2706SOL    HW2 9006   1.561   4.032   3.933
 2707SOL     OW 9007   0.320   0.015   4.637
 2707SOL    HW1 9008   0.400   0.066   4.645
 2707SOL    HW2 9009   0.335   4.438   4.692
 2708SOL     OW 9010   0.333   4.237   4.735
 2708SOL    HW1 9011   0.290   4.155   4.712
 2708SOL    HW2 9012   0.408   4.242   4.676
 2709SOL     OW 9013   1.137   4.093   5.410
 2709SOL    HW1 9014   1.085   4.152   5.464
 2709SOL    HW2 9015   1.222   4.137   5.402
 2710SOL     OW 9016   1.160   3.926   5.192
 2710SOL    HW1 9017   1.151   3.987   5.266
 2710SOL    HW2 9018   1.201   3.978   5.123
 2711SOL     OW 9019   0.022   4.277   4.828
 2711SOL    HW1 9020   0.110   4.261   4.792
 2711SOL    HW2 9021   0.025   4.237   4.915
 2712SOL     OW 9022   0.175   4.236   5.415
 2712SOL    HW1 9023   0.264   4.219   5.384
 2712SOL    HW2 9024   0.149   4.317   5.371
 2713SOL     OW 9025   0.820   4.282   4.074
 2713SOL    HW1 9026   0.821   4.208   4.014
 2713SOL    HW2 9027   0.731   4.318   4.066
 2714SOL     OW 9028   1.636   4.317   4.910
 2714SOL    HW1 9029   1.632   4.260   4.986
 2714SOL    HW2 9030   1.724   4.304   4.875
 2715SOL     OW 9031   0.674   4.188   4.981
 2715SOL    HW1 9032   0.637   4.106   4.947
 2715SOL    HW2 9033   0.684   4.243   4.903
 2716SOL     OW 9034   0.485   4.224   3.912
 2716SOL    HW1 9035   0.514   4.309   3.943
 2716SOL    HW2 9036   0.392   4.235   3.894
 2717SOL     OW 9037   1.721   3.870   4.235
 2717SOL    HW1 9038   1.792   3.855   4.173
 2717SOL    HW2 9039   1.705   3.783   4.274
 2718SOL     OW 9040   1.279   0.137   4.403
 2718SOL    HW1 9041   1.337   0.061   4.415
 2718SOL    HW2 9042   1.330   0.197   4.349
 2719SOL     OW 9043   1.840   3.894   4.691
 2719SOL    HW1 9044   1.868   3.808   4.661
 2719SOL    HW2 9045   1.754   3.907   4.651
 2720SOL     OW 9046   0.268   4.041   4.444
 2720SOL    HW1 9047   0.190   4.089   4.416
 2720SOL    HW2 9048   0.255   4.028   4.538
 2721SOL     OW 9049   0.905   0.091   3.940
 2721SOL    HW1 9050   0.987   0.130   3.909
 2721SOL    HW2 9051   0.927   0.054   4.025
 2722SOL     OW 9052   1.065   0.297   4.468
 2722SOL    HW1 9053   0.991   0.286   4.409
 2722SOL    HW2 9054   1.130   0.234   4.436
 2723SOL     OW 9055   1.020   3.964   4.689
 2723SOL    HW1 9056   1.016   3.915   4.606
 2723SOL    HW2 9057   1.016   3.896   4.757
 2724SOL     OW 9058   1.721   4.115   5.104
 2724SOL    HW1 9059   1.792   4.179   5.102
 2724SOL    HW2 9060   1.752   4.044   5.047
 2725SOL     OW 9061   0.674   3.922   5.223
 2725SOL    HW1 9062   0.758   3.901   5.182
 2725SOL    HW2 9063   0.697   3.952   5.311
 2726SOL     OW 9064   0.067   4.045   3.760
 2726SOL    HW1 9065   4.474   4.066   3.751
 2726SOL    HW2 9066   0.111   4.129   3.751
 2727SOL     OW 9067   0.087   3.901   4.029
 2727SOL    HW1 9068   0.076   3.969   3.962
 2727SOL    HW2 9069   0.162   3.849   3.999
 2728SOL     OW 9070   0.726   4.282   5.423
 2728SOL    HW1 9071   0.728   4.330   5.505
 2728SOL    HW2 9072   0.748   4.192   5.447
 2729SOL     OW 9073   1.218   4.042   4.178
 2729SOL    HW1 9074   1.280   3.970   4.170
 2729SOL    HW2 9075   1.247   4.090   4.256
 2730SOL     OW 9076   1.759   4.091   5.373
 2730SOL    HW1 9077   1.742   4.101   5.279
 2730SOL    HW2 9078   1.689   4.032   5.403
 2731SOL     OW 9079   1.111   0.226   3.826
 2731SOL    HW1 9080   1.099   0.270   3.742
 2731SOL    HW2 9081   1.197   0.184   3.819
 2732SOL     OW 9082   1.814   3.908   4.962
 2732SOL    HW1 9083   1.821   3.814   4.976
 2732SOL    HW2 9084   1.822   3.919   4.867
 2733SOL     OW 9085   0.450   4.155   4.259
 2733SOL    HW1 9086   0.465   4.080   4.201
 2733SOL    HW2 9087   0.392   4.121   4.327
 2734SOL     OW 9088   0.322   4.261   5.001
 2734SOL    HW1 9089   0.375   4.194   5.044
 2734SOL    HW2 9090   0.332   4.243   4.908
 2735SOL     OW 9091   1.432   3.948   4.842
 2735SOL    HW1 9092   1.455   3.868   4.889
 2735SOL    HW2 9093   1.380   3.999   4.905
 2736SOL     OW 9094   1.009   3.743   4.867
 2736SOL    HW1 9095   0.954   3.675   4.826
 2736SOL    HW2 9096   1.097   3.705   4.868
 2737SOL     OW 9097   1.352   3.777   3.889
 2737SOL    HW1 9098   1.381   3.713   3.824
 2737SOL    HW2 9099   1.265   3.748   3.915
 2738SOL     OW 9100   1.299   4.175   4.405
 2738SOL    HW1 9101   1.263   4.262   4.419
 2738SOL    HW2 9102   1.298   4.134   4.491
 2739SOL     OW 9103   1.586   3.926   4.602
 2739SOL    HW1 9104   1.527   3.948   4.674
 2739SOL    HW2 9105   1.587   4.004   4.547
 2740SOL     OW 9106   0.228   4.279   5.696
 2740SOL    HW1 9107   0.163   4.310   5.758
 2740SOL    HW2 9108   0.213   4.330   5.617
 2741SOL     OW 9109   0.209   3.995   6.577
 2741SOL    HW1 9110   0.245   3.968   6.662
 2741SOL    HW2 9111   0.133   3.938   6.563
 2742SOL     OW 9112   4.499   4.101   6.217
 2742SOL    HW1 9113   4.417   4.131   6.257
 2742SOL    HW2 9114   4.477   4.018   6.175
 2743SOL     OW 9115   1.729   4.335   5.824
 2743SOL    HW1 9116   1.730   4.323   5.729
 2743SOL    HW2 9117   1.731   4.246   5.860
 2744SOL     OW 9118   0.730   0.271   6.270
 2744SOL    HW1 9119   0.718   0.208   6.342
 2744SOL    HW2 9120   0.641   0.289   6.240
 2745SOL     OW 9121   0.446   4.119   7.074
 2745SOL    HW1 9122   0.527   4.069   7.076
 2745SOL    HW2 9123   0.376   4.054   7.084
 2746SOL     OW 9124   1.615   4.172   6.326
 2746SOL    HW1 9125   1.547   4.197   6.264
 2746SOL    HW2 9126   1.612   4.240   6.393
 2747SOL     OW 9127   1.596   3.847   7.054
 2747SOL    HW1 9128   1.603   3.928   7.003
 2747SOL    HW2 9129   1.581   3.877   7.144
 2748SOL     OW 9130   0.162   4.323   6.221
 2748SOL    HW1 9131   0.103   4.250   6.205
 2748SOL    HW2 9132   0.117   4.399   6.185
 2749SOL     OW 9133   0.123   0.003   7.174
 2749SOL    HW1 9134   0.217   4.485   7.172
 2749SOL    HW2 9135   0.114   0.089   7.134
 2750SOL     OW 9136   0.816   3.724   6.095
 2750SOL    HW1 9137   0.856   3.809   6.076
 2750SOL    HW2 9138   0.723   3.742   6.104
 2751SOL     OW 9139   0.329   3.979   7.385
 2751SOL    HW1 9140   0.373   4.058   7.417
 2751SOL    HW2 9141   0.240   3.986   7.418
 2752SOL     OW 9142   1.277   4.073   6.518
 2752SOL    HW1 9143   1.188   4.040   6.529
 2752SOL    HW2 9144   1.329   4.022   6.579
 2753SOL     OW 9145   0.829   4.303   7.032
 2753SOL    HW1 9146   0.789   4.308   7.119
 2753SOL    HW2 9147   0.760   4.266   6.977
 2754SOL     OW 9148   1.395   4.199   7.262
 2754SOL    HW1 9149   1.398   4.244   7.347
 2754SOL    HW2 9150   1.453   4.124   7.273
 2755SOL     OW 9151   0.998   4.151   6.819
 2755SOL    HW1 9152   0.927   4.173   6.879
 2755SOL    HW2 9153   0.958   4.092   6.755
 2756SOL     OW 9154   1.056   4.410   6.002
 2756SOL    HW1 9155   1.054   4.452   6.088
 2756SOL    HW2 9156   0.970   4.371   5.992
 2757SOL     OW 9157   0.056   0.068   6.439
 2757SOL    HW1 9158   0.142   0.027   6.445
 2757SOL    HW2 9159   0.048   0.094   6.347
 2758SOL     OW 9160   0.892   4.064   5.776
 2758SOL    HW1 9161   0.933   4.127   5.717
 2758SOL    HW2 9162   0.909   3.979   5.736
 2759SOL     OW 9163   1.708   4.299   7.416
 2759SOL    HW1 9164   1.722   4.387   7.381
 2759SOL    HW2 9165   1.730   4.240   7.343
 2760SOL     OW 9166   0.552   3.904   6.479
 2760SOL    HW1 9167   0.554   3.935   6.570
 2760SOL    HW2 9168   0.547   3.984   6.427
 2761SOL     OW 9169   1.491   4.466   6.325
 2761SOL    HW1 9170   1.474   4.411   6.401
 2761SOL    HW2 9171   1.531   0.045   6.361
 2762SOL     OW 9172   0.189   4.001   7.071
 2762SOL    HW1 9173   0.140   4.082   7.081
 2762SOL    HW2 9174   0.183   3.959   7.157
 2763SOL     OW 9175   1.401   3.830   6.019
 2763SOL    HW1 9176   1.392   3.805   5.927
 2763SOL    HW2 9177   1.495   3.839   6.032
 2764SOL     OW 9178   0.348   4.380   5.989
 2764SOL    HW1 9179   0.392   4.305   6.030
 2764SOL    HW2 9180   0.300   4.421   6.060
 2765SOL     OW 9181   1.535   3.950   7.311
 2765SOL    HW1 9182   1.543   3.971   7.404
 2765SOL    HW2 9183   1.467   3.882   7.308
 2766SOL     OW 9184   0.636   3.848   5.688
 2766SOL    HW1 9185   0.702   3.781   5.705
 2766SOL    HW2 9186   0.587   3.815   5.613
 2767SOL     OW 9187   0.766   4.002   7.341
 2767SOL    HW1 9188   0.842   3.945   7.340
 2767SOL    HW2 9189   0.718   3.976   7.419
 2768SOL     OW 9190   1.342   4.312   7.016
 2768SOL    HW1 9191   1.364   4.275   7.101
 2768SOL    HW2 9192   1.386   4.397   7.014
 2769SOL     OW 9193   0.924   4.235   6.484
 2769SOL    HW1 9194   0.901   4.219   6.392
 2769SOL    HW2 9195   0.963   4.153   6.514
 2770SOL     OW 9196   0.553   3.786   6.086
 2770SOL    HW1 9197   0.472   3.784   6.138
 2770SOL    HW2 9198   0.544   3.865   6.032
 2771SOL     OW 9199   0.294   3.770   5.764
 2771SOL    HW1 9200   0.356   3.837   5.735
 2771SOL    HW2 9201   0.348   3.704   5.808
 2772SOL     OW 9202   0.938   3.972   6.047
 2772SOL    HW1 9203   0.912   4.010   5.962
 2772SOL    HW2 9204   1.033   3.985   6.051
 2773SOL     OW 9205   1.075   4.396   7.110
 2773SOL    HW1 9206   0.992   4.366   7.072
 2773SOL    HW2 9207   1.142   4.358   7.054
 2774SOL     OW 9208   1.025   4.265   5.613
 2774SOL    HW1 9209   1.009   4.353   5.579
 2774SOL    HW2 9210   1.089   4.278   5.683
 2775SOL     OW 9211   0.084   4.256   6.994
 2775SOL    HW1 9212   0.159   4.269   6.936
 2775SOL    HW2 9213   0.052   4.345   7.012
 2776SOL     OW 9214   0.560   3.950   6.751
 2776SOL    HW1 9215   0.601   3.872   6.788
 2776SOL    HW2 9216   0.469   3.946   6.780
 2777SOL     OW 9217   0.870   4.190   6.223
 2777SOL    HW1 9218   0.835   4.249   6.156
 2777SOL    HW2 9219   0.888   4.108   6.175
 2778SOL     OW 9220   1.014   3.778   6.337
 2778SOL    HW1 9221   0.956   3.770   6.262
 2778SOL    HW2 9222   0.993   3.702   6.392
 2779SOL     OW 9223   1.478   4.310   6.550
 2779SOL    HW1 9224   1.417   4.239   6.570
 2779SOL    HW2 9225   1.528   4.322   6.630
 2780SOL     OW 9226   1.403   4.296   5.659
 2780SOL    HW1 9227   1.341   4.268   5.726
 2780SOL    HW2 9228   1.486   4.255   5.685
 2781SOL     OW 9229   0.523   3.985   5.901
 2781SOL    HW1 9230   0.569   3.938   5.831
 2781SOL    HW2 9231   0.510   4.073   5.865
 2782SOL     OW 9232   0.917   3.822   6.981
 2782SOL    HW1 9233   0.941   3.801   6.891
 2782SOL    HW2 9234   0.997   3.860   7.019
 2783SOL     OW 9235   0.443   0.004   6.850
 2783SOL    HW1 9236   0.500   0.000   6.927
 2783SOL    HW2 9237   0.406   4.416   6.843
 2784SOL     OW 9238   1.265   4.099   6.862
 2784SOL    HW1 9239   1.299   4.177   6.907
 2784SOL    HW2 9240   1.176   4.123   6.836
 2785SOL     OW 9241   0.555   4.252   6.450
 2785SOL    HW1 9242   0.574   4.292   6.365
 2785SOL    HW2 9243   0.621   4.289   6.509
 2786SOL     OW 9244   1.568   4.338   6.064
 2786SOL    HW1 9245   1.542   4.404   6.129
 2786SOL    HW2 9246   1.628   4.384   6.006
 2787SOL     OW 9247   0.995   3.848   7.340
 2787SOL    HW1 9248   1.053   3.920   7.315
 2787SOL    HW2 9249   1.044   3.769   7.316
 2788SOL     OW 9250   0.497   3.767   7.333
 2788SOL    HW1 9251   0.455   3.710   7.268
 2788SOL    HW2 9252   0.438   3.841   7.342
 2789SOL     OW 9253   1.210   4.253   5.849
 2789SOL    HW1 9254   1.220   4.174   5.901
 2789SOL    HW2 9255   1.161   4.313   5.905
 2790SOL     OW 9256   0.299   3.922   6.830
 2790SOL    HW1 9257   0.258   3.950   6.912
 2790SOL    HW2 9258   0.286   3.827   6.829
 2791SOL     OW 9259   0.734   4.360   6.630
 2791SOL    HW1 9260   0.807   4.322   6.581
 2791SOL    HW2 9261   0.743   4.454   6.619
 2792SOL     OW 9262   1.752   0.132   7.440
 2792SOL    HW1 9263   1.686   0.148   7.372
 2792SOL    HW2 9264   1.709   0.156   7.522
 2793SOL     OW 9265   0.311   3.793   6.204
 2793SOL    HW1 9266   0.286   3.881   6.231
 2793SOL    HW2 9267   0.309   3.742   6.285
 2794SOL     OW 9268   1.614   4.091   5.954
 2794SOL    HW1 9269   1.643   4.030   6.021
 2794SOL    HW2 9270   1.590   4.170   6.002
 2795SOL     OW 9271   1.526   3.999   5.713
 2795SOL    HW1 9272   1.463   3.932   5.739
 2795SOL    HW2 9273   1.562   4.032   5.795
 2796SOL     OW 9274   0.320   0.015   6.499
 2796SOL    HW1 9275   0.400   0.066   6.507
 2796SOL    HW2 9276   0.335   4.438   6.554
 2797SOL     OW 9277   0.333   4.237   6.598
 2797SOL    HW1 9278   0.290   4.155   6.574
 2797SOL    HW2 9279   0.408   4.242   6.538
 2798SOL     OW 9280   1.137   4.093   7.272
 2798SOL    HW1 9281   1.085   4.152   7.326
 2798SOL    HW2 9282   1.222   4.137   7.263
 2799SOL     OW 9283   1.160   3.926   7.055
 2799SOL    HW1 9284   1.150   3.987   7.128
 2799SOL    HW2 9285   1.201   3.978   6.986
 2800SOL     OW 9286   0.022   4.277   6.690
 2800SOL    HW1 9287   0.110   4.261   6.654
 2800SOL    HW2 9288   0.025   4.237   6.778
 2801SOL     OW 9289   0.175   4.236   7.277
 2801SOL    HW1 9290   0.264   4.219   7.246
 2801SOL    HW2 9291   0.149   4.317   7.233
 2802SOL     OW 9292   0.820   4.282   5.936
 2802SOL    HW1 9293   0.821   4.208   5.876
 2802SOL    HW2 9294   0.731   4.318   5.929
 2803SOL     OW 9295   1.636   4.317   6.772
 2803SOL    HW1 9296   1.632   4.259   6.848
 2803SOL    HW2 9297   1.724   4.305   6.737
 2804SOL     OW 9298   0.674   4.188   6.843
 2804SOL    HW1 9299   0.637   4.106   6.809
 2804SOL    HW2 9300   0.684   4.243   6.765
 2805SOL     OW 9301   0.485   4.224   5.773
 2805SOL    HW1 9302   0.514   4.309   5.805
 2805SOL    HW2 9303   0.392   4.235   5.755
 2806SOL     OW 9304   1.720   3.870   6.097
 2806SOL    HW1 9305   1.792   3.855   6.036
 2806SOL    HW2 9306   1.704   3.784   6.136
 2807SOL     OW 9307   1.279   0.136   6.265
 2807SOL    HW1 9308   1.337   0.061   6.277
 2807SOL    HW2 9309   1.330   0.198   6.212
 2808SOL     OW 9310   1.840   3.897   6.553
 2808SOL    HW1 9311   1.868   3.810   6.526
 2808SOL    HW2 9312   1.753   3.907   6.512
 2809SOL     OW 9313   0.268   4.041   6.306
 2809SOL    HW1 9314   0.190   4.089   6.278
 2809SOL    HW2 9315   0.255   4.028   6.400
 2810SOL     OW 9316   0.905   0.091   5.802
 2810SOL    HW1 9317   0.987   0.130   5.771
 2810SOL    HW2 9318   0.927   0.054   5.887
 2811SOL     OW 9319   1.065   0.297   6.330
 2811SOL    HW1 9320   0.991   0.286   6.271
 2811SOL    HW2 9321   1.130   0.234   6.298
 2812SOL     OW 9322   1.020   3.964   6.551
 2812SOL    HW1 9323   1.016   3.916   6.469
 2812SOL    HW2 9324   1.016   3.897   6.619
 2813SOL     OW 9325   1.722   4.114   6.966
 2813SOL    HW1 9326   1.793   4.178   6.964
 2813SOL    HW2 9327   1.752   4.043   6.909
 2814SOL     OW 9328   0.674   3.923   7.085
 2814SOL    HW1 9329   0.758   3.901   7.044
 2814SOL    HW2 9330   0.697   3.952   7.173
 2815SOL     OW 9331   0.067   4.045   5.622
 2815SOL    HW1 9332   4.474   4.066   5.613
 2815SOL    HW2 9333   0.111   4.129   5.613
 2816SOL     OW 9334   0.087   3.901   5.891
 2816SOL    HW1 9335   0.076   3.969   5.824
 2816SOL    HW2 9336   0.162   3.849   5.861
 2817SOL     OW 9337   0.726   4.282   7.285
 2817SOL    HW1 9338   0.728   4.330   7.367
 2817SOL    HW2 9339   0.747   4.192   7.309
 2818SOL     OW 9340   1.218   4.042   6.040
 2818SOL    HW1 9341   1.280   3.970   6.032
 2818SOL    HW2 9342   1.247   4.090   6.118
 2819SOL     OW 9343   1.759   4.091   7.235
 2819SOL    HW1 9344   1.743   4.101   7.141
 2819SOL    HW2 9345   1.689   4.032   7.265
 2820SOL     OW 9346   1.111   0.227   5.688
 2820SOL    HW1 9347   1.099   0.269   5.603
 2820SOL    HW2 9348   1.197   0.184   5.682
 2821SOL     OW 9349   1.815   3.907   6.823
 2821SOL    HW1 9350   1.821   3.813   6.837
 2821SOL    HW2 9351   1.822   3.919   6.729
 2822SOL     OW 9352   0.450   4.155   6.121
 2822SOL    HW1 9353   0.465   4.080   6.063
 2822SOL    HW2 9354   0.392   4.121   6.189
 2823SOL     OW 9355   0.322   4.261   6.863
 2823SOL    HW1 9356   0.375   4.194   6.906
 2823SOL    HW2 9357   0.332   4.243   6.770
 2824SOL     OW 9358   1.432   3.949   6.703
 2824SOL    HW1 9359   1.456   3.868   6.748
 2824SOL    HW2 9360   1.380   3.998   6.768
 2825SOL     OW 9361   1.009   3.743   6.729
 2825SOL    HW1 9362   0.954   3.675   6.689
 2825SOL    HW2 9363   1.097   3.705   6.730
 2826SOL     OW 9364   1.353   3.777   5.750
 2826SOL    HW1 9365   1.380   3.712   5.686
 2826SOL    HW2 9366   1.265   3.748   5.777
 2827SOL     OW 9367   1.299   4.175   6.267
 2827SOL    HW1 9368   1.263   4.263   6.281
 2827SOL    HW2 9369   1.298   4.134   6.353
 2828SOL     OW 9370   1.586   3.927   6.463
 2828SOL    HW1 9371   1.527   3.947   6.535
 2828SOL    HW2 9372   1.586   4.005   6.409
 2829SOL     OW 9373   0.228   4.279   7.558
 2829SOL    HW1 9374   0.163   4.311   7.620
 2829SOL    HW2 9375   0.213   4.330   7.479
 2830SOL     OW 9376   0.209   3.995   8.439
 2830SOL    HW1 9377   0.245   3.968   8.524
 2830SOL    HW2 9378   0.133   3.938   8.425
 2831SOL     OW 9379   4.499   4.101   8.079
 2831SOL    HW1 9380   4.417   4.131   8.119
 2831SOL    HW2 9381   4.477   4.018   8.037
 2832SOL     OW 9382   1.729   4.335   7.686
 2832SOL    HW1 9383   1.729   4.323   7.591
 2832SOL    HW2 9384   1.731   4.246   7.721
 2833SOL     OW 9385   0.730   0.271   8.133
 2833SOL    HW1 9386   0.718   0.208   8.204
 2833SOL    HW2 9387   0.641   0.289   8.101
 2834SOL     OW 9388   0.446   4.119   8.936
 2834SOL    HW1 9389   0.527   4.068   8.938
 2834SOL    HW2 9390   0.376   4.054   8.946
 2835SOL     OW 9391   1.615   4.172   8.188
 2835SOL    HW1 9392   1.547   4.197   8.125
 2835SOL    HW2 9393   1.613   4.240   8.255
 2836SOL     OW 9394   1.596   3.847   8.916
 2836SOL    HW1 9395   1.603   3.928   8.865
 2836SOL    HW2 9396   1.581   3.877   9.006
 2837SOL     OW 9397   0.162   4.323   8.083
 2837SOL    HW1 9398   0.103   4.250   8.067
 2837SOL    HW2 9399   0.117   4.399   8.047
 2838SOL     OW 9400   0.123   0.003   9.036
 2838SOL    HW1 9401   0.217   4.485   9.034
 2838SOL    HW2 9402   0.114   0.090   8.996
 2839SOL     OW 9403   0.817   3.725   7.957
 2839SOL    HW1 9404   0.856   3.810   7.938
 2839SOL    HW2 9405   0.723   3.743   7.966
 2840SOL     OW 9406   0.330   3.979   9.247
 2840SOL    HW1 9407   0.373   4.058   9.279
 2840SOL    HW2 9408   0.240   3.986   9.280
 2841SOL     OW 9409   1.277   4.073   8.381
 2841SOL    HW1 9410   1.188   4.040   8.391
 2841SOL    HW2 9411   1.329   4.021   8.442
 2842SOL     OW 9412   0.829   4.303   8.895
 2842SOL    HW1 9413   0.789   4.308   8.982
 2842SOL    HW2 9414   0.760   4.266   8.839
 2843SOL     OW 9415   1.395   4.199   9.124
 2843SOL    HW1 9416   1.398   4.244   9.209
 2843SOL    HW2 9417   1.453   4.124   9.135
 2844SOL     OW 9418   0.998   4.151   8.681
 2844SOL    HW1 9419   0.927   4.172   8.741
 2844SOL    HW2 9420   0.958   4.091   8.617
 2845SOL     OW 9421   1.056   4.410   7.864
 2845SOL    HW1 9422   1.053   4.452   7.950
 2845SOL    HW2 9423   0.970   4.371   7.854
 2846SOL     OW 9424   0.056   0.068   8.301
 2846SOL    HW1 9425   0.142   0.027   8.307
 2846SOL    HW2 9426   0.048   0.094   8.209
 2847SOL     OW 9427   0.892   4.064   7.638
 2847SOL    HW1 9428   0.933   4.127   7.578
 2847SOL    HW2 9429   0.909   3.979   7.598
 2848SOL     OW 9430   1.708   4.299   9.278
 2848SOL    HW1 9431   1.722   4.387   9.243
 2848SOL    HW2 9432   1.731   4.240   9.205
 2849SOL     OW 9433   0.552   3.904   8.341
 2849SOL    HW1 9434   0.554   3.935   8.432
 2849SOL    HW2 9435   0.547   3.984   8.289
 2850SOL     OW 9436   1.491   4.466   8.187
 2850SOL    HW1 9437   1.474   4.411   8.263
 2850SOL    HW2 9438   1.531   0.045   8.223
 2851SOL     OW 9439   0.189   4.001   8.933
 2851SOL    HW1 9440   0.140   4.082   8.943
 2851SOL    HW2 9441   0.183   3.959   9.019
 2852SOL     OW 9442   1.401   3.830   7.881
 2852SOL    HW1 9443   1.391   3.806   7.789
 2852SOL    HW2 9444   1.495   3.839   7.893
 2853SOL     OW 9445   0.348   4.380   7.851
 2853SOL    HW1 9446   0.392   4.305   7.892
 2853SOL    HW2 9447   0.300   4.421   7.922
 2854SOL     OW 9448   1.534   3.950   9.173
 2854SOL    HW1 9449   1.544   3.971   9.266
 2854SOL    HW2 9450   1.466   3.883   9.170
 2855SOL     OW 9451   0.636   3.848   7.550
 2855SOL    HW1 9452   0.702   3.781   7.567
 2855SOL    HW2 9453   0.587   3.815   7.475
 2856SOL     OW 9454   0.766   4.002   9.203
 2856SOL    HW1 9455   0.842   3.945   9.202
 2856SOL    HW2 9456   0.717   3.976   9.281
 2857SOL     OW 9457   1.342   4.312   8.877
 2857SOL    HW1 9458   1.364   4.275   8.963
 2857SOL    HW2 9459   1.386   4.397   8.876
 2858SOL     OW 9460   0.924   4.235   8.346
 2858SOL    HW1 9461   0.901   4.219   8.254
 2858SOL    HW2 9462   0.963   4.153   8.375
 2859SOL     OW 9463   0.553   3.787   7.949
 2859SOL    HW1 9464   0.472   3.784   8.000
 2859SOL    HW2 9465   0.544   3.865   7.894
 2860SOL     OW 9466   0.294   3.770   7.626
 2860SOL    HW1 9467   0.356   3.837   7.597
 2860SOL    HW2 9468   0.348   3.704   7.670
 2861SOL     OW 9469   0.938   3.973   7.909
 2861SOL    HW1 9470   0.912   4.010   7.824
 2861SOL    HW2 9471   1.033   3.985   7.912
 2862SOL     OW 9472   1.075   4.396   8.972
 2862SOL    HW1 9473   0.992   4.366   8.934
 2862SOL    HW2 9474   1.142   4.358   8.916
 2863SOL     OW 9475   1.025   4.266   7.475
 2863SOL    HW1 9476   1.009   4.353   7.440
 2863SOL    HW2 9477   1.089   4.278   7.545
 2864SOL     OW 9478   0.084   4.256   8.856
 2864SOL    HW1 9479   0.159   4.269   8.798
 2864SOL    HW2 9480   0.051   4.345   8.873
 2865SOL     OW 9481   0.560   3.951   8.613
 2865SOL    HW1 9482   0.601   3.872   8.649
 2865SOL    HW2 9483   0.469   3.946   8.642
 2866SOL     OW 9484   0.870   4.190   8.085
 2866SOL    HW1 9485   0.835   4.249   8.018
 2866SOL    HW2 9486   0.888   4.109   8.037
 2867SOL     OW 9487   1.015   3.777   8.199
 2867SOL    HW1 9488   0.956   3.769   8.123
 2867SOL    HW2 9489   0.993   3.702   8.254
 2868SOL     OW 9490   1.478   4.311   8.412
 2868SOL    HW1 9491   1.417   4.239   8.432
 2868SOL    HW2 9492   1.528   4.322   8.492
 2869SOL     OW 9493   1.403   4.296   7.521
 2869SOL    HW1 9494   1.341   4.268   7.588
 2869SOL    HW2 9495   1.486   4.255   7.547
 2870SOL     OW 9496   0.524   3.985   7.763
 2870SOL    HW1 9497   0.569   3.938   7.693
 2870SOL    HW2 9498   0.510   4.073   7.727
 2871SOL     OW 9499   0.917   3.822   8.843
 2871SOL    HW1 9500   0.941   3.801   8.753
 2871SOL    HW2 9501   0.997   3.860   8.881
 2872SOL     OW 9502   0.443   0.004   8.712
 2872SOL    HW1 9503   0.499   0.000   8.789
 2872SOL    HW2 9504   0.406   4.416   8.705
 2873SOL     OW 9505   1.265   4.100   8.723
 2873SOL    HW1 9506   1.299   4.177   8.768
 2873SOL    HW2 9507   1.176   4.123   8.698
 2874SOL     OW 9508   0.555   4.252   8.312
 2874SOL    HW1 9509   0.574   4.292   8.227
 2874SOL    HW2 9510   0.621   4.289   8.371
 2875SOL     OW 9511   1.568   4.337   7.927
 2875SOL    HW1 9512   1.542   4.404   7.991
 2875SOL    HW2 9513   1.628   4.383   7.868
 2876SOL     OW 9514   0.996   3.848   9.203
 2876SOL    HW1 9515   1.053   3.920   9.177
 2876SOL    HW2 9516   1.044   3.769   9.178
 2877SOL     OW 9517   0.497   3.767   9.195
 2877SOL    HW1 9518   0.455   3.710   9.130
 2877SOL    HW2 9519   0.438   3.841   9.204
 2878SOL     OW 9520   1.210   4.253   7.711
 2878SOL    HW1 9521   1.220   4.174   7.763
 2878SOL    HW2 9522   1.161   4.313   7.767
 2879SOL     OW 9523   0.299   3.922   8.692
 2879SOL    HW1 9524   0.258   3.950   8.774
 2879SOL    HW2 9525   0.286   3.827   8.690
 2880SOL     OW 9526   0.734   4.360   8.492
 2880SOL    HW1 9527   0.807   4.322   8.443
 2880SOL    HW2 9528   0.743   4.454   8.481
 2881SOL     OW 9529   1.752   0.132   9.301
 2881SOL    HW1 9530   1.686   0.148   9.234
 2881SOL    HW2 9531   1.709   0.156   9.384
 2882SOL     OW 9532   0.311   3.793   8.066
 2882SOL    HW1 9533   0.286   3.881   8.093
 2882SOL    HW2 9534   0.308   3.742   8.147
 2883SOL     OW 9535   1.614   4.091   7.816
 2883SOL    HW1 9536   1.644   4.030   7.884
 2883SOL    HW2 9537   1.590   4.170   7.864
 2884SOL     OW 9538   1.526   3.999   7.575
 2884SOL    HW1 9539   1.463   3.932   7.601
 2884SOL    HW2 9540   1.561   4.032   7.657
 2885SOL     OW 9541   0.320   0.015   8.361
 2885SOL    HW1 9542   0.400   0.066   8.369
 2885SOL    HW2 9543   0.335   4.438   8.416
 2886SOL     OW 9544   0.333   4.237   8.460
 2886SOL    HW1 9545   0.290   4.155   8.436
 2886SOL    HW2 9546   0.408   4.242   8.400
 2887SOL     OW 9547   1.137   4.093   9.134
 2887SOL    HW1 9548   1.085   4.152   9.188
 2887SOL    HW2 9549   1.222   4.137   9.125
 2888SOL     OW 9550   1.160   3.926   8.917
 2888SOL    HW1 9551   1.151   3.987   8.990
 2888SOL    HW2 9552   1.201   3.978   8.847
 2889SOL     OW 9553   0.022   4.277   8.552
 2889SOL    HW1 9554   0.109   4.261   8.516
 2889SOL    HW2 9555   0.025   4.237   8.639
 2890SOL     OW 9556   0.175   4.236   9.140
 2890SOL    HW1 9557   0.264   4.219   9.108
 2890SOL    HW2 9558   0.149   4.317   9.095
 2891SOL     OW 9559   0.820   4.282   7.798
 2891SOL    HW1 9560   0.821   4.208   7.738
 2891SOL    HW2 9561   0.731   4.318   7.790
 2892SOL     OW 9562   1.636   4.317   8.634
 2892SOL    HW1 9563   1.632   4.260   8.710
 2892SOL    HW2 9564   1.724   4.304   8.599
 2893SOL     OW 9565   0.674   4.188   8.705
 2893SOL    HW1 9566   0.637   4.106   8.671
 2893SOL    HW2 9567   0.684   4.243   8.627
 2894SOL     OW 9568   0.485   4.224   7.635
 2894SOL    HW1 9569   0.514   4.309   7.667
 2894SOL    HW2 9570   0.392   4.235   7.618
 2895SOL     OW 9571   1.721   3.870   7.959
 2895SOL    HW1 9572   1.792   3.855   7.897
 2895SOL    HW2 9573   1.704   3.784   7.998
 2896SOL     OW 9574   1.279   0.136   8.127
 2896SOL    HW1 9575   1.337   0.061   8.139
 2896SOL    HW2 9576   1.330   0.197   8.073
 2897SOL     OW 9577   1.840   3.896   8.415
 2897SOL    HW1 9578   1.868   3.809   8.387
 2897SOL    HW2 9579   1.754   3.907   8.375
 2898SOL     OW 9580   0.268   4.041   8.168
 2898SOL    HW1 9581   0.190   4.089   8.140
 2898SOL    HW2 9582   0.255   4.028   8.262
 2899SOL     OW 9583   0.905   0.091   7.664
 2899SOL    HW1 9584   0.987   0.130   7.633
 2899SOL    HW2 9585   0.927   0.054   7.749
 2900SOL     OW 9586   1.066   0.297   8.192
 2900SOL    HW1 9587   0.991   0.286   8.133
 2900SOL    HW2 9588   1.130   0.234   8.160
 2901SOL     OW 9589   1.020   3.964   8.413
 2901SOL    HW1 9590   1.016   3.915   8.330
 2901SOL    HW2 9591   1.016   3.896   8.481
 2902SOL     OW 9592   1.722   4.114   8.828
 2902SOL    HW1 9593   1.793   4.178   8.826
 2902SOL    HW2 9594   1.751   4.043   8.771
 2903SOL     OW 9595   0.674   3.923   8.947
 2903SOL    HW1 9596   0.758   3.901   8.906
 2903SOL    HW2 9597   0.697   3.952   9.035
 2904SOL     OW 9598   0.067   4.045   7.484
 2904SOL    HW1 9599   4.474   4.065   7.475
 2904SOL    HW2 9600   0.111   4.129   7.475
 2905SOL     OW 9601   0.087   3.901   7.753
 2905SOL    HW1 9602   0.076   3.969   7.686
 2905SOL    HW2 9603   0.162   3.849   7.723
 2906SOL     OW 9604   0.726   4.282   9.147
 2906SOL    HW1 9605   0.728   4.330   9.229
 2906SOL    HW2 9606   0.747   4.192   9.171
 2907SOL     OW 9607   1.218   4.042   7.902
 2907SOL    HW1 9608   1.280   3.970   7.894
 2907SOL    HW2 9609   1.247   4.090   7.980
 2908SOL     OW 9610   1.759   4.091   9.097
 2908SOL    HW1 9611   1.743   4.101   9.003
 2908SOL    HW2 9612   1.689   4.032   9.127
 2909SOL     OW 9613   1.111   0.226   7.550
 2909SOL    HW1 9614   1.099   0.269   7.466
 2909SOL    HW2 9615   1.197   0.184   7.544
 2910SOL     OW 9616   1.814   3.908   8.686
 2910SOL    HW1 9617   1.822   3.813   8.700
 2910SOL    HW2 9618   1.822   3.919   8.591
 2911SOL     OW 9619   0.450   4.155   7.983
 2911SOL    HW1 9620   0.465   4.080   7.925
 2911SOL    HW2 9621   0.392   4.121   8.051
 2912SOL     OW 9622   0.322   4.261   8.725
 2912SOL    HW1 9623   0.375   4.194   8.768
 2912SOL    HW2 9624   0.332   4.243   8.632
 2913SOL     OW 9625   1.432   3.949   8.566
 2913SOL    HW1 9626   1.456   3.868   8.611
 2913SOL    HW2 9627   1.380   3.998   8.629
 2914SOL     OW 9628   1.009   3.743   8.591
 2914SOL    HW1 9629   0.954   3.675   8.550
 2914SOL    HW2 9630   1.097   3.705   8.592
 2915SOL     OW 9631   1.353   3.777   7.613
 2915SOL    HW1 9632   1.381   3.713   7.548
 2915SOL    HW2 9633   1.265   3.748   7.639
 2916SOL     OW 9634   1.299   4.175   8.129
 2916SOL    HW1 9635   1.263   4.262   8.143
 2916SOL    HW2 9636   1.298   4.134   8.215
 2917SOL     OW 9637   1.586   3.926   8.326
 2917SOL    HW1 9638   1.527   3.948   8.397
 2917SOL    HW2 9639   1.587   4.004   8.270
 2918SOL     OW 9640   0.228   4.279   9.420
 2918SOL    HW1 9641   0.163   4.311   9.482
 2918SOL    HW2 9642   0.213   4.330   9.341
 2919SOL     OW 9643   0.211   3.994  10.300
 2919SOL    HW1 9644   0.246   3.969  10.385
 2919SOL    HW2 9645   0.134   3.940  10.288
 2920SOL     OW 9646   4.499   4.101   9.941
 2920SOL    HW1 9647   4.417   4.131   9.981
 2920SOL    HW2 9648   4.477   4.018   9.899
 2921SOL     OW 9649   1.729   4.335   9.548
 2921SOL    HW1 9650   1.730   4.323   9.453
 2921SOL    HW2 9651   1.731   4.246   9.583
 2922SOL     OW 9652   0.730   0.271   9.994
 2922SOL    HW1 9653   0.718   0.209  10.066
 2922SOL    HW2 9654   0.641   0.289   9.964
 2923SOL     OW 9655   0.448   4.123  10.788
 2923SOL    HW1 9656   0.526   4.069  10.796
 2923SOL    HW2 9657   0.376   4.065  10.814
 2924SOL     OW 9658   1.615   4.172  10.050
 2924SOL    HW1 9659   1.547   4.197   9.988
 2924SOL    HW2 9660   1.613   4.240  10.117
 2925SOL     OW 9661   1.589   3.841  10.778
 2925SOL    HW1 9662   1.605   3.921  10.728
 2925SOL    HW2 9663   1.591   3.868  10.870
 2926SOL     OW 9664   0.162   4.323   9.945
 2926SOL    HW1 9665   0.102   4.250   9.929
 2926SOL    HW2 9666   0.117   4.399   9.909
 2927SOL     OW 9667   0.101   4.492  10.935
 2927SOL    HW1 9668   0.195   4.477  10.943
 2927SOL    HW2 9669   0.094   0.077  10.890
 2928SOL     OW 9670   0.817   3.724   9.819
 2928SOL    HW1 9671   0.856   3.810   9.800
 2928SOL    HW2 9672   0.723   3.743   9.828
 2929SOL     OW 9673   0.340   3.985   0.009
 2929SOL    HW1 9674   0.384   4.065   0.037
 2929SOL    HW2 9675   0.247   4.005   0.014
 2930SOL     OW 9676   1.277   4.074  10.243
 2930SOL    HW1 9677   1.188   4.040  10.253
 2930SOL    HW2 9678   1.329   4.021  10.304
 2931SOL     OW 9679   0.825   4.299  10.762
 2931SOL    HW1 9680   0.779   4.312  10.845
 2931SOL    HW2 9681   0.759   4.263  10.703
 2932SOL     OW 9682   0.998   4.150  10.545
 2932SOL    HW1 9683   0.924   4.172  10.602
 2932SOL    HW2 9684   0.960   4.093  10.477
 2933SOL     OW 9685   1.056   4.410   9.727
 2933SOL    HW1 9686   1.053   4.452   9.812
 2933SOL    HW2 9687   0.970   4.371   9.716
 2934SOL     OW 9688   0.055   0.068  10.163
 2934SOL    HW1 9689   0.141   0.027  10.170
 2934SOL    HW2 9690   0.050   0.095  10.071
 2935SOL     OW 9691   0.892   4.064   9.500
 2935SOL    HW1 9692   0.933   4.127   9.441
 2935SOL    HW2 9693   0.909   3.979   9.460
 2936SOL     OW 9694   0.553   3.904  10.203
 2936SOL    HW1 9695   0.554   3.935  10.294
 2936SOL    HW2 9696   0.549   3.985  10.151
 2937SOL     OW 9697   1.491   4.466  10.048
 2937SOL    HW1 9698   1.474   4.411  10.125
 2937SOL    HW2 9699   1.531   0.045  10.085
 2938SOL     OW 9700   0.191   4.001  10.797
 2938SOL    HW1 9701   0.143   4.083  10.804
 2938SOL    HW2 9702   0.183   3.960  10.883
 2939SOL     OW 9703   1.401   3.830   9.743
 2939SOL    HW1 9704   1.391   3.806   9.651
 2939SOL    HW2 9705   1.495   3.839   9.755
 2940SOL     OW 9706   0.348   4.380   9.713
 2940SOL    HW1 9707   0.392   4.305   9.754
 2940SOL    HW2 9708   0.300   4.421   9.785
 2941SOL     OW 9709   0.636   3.848   9.412
 2941SOL    HW1 9710   0.702   3.781   9.429
 2941SOL    HW2 9711   0.587   3.815   9.337
 2942SOL     OW 9712   0.769   4.002  11.045
 2942SOL    HW1 9713   0.834   3.942  11.082
 2942SOL    HW2 9714   0.706   4.015   0.016
 2943SOL     OW 9715   1.352   4.308  10.743
 2943SOL    HW1 9716   1.370   4.290  10.835
 2943SOL    HW2 9717   1.378   4.400  10.731
 2944SOL     OW 9718   0.925   4.236  10.207
 2944SOL    HW1 9719   0.902   4.220  10.116
 2944SOL    HW2 9720   0.963   4.153  10.237
 2945SOL     OW 9721   0.553   3.787   9.811
 2945SOL    HW1 9722   0.472   3.784   9.862
 2945SOL    HW2 9723   0.544   3.864   9.756
 2946SOL     OW 9724   0.294   3.770   9.488
 2946SOL    HW1 9725   0.356   3.837   9.459
 2946SOL    HW2 9726   0.348   3.704   9.532
 2947SOL     OW 9727   0.938   3.972   9.771
 2947SOL    HW1 9728   0.912   4.010   9.686
 2947SOL    HW2 9729   1.033   3.985   9.774
 2948SOL     OW 9730   1.079   4.376  10.828
 2948SOL    HW1 9731   0.991   4.363  10.791
 2948SOL    HW2 9732   1.139   4.346  10.759
 2949SOL     OW 9733   1.025   4.266   9.337
 2949SOL    HW1 9734   1.009   4.353   9.302
 2949SOL    HW2 9735   1.088   4.279   9.407
 2950SOL     OW 9736   0.085   4.254  10.723
 2950SOL    HW1 9737   0.157   4.262  10.660
 2950SOL    HW2 9738   0.051   4.343  10.732
 2951SOL     OW 9739   0.559   3.950  10.475
 2951SOL    HW1 9740   0.600   3.872  10.512
 2951SOL    HW2 9741   0.468   3.945  10.504
 2952SOL     OW 9742   0.870   4.190   9.947
 2952SOL    HW1 9743   0.835   4.249   9.880
 2952SOL    HW2 9744   0.888   4.109   9.899
 2953SOL     OW 9745   1.014   3.778  10.061
 2953SOL    HW1 9746   0.956   3.770   9.986
 2953SOL    HW2 9747   0.993   3.702  10.116
 2954SOL     OW 9748   1.477   4.311  10.274
 2954SOL    HW1 9749   1.417   4.239  10.293
 2954SOL    HW2 9750   1.528   4.322  10.354
 2955SOL     OW 9751   1.403   4.296   9.383
 2955SOL    HW1 9752   1.341   4.268   9.450
 2955SOL    HW2 9753   1.486   4.255   9.409
 2956SOL     OW 9754   0.524   3.985   9.625
 2956SOL    HW1 9755   0.569   3.938   9.555
 2956SOL    HW2 9756   0.510   4.073   9.589
 2957SOL     OW 9757   0.918   3.823  10.704
 2957SOL    HW1 9758   0.942   3.802  10.614
 2957SOL    HW2 9759   0.997   3.863  10.742
 2958SOL     OW 9760   0.446   4.497  10.560
 2958SOL    HW1 9761   0.498   0.003  10.640
 2958SOL    HW2 9762   0.394   4.417  10.570
 2959SOL     OW 9763   1.266   4.099  10.587
 2959SOL    HW1 9764   1.302   4.176  10.631
 2959SOL    HW2 9765   1.178   4.125  10.561
 2960SOL     OW 9766   0.560   4.248  10.171
 2960SOL    HW1 9767   0.577   4.293  10.088
 2960SOL    HW2 9768   0.622   4.287  10.232
 2961SOL     OW 9769   1.568   4.337   9.789
 2961SOL    HW1 9770   1.542   4.404   9.853
 2961SOL    HW2 9771   1.628   4.383   9.730
 2962SOL     OW 9772   0.492   0.002  11.003
 2962SOL    HW1 9773   0.481   0.051  10.922
 2962SOL    HW2 9774   0.493   4.410  10.975
 2963SOL     OW 9775   1.210   4.253   9.573
 2963SOL    HW1 9776   1.220   4.174   9.625
 2963SOL    HW2 9777   1.161   4.313   9.629
 2964SOL     OW 9778   0.299   3.921  10.554
 2964SOL    HW1 9779   0.262   3.951  10.637
 2964SOL    HW2 9780   0.284   3.826  10.554
 2965SOL     OW 9781   0.733   4.359  10.354
 2965SOL    HW1 9782   0.807   4.323  10.304
 2965SOL    HW2 9783   0.742   4.454  10.343
 2966SOL     OW 9784   0.311   3.793   9.928
 2966SOL    HW1 9785   0.287   3.881   9.955
 2966SOL    HW2 9786   0.308   3.742  10.009
 2967SOL     OW 9787   1.614   4.091   9.678
 2967SOL    HW1 9788   1.644   4.030   9.746
 2967SOL    HW2 9789   1.590   4.170   9.726
 2968SOL     OW 9790   1.526   3.999   9.437
 2968SOL    HW1 9791   1.463   3.932   9.463
 2968SOL    HW2 9792   1.561   4.032   9.519
 2969SOL     OW 9793   0.320   0.015  10.223
 2969SOL    HW1 9794   0.399   0.066  10.233
 2969SOL    HW2 9795   0.334   4.437  10.277
 2970SOL     OW 9796   0.333   4.238  10.310
 2970SOL    HW1 9797   0.290   4.156  10.289
 2970SOL    HW2 9798   0.410   4.241  10.253
 2971SOL     OW 9799   1.157   3.931  10.782
 2971SOL    HW1 9800   1.165   3.990  10.857
 2971SOL    HW2 9801   1.198   3.978  10.709
 2972SOL     OW 9802   0.022   4.274  10.412
 2972SOL    HW1 9803   0.111   4.265  10.377
 2972SOL    HW2 9804   0.026   4.239  10.500
 2973SOL     OW 9805   1.345   0.196  10.985
 2973SOL    HW1 9806   1.417   0.254  11.011
 2973SOL    HW2 9807   1.374   0.155  10.904
 2974SOL     OW 9808   0.820   4.283   9.660
 2974SOL    HW1 9809   0.821   4.208   9.599
 2974SOL    HW2 9810   0.731   4.318   9.653
 2975SOL     OW 9811   1.636   4.317  10.496
 2975SOL    HW1 9812   1.633   4.258  10.571
 2975SOL    HW2 9813   1.724   4.306  10.461
 2976SOL     OW 9814   0.682   4.184  10.565
 2976SOL    HW1 9815   0.639   4.105  10.532
 2976SOL    HW2 9816   0.685   4.243  10.489
 2977SOL     OW 9817   0.485   4.224   9.497
 2977SOL    HW1 9818   0.514   4.309   9.529
 2977SOL    HW2 9819   0.392   4.235   9.480
 2978SOL     OW 9820   1.721   3.870   9.821
 2978SOL    HW1 9821   1.792   3.855   9.759
 2978SOL    HW2 9822   1.704   3.784   9.860
 2979SOL     OW 9823   1.279   0.136   9.989
 2979SOL    HW1 9824   1.337   0.061  10.002
 2979SOL    HW2 9825   1.330   0.197   9.935
 2980SOL     OW 9826   1.840   3.896  10.277
 2980SOL    HW1 9827   1.868   3.809  10.250
 2980SOL    HW2 9828   1.754   3.907  10.237
 2981SOL     OW 9829   0.268   4.041  10.030
 2981SOL    HW1 9830   0.190   4.089  10.002
 2981SOL    HW2 9831   0.255   4.028  10.124
 2982SOL     OW 9832   0.905   0.091   9.526
 2982SOL    HW1 9833   0.987   0.130   9.495
 2982SOL    HW2 9834   0.927   0.054   9.611
 2983SOL     OW 9835   1.066   0.298  10.053
 2983SOL    HW1 9836   0.991   0.286   9.995
 2983SOL    HW2 9837   1.130   0.234  10.022
 2984SOL     OW 9838   1.020   3.964  10.275
 2984SOL    HW1 9839   1.016   3.916  10.193
 2984SOL    HW2 9840   1.016   3.897  10.343
 2985SOL     OW 9841   1.718   4.116  10.691
 2985SOL    HW1 9842   1.790   4.179  10.693
 2985SOL    HW2 9843   1.748   4.046  10.634
 2986SOL     OW 9844   0.674   3.920  10.803
 2986SOL    HW1 9845   0.756   3.898  10.758
 2986SOL    HW2 9846   0.702   3.956  10.887
 2987SOL     OW 9847   0.067   4.045   9.346
 2987SOL    HW1 9848   4.474   4.065   9.337
 2987SOL    HW2 9849   0.111   4.129   9.337
 2988SOL     OW 9850   0.087   3.901   9.615
 2988SOL    HW1 9851   0.076   3.969   9.548
 2988SOL    HW2 9852   0.162   3.849   9.585
 2989SOL     OW 9853   0.721   4.290  11.021
 2989SOL    HW1 9854   0.758   4.343  11.091
 2989SOL    HW2 9855   0.765   4.205  11.029
 2990SOL     OW 9856   1.218   4.042   9.764
 2990SOL    HW1 9857   1.280   3.970   9.756
 2990SOL    HW2 9858   1.247   4.090   9.842
 2991SOL     OW 9859   1.752   4.051  10.957
 2991SOL    HW1 9860   1.731   4.081  10.869
 2991SOL    HW2 9861   1.670   4.058  11.006
 2992SOL     OW 9862   1.111   0.227   9.412
 2992SOL    HW1 9863   1.099   0.269   9.328
 2992SOL    HW2 9864   1.197   0.184   9.405
 2993SOL     OW 9865   1.809   3.908  10.548
 2993SOL    HW1 9866   1.821   3.814  10.561
 2993SOL    HW2 9867   1.819   3.920  10.454
 2994SOL     OW 9868   0.450   4.155   9.844
 2994SOL    HW1 9869   0.465   4.080   9.786
 2994SOL    HW2 9870   0.392   4.122   9.913
 2995SOL     OW 9871   0.313   4.242  10.574
 2995SOL    HW1 9872   0.372   4.180  10.617
 2995SOL    HW2 9873   0.332   4.232  10.481
 2996SOL     OW 9874   1.431   3.948  10.427
 2996SOL    HW1 9875   1.459   3.869  10.474
 2996SOL    HW2 9876   1.381   3.997  10.492
 2997SOL     OW 9877   1.009   3.743  10.453
 2997SOL    HW1 9878   0.954   3.676  10.411
 2997SOL    HW2 9879   1.096   3.705  10.454
 2998SOL     OW 9880   1.353   3.777   9.475
 2998SOL    HW1 9881   1.381   3.713   9.410
 2998SOL    HW2 9882   1.265   3.748   9.501
 2999SOL     OW 9883   1.299   4.175   9.991
 2999SOL    HW1 9884   1.263   4.262  10.005
 2999SOL    HW2 9885   1.298   4.135  10.078
 3000SOL     OW 9886   1.586   3.926  10.188
 3000SOL    HW1 9887   1.526   3.947  10.259
 3000SOL    HW2 9888   1.587   4.004  10.132
 3001SOL     OW 9889   2.084   0.611   0.115
 3001SOL    HW1 9890   2.000   0.619   0.160
 3001SOL    HW2 9891   2.069   0.647   0.028
 3002SOL     OW 9892   2.070   0.299   0.989
 3002SOL    HW1 9893   2.100   0.270   1.075
 3002SOL    HW2 9894   1.988   0.251   0.976
 3003SOL     OW 9895   1.869   0.386   0.637
 3003SOL    HW1 9896   1.783   0.406   0.675
 3003SOL    HW2 9897   1.853   0.311   0.580
 3004SOL     OW 9898   2.429   1.288   1.175
 3004SOL    HW1 9899   2.342   1.291   1.137
 3004SOL    HW2 9900   2.444   1.376   1.208
 3005SOL     OW 9901   3.423   1.512   0.707
 3005SOL    HW1 9902   3.380   1.491   0.790
 3005SOL    HW2 9903   3.352   1.515   0.643
 3006SOL     OW 9904   2.997   0.699   0.698
 3006SOL    HW1 9905   3.043   0.782   0.689
 3006SOL    HW2 9906   2.946   0.708   0.778
 3007SOL     OW 9907   3.640   0.601   0.216
 3007SOL    HW1 9908   3.582   0.608   0.139
 3007SOL    HW2 9909   3.600   0.532   0.269
 3008SOL     OW 9910   2.618   1.142   1.042
 3008SOL    HW1 9911   2.549   1.177   1.098
 3008SOL    HW2 9912   2.653   1.219   0.997
 3009SOL     OW 9913   2.729   0.774   1.822
 3009SOL    HW1 9914   2.715   0.845   1.885
 3009SOL    HW2 9915   2.752   0.818   1.741
 3010SOL     OW 9916   2.548   1.003   0.646
 3010SOL    HW1 9917   2.613   0.990   0.716
 3010SOL    HW2 9918   2.479   1.054   0.687
 3011SOL     OW 9919   2.573   1.151   1.812
 3011SOL    HW1 9920   2.620   1.229   1.839
 3011SOL    HW2 9921   2.490   1.183   1.777
 3012SOL     OW 9922   2.193   1.424   1.069
 3012SOL    HW1 9923   2.119   1.388   1.020
 3012SOL    HW2 9924   2.242   1.475   1.004
 3013SOL     OW 9925   3.323   1.499   1.355
 3013SOL    HW1 9926   3.373   1.580   1.364
 3013SOL    HW2 9927   3.260   1.501   1.427
 3014SOL     OW 9928   2.304   0.395   1.489
 3014SOL    HW1 9929   2.386   0.345   1.490
 3014SOL    HW2 9930   2.236   0.329   1.502
 3015SOL     OW 9931   3.472   0.446   0.739
 3015SOL    HW1 9932   3.390   0.465   0.693
 3015SOL    HW2 9933   3.489   0.524   0.791
 3016SOL     OW 9934   2.082   1.718   0.474
 3016SOL    HW1 9935   2.123   1.755   0.552
 3016SOL    HW2 9936   2.154   1.706   0.412
 3017SOL     OW 9937   2.999   1.341   1.693
 3017SOL    HW1 9938   3.038   1.337   1.780
 3017SOL    HW2 9939   2.946   1.262   1.686
 3018SOL     OW 9940   2.086   1.442   0.534
 3018SOL    HW1 9941   2.063   1.535   0.542
 3018SOL    HW2 9942   2.029   1.398   0.597
 3019SOL     OW 9943   2.120   1.090   0.891
 3019SOL    HW1 9944   2.116   1.004   0.932
 3019SOL    HW2 9945   2.062   1.145   0.944
 3020SOL     OW 9946   2.472   1.791   1.426
 3020SOL    HW1 9947   2.390   1.773   1.473
 3020SOL    HW2 9948   2.495   1.880   1.452
 3021SOL     OW 9949   2.445   0.988   0.142
 3021SOL    HW1 9950   2.486   1.043   0.075
 3021SOL    HW2 9951   2.487   1.015   0.223
 3022SOL     OW 9952   3.444   0.116   1.471
 3022SOL    HW1 9953   3.467   0.184   1.408
 3022SOL    HW2 9954   3.433   0.162   1.554
 3023SOL     OW 9955   1.978   0.653   0.560
 3023SOL    HW1 9956   1.948   0.565   0.582
 3023SOL    HW2 9957   1.969   0.702   0.641
 3024SOL     OW 9958   3.704   1.759   0.333
 3024SOL    HW1 9959   3.768   1.729   0.398
 3024SOL    HW2 9960   3.729   1.850   0.315
 3025SOL     OW 9961   1.896   1.600   0.119
 3025SOL    HW1 9962   1.879   1.508   0.138
 3025SOL    HW2 9963   1.870   1.647   0.199
 3026SOL     OW 9964   3.552   0.919   0.642
 3026SOL    HW1 9965   3.636   0.879   0.621
 3026SOL    HW2 9966   3.530   0.971   0.564
 3027SOL     OW 9967   3.509   1.105   0.431
 3027SOL    HW1 9968   3.591   1.116   0.384
 3027SOL    HW2 9969   3.513   1.167   0.504
 3028SOL     OW 9970   1.984   0.745   1.584
 3028SOL    HW1 9971   2.076   0.772   1.592
 3028SOL    HW2 9972   1.934   0.826   1.592
 3029SOL     OW 9973   2.477   1.386   0.735
 3029SOL    HW1 9974   2.431   1.302   0.745
 3029SOL    HW2 9975   2.459   1.412   0.644
 3030SOL     OW 9976   3.151   1.238   1.423
 3030SOL    HW1 9977   3.182   1.171   1.363
 3030SOL    HW2 9978   3.208   1.232   1.499
 3031SOL     OW 9979   2.680   0.011   0.553
 3031SOL    HW1 9980   2.719   0.089   0.511
 3031SOL    HW2 9981   2.586   0.025   0.546
 3032SOL     OW 9982   2.052   0.965   1.273
 3032SOL    HW1 9983   2.137   0.924   1.257
 3032SOL    HW2 9984   1.990   0.913   1.222
 3033SOL     OW 9985   3.379   1.001   0.204
 3033SOL    HW1 9986   3.314   0.941   0.240
 3033SOL    HW2 9987   3.428   1.031   0.279
 3034SOL     OW 9988   3.049   1.806   1.621
 3034SOL    HW1 9989   3.060   1.863   1.545
 3034SOL    HW2 9990   3.064   1.718   1.587
 3035SOL     OW 9991   2.177   0.254   1.780
 3035SOL    HW1 9992   2.240   0.318   1.812
 3035SOL    HW2 9993   2.104   0.260   1.841
 3036SOL     OW 9994   3.329   1.419   0.951
 3036SOL    HW1 9995   3.260   1.434   1.017
 3036SOL    HW2 9996   3.316   1.328   0.924
 3037SOL     OW 9997   3.519   1.741   0.579
 3037SOL    HW1 9998   3.501   1.711   0.490
 3037SOL    HW2 9999   3.495   1.666   0.634
 3038SOL     OW10000   2.453   0.718   0.263
 3038SOL    HW110001   2.462   0.802   0.217
 3038SOL    HW210002   2.391   0.736   0.333
 3039SOL     OW10003   3.151   0.363   0.934
 3039SOL    HW110004   3.061   0.332   0.924
 3039SOL    HW210005   3.191   0.301   0.995
 3040SOL     OW10006   3.444   1.670   0.312
 3040SOL    HW110007   3.534   1.700   0.305
 3040SOL    HW210008   3.417   1.652   0.222
 3041SOL     OW10009   2.657   0.620   1.454
 3041SOL    HW110010   2.629   0.594   1.542
 3041SOL    HW210011   2.618   0.554   1.396
 3042SOL     OW10012   3.250   0.480   1.676
 3042SOL    HW110013   3.254   0.524   1.761
 3042SOL    HW210014   3.317   0.411   1.682
 3043SOL     OW10015   2.817   0.888   1.583
 3043SOL    HW110016   2.871   0.817   1.548
 3043SOL    HW210017   2.769   0.921   1.507
 3044SOL     OW10018   2.858   0.417   1.236
 3044SOL    HW110019   2.771   0.427   1.273
 3044SOL    HW210020   2.845   0.367   1.155
 3045SOL     OW10021   2.911   0.701   0.427
 3045SOL    HW110022   2.929   0.692   0.521
 3045SOL    HW210023   2.829   0.654   0.414
 3046SOL     OW10024   1.951   0.821   0.776
 3046SOL    HW110025   2.032   0.815   0.827
 3046SOL    HW210026   1.907   0.898   0.810
 3047SOL     OW10027   1.979   1.805   1.574
 3047SOL    HW110028   1.973   1.800   1.670
 3047SOL    HW210029   1.912   1.867   1.549
 3048SOL     OW10030   2.736   0.361   0.197
 3048SOL    HW110031   2.793   0.415   0.142
 3048SOL    HW210032   2.773   0.273   0.189
 3049SOL     OW10033   3.566   0.573   1.828
 3049SOL    HW110034   3.530   0.648   1.780
 3049SOL    HW210035   3.602   0.516   1.760
 3050SOL     OW10036   3.240   1.142   0.541
 3050SOL    HW110037   3.318   1.129   0.487
 3050SOL    HW210038   3.187   1.204   0.491
 3051SOL     OW10039   2.401   0.204   0.901
 3051SOL    HW110040   2.421   0.222   0.992
 3051SOL    HW210041   2.393   0.291   0.860
 3052SOL     OW10042   2.868   1.444   0.474
 3052SOL    HW110043   2.830   1.517   0.424
 3052SOL    HW210044   2.848   1.465   0.565
 3053SOL     OW10045   2.215   1.795   0.837
 3053SOL    HW110046   2.262   1.714   0.858
 3053SOL    HW210047   2.278   1.865   0.855
 3054SOL     OW10048   3.660   1.058   0.869
 3054SOL    HW110049   3.606   1.040   0.792
 3054SOL    HW210050   3.598   1.063   0.942
 3055SOL     OW10051   3.090   1.539   1.513
 3055SOL    HW110052   3.076   1.466   1.574
 3055SOL    HW210053   3.026   1.523   1.443
 3056SOL     OW10054   2.178   0.958   0.276
 3056SOL    HW110055   2.256   0.983   0.227
 3056SOL    HW210056   2.150   0.875   0.237
 3057SOL     OW10057   3.342   0.741   0.723
 3057SOL    HW110058   3.331   0.699   0.808
 3057SOL    HW210059   3.418   0.798   0.735
 3058SOL     OW10060   2.328   1.264   1.738
 3058SOL    HW110061   2.301   1.269   1.647
 3058SOL    HW210062   2.246   1.262   1.788
 3059SOL     OW10063   2.968   1.780   0.226
 3059SOL    HW110064   2.908   1.728   0.280
 3059SOL    HW210065   3.010   1.716   0.169
 3060SOL     OW10066   2.050   0.268   1.512
 3060SOL    HW110067   1.984   0.335   1.497
 3060SOL    HW210068   2.065   0.270   1.607
 3061SOL     OW10069   3.490   1.374   0.089
 3061SOL    HW110070   3.447   1.459   0.077
 3061SOL    HW210071   3.424   1.311   0.060
 3062SOL     OW10072   2.336   1.732   0.339
 3062SOL    HW110073   2.376   1.801   0.392
 3062SOL    HW210074   2.406   1.707   0.278
 3063SOL     OW10075   3.282   0.138   0.425
 3063SOL    HW110076   3.261   0.102   0.338
 3063SOL    HW210077   3.378   0.134   0.429
 3064SOL     OW10078   2.106   1.757   1.225
 3064SOL    HW110079   2.168   1.696   1.265
 3064SOL    HW210080   2.114   1.740   1.131
 3065SOL     OW10081   2.802   1.698   0.899
 3065SOL    HW110082   2.879   1.645   0.919
 3065SOL    HW210083   2.758   1.649   0.830
 3066SOL     OW10084   2.255   0.693   0.473
 3066SOL    HW110085   2.277   0.601   0.488
 3066SOL    HW210086   2.161   0.699   0.495
 3067SOL     OW10087   3.387   0.233   1.723
 3067SOL    HW110088   3.386   0.255   1.816
 3067SOL    HW210089   3.309   0.179   1.711
 3068SOL     OW10090   2.464   0.093   0.124
 3068SOL    HW110091   2.559   0.079   0.130
 3068SOL    HW210092   2.447   0.101   0.030
 3069SOL     OW10093   2.630   0.271   1.754
 3069SOL    HW110094   2.696   0.202   1.763
 3069SOL    HW210095   2.587   0.274   1.840
 3070SOL     OW10096   2.740   1.523   1.193
 3070SOL    HW110097   2.723   1.486   1.107
 3070SOL    HW210098   2.808   1.467   1.230
 3071SOL     OW10099   3.203   0.589   1.429
 3071SOL    HW110100   3.231   0.560   1.516
 3071SOL    HW210101   3.237   0.678   1.421
 3072SOL     OW10102   2.678   1.395   0.940
 3072SOL    HW110103   2.762   1.383   0.896
 3072SOL    HW210104   2.613   1.396   0.869
 3073SOL     OW10105   2.787   0.518   0.899
 3073SOL    HW110106   2.770   0.518   0.805
 3073SOL    HW210107   2.824   0.431   0.917
 3074SOL     OW10108   2.418   0.076   0.524
 3074SOL    HW110109   2.329   0.050   0.550
 3074SOL    HW210110   2.404   0.139   0.454
 3075SOL     OW10111   3.287   1.196   0.030
 3075SOL    HW110112   3.318   1.124   0.085
 3075SOL    HW210113   3.204   1.223   0.069
 3076SOL     OW10114   2.147   0.054   0.200
 3076SOL    HW110115   2.217   0.102   0.154
 3076SOL    HW210116   2.193   0.005   0.268
 3077SOL     OW10117   2.814   0.225   0.442
 3077SOL    HW110118   2.765   0.293   0.395
 3077SOL    HW210119   2.902   0.260   0.451
 3078SOL     OW10120   2.942   0.681   1.460
 3078SOL    HW110121   2.871   0.617   1.461
 3078SOL    HW210122   3.021   0.629   1.449
 3079SOL     OW10123   3.085   1.570   0.794
 3079SOL    HW110124   3.102   1.636   0.727
 3079SOL    HW210125   3.154   1.584   0.859
 3080SOL     OW10126   2.333   1.150   0.736
 3080SOL    HW110127   2.264   1.130   0.799
 3080SOL    HW210128   2.292   1.136   0.651
 3081SOL     OW10129   3.131   1.794   0.607
 3081SOL    HW110130   3.177   1.856   0.550
 3081SOL    HW210131   3.065   1.848   0.651
 3082SOL     OW10132   2.883   0.531   0.037
 3082SOL    HW110133   2.845   0.616   0.014
 3082SOL    HW210134   2.956   0.551   0.095
 3083SOL     OW10135   1.945   0.550   1.395
 3083SOL    HW110136   2.035   0.554   1.365
 3083SOL    HW210137   1.937   0.622   1.458
 3084SOL     OW10138   2.425   0.244   1.167
 3084SOL    HW110139   2.450   0.161   1.207
 3084SOL    HW210140   2.333   0.255   1.191
 3085SOL     OW10141   2.723   0.511   0.629
 3085SOL    HW110142   2.683   0.544   0.549
 3085SOL    HW210143   2.692   0.421   0.636
 3086SOL     OW10144   2.821   0.031   0.784
 3086SOL    HW110145   2.773   0.025   0.701
 3086SOL    HW210146   2.843   4.440   0.805
 3087SOL     OW10147   3.299   1.163   0.857
 3087SOL    HW110148   3.230   1.096   0.856
 3087SOL    HW210149   3.323   1.173   0.765
 3088SOL     OW10150   3.328   0.605   0.974
 3088SOL    HW110151   3.274   0.526   0.976
 3088SOL    HW210152   3.385   0.597   1.050
 3089SOL     OW10153   3.712   0.813   0.378
 3089SOL    HW110154   3.764   0.763   0.440
 3089SOL    HW210155   3.683   0.749   0.313
 3090SOL     OW10156   2.356   1.423   0.173
 3090SOL    HW110157   2.278   1.397   0.223
 3090SOL    HW210158   2.351   1.372   0.092
 3091SOL     OW10159   3.533   1.264   0.647
 3091SOL    HW110160   3.627   1.267   0.660
 3091SOL    HW210161   3.503   1.353   0.667
 3092SOL     OW10162   3.253   0.573   0.077
 3092SOL    HW110163   3.190   0.556   0.148
 3092SOL    HW210164   3.320   0.506   0.088
 3093SOL     OW10165   2.385   0.262   0.325
 3093SOL    HW110166   2.418   0.203   0.257
 3093SOL    HW210167   2.368   0.344   0.279
 3094SOL     OW10168   3.614   1.239   1.573
 3094SOL    HW110169   3.701   1.200   1.569
 3094SOL    HW210170   3.629   1.329   1.602
 3095SOL     OW10171   2.920   1.355   1.335
 3095SOL    HW110172   2.845   1.323   1.385
 3095SOL    HW210173   2.996   1.312   1.375
 3096SOL     OW10174   3.470   1.626   1.654
 3096SOL    HW110175   3.464   1.660   1.565
 3096SOL    HW210176   3.553   1.578   1.656
 3097SOL     OW10177   2.992   1.205   1.106
 3097SOL    HW110178   2.931   1.241   1.170
 3097SOL    HW210179   2.959   1.235   1.021
 3098SOL     OW10180   3.489   1.098   1.078
 3098SOL    HW110181   3.485   1.160   1.150
 3098SOL    HW210182   3.411   1.115   1.026
 3099SOL     OW10183   2.764   0.133   1.388
 3099SOL    HW110184   2.786   0.089   1.306
 3099SOL    HW210185   2.848   0.149   1.430
 3100SOL     OW10186   2.846   1.115   1.723
 3100SOL    HW110187   2.754   1.131   1.744
 3100SOL    HW210188   2.845   1.037   1.667
 3101SOL     OW10189   2.572   1.060   0.373
 3101SOL    HW110190   2.558   1.043   0.466
 3101SOL    HW210191   2.648   1.005   0.351
 3102SOL     OW10192   2.281   0.816   1.251
 3102SOL    HW110193   2.350   0.825   1.317
 3102SOL    HW210194   2.246   0.728   1.265
 3103SOL     OW10195   3.130   0.375   1.274
 3103SOL    HW110196   3.162   0.454   1.318
 3103SOL    HW210197   3.041   0.397   1.247
 3104SOL     OW10198   1.926   1.568   1.349
 3104SOL    HW110199   1.893   1.643   1.301
 3104SOL    HW210200   2.021   1.581   1.353
 3105SOL     OW10201   2.209   1.118   0.497
 3105SOL    HW110202   2.211   1.191   0.435
 3105SOL    HW210203   2.204   1.040   0.441
 3106SOL     OW10204   2.418   0.529   0.858
 3106SOL    HW110205   2.431   0.588   0.784
 3106SOL    HW210206   2.482   0.557   0.923
 3107SOL     OW10207   3.109   1.346   0.395
 3107SOL    HW110208   3.165   1.419   0.422
 3107SOL    HW210209   3.022   1.369   0.427
 3108SOL     OW10210   3.143   1.458   1.146
 3108SOL    HW110211   3.198   1.459   1.225
 3108SOL    HW210212   3.088   1.380   1.158
 3109SOL     OW10213   3.447   0.628   0.476
 3109SOL    HW110214   3.396   0.668   0.546
 3109SOL    HW210215   3.481   0.702   0.425
 3110SOL     OW10216   2.216   1.517   1.319
 3110SOL    HW110217   2.199   1.477   1.234
 3110SOL    HW210218   2.310   1.531   1.321
 3111SOL     OW10219   2.277   0.743   1.603
 3111SOL    HW110220   2.336   0.790   1.544
 3111SOL    HW210221   2.322   0.660   1.620
 3112SOL     OW10222   3.464   0.778   1.681
 3112SOL    HW110223   3.378   0.820   1.675
 3112SOL    HW210224   3.516   0.820   1.613
 3113SOL     OW10225   2.866   0.085   1.719
 3113SOL    HW110226   2.897   0.167   1.681
 3113SOL    HW210227   2.891   0.018   1.655
 3114SOL     OW10228   2.361   0.045   1.760
 3114SOL    HW110229   2.360   0.006   1.673
 3114SOL    HW210230   2.294   0.113   1.756
 3115SOL     OW10231   2.445   0.873   1.031
 3115SOL    HW110232   2.475   0.964   1.030
 3115SOL    HW210233   2.389   0.867   1.108
 3116SOL     OW10234   3.219   0.858   1.029
 3116SOL    HW110235   3.136   0.849   0.984
 3116SOL    HW210236   3.260   0.772   1.023
 3117SOL     OW10237   3.060   0.532   0.265
 3117SOL    HW110238   3.071   0.454   0.319
 3117SOL    HW210239   3.019   0.596   0.322
 3118SOL     OW10240   2.152   0.233   1.241
 3118SOL    HW110241   2.108   0.249   1.324
 3118SOL    HW210242   2.188   0.145   1.250
 3119SOL     OW10243   1.907   1.308   1.276
 3119SOL    HW110244   1.941   1.256   1.348
 3119SOL    HW210245   1.914   1.399   1.306
 3120SOL     OW10246   2.585   0.631   1.056
 3120SOL    HW110247   2.659   0.613   0.999
 3120SOL    HW210248   2.558   0.720   1.034
 3121SOL     OW10249   3.596   0.959   1.852
 3121SOL    HW110250   3.550   0.898   1.795
 3121SOL    HW210251   3.537   0.973   1.926
 3122SOL     OW10252   2.162   0.056   0.653
 3122SOL    HW110253   2.149   0.151   0.656
 3122SOL    HW210254   2.172   0.031   0.745
 3123SOL     OW10255   3.481   0.379   0.362
 3123SOL    HW110256   3.507   0.313   0.427
 3123SOL    HW210257   3.455   0.455   0.414
 3124SOL     OW10258   2.891   0.762   0.961
 3124SOL    HW110259   2.887   0.777   1.055
 3124SOL    HW210260   2.862   0.671   0.951
 3125SOL     OW10261   2.845   1.567   1.717
 3125SOL    HW110262   2.829   1.610   1.633
 3125SOL    HW210263   2.887   1.484   1.693
 3126SOL     OW10264   3.717   1.506   1.606
 3126SOL    HW110265   3.734   1.532   1.515
 3126SOL    HW210266   3.798   1.524   1.652
 3127SOL     OW10267   2.216   0.916   1.808
 3127SOL    HW110268   2.298   0.935   1.854
 3127SOL    HW210269   2.240   0.853   1.741
 3128SOL     OW10270   3.395   0.297   0.110
 3128SOL    HW110271   3.337   0.223   0.124
 3128SOL    HW210272   3.429   0.319   0.197
 3129SOL     OW10273   3.149   0.821   0.032
 3129SOL    HW110274   3.193   0.737   0.042
 3129SOL    HW210275   3.183   0.857  11.050
 3130SOL     OW10276   2.927   1.335   0.853
 3130SOL    HW110277   2.931   1.263   0.791
 3130SOL    HW210278   2.989   1.400   0.818
 3131SOL     OW10279   2.171   0.810   0.947
 3131SOL    HW110280   2.264   0.832   0.941
 3131SOL    HW210281   2.170   0.720   0.981
 3132SOL     OW10282   2.198   0.532   1.014
 3132SOL    HW110283   2.156   0.449   0.994
 3132SOL    HW210284   2.274   0.534   0.955
 3133SOL     OW10285   2.998   0.373   1.697
 3133SOL    HW110286   2.947   0.437   1.747
 3133SOL    HW210287   3.083   0.415   1.683
 3134SOL     OW10288   3.019   0.213   1.473
 3134SOL    HW110289   3.013   0.277   1.544
 3134SOL    HW210290   3.059   0.261   1.401
 3135SOL     OW10291   1.870   1.328   0.195
 3135SOL    HW110292   1.783   1.339   0.157
 3135SOL    HW210293   1.870   1.237   0.226
 3136SOL     OW10294   1.953   1.786   0.929
 3136SOL    HW110295   1.924   1.703   0.889
 3136SOL    HW210296   2.040   1.801   0.891
 3137SOL     OW10297   2.359   1.570   0.906
 3137SOL    HW110298   2.427   1.632   0.930
 3137SOL    HW210299   2.403   1.507   0.849
 3138SOL     OW10300   2.845   0.793   1.227
 3138SOL    HW110301   2.901   0.770   1.302
 3138SOL    HW210302   2.760   0.753   1.247
 3139SOL     OW10303   1.895   0.543   1.119
 3139SOL    HW110304   1.973   0.525   1.066
 3139SOL    HW210305   1.928   0.548   1.208
 3140SOL     OW10306   2.047   0.520   1.721
 3140SOL    HW110307   2.122   0.500   1.666
 3140SOL    HW210308   2.006   0.596   1.680
 3141SOL     OW10309   3.240   0.938   1.658
 3141SOL    HW110310   3.260   1.032   1.656
 3141SOL    HW210311   3.236   0.913   1.566
 3142SOL     OW10312   2.673   0.576   0.359
 3142SOL    HW110313   2.680   0.501   0.300
 3142SOL    HW210314   2.599   0.626   0.325
 3143SOL     OW10315   3.502   0.602   1.186
 3143SOL    HW110316   3.492   0.542   1.260
 3143SOL    HW210317   3.589   0.583   1.152
 3144SOL     OW10318   2.112   1.548   1.730
 3144SOL    HW110319   2.080   1.610   1.796
 3144SOL    HW210320   2.110   1.463   1.774
 3145SOL     OW10321   2.562   0.459   1.263
 3145SOL    HW110322   2.515   0.382   1.232
 3145SOL    HW210323   2.562   0.519   1.189
 3146SOL     OW10324   2.789   1.679   1.468
 3146SOL    HW110325   2.764   1.643   1.382
 3146SOL    HW210326   2.786   1.774   1.456
 3147SOL     OW10327   2.324   0.485   0.179
 3147SOL    HW110328   2.384   0.557   0.200
 3147SOL    HW210329   2.239   0.527   0.169
 3148SOL     OW10330   2.007   1.140   1.473
 3148SOL    HW110331   2.009   1.089   1.554
 3148SOL    HW210332   2.024   1.077   1.404
 3149SOL     OW10333   3.188   1.047   1.223
 3149SOL    HW110334   3.211   0.983   1.155
 3149SOL    HW210335   3.118   1.099   1.184
 3150SOL     OW10336   3.171   0.852   0.310
 3150SOL    HW110337   3.095   0.822   0.359
 3150SOL    HW210338   3.147   0.839   0.218
 3151SOL     OW10339   3.635   1.743   1.151
 3151SOL    HW110340   3.695   1.770   1.081
 3151SOL    HW210341   3.610   1.654   1.129
 3152SOL     OW10342   3.103   1.733   1.114
 3152SOL    HW110343   3.185   1.754   1.068
 3152SOL    HW210344   3.109   1.639   1.131
 3153SOL     OW10345   1.947   1.265   1.013
 3153SOL    HW110346   1.932   1.279   1.106
 3153SOL    HW210347   1.873   1.213   0.984
 3154SOL     OW10348   2.540   1.665   1.729
 3154SOL    HW110349   2.486   1.744   1.727
 3154SOL    HW210350   2.605   1.678   1.659
 3155SOL     OW10351   2.741   0.065   0.128
 3155SOL    HW110352   2.826   0.094   0.095
 3155SOL    HW210353   2.762   0.011   0.204
 3156SOL     OW10354   3.581   0.134   0.495
 3156SOL    HW110355   3.653   0.140   0.432
 3156SOL    HW210356   3.603   0.057   0.549
 3157SOL     OW10357   3.252   1.568   0.486
 3157SOL    HW110358   3.313   1.600   0.419
 3157SOL    HW210359   3.205   1.646   0.514
 3158SOL     OW10360   1.988   1.786   1.850
 3158SOL    HW110361   1.937   1.717   1.891
 3158SOL    HW210362   2.046   1.818   1.919
 3159SOL     OW10363   3.141   0.928   0.673
 3159SOL    HW110364   3.213   0.865   0.677
 3159SOL    HW210365   3.174   1.000   0.620
 3160SOL     OW10366   2.676   1.274   1.429
 3160SOL    HW110367   2.648   1.313   1.512
 3160SOL    HW210368   2.606   1.295   1.368
 3161SOL     OW10369   2.534   1.622   0.169
 3161SOL    HW110370   2.546   1.633   0.075
 3161SOL    HW210371   2.478   1.545   0.177
 3162SOL     OW10372   3.488   1.727   1.391
 3162SOL    HW110373   3.538   1.733   1.310
 3162SOL    HW210374   3.475   1.817   1.419
 3163SOL     OW10375   3.701   0.154   0.966
 3163SOL    HW110376   3.731   0.076   0.919
 3163SOL    HW210377   3.614   0.172   0.929
 3164SOL     OW10378   2.125   0.323   0.717
 3164SOL    HW110379   2.040   0.356   0.690
 3164SOL    HW210380   2.119   0.314   0.812
 3165SOL     OW10381   3.085   1.602   0.053
 3165SOL    HW110382   3.072   1.509   0.073
 3165SOL    HW210383   3.019   1.621  11.086
 3166SOL     OW10384   2.686   1.006   1.373
 3166SOL    HW110385   2.729   1.001   1.287
 3166SOL    HW210386   2.685   1.099   1.394
 3167SOL     OW10387   2.776   0.906   0.282
 3167SOL    HW110388   2.842   0.946   0.225
 3167SOL    HW210389   2.824   0.842   0.334
 3168SOL     OW10390   3.360   1.622   0.047
 3168SOL    HW110391   3.265   1.617   0.045
 3168SOL    HW210392   3.386   1.636  11.056
 3169SOL     OW10393   2.232   1.299   1.493
 3169SOL    HW110394   2.220   1.377   1.438
 3169SOL    HW210395   2.154   1.247   1.477
 3170SOL     OW10396   3.473   1.283   1.281
 3170SOL    HW110397   3.531   1.271   1.355
 3170SOL    HW210398   3.412   1.352   1.308
 3171SOL     OW10399   2.914   1.107   0.706
 3171SOL    HW110400   2.843   1.056   0.746
 3171SOL    HW210401   2.978   1.042   0.677
 3172SOL     OW10402   2.874   0.242   0.998
 3172SOL    HW110403   2.873   0.211   0.907
 3172SOL    HW210404   2.863   0.162   1.050
 3173SOL     OW10405   2.465   1.491   0.482
 3173SOL    HW110406   2.507   1.438   0.414
 3173SOL    HW210407   2.398   1.541   0.435
 3174SOL     OW10408   3.584   0.394   1.377
 3174SOL    HW110409   3.657   0.456   1.376
 3174SOL    HW210410   3.613   0.322   1.320
 3175SOL     OW10411   2.128   1.336   0.293
 3175SOL    HW110412   2.041   1.338   0.253
 3175SOL    HW210413   2.117   1.377   0.379
 3176SOL     OW10414   1.975   1.021   1.720
 3176SOL    HW110415   1.899   0.998   1.773
 3176SOL    HW210416   2.049   0.984   1.767
 3177SOL     OW10417   2.520   0.204   1.499
 3177SOL    HW110418   2.599   0.180   1.452
 3177SOL    HW210419   2.550   0.226   1.587
 3178SOL     OW10420   1.939   0.341   0.053
 3178SOL    HW110421   1.864   0.311   0.001
 3178SOL    HW210422   1.956   0.429   0.022
 3179SOL     OW10423   3.292   0.858   1.400
 3179SOL    HW110424   3.243   0.919   1.344
 3179SOL    HW210425   3.381   0.861   1.365
 3180SOL     OW10426   1.928   0.182   0.324
 3180SOL    HW110427   1.922   0.248   0.254
 3180SOL    HW210428   1.999   0.125   0.296
 3181SOL     OW10429   3.045   1.339   0.122
 3181SOL    HW110430   2.951   1.323   0.114
 3181SOL    HW210431   3.063   1.331   0.215
 3182SOL     OW10432   2.481   0.830   1.434
 3182SOL    HW110433   2.537   0.907   1.419
 3182SOL    HW210434   2.543   0.757   1.442
 3183SOL     OW10435   3.345   1.777   0.979
 3183SOL    HW110436   3.369   1.836   0.907
 3183SOL    HW210437   3.428   1.757   1.022
 3184SOL     OW10438   2.578   0.563   1.705
 3184SOL    HW110439   2.618   0.627   1.765
 3184SOL    HW210440   2.609   0.478   1.738
 3185SOL     OW10441   3.333   1.200   1.632
 3185SOL    HW110442   3.321   1.214   1.726
 3185SOL    HW210443   3.427   1.215   1.618
 3186SOL     OW10444   2.243   1.741   1.567
 3186SOL    HW110445   2.157   1.775   1.545
 3186SOL    HW210446   2.226   1.655   1.607
 3187SOL     OW10447   3.531   0.881   1.255
 3187SOL    HW110448   3.524   0.796   1.212
 3187SOL    HW210449   3.521   0.945   1.185
 3188SOL     OW10450   3.080   0.328   0.447
 3188SOL    HW110451   3.146   0.260   0.436
 3188SOL    HW210452   3.105   0.374   0.527
 3189SOL     OW10453   2.447   0.738   0.671
 3189SOL    HW110454   2.490   0.822   0.656
 3189SOL    HW210455   2.381   0.731   0.602
 3190SOL     OW10456   3.624   0.366   1.644
 3190SOL    HW110457   3.608   0.380   1.550
 3190SOL    HW210458   3.547   0.320   1.675
 3191SOL     OW10459   3.608   0.933   1.512
 3191SOL    HW110460   3.603   1.028   1.525
 3191SOL    HW210461   3.592   0.921   1.418
 3192SOL     OW10462   2.767   1.358   0.071
 3192SOL    HW110463   2.696   1.355   0.134
 3192SOL    HW210464   2.752   1.438   0.021
 3193SOL     OW10465   2.530   1.776   0.942
 3193SOL    HW110466   2.512   1.867   0.918
 3193SOL    HW210467   2.626   1.769   0.940
 3194SOL     OW10468   2.729   0.967   0.855
 3194SOL    HW110469   2.779   0.895   0.893
 3194SOL    HW210470   2.694   1.015   0.930
 3195SOL     OW10471   2.941   0.990   0.085
 3195SOL    HW110472   2.915   1.022  11.099
 3195SOL    HW210473   3.017   0.934   0.068
 3196SOL     OW10474   3.716   1.556   0.845
 3196SOL    HW110475   3.639   1.543   0.790
 3196SOL    HW210476   3.709   1.487   0.911
 3197SOL     OW10477   2.087   1.301   1.856
 3197SOL    HW110478   2.019   1.241   1.825
 3197SOL    HW210479   2.068   1.313   1.949
 3198SOL     OW10480   1.948   1.233   0.664
 3198SOL    HW110481   1.951   1.186   0.748
 3198SOL    HW210482   2.017   1.192   0.612
 3199SOL     OW10483   2.543   1.403   1.628
 3199SOL    HW110484   2.463   1.359   1.658
 3199SOL    HW210485   2.538   1.491   1.665
 3200SOL     OW10486   3.669   0.181   1.239
 3200SOL    HW110487   3.668   0.087   1.258
 3200SOL    HW210488   3.686   0.185   1.144
 3201SOL     OW10489   2.298   0.432   0.529
 3201SOL    HW110490   2.320   0.362   0.468
 3201SOL    HW210491   2.242   0.390   0.595
 3202SOL     OW10492   3.561   1.490   1.097
 3202SOL    HW110493   3.481   1.466   1.050
 3202SOL    HW210494   3.572   1.420   1.161
 3203SOL     OW10495   2.192   0.557   1.292
 3203SOL    HW110496   2.247   0.501   1.346
 3203SOL    HW210497   2.211   0.531   1.202
 3204SOL     OW10498   2.689   1.578   0.678
 3204SOL    HW110499   2.675   1.627   0.597
 3204SOL    HW210500   2.613   1.520   0.684
 3205SOL     OW10501   3.294   0.217   1.117
 3205SOL    HW110502   3.329   0.145   1.170
 3205SOL    HW210503   3.243   0.269   1.179
 3206SOL     OW10504   2.858   0.009   1.150
 3206SOL    HW110505   2.815   4.424   1.143
 3206SOL    HW210506   2.951   4.488   1.162
 3207SOL     OW10507   2.629   1.328   0.318
 3207SOL    HW110508   2.601   1.237   0.331
 3207SOL    HW210509   2.715   1.332   0.362
 3208SOL     OW10510   2.484   1.556   1.284
 3208SOL    HW110511   2.484   1.638   1.333
 3208SOL    HW210512   2.571   1.550   1.246
 3209SOL     OW10513   3.212   0.058   0.170
 3209SOL    HW110514   3.248   4.499   0.103
 3209SOL    HW210515   3.132   0.015   0.200
 3210SOL     OW10516   3.178   0.463   0.677
 3210SOL    HW110517   3.117   0.537   0.677
 3210SOL    HW210518   3.164   0.421   0.762
 3211SOL     OW10519   3.448   0.199   0.868
 3211SOL    HW110520   3.388   0.215   0.941
 3211SOL    HW210521   3.450   0.283   0.821
 3212SOL     OW10522   1.904   1.070   0.301
 3212SOL    HW110523   2.000   1.065   0.297
 3212SOL    HW210524   1.876   0.982   0.327
 3213SOL     OW10525   2.746   1.654   0.348
 3213SOL    HW110526   2.675   1.634   0.287
 3213SOL    HW210527   2.714   1.729   0.398
 3214SOL     OW10528   2.091   0.626   1.983
 3214SOL    HW110529   2.003   0.619   2.022
 3214SOL    HW210530   2.079   0.596   1.893
 3215SOL     OW10531   2.070   0.299   2.851
 3215SOL    HW110532   2.100   0.270   2.937
 3215SOL    HW210533   1.988   0.251   2.838
 3216SOL     OW10534   1.869   0.387   2.500
 3216SOL    HW110535   1.783   0.406   2.537
 3216SOL    HW210536   1.855   0.313   2.440
 3217SOL     OW10537   2.430   1.288   3.037
 3217SOL    HW110538   2.341   1.290   3.000
 3217SOL    HW210539   2.444   1.376   3.071
 3218SOL     OW10540   3.424   1.512   2.569
 3218SOL    HW110541   3.381   1.491   2.652
 3218SOL    HW210542   3.352   1.516   2.506
 3219SOL     OW10543   2.997   0.698   2.560
 3219SOL    HW110544   3.043   0.782   2.550
 3219SOL    HW210545   2.946   0.708   2.641
 3220SOL     OW10546   3.630   0.607   2.089
 3220SOL    HW110547   3.609   0.597   1.997
 3220SOL    HW210548   3.596   0.527   2.130
 3221SOL     OW10549   2.618   1.143   2.903
 3221SOL    HW110550   2.549   1.177   2.960
 3221SOL    HW210551   2.653   1.220   2.859
 3222SOL     OW10552   2.728   0.774   3.684
 3222SOL    HW110553   2.715   0.844   3.748
 3222SOL    HW210554   2.752   0.819   3.603
 3223SOL     OW10555   2.548   1.003   2.508
 3223SOL    HW110556   2.613   0.991   2.578
 3223SOL    HW210557   2.479   1.054   2.549
 3224SOL     OW10558   2.573   1.151   3.673
 3224SOL    HW110559   2.620   1.229   3.701
 3224SOL    HW210560   2.490   1.184   3.639
 3225SOL     OW10561   2.193   1.423   2.930
 3225SOL    HW110562   2.118   1.387   2.883
 3225SOL    HW210563   2.241   1.474   2.865
 3226SOL     OW10564   3.323   1.499   3.217
 3226SOL    HW110565   3.373   1.580   3.227
 3226SOL    HW210566   3.259   1.501   3.288
 3227SOL     OW10567   2.304   0.395   3.350
 3227SOL    HW110568   2.386   0.346   3.352
 3227SOL    HW210569   2.237   0.329   3.364
 3228SOL     OW10570   3.472   0.445   2.601
 3228SOL    HW110571   3.392   0.466   2.553
 3228SOL    HW210572   3.490   0.523   2.653
 3229SOL     OW10573   2.083   1.724   2.339
 3229SOL    HW110574   2.122   1.762   2.417
 3229SOL    HW210575   2.156   1.712   2.279
 3230SOL     OW10576   2.999   1.341   3.555
 3230SOL    HW110577   3.038   1.338   3.642
 3230SOL    HW210578   2.946   1.262   3.549
 3231SOL     OW10579   2.089   1.443   2.397
 3231SOL    HW110580   2.064   1.536   2.407
 3231SOL    HW210581   2.032   1.397   2.459
 3232SOL     OW10582   2.121   1.090   2.753
 3232SOL    HW110583   2.116   1.004   2.794
 3232SOL    HW210584   2.062   1.144   2.806
 3233SOL     OW10585   2.474   1.781   3.294
 3233SOL    HW110586   2.390   1.769   3.338
 3233SOL    HW210587   2.498   1.872   3.311
 3234SOL     OW10588   2.448   0.982   1.996
 3234SOL    HW110589   2.493   1.031   1.928
 3234SOL    HW210590   2.487   1.012   2.078
 3235SOL     OW10591   3.444   0.116   3.333
 3235SOL    HW110592   3.467   0.184   3.270
 3235SOL    HW210593   3.433   0.162   3.416
 3236SOL     OW10594   1.978   0.653   2.422
 3236SOL    HW110595   1.948   0.565   2.444
 3236SOL    HW210596   1.970   0.702   2.504
 3237SOL     OW10597   3.704   1.759   2.196
 3237SOL    HW110598   3.768   1.730   2.262
 3237SOL    HW210599   3.728   1.850   2.178
 3238SOL     OW10600   1.893   1.584   1.985
 3238SOL    HW110601   1.877   1.491   2.002
 3238SOL    HW210602   1.868   1.628   2.066
 3239SOL     OW10603   3.553   0.921   2.504
 3239SOL    HW110604   3.636   0.877   2.483
 3239SOL    HW210605   3.530   0.969   2.425
 3240SOL     OW10606   3.508   1.107   2.291
 3240SOL    HW110607   3.594   1.112   2.249
 3240SOL    HW210608   3.513   1.168   2.364
 3241SOL     OW10609   1.984   0.745   3.446
 3241SOL    HW110610   2.076   0.772   3.454
 3241SOL    HW210611   1.935   0.827   3.455
 3242SOL     OW10612   2.476   1.385   2.596
 3242SOL    HW110613   2.431   1.302   2.606
 3242SOL    HW210614   2.459   1.412   2.506
 3243SOL     OW10615   3.151   1.239   3.284
 3243SOL    HW110616   3.183   1.171   3.225
 3243SOL    HW210617   3.208   1.232   3.361
 3244SOL     OW10618   2.679   0.015   2.413
 3244SOL    HW110619   2.715   0.100   2.388
 3244SOL    HW210620   2.584   0.026   2.406
 3245SOL     OW10621   2.052   0.965   3.135
 3245SOL    HW110622   2.137   0.924   3.119
 3245SOL    HW210623   1.990   0.913   3.085
 3246SOL     OW10624   3.394   0.993   2.060
 3246SOL    HW110625   3.323   0.937   2.092
 3246SOL    HW210626   3.434   1.028   2.140
 3247SOL     OW10627   3.050   1.807   3.484
 3247SOL    HW110628   3.060   1.864   3.407
 3247SOL    HW210629   3.064   1.719   3.450
 3248SOL     OW10630   2.177   0.254   3.642
 3248SOL    HW110631   2.241   0.318   3.675
 3248SOL    HW210632   2.104   0.260   3.703
 3249SOL     OW10633   3.328   1.420   2.813
 3249SOL    HW110634   3.260   1.435   2.879
 3249SOL    HW210635   3.316   1.329   2.786
 3250SOL     OW10636   3.520   1.740   2.440
 3250SOL    HW110637   3.500   1.710   2.351
 3250SOL    HW210638   3.496   1.666   2.496
 3251SOL     OW10639   2.455   0.723   2.127
 3251SOL    HW110640   2.460   0.805   2.078
 3251SOL    HW210641   2.389   0.740   2.195
 3252SOL     OW10642   3.154   0.364   2.795
 3252SOL    HW110643   3.064   0.334   2.779
 3252SOL    HW210644   3.189   0.301   2.857
 3253SOL     OW10645   3.442   1.671   2.171
 3253SOL    HW110646   3.533   1.702   2.164
 3253SOL    HW210647   3.415   1.654   2.081
 3254SOL     OW10648   2.657   0.620   3.316
 3254SOL    HW110649   2.629   0.594   3.404
 3254SOL    HW210650   2.618   0.554   3.258
 3255SOL     OW10651   3.250   0.480   3.538
 3255SOL    HW110652   3.254   0.524   3.623
 3255SOL    HW210653   3.317   0.411   3.544
 3256SOL     OW10654   2.817   0.888   3.445
 3256SOL    HW110655   2.871   0.817   3.410
 3256SOL    HW210656   2.769   0.921   3.369
 3257SOL     OW10657   2.858   0.417   3.098
 3257SOL    HW110658   2.770   0.426   3.133
 3257SOL    HW210659   2.847   0.365   3.018
 3258SOL     OW10660   2.912   0.697   2.289
 3258SOL    HW110661   2.928   0.690   2.383
 3258SOL    HW210662   2.829   0.652   2.275
 3259SOL     OW10663   1.951   0.821   2.638
 3259SOL    HW110664   2.032   0.814   2.689
 3259SOL    HW210665   1.907   0.899   2.673
 3260SOL     OW10666   1.966   1.797   3.426
 3260SOL    HW110667   1.972   1.791   3.522
 3260SOL    HW210668   1.878   1.830   3.410
 3261SOL     OW10669   2.717   0.369   2.046
 3261SOL    HW110670   2.789   0.403   1.992
 3261SOL    HW210671   2.731   0.275   2.048
 3262SOL     OW10672   3.567   0.573   3.690
 3262SOL    HW110673   3.530   0.648   3.642
 3262SOL    HW210674   3.602   0.516   3.622
 3263SOL     OW10675   3.240   1.143   2.403
 3263SOL    HW110676   3.318   1.130   2.350
 3263SOL    HW210677   3.186   1.204   2.353
 3264SOL     OW10678   2.400   0.204   2.763
 3264SOL    HW110679   2.421   0.222   2.855
 3264SOL    HW210680   2.392   0.291   2.723
 3265SOL     OW10681   2.868   1.444   2.334
 3265SOL    HW110682   2.830   1.517   2.285
 3265SOL    HW210683   2.850   1.465   2.426
 3266SOL     OW10684   2.213   1.791   2.694
 3266SOL    HW110685   2.250   1.704   2.711
 3266SOL    HW210686   2.282   1.852   2.720
 3267SOL     OW10687   3.660   1.060   2.730
 3267SOL    HW110688   3.607   1.038   2.654
 3267SOL    HW210689   3.598   1.064   2.803
 3268SOL     OW10690   3.091   1.538   3.374
 3268SOL    HW110691   3.077   1.467   3.436
 3268SOL    HW210692   3.025   1.525   3.306
 3269SOL     OW10693   2.182   0.957   2.112
 3269SOL    HW110694   2.263   0.976   2.066
 3269SOL    HW210695   2.151   0.875   2.073
 3270SOL     OW10696   3.342   0.743   2.586
 3270SOL    HW110697   3.330   0.699   2.670
 3270SOL    HW210698   3.419   0.798   2.599
 3271SOL     OW10699   2.329   1.264   3.600
 3271SOL    HW110700   2.301   1.269   3.508
 3271SOL    HW210701   2.247   1.262   3.649
 3272SOL     OW10702   2.984   1.777   2.094
 3272SOL    HW110703   2.910   1.735   2.138
 3272SOL    HW210704   3.007   1.716   2.023
 3273SOL     OW10705   2.049   0.268   3.374
 3273SOL    HW110706   1.984   0.336   3.359
 3273SOL    HW210707   2.065   0.270   3.469
 3274SOL     OW10708   3.491   1.380   1.949
 3274SOL    HW110709   3.449   1.465   1.935
 3274SOL    HW210710   3.422   1.316   1.931
 3275SOL     OW10711   2.328   1.721   2.202
 3275SOL    HW110712   2.368   1.794   2.249
 3275SOL    HW210713   2.387   1.706   2.128
 3276SOL     OW10714   3.284   0.140   2.279
 3276SOL    HW110715   3.267   0.087   2.201
 3276SOL    HW210716   3.378   0.131   2.295
 3277SOL     OW10717   2.097   1.771   3.103
 3277SOL    HW110718   2.166   1.713   3.135
 3277SOL    HW210719   2.108   1.771   3.008
 3278SOL     OW10720   2.796   1.697   2.762
 3278SOL    HW110721   2.874   1.647   2.784
 3278SOL    HW210722   2.756   1.648   2.690
 3279SOL     OW10723   2.255   0.694   2.337
 3279SOL    HW110724   2.277   0.602   2.350
 3279SOL    HW210725   2.161   0.699   2.355
 3280SOL     OW10726   3.387   0.233   3.585
 3280SOL    HW110727   3.387   0.255   3.678
 3280SOL    HW210728   3.308   0.179   3.573
 3281SOL     OW10729   2.491   0.122   1.985
 3281SOL    HW110730   2.579   0.085   1.993
 3281SOL    HW210731   2.457   0.085   1.903
 3282SOL     OW10732   2.630   0.270   3.616
 3282SOL    HW110733   2.696   0.202   3.625
 3282SOL    HW210734   2.588   0.275   3.702
 3283SOL     OW10735   2.740   1.523   3.054
 3283SOL    HW110736   2.723   1.484   2.968
 3283SOL    HW210737   2.808   1.468   3.093
 3284SOL     OW10738   3.203   0.589   3.291
 3284SOL    HW110739   3.231   0.560   3.378
 3284SOL    HW210740   3.237   0.678   3.283
 3285SOL     OW10741   2.677   1.396   2.801
 3285SOL    HW110742   2.761   1.383   2.758
 3285SOL    HW210743   2.613   1.395   2.730
 3286SOL     OW10744   2.786   0.519   2.761
 3286SOL    HW110745   2.769   0.517   2.667
 3286SOL    HW210746   2.822   0.433   2.781
 3287SOL     OW10747   2.417   0.077   2.384
 3287SOL    HW110748   2.329   0.047   2.407
 3287SOL    HW210749   2.403   0.141   2.314
 3288SOL     OW10750   3.290   1.199   1.903
 3288SOL    HW110751   3.320   1.122   1.953
 3288SOL    HW210752   3.204   1.219   1.940
 3289SOL     OW10753   2.157   0.068   2.061
 3289SOL    HW110754   2.235   0.121   2.044
 3289SOL    HW210755   2.187   0.000   2.122
 3290SOL     OW10756   2.815   0.240   2.329
 3290SOL    HW110757   2.763   0.297   2.273
 3290SOL    HW210758   2.904   0.275   2.324
 3291SOL     OW10759   2.942   0.681   3.322
 3291SOL    HW110760   2.871   0.617   3.322
 3291SOL    HW210761   3.021   0.629   3.311
 3292SOL     OW10762   3.085   1.570   2.656
 3292SOL    HW110763   3.103   1.637   2.589
 3292SOL    HW210764   3.153   1.583   2.721
 3293SOL     OW10765   2.331   1.150   2.595
 3293SOL    HW110766   2.262   1.131   2.659
 3293SOL    HW210767   2.291   1.134   2.510
 3294SOL     OW10768   3.132   1.794   2.470
 3294SOL    HW110769   3.178   1.855   2.412
 3294SOL    HW210770   3.066   1.848   2.514
 3295SOL     OW10771   2.891   0.547   1.879
 3295SOL    HW110772   2.843   0.628   1.864
 3295SOL    HW210773   2.949   0.567   1.952
 3296SOL     OW10774   1.944   0.550   3.258
 3296SOL    HW110775   2.035   0.554   3.227
 3296SOL    HW210776   1.937   0.622   3.320
 3297SOL     OW10777   2.424   0.244   3.029
 3297SOL    HW110778   2.451   0.162   3.070
 3297SOL    HW210779   2.333   0.255   3.053
 3298SOL     OW10780   2.727   0.504   2.489
 3298SOL    HW110781   2.684   0.544   2.413
 3298SOL    HW210782   2.691   0.416   2.494
 3299SOL     OW10783   2.823   0.024   2.646
 3299SOL    HW110784   2.775   0.023   2.564
 3299SOL    HW210785   2.837   4.431   2.667
 3300SOL     OW10786   3.299   1.163   2.719
 3300SOL    HW110787   3.230   1.096   2.719
 3300SOL    HW210788   3.322   1.173   2.626
 3301SOL     OW10789   3.327   0.605   2.836
 3301SOL    HW110790   3.274   0.526   2.838
 3301SOL    HW210791   3.385   0.597   2.912
 3302SOL     OW10792   3.707   0.816   2.245
 3302SOL    HW110793   3.764   0.765   2.303
 3302SOL    HW210794   3.679   0.754   2.178
 3303SOL     OW10795   2.353   1.419   2.018
 3303SOL    HW110796   2.278   1.390   2.071
 3303SOL    HW210797   2.338   1.379   1.932
 3304SOL     OW10798   3.533   1.265   2.506
 3304SOL    HW110799   3.627   1.267   2.521
 3304SOL    HW210800   3.503   1.353   2.529
 3305SOL     OW10801   3.257   0.571   1.932
 3305SOL    HW110802   3.194   0.555   2.003
 3305SOL    HW210803   3.342   0.552   1.970
 3306SOL     OW10804   2.383   0.265   2.185
 3306SOL    HW110805   2.431   0.215   2.120
 3306SOL    HW210806   2.365   0.349   2.142
 3307SOL     OW10807   3.614   1.239   3.434
 3307SOL    HW110808   3.701   1.200   3.431
 3307SOL    HW210809   3.629   1.329   3.464
 3308SOL     OW10810   2.920   1.354   3.196
 3308SOL    HW110811   2.845   1.323   3.247
 3308SOL    HW210812   2.996   1.313   3.237
 3309SOL     OW10813   3.470   1.626   3.516
 3309SOL    HW110814   3.464   1.660   3.427
 3309SOL    HW210815   3.552   1.578   3.518
 3310SOL     OW10816   2.992   1.205   2.968
 3310SOL    HW110817   2.932   1.241   3.033
 3310SOL    HW210818   2.958   1.235   2.884
 3311SOL     OW10819   3.490   1.098   2.940
 3311SOL    HW110820   3.485   1.160   3.012
 3311SOL    HW210821   3.410   1.114   2.889
 3312SOL     OW10822   2.764   0.133   3.249
 3312SOL    HW110823   2.786   0.089   3.167
 3312SOL    HW210824   2.848   0.149   3.292
 3313SOL     OW10825   2.846   1.115   3.585
 3313SOL    HW110826   2.754   1.131   3.607
 3313SOL    HW210827   2.844   1.037   3.529
 3314SOL     OW10828   2.571   1.062   2.233
 3314SOL    HW110829   2.557   1.045   2.326
 3314SOL    HW210830   2.646   1.008   2.210
 3315SOL     OW10831   2.281   0.816   3.113
 3315SOL    HW110832   2.350   0.825   3.179
 3315SOL    HW210833   2.246   0.728   3.127
 3316SOL     OW10834   3.130   0.375   3.135
 3316SOL    HW110835   3.162   0.454   3.180
 3316SOL    HW210836   3.041   0.397   3.109
 3317SOL     OW10837   1.927   1.567   3.210
 3317SOL    HW110838   1.895   1.645   3.165
 3317SOL    HW210839   2.022   1.578   3.215
 3318SOL     OW10840   2.210   1.110   2.352
 3318SOL    HW110841   2.215   1.183   2.290
 3318SOL    HW210842   2.208   1.031   2.298
 3319SOL     OW10843   2.417   0.529   2.720
 3319SOL    HW110844   2.431   0.588   2.646
 3319SOL    HW210845   2.482   0.557   2.785
 3320SOL     OW10846   3.110   1.348   2.251
 3320SOL    HW110847   3.166   1.420   2.282
 3320SOL    HW210848   3.023   1.369   2.285
 3321SOL     OW10849   3.143   1.458   3.009
 3321SOL    HW110850   3.198   1.460   3.087
 3321SOL    HW210851   3.087   1.381   3.020
 3322SOL     OW10852   3.443   0.623   2.339
 3322SOL    HW110853   3.396   0.673   2.407
 3322SOL    HW210854   3.487   0.690   2.287
 3323SOL     OW10855   2.214   1.519   3.181
 3323SOL    HW110856   2.197   1.480   3.095
 3323SOL    HW210857   2.308   1.533   3.183
 3324SOL     OW10858   2.277   0.742   3.464
 3324SOL    HW110859   2.336   0.789   3.406
 3324SOL    HW210860   2.322   0.660   3.483
 3325SOL     OW10861   3.464   0.778   3.543
 3325SOL    HW110862   3.378   0.820   3.537
 3325SOL    HW210863   3.516   0.820   3.475
 3326SOL     OW10864   2.866   0.084   3.581
 3326SOL    HW110865   2.897   0.167   3.544
 3326SOL    HW210866   2.891   0.018   3.516
 3327SOL     OW10867   2.361   0.045   3.622
 3327SOL    HW110868   2.361   0.007   3.534
 3327SOL    HW210869   2.294   0.113   3.618
 3328SOL     OW10870   2.444   0.874   2.893
 3328SOL    HW110871   2.475   0.964   2.893
 3328SOL    HW210872   2.389   0.867   2.970
 3329SOL     OW10873   3.219   0.859   2.891
 3329SOL    HW110874   3.135   0.848   2.846
 3329SOL    HW210875   3.260   0.772   2.884
 3330SOL     OW10876   3.065   0.536   2.124
 3330SOL    HW110877   3.072   0.455   2.176
 3330SOL    HW210878   3.022   0.598   2.182
 3331SOL     OW10879   2.152   0.233   3.103
 3331SOL    HW110880   2.108   0.249   3.187
 3331SOL    HW210881   2.188   0.145   3.112
 3332SOL     OW10882   1.906   1.308   3.138
 3332SOL    HW110883   1.941   1.256   3.210
 3332SOL    HW210884   1.914   1.399   3.167
 3333SOL     OW10885   2.584   0.631   2.919
 3333SOL    HW110886   2.659   0.613   2.862
 3333SOL    HW210887   2.558   0.720   2.895
 3334SOL     OW10888   3.596   0.959   3.714
 3334SOL    HW110889   3.550   0.898   3.658
 3334SOL    HW210890   3.538   0.973   3.788
 3335SOL     OW10891   2.158   0.054   2.516
 3335SOL    HW110892   2.148   0.149   2.517
 3335SOL    HW210893   2.170   0.030   2.608
 3336SOL     OW10894   3.478   0.379   2.224
 3336SOL    HW110895   3.506   0.314   2.289
 3336SOL    HW210896   3.455   0.456   2.275
 3337SOL     OW10897   2.891   0.762   2.823
 3337SOL    HW110898   2.887   0.778   2.917
 3337SOL    HW210899   2.862   0.671   2.813
 3338SOL     OW10900   2.846   1.568   3.579
 3338SOL    HW110901   2.830   1.610   3.496
 3338SOL    HW210902   2.887   1.484   3.556
 3339SOL     OW10903   3.717   1.506   3.468
 3339SOL    HW110904   3.735   1.532   3.377
 3339SOL    HW210905   3.798   1.524   3.515
 3340SOL     OW10906   2.216   0.916   3.670
 3340SOL    HW110907   2.297   0.935   3.716
 3340SOL    HW210908   2.241   0.853   3.602
 3341SOL     OW10909   3.392   0.264   1.990
 3341SOL    HW110910   3.321   0.208   2.020
 3341SOL    HW210911   3.422   0.310   2.069
 3342SOL     OW10912   3.153   0.826   1.893
 3342SOL    HW110913   3.195   0.740   1.895
 3342SOL    HW210914   3.185   0.866   1.811
 3343SOL     OW10915   2.926   1.336   2.715
 3343SOL    HW110916   2.930   1.263   2.653
 3343SOL    HW210917   2.989   1.400   2.680
 3344SOL     OW10918   2.171   0.810   2.809
 3344SOL    HW110919   2.264   0.832   2.803
 3344SOL    HW210920   2.170   0.720   2.842
 3345SOL     OW10921   2.198   0.532   2.875
 3345SOL    HW110922   2.155   0.449   2.856
 3345SOL    HW210923   2.274   0.534   2.817
 3346SOL     OW10924   2.998   0.373   3.559
 3346SOL    HW110925   2.947   0.437   3.609
 3346SOL    HW210926   3.083   0.415   3.545
 3347SOL     OW10927   3.019   0.213   3.335
 3347SOL    HW110928   3.013   0.276   3.406
 3347SOL    HW210929   3.059   0.261   3.263
 3348SOL     OW10930   1.867   1.318   2.056
 3348SOL    HW110931   1.779   1.332   2.020
 3348SOL    HW210932   1.864   1.228   2.091
 3349SOL     OW10933   1.947   1.780   2.793
 3349SOL    HW110934   1.916   1.698   2.754
 3349SOL    HW210935   2.035   1.792   2.758
 3350SOL     OW10936   2.359   1.571   2.765
 3350SOL    HW110937   2.427   1.634   2.786
 3350SOL    HW210938   2.402   1.505   2.710
 3351SOL     OW10939   2.845   0.793   3.089
 3351SOL    HW110940   2.901   0.770   3.163
 3351SOL    HW210941   2.760   0.753   3.109
 3352SOL     OW10942   1.895   0.543   2.981
 3352SOL    HW110943   1.973   0.525   2.928
 3352SOL    HW210944   1.928   0.548   3.070
 3353SOL     OW10945   2.046   0.520   3.583
 3353SOL    HW110946   2.122   0.500   3.528
 3353SOL    HW210947   2.006   0.596   3.542
 3354SOL     OW10948   3.240   0.938   3.520
 3354SOL    HW110949   3.260   1.032   3.519
 3354SOL    HW210950   3.236   0.913   3.428
 3355SOL     OW10951   2.672   0.576   2.218
 3355SOL    HW110952   2.677   0.504   2.155
 3355SOL    HW210953   2.599   0.629   2.188
 3356SOL     OW10954   3.502   0.602   3.048
 3356SOL    HW110955   3.492   0.542   3.122
 3356SOL    HW210956   3.589   0.583   3.014
 3357SOL     OW10957   2.110   1.547   3.590
 3357SOL    HW110958   2.083   1.611   3.656
 3357SOL    HW210959   2.109   1.463   3.637
 3358SOL     OW10960   2.562   0.459   3.125
 3358SOL    HW110961   2.515   0.382   3.094
 3358SOL    HW210962   2.562   0.520   3.052
 3359SOL     OW10963   2.793   1.677   3.329
 3359SOL    HW110964   2.763   1.644   3.245
 3359SOL    HW210965   2.788   1.772   3.320
 3360SOL     OW10966   2.326   0.492   2.046
 3360SOL    HW110967   2.385   0.565   2.068
 3360SOL    HW210968   2.241   0.534   2.034
 3361SOL     OW10969   2.007   1.140   3.335
 3361SOL    HW110970   2.010   1.089   3.416
 3361SOL    HW210971   2.024   1.077   3.265
 3362SOL     OW10972   3.188   1.047   3.085
 3362SOL    HW110973   3.211   0.983   3.017
 3362SOL    HW210974   3.118   1.099   3.046
 3363SOL     OW10975   3.174   0.857   2.168
 3363SOL    HW110976   3.099   0.827   2.220
 3363SOL    HW210977   3.147   0.843   2.077
 3364SOL     OW10978   3.635   1.744   3.013
 3364SOL    HW110979   3.694   1.770   2.942
 3364SOL    HW210980   3.610   1.654   2.991
 3365SOL     OW10981   3.104   1.733   2.975
 3365SOL    HW110982   3.186   1.753   2.930
 3365SOL    HW210983   3.109   1.640   2.994
 3366SOL     OW10984   1.948   1.266   2.875
 3366SOL    HW110985   1.932   1.279   2.968
 3366SOL    HW210986   1.873   1.213   2.846
 3367SOL     OW10987   2.539   1.665   3.590
 3367SOL    HW110988   2.486   1.745   3.593
 3367SOL    HW210989   2.601   1.679   3.519
 3368SOL     OW10990   3.580   0.129   2.354
 3368SOL    HW110991   3.651   0.138   2.290
 3368SOL    HW210992   3.609   0.058   2.411
 3369SOL     OW10993   3.253   1.567   2.347
 3369SOL    HW110994   3.313   1.600   2.280
 3369SOL    HW210995   3.204   1.645   2.375
 3370SOL     OW10996   1.996   1.794   3.695
 3370SOL    HW110997   1.955   1.733   3.755
 3370SOL    HW210998   2.037   1.860   3.751
 3371SOL     OW10999   3.141   0.928   2.535
 3371SOL    HW111000   3.213   0.866   2.540
 3371SOL    HW211001   3.174   1.000   2.482
 3372SOL     OW11002   2.676   1.274   3.291
 3372SOL    HW111003   2.648   1.312   3.374
 3372SOL    HW211004   2.604   1.294   3.230
 3373SOL     OW11005   2.534   1.621   2.015
 3373SOL    HW111006   2.544   1.631   1.921
 3373SOL    HW211007   2.479   1.543   2.025
 3374SOL     OW11008   3.489   1.727   3.253
 3374SOL    HW111009   3.538   1.734   3.172
 3374SOL    HW211010   3.475   1.817   3.281
 3375SOL     OW11011   3.701   0.154   2.828
 3375SOL    HW111012   3.732   0.077   2.780
 3375SOL    HW211013   3.614   0.171   2.791
 3376SOL     OW11014   2.126   0.322   2.579
 3376SOL    HW111015   2.041   0.356   2.552
 3376SOL    HW211016   2.120   0.314   2.674
 3377SOL     OW11017   3.069   1.606   1.893
 3377SOL    HW111018   3.060   1.515   1.921
 3377SOL    HW211019   3.004   1.617   1.825
 3378SOL     OW11020   2.685   1.006   3.235
 3378SOL    HW111021   2.729   1.001   3.150
 3378SOL    HW211022   2.686   1.099   3.256
 3379SOL     OW11023   2.778   0.910   2.152
 3379SOL    HW111024   2.840   0.942   2.086
 3379SOL    HW211025   2.825   0.841   2.197
 3380SOL     OW11026   3.354   1.625   1.905
 3380SOL    HW111027   3.259   1.619   1.891
 3380SOL    HW211028   3.390   1.631   1.816
 3381SOL     OW11029   2.232   1.300   3.354
 3381SOL    HW111030   2.219   1.378   3.300
 3381SOL    HW211031   2.153   1.247   3.338
 3382SOL     OW11032   3.474   1.284   3.143
 3382SOL    HW111033   3.531   1.271   3.218
 3382SOL    HW211034   3.412   1.352   3.170
 3383SOL     OW11035   2.914   1.107   2.569
 3383SOL    HW111036   2.843   1.056   2.608
 3383SOL    HW211037   2.977   1.042   2.538
 3384SOL     OW11038   2.867   0.244   2.868
 3384SOL    HW111039   2.873   0.222   2.775
 3384SOL    HW211040   2.859   0.160   2.912
 3385SOL     OW11041   2.465   1.490   2.342
 3385SOL    HW111042   2.508   1.439   2.274
 3385SOL    HW211043   2.400   1.543   2.295
 3386SOL     OW11044   3.584   0.394   3.239
 3386SOL    HW111045   3.657   0.456   3.238
 3386SOL    HW211046   3.613   0.322   3.182
 3387SOL     OW11047   2.121   1.345   2.151
 3387SOL    HW111048   2.028   1.342   2.129
 3387SOL    HW211049   2.123   1.383   2.239
 3388SOL     OW11050   1.974   1.021   3.581
 3388SOL    HW111051   1.899   0.998   3.635
 3388SOL    HW211052   2.049   0.984   3.629
 3389SOL     OW11053   2.519   0.204   3.361
 3389SOL    HW111054   2.599   0.179   3.314
 3389SOL    HW211055   2.550   0.226   3.449
 3390SOL     OW11056   1.944   0.337   1.909
 3390SOL    HW111057   1.873   0.284   1.873
 3390SOL    HW211058   1.957   0.407   1.845
 3391SOL     OW11059   3.292   0.858   3.262
 3391SOL    HW111060   3.243   0.919   3.206
 3391SOL    HW211061   3.381   0.860   3.227
 3392SOL     OW11062   1.926   0.184   2.180
 3392SOL    HW111063   1.925   0.251   2.112
 3392SOL    HW211064   2.001   0.128   2.158
 3393SOL     OW11065   3.041   1.340   1.979
 3393SOL    HW111066   2.950   1.309   1.981
 3393SOL    HW211067   3.068   1.339   2.070
 3394SOL     OW11068   2.481   0.830   3.296
 3394SOL    HW111069   2.537   0.907   3.281
 3394SOL    HW211070   2.543   0.757   3.304
 3395SOL     OW11071   3.346   1.778   2.841
 3395SOL    HW111072   3.370   1.836   2.769
 3395SOL    HW211073   3.428   1.757   2.884
 3396SOL     OW11074   2.578   0.563   3.567
 3396SOL    HW111075   2.617   0.628   3.626
 3396SOL    HW211076   2.609   0.479   3.600
 3397SOL     OW11077   3.333   1.200   3.494
 3397SOL    HW111078   3.320   1.214   3.588
 3397SOL    HW211079   3.426   1.215   3.480
 3398SOL     OW11080   2.238   1.740   3.427
 3398SOL    HW111081   2.151   1.770   3.401
 3398SOL    HW211082   2.223   1.656   3.470
 3399SOL     OW11083   3.531   0.881   3.117
 3399SOL    HW111084   3.524   0.796   3.074
 3399SOL    HW211085   3.522   0.945   3.046
 3400SOL     OW11086   3.080   0.330   2.309
 3400SOL    HW111087   3.146   0.262   2.298
 3400SOL    HW211088   3.108   0.377   2.388
 3401SOL     OW11089   2.449   0.738   2.533
 3401SOL    HW111090   2.490   0.822   2.517
 3401SOL    HW211091   2.382   0.730   2.465
 3402SOL     OW11092   3.624   0.366   3.505
 3402SOL    HW111093   3.608   0.379   3.412
 3402SOL    HW211094   3.546   0.320   3.537
 3403SOL     OW11095   3.608   0.933   3.374
 3403SOL    HW111096   3.603   1.028   3.387
 3403SOL    HW211097   3.592   0.921   3.280
 3404SOL     OW11098   2.725   1.367   1.897
 3404SOL    HW111099   2.686   1.395   1.980
 3404SOL    HW211100   2.742   1.449   1.850
 3405SOL     OW11101   2.522   1.798   2.795
 3405SOL    HW111102   2.523   1.884   2.837
 3405SOL    HW211103   2.614   1.771   2.795
 3406SOL     OW11104   2.729   0.967   2.717
 3406SOL    HW111105   2.780   0.896   2.755
 3406SOL    HW211106   2.694   1.015   2.792
 3407SOL     OW11107   2.942   0.989   1.951
 3407SOL    HW111108   2.919   1.039   1.873
 3407SOL    HW211109   3.016   0.935   1.924
 3408SOL     OW11110   3.716   1.555   2.707
 3408SOL    HW111111   3.638   1.543   2.652
 3408SOL    HW211112   3.710   1.487   2.774
 3409SOL     OW11113   2.087   1.302   3.719
 3409SOL    HW111114   2.019   1.241   3.690
 3409SOL    HW211115   2.071   1.313   3.813
 3410SOL     OW11116   1.949   1.233   2.525
 3410SOL    HW111117   1.951   1.187   2.609
 3410SOL    HW211118   2.016   1.190   2.472
 3411SOL     OW11119   2.542   1.404   3.488
 3411SOL    HW111120   2.464   1.360   3.520
 3411SOL    HW211121   2.539   1.491   3.527
 3412SOL     OW11122   3.669   0.181   3.101
 3412SOL    HW111123   3.668   0.087   3.121
 3412SOL    HW211124   3.686   0.185   3.006
 3413SOL     OW11125   2.299   0.433   2.392
 3413SOL    HW111126   2.320   0.364   2.329
 3413SOL    HW211127   2.242   0.390   2.457
 3414SOL     OW11128   3.561   1.490   2.959
 3414SOL    HW111129   3.481   1.466   2.912
 3414SOL    HW211130   3.572   1.420   3.024
 3415SOL     OW11131   2.192   0.557   3.154
 3415SOL    HW111132   2.247   0.501   3.208
 3415SOL    HW211133   2.211   0.531   3.064
 3416SOL     OW11134   2.688   1.578   2.539
 3416SOL    HW111135   2.675   1.628   2.459
 3416SOL    HW211136   2.613   1.519   2.544
 3417SOL     OW11137   3.294   0.216   2.979
 3417SOL    HW111138   3.329   0.145   3.033
 3417SOL    HW211139   3.243   0.269   3.041
 3418SOL     OW11140   2.858   0.006   3.013
 3418SOL    HW111141   2.816   4.421   3.006
 3418SOL    HW211142   2.951   4.487   3.024
 3419SOL     OW11143   2.634   1.333   2.177
 3419SOL    HW111144   2.602   1.243   2.183
 3419SOL    HW211145   2.716   1.332   2.226
 3420SOL     OW11146   2.483   1.555   3.143
 3420SOL    HW111147   2.484   1.634   3.197
 3420SOL    HW211148   2.572   1.549   3.108
 3421SOL     OW11149   3.202   0.052   2.016
 3421SOL    HW111150   3.241   4.476   1.972
 3421SOL    HW211151   3.126   0.017   2.063
 3422SOL     OW11152   3.177   0.463   2.538
 3422SOL    HW111153   3.117   0.538   2.539
 3422SOL    HW211154   3.165   0.422   2.624
 3423SOL     OW11155   3.447   0.199   2.729
 3423SOL    HW111156   3.388   0.215   2.803
 3423SOL    HW211157   3.450   0.283   2.683
 3424SOL     OW11158   1.906   1.070   2.168
 3424SOL    HW111159   2.000   1.061   2.150
 3424SOL    HW211160   1.877   0.982   2.191
 3425SOL     OW11161   2.746   1.653   2.205
 3425SOL    HW111162   2.674   1.635   2.144
 3425SOL    HW211163   2.715   1.728   2.256
 3426SOL     OW11164   2.091   0.625   3.845
 3426SOL    HW111165   2.003   0.620   3.884
 3426SOL    HW211166   2.078   0.596   3.755
 3427SOL     OW11167   2.070   0.299   4.713
 3427SOL    HW111168   2.101   0.270   4.799
 3427SOL    HW211169   1.988   0.251   4.700
 3428SOL     OW11170   1.869   0.386   4.362
 3428SOL    HW111171   1.783   0.405   4.399
 3428SOL    HW211172   1.855   0.313   4.302
 3429SOL     OW11173   2.426   1.256   4.897
 3429SOL    HW111174   2.338   1.253   4.860
 3429SOL    HW211175   2.450   1.348   4.895
 3430SOL     OW11176   3.425   1.513   4.428
 3430SOL    HW111177   3.384   1.494   4.513
 3430SOL    HW211178   3.351   1.518   4.367
 3431SOL     OW11179   2.997   0.697   4.422
 3431SOL    HW111180   3.043   0.781   4.412
 3431SOL    HW211181   2.947   0.708   4.503
 3432SOL     OW11182   3.631   0.606   3.951
 3432SOL    HW111183   3.609   0.597   3.859
 3432SOL    HW211184   3.596   0.527   3.992
 3433SOL     OW11185   2.628   1.138   4.761
 3433SOL    HW111186   2.560   1.174   4.817
 3433SOL    HW211187   2.656   1.211   4.706
 3434SOL     OW11188   2.729   0.774   5.546
 3434SOL    HW111189   2.712   0.844   5.609
 3434SOL    HW211190   2.753   0.818   5.465
 3435SOL     OW11191   2.548   1.000   4.370
 3435SOL    HW111192   2.613   0.990   4.438
 3435SOL    HW211193   2.479   1.054   4.410
 3436SOL     OW11194   2.573   1.152   5.534
 3436SOL    HW111195   2.620   1.231   5.560
 3436SOL    HW211196   2.489   1.183   5.502
 3437SOL     OW11197   3.327   1.500   5.081
 3437SOL    HW111198   3.374   1.583   5.089
 3437SOL    HW211199   3.278   1.492   5.162
 3438SOL     OW11200   2.304   0.395   5.212
 3438SOL    HW111201   2.387   0.346   5.214
 3438SOL    HW211202   2.237   0.328   5.227
 3439SOL     OW11203   3.472   0.445   4.463
 3439SOL    HW111204   3.392   0.467   4.415
 3439SOL    HW211205   3.490   0.523   4.515
 3440SOL     OW11206   2.084   1.724   4.197
 3440SOL    HW111207   2.128   1.761   4.273
 3440SOL    HW211208   2.155   1.705   4.135
 3441SOL     OW11209   2.998   1.342   5.423
 3441SOL    HW111210   3.035   1.334   5.510
 3441SOL    HW211211   2.947   1.261   5.411
 3442SOL     OW11212   2.081   1.442   4.260
 3442SOL    HW111213   2.058   1.534   4.274
 3442SOL    HW211214   2.024   1.394   4.320
 3443SOL     OW11215   2.121   1.090   4.617
 3443SOL    HW111216   2.114   1.003   4.655
 3443SOL    HW211217   2.062   1.144   4.670
 3444SOL     OW11218   2.447   0.982   3.858
 3444SOL    HW111219   2.493   1.031   3.790
 3444SOL    HW211220   2.487   1.013   3.940
 3445SOL     OW11221   3.444   0.116   5.195
 3445SOL    HW111222   3.467   0.184   5.132
 3445SOL    HW211223   3.433   0.162   5.278
 3446SOL     OW11224   1.978   0.653   4.284
 3446SOL    HW111225   1.948   0.565   4.306
 3446SOL    HW211226   1.969   0.703   4.365
 3447SOL     OW11227   3.704   1.759   4.057
 3447SOL    HW111228   3.767   1.730   4.124
 3447SOL    HW211229   3.729   1.850   4.040
 3448SOL     OW11230   1.900   1.597   3.851
 3448SOL    HW111231   1.883   1.503   3.862
 3448SOL    HW211232   1.866   1.637   3.931
 3449SOL     OW11233   3.552   0.920   4.365
 3449SOL    HW111234   3.636   0.878   4.343
 3449SOL    HW211235   3.529   0.970   4.287
 3450SOL     OW11236   3.508   1.107   4.152
 3450SOL    HW111237   3.595   1.113   4.111
 3450SOL    HW211238   3.512   1.168   4.226
 3451SOL     OW11239   1.985   0.745   5.308
 3451SOL    HW111240   2.077   0.771   5.317
 3451SOL    HW211241   1.936   0.827   5.316
 3452SOL     OW11242   2.488   1.369   4.441
 3452SOL    HW111243   2.433   1.292   4.454
 3452SOL    HW211244   2.461   1.404   4.356
 3453SOL     OW11245   3.161   1.256   5.142
 3453SOL    HW111246   3.177   1.181   5.084
 3453SOL    HW211247   3.211   1.236   5.221
 3454SOL     OW11248   2.679   0.015   4.275
 3454SOL    HW111249   2.715   0.100   4.250
 3454SOL    HW211250   2.585   0.025   4.268
 3455SOL     OW11251   2.052   0.966   4.997
 3455SOL    HW111252   2.136   0.924   4.982
 3455SOL    HW211253   1.990   0.916   4.943
 3456SOL     OW11254   3.394   0.993   3.923
 3456SOL    HW111255   3.324   0.936   3.955
 3456SOL    HW211256   3.434   1.028   4.002
 3457SOL     OW11257   3.029   1.787   5.322
 3457SOL    HW111258   3.077   1.842   5.260
 3457SOL    HW211259   3.060   1.698   5.303
 3458SOL     OW11260   2.177   0.254   5.504
 3458SOL    HW111261   2.241   0.317   5.537
 3458SOL    HW211262   2.104   0.260   5.565
 3459SOL     OW11263   3.343   1.415   4.670
 3459SOL    HW111264   3.275   1.431   4.735
 3459SOL    HW211265   3.328   1.325   4.641
 3460SOL     OW11266   3.520   1.741   4.301
 3460SOL    HW111267   3.499   1.710   4.213
 3460SOL    HW211268   3.495   1.669   4.359
 3461SOL     OW11269   2.455   0.723   3.989
 3461SOL    HW111270   2.461   0.805   3.941
 3461SOL    HW211271   2.390   0.740   4.058
 3462SOL     OW11272   3.154   0.364   4.657
 3462SOL    HW111273   3.064   0.334   4.641
 3462SOL    HW211274   3.189   0.301   4.719
 3463SOL     OW11275   3.442   1.673   4.033
 3463SOL    HW111276   3.533   1.702   4.025
 3463SOL    HW211277   3.415   1.655   3.943
 3464SOL     OW11278   2.657   0.620   5.178
 3464SOL    HW111279   2.629   0.594   5.266
 3464SOL    HW211280   2.618   0.554   5.120
 3465SOL     OW11281   3.250   0.480   5.400
 3465SOL    HW111282   3.254   0.524   5.485
 3465SOL    HW211283   3.317   0.411   5.406
 3466SOL     OW11284   2.817   0.888   5.307
 3466SOL    HW111285   2.870   0.817   5.271
 3466SOL    HW211286   2.770   0.923   5.231
 3467SOL     OW11287   2.858   0.417   4.960
 3467SOL    HW111288   2.770   0.426   4.995
 3467SOL    HW211289   2.847   0.365   4.880
 3468SOL     OW11290   2.912   0.697   4.151
 3468SOL    HW111291   2.928   0.690   4.245
 3468SOL    HW211292   2.829   0.652   4.137
 3469SOL     OW11293   1.950   0.821   4.500
 3469SOL    HW111294   2.031   0.814   4.551
 3469SOL    HW211295   1.906   0.899   4.534
 3470SOL     OW11296   2.716   0.369   3.906
 3470SOL    HW111297   2.789   0.403   3.854
 3470SOL    HW211298   2.732   0.275   3.910
 3471SOL     OW11299   3.566   0.573   5.552
 3471SOL    HW111300   3.530   0.648   5.504
 3471SOL    HW211301   3.602   0.516   5.484
 3472SOL     OW11302   3.239   1.142   4.265
 3472SOL    HW111303   3.317   1.131   4.211
 3472SOL    HW211304   3.185   1.205   4.217
 3473SOL     OW11305   2.399   0.205   4.625
 3473SOL    HW111306   2.421   0.222   4.717
 3473SOL    HW211307   2.391   0.291   4.585
 3474SOL     OW11308   2.867   1.445   4.195
 3474SOL    HW111309   2.832   1.519   4.146
 3474SOL    HW211310   2.843   1.462   4.286
 3475SOL     OW11311   3.660   1.059   4.592
 3475SOL    HW111312   3.605   1.039   4.516
 3475SOL    HW211313   3.599   1.064   4.665
 3476SOL     OW11314   3.087   1.531   5.246
 3476SOL    HW111315   3.074   1.458   5.306
 3476SOL    HW211316   3.073   1.493   5.159
 3477SOL     OW11317   2.182   0.957   3.974
 3477SOL    HW111318   2.264   0.976   3.929
 3477SOL    HW211319   2.151   0.875   3.935
 3478SOL     OW11320   3.343   0.741   4.448
 3478SOL    HW111321   3.331   0.699   4.533
 3478SOL    HW211322   3.418   0.799   4.460
 3479SOL     OW11323   2.332   1.263   5.455
 3479SOL    HW111324   2.297   1.269   5.366
 3479SOL    HW211325   2.255   1.272   5.512
 3480SOL     OW11326   2.985   1.778   3.955
 3480SOL    HW111327   2.911   1.738   4.001
 3480SOL    HW211328   3.006   1.716   3.886
 3481SOL     OW11329   2.049   0.267   5.237
 3481SOL    HW111330   1.984   0.336   5.222
 3481SOL    HW211331   2.065   0.270   5.331
 3482SOL     OW11332   3.491   1.380   3.810
 3482SOL    HW111333   3.449   1.465   3.797
 3482SOL    HW211334   3.422   1.316   3.793
 3483SOL     OW11335   2.328   1.720   4.063
 3483SOL    HW111336   2.365   1.793   4.112
 3483SOL    HW211337   2.389   1.707   3.990
 3484SOL     OW11338   3.284   0.139   4.141
 3484SOL    HW111339   3.268   0.087   4.063
 3484SOL    HW211340   3.378   0.132   4.157
 3485SOL     OW11341   2.806   1.688   4.589
 3485SOL    HW111342   2.866   1.624   4.627
 3485SOL    HW211343   2.758   1.639   4.522
 3486SOL     OW11344   2.255   0.694   4.199
 3486SOL    HW111345   2.277   0.602   4.212
 3486SOL    HW211346   2.161   0.699   4.217
 3487SOL     OW11347   3.387   0.233   5.447
 3487SOL    HW111348   3.387   0.255   5.540
 3487SOL    HW211349   3.308   0.179   5.435
 3488SOL     OW11350   2.490   0.120   3.848
 3488SOL    HW111351   2.579   0.085   3.855
 3488SOL    HW211352   2.457   0.085   3.765
 3489SOL     OW11353   2.630   0.271   5.478
 3489SOL    HW111354   2.696   0.202   5.487
 3489SOL    HW211355   2.588   0.274   5.564
 3490SOL     OW11356   3.203   0.589   5.152
 3490SOL    HW111357   3.231   0.561   5.240
 3490SOL    HW211358   3.237   0.678   5.144
 3491SOL     OW11359   2.786   0.519   4.623
 3491SOL    HW111360   2.769   0.517   4.529
 3491SOL    HW211361   2.822   0.433   4.643
 3492SOL     OW11362   2.417   0.076   4.245
 3492SOL    HW111363   2.328   0.047   4.269
 3492SOL    HW211364   2.403   0.140   4.176
 3493SOL     OW11365   3.290   1.198   3.765
 3493SOL    HW111366   3.320   1.123   3.816
 3493SOL    HW211367   3.205   1.220   3.803
 3494SOL     OW11368   2.157   0.067   3.923
 3494SOL    HW111369   2.235   0.121   3.906
 3494SOL    HW211370   2.188   4.500   3.984
 3495SOL     OW11371   2.815   0.239   4.190
 3495SOL    HW111372   2.763   0.298   4.136
 3495SOL    HW211373   2.904   0.275   4.186
 3496SOL     OW11374   2.942   0.681   5.185
 3496SOL    HW111375   2.871   0.617   5.184
 3496SOL    HW211376   3.021   0.629   5.173
 3497SOL     OW11377   3.090   1.565   4.520
 3497SOL    HW111378   3.102   1.635   4.455
 3497SOL    HW211379   3.153   1.587   4.589
 3498SOL     OW11380   2.329   1.145   4.457
 3498SOL    HW111381   2.260   1.128   4.520
 3498SOL    HW211382   2.289   1.130   4.372
 3499SOL     OW11383   3.132   1.792   4.330
 3499SOL    HW111384   3.172   1.859   4.276
 3499SOL    HW211385   3.057   1.836   4.371
 3500SOL     OW11386   2.891   0.547   3.741
 3500SOL    HW111387   2.843   0.628   3.726
 3500SOL    HW211388   2.949   0.567   3.815
 3501SOL     OW11389   1.945   0.550   5.120
 3501SOL    HW111390   2.035   0.554   5.089
 3501SOL    HW211391   1.937   0.622   5.182
 3502SOL     OW11392   2.424   0.244   4.891
 3502SOL    HW111393   2.451   0.162   4.932
 3502SOL    HW211394   2.333   0.254   4.916
 3503SOL     OW11395   2.728   0.503   4.351
 3503SOL    HW111396   2.684   0.544   4.276
 3503SOL    HW211397   2.690   0.415   4.355
 3504SOL     OW11398   2.823   0.023   4.508
 3504SOL    HW111399   2.775   0.022   4.426
 3504SOL    HW211400   2.837   4.431   4.529
 3505SOL     OW11401   3.302   1.158   4.580
 3505SOL    HW111402   3.227   1.099   4.581
 3505SOL    HW211403   3.321   1.172   4.487
 3506SOL     OW11404   3.327   0.605   4.698
 3506SOL    HW111405   3.274   0.526   4.700
 3506SOL    HW211406   3.385   0.597   4.774
 3507SOL     OW11407   3.708   0.816   4.106
 3507SOL    HW111408   3.764   0.765   4.165
 3507SOL    HW211409   3.680   0.754   4.040
 3508SOL     OW11410   2.353   1.418   3.880
 3508SOL    HW111411   2.279   1.390   3.933
 3508SOL    HW211412   2.337   1.378   3.794
 3509SOL     OW11413   3.533   1.265   4.367
 3509SOL    HW111414   3.627   1.270   4.383
 3509SOL    HW211415   3.501   1.353   4.390
 3510SOL     OW11416   3.256   0.571   3.794
 3510SOL    HW111417   3.194   0.555   3.865
 3510SOL    HW211418   3.342   0.553   3.832
 3511SOL     OW11419   2.383   0.265   4.047
 3511SOL    HW111420   2.431   0.215   3.982
 3511SOL    HW211421   2.365   0.349   4.004
 3512SOL     OW11422   3.614   1.239   5.297
 3512SOL    HW111423   3.701   1.200   5.293
 3512SOL    HW211424   3.629   1.329   5.326
 3513SOL     OW11425   3.468   1.624   5.376
 3513SOL    HW111426   3.466   1.661   5.288
 3513SOL    HW211427   3.551   1.577   5.381
 3514SOL     OW11428   2.985   1.211   4.843
 3514SOL    HW111429   2.901   1.224   4.887
 3514SOL    HW211430   2.970   1.243   4.754
 3515SOL     OW11431   3.490   1.097   4.802
 3515SOL    HW111432   3.485   1.161   4.873
 3515SOL    HW211433   3.412   1.115   4.748
 3516SOL     OW11434   2.764   0.133   5.111
 3516SOL    HW111435   2.786   0.089   5.029
 3516SOL    HW211436   2.848   0.149   5.154
 3517SOL     OW11437   2.846   1.114   5.449
 3517SOL    HW111438   2.753   1.128   5.469
 3517SOL    HW211439   2.846   1.038   5.391
 3518SOL     OW11440   2.570   1.061   4.095
 3518SOL    HW111441   2.557   1.045   4.188
 3518SOL    HW211442   2.646   1.007   4.072
 3519SOL     OW11443   2.280   0.817   4.977
 3519SOL    HW111444   2.350   0.825   5.042
 3519SOL    HW211445   2.246   0.729   4.989
 3520SOL     OW11446   3.130   0.375   4.997
 3520SOL    HW111447   3.162   0.454   5.041
 3520SOL    HW211448   3.041   0.397   4.971
 3521SOL     OW11449   2.207   1.109   4.215
 3521SOL    HW111450   2.216   1.183   4.155
 3521SOL    HW211451   2.207   1.032   4.158
 3522SOL     OW11452   2.418   0.529   4.582
 3522SOL    HW111453   2.431   0.588   4.508
 3522SOL    HW211454   2.482   0.557   4.647
 3523SOL     OW11455   3.110   1.349   4.113
 3523SOL    HW111456   3.165   1.420   4.145
 3523SOL    HW211457   3.023   1.369   4.148
 3524SOL     OW11458   3.164   1.425   4.864
 3524SOL    HW111459   3.208   1.436   4.949
 3524SOL    HW211460   3.107   1.349   4.877
 3525SOL     OW11461   3.443   0.623   4.201
 3525SOL    HW111462   3.397   0.672   4.269
 3525SOL    HW211463   3.486   0.691   4.149
 3526SOL     OW11464   2.277   0.742   5.326
 3526SOL    HW111465   2.337   0.789   5.267
 3526SOL    HW211466   2.323   0.660   5.345
 3527SOL     OW11467   3.464   0.779   5.405
 3527SOL    HW111468   3.378   0.820   5.398
 3527SOL    HW211469   3.516   0.820   5.337
 3528SOL     OW11470   2.866   0.084   5.443
 3528SOL    HW111471   2.897   0.167   5.406
 3528SOL    HW211472   2.891   0.018   5.378
 3529SOL     OW11473   2.361   0.045   5.484
 3529SOL    HW111474   2.361   0.007   5.396
 3529SOL    HW211475   2.294   0.113   5.480
 3530SOL     OW11476   2.444   0.873   4.755
 3530SOL    HW111477   2.477   0.962   4.754
 3530SOL    HW211478   2.389   0.868   4.833
 3531SOL     OW11479   3.218   0.859   4.755
 3531SOL    HW111480   3.136   0.850   4.708
 3531SOL    HW211481   3.259   0.773   4.748
 3532SOL     OW11482   3.065   0.535   3.986
 3532SOL    HW111483   3.071   0.455   4.038
 3532SOL    HW211484   3.022   0.598   4.044
 3533SOL     OW11485   2.152   0.233   4.965
 3533SOL    HW111486   2.108   0.249   5.049
 3533SOL    HW211487   2.188   0.145   4.974
 3534SOL     OW11488   1.905   1.319   5.014
 3534SOL    HW111489   1.941   1.257   5.076
 3534SOL    HW211490   1.967   1.392   5.013
 3535SOL     OW11491   2.585   0.631   4.781
 3535SOL    HW111492   2.659   0.613   4.724
 3535SOL    HW211493   2.558   0.720   4.758
 3536SOL     OW11494   3.597   0.959   5.576
 3536SOL    HW111495   3.550   0.898   5.519
 3536SOL    HW211496   3.537   0.973   5.650
 3537SOL     OW11497   2.158   0.053   4.377
 3537SOL    HW111498   2.148   0.149   4.379
 3537SOL    HW211499   2.170   0.029   4.469
 3538SOL     OW11500   3.478   0.379   4.086
 3538SOL    HW111501   3.505   0.315   4.151
 3538SOL    HW211502   3.454   0.457   4.136
 3539SOL     OW11503   2.892   0.761   4.686
 3539SOL    HW111504   2.887   0.777   4.780
 3539SOL    HW211505   2.862   0.671   4.675
 3540SOL     OW11506   2.841   1.564   5.436
 3540SOL    HW111507   2.866   1.624   5.365
 3540SOL    HW211508   2.889   1.484   5.417
 3541SOL     OW11509   3.716   1.506   5.330
 3541SOL    HW111510   3.734   1.532   5.240
 3541SOL    HW211511   3.798   1.524   5.377
 3542SOL     OW11512   2.213   0.917   5.529
 3542SOL    HW111513   2.293   0.938   5.579
 3542SOL    HW211514   2.241   0.853   5.464
 3543SOL     OW11515   3.392   0.264   3.852
 3543SOL    HW111516   3.321   0.208   3.882
 3543SOL    HW211517   3.422   0.310   3.931
 3544SOL     OW11518   3.153   0.826   3.754
 3544SOL    HW111519   3.195   0.740   3.757
 3544SOL    HW211520   3.185   0.865   3.673
 3545SOL     OW11521   2.939   1.322   4.594
 3545SOL    HW111522   2.929   1.259   4.524
 3545SOL    HW211523   2.987   1.395   4.555
 3546SOL     OW11524   2.170   0.809   4.672
 3546SOL    HW111525   2.263   0.832   4.664
 3546SOL    HW211526   2.170   0.720   4.704
 3547SOL     OW11527   2.198   0.532   4.737
 3547SOL    HW111528   2.156   0.449   4.718
 3547SOL    HW211529   2.274   0.534   4.679
 3548SOL     OW11530   2.998   0.373   5.421
 3548SOL    HW111531   2.947   0.437   5.471
 3548SOL    HW211532   3.083   0.415   5.407
 3549SOL     OW11533   3.019   0.213   5.197
 3549SOL    HW111534   3.013   0.276   5.268
 3549SOL    HW211535   3.059   0.261   5.125
 3550SOL     OW11536   1.867   1.322   3.918
 3550SOL    HW111537   1.780   1.336   3.881
 3550SOL    HW211538   1.865   1.233   3.952
 3551SOL     OW11539   2.844   0.793   4.951
 3551SOL    HW111540   2.900   0.771   5.025
 3551SOL    HW211541   2.760   0.752   4.972
 3552SOL     OW11542   1.895   0.543   4.843
 3552SOL    HW111543   1.972   0.526   4.789
 3552SOL    HW211544   1.928   0.547   4.932
 3553SOL     OW11545   2.046   0.519   5.445
 3553SOL    HW111546   2.123   0.500   5.390
 3553SOL    HW211547   2.006   0.596   5.403
 3554SOL     OW11548   3.240   0.939   5.382
 3554SOL    HW111549   3.260   1.032   5.380
 3554SOL    HW211550   3.236   0.912   5.290
 3555SOL     OW11551   2.672   0.575   4.080
 3555SOL    HW111552   2.676   0.504   4.016
 3555SOL    HW211553   2.599   0.629   4.051
 3556SOL     OW11554   3.502   0.601   4.910
 3556SOL    HW111555   3.492   0.542   4.984
 3556SOL    HW211556   3.589   0.582   4.876
 3557SOL     OW11557   2.562   0.459   4.987
 3557SOL    HW111558   2.515   0.382   4.955
 3557SOL    HW211559   2.562   0.520   4.914
 3558SOL     OW11560   2.326   0.492   3.908
 3558SOL    HW111561   2.385   0.564   3.930
 3558SOL    HW211562   2.241   0.534   3.896
 3559SOL     OW11563   2.012   1.142   5.196
 3559SOL    HW111564   2.014   1.092   5.277
 3559SOL    HW211565   2.027   1.077   5.127
 3560SOL     OW11566   3.184   1.048   4.951
 3560SOL    HW111567   3.207   0.986   4.881
 3560SOL    HW211568   3.114   1.101   4.913
 3561SOL     OW11569   3.175   0.856   4.029
 3561SOL    HW111570   3.100   0.829   4.082
 3561SOL    HW211571   3.147   0.843   3.939
 3562SOL     OW11572   3.640   1.742   4.879
 3562SOL    HW111573   3.696   1.769   4.806
 3562SOL    HW211574   3.610   1.654   4.855
 3563SOL     OW11575   1.950   1.250   4.752
 3563SOL    HW111576   1.919   1.270   4.840
 3563SOL    HW211577   1.872   1.219   4.706
 3564SOL     OW11578   2.537   1.649   5.446
 3564SOL    HW111579   2.478   1.724   5.451
 3564SOL    HW211580   2.597   1.669   5.375
 3565SOL     OW11581   3.580   0.129   4.216
 3565SOL    HW111582   3.651   0.138   4.152
 3565SOL    HW211583   3.609   0.058   4.273
 3566SOL     OW11584   3.252   1.568   4.208
 3566SOL    HW111585   3.311   1.603   4.141
 3566SOL    HW211586   3.203   1.644   4.239
 3567SOL     OW11587   3.140   0.926   4.396
 3567SOL    HW111588   3.214   0.865   4.401
 3567SOL    HW211589   3.173   1.000   4.344
 3568SOL     OW11590   2.679   1.272   5.141
 3568SOL    HW111591   2.658   1.311   5.226
 3568SOL    HW211592   2.602   1.289   5.086
 3569SOL     OW11593   2.533   1.621   3.877
 3569SOL    HW111594   2.544   1.631   3.782
 3569SOL    HW211595   2.478   1.543   3.886
 3570SOL     OW11596   3.489   1.727   5.117
 3570SOL    HW111597   3.538   1.733   5.035
 3570SOL    HW211598   3.475   1.818   5.143
 3571SOL     OW11599   3.701   0.154   4.690
 3571SOL    HW111600   3.732   0.077   4.642
 3571SOL    HW211601   3.614   0.171   4.653
 3572SOL     OW11602   2.126   0.321   4.441
 3572SOL    HW111603   2.041   0.356   4.414
 3572SOL    HW211604   2.120   0.314   4.536
 3573SOL     OW11605   3.070   1.605   3.755
 3573SOL    HW111606   3.060   1.515   3.784
 3573SOL    HW211607   3.003   1.617   3.687
 3574SOL     OW11608   2.687   1.005   5.096
 3574SOL    HW111609   2.732   0.996   5.012
 3574SOL    HW211610   2.691   1.099   5.115
 3575SOL     OW11611   2.777   0.909   4.013
 3575SOL    HW111612   2.839   0.942   3.948
 3575SOL    HW211613   2.825   0.841   4.060
 3576SOL     OW11614   3.354   1.625   3.767
 3576SOL    HW111615   3.259   1.618   3.754
 3576SOL    HW211616   3.390   1.631   3.678
 3577SOL     OW11617   2.230   1.311   5.210
 3577SOL    HW111618   2.202   1.387   5.160
 3577SOL    HW211619   2.158   1.248   5.199
 3578SOL     OW11620   3.476   1.284   5.004
 3578SOL    HW111621   3.530   1.272   5.082
 3578SOL    HW211622   3.412   1.351   5.029
 3579SOL     OW11623   2.912   1.106   4.427
 3579SOL    HW111624   2.841   1.055   4.467
 3579SOL    HW211625   2.976   1.040   4.399
 3580SOL     OW11626   2.867   0.244   4.730
 3580SOL    HW111627   2.873   0.223   4.637
 3580SOL    HW211628   2.859   0.160   4.774
 3581SOL     OW11629   2.458   1.491   4.196
 3581SOL    HW111630   2.502   1.440   4.128
 3581SOL    HW211631   2.398   1.549   4.147
 3582SOL     OW11632   3.584   0.394   5.101
 3582SOL    HW111633   3.657   0.456   5.100
 3582SOL    HW211634   3.613   0.322   5.044
 3583SOL     OW11635   2.121   1.347   4.013
 3583SOL    HW111636   2.028   1.343   3.991
 3583SOL    HW211637   2.123   1.383   4.102
 3584SOL     OW11638   1.973   1.026   5.443
 3584SOL    HW111639   1.898   1.000   5.496
 3584SOL    HW211640   2.049   0.987   5.488
 3585SOL     OW11641   2.519   0.204   5.223
 3585SOL    HW111642   2.599   0.179   5.176
 3585SOL    HW211643   2.550   0.226   5.311
 3586SOL     OW11644   1.944   0.337   3.771
 3586SOL    HW111645   1.873   0.284   3.734
 3586SOL    HW211646   1.957   0.407   3.707
 3587SOL     OW11647   3.292   0.858   5.124
 3587SOL    HW111648   3.242   0.919   5.069
 3587SOL    HW211649   3.380   0.861   5.088
 3588SOL     OW11650   1.926   0.184   4.042
 3588SOL    HW111651   1.925   0.251   3.974
 3588SOL    HW211652   2.001   0.128   4.020
 3589SOL     OW11653   3.041   1.339   3.842
 3589SOL    HW111654   2.950   1.309   3.844
 3589SOL    HW211655   3.069   1.340   3.933
 3590SOL     OW11656   2.482   0.831   5.157
 3590SOL    HW111657   2.538   0.907   5.142
 3590SOL    HW211658   2.543   0.758   5.166
 3591SOL     OW11659   3.351   1.773   4.675
 3591SOL    HW111660   3.397   1.833   4.615
 3591SOL    HW211661   3.413   1.762   4.748
 3592SOL     OW11662   2.578   0.563   5.429
 3592SOL    HW111663   2.617   0.627   5.488
 3592SOL    HW211664   2.609   0.479   5.462
 3593SOL     OW11665   3.333   1.200   5.357
 3593SOL    HW111666   3.321   1.213   5.451
 3593SOL    HW211667   3.426   1.214   5.342
 3594SOL     OW11668   3.531   0.881   4.979
 3594SOL    HW111669   3.523   0.797   4.936
 3594SOL    HW211670   3.521   0.946   4.909
 3595SOL     OW11671   3.080   0.330   4.171
 3595SOL    HW111672   3.146   0.261   4.160
 3595SOL    HW211673   3.108   0.378   4.250
 3596SOL     OW11674   2.448   0.737   4.395
 3596SOL    HW111675   2.490   0.822   4.381
 3596SOL    HW211676   2.382   0.731   4.327
 3597SOL     OW11677   3.624   0.366   5.368
 3597SOL    HW111678   3.608   0.380   5.274
 3597SOL    HW211679   3.546   0.320   5.399
 3598SOL     OW11680   3.609   0.933   5.236
 3598SOL    HW111681   3.603   1.028   5.249
 3598SOL    HW211682   3.592   0.921   5.142
 3599SOL     OW11683   2.723   1.367   3.758
 3599SOL    HW111684   2.687   1.391   3.843
 3599SOL    HW211685   2.741   1.451   3.715
 3600SOL     OW11686   2.546   1.815   4.648
 3600SOL    HW111687   2.519   1.892   4.599
 3600SOL    HW211688   2.638   1.804   4.626
 3601SOL     OW11689   2.730   0.963   4.577
 3601SOL    HW111690   2.782   0.892   4.615
 3601SOL    HW211691   2.698   1.013   4.652
 3602SOL     OW11692   2.941   0.988   3.813
 3602SOL    HW111693   2.919   1.039   3.735
 3602SOL    HW211694   3.016   0.934   3.786
 3603SOL     OW11695   3.715   1.555   4.568
 3603SOL    HW111696   3.636   1.544   4.515
 3603SOL    HW211697   3.706   1.489   4.637
 3604SOL     OW11698   2.084   1.298   5.572
 3604SOL    HW111699   2.026   1.225   5.550
 3604SOL    HW211700   2.054   1.328   5.658
 3605SOL     OW11701   1.951   1.216   4.374
 3605SOL    HW111702   1.959   1.186   4.465
 3605SOL    HW211703   2.026   1.177   4.329
 3606SOL     OW11704   2.541   1.400   5.339
 3606SOL    HW111705   2.467   1.351   5.374
 3606SOL    HW211706   2.540   1.482   5.388
 3607SOL     OW11707   3.669   0.181   4.963
 3607SOL    HW111708   3.668   0.087   4.982
 3607SOL    HW211709   3.686   0.185   4.868
 3608SOL     OW11710   2.299   0.433   4.255
 3608SOL    HW111711   2.320   0.364   4.191
 3608SOL    HW211712   2.242   0.390   4.319
 3609SOL     OW11713   3.563   1.490   4.821
 3609SOL    HW111714   3.485   1.469   4.770
 3609SOL    HW211715   3.569   1.419   4.886
 3610SOL     OW11716   2.192   0.558   5.016
 3610SOL    HW111717   2.247   0.501   5.070
 3610SOL    HW211718   2.212   0.531   4.926
 3611SOL     OW11719   2.683   1.558   4.392
 3611SOL    HW111720   2.645   1.597   4.313
 3611SOL    HW211721   2.618   1.494   4.421
 3612SOL     OW11722   3.294   0.216   4.842
 3612SOL    HW111723   3.329   0.145   4.895
 3612SOL    HW211724   3.243   0.269   4.903
 3613SOL     OW11725   2.858   0.006   4.875
 3613SOL    HW111726   2.816   4.420   4.868
 3613SOL    HW211727   2.951   4.487   4.886
 3614SOL     OW11728   2.636   1.332   4.036
 3614SOL    HW111729   2.605   1.242   4.045
 3614SOL    HW211730   2.714   1.337   4.090
 3615SOL     OW11731   3.202   0.053   3.878
 3615SOL    HW111732   3.240   4.476   3.834
 3615SOL    HW211733   3.126   0.018   3.925
 3616SOL     OW11734   3.176   0.463   4.400
 3616SOL    HW111735   3.118   0.538   4.400
 3616SOL    HW211736   3.165   0.423   4.486
 3617SOL     OW11737   3.447   0.200   4.591
 3617SOL    HW111738   3.388   0.215   4.665
 3617SOL    HW211739   3.450   0.283   4.545
 3618SOL     OW11740   1.905   1.071   4.027
 3618SOL    HW111741   1.999   1.063   4.013
 3618SOL    HW211742   1.877   0.982   4.051
 3619SOL     OW11743   2.747   1.654   4.063
 3619SOL    HW111744   2.674   1.636   4.004
 3619SOL    HW211745   2.717   1.726   4.118
 3620SOL     OW11746   2.091   0.626   5.707
 3620SOL    HW111747   2.004   0.620   5.746
 3620SOL    HW211748   2.078   0.595   5.617
 3621SOL     OW11749   2.070   0.299   6.575
 3621SOL    HW111750   2.100   0.270   6.661
 3621SOL    HW211751   1.988   0.251   6.562
 3622SOL     OW11752   1.869   0.387   6.224
 3622SOL    HW111753   1.783   0.406   6.261
 3622SOL    HW211754   1.854   0.313   6.165
 3623SOL     OW11755   2.430   1.287   6.761
 3623SOL    HW111756   2.340   1.285   6.729
 3623SOL    HW211757   2.443   1.378   6.788
 3624SOL     OW11758   3.421   1.512   6.293
 3624SOL    HW111759   3.380   1.494   6.378
 3624SOL    HW211760   3.348   1.514   6.231
 3625SOL     OW11761   2.998   0.698   6.284
 3625SOL    HW111762   3.043   0.782   6.274
 3625SOL    HW211763   2.946   0.708   6.365
 3626SOL     OW11764   3.630   0.606   5.813
 3626SOL    HW111765   3.609   0.597   5.721
 3626SOL    HW211766   3.596   0.527   5.854
 3627SOL     OW11767   2.619   1.146   6.625
 3627SOL    HW111768   2.550   1.180   6.682
 3627SOL    HW211769   2.653   1.224   6.581
 3628SOL     OW11770   2.729   0.774   7.408
 3628SOL    HW111771   2.715   0.845   7.471
 3628SOL    HW211772   2.752   0.818   7.326
 3629SOL     OW11773   2.550   1.003   6.235
 3629SOL    HW111774   2.614   0.992   6.305
 3629SOL    HW211775   2.479   1.053   6.275
 3630SOL     OW11776   2.573   1.151   7.398
 3630SOL    HW111777   2.620   1.230   7.425
 3630SOL    HW211778   2.490   1.184   7.363
 3631SOL     OW11779   2.179   1.430   6.664
 3631SOL    HW111780   2.114   1.386   6.609
 3631SOL    HW211781   2.244   1.463   6.602
 3632SOL     OW11782   3.322   1.499   6.941
 3632SOL    HW111783   3.371   1.580   6.950
 3632SOL    HW211784   3.259   1.501   7.013
 3633SOL     OW11785   2.304   0.395   7.075
 3633SOL    HW111786   2.386   0.345   7.076
 3633SOL    HW211787   2.236   0.329   7.088
 3634SOL     OW11788   3.472   0.445   6.325
 3634SOL    HW111789   3.392   0.466   6.277
 3634SOL    HW211790   3.490   0.523   6.378
 3635SOL     OW11791   2.999   1.341   7.278
 3635SOL    HW111792   3.038   1.337   7.366
 3635SOL    HW211793   2.946   1.261   7.272
 3636SOL     OW11794   2.121   1.089   6.476
 3636SOL    HW111795   2.116   1.002   6.516
 3636SOL    HW211796   2.063   1.142   6.529
 3637SOL     OW11797   2.475   1.780   7.020
 3637SOL    HW111798   2.390   1.769   7.063
 3637SOL    HW211799   2.496   1.873   7.033
 3638SOL     OW11800   2.445   0.980   5.717
 3638SOL    HW111801   2.493   1.031   5.651
 3638SOL    HW211802   2.482   1.009   5.800
 3639SOL     OW11803   3.444   0.116   7.057
 3639SOL    HW111804   3.467   0.184   6.994
 3639SOL    HW211805   3.433   0.162   7.140
 3640SOL     OW11806   1.978   0.653   6.146
 3640SOL    HW111807   1.948   0.565   6.169
 3640SOL    HW211808   1.970   0.703   6.227
 3641SOL     OW11809   3.704   1.759   5.919
 3641SOL    HW111810   3.766   1.731   5.987
 3641SOL    HW211811   3.728   1.850   5.901
 3642SOL     OW11812   3.553   0.921   6.228
 3642SOL    HW111813   3.636   0.877   6.207
 3642SOL    HW211814   3.531   0.969   6.149
 3643SOL     OW11815   3.508   1.107   6.015
 3643SOL    HW111816   3.594   1.112   5.973
 3643SOL    HW211817   3.514   1.168   6.088
 3644SOL     OW11818   1.984   0.745   7.170
 3644SOL    HW111819   2.076   0.772   7.178
 3644SOL    HW211820   1.935   0.827   7.177
 3645SOL     OW11821   2.483   1.370   6.316
 3645SOL    HW111822   2.430   1.291   6.327
 3645SOL    HW211823   2.485   1.385   6.221
 3646SOL     OW11824   3.151   1.238   7.009
 3646SOL    HW111825   3.183   1.170   6.949
 3646SOL    HW211826   3.208   1.231   7.086
 3647SOL     OW11827   2.679   0.015   6.137
 3647SOL    HW111828   2.715   0.100   6.112
 3647SOL    HW211829   2.584   0.026   6.130
 3648SOL     OW11830   2.052   0.964   6.860
 3648SOL    HW111831   2.137   0.923   6.843
 3648SOL    HW211832   1.990   0.915   6.806
 3649SOL     OW11833   3.394   0.993   5.784
 3649SOL    HW111834   3.323   0.936   5.816
 3649SOL    HW211835   3.434   1.027   5.864
 3650SOL     OW11836   3.049   1.807   7.207
 3650SOL    HW111837   3.061   1.863   7.130
 3650SOL    HW211838   3.063   1.718   7.174
 3651SOL     OW11839   2.177   0.254   7.366
 3651SOL    HW111840   2.240   0.318   7.398
 3651SOL    HW211841   2.104   0.260   7.427
 3652SOL     OW11842   3.335   1.416   6.542
 3652SOL    HW111843   3.265   1.432   6.605
 3652SOL    HW211844   3.320   1.327   6.512
 3653SOL     OW11845   3.524   1.738   6.165
 3653SOL    HW111846   3.500   1.711   6.076
 3653SOL    HW211847   3.496   1.665   6.220
 3654SOL     OW11848   2.455   0.723   5.851
 3654SOL    HW111849   2.462   0.805   5.803
 3654SOL    HW211850   2.391   0.740   5.920
 3655SOL     OW11851   3.154   0.364   6.519
 3655SOL    HW111852   3.064   0.335   6.503
 3655SOL    HW211853   3.189   0.301   6.581
 3656SOL     OW11854   3.445   1.664   5.895
 3656SOL    HW111855   3.534   1.699   5.889
 3656SOL    HW211856   3.418   1.651   5.804
 3657SOL     OW11857   2.658   0.620   7.040
 3657SOL    HW111858   2.629   0.594   7.128
 3657SOL    HW211859   2.618   0.554   6.982
 3658SOL     OW11860   3.250   0.480   7.262
 3658SOL    HW111861   3.254   0.524   7.347
 3658SOL    HW211862   3.317   0.411   7.268
 3659SOL     OW11863   2.817   0.888   7.169
 3659SOL    HW111864   2.871   0.817   7.133
 3659SOL    HW211865   2.769   0.922   7.093
 3660SOL     OW11866   2.858   0.417   6.822
 3660SOL    HW111867   2.770   0.427   6.857
 3660SOL    HW211868   2.847   0.365   6.742
 3661SOL     OW11869   2.913   0.697   6.013
 3661SOL    HW111870   2.928   0.689   6.107
 3661SOL    HW211871   2.829   0.652   5.999
 3662SOL     OW11872   1.950   0.820   6.362
 3662SOL    HW111873   2.031   0.815   6.413
 3662SOL    HW211874   1.905   0.898   6.397
 3663SOL     OW11875   1.967   1.796   7.153
 3663SOL    HW111876   1.972   1.791   7.248
 3663SOL    HW211877   1.880   1.833   7.135
 3664SOL     OW11878   2.717   0.369   5.769
 3664SOL    HW111879   2.788   0.403   5.716
 3664SOL    HW211880   2.732   0.275   5.772
 3665SOL     OW11881   3.567   0.573   7.414
 3665SOL    HW111882   3.530   0.648   7.366
 3665SOL    HW211883   3.602   0.516   7.346
 3666SOL     OW11884   3.242   1.141   6.125
 3666SOL    HW111885   3.323   1.126   6.076
 3666SOL    HW211886   3.192   1.202   6.070
 3667SOL     OW11887   2.400   0.204   6.487
 3667SOL    HW111888   2.421   0.222   6.579
 3667SOL    HW211889   2.391   0.291   6.447
 3668SOL     OW11890   3.660   1.059   6.454
 3668SOL    HW111891   3.606   1.038   6.378
 3668SOL    HW211892   3.598   1.064   6.527
 3669SOL     OW11893   3.091   1.538   7.100
 3669SOL    HW111894   3.076   1.465   7.159
 3669SOL    HW211895   3.027   1.526   7.030
 3670SOL     OW11896   2.180   0.952   5.836
 3670SOL    HW111897   2.262   0.975   5.793
 3670SOL    HW211898   2.153   0.870   5.794
 3671SOL     OW11899   3.342   0.743   6.310
 3671SOL    HW111900   3.330   0.699   6.394
 3671SOL    HW211901   3.418   0.798   6.323
 3672SOL     OW11902   2.328   1.264   7.324
 3672SOL    HW111903   2.301   1.269   7.233
 3672SOL    HW211904   2.246   1.262   7.374
 3673SOL     OW11905   2.049   0.268   7.098
 3673SOL    HW111906   1.984   0.336   7.083
 3673SOL    HW211907   2.065   0.270   7.193
 3674SOL     OW11908   3.491   1.380   5.673
 3674SOL    HW111909   3.450   1.465   5.659
 3674SOL    HW211910   3.423   1.316   5.655
 3675SOL     OW11911   3.284   0.140   6.003
 3675SOL    HW111912   3.267   0.087   5.925
 3675SOL    HW211913   3.378   0.131   6.019
 3676SOL     OW11914   2.102   1.765   6.816
 3676SOL    HW111915   2.163   1.717   6.873
 3676SOL    HW211916   2.128   1.740   6.728
 3677SOL     OW11917   2.255   0.694   6.062
 3677SOL    HW111918   2.277   0.602   6.075
 3677SOL    HW211919   2.161   0.699   6.080
 3678SOL     OW11920   3.387   0.233   7.309
 3678SOL    HW111921   3.387   0.255   7.402
 3678SOL    HW211922   3.308   0.179   7.297
 3679SOL     OW11923   2.490   0.121   5.709
 3679SOL    HW111924   2.579   0.085   5.717
 3679SOL    HW211925   2.457   0.085   5.627
 3680SOL     OW11926   2.630   0.271   7.340
 3680SOL    HW111927   2.696   0.202   7.349
 3680SOL    HW211928   2.587   0.274   7.426
 3681SOL     OW11929   2.735   1.518   6.781
 3681SOL    HW111930   2.724   1.486   6.691
 3681SOL    HW211931   2.808   1.467   6.816
 3682SOL     OW11932   3.203   0.589   7.014
 3682SOL    HW111933   3.231   0.560   7.102
 3682SOL    HW211934   3.237   0.678   7.007
 3683SOL     OW11935   2.681   1.401   6.519
 3683SOL    HW111936   2.767   1.387   6.480
 3683SOL    HW211937   2.620   1.395   6.445
 3684SOL     OW11938   2.786   0.519   6.485
 3684SOL    HW111939   2.769   0.517   6.391
 3684SOL    HW211940   2.822   0.433   6.505
 3685SOL     OW11941   2.417   0.076   6.107
 3685SOL    HW111942   2.329   0.048   6.131
 3685SOL    HW211943   2.403   0.141   6.038
 3686SOL     OW11944   3.291   1.199   5.628
 3686SOL    HW111945   3.321   1.122   5.677
 3686SOL    HW211946   3.204   1.218   5.664
 3687SOL     OW11947   2.157   0.067   5.785
 3687SOL    HW111948   2.235   0.121   5.769
 3687SOL    HW211949   2.187   0.000   5.846
 3688SOL     OW11950   2.815   0.239   6.052
 3688SOL    HW111951   2.763   0.298   5.998
 3688SOL    HW211952   2.904   0.275   6.048
 3689SOL     OW11953   2.942   0.681   7.047
 3689SOL    HW111954   2.871   0.617   7.046
 3689SOL    HW211955   3.021   0.629   7.035
 3690SOL     OW11956   3.112   1.556   6.375
 3690SOL    HW111957   3.130   1.633   6.322
 3690SOL    HW211958   3.152   1.576   6.460
 3691SOL     OW11959   2.330   1.148   6.318
 3691SOL    HW111960   2.260   1.128   6.381
 3691SOL    HW211961   2.291   1.130   6.232
 3692SOL     OW11962   3.164   1.784   6.214
 3692SOL    HW111963   3.219   1.836   6.154
 3692SOL    HW211964   3.078   1.825   6.210
 3693SOL     OW11965   2.891   0.547   5.603
 3693SOL    HW111966   2.843   0.628   5.588
 3693SOL    HW211967   2.949   0.567   5.676
 3694SOL     OW11968   1.945   0.550   6.982
 3694SOL    HW111969   2.035   0.554   6.951
 3694SOL    HW211970   1.937   0.622   7.044
 3695SOL     OW11971   2.424   0.244   6.753
 3695SOL    HW111972   2.451   0.162   6.794
 3695SOL    HW211973   2.332   0.255   6.777
 3696SOL     OW11974   2.728   0.504   6.212
 3696SOL    HW111975   2.684   0.544   6.138
 3696SOL    HW211976   2.690   0.416   6.218
 3697SOL     OW11977   2.824   0.024   6.370
 3697SOL    HW111978   2.775   0.023   6.288
 3697SOL    HW211979   2.837   4.431   6.391
 3698SOL     OW11980   3.299   1.162   6.443
 3698SOL    HW111981   3.230   1.096   6.443
 3698SOL    HW211982   3.322   1.173   6.351
 3699SOL     OW11983   3.328   0.605   6.560
 3699SOL    HW111984   3.274   0.526   6.562
 3699SOL    HW211985   3.385   0.597   6.636
 3700SOL     OW11986   3.707   0.816   5.969
 3700SOL    HW111987   3.764   0.765   6.027
 3700SOL    HW211988   3.679   0.754   5.902
 3701SOL     OW11989   3.532   1.265   6.230
 3701SOL    HW111990   3.627   1.268   6.246
 3701SOL    HW211991   3.501   1.353   6.253
 3702SOL     OW11992   3.257   0.571   5.656
 3702SOL    HW111993   3.194   0.555   5.727
 3702SOL    HW211994   3.342   0.552   5.694
 3703SOL     OW11995   2.383   0.265   5.909
 3703SOL    HW111996   2.431   0.215   5.843
 3703SOL    HW211997   2.365   0.349   5.866
 3704SOL     OW11998   3.614   1.239   7.158
 3704SOL    HW111999   3.701   1.200   7.155
 3704SOL    HW212000   3.629   1.329   7.188
 3705SOL     OW12001   2.921   1.353   6.919
 3705SOL    HW112002   2.846   1.323   6.970
 3705SOL    HW212003   2.997   1.312   6.961
 3706SOL     OW12004   3.470   1.626   7.241
 3706SOL    HW112005   3.464   1.659   7.151
 3706SOL    HW212006   3.553   1.578   7.242
 3707SOL     OW12007   2.990   1.203   6.692
 3707SOL    HW112008   2.932   1.241   6.757
 3707SOL    HW212009   2.957   1.235   6.608
 3708SOL     OW12010   3.490   1.098   6.664
 3708SOL    HW112011   3.485   1.161   6.736
 3708SOL    HW212012   3.411   1.115   6.613
 3709SOL     OW12013   2.764   0.133   6.974
 3709SOL    HW112014   2.786   0.089   6.891
 3709SOL    HW212015   2.848   0.149   7.016
 3710SOL     OW12016   2.846   1.115   7.309
 3710SOL    HW112017   2.754   1.131   7.330
 3710SOL    HW212018   2.845   1.037   7.253
 3711SOL     OW12019   2.559   1.043   5.956
 3711SOL    HW112020   2.553   1.037   6.051
 3711SOL    HW212021   2.642   1.000   5.935
 3712SOL     OW12022   2.282   0.816   6.837
 3712SOL    HW112023   2.350   0.825   6.903
 3712SOL    HW212024   2.246   0.728   6.851
 3713SOL     OW12025   3.130   0.375   6.859
 3713SOL    HW112026   3.162   0.454   6.903
 3713SOL    HW212027   3.041   0.397   6.833
 3714SOL     OW12028   1.926   1.567   6.936
 3714SOL    HW112029   1.893   1.641   6.886
 3714SOL    HW212030   2.021   1.580   6.938
 3715SOL     OW12031   2.217   1.106   6.077
 3715SOL    HW112032   2.196   1.174   6.013
 3715SOL    HW212033   2.219   1.025   6.026
 3716SOL     OW12034   2.418   0.529   6.444
 3716SOL    HW112035   2.431   0.588   6.370
 3716SOL    HW212036   2.482   0.557   6.509
 3717SOL     OW12037   3.107   1.346   5.973
 3717SOL    HW112038   3.161   1.419   6.002
 3717SOL    HW212039   3.030   1.349   6.030
 3718SOL     OW12040   3.145   1.456   6.731
 3718SOL    HW112041   3.198   1.460   6.810
 3718SOL    HW212042   3.086   1.381   6.745
 3719SOL     OW12043   3.443   0.623   6.063
 3719SOL    HW112044   3.396   0.673   6.131
 3719SOL    HW212045   3.487   0.690   6.011
 3720SOL     OW12046   2.214   1.520   6.911
 3720SOL    HW112047   2.193   1.484   6.825
 3720SOL    HW212048   2.308   1.533   6.909
 3721SOL     OW12049   2.277   0.743   7.189
 3721SOL    HW112050   2.336   0.790   7.130
 3721SOL    HW212051   2.322   0.660   7.206
 3722SOL     OW12052   3.464   0.778   7.267
 3722SOL    HW112053   3.378   0.820   7.261
 3722SOL    HW212054   3.516   0.820   7.199
 3723SOL     OW12055   2.866   0.085   7.305
 3723SOL    HW112056   2.897   0.167   7.267
 3723SOL    HW212057   2.891   0.018   7.241
 3724SOL     OW12058   2.361   0.045   7.346
 3724SOL    HW112059   2.360   0.006   7.259
 3724SOL    HW212060   2.294   0.113   7.342
 3725SOL     OW12061   2.445   0.874   6.617
 3725SOL    HW112062   2.474   0.965   6.616
 3725SOL    HW212063   2.389   0.867   6.694
 3726SOL     OW12064   3.219   0.858   6.615
 3726SOL    HW112065   3.135   0.848   6.571
 3726SOL    HW212066   3.260   0.772   6.608
 3727SOL     OW12067   3.066   0.535   5.848
 3727SOL    HW112068   3.072   0.455   5.900
 3727SOL    HW212069   3.022   0.598   5.906
 3728SOL     OW12070   2.152   0.233   6.827
 3728SOL    HW112071   2.108   0.249   6.911
 3728SOL    HW212072   2.188   0.145   6.836
 3729SOL     OW12073   1.901   1.308   6.863
 3729SOL    HW112074   1.939   1.256   6.934
 3729SOL    HW212075   1.912   1.399   6.892
 3730SOL     OW12076   2.584   0.631   6.643
 3730SOL    HW112077   2.659   0.613   6.586
 3730SOL    HW212078   2.558   0.720   6.620
 3731SOL     OW12079   3.597   0.959   7.438
 3731SOL    HW112080   3.550   0.898   7.381
 3731SOL    HW212081   3.537   0.973   7.512
 3732SOL     OW12082   2.159   0.054   6.239
 3732SOL    HW112083   2.148   0.149   6.241
 3732SOL    HW212084   2.170   0.029   6.331
 3733SOL     OW12085   3.478   0.379   5.948
 3733SOL    HW112086   3.506   0.314   6.013
 3733SOL    HW212087   3.454   0.456   5.999
 3734SOL     OW12088   2.892   0.762   6.547
 3734SOL    HW112089   2.887   0.778   6.642
 3734SOL    HW212090   2.862   0.671   6.537
 3735SOL     OW12091   2.846   1.566   7.304
 3735SOL    HW112092   2.828   1.609   7.220
 3735SOL    HW212093   2.888   1.484   7.280
 3736SOL     OW12094   3.717   1.505   7.192
 3736SOL    HW112095   3.734   1.532   7.101
 3736SOL    HW212096   3.798   1.524   7.239
 3737SOL     OW12097   2.216   0.916   7.394
 3737SOL    HW112098   2.298   0.935   7.440
 3737SOL    HW212099   2.240   0.853   7.327
 3738SOL     OW12100   3.392   0.264   5.714
 3738SOL    HW112101   3.321   0.208   5.744
 3738SOL    HW212102   3.422   0.310   5.793
 3739SOL     OW12103   3.154   0.826   5.616
 3739SOL    HW112104   3.196   0.740   5.619
 3739SOL    HW212105   3.185   0.865   5.535
 3740SOL     OW12106   2.930   1.335   6.438
 3740SOL    HW112107   2.934   1.262   6.377
 3740SOL    HW212108   2.996   1.397   6.407
 3741SOL     OW12109   2.171   0.809   6.533
 3741SOL    HW112110   2.264   0.832   6.526
 3741SOL    HW212111   2.170   0.720   6.566
 3742SOL     OW12112   2.198   0.532   6.600
 3742SOL    HW112113   2.156   0.448   6.580
 3742SOL    HW212114   2.274   0.534   6.541
 3743SOL     OW12115   2.998   0.373   7.283
 3743SOL    HW112116   2.947   0.437   7.333
 3743SOL    HW212117   3.083   0.415   7.269
 3744SOL     OW12118   3.019   0.213   7.059
 3744SOL    HW112119   3.013   0.276   7.130
 3744SOL    HW212120   3.059   0.261   6.987
 3745SOL     OW12121   1.881   1.320   5.780
 3745SOL    HW112122   1.797   1.348   5.743
 3745SOL    HW212123   1.865   1.231   5.812
 3746SOL     OW12124   2.388   1.524   6.522
 3746SOL    HW112125   2.451   1.597   6.525
 3746SOL    HW212126   2.421   1.468   6.452
 3747SOL     OW12127   2.845   0.793   6.813
 3747SOL    HW112128   2.901   0.770   6.888
 3747SOL    HW212129   2.760   0.753   6.833
 3748SOL     OW12130   1.895   0.542   6.705
 3748SOL    HW112131   1.973   0.526   6.651
 3748SOL    HW212132   1.928   0.548   6.794
 3749SOL     OW12133   2.047   0.520   7.307
 3749SOL    HW112134   2.122   0.500   7.252
 3749SOL    HW212135   2.006   0.596   7.266
 3750SOL     OW12136   3.240   0.938   7.245
 3750SOL    HW112137   3.260   1.032   7.243
 3750SOL    HW212138   3.236   0.913   7.152
 3751SOL     OW12139   2.673   0.576   5.942
 3751SOL    HW112140   2.676   0.504   5.878
 3751SOL    HW212141   2.599   0.630   5.913
 3752SOL     OW12142   3.502   0.602   6.772
 3752SOL    HW112143   3.492   0.542   6.846
 3752SOL    HW212144   3.589   0.583   6.738
 3753SOL     OW12145   2.112   1.547   7.315
 3753SOL    HW112146   2.083   1.611   7.380
 3753SOL    HW212147   2.110   1.463   7.361
 3754SOL     OW12148   2.562   0.459   6.849
 3754SOL    HW112149   2.515   0.382   6.818
 3754SOL    HW212150   2.562   0.520   6.776
 3755SOL     OW12151   2.791   1.675   7.054
 3755SOL    HW112152   2.763   1.641   6.969
 3755SOL    HW212153   2.786   1.770   7.044
 3756SOL     OW12154   2.326   0.493   5.770
 3756SOL    HW112155   2.385   0.565   5.792
 3756SOL    HW212156   2.241   0.534   5.758
 3757SOL     OW12157   2.007   1.141   7.059
 3757SOL    HW112158   2.010   1.089   7.140
 3757SOL    HW212159   2.024   1.077   6.990
 3758SOL     OW12160   3.188   1.047   6.809
 3758SOL    HW112161   3.211   0.983   6.741
 3758SOL    HW212162   3.117   1.099   6.770
 3759SOL     OW12163   3.174   0.858   5.892
 3759SOL    HW112164   3.099   0.826   5.944
 3759SOL    HW212165   3.147   0.844   5.801
 3760SOL     OW12166   3.635   1.744   6.737
 3760SOL    HW112167   3.695   1.769   6.666
 3760SOL    HW212168   3.610   1.654   6.715
 3761SOL     OW12169   3.117   1.735   6.709
 3761SOL    HW112170   3.196   1.750   6.656
 3761SOL    HW212171   3.113   1.640   6.719
 3762SOL     OW12172   1.952   1.258   6.602
 3762SOL    HW112173   1.934   1.275   6.695
 3762SOL    HW212174   1.872   1.217   6.569
 3763SOL     OW12175   2.539   1.666   7.315
 3763SOL    HW112176   2.485   1.745   7.315
 3763SOL    HW212177   2.600   1.679   7.242
 3764SOL     OW12178   3.580   0.129   6.078
 3764SOL    HW112179   3.651   0.138   6.014
 3764SOL    HW212180   3.609   0.058   6.135
 3765SOL     OW12181   3.249   1.565   6.063
 3765SOL    HW112182   3.313   1.596   6.000
 3765SOL    HW212183   3.216   1.644   6.105
 3766SOL     OW12184   1.994   1.789   7.420
 3766SOL    HW112185   1.953   1.729   7.482
 3766SOL    HW212186   2.041   1.852   7.476
 3767SOL     OW12187   3.141   0.928   6.259
 3767SOL    HW112188   3.213   0.866   6.265
 3767SOL    HW212189   3.175   0.999   6.205
 3768SOL     OW12190   2.676   1.274   7.015
 3768SOL    HW112191   2.647   1.313   7.098
 3768SOL    HW212192   2.607   1.296   6.953
 3769SOL     OW12193   3.490   1.727   6.978
 3769SOL    HW112194   3.538   1.734   6.896
 3769SOL    HW212195   3.475   1.817   7.005
 3770SOL     OW12196   3.701   0.154   6.552
 3770SOL    HW112197   3.732   0.077   6.504
 3770SOL    HW212198   3.614   0.171   6.515
 3771SOL     OW12199   2.126   0.321   6.303
 3771SOL    HW112200   2.041   0.356   6.276
 3771SOL    HW212201   2.120   0.314   6.398
 3772SOL     OW12202   3.082   1.606   5.613
 3772SOL    HW112203   3.066   1.519   5.648
 3772SOL    HW212204   3.006   1.624   5.557
 3773SOL     OW12205   2.686   1.006   6.959
 3773SOL    HW112206   2.729   1.001   6.874
 3773SOL    HW212207   2.685   1.099   6.980
 3774SOL     OW12208   2.781   0.911   5.876
 3774SOL    HW112209   2.843   0.943   5.811
 3774SOL    HW212210   2.828   0.840   5.921
 3775SOL     OW12211   3.356   1.628   5.629
 3775SOL    HW112212   3.262   1.618   5.617
 3775SOL    HW212213   3.391   1.631   5.540
 3776SOL     OW12214   2.232   1.299   7.079
 3776SOL    HW112215   2.221   1.378   7.026
 3776SOL    HW212216   2.153   1.247   7.062
 3777SOL     OW12217   3.474   1.283   6.867
 3777SOL    HW112218   3.531   1.271   6.943
 3777SOL    HW212219   3.412   1.352   6.894
 3778SOL     OW12220   2.916   1.108   6.288
 3778SOL    HW112221   2.844   1.060   6.329
 3778SOL    HW212222   2.978   1.040   6.262
 3779SOL     OW12223   2.867   0.244   6.592
 3779SOL    HW112224   2.873   0.222   6.499
 3779SOL    HW212225   2.859   0.160   6.636
 3780SOL     OW12226   3.584   0.394   6.963
 3780SOL    HW112227   3.657   0.456   6.962
 3780SOL    HW212228   3.613   0.322   6.906
 3781SOL     OW12229   2.115   1.299   5.919
 3781SOL    HW112230   2.033   1.306   5.871
 3781SOL    HW212231   2.112   1.370   5.983
 3782SOL     OW12232   1.975   1.022   7.306
 3782SOL    HW112233   1.899   0.999   7.359
 3782SOL    HW212234   2.049   0.984   7.353
 3783SOL     OW12235   2.520   0.204   7.085
 3783SOL    HW112236   2.599   0.179   7.038
 3783SOL    HW212237   2.550   0.226   7.173
 3784SOL     OW12238   1.944   0.337   5.633
 3784SOL    HW112239   1.873   0.284   5.597
 3784SOL    HW212240   1.957   0.407   5.569
 3785SOL     OW12241   3.292   0.858   6.986
 3785SOL    HW112242   3.242   0.919   6.930
 3785SOL    HW212243   3.381   0.861   6.951
 3786SOL     OW12244   1.926   0.184   5.904
 3786SOL    HW112245   1.925   0.251   5.836
 3786SOL    HW212246   2.001   0.128   5.882
 3787SOL     OW12247   3.040   1.340   5.703
 3787SOL    HW112248   2.951   1.304   5.705
 3787SOL    HW212249   3.069   1.339   5.795
 3788SOL     OW12250   2.481   0.830   7.020
 3788SOL    HW112251   2.537   0.907   7.005
 3788SOL    HW212252   2.543   0.757   7.028
 3789SOL     OW12253   3.349   1.776   6.562
 3789SOL    HW112254   3.372   1.832   6.488
 3789SOL    HW212255   3.432   1.759   6.606
 3790SOL     OW12256   2.578   0.563   7.291
 3790SOL    HW112257   2.617   0.627   7.350
 3790SOL    HW212258   2.609   0.478   7.324
 3791SOL     OW12259   3.333   1.200   7.218
 3791SOL    HW112260   3.321   1.214   7.312
 3791SOL    HW212261   3.427   1.215   7.204
 3792SOL     OW12262   2.237   1.740   7.151
 3792SOL    HW112263   2.149   1.770   7.129
 3792SOL    HW212264   2.225   1.655   7.192
 3793SOL     OW12265   3.531   0.881   6.841
 3793SOL    HW112266   3.524   0.796   6.798
 3793SOL    HW212267   3.521   0.945   6.771
 3794SOL     OW12268   3.080   0.330   6.033
 3794SOL    HW112269   3.146   0.261   6.022
 3794SOL    HW212270   3.108   0.377   6.112
 3795SOL     OW12271   2.449   0.738   6.257
 3795SOL    HW112272   2.491   0.822   6.241
 3795SOL    HW212273   2.382   0.731   6.189
 3796SOL     OW12274   3.624   0.366   7.230
 3796SOL    HW112275   3.608   0.380   7.136
 3796SOL    HW212276   3.546   0.320   7.261
 3797SOL     OW12277   3.609   0.933   7.098
 3797SOL    HW112278   3.603   1.028   7.111
 3797SOL    HW212279   3.592   0.921   7.004
 3798SOL     OW12280   2.723   1.375   5.612
 3798SOL    HW112281   2.682   1.421   5.686
 3798SOL    HW212282   2.748   1.444   5.551
 3799SOL     OW12283   2.732   0.970   6.441
 3799SOL    HW112284   2.781   0.897   6.480
 3799SOL    HW212285   2.696   1.017   6.516
 3800SOL     OW12286   2.946   0.992   5.676
 3800SOL    HW112287   2.919   1.038   5.597
 3800SOL    HW212288   3.018   0.936   5.648
 3801SOL     OW12289   3.716   1.555   6.431
 3801SOL    HW112290   3.639   1.544   6.376
 3801SOL    HW212291   3.708   1.488   6.499
 3802SOL     OW12292   2.087   1.302   7.442
 3802SOL    HW112293   2.020   1.241   7.412
 3802SOL    HW212294   2.069   1.312   7.536
 3803SOL     OW12295   1.943   1.230   6.246
 3803SOL    HW112296   1.956   1.185   6.330
 3803SOL    HW212297   2.019   1.205   6.193
 3804SOL     OW12298   2.544   1.403   7.214
 3804SOL    HW112299   2.464   1.360   7.244
 3804SOL    HW212300   2.539   1.491   7.251
 3805SOL     OW12301   3.669   0.181   6.825
 3805SOL    HW112302   3.668   0.087   6.845
 3805SOL    HW212303   3.686   0.185   6.730
 3806SOL     OW12304   2.299   0.432   6.117
 3806SOL    HW112305   2.320   0.364   6.053
 3806SOL    HW212306   2.242   0.390   6.181
 3807SOL     OW12307   3.563   1.490   6.683
 3807SOL    HW112308   3.483   1.467   6.636
 3807SOL    HW212309   3.573   1.420   6.748
 3808SOL     OW12310   2.192   0.557   6.878
 3808SOL    HW112311   2.247   0.501   6.932
 3808SOL    HW212312   2.211   0.531   6.788
 3809SOL     OW12313   3.294   0.216   6.703
 3809SOL    HW112314   3.329   0.145   6.757
 3809SOL    HW212315   3.243   0.269   6.765
 3810SOL     OW12316   2.858   0.006   6.737
 3810SOL    HW112317   2.816   4.421   6.730
 3810SOL    HW212318   2.951   4.487   6.748
 3811SOL     OW12319   2.481   1.556   6.868
 3811SOL    HW112320   2.484   1.635   6.921
 3811SOL    HW212321   2.570   1.547   6.833
 3812SOL     OW12322   3.202   0.052   5.740
 3812SOL    HW112323   3.241   4.476   5.696
 3812SOL    HW212324   3.126   0.018   5.787
 3813SOL     OW12325   3.177   0.463   6.262
 3813SOL    HW112326   3.118   0.538   6.263
 3813SOL    HW212327   3.165   0.422   6.348
 3814SOL     OW12328   3.447   0.199   6.453
 3814SOL    HW112329   3.388   0.215   6.527
 3814SOL    HW212330   3.450   0.283   6.407
 3815SOL     OW12331   1.901   1.069   5.891
 3815SOL    HW112332   1.995   1.065   5.878
 3815SOL    HW212333   1.876   0.979   5.914
 3816SOL     OW12334   2.091   0.626   7.569
 3816SOL    HW112335   2.003   0.619   7.608
 3816SOL    HW212336   2.079   0.596   7.479
 3817SOL     OW12337   2.070   0.299   8.438
 3817SOL    HW112338   2.100   0.270   8.523
 3817SOL    HW212339   1.988   0.251   8.424
 3818SOL     OW12340   1.869   0.387   8.086
 3818SOL    HW112341   1.783   0.405   8.123
 3818SOL    HW212342   1.855   0.313   8.026
 3819SOL     OW12343   2.430   1.288   8.623
 3819SOL    HW112344   2.341   1.290   8.586
 3819SOL    HW212345   2.444   1.377   8.656
 3820SOL     OW12346   3.424   1.512   8.155
 3820SOL    HW112347   3.381   1.491   8.238
 3820SOL    HW212348   3.352   1.516   8.091
 3821SOL     OW12349   2.997   0.698   8.146
 3821SOL    HW112350   3.043   0.782   8.136
 3821SOL    HW212351   2.946   0.708   8.227
 3822SOL     OW12352   3.630   0.606   7.675
 3822SOL    HW112353   3.609   0.597   7.583
 3822SOL    HW212354   3.596   0.527   7.716
 3823SOL     OW12355   2.618   1.143   8.490
 3823SOL    HW112356   2.549   1.177   8.546
 3823SOL    HW212357   2.653   1.220   8.444
 3824SOL     OW12358   2.729   0.774   9.270
 3824SOL    HW112359   2.715   0.845   9.333
 3824SOL    HW212360   2.752   0.818   9.189
 3825SOL     OW12361   2.548   1.003   8.094
 3825SOL    HW112362   2.613   0.991   8.164
 3825SOL    HW212363   2.479   1.054   8.135
 3826SOL     OW12364   2.573   1.151   9.260
 3826SOL    HW112365   2.620   1.230   9.287
 3826SOL    HW212366   2.490   1.184   9.225
 3827SOL     OW12367   2.193   1.424   8.517
 3827SOL    HW112368   2.119   1.388   8.469
 3827SOL    HW212369   2.242   1.474   8.451
 3828SOL     OW12370   3.323   1.499   8.803
 3828SOL    HW112371   3.373   1.580   8.813
 3828SOL    HW212372   3.259   1.501   8.875
 3829SOL     OW12373   2.304   0.395   8.937
 3829SOL    HW112374   2.386   0.346   8.938
 3829SOL    HW212375   2.236   0.329   8.950
 3830SOL     OW12376   3.472   0.445   8.187
 3830SOL    HW112377   3.392   0.466   8.139
 3830SOL    HW212378   3.490   0.523   8.239
 3831SOL     OW12379   2.082   1.718   7.922
 3831SOL    HW112380   2.117   1.757   8.003
 3831SOL    HW212381   2.159   1.705   7.867
 3832SOL     OW12382   2.999   1.341   9.140
 3832SOL    HW112383   3.038   1.337   9.227
 3832SOL    HW212384   2.946   1.262   9.134
 3833SOL     OW12385   2.088   1.441   7.983
 3833SOL    HW112386   2.064   1.534   7.993
 3833SOL    HW212387   2.031   1.396   8.046
 3834SOL     OW12388   2.121   1.090   8.339
 3834SOL    HW112389   2.116   1.003   8.380
 3834SOL    HW212390   2.062   1.144   8.392
 3835SOL     OW12391   2.476   1.784   8.882
 3835SOL    HW112392   2.391   1.771   8.925
 3835SOL    HW212393   2.497   1.876   8.897
 3836SOL     OW12394   2.448   0.982   7.582
 3836SOL    HW112395   2.493   1.031   7.514
 3836SOL    HW212396   2.487   1.013   7.664
 3837SOL     OW12397   3.444   0.115   8.919
 3837SOL    HW112398   3.467   0.183   8.856
 3837SOL    HW212399   3.433   0.162   9.002
 3838SOL     OW12400   1.978   0.653   8.008
 3838SOL    HW112401   1.948   0.565   8.030
 3838SOL    HW212402   1.970   0.702   8.090
 3839SOL     OW12403   3.704   1.759   7.782
 3839SOL    HW112404   3.767   1.730   7.848
 3839SOL    HW212405   3.728   1.850   7.764
 3840SOL     OW12406   1.899   1.597   7.580
 3840SOL    HW112407   1.882   1.504   7.588
 3840SOL    HW212408   1.863   1.635   7.660
 3841SOL     OW12409   3.553   0.921   8.090
 3841SOL    HW112410   3.636   0.877   8.068
 3841SOL    HW212411   3.530   0.970   8.011
 3842SOL     OW12412   3.508   1.107   7.877
 3842SOL    HW112413   3.594   1.112   7.835
 3842SOL    HW212414   3.513   1.168   7.950
 3843SOL     OW12415   1.984   0.745   9.032
 3843SOL    HW112416   2.076   0.772   9.040
 3843SOL    HW212417   1.935   0.826   9.040
 3844SOL     OW12418   2.476   1.385   8.182
 3844SOL    HW112419   2.430   1.302   8.191
 3844SOL    HW212420   2.459   1.412   8.091
 3845SOL     OW12421   3.151   1.238   8.871
 3845SOL    HW112422   3.183   1.171   8.811
 3845SOL    HW212423   3.208   1.232   8.947
 3846SOL     OW12424   2.679   0.015   7.999
 3846SOL    HW112425   2.715   0.100   7.974
 3846SOL    HW212426   2.584   0.026   7.992
 3847SOL     OW12427   2.052   0.965   8.721
 3847SOL    HW112428   2.137   0.924   8.705
 3847SOL    HW212429   1.990   0.913   8.671
 3848SOL     OW12430   3.394   0.993   7.647
 3848SOL    HW112431   3.323   0.936   7.678
 3848SOL    HW212432   3.434   1.028   7.726
 3849SOL     OW12433   3.050   1.806   9.070
 3849SOL    HW112434   3.059   1.864   8.994
 3849SOL    HW212435   3.064   1.718   9.035
 3850SOL     OW12436   2.177   0.254   9.228
 3850SOL    HW112437   2.240   0.318   9.260
 3850SOL    HW212438   2.104   0.260   9.289
 3851SOL     OW12439   3.328   1.419   8.399
 3851SOL    HW112440   3.260   1.435   8.465
 3851SOL    HW212441   3.316   1.328   8.372
 3852SOL     OW12442   3.520   1.740   8.026
 3852SOL    HW112443   3.500   1.710   7.937
 3852SOL    HW212444   3.496   1.666   8.082
 3853SOL     OW12445   2.455   0.723   7.713
 3853SOL    HW112446   2.460   0.805   7.664
 3853SOL    HW212447   2.390   0.740   7.781
 3854SOL     OW12448   3.154   0.364   8.381
 3854SOL    HW112449   3.064   0.334   8.365
 3854SOL    HW212450   3.189   0.301   8.443
 3855SOL     OW12451   3.442   1.670   7.757
 3855SOL    HW112452   3.533   1.702   7.750
 3855SOL    HW212453   3.415   1.654   7.667
 3856SOL     OW12454   2.657   0.620   8.902
 3856SOL    HW112455   2.629   0.594   8.990
 3856SOL    HW212456   2.618   0.554   8.844
 3857SOL     OW12457   3.250   0.480   9.124
 3857SOL    HW112458   3.254   0.524   9.209
 3857SOL    HW212459   3.317   0.411   9.130
 3858SOL     OW12460   2.817   0.888   9.031
 3858SOL    HW112461   2.871   0.817   8.996
 3858SOL    HW212462   2.769   0.921   8.955
 3859SOL     OW12463   2.858   0.417   8.684
 3859SOL    HW112464   2.770   0.426   8.719
 3859SOL    HW212465   2.847   0.365   8.604
 3860SOL     OW12466   2.912   0.697   7.875
 3860SOL    HW112467   2.928   0.689   7.969
 3860SOL    HW212468   2.829   0.652   7.861
 3861SOL     OW12469   1.951   0.821   8.224
 3861SOL    HW112470   2.032   0.814   8.275
 3861SOL    HW212471   1.907   0.899   8.259
 3862SOL     OW12472   1.973   1.796   9.013
 3862SOL    HW112473   1.968   1.792   9.108
 3862SOL    HW212474   1.902   1.855   8.987
 3863SOL     OW12475   2.717   0.369   7.632
 3863SOL    HW112476   2.788   0.403   7.578
 3863SOL    HW212477   2.731   0.275   7.634
 3864SOL     OW12478   3.566   0.573   9.276
 3864SOL    HW112479   3.530   0.648   9.228
 3864SOL    HW212480   3.602   0.516   9.208
 3865SOL     OW12481   3.240   1.143   7.989
 3865SOL    HW112482   3.318   1.130   7.936
 3865SOL    HW212483   3.186   1.204   7.939
 3866SOL     OW12484   2.400   0.204   8.349
 3866SOL    HW112485   2.421   0.222   8.441
 3866SOL    HW212486   2.392   0.291   8.309
 3867SOL     OW12487   2.868   1.445   7.920
 3867SOL    HW112488   2.830   1.517   7.871
 3867SOL    HW212489   2.850   1.466   8.011
 3868SOL     OW12490   2.212   1.788   8.288
 3868SOL    HW112491   2.252   1.703   8.304
 3868SOL    HW212492   2.282   1.852   8.303
 3869SOL     OW12493   3.660   1.060   8.316
 3869SOL    HW112494   3.607   1.038   8.240
 3869SOL    HW212495   3.598   1.064   8.389
 3870SOL     OW12496   3.090   1.538   8.961
 3870SOL    HW112497   3.076   1.466   9.022
 3870SOL    HW212498   3.026   1.525   8.892
 3871SOL     OW12499   2.182   0.957   7.698
 3871SOL    HW112500   2.263   0.976   7.652
 3871SOL    HW212501   2.151   0.875   7.659
 3872SOL     OW12502   3.342   0.743   8.172
 3872SOL    HW112503   3.330   0.699   8.256
 3872SOL    HW212504   3.419   0.798   8.185
 3873SOL     OW12505   2.329   1.264   9.187
 3873SOL    HW112506   2.301   1.268   9.095
 3873SOL    HW212507   2.246   1.262   9.236
 3874SOL     OW12508   2.984   1.776   7.680
 3874SOL    HW112509   2.910   1.735   7.724
 3874SOL    HW212510   3.007   1.716   7.610
 3875SOL     OW12511   2.050   0.268   8.960
 3875SOL    HW112512   1.984   0.335   8.945
 3875SOL    HW212513   2.065   0.270   9.055
 3876SOL     OW12514   3.491   1.380   7.535
 3876SOL    HW112515   3.449   1.465   7.521
 3876SOL    HW212516   3.422   1.316   7.517
 3877SOL     OW12517   2.329   1.719   7.791
 3877SOL    HW112518   2.368   1.794   7.837
 3877SOL    HW212519   2.385   1.707   7.714
 3878SOL     OW12520   3.284   0.140   7.866
 3878SOL    HW112521   3.267   0.087   7.787
 3878SOL    HW212522   3.378   0.131   7.881
 3879SOL     OW12523   2.102   1.756   8.684
 3879SOL    HW112524   2.168   1.701   8.725
 3879SOL    HW212525   2.114   1.743   8.590
 3880SOL     OW12526   2.796   1.697   8.348
 3880SOL    HW112527   2.875   1.647   8.370
 3880SOL    HW212528   2.756   1.648   8.276
 3881SOL     OW12529   2.255   0.694   7.923
 3881SOL    HW112530   2.277   0.602   7.936
 3881SOL    HW212531   2.161   0.699   7.941
 3882SOL     OW12532   3.387   0.233   9.171
 3882SOL    HW112533   3.386   0.255   9.264
 3882SOL    HW212534   3.308   0.179   9.159
 3883SOL     OW12535   2.490   0.121   7.571
 3883SOL    HW112536   2.579   0.085   7.579
 3883SOL    HW212537   2.457   0.085   7.489
 3884SOL     OW12538   2.631   0.271   9.202
 3884SOL    HW112539   2.696   0.202   9.211
 3884SOL    HW212540   2.587   0.273   9.288
 3885SOL     OW12541   2.739   1.523   8.640
 3885SOL    HW112542   2.723   1.484   8.554
 3885SOL    HW212543   2.808   1.468   8.678
 3886SOL     OW12544   3.203   0.589   8.877
 3886SOL    HW112545   3.231   0.560   8.964
 3886SOL    HW212546   3.237   0.678   8.869
 3887SOL     OW12547   2.677   1.396   8.387
 3887SOL    HW112548   2.761   1.383   8.344
 3887SOL    HW212549   2.613   1.395   8.316
 3888SOL     OW12550   2.786   0.519   8.347
 3888SOL    HW112551   2.769   0.517   8.253
 3888SOL    HW212552   2.822   0.433   8.367
 3889SOL     OW12553   2.417   0.077   7.970
 3889SOL    HW112554   2.329   0.047   7.993
 3889SOL    HW212555   2.403   0.141   7.900
 3890SOL     OW12556   3.291   1.199   7.489
 3890SOL    HW112557   3.320   1.122   7.539
 3890SOL    HW212558   3.205   1.220   7.526
 3891SOL     OW12559   2.157   0.068   7.647
 3891SOL    HW112560   2.235   0.121   7.630
 3891SOL    HW212561   2.187   0.000   7.708
 3892SOL     OW12562   2.815   0.240   7.915
 3892SOL    HW112563   2.763   0.297   7.859
 3892SOL    HW212564   2.904   0.275   7.910
 3893SOL     OW12565   2.942   0.681   8.908
 3893SOL    HW112566   2.871   0.617   8.908
 3893SOL    HW212567   3.021   0.629   8.897
 3894SOL     OW12568   3.085   1.571   8.242
 3894SOL    HW112569   3.102   1.637   8.175
 3894SOL    HW212570   3.154   1.584   8.307
 3895SOL     OW12571   2.331   1.150   8.181
 3895SOL    HW112572   2.262   1.130   8.245
 3895SOL    HW212573   2.291   1.134   8.096
 3896SOL     OW12574   3.132   1.794   8.056
 3896SOL    HW112575   3.177   1.855   7.998
 3896SOL    HW212576   3.065   1.848   8.100
 3897SOL     OW12577   2.891   0.547   7.465
 3897SOL    HW112578   2.843   0.628   7.450
 3897SOL    HW212579   2.949   0.567   7.538
 3898SOL     OW12580   1.945   0.550   8.843
 3898SOL    HW112581   2.035   0.554   8.813
 3898SOL    HW212582   1.937   0.622   8.906
 3899SOL     OW12583   2.425   0.244   8.615
 3899SOL    HW112584   2.451   0.162   8.656
 3899SOL    HW212585   2.333   0.254   8.639
 3900SOL     OW12586   2.727   0.504   8.075
 3900SOL    HW112587   2.684   0.544   7.999
 3900SOL    HW212588   2.691   0.416   8.080
 3901SOL     OW12589   2.823   0.024   8.232
 3901SOL    HW112590   2.775   0.023   8.150
 3901SOL    HW212591   2.837   4.431   8.253
 3902SOL     OW12592   3.299   1.163   8.305
 3902SOL    HW112593   3.230   1.096   8.305
 3902SOL    HW212594   3.322   1.173   8.213
 3903SOL     OW12595   3.327   0.605   8.422
 3903SOL    HW112596   3.274   0.526   8.424
 3903SOL    HW212597   3.385   0.597   8.498
 3904SOL     OW12598   3.708   0.816   7.831
 3904SOL    HW112599   3.764   0.765   7.889
 3904SOL    HW212600   3.679   0.754   7.764
 3905SOL     OW12601   2.353   1.419   7.603
 3905SOL    HW112602   2.278   1.390   7.656
 3905SOL    HW212603   2.338   1.379   7.518
 3906SOL     OW12604   3.533   1.265   8.092
 3906SOL    HW112605   3.627   1.267   8.107
 3906SOL    HW212606   3.502   1.353   8.115
 3907SOL     OW12607   3.257   0.571   7.518
 3907SOL    HW112608   3.194   0.555   7.589
 3907SOL    HW212609   3.342   0.552   7.556
 3908SOL     OW12610   2.383   0.265   7.771
 3908SOL    HW112611   2.431   0.215   7.706
 3908SOL    HW212612   2.365   0.349   7.728
 3909SOL     OW12613   3.614   1.239   9.020
 3909SOL    HW112614   3.701   1.200   9.017
 3909SOL    HW212615   3.629   1.329   9.050
 3910SOL     OW12616   2.920   1.355   8.782
 3910SOL    HW112617   2.845   1.323   8.833
 3910SOL    HW212618   2.996   1.313   8.823
 3911SOL     OW12619   3.470   1.626   9.102
 3911SOL    HW112620   3.464   1.660   9.013
 3911SOL    HW212621   3.553   1.578   9.104
 3912SOL     OW12622   2.992   1.205   8.554
 3912SOL    HW112623   2.931   1.241   8.618
 3912SOL    HW212624   2.958   1.235   8.469
 3913SOL     OW12625   3.490   1.098   8.526
 3913SOL    HW112626   3.485   1.160   8.598
 3913SOL    HW212627   3.410   1.114   8.475
 3914SOL     OW12628   2.764   0.133   8.835
 3914SOL    HW112629   2.786   0.089   8.753
 3914SOL    HW212630   2.848   0.149   8.878
 3915SOL     OW12631   2.846   1.115   9.171
 3915SOL    HW112632   2.754   1.131   9.192
 3915SOL    HW212633   2.845   1.037   9.115
 3916SOL     OW12634   2.571   1.061   7.819
 3916SOL    HW112635   2.557   1.045   7.912
 3916SOL    HW212636   2.646   1.008   7.796
 3917SOL     OW12637   2.281   0.816   8.699
 3917SOL    HW112638   2.350   0.825   8.765
 3917SOL    HW212639   2.246   0.728   8.713
 3918SOL     OW12640   3.130   0.375   8.721
 3918SOL    HW112641   3.162   0.454   8.766
 3918SOL    HW212642   3.041   0.397   8.695
 3919SOL     OW12643   1.924   1.566   8.797
 3919SOL    HW112644   1.889   1.642   8.751
 3919SOL    HW212645   2.018   1.582   8.801
 3920SOL     OW12646   2.210   1.110   7.939
 3920SOL    HW112647   2.216   1.182   7.877
 3920SOL    HW212648   2.208   1.031   7.884
 3921SOL     OW12649   2.417   0.529   8.306
 3921SOL    HW112650   2.431   0.588   8.232
 3921SOL    HW212651   2.482   0.557   8.371
 3922SOL     OW12652   3.110   1.348   7.837
 3922SOL    HW112653   3.166   1.420   7.868
 3922SOL    HW212654   3.023   1.369   7.871
 3923SOL     OW12655   3.143   1.458   8.595
 3923SOL    HW112656   3.198   1.460   8.673
 3923SOL    HW212657   3.088   1.380   8.606
 3924SOL     OW12658   3.443   0.623   7.925
 3924SOL    HW112659   3.396   0.673   7.993
 3924SOL    HW212660   3.487   0.690   7.873
 3925SOL     OW12661   2.217   1.515   8.769
 3925SOL    HW112662   2.198   1.477   8.683
 3925SOL    HW212663   2.311   1.530   8.769
 3926SOL     OW12664   2.277   0.743   9.051
 3926SOL    HW112665   2.336   0.790   8.992
 3926SOL    HW212666   2.322   0.660   9.068
 3927SOL     OW12667   3.464   0.778   9.129
 3927SOL    HW112668   3.378   0.820   9.123
 3927SOL    HW212669   3.516   0.820   9.061
 3928SOL     OW12670   2.866   0.085   9.167
 3928SOL    HW112671   2.897   0.167   9.129
 3928SOL    HW212672   2.890   0.018   9.103
 3929SOL     OW12673   2.361   0.045   9.208
 3929SOL    HW112674   2.360   0.006   9.121
 3929SOL    HW212675   2.294   0.113   9.204
 3930SOL     OW12676   2.445   0.874   8.479
 3930SOL    HW112677   2.475   0.964   8.479
 3930SOL    HW212678   2.389   0.867   8.556
 3931SOL     OW12679   3.219   0.858   8.477
 3931SOL    HW112680   3.135   0.849   8.432
 3931SOL    HW212681   3.260   0.772   8.471
 3932SOL     OW12682   3.065   0.536   7.710
 3932SOL    HW112683   3.072   0.455   7.762
 3932SOL    HW212684   3.022   0.598   7.768
 3933SOL     OW12685   2.152   0.233   8.689
 3933SOL    HW112686   2.108   0.249   8.773
 3933SOL    HW212687   2.188   0.145   8.698
 3934SOL     OW12688   1.907   1.307   8.724
 3934SOL    HW112689   1.941   1.255   8.796
 3934SOL    HW212690   1.914   1.398   8.753
 3935SOL     OW12691   2.585   0.631   8.505
 3935SOL    HW112692   2.659   0.613   8.448
 3935SOL    HW212693   2.558   0.720   8.481
 3936SOL     OW12694   3.596   0.959   9.300
 3936SOL    HW112695   3.550   0.898   9.243
 3936SOL    HW212696   3.537   0.973   9.374
 3937SOL     OW12697   2.158   0.054   8.102
 3937SOL    HW112698   2.148   0.149   8.103
 3937SOL    HW212699   2.170   0.030   8.194
 3938SOL     OW12700   3.478   0.379   7.810
 3938SOL    HW112701   3.506   0.314   7.875
 3938SOL    HW212702   3.455   0.456   7.861
 3939SOL     OW12703   2.891   0.762   8.409
 3939SOL    HW112704   2.887   0.778   8.504
 3939SOL    HW212705   2.862   0.671   8.399
 3940SOL     OW12706   2.845   1.567   9.165
 3940SOL    HW112707   2.829   1.611   9.082
 3940SOL    HW212708   2.888   1.484   9.141
 3941SOL     OW12709   3.717   1.506   9.054
 3941SOL    HW112710   3.734   1.532   8.963
 3941SOL    HW212711   3.798   1.524   9.101
 3942SOL     OW12712   2.216   0.916   9.256
 3942SOL    HW112713   2.298   0.935   9.302
 3942SOL    HW212714   2.240   0.853   9.189
 3943SOL     OW12715   3.392   0.264   7.576
 3943SOL    HW112716   3.321   0.208   7.606
 3943SOL    HW212717   3.422   0.310   7.655
 3944SOL     OW12718   3.154   0.826   7.479
 3944SOL    HW112719   3.195   0.740   7.481
 3944SOL    HW212720   3.185   0.866   7.397
 3945SOL     OW12721   2.927   1.336   8.301
 3945SOL    HW112722   2.930   1.263   8.240
 3945SOL    HW212723   2.989   1.400   8.267
 3946SOL     OW12724   2.171   0.810   8.395
 3946SOL    HW112725   2.264   0.832   8.388
 3946SOL    HW212726   2.170   0.720   8.428
 3947SOL     OW12727   2.198   0.532   8.461
 3947SOL    HW112728   2.155   0.449   8.442
 3947SOL    HW212729   2.274   0.534   8.404
 3948SOL     OW12730   2.998   0.373   9.145
 3948SOL    HW112731   2.947   0.437   9.195
 3948SOL    HW212732   3.083   0.415   9.131
 3949SOL     OW12733   3.019   0.213   8.922
 3949SOL    HW112734   3.013   0.277   8.992
 3949SOL    HW212735   3.059   0.261   8.849
 3950SOL     OW12736   1.867   1.321   7.643
 3950SOL    HW112737   1.780   1.336   7.605
 3950SOL    HW212738   1.865   1.232   7.676
 3951SOL     OW12739   1.948   1.781   8.375
 3951SOL    HW112740   1.918   1.699   8.336
 3951SOL    HW212741   2.036   1.794   8.340
 3952SOL     OW12742   2.360   1.570   8.352
 3952SOL    HW112743   2.428   1.634   8.372
 3952SOL    HW212744   2.403   1.505   8.296
 3953SOL     OW12745   2.845   0.793   8.675
 3953SOL    HW112746   2.900   0.770   8.750
 3953SOL    HW212747   2.760   0.753   8.695
 3954SOL     OW12748   1.895   0.543   8.567
 3954SOL    HW112749   1.973   0.525   8.513
 3954SOL    HW212750   1.928   0.547   8.656
 3955SOL     OW12751   2.047   0.520   9.169
 3955SOL    HW112752   2.122   0.500   9.114
 3955SOL    HW212753   2.006   0.596   9.128
 3956SOL     OW12754   3.240   0.938   9.107
 3956SOL    HW112755   3.260   1.032   9.104
 3956SOL    HW212756   3.236   0.913   9.014
 3957SOL     OW12757   2.672   0.576   7.804
 3957SOL    HW112758   2.677   0.504   7.741
 3957SOL    HW212759   2.599   0.630   7.774
 3958SOL     OW12760   3.502   0.602   8.634
 3958SOL    HW112761   3.492   0.542   8.708
 3958SOL    HW212762   3.589   0.583   8.600
 3959SOL     OW12763   2.114   1.547   9.178
 3959SOL    HW112764   2.080   1.609   9.243
 3959SOL    HW212765   2.110   1.462   9.222
 3960SOL     OW12766   2.562   0.459   8.712
 3960SOL    HW112767   2.515   0.382   8.680
 3960SOL    HW212768   2.562   0.520   8.638
 3961SOL     OW12769   2.792   1.678   8.915
 3961SOL    HW112770   2.763   1.644   8.831
 3961SOL    HW212771   2.786   1.773   8.906
 3962SOL     OW12772   2.326   0.492   7.632
 3962SOL    HW112773   2.385   0.565   7.654
 3962SOL    HW212774   2.241   0.534   7.620
 3963SOL     OW12775   2.007   1.140   8.921
 3963SOL    HW112776   2.009   1.088   9.002
 3963SOL    HW212777   2.024   1.077   8.852
 3964SOL     OW12778   3.188   1.047   8.671
 3964SOL    HW112779   3.211   0.983   8.603
 3964SOL    HW212780   3.118   1.099   8.632
 3965SOL     OW12781   3.174   0.857   7.754
 3965SOL    HW112782   3.099   0.827   7.806
 3965SOL    HW212783   3.148   0.844   7.663
 3966SOL     OW12784   3.635   1.743   8.599
 3966SOL    HW112785   3.694   1.770   8.529
 3966SOL    HW212786   3.610   1.654   8.577
 3967SOL     OW12787   3.103   1.733   8.561
 3967SOL    HW112788   3.185   1.754   8.516
 3967SOL    HW212789   3.109   1.639   8.579
 3968SOL     OW12790   1.948   1.265   8.460
 3968SOL    HW112791   1.933   1.279   8.554
 3968SOL    HW212792   1.873   1.213   8.431
 3969SOL     OW12793   2.539   1.666   9.177
 3969SOL    HW112794   2.484   1.744   9.174
 3969SOL    HW212795   2.602   1.678   9.106
 3970SOL     OW12796   3.580   0.129   7.940
 3970SOL    HW112797   3.651   0.138   7.876
 3970SOL    HW212798   3.609   0.058   7.997
 3971SOL     OW12799   3.253   1.567   7.933
 3971SOL    HW112800   3.313   1.600   7.866
 3971SOL    HW212801   3.204   1.645   7.961
 3972SOL     OW12802   1.985   1.784   9.286
 3972SOL    HW112803   1.935   1.717   9.331
 3972SOL    HW212804   2.044   1.819   9.352
 3973SOL     OW12805   3.141   0.928   8.121
 3973SOL    HW112806   3.213   0.866   8.126
 3973SOL    HW212807   3.174   1.000   8.068
 3974SOL     OW12808   2.676   1.274   8.877
 3974SOL    HW112809   2.648   1.313   8.960
 3974SOL    HW212810   2.605   1.294   8.816
 3975SOL     OW12811   2.536   1.618   7.601
 3975SOL    HW112812   2.544   1.631   7.506
 3975SOL    HW212813   2.479   1.542   7.610
 3976SOL     OW12814   3.489   1.727   8.839
 3976SOL    HW112815   3.538   1.734   8.758
 3976SOL    HW212816   3.475   1.817   8.867
 3977SOL     OW12817   3.701   0.154   8.414
 3977SOL    HW112818   3.732   0.077   8.367
 3977SOL    HW212819   3.614   0.171   8.377
 3978SOL     OW12820   2.126   0.322   8.165
 3978SOL    HW112821   2.041   0.356   8.138
 3978SOL    HW212822   2.120   0.314   8.260
 3979SOL     OW12823   3.069   1.606   7.479
 3979SOL    HW112824   3.060   1.515   7.507
 3979SOL    HW212825   3.003   1.617   7.411
 3980SOL     OW12826   2.685   1.006   8.821
 3980SOL    HW112827   2.729   1.000   8.736
 3980SOL    HW212828   2.686   1.099   8.842
 3981SOL     OW12829   2.778   0.910   7.738
 3981SOL    HW112830   2.839   0.942   7.672
 3981SOL    HW212831   2.825   0.840   7.783
 3982SOL     OW12832   3.354   1.625   7.491
 3982SOL    HW112833   3.259   1.619   7.477
 3982SOL    HW212834   3.390   1.631   7.403
 3983SOL     OW12835   2.232   1.298   8.941
 3983SOL    HW112836   2.221   1.376   8.887
 3983SOL    HW212837   2.153   1.246   8.925
 3984SOL     OW12838   3.473   1.283   8.729
 3984SOL    HW112839   3.531   1.271   8.804
 3984SOL    HW212840   3.412   1.352   8.756
 3985SOL     OW12841   2.914   1.107   8.155
 3985SOL    HW112842   2.843   1.056   8.194
 3985SOL    HW212843   2.977   1.042   8.124
 3986SOL     OW12844   2.867   0.244   8.454
 3986SOL    HW112845   2.873   0.222   8.361
 3986SOL    HW212846   2.859   0.160   8.498
 3987SOL     OW12847   2.464   1.490   7.929
 3987SOL    HW112848   2.508   1.439   7.860
 3987SOL    HW212849   2.402   1.545   7.881
 3988SOL     OW12850   3.584   0.394   8.825
 3988SOL    HW112851   3.657   0.456   8.824
 3988SOL    HW212852   3.613   0.322   8.768
 3989SOL     OW12853   2.121   1.345   7.737
 3989SOL    HW112854   2.028   1.342   7.714
 3989SOL    HW212855   2.124   1.383   7.825
 3990SOL     OW12856   1.975   1.021   9.168
 3990SOL    HW112857   1.898   0.998   9.221
 3990SOL    HW212858   2.049   0.984   9.215
 3991SOL     OW12859   2.520   0.204   8.947
 3991SOL    HW112860   2.599   0.179   8.900
 3991SOL    HW212861   2.550   0.226   9.035
 3992SOL     OW12862   1.944   0.338   7.495
 3992SOL    HW112863   1.873   0.284   7.459
 3992SOL    HW212864   1.957   0.407   7.431
 3993SOL     OW12865   3.292   0.858   8.848
 3993SOL    HW112866   3.243   0.919   8.792
 3993SOL    HW212867   3.381   0.860   8.813
 3994SOL     OW12868   1.926   0.184   7.766
 3994SOL    HW112869   1.925   0.251   7.698
 3994SOL    HW212870   2.001   0.128   7.745
 3995SOL     OW12871   3.041   1.339   7.565
 3995SOL    HW112872   2.950   1.310   7.567
 3995SOL    HW212873   3.068   1.339   7.656
 3996SOL     OW12874   2.481   0.830   8.882
 3996SOL    HW112875   2.537   0.907   8.867
 3996SOL    HW212876   2.542   0.757   8.890
 3997SOL     OW12877   3.345   1.777   8.427
 3997SOL    HW112878   3.369   1.836   8.356
 3997SOL    HW212879   3.428   1.757   8.470
 3998SOL     OW12880   2.578   0.563   9.153
 3998SOL    HW112881   2.618   0.627   9.213
 3998SOL    HW212882   2.609   0.478   9.186
 3999SOL     OW12883   3.333   1.200   9.080
 3999SOL    HW112884   3.321   1.214   9.174
 3999SOL    HW212885   3.427   1.215   9.066
 4000SOL     OW12886   2.241   1.743   9.016
 4000SOL    HW112887   2.155   1.773   8.989
 4000SOL    HW212888   2.225   1.657   9.057
 4001SOL     OW12889   3.531   0.881   8.703
 4001SOL    HW112890   3.524   0.796   8.660
 4001SOL    HW212891   3.521   0.945   8.633
 4002SOL     OW12892   3.080   0.330   7.895
 4002SOL    HW112893   3.146   0.262   7.884
 4002SOL    HW212894   3.108   0.378   7.974
 4003SOL     OW12895   2.449   0.738   8.120
 4003SOL    HW112896   2.490   0.822   8.103
 4003SOL    HW212897   2.382   0.730   8.051
 4004SOL     OW12898   3.624   0.366   9.092
 4004SOL    HW112899   3.608   0.380   8.998
 4004SOL    HW212900   3.546   0.320   9.123
 4005SOL     OW12901   3.608   0.933   8.960
 4005SOL    HW112902   3.603   1.028   8.973
 4005SOL    HW212903   3.592   0.921   8.866
 4006SOL     OW12904   2.726   1.368   7.483
 4006SOL    HW112905   2.685   1.395   7.565
 4006SOL    HW212906   2.742   1.449   7.436
 4007SOL     OW12907   2.523   1.797   8.381
 4007SOL    HW112908   2.523   1.884   8.419
 4007SOL    HW212909   2.615   1.770   8.381
 4008SOL     OW12910   2.729   0.967   8.303
 4008SOL    HW112911   2.780   0.895   8.341
 4008SOL    HW212912   2.694   1.015   8.378
 4009SOL     OW12913   2.942   0.989   7.537
 4009SOL    HW112914   2.919   1.039   7.459
 4009SOL    HW212915   3.016   0.935   7.510
 4010SOL     OW12916   3.716   1.555   8.293
 4010SOL    HW112917   3.638   1.543   8.238
 4010SOL    HW212918   3.709   1.487   8.360
 4011SOL     OW12919   2.087   1.301   9.304
 4011SOL    HW112920   2.019   1.241   9.274
 4011SOL    HW212921   2.068   1.313   9.397
 4012SOL     OW12922   1.949   1.233   8.111
 4012SOL    HW112923   1.951   1.187   8.195
 4012SOL    HW212924   2.015   1.189   8.058
 4013SOL     OW12925   2.543   1.403   9.076
 4013SOL    HW112926   2.463   1.360   9.106
 4013SOL    HW212927   2.538   1.491   9.113
 4014SOL     OW12928   3.669   0.181   8.687
 4014SOL    HW112929   3.668   0.087   8.707
 4014SOL    HW212930   3.686   0.185   8.592
 4015SOL     OW12931   2.299   0.433   7.978
 4015SOL    HW112932   2.320   0.364   7.915
 4015SOL    HW212933   2.242   0.390   8.043
 4016SOL     OW12934   3.561   1.490   8.545
 4016SOL    HW112935   3.481   1.466   8.498
 4016SOL    HW212936   3.572   1.420   8.609
 4017SOL     OW12937   2.192   0.557   8.740
 4017SOL    HW112938   2.247   0.501   8.794
 4017SOL    HW212939   2.211   0.531   8.650
 4018SOL     OW12940   2.688   1.578   8.125
 4018SOL    HW112941   2.676   1.628   8.045
 4018SOL    HW212942   2.613   1.519   8.129
 4019SOL     OW12943   3.294   0.216   8.565
 4019SOL    HW112944   3.329   0.145   8.618
 4019SOL    HW212945   3.243   0.269   8.627
 4020SOL     OW12946   2.858   0.006   8.599
 4020SOL    HW112947   2.816   4.421   8.592
 4020SOL    HW212948   2.951   4.487   8.610
 4021SOL     OW12949   2.633   1.332   7.764
 4021SOL    HW112950   2.602   1.242   7.770
 4021SOL    HW212951   2.716   1.332   7.812
 4022SOL     OW12952   2.484   1.557   8.731
 4022SOL    HW112953   2.485   1.636   8.783
 4022SOL    HW212954   2.572   1.550   8.695
 4023SOL     OW12955   3.202   0.052   7.602
 4023SOL    HW112956   3.241   4.476   7.558
 4023SOL    HW212957   3.126   0.017   7.649
 4024SOL     OW12958   3.177   0.463   8.124
 4024SOL    HW112959   3.117   0.538   8.125
 4024SOL    HW212960   3.165   0.422   8.210
 4025SOL     OW12961   3.447   0.199   8.315
 4025SOL    HW112962   3.388   0.215   8.389
 4025SOL    HW212963   3.450   0.283   8.269
 4026SOL     OW12964   1.906   1.071   7.754
 4026SOL    HW112965   2.000   1.062   7.736
 4026SOL    HW212966   1.877   0.983   7.777
 4027SOL     OW12967   2.745   1.653   7.792
 4027SOL    HW112968   2.674   1.635   7.730
 4027SOL    HW212969   2.714   1.729   7.842
 4028SOL     OW12970   2.091   0.626   9.431
 4028SOL    HW112971   2.003   0.619   9.470
 4028SOL    HW212972   2.079   0.596   9.341
 4029SOL     OW12973   2.070   0.299  10.299
 4029SOL    HW112974   2.101   0.270  10.385
 4029SOL    HW212975   1.988   0.251  10.286
 4030SOL     OW12976   1.869   0.387   9.948
 4030SOL    HW112977   1.783   0.405   9.985
 4030SOL    HW212978   1.855   0.313   9.889
 4031SOL     OW12979   2.430   1.288  10.486
 4031SOL    HW112980   2.342   1.289  10.448
 4031SOL    HW212981   2.443   1.377  10.519
 4032SOL     OW12982   3.424   1.512  10.017
 4032SOL    HW112983   3.381   1.491  10.100
 4032SOL    HW212984   3.352   1.516   9.953
 4033SOL     OW12985   2.997   0.698  10.008
 4033SOL    HW112986   3.043   0.782   9.998
 4033SOL    HW212987   2.947   0.708  10.089
 4034SOL     OW12988   3.630   0.607   9.538
 4034SOL    HW112989   3.609   0.597   9.445
 4034SOL    HW212990   3.596   0.526   9.578
 4035SOL     OW12991   2.619   1.144  10.353
 4035SOL    HW112992   2.549   1.178  10.408
 4035SOL    HW212993   2.653   1.220  10.306
 4036SOL     OW12994   2.717   0.775   0.022
 4036SOL    HW112995   2.723   0.832   0.099
 4036SOL    HW212996   2.750   0.830  11.050
 4037SOL     OW12997   2.548   1.003   9.956
 4037SOL    HW112998   2.613   0.991  10.026
 4037SOL    HW212999   2.479   1.054   9.997
 4038SOL     OW13000   2.194   1.421  10.378
 4038SOL    HW113001   2.118   1.387  10.331
 4038SOL    HW213002   2.242   1.472  10.312
 4039SOL     OW13003   3.326   1.499  10.661
 4039SOL    HW113004   3.382   1.576  10.669
 4039SOL    HW213005   3.267   1.504  10.736
 4040SOL     OW13006   2.311   0.394  10.785
 4040SOL    HW113007   2.388   0.338  10.795
 4040SOL    HW213008   2.239   0.341  10.818
 4041SOL     OW13009   3.472   0.445  10.049
 4041SOL    HW113010   3.392   0.466  10.001
 4041SOL    HW213011   3.491   0.523  10.101
 4042SOL     OW13012   2.082   1.720   9.785
 4042SOL    HW113013   2.122   1.755   9.865
 4042SOL    HW213014   2.156   1.708   9.725
 4043SOL     OW13015   2.089   1.442   9.846
 4043SOL    HW113016   2.064   1.534   9.854
 4043SOL    HW213017   2.032   1.396   9.907
 4044SOL     OW13018   2.121   1.090  10.202
 4044SOL    HW113019   2.116   1.004  10.242
 4044SOL    HW213020   2.063   1.145  10.254
 4045SOL     OW13021   2.474   1.779  10.742
 4045SOL    HW113022   2.392   1.765  10.790
 4045SOL    HW213023   2.496   1.871  10.759
 4046SOL     OW13024   2.448   0.982   9.444
 4046SOL    HW113025   2.493   1.031   9.376
 4046SOL    HW213026   2.487   1.013   9.526
 4047SOL     OW13027   3.415   0.137  10.783
 4047SOL    HW113028   3.463   0.192  10.721
 4047SOL    HW213029   3.476   0.126  10.857
 4048SOL     OW13030   1.978   0.653   9.870
 4048SOL    HW113031   1.948   0.565   9.892
 4048SOL    HW213032   1.970   0.702   9.951
 4049SOL     OW13033   3.704   1.759   9.644
 4049SOL    HW113034   3.768   1.730   9.710
 4049SOL    HW213035   3.728   1.850   9.626
 4050SOL     OW13036   1.893   1.587   9.433
 4050SOL    HW113037   1.877   1.494   9.451
 4050SOL    HW213038   1.869   1.632   9.514
 4051SOL     OW13039   3.553   0.921   9.952
 4051SOL    HW113040   3.636   0.877   9.931
 4051SOL    HW213041   3.530   0.969   9.873
 4052SOL     OW13042   3.508   1.107   9.739
 4052SOL    HW113043   3.594   1.112   9.697
 4052SOL    HW213044   3.513   1.168   9.812
 4053SOL     OW13045   1.989   0.726  10.916
 4053SOL    HW113046   2.082   0.747  10.904
 4053SOL    HW213047   1.944   0.810  10.910
 4054SOL     OW13048   2.477   1.385  10.044
 4054SOL    HW113049   2.431   1.301  10.053
 4054SOL    HW213050   2.459   1.412   9.953
 4055SOL     OW13051   3.155   1.236  10.752
 4055SOL    HW113052   3.180   1.176  10.682
 4055SOL    HW213053   3.212   1.213  10.825
 4056SOL     OW13054   2.679   0.015   9.862
 4056SOL    HW113055   2.715   0.100   9.836
 4056SOL    HW213056   2.585   0.026   9.854
 4057SOL     OW13057   2.052   0.964  10.579
 4057SOL    HW113058   2.136   0.922  10.563
 4057SOL    HW213059   1.989   0.910  10.533
 4058SOL     OW13060   3.394   0.993   9.508
 4058SOL    HW113061   3.323   0.937   9.540
 4058SOL    HW213062   3.434   1.028   9.588
 4059SOL     OW13063   3.061   1.806  10.928
 4059SOL    HW113064   3.057   1.870  10.856
 4059SOL    HW213065   3.069   1.721  10.884
 4060SOL     OW13066   2.198   0.277  11.088
 4060SOL    HW113067   2.253   0.341   0.032
 4060SOL    HW213068   2.114   0.282   0.033
 4061SOL     OW13069   3.329   1.420  10.261
 4061SOL    HW113070   3.260   1.435  10.326
 4061SOL    HW213071   3.316   1.329  10.234
 4062SOL     OW13072   3.520   1.740   9.888
 4062SOL    HW113073   3.500   1.710   9.799
 4062SOL    HW213074   3.496   1.666   9.944
 4063SOL     OW13075   2.455   0.723   9.575
 4063SOL    HW113076   2.460   0.805   9.526
 4063SOL    HW213077   2.389   0.740   9.643
 4064SOL     OW13078   3.154   0.364  10.243
 4064SOL    HW113079   3.064   0.334  10.227
 4064SOL    HW213080   3.189   0.300  10.305
 4065SOL     OW13081   3.442   1.670   9.619
 4065SOL    HW113082   3.533   1.701   9.612
 4065SOL    HW213083   3.415   1.653   9.529
 4066SOL     OW13084   2.658   0.619  10.765
 4066SOL    HW113085   2.626   0.593  10.852
 4066SOL    HW213086   2.620   0.553  10.706
 4067SOL     OW13087   2.828   0.900  10.903
 4067SOL    HW113088   2.876   0.827  10.863
 4067SOL    HW213089   2.777   0.937  10.831
 4068SOL     OW13090   2.858   0.418  10.545
 4068SOL    HW113091   2.770   0.427  10.579
 4068SOL    HW213092   2.848   0.365  10.466
 4069SOL     OW13093   2.912   0.697   9.737
 4069SOL    HW113094   2.928   0.689   9.831
 4069SOL    HW213095   2.829   0.652   9.723
 4070SOL     OW13096   1.951   0.821  10.086
 4070SOL    HW113097   2.031   0.814  10.137
 4070SOL    HW213098   1.907   0.899  10.121
 4071SOL     OW13099   1.967   1.793  10.895
 4071SOL    HW113100   1.958   1.787  10.990
 4071SOL    HW213101   1.882   1.827  10.865
 4072SOL     OW13102   2.717   0.369   9.494
 4072SOL    HW113103   2.788   0.403   9.440
 4072SOL    HW213104   2.731   0.275   9.496
 4073SOL     OW13105   3.239   1.143   9.851
 4073SOL    HW113106   3.318   1.130   9.798
 4073SOL    HW213107   3.186   1.204   9.801
 4074SOL     OW13108   2.401   0.205  10.212
 4074SOL    HW113109   2.421   0.223  10.304
 4074SOL    HW213110   2.392   0.291  10.171
 4075SOL     OW13111   2.868   1.445   9.782
 4075SOL    HW113112   2.830   1.517   9.732
 4075SOL    HW213113   2.850   1.466   9.873
 4076SOL     OW13114   2.216   1.784  10.150
 4076SOL    HW113115   2.254   1.698  10.164
 4076SOL    HW213116   2.284   1.845  10.176
 4077SOL     OW13117   3.660   1.059  10.178
 4077SOL    HW113118   3.607   1.038  10.102
 4077SOL    HW213119   3.598   1.064  10.251
 4078SOL     OW13120   3.092   1.537  10.822
 4078SOL    HW113121   3.098   1.449  10.860
 4078SOL    HW213122   3.026   1.530  10.753
 4079SOL     OW13123   2.182   0.957   9.560
 4079SOL    HW113124   2.263   0.976   9.514
 4079SOL    HW213125   2.151   0.875   9.521
 4080SOL     OW13126   3.342   0.743  10.034
 4080SOL    HW113127   3.330   0.699  10.119
 4080SOL    HW213128   3.419   0.798  10.047
 4081SOL     OW13129   2.316   1.264  11.054
 4081SOL    HW113130   2.288   1.279  10.964
 4081SOL    HW213131   2.251   1.205  11.091
 4082SOL     OW13132   2.984   1.776   9.542
 4082SOL    HW113133   2.910   1.735   9.586
 4082SOL    HW213134   3.007   1.716   9.472
 4083SOL     OW13135   2.056   0.266  10.817
 4083SOL    HW113136   1.987   0.332  10.810
 4083SOL    HW213137   2.076   0.261  10.910
 4084SOL     OW13138   3.491   1.380   9.397
 4084SOL    HW113139   3.449   1.465   9.383
 4084SOL    HW213140   3.422   1.316   9.379
 4085SOL     OW13141   2.330   1.719   9.653
 4085SOL    HW113142   2.367   1.793   9.700
 4085SOL    HW213143   2.387   1.707   9.577
 4086SOL     OW13144   3.283   0.140   9.728
 4086SOL    HW113145   3.267   0.087   9.649
 4086SOL    HW213146   3.378   0.132   9.743
 4087SOL     OW13147   2.094   1.759  10.540
 4087SOL    HW113148   2.164   1.710  10.582
 4087SOL    HW213149   2.116   1.759  10.447
 4088SOL     OW13150   2.796   1.697  10.210
 4088SOL    HW113151   2.876   1.648  10.230
 4088SOL    HW213152   2.755   1.648  10.138
 4089SOL     OW13153   2.255   0.694   9.785
 4089SOL    HW113154   2.277   0.602   9.799
 4089SOL    HW213155   2.161   0.699   9.803
 4090SOL     OW13156   2.491   0.122   9.433
 4090SOL    HW113157   2.579   0.085   9.441
 4090SOL    HW213158   2.457   0.085   9.351
 4091SOL     OW13159   2.621   0.266  11.046
 4091SOL    HW113160   2.690   0.207  11.073
 4091SOL    HW213161   2.587   0.303   0.027
 4092SOL     OW13162   2.739   1.523  10.502
 4092SOL    HW113163   2.723   1.485  10.416
 4092SOL    HW213164   2.810   1.470  10.538
 4093SOL     OW13165   3.206   0.590  10.753
 4093SOL    HW113166   3.256   0.573  10.833
 4093SOL    HW213167   3.231   0.679  10.727
 4094SOL     OW13168   2.678   1.396  10.249
 4094SOL    HW113169   2.762   1.383  10.205
 4094SOL    HW213170   2.613   1.395  10.178
 4095SOL     OW13171   2.786   0.520  10.209
 4095SOL    HW113172   2.769   0.517  10.115
 4095SOL    HW213173   2.821   0.433  10.229
 4096SOL     OW13174   2.417   0.077   9.832
 4096SOL    HW113175   2.329   0.048   9.855
 4096SOL    HW213176   2.403   0.141   9.762
 4097SOL     OW13177   3.290   1.199   9.351
 4097SOL    HW113178   3.320   1.122   9.401
 4097SOL    HW213179   3.204   1.219   9.388
 4098SOL     OW13180   2.157   0.068   9.509
 4098SOL    HW113181   2.235   0.121   9.492
 4098SOL    HW213182   2.187   0.000   9.570
 4099SOL     OW13183   2.815   0.240   9.777
 4099SOL    HW113184   2.763   0.297   9.721
 4099SOL    HW213185   2.904   0.275   9.772
 4100SOL     OW13186   2.940   0.685  10.772
 4100SOL    HW113187   2.868   0.623  10.772
 4100SOL    HW213188   3.019   0.631  10.767
 4101SOL     OW13189   3.084   1.571  10.104
 4101SOL    HW113190   3.102   1.637  10.037
 4101SOL    HW213191   3.154   1.584  10.169
 4102SOL     OW13192   2.331   1.150  10.043
 4102SOL    HW113193   2.262   1.130  10.107
 4102SOL    HW213194   2.291   1.134   9.958
 4103SOL     OW13195   3.132   1.794   9.918
 4103SOL    HW113196   3.177   1.855   9.860
 4103SOL    HW213197   3.066   1.848   9.962
 4104SOL     OW13198   2.891   0.547   9.327
 4104SOL    HW113199   2.843   0.628   9.312
 4104SOL    HW213200   2.949   0.567   9.400
 4105SOL     OW13201   1.943   0.549  10.709
 4105SOL    HW113202   2.034   0.554  10.678
 4105SOL    HW213203   1.938   0.613  10.780
 4106SOL     OW13204   2.424   0.244  10.478
 4106SOL    HW113205   2.446   0.158  10.513
 4106SOL    HW213206   2.332   0.258  10.503
 4107SOL     OW13207   2.727   0.504   9.937
 4107SOL    HW113208   2.684   0.544   9.861
 4107SOL    HW213209   2.690   0.416   9.942
 4108SOL     OW13210   2.824   0.023  10.094
 4108SOL    HW113211   2.775   0.023  10.012
 4108SOL    HW213212   2.837   4.431  10.115
 4109SOL     OW13213   3.298   1.163  10.167
 4109SOL    HW113214   3.230   1.095  10.166
 4109SOL    HW213215   3.323   1.173  10.075
 4110SOL     OW13216   3.327   0.606  10.284
 4110SOL    HW113217   3.274   0.527  10.285
 4110SOL    HW213218   3.385   0.597  10.360
 4111SOL     OW13219   3.707   0.816   9.693
 4111SOL    HW113220   3.764   0.765   9.751
 4111SOL    HW213221   3.679   0.754   9.626
 4112SOL     OW13222   2.353   1.419   9.465
 4112SOL    HW113223   2.279   1.390   9.519
 4112SOL    HW213224   2.338   1.379   9.380
 4113SOL     OW13225   3.532   1.265   9.955
 4113SOL    HW113226   3.627   1.267   9.969
 4113SOL    HW213227   3.503   1.353   9.977
 4114SOL     OW13228   3.257   0.571   9.380
 4114SOL    HW113229   3.194   0.555   9.451
 4114SOL    HW213230   3.342   0.552   9.418
 4115SOL     OW13231   2.383   0.265   9.633
 4115SOL    HW113232   2.431   0.215   9.567
 4115SOL    HW213233   2.365   0.349   9.590
 4116SOL     OW13234   3.621   1.229  10.867
 4116SOL    HW113235   3.712   1.201  10.868
 4116SOL    HW213236   3.621   1.315  10.908
 4117SOL     OW13237   2.924   1.355  10.650
 4117SOL    HW113238   2.846   1.321  10.694
 4117SOL    HW213239   2.997   1.306  10.689
 4118SOL     OW13240   2.993   1.208  10.416
 4118SOL    HW113241   2.925   1.240  10.476
 4118SOL    HW213242   2.961   1.235  10.329
 4119SOL     OW13243   3.490   1.098  10.388
 4119SOL    HW113244   3.486   1.160  10.461
 4119SOL    HW213245   3.411   1.116  10.338
 4120SOL     OW13246   2.759   0.126  10.698
 4120SOL    HW113247   2.786   0.090  10.614
 4120SOL    HW213248   2.842   0.147  10.742
 4121SOL     OW13249   2.571   1.062   9.681
 4121SOL    HW113250   2.557   1.045   9.774
 4121SOL    HW213251   2.646   1.008   9.658
 4122SOL     OW13252   2.282   0.815  10.560
 4122SOL    HW113253   2.350   0.824  10.627
 4122SOL    HW213254   2.246   0.728  10.574
 4123SOL     OW13255   3.132   0.382  10.582
 4123SOL    HW113256   3.162   0.459  10.629
 4123SOL    HW213257   3.043   0.404  10.555
 4124SOL     OW13258   1.925   1.568  10.658
 4124SOL    HW113259   1.896   1.645  10.609
 4124SOL    HW213260   2.021   1.576  10.662
 4125SOL     OW13261   2.210   1.110   9.801
 4125SOL    HW113262   2.215   1.183   9.739
 4125SOL    HW213263   2.208   1.032   9.745
 4126SOL     OW13264   2.418   0.529  10.168
 4126SOL    HW113265   2.431   0.588  10.094
 4126SOL    HW213266   2.482   0.557  10.233
 4127SOL     OW13267   3.110   1.348   9.699
 4127SOL    HW113268   3.166   1.420   9.730
 4127SOL    HW213269   3.023   1.369   9.733
 4128SOL     OW13270   3.142   1.459  10.455
 4128SOL    HW113271   3.199   1.461  10.532
 4128SOL    HW213272   3.089   1.380  10.466
 4129SOL     OW13273   3.443   0.623   9.788
 4129SOL    HW113274   3.396   0.673   9.854
 4129SOL    HW213275   3.487   0.690   9.735
 4130SOL     OW13276   2.213   1.515  10.629
 4130SOL    HW113277   2.197   1.477  10.542
 4130SOL    HW213278   2.307   1.531  10.630
 4131SOL     OW13279   2.276   0.734  10.904
 4131SOL    HW113280   2.339   0.779  10.848
 4131SOL    HW213281   2.313   0.647  10.918
 4132SOL     OW13282   3.457   0.759  10.969
 4132SOL    HW113283   3.380   0.814  10.962
 4132SOL    HW213284   3.527   0.809  10.925
 4133SOL     OW13285   2.445   0.873  10.341
 4133SOL    HW113286   2.473   0.965  10.341
 4133SOL    HW213287   2.388   0.866  10.418
 4134SOL     OW13288   3.219   0.860  10.343
 4134SOL    HW113289   3.136   0.851  10.296
 4134SOL    HW213290   3.261   0.775  10.336
 4135SOL     OW13291   3.065   0.536   9.572
 4135SOL    HW113292   3.072   0.455   9.624
 4135SOL    HW213293   3.022   0.598   9.630
 4136SOL     OW13294   2.151   0.232  10.550
 4136SOL    HW113295   2.113   0.250  10.636
 4136SOL    HW213296   2.187   0.143  10.557
 4137SOL     OW13297   1.910   1.308  10.584
 4137SOL    HW113298   1.940   1.256  10.658
 4137SOL    HW213299   1.913   1.399  10.616
 4138SOL     OW13300   2.585   0.631  10.368
 4138SOL    HW113301   2.659   0.613  10.310
 4138SOL    HW213302   2.558   0.720  10.344
 4139SOL     OW13303   2.159   0.054   9.964
 4139SOL    HW113304   2.148   0.149   9.965
 4139SOL    HW213305   2.170   0.030  10.055
 4140SOL     OW13306   3.478   0.379   9.672
 4140SOL    HW113307   3.506   0.314   9.737
 4140SOL    HW213308   3.455   0.456   9.723
 4141SOL     OW13309   2.891   0.762  10.271
 4141SOL    HW113310   2.887   0.778  10.365
 4141SOL    HW213311   2.862   0.672  10.260
 4142SOL     OW13312   2.838   1.572  11.004
 4142SOL    HW113313   2.822   1.622  10.923
 4142SOL    HW213314   2.864   1.485  10.973
 4143SOL     OW13315   3.719   1.493  10.912
 4143SOL    HW113316   3.734   1.528  10.824
 4143SOL    HW213317   3.785   1.534  10.967
 4144SOL     OW13318   2.222   0.917  11.095
 4144SOL    HW113319   2.307   0.934   0.037
 4144SOL    HW213320   2.241   0.852  11.028
 4145SOL     OW13321   3.392   0.264   9.438
 4145SOL    HW113322   3.321   0.208   9.468
 4145SOL    HW213323   3.422   0.309   9.517
 4146SOL     OW13324   3.154   0.826   9.341
 4146SOL    HW113325   3.195   0.740   9.343
 4146SOL    HW213326   3.185   0.866   9.259
 4147SOL     OW13327   2.928   1.335  10.164
 4147SOL    HW113328   2.931   1.263  10.101
 4147SOL    HW213329   2.989   1.400  10.129
 4148SOL     OW13330   2.171   0.809  10.257
 4148SOL    HW113331   2.264   0.831  10.250
 4148SOL    HW213332   2.170   0.720  10.290
 4149SOL     OW13333   2.198   0.532  10.323
 4149SOL    HW113334   2.155   0.448  10.304
 4149SOL    HW213335   2.274   0.534  10.265
 4150SOL     OW13336   3.012   0.216  10.768
 4150SOL    HW113337   3.031   0.262  10.849
 4150SOL    HW213338   3.055   0.269  10.700
 4151SOL     OW13339   1.867   1.319   9.505
 4151SOL    HW113340   1.780   1.333   9.468
 4151SOL    HW213341   1.864   1.230   9.539
 4152SOL     OW13342   1.947   1.789  10.241
 4152SOL    HW113343   1.916   1.707  10.202
 4152SOL    HW213344   2.037   1.798  10.210
 4153SOL     OW13345   2.362   1.567  10.215
 4153SOL    HW113346   2.431   1.632  10.234
 4153SOL    HW213347   2.405   1.503  10.159
 4154SOL     OW13348   2.845   0.795  10.537
 4154SOL    HW113349   2.899   0.772  10.613
 4154SOL    HW213350   2.761   0.753  10.555
 4155SOL     OW13351   1.896   0.544  10.430
 4155SOL    HW113352   1.974   0.526  10.377
 4155SOL    HW213353   1.928   0.548  10.520
 4156SOL     OW13354   2.672   0.576   9.666
 4156SOL    HW113355   2.677   0.504   9.603
 4156SOL    HW213356   2.599   0.630   9.636
 4157SOL     OW13357   3.502   0.601  10.495
 4157SOL    HW113358   3.493   0.543  10.571
 4157SOL    HW213359   3.590   0.583  10.461
 4158SOL     OW13360   2.128   1.558  11.054
 4158SOL    HW113361   2.096   1.617   0.022
 4158SOL    HW213362   2.102   1.471  11.083
 4159SOL     OW13363   2.567   0.457  10.573
 4159SOL    HW113364   2.516   0.381  10.543
 4159SOL    HW213365   2.564   0.518  10.500
 4160SOL     OW13366   2.804   1.680  10.757
 4160SOL    HW113367   2.763   1.647  10.677
 4160SOL    HW213368   2.790   1.775  10.753
 4161SOL     OW13369   2.326   0.492   9.494
 4161SOL    HW113370   2.385   0.565   9.516
 4161SOL    HW213371   2.241   0.534   9.482
 4162SOL     OW13372   2.014   1.138  10.780
 4162SOL    HW113373   2.007   1.084  10.859
 4162SOL    HW213374   2.028   1.076  10.709
 4163SOL     OW13375   3.186   1.052  10.538
 4163SOL    HW113376   3.212   0.987  10.473
 4163SOL    HW213377   3.117   1.102  10.495
 4164SOL     OW13378   3.174   0.857   9.616
 4164SOL    HW113379   3.099   0.827   9.667
 4164SOL    HW213380   3.148   0.843   9.525
 4165SOL     OW13381   3.637   1.744  10.462
 4165SOL    HW113382   3.696   1.770  10.391
 4165SOL    HW213383   3.611   1.655  10.441
 4166SOL     OW13384   3.103   1.734  10.422
 4166SOL    HW113385   3.185   1.755  10.378
 4166SOL    HW213386   3.109   1.640  10.440
 4167SOL     OW13387   1.947   1.266  10.321
 4167SOL    HW113388   1.934   1.280  10.415
 4167SOL    HW213389   1.873   1.213  10.294
 4168SOL     OW13390   3.580   0.129   9.802
 4168SOL    HW113391   3.651   0.138   9.738
 4168SOL    HW213392   3.609   0.058   9.859
 4169SOL     OW13393   3.253   1.567   9.795
 4169SOL    HW113394   3.313   1.600   9.728
 4169SOL    HW213395   3.204   1.645   9.823
 4170SOL     OW13396   3.141   0.928   9.983
 4170SOL    HW113397   3.213   0.866   9.988
 4170SOL    HW213398   3.174   1.000   9.930
 4171SOL     OW13399   2.679   1.275  10.738
 4171SOL    HW113400   2.648   1.309  10.822
 4171SOL    HW213401   2.608   1.295  10.676
 4172SOL     OW13402   2.535   1.620   9.463
 4172SOL    HW113403   2.545   1.631   9.368
 4172SOL    HW213404   2.479   1.543   9.472
 4173SOL     OW13405   3.484   1.720  10.696
 4173SOL    HW113406   3.539   1.734  10.619
 4173SOL    HW213407   3.468   1.808  10.731
 4174SOL     OW13408   3.701   0.154  10.276
 4174SOL    HW113409   3.732   0.077  10.230
 4174SOL    HW213410   3.614   0.171  10.239
 4175SOL     OW13411   2.126   0.322  10.027
 4175SOL    HW113412   2.040   0.356  10.000
 4175SOL    HW213413   2.120   0.314  10.122
 4176SOL     OW13414   3.069   1.606   9.342
 4176SOL    HW113415   3.060   1.515   9.369
 4176SOL    HW213416   3.004   1.618   9.273
 4177SOL     OW13417   2.687   1.006  10.687
 4177SOL    HW113418   2.729   0.997  10.602
 4177SOL    HW213419   2.687   1.100  10.705
 4178SOL     OW13420   2.778   0.911   9.600
 4178SOL    HW113421   2.840   0.942   9.534
 4178SOL    HW213422   2.825   0.840   9.645
 4179SOL     OW13423   3.354   1.625   9.353
 4179SOL    HW113424   3.259   1.619   9.339
 4179SOL    HW213425   3.390   1.631   9.264
 4180SOL     OW13426   2.230   1.303  10.806
 4180SOL    HW113427   2.218   1.379  10.750
 4180SOL    HW213428   2.155   1.247  10.788
 4181SOL     OW13429   3.475   1.282  10.593
 4181SOL    HW113430   3.530   1.267  10.670
 4181SOL    HW213431   3.418   1.354  10.618
 4182SOL     OW13432   2.914   1.107  10.017
 4182SOL    HW113433   2.843   1.056  10.055
 4182SOL    HW213434   2.977   1.042   9.986
 4183SOL     OW13435   2.868   0.245  10.316
 4183SOL    HW113436   2.873   0.223  10.223
 4183SOL    HW213437   2.859   0.160  10.360
 4184SOL     OW13438   2.464   1.490   9.791
 4184SOL    HW113439   2.507   1.439   9.722
 4184SOL    HW213440   2.401   1.545   9.744
 4185SOL     OW13441   3.581   0.394  10.690
 4185SOL    HW113442   3.654   0.456  10.691
 4185SOL    HW213443   3.610   0.324  10.631
 4186SOL     OW13444   2.121   1.345   9.599
 4186SOL    HW113445   2.028   1.342   9.577
 4186SOL    HW213446   2.124   1.383   9.687
 4187SOL     OW13447   1.978   1.009  11.017
 4187SOL    HW113448   1.909   1.001  11.083
 4187SOL    HW213449   2.058   0.980  11.062
 4188SOL     OW13450   2.513   0.185  10.809
 4188SOL    HW113451   2.591   0.164  10.758
 4188SOL    HW213452   2.547   0.222  10.891
 4189SOL     OW13453   1.944   0.338   9.357
 4189SOL    HW113454   1.873   0.284   9.321
 4189SOL    HW213455   1.957   0.407   9.293
 4190SOL     OW13456   3.291   0.850  10.710
 4190SOL    HW113457   3.242   0.917  10.663
 4190SOL    HW213458   3.381   0.858  10.678
 4191SOL     OW13459   1.926   0.184   9.628
 4191SOL    HW113460   1.925   0.251   9.560
 4191SOL    HW213461   2.001   0.128   9.606
 4192SOL     OW13462   3.041   1.339   9.427
 4192SOL    HW113463   2.950   1.309   9.429
 4192SOL    HW213464   3.068   1.339   9.518
 4193SOL     OW13465   2.482   0.829  10.744
 4193SOL    HW113466   2.538   0.906  10.729
 4193SOL    HW213467   2.543   0.756  10.752
 4194SOL     OW13468   3.345   1.778  10.289
 4194SOL    HW113469   3.370   1.836  10.217
 4194SOL    HW213470   3.427   1.756  10.332
 4195SOL     OW13471   2.575   0.566  11.016
 4195SOL    HW113472   2.612   0.638  11.067
 4195SOL    HW213473   2.626   0.489  11.044
 4196SOL     OW13474   2.242   1.731  10.874
 4196SOL    HW113475   2.157   1.770  10.854
 4196SOL    HW213476   2.222   1.658  10.933
 4197SOL     OW13477   3.532   0.882  10.567
 4197SOL    HW113478   3.524   0.797  10.524
 4197SOL    HW213479   3.523   0.946  10.496
 4198SOL     OW13480   3.080   0.330   9.757
 4198SOL    HW113481   3.146   0.262   9.746
 4198SOL    HW213482   3.108   0.378   9.836
 4199SOL     OW13483   2.449   0.738   9.982
 4199SOL    HW113484   2.490   0.822   9.965
 4199SOL    HW213485   2.382   0.730   9.913
 4200SOL     OW13486   3.611   0.312  10.952
 4200SOL    HW113487   3.594   0.352  10.867
 4200SOL    HW213488   3.534   0.333  11.005
 4201SOL     OW13489   3.612   0.935  10.825
 4201SOL    HW113490   3.603   1.029  10.839
 4201SOL    HW213491   3.594   0.923  10.732
 4202SOL     OW13492   2.725   1.368   9.345
 4202SOL    HW113493   2.685   1.395   9.427
 4202SOL    HW213494   2.742   1.449   9.298
 4203SOL     OW13495   2.522   1.797  10.244
 4203SOL    HW113496   2.522   1.885  10.283
 4203SOL    HW213497   2.614   1.772  10.243
 4204SOL     OW13498   2.729   0.968  10.165
 4204SOL    HW113499   2.779   0.895  10.203
 4204SOL    HW213500   2.694   1.015  10.241
 4205SOL     OW13501   2.942   0.989   9.399
 4205SOL    HW113502   2.919   1.039   9.321
 4205SOL    HW213503   3.016   0.935   9.372
 4206SOL     OW13504   3.716   1.555  10.155
 4206SOL    HW113505   3.638   1.543  10.100
 4206SOL    HW213506   3.710   1.487  10.222
 4207SOL     OW13507   1.948   1.233   9.974
 4207SOL    HW113508   1.950   1.187  10.057
 4207SOL    HW213509   2.015   1.190   9.921
 4208SOL     OW13510   2.542   1.397  10.941
 4208SOL    HW113511   2.470   1.345  10.977
 4208SOL    HW213512   2.504   1.483  10.927
 4209SOL     OW13513   3.664   0.179  10.550
 4209SOL    HW113514   3.676   0.086  10.568
 4209SOL    HW213515   3.682   0.187  10.456
 4210SOL     OW13516   2.299   0.433   9.841
 4210SOL    HW113517   2.320   0.364   9.777
 4210SOL    HW213518   2.242   0.390   9.905
 4211SOL     OW13519   3.562   1.491  10.407
 4211SOL    HW113520   3.482   1.466  10.361
 4211SOL    HW213521   3.575   1.421  10.472
 4212SOL     OW13522   2.191   0.558  10.601
 4212SOL    HW113523   2.245   0.501  10.656
 4212SOL    HW213524   2.210   0.531  10.512
 4213SOL     OW13525   2.688   1.578   9.988
 4213SOL    HW113526   2.676   1.628   9.907
 4213SOL    HW213527   2.613   1.519   9.991
 4214SOL     OW13528   3.293   0.215  10.428
 4214SOL    HW113529   3.332   0.147  10.483
 4214SOL    HW213530   3.244   0.270  10.490
 4215SOL     OW13531   2.857   0.007  10.460
 4215SOL    HW113532   2.815   4.422  10.451
 4215SOL    HW213533   2.950   4.488  10.471
 4216SOL     OW13534   2.634   1.332   9.625
 4216SOL    HW113535   2.602   1.242   9.631
 4216SOL    HW213536   2.716   1.332   9.674
 4217SOL     OW13537   2.483   1.553  10.594
 4217SOL    HW113538   2.482   1.634  10.644
 4217SOL    HW213539   2.571   1.549  10.556
 4218SOL     OW13540   3.202   0.052   9.464
 4218SOL    HW113541   3.241   4.477   9.420
 4218SOL    HW213542   3.126   0.017   9.511
 4219SOL     OW13543   3.177   0.463   9.986
 4219SOL    HW113544   3.117   0.538   9.987
 4219SOL    HW213545   3.165   0.422  10.072
 4220SOL     OW13546   3.447   0.199  10.177
 4220SOL    HW113547   3.388   0.214  10.251
 4220SOL    HW213548   3.450   0.283  10.131
 4221SOL     OW13549   1.906   1.070   9.616
 4221SOL    HW113550   2.000   1.062   9.598
 4221SOL    HW213551   1.877   0.982   9.639
 4222SOL     OW13552   2.745   1.653   9.653
 4222SOL    HW113553   2.674   1.635   9.592
 4222SOL    HW213554   2.715   1.728   9.704
 4223SOL     OW13555   2.042   2.527   0.076
 4223SOL    HW113556   1.979   2.507   0.145
 4223SOL    HW213557   2.088   2.445   0.061
 4224SOL     OW13558   1.842   2.263   0.637
 4224SOL    HW113559   1.759   2.284   0.681
 4224SOL    HW213560   1.832   2.172   0.608
 4225SOL     OW13561   2.429   3.150   1.176
 4225SOL    HW113562   2.342   3.153   1.136
 4225SOL    HW213563   2.443   3.239   1.208
 4226SOL     OW13564   3.423   3.374   0.707
 4226SOL    HW113565   3.380   3.353   0.790
 4226SOL    HW213566   3.352   3.377   0.643
 4227SOL     OW13567   2.991   2.562   0.699
 4227SOL    HW113568   3.041   2.643   0.690
 4227SOL    HW213569   2.945   2.572   0.782
 4228SOL     OW13570   3.637   2.464   0.217
 4228SOL    HW113571   3.582   2.469   0.139
 4228SOL    HW213572   3.599   2.393   0.269
 4229SOL     OW13573   2.617   3.003   1.044
 4229SOL    HW113574   2.547   3.039   1.098
 4229SOL    HW213575   2.653   3.079   0.998
 4230SOL     OW13576   2.731   2.639   1.819
 4230SOL    HW113577   2.723   2.710   1.883
 4230SOL    HW213578   2.755   2.683   1.738
 4231SOL     OW13579   2.561   2.904   0.649
 4231SOL    HW113580   2.620   2.882   0.722
 4231SOL    HW213581   2.485   2.942   0.692
 4232SOL     OW13582   2.574   3.015   1.808
 4232SOL    HW113583   2.622   3.093   1.836
 4232SOL    HW213584   2.491   3.049   1.773
 4233SOL     OW13585   2.193   3.287   1.068
 4233SOL    HW113586   2.120   3.250   1.018
 4233SOL    HW213587   2.242   3.338   1.003
 4234SOL     OW13588   3.323   3.361   1.355
 4234SOL    HW113589   3.373   3.442   1.364
 4234SOL    HW213590   3.261   3.364   1.428
 4235SOL     OW13591   3.474   2.310   0.740
 4235SOL    HW113592   3.397   2.332   0.688
 4235SOL    HW213593   3.489   2.388   0.794
 4236SOL     OW13594   2.081   3.575   0.474
 4236SOL    HW113595   2.102   3.653   0.525
 4236SOL    HW213596   2.151   3.569   0.408
 4237SOL     OW13597   2.998   3.204   1.693
 4237SOL    HW113598   3.039   3.199   1.779
 4237SOL    HW213599   2.946   3.124   1.686
 4238SOL     OW13600   2.090   3.303   0.533
 4238SOL    HW113601   2.076   3.397   0.535
 4238SOL    HW213602   2.029   3.268   0.598
 4239SOL     OW13603   2.118   2.956   0.890
 4239SOL    HW113604   2.113   2.869   0.929
 4239SOL    HW213605   2.059   3.010   0.944
 4240SOL     OW13606   2.474   3.653   1.430
 4240SOL    HW113607   2.391   3.635   1.476
 4240SOL    HW213608   2.496   3.742   1.455
 4241SOL     OW13609   2.437   2.863   0.136
 4241SOL    HW113610   2.486   2.914   0.071
 4241SOL    HW213611   2.480   2.882   0.219
 4242SOL     OW13612   3.458   1.985   1.468
 4242SOL    HW113613   3.465   2.066   1.417
 4242SOL    HW213614   3.443   2.015   1.558
 4243SOL     OW13615   1.966   2.507   0.562
 4243SOL    HW113616   1.931   2.421   0.587
 4243SOL    HW213617   1.963   2.559   0.642
 4244SOL     OW13618   3.704   3.621   0.333
 4244SOL    HW113619   3.768   3.592   0.398
 4244SOL    HW213620   3.729   3.712   0.314
 4245SOL     OW13621   1.908   3.463   0.119
 4245SOL    HW113622   1.880   3.375   0.143
 4245SOL    HW213623   1.881   3.518   0.193
 4246SOL     OW13624   3.550   2.779   0.642
 4246SOL    HW113625   3.635   2.740   0.622
 4246SOL    HW213626   3.530   2.831   0.564
 4247SOL     OW13627   3.509   2.967   0.432
 4247SOL    HW113628   3.591   2.978   0.385
 4247SOL    HW213629   3.514   3.029   0.504
 4248SOL     OW13630   1.996   2.607   1.580
 4248SOL    HW113631   2.033   2.611   1.668
 4248SOL    HW213632   1.937   2.682   1.575
 4249SOL     OW13633   2.475   3.249   0.736
 4249SOL    HW113634   2.428   3.167   0.745
 4249SOL    HW213635   2.459   3.276   0.645
 4250SOL     OW13636   3.150   3.100   1.424
 4250SOL    HW113637   3.182   3.033   1.363
 4250SOL    HW213638   3.208   3.094   1.499
 4251SOL     OW13639   2.672   1.867   0.505
 4251SOL    HW113640   2.714   1.951   0.489
 4251SOL    HW213641   2.579   1.887   0.513
 4252SOL     OW13642   2.047   2.833   1.271
 4252SOL    HW113643   2.131   2.791   1.256
 4252SOL    HW213644   1.984   2.778   1.225
 4253SOL     OW13645   3.379   2.864   0.203
 4253SOL    HW113646   3.314   2.804   0.240
 4253SOL    HW213647   3.429   2.894   0.279
 4254SOL     OW13648   3.047   3.668   1.622
 4254SOL    HW113649   3.057   3.727   1.548
 4254SOL    HW213650   3.064   3.581   1.586
 4255SOL     OW13651   3.329   3.282   0.951
 4255SOL    HW113652   3.260   3.297   1.017
 4255SOL    HW213653   3.316   3.191   0.924
 4256SOL     OW13654   3.520   3.602   0.579
 4256SOL    HW113655   3.501   3.573   0.490
 4256SOL    HW213656   3.495   3.528   0.634
 4257SOL     OW13657   2.500   2.640   0.305
 4257SOL    HW113658   2.489   2.685   0.222
 4257SOL    HW213659   2.410   2.626   0.337
 4258SOL     OW13660   3.142   2.214   0.932
 4258SOL    HW113661   3.052   2.181   0.941
 4258SOL    HW213662   3.193   2.161   0.993
 4259SOL     OW13663   3.444   3.532   0.312
 4259SOL    HW113664   3.535   3.562   0.305
 4259SOL    HW213665   3.418   3.514   0.222
 4260SOL     OW13666   2.669   2.471   1.470
 4260SOL    HW113667   2.671   2.478   1.566
 4260SOL    HW213668   2.609   2.398   1.453
 4261SOL     OW13669   3.256   2.336   1.678
 4261SOL    HW113670   3.258   2.380   1.763
 4261SOL    HW213671   3.316   2.262   1.688
 4262SOL     OW13672   2.816   2.749   1.580
 4262SOL    HW113673   2.874   2.682   1.545
 4262SOL    HW213674   2.776   2.789   1.503
 4263SOL     OW13675   2.865   2.273   1.235
 4263SOL    HW113676   2.783   2.287   1.282
 4263SOL    HW213677   2.839   2.234   1.151
 4264SOL     OW13678   2.912   2.563   0.431
 4264SOL    HW113679   2.936   2.560   0.524
 4264SOL    HW213680   2.824   2.526   0.428
 4265SOL     OW13681   1.950   2.683   0.774
 4265SOL    HW113682   2.031   2.680   0.825
 4265SOL    HW213683   1.903   2.760   0.808
 4266SOL     OW13684   1.989   3.711   1.578
 4266SOL    HW113685   1.989   3.690   1.671
 4266SOL    HW213686   1.898   3.700   1.551
 4267SOL     OW13687   2.753   2.213   0.218
 4267SOL    HW113688   2.803   2.274   0.164
 4267SOL    HW213689   2.764   2.128   0.174
 4268SOL     OW13690   3.571   2.436   1.828
 4268SOL    HW113691   3.533   2.510   1.780
 4268SOL    HW213692   3.598   2.375   1.760
 4269SOL     OW13693   3.239   3.003   0.541
 4269SOL    HW113694   3.318   2.990   0.488
 4269SOL    HW213695   3.186   3.066   0.492
 4270SOL     OW13696   2.452   2.029   0.871
 4270SOL    HW113697   2.443   2.038   0.965
 4270SOL    HW213698   2.455   2.119   0.838
 4271SOL     OW13699   2.868   3.307   0.473
 4271SOL    HW113700   2.830   3.379   0.424
 4271SOL    HW213701   2.848   3.327   0.565
 4272SOL     OW13702   2.216   3.671   0.863
 4272SOL    HW113703   2.259   3.586   0.870
 4272SOL    HW213704   2.286   3.735   0.880
 4273SOL     OW13705   3.660   2.920   0.869
 4273SOL    HW113706   3.605   2.903   0.792
 4273SOL    HW213707   3.598   2.925   0.942
 4274SOL     OW13708   3.090   3.401   1.513
 4274SOL    HW113709   3.076   3.328   1.574
 4274SOL    HW213710   3.027   3.386   1.443
 4275SOL     OW13711   2.186   2.811   0.271
 4275SOL    HW113712   2.264   2.838   0.222
 4275SOL    HW213713   2.147   2.742   0.216
 4276SOL     OW13714   3.341   2.602   0.725
 4276SOL    HW113715   3.333   2.561   0.812
 4276SOL    HW213716   3.418   2.659   0.733
 4277SOL     OW13717   2.327   3.125   1.737
 4277SOL    HW113718   2.300   3.131   1.645
 4277SOL    HW213719   2.245   3.126   1.786
 4278SOL     OW13720   2.969   3.641   0.227
 4278SOL    HW113721   2.910   3.590   0.281
 4278SOL    HW213722   3.011   3.577   0.170
 4279SOL     OW13723   3.490   3.236   0.089
 4279SOL    HW113724   3.447   3.321   0.077
 4279SOL    HW213725   3.424   3.172   0.060
 4280SOL     OW13726   2.330   3.595   0.327
 4280SOL    HW113727   2.369   3.657   0.389
 4280SOL    HW213728   2.403   3.570   0.269
 4281SOL     OW13729   3.264   1.970   0.432
 4281SOL    HW113730   3.255   1.947   0.339
 4281SOL    HW213731   3.358   1.976   0.446
 4282SOL     OW13732   2.118   3.653   1.232
 4282SOL    HW113733   2.169   3.586   1.276
 4282SOL    HW213734   2.107   3.620   1.143
 4283SOL     OW13735   2.800   3.560   0.899
 4283SOL    HW113736   2.878   3.509   0.919
 4283SOL    HW213737   2.756   3.511   0.830
 4284SOL     OW13738   3.397   2.087   1.725
 4284SOL    HW113739   3.406   2.108   1.818
 4284SOL    HW213740   3.328   2.020   1.722
 4285SOL     OW13741   2.476   1.968   0.131
 4285SOL    HW113742   2.568   1.942   0.130
 4285SOL    HW213743   2.444   1.947   0.044
 4286SOL     OW13744   2.633   2.114   1.744
 4286SOL    HW113745   2.714   2.062   1.749
 4286SOL    HW213746   2.590   2.099   1.828
 4287SOL     OW13747   2.737   3.383   1.194
 4287SOL    HW113748   2.722   3.348   1.106
 4287SOL    HW213749   2.808   3.329   1.230
 4288SOL     OW13750   3.203   2.452   1.433
 4288SOL    HW113751   3.235   2.420   1.518
 4288SOL    HW213752   3.241   2.539   1.425
 4289SOL     OW13753   2.677   3.255   0.940
 4289SOL    HW113754   2.761   3.245   0.896
 4289SOL    HW213755   2.613   3.258   0.869
 4290SOL     OW13756   2.795   2.362   0.914
 4290SOL    HW113757   2.771   2.359   0.822
 4290SOL    HW213758   2.828   2.274   0.933
 4291SOL     OW13759   2.405   1.940   0.506
 4291SOL    HW113760   2.360   1.943   0.590
 4291SOL    HW213761   2.371   2.015   0.457
 4292SOL     OW13762   3.287   3.058   0.029
 4292SOL    HW113763   3.318   2.987   0.084
 4292SOL    HW213764   3.204   3.085   0.069
 4293SOL     OW13765   2.156   1.800   0.130
 4293SOL    HW113766   2.165   1.888   0.093
 4293SOL    HW213767   2.227   1.793   0.194
 4294SOL     OW13768   2.799   2.112   0.464
 4294SOL    HW113769   2.774   2.152   0.380
 4294SOL    HW213770   2.894   2.122   0.468
 4295SOL     OW13771   2.947   2.545   1.459
 4295SOL    HW113772   2.882   2.475   1.466
 4295SOL    HW213773   3.031   2.499   1.452
 4296SOL     OW13774   3.084   3.433   0.795
 4296SOL    HW113775   3.101   3.498   0.727
 4296SOL    HW213776   3.154   3.446   0.859
 4297SOL     OW13777   2.329   3.015   0.736
 4297SOL    HW113778   2.260   2.995   0.799
 4297SOL    HW213779   2.289   2.999   0.650
 4298SOL     OW13780   3.131   3.656   0.607
 4298SOL    HW113781   3.178   3.717   0.550
 4298SOL    HW213782   3.066   3.710   0.651
 4299SOL     OW13783   2.901   2.377   0.058
 4299SOL    HW113784   2.871   2.446  11.098
 4299SOL    HW213785   2.974   2.417   0.105
 4300SOL     OW13786   1.945   2.424   1.379
 4300SOL    HW113787   2.037   2.402   1.389
 4300SOL    HW213788   1.928   2.490   1.447
 4301SOL     OW13789   2.418   2.026   1.141
 4301SOL    HW113790   2.444   1.971   1.215
 4301SOL    HW213791   2.331   2.059   1.165
 4302SOL     OW13792   2.744   2.315   0.651
 4302SOL    HW113793   2.689   2.375   0.602
 4302SOL    HW213794   2.759   2.241   0.592
 4303SOL     OW13795   2.878   1.915   0.751
 4303SOL    HW113796   2.817   1.907   0.677
 4303SOL    HW213797   2.857   1.839   0.806
 4304SOL     OW13798   3.299   3.025   0.857
 4304SOL    HW113799   3.230   2.959   0.855
 4304SOL    HW213800   3.324   3.036   0.765
 4305SOL     OW13801   3.328   2.468   0.977
 4305SOL    HW113802   3.277   2.387   0.980
 4305SOL    HW213803   3.388   2.461   1.051
 4306SOL     OW13804   3.711   2.675   0.378
 4306SOL    HW113805   3.764   2.625   0.440
 4306SOL    HW213806   3.683   2.611   0.313
 4307SOL     OW13807   2.356   3.286   0.172
 4307SOL    HW113808   2.279   3.261   0.223
 4307SOL    HW213809   2.352   3.232   0.093
 4308SOL     OW13810   3.532   3.126   0.647
 4308SOL    HW113811   3.627   3.129   0.660
 4308SOL    HW213812   3.503   3.215   0.667
 4309SOL     OW13813   3.255   2.437   0.081
 4309SOL    HW113814   3.197   2.419   0.156
 4309SOL    HW213815   3.319   2.366   0.082
 4310SOL     OW13816   3.614   3.101   1.573
 4310SOL    HW113817   3.701   3.062   1.569
 4310SOL    HW213818   3.630   3.191   1.602
 4311SOL     OW13819   2.920   3.216   1.334
 4311SOL    HW113820   2.846   3.185   1.385
 4311SOL    HW213821   2.996   3.174   1.375
 4312SOL     OW13822   3.470   3.488   1.654
 4312SOL    HW113823   3.464   3.522   1.565
 4312SOL    HW213824   3.553   3.440   1.656
 4313SOL     OW13825   2.991   3.066   1.106
 4313SOL    HW113826   2.932   3.105   1.170
 4313SOL    HW213827   2.959   3.097   1.021
 4314SOL     OW13828   3.489   2.960   1.078
 4314SOL    HW113829   3.484   3.022   1.150
 4314SOL    HW213830   3.411   2.977   1.026
 4315SOL     OW13831   2.786   1.957   1.396
 4315SOL    HW113832   2.807   1.938   1.304
 4315SOL    HW213833   2.866   1.996   1.431
 4316SOL     OW13834   2.846   2.977   1.721
 4316SOL    HW113835   2.755   2.993   1.743
 4316SOL    HW213836   2.844   2.899   1.666
 4317SOL     OW13837   2.572   2.929   0.369
 4317SOL    HW113838   2.561   2.921   0.464
 4317SOL    HW213839   2.644   2.870   0.348
 4318SOL     OW13840   2.277   2.688   1.251
 4318SOL    HW113841   2.344   2.705   1.318
 4318SOL    HW213842   2.275   2.593   1.243
 4319SOL     OW13843   3.133   2.238   1.277
 4319SOL    HW113844   3.163   2.317   1.322
 4319SOL    HW213845   3.043   2.259   1.251
 4320SOL     OW13846   1.932   3.435   1.353
 4320SOL    HW113847   1.901   3.507   1.298
 4320SOL    HW213848   2.028   3.439   1.347
 4321SOL     OW13849   2.211   2.975   0.493
 4321SOL    HW113850   2.213   3.052   0.436
 4321SOL    HW213851   2.205   2.901   0.434
 4322SOL     OW13852   3.109   3.208   0.395
 4322SOL    HW113853   3.165   3.281   0.422
 4322SOL    HW213854   3.022   3.231   0.427
 4323SOL     OW13855   3.143   3.320   1.147
 4323SOL    HW113856   3.199   3.322   1.225
 4323SOL    HW213857   3.088   3.242   1.159
 4324SOL     OW13858   3.446   2.488   0.477
 4324SOL    HW113859   3.396   2.533   0.546
 4324SOL    HW213860   3.482   2.559   0.424
 4325SOL     OW13861   2.209   3.389   1.315
 4325SOL    HW113862   2.196   3.346   1.230
 4325SOL    HW213863   2.303   3.401   1.322
 4326SOL     OW13864   3.464   2.641   1.682
 4326SOL    HW113865   3.377   2.682   1.675
 4326SOL    HW213866   3.516   2.683   1.614
 4327SOL     OW13867   2.868   1.980   1.758
 4327SOL    HW113868   2.921   2.054   1.728
 4327SOL    HW213869   2.917   1.903   1.729
 4328SOL     OW13870   2.363   1.896   1.753
 4328SOL    HW113871   2.320   1.845   1.684
 4328SOL    HW213872   2.311   1.976   1.760
 4329SOL     OW13873   2.422   2.750   1.021
 4329SOL    HW113874   2.484   2.823   1.023
 4329SOL    HW213875   2.386   2.746   1.109
 4330SOL     OW13876   3.219   2.720   1.030
 4330SOL    HW113877   3.136   2.711   0.984
 4330SOL    HW213878   3.260   2.634   1.024
 4331SOL     OW13879   3.077   2.394   0.282
 4331SOL    HW113880   3.078   2.313   0.331
 4331SOL    HW213881   3.027   2.455   0.336
 4332SOL     OW13882   1.909   3.173   1.277
 4332SOL    HW113883   1.941   3.119   1.349
 4332SOL    HW213884   1.915   3.263   1.309
 4333SOL     OW13885   3.597   2.822   1.853
 4333SOL    HW113886   3.551   2.759   1.796
 4333SOL    HW213887   3.537   2.835   1.926
 4334SOL     OW13888   3.480   2.237   0.365
 4334SOL    HW113889   3.506   2.172   0.430
 4334SOL    HW213890   3.456   2.314   0.417
 4335SOL     OW13891   2.886   2.617   0.958
 4335SOL    HW113892   2.886   2.637   1.052
 4335SOL    HW213893   2.851   2.528   0.952
 4336SOL     OW13894   2.843   3.428   1.717
 4336SOL    HW113895   2.829   3.473   1.634
 4336SOL    HW213896   2.888   3.346   1.694
 4337SOL     OW13897   3.716   3.368   1.605
 4337SOL    HW113898   3.735   3.394   1.515
 4337SOL    HW213899   3.798   3.386   1.653
 4338SOL     OW13900   2.223   2.769   1.797
 4338SOL    HW113901   2.293   2.799   1.856
 4338SOL    HW213902   2.270   2.729   1.724
 4339SOL     OW13903   3.397   2.153   0.115
 4339SOL    HW113904   3.338   2.080   0.131
 4339SOL    HW213905   3.430   2.176   0.202
 4340SOL     OW13906   3.149   2.682   0.031
 4340SOL    HW113907   3.194   2.599   0.043
 4340SOL    HW213908   3.189   2.721  11.053
 4341SOL     OW13909   2.928   3.198   0.854
 4341SOL    HW113910   2.931   3.125   0.792
 4341SOL    HW213911   2.989   3.263   0.819
 4342SOL     OW13912   2.168   2.680   0.944
 4342SOL    HW113913   2.259   2.709   0.947
 4342SOL    HW213914   2.164   2.605   1.004
 4343SOL     OW13915   2.996   2.241   1.679
 4343SOL    HW113916   2.948   2.292   1.744
 4343SOL    HW213917   3.084   2.278   1.678
 4344SOL     OW13918   3.024   2.066   1.470
 4344SOL    HW113919   3.013   2.129   1.541
 4344SOL    HW213920   3.066   2.116   1.400
 4345SOL     OW13921   1.870   3.189   0.195
 4345SOL    HW113922   1.783   3.202   0.156
 4345SOL    HW213923   1.869   3.099   0.226
 4346SOL     OW13924   1.952   3.649   0.939
 4346SOL    HW113925   1.922   3.570   0.895
 4346SOL    HW213926   2.042   3.661   0.907
 4347SOL     OW13927   2.359   3.436   0.906
 4347SOL    HW113928   2.427   3.498   0.930
 4347SOL    HW213929   2.402   3.373   0.849
 4348SOL     OW13930   2.851   2.656   1.225
 4348SOL    HW113931   2.907   2.631   1.299
 4348SOL    HW213932   2.763   2.628   1.251
 4349SOL     OW13933   1.899   2.419   1.113
 4349SOL    HW113934   1.959   2.354   1.075
 4349SOL    HW213935   1.921   2.420   1.206
 4350SOL     OW13936   3.239   2.801   1.658
 4350SOL    HW113937   3.260   2.894   1.656
 4350SOL    HW213938   3.237   2.775   1.566
 4351SOL     OW13939   3.504   2.463   1.186
 4351SOL    HW113940   3.494   2.404   1.260
 4351SOL    HW213941   3.591   2.444   1.151
 4352SOL     OW13942   2.106   3.413   1.728
 4352SOL    HW113943   2.082   3.478   1.794
 4352SOL    HW213944   2.107   3.330   1.775
 4353SOL     OW13945   2.789   3.541   1.468
 4353SOL    HW113946   2.764   3.506   1.382
 4353SOL    HW213947   2.785   3.636   1.457
 4354SOL     OW13948   2.007   3.004   1.475
 4354SOL    HW113949   2.009   2.951   1.555
 4354SOL    HW213950   2.022   2.941   1.405
 4355SOL     OW13951   3.187   2.909   1.223
 4355SOL    HW113952   3.211   2.845   1.155
 4355SOL    HW213953   3.117   2.961   1.184
 4356SOL     OW13954   3.171   2.716   0.309
 4356SOL    HW113955   3.095   2.683   0.358
 4356SOL    HW213956   3.149   2.700   0.217
 4357SOL     OW13957   3.635   3.605   1.151
 4357SOL    HW113958   3.695   3.632   1.081
 4357SOL    HW213959   3.610   3.516   1.129
 4358SOL     OW13960   3.103   3.595   1.113
 4358SOL    HW113961   3.185   3.616   1.068
 4358SOL    HW213962   3.109   3.501   1.131
 4359SOL     OW13963   1.945   3.129   1.013
 4359SOL    HW113964   1.931   3.142   1.107
 4359SOL    HW213965   1.871   3.075   0.984
 4360SOL     OW13966   2.539   3.528   1.729
 4360SOL    HW113967   2.485   3.607   1.724
 4360SOL    HW213968   2.605   3.540   1.660
 4361SOL     OW13969   2.778   1.956   0.105
 4361SOL    HW113970   2.827   1.921   0.031
 4361SOL    HW213971   2.816   1.914   0.182
 4362SOL     OW13972   3.580   2.009   0.509
 4362SOL    HW113973   3.653   1.995   0.449
 4362SOL    HW213974   3.565   1.923   0.549
 4363SOL     OW13975   3.252   3.430   0.486
 4363SOL    HW113976   3.313   3.462   0.419
 4363SOL    HW213977   3.205   3.508   0.514
 4364SOL     OW13978   1.999   3.657   1.843
 4364SOL    HW113979   1.948   3.593   1.891
 4364SOL    HW213980   2.046   3.707   1.910
 4365SOL     OW13981   3.140   2.787   0.671
 4365SOL    HW113982   3.214   2.726   0.677
 4365SOL    HW213983   3.173   2.860   0.619
 4366SOL     OW13984   2.675   3.137   1.430
 4366SOL    HW113985   2.647   3.176   1.512
 4366SOL    HW213986   2.607   3.160   1.367
 4367SOL     OW13987   2.536   3.484   0.168
 4367SOL    HW113988   2.551   3.492   0.074
 4367SOL    HW213989   2.479   3.408   0.177
 4368SOL     OW13990   3.488   3.588   1.391
 4368SOL    HW113991   3.538   3.595   1.310
 4368SOL    HW213992   3.475   3.679   1.419
 4369SOL     OW13993   3.703   2.034   0.967
 4369SOL    HW113994   3.732   1.948   0.940
 4369SOL    HW213995   3.616   2.044   0.927
 4370SOL     OW13996   3.085   3.464   0.053
 4370SOL    HW113997   3.072   3.371   0.073
 4370SOL    HW213998   3.020   3.483  11.085
 4371SOL     OW13999   2.700   2.875   1.368
 4371SOL    HW114000   2.738   2.875   1.281
 4371SOL    HW214001   2.693   2.967   1.392
 4372SOL     OW14002   2.785   2.781   0.286
 4372SOL    HW114003   2.852   2.817   0.229
 4372SOL    HW214004   2.831   2.713   0.337
 4373SOL     OW14005   3.361   3.484   0.047
 4373SOL    HW114006   3.265   3.479   0.045
 4373SOL    HW214007   3.386   3.498  11.056
 4374SOL     OW14008   2.231   3.165   1.492
 4374SOL    HW114009   2.218   3.242   1.436
 4374SOL    HW214010   2.154   3.111   1.476
 4375SOL     OW14011   3.472   3.145   1.281
 4375SOL    HW114012   3.532   3.134   1.355
 4375SOL    HW214013   3.412   3.214   1.308
 4376SOL     OW14014   2.916   2.970   0.707
 4376SOL    HW114015   2.845   2.919   0.746
 4376SOL    HW214016   2.978   2.904   0.675
 4377SOL     OW14017   2.884   2.100   0.967
 4377SOL    HW114018   2.879   2.052   0.884
 4377SOL    HW214019   2.879   2.031   1.034
 4378SOL     OW14020   2.465   3.352   0.482
 4378SOL    HW114021   2.506   3.301   0.413
 4378SOL    HW214022   2.396   3.401   0.437
 4379SOL     OW14023   3.584   2.254   1.380
 4379SOL    HW114024   3.656   2.317   1.379
 4379SOL    HW214025   3.614   2.183   1.324
 4380SOL     OW14026   2.128   3.197   0.291
 4380SOL    HW114027   2.041   3.201   0.252
 4380SOL    HW214028   2.118   3.238   0.377
 4381SOL     OW14029   1.976   2.884   1.722
 4381SOL    HW114030   1.898   2.860   1.773
 4381SOL    HW214031   2.049   2.842   1.768
 4382SOL     OW14032   2.545   2.050   1.487
 4382SOL    HW114033   2.631   2.024   1.455
 4382SOL    HW214034   2.561   2.083   1.576
 4383SOL     OW14035   1.884   2.268   0.062
 4383SOL    HW114036   1.823   2.201   0.032
 4383SOL    HW214037   1.938   2.288  11.086
 4384SOL     OW14038   3.292   2.721   1.400
 4384SOL    HW114039   3.243   2.781   1.344
 4384SOL    HW214040   3.381   2.722   1.366
 4385SOL     OW14041   3.045   3.202   0.122
 4385SOL    HW114042   2.951   3.183   0.115
 4385SOL    HW214043   3.063   3.194   0.216
 4386SOL     OW14044   2.494   2.711   1.423
 4386SOL    HW114045   2.552   2.786   1.409
 4386SOL    HW214046   2.552   2.640   1.448
 4387SOL     OW14047   3.345   3.639   0.979
 4387SOL    HW114048   3.369   3.699   0.908
 4387SOL    HW214049   3.429   3.619   1.022
 4388SOL     OW14050   3.333   3.062   1.632
 4388SOL    HW114051   3.321   3.076   1.726
 4388SOL    HW214052   3.427   3.077   1.617
 4389SOL     OW14053   2.241   3.601   1.564
 4389SOL    HW114054   2.156   3.643   1.550
 4389SOL    HW214055   2.220   3.518   1.606
 4390SOL     OW14056   3.531   2.743   1.256
 4390SOL    HW114057   3.525   2.658   1.213
 4390SOL    HW214058   3.522   2.806   1.184
 4391SOL     OW14059   3.076   2.178   0.461
 4391SOL    HW114060   3.141   2.109   0.450
 4391SOL    HW214061   3.107   2.227   0.537
 4392SOL     OW14062   2.533   2.640   0.616
 4392SOL    HW114063   2.553   2.733   0.621
 4392SOL    HW214064   2.439   2.636   0.599
 4393SOL     OW14065   3.624   2.224   1.651
 4393SOL    HW114066   3.607   2.239   1.557
 4393SOL    HW214067   3.552   2.167   1.679
 4394SOL     OW14068   3.607   2.796   1.512
 4394SOL    HW114069   3.604   2.890   1.525
 4394SOL    HW214070   3.592   2.783   1.419
 4395SOL     OW14071   2.766   3.218   0.069
 4395SOL    HW114072   2.697   3.217   0.135
 4395SOL    HW214073   2.752   3.299   0.021
 4396SOL     OW14074   2.523   3.653   0.945
 4396SOL    HW114075   2.503   3.743   0.921
 4396SOL    HW214076   2.618   3.647   0.937
 4397SOL     OW14077   2.730   2.832   0.856
 4397SOL    HW114078   2.774   2.754   0.891
 4397SOL    HW214079   2.697   2.878   0.933
 4398SOL     OW14080   2.945   2.854   0.083
 4398SOL    HW114081   2.919   2.887  11.097
 4398SOL    HW214082   3.019   2.796   0.066
 4399SOL     OW14083   3.716   3.417   0.845
 4399SOL    HW114084   3.639   3.405   0.789
 4399SOL    HW214085   3.709   3.348   0.911
 4400SOL     OW14086   2.087   3.165   1.856
 4400SOL    HW114087   2.018   3.107   1.825
 4400SOL    HW214088   2.067   3.179   1.949
 4401SOL     OW14089   1.945   3.096   0.666
 4401SOL    HW114090   1.950   3.046   0.748
 4401SOL    HW214091   2.014   3.059   0.611
 4402SOL     OW14092   2.542   3.266   1.627
 4402SOL    HW114093   2.462   3.223   1.658
 4402SOL    HW214094   2.538   3.354   1.665
 4403SOL     OW14095   3.675   2.046   1.238
 4403SOL    HW114096   3.684   1.952   1.252
 4403SOL    HW214097   3.684   2.057   1.144
 4404SOL     OW14098   3.561   3.352   1.098
 4404SOL    HW114099   3.481   3.328   1.050
 4404SOL    HW214100   3.573   3.281   1.161
 4405SOL     OW14101   2.689   3.440   0.678
 4405SOL    HW114102   2.675   3.492   0.599
 4405SOL    HW214103   2.613   3.382   0.682
 4406SOL     OW14104   3.295   2.087   1.117
 4406SOL    HW114105   3.318   2.006   1.163
 4406SOL    HW214106   3.244   2.136   1.181
 4407SOL     OW14107   2.872   1.880   1.142
 4407SOL    HW114108   2.816   1.813   1.103
 4407SOL    HW214109   2.959   1.841   1.144
 4408SOL     OW14110   2.631   3.193   0.316
 4408SOL    HW114111   2.602   3.102   0.328
 4408SOL    HW214112   2.715   3.197   0.362
 4409SOL     OW14113   2.482   3.418   1.285
 4409SOL    HW114114   2.484   3.500   1.335
 4409SOL    HW214115   2.569   3.411   1.247
 4410SOL     OW14116   3.213   1.917   0.164
 4410SOL    HW114117   3.234   1.865   0.086
 4410SOL    HW214118   3.126   1.886   0.190
 4411SOL     OW14119   3.159   2.323   0.681
 4411SOL    HW114120   3.105   2.402   0.688
 4411SOL    HW214121   3.155   2.283   0.768
 4412SOL     OW14122   3.449   2.064   0.878
 4412SOL    HW114123   3.388   2.084   0.949
 4412SOL    HW214124   3.448   2.142   0.823
 4413SOL     OW14125   1.903   2.933   0.301
 4413SOL    HW114126   1.999   2.929   0.298
 4413SOL    HW214127   1.877   2.844   0.327
 4414SOL     OW14128   2.747   3.516   0.347
 4414SOL    HW114129   2.675   3.496   0.288
 4414SOL    HW214130   2.716   3.590   0.399
 4415SOL     OW14131   2.071   2.522   1.984
 4415SOL    HW114132   1.983   2.494   2.008
 4415SOL    HW214133   2.105   2.452   1.928
 4416SOL     OW14134   2.428   3.150   3.038
 4416SOL    HW114135   2.341   3.154   2.998
 4416SOL    HW214136   2.444   3.238   3.071
 4417SOL     OW14137   3.423   3.374   2.569
 4417SOL    HW114138   3.381   3.354   2.652
 4417SOL    HW214139   3.352   3.378   2.505
 4418SOL     OW14140   2.993   2.561   2.562
 4418SOL    HW114141   3.042   2.642   2.548
 4418SOL    HW214142   2.950   2.574   2.647
 4419SOL     OW14143   3.630   2.467   2.091
 4419SOL    HW114144   3.609   2.459   1.997
 4419SOL    HW214145   3.593   2.388   2.130
 4420SOL     OW14146   2.614   3.003   2.902
 4420SOL    HW114147   2.547   3.040   2.959
 4420SOL    HW214148   2.652   3.079   2.858
 4421SOL     OW14149   2.737   2.640   3.686
 4421SOL    HW114150   2.716   2.712   3.745
 4421SOL    HW214151   2.757   2.682   3.602
 4422SOL     OW14152   2.560   2.893   2.507
 4422SOL    HW114153   2.621   2.873   2.577
 4422SOL    HW214154   2.486   2.937   2.550
 4423SOL     OW14155   2.573   3.013   3.672
 4423SOL    HW114156   2.621   3.092   3.700
 4423SOL    HW214157   2.490   3.047   3.638
 4424SOL     OW14158   2.193   3.286   2.930
 4424SOL    HW114159   2.120   3.250   2.880
 4424SOL    HW214160   2.242   3.337   2.865
 4425SOL     OW14161   3.323   3.361   3.217
 4425SOL    HW114162   3.373   3.442   3.226
 4425SOL    HW214163   3.261   3.364   3.289
 4426SOL     OW14164   3.473   2.310   2.603
 4426SOL    HW114165   3.399   2.333   2.548
 4426SOL    HW214166   3.489   2.388   2.656
 4427SOL     OW14167   2.082   3.575   2.335
 4427SOL    HW114168   2.103   3.652   2.388
 4427SOL    HW214169   2.154   3.569   2.272
 4428SOL     OW14170   2.998   3.203   3.555
 4428SOL    HW114171   3.039   3.198   3.641
 4428SOL    HW214172   2.946   3.123   3.548
 4429SOL     OW14173   2.093   3.303   2.398
 4429SOL    HW114174   2.076   3.397   2.400
 4429SOL    HW214175   2.032   3.266   2.461
 4430SOL     OW14176   2.119   2.957   2.751
 4430SOL    HW114177   2.115   2.870   2.790
 4430SOL    HW214178   2.060   3.010   2.805
 4431SOL     OW14179   2.473   3.653   3.292
 4431SOL    HW114180   2.391   3.635   3.338
 4431SOL    HW214181   2.496   3.742   3.317
 4432SOL     OW14182   2.442   2.855   1.988
 4432SOL    HW114183   2.490   2.903   1.920
 4432SOL    HW214184   2.480   2.886   2.071
 4433SOL     OW14185   3.458   1.985   3.330
 4433SOL    HW114186   3.465   2.067   3.280
 4433SOL    HW214187   3.443   2.014   3.420
 4434SOL     OW14188   1.974   2.513   2.423
 4434SOL    HW114189   1.931   2.433   2.453
 4434SOL    HW214190   1.974   2.570   2.500
 4435SOL     OW14191   3.704   3.621   2.196
 4435SOL    HW114192   3.768   3.593   2.262
 4435SOL    HW214193   3.728   3.712   2.178
 4436SOL     OW14194   1.895   3.456   1.986
 4436SOL    HW114195   1.875   3.365   2.006
 4436SOL    HW214196   1.870   3.504   2.065
 4437SOL     OW14197   3.551   2.781   2.504
 4437SOL    HW114198   3.635   2.739   2.484
 4437SOL    HW214199   3.530   2.831   2.425
 4438SOL     OW14200   3.508   2.968   2.291
 4438SOL    HW114201   3.594   2.974   2.249
 4438SOL    HW214202   3.513   3.030   2.364
 4439SOL     OW14203   1.978   2.598   3.446
 4439SOL    HW114204   2.068   2.623   3.468
 4439SOL    HW214205   1.927   2.678   3.459
 4440SOL     OW14206   2.475   3.248   2.598
 4440SOL    HW114207   2.429   3.165   2.607
 4440SOL    HW214208   2.460   3.275   2.507
 4441SOL     OW14209   3.150   3.100   3.286
 4441SOL    HW114210   3.182   3.033   3.225
 4441SOL    HW214211   3.208   3.093   3.361
 4442SOL     OW14212   2.675   1.862   2.370
 4442SOL    HW114213   2.716   1.946   2.349
 4442SOL    HW214214   2.581   1.883   2.376
 4443SOL     OW14215   2.036   2.838   3.131
 4443SOL    HW114216   2.124   2.804   3.111
 4443SOL    HW214217   1.976   2.779   3.086
 4444SOL     OW14218   3.393   2.856   2.061
 4444SOL    HW114219   3.323   2.798   2.092
 4444SOL    HW214220   3.434   2.890   2.140
 4445SOL     OW14221   3.047   3.668   3.484
 4445SOL    HW114222   3.058   3.728   3.410
 4445SOL    HW214223   3.064   3.581   3.448
 4446SOL     OW14224   3.329   3.282   2.813
 4446SOL    HW114225   3.260   3.297   2.879
 4446SOL    HW214226   3.316   3.190   2.787
 4447SOL     OW14227   3.520   3.601   2.440
 4447SOL    HW114228   3.501   3.572   2.351
 4447SOL    HW214229   3.496   3.528   2.496
 4448SOL     OW14230   2.530   2.635   2.145
 4448SOL    HW114231   2.524   2.691   2.068
 4448SOL    HW214232   2.449   2.651   2.193
 4449SOL     OW14233   3.141   2.215   2.795
 4449SOL    HW114234   3.052   2.181   2.803
 4449SOL    HW214235   3.192   2.162   2.855
 4450SOL     OW14236   3.442   3.532   2.171
 4450SOL    HW114237   3.533   3.564   2.164
 4450SOL    HW214238   3.416   3.515   2.081
 4451SOL     OW14239   3.256   2.336   3.539
 4451SOL    HW114240   3.259   2.380   3.624
 4451SOL    HW214241   3.316   2.262   3.549
 4452SOL     OW14242   2.817   2.746   3.440
 4452SOL    HW114243   2.870   2.675   3.403
 4452SOL    HW214244   2.774   2.785   3.364
 4453SOL     OW14245   2.859   2.272   3.096
 4453SOL    HW114246   2.774   2.294   3.135
 4453SOL    HW214247   2.837   2.228   3.014
 4454SOL     OW14248   2.922   2.566   2.289
 4454SOL    HW114249   2.937   2.559   2.383
 4454SOL    HW214250   2.840   2.517   2.274
 4455SOL     OW14251   1.953   2.685   2.634
 4455SOL    HW114252   2.033   2.683   2.686
 4455SOL    HW214253   1.904   2.760   2.669
 4456SOL     OW14254   1.989   3.711   3.440
 4456SOL    HW114255   1.989   3.690   3.533
 4456SOL    HW214256   1.897   3.700   3.414
 4457SOL     OW14257   2.756   2.212   2.057
 4457SOL    HW114258   2.797   2.271   1.994
 4457SOL    HW214259   2.761   2.126   2.016
 4458SOL     OW14260   3.572   2.437   3.690
 4458SOL    HW114261   3.533   2.510   3.642
 4458SOL    HW214262   3.598   2.375   3.622
 4459SOL     OW14263   3.239   3.004   2.403
 4459SOL    HW114264   3.318   2.991   2.350
 4459SOL    HW214265   3.186   3.066   2.353
 4460SOL     OW14266   2.867   3.306   2.334
 4460SOL    HW114267   2.830   3.380   2.285
 4460SOL    HW214268   2.850   3.327   2.426
 4461SOL     OW14269   2.216   3.671   2.724
 4461SOL    HW114270   2.260   3.586   2.732
 4461SOL    HW214271   2.285   3.735   2.743
 4462SOL     OW14272   3.660   2.921   2.730
 4462SOL    HW114273   3.606   2.901   2.654
 4462SOL    HW214274   3.598   2.925   2.803
 4463SOL     OW14275   3.090   3.401   3.375
 4463SOL    HW114276   3.076   3.328   3.436
 4463SOL    HW214277   3.027   3.386   3.305
 4464SOL     OW14278   2.188   2.807   2.115
 4464SOL    HW114279   2.267   2.829   2.064
 4464SOL    HW214280   2.151   2.731   2.069
 4465SOL     OW14281   3.341   2.604   2.589
 4465SOL    HW114282   3.332   2.562   2.674
 4465SOL    HW214283   3.418   2.660   2.597
 4466SOL     OW14284   2.328   3.126   3.599
 4466SOL    HW114285   2.301   3.131   3.508
 4466SOL    HW214286   2.246   3.124   3.649
 4467SOL     OW14287   2.983   3.640   2.093
 4467SOL    HW114288   2.911   3.598   2.138
 4467SOL    HW214289   3.007   3.578   2.023
 4468SOL     OW14290   3.491   3.242   1.950
 4468SOL    HW114291   3.449   3.327   1.935
 4468SOL    HW214292   3.422   3.178   1.931
 4469SOL     OW14293   2.328   3.599   2.183
 4469SOL    HW114294   2.370   3.656   2.247
 4469SOL    HW214295   2.400   3.568   2.127
 4470SOL     OW14296   3.263   1.970   2.295
 4470SOL    HW114297   3.253   1.945   2.203
 4470SOL    HW214298   3.358   1.976   2.308
 4471SOL     OW14299   2.118   3.653   3.094
 4471SOL    HW114300   2.169   3.587   3.139
 4471SOL    HW214301   2.107   3.619   3.005
 4472SOL     OW14302   2.800   3.560   2.761
 4472SOL    HW114303   2.878   3.509   2.781
 4472SOL    HW214304   2.756   3.511   2.692
 4473SOL     OW14305   3.396   2.087   3.587
 4473SOL    HW114306   3.406   2.108   3.680
 4473SOL    HW214307   3.328   2.020   3.585
 4474SOL     OW14308   2.510   1.986   1.965
 4474SOL    HW114309   2.568   1.914   1.990
 4474SOL    HW214310   2.454   1.949   1.897
 4475SOL     OW14311   2.631   2.124   3.606
 4475SOL    HW114312   2.706   2.066   3.624
 4475SOL    HW214313   2.583   2.126   3.689
 4476SOL     OW14314   2.738   3.383   3.056
 4476SOL    HW114315   2.723   3.347   2.968
 4476SOL    HW214316   2.808   3.330   3.092
 4477SOL     OW14317   3.197   2.458   3.297
 4477SOL    HW114318   3.230   2.423   3.380
 4477SOL    HW214319   3.240   2.542   3.288
 4478SOL     OW14320   2.677   3.256   2.802
 4478SOL    HW114321   2.761   3.245   2.758
 4478SOL    HW214322   2.613   3.258   2.731
 4479SOL     OW14323   2.789   2.368   2.769
 4479SOL    HW114324   2.774   2.364   2.674
 4479SOL    HW214325   2.824   2.282   2.792
 4480SOL     OW14326   2.408   1.933   2.364
 4480SOL    HW114327   2.350   1.939   2.440
 4480SOL    HW214328   2.398   2.017   2.320
 4481SOL     OW14329   3.290   3.060   1.903
 4481SOL    HW114330   3.321   2.985   1.953
 4481SOL    HW214331   3.205   3.081   1.941
 4482SOL     OW14332   2.801   2.106   2.318
 4482SOL    HW114333   2.775   2.148   2.236
 4482SOL    HW214334   2.896   2.118   2.322
 4483SOL     OW14335   2.931   2.525   3.316
 4483SOL    HW114336   2.895   2.444   3.352
 4483SOL    HW214337   3.025   2.507   3.307
 4484SOL     OW14338   3.085   3.432   2.656
 4484SOL    HW114339   3.101   3.499   2.589
 4484SOL    HW214340   3.154   3.446   2.721
 4485SOL     OW14341   2.330   3.012   2.595
 4485SOL    HW114342   2.260   2.995   2.658
 4485SOL    HW214343   2.290   2.995   2.510
 4486SOL     OW14344   3.131   3.656   2.470
 4486SOL    HW114345   3.177   3.717   2.413
 4486SOL    HW214346   3.065   3.710   2.514
 4487SOL     OW14347   2.885   2.404   1.883
 4487SOL    HW114348   2.837   2.484   1.864
 4487SOL    HW214349   2.949   2.429   1.950
 4488SOL     OW14350   1.953   2.417   3.245
 4488SOL    HW114351   2.033   2.375   3.276
 4488SOL    HW214352   1.936   2.486   3.309
 4489SOL     OW14353   2.757   2.315   2.499
 4489SOL    HW114354   2.722   2.375   2.434
 4489SOL    HW214355   2.773   2.234   2.451
 4490SOL     OW14356   2.874   1.915   2.614
 4490SOL    HW114357   2.819   1.904   2.537
 4490SOL    HW214358   2.853   1.840   2.669
 4491SOL     OW14359   3.299   3.025   2.719
 4491SOL    HW114360   3.230   2.958   2.718
 4491SOL    HW214361   3.323   3.035   2.627
 4492SOL     OW14362   3.328   2.468   2.839
 4492SOL    HW114363   3.278   2.387   2.842
 4492SOL    HW214364   3.388   2.461   2.913
 4493SOL     OW14365   3.708   2.678   2.244
 4493SOL    HW114366   3.764   2.627   2.303
 4493SOL    HW214367   3.679   2.615   2.178
 4494SOL     OW14368   2.352   3.280   2.019
 4494SOL    HW114369   2.277   3.251   2.071
 4494SOL    HW214370   2.338   3.242   1.933
 4495SOL     OW14371   3.532   3.126   2.507
 4495SOL    HW114372   3.627   3.129   2.522
 4495SOL    HW214373   3.503   3.215   2.529
 4496SOL     OW14374   3.256   2.434   1.933
 4496SOL    HW114375   3.195   2.414   2.004
 4496SOL    HW214376   3.340   2.401   1.965
 4497SOL     OW14377   3.614   3.101   3.435
 4497SOL    HW114378   3.701   3.062   3.431
 4497SOL    HW214379   3.630   3.191   3.464
 4498SOL     OW14380   2.920   3.216   3.196
 4498SOL    HW114381   2.846   3.185   3.247
 4498SOL    HW214382   2.996   3.174   3.237
 4499SOL     OW14383   3.470   3.488   3.516
 4499SOL    HW114384   3.464   3.522   3.427
 4499SOL    HW214385   3.553   3.440   3.518
 4500SOL     OW14386   2.992   3.067   2.967
 4500SOL    HW114387   2.932   3.104   3.032
 4500SOL    HW214388   2.959   3.098   2.883
 4501SOL     OW14389   3.489   2.960   2.940
 4501SOL    HW114390   3.485   3.022   3.012
 4501SOL    HW214391   3.411   2.977   2.888
 4502SOL     OW14392   2.792   1.952   3.258
 4502SOL    HW114393   2.813   1.936   3.166
 4502SOL    HW214394   2.871   1.994   3.293
 4503SOL     OW14395   2.846   2.974   3.583
 4503SOL    HW114396   2.754   2.991   3.605
 4503SOL    HW214397   2.844   2.897   3.527
 4504SOL     OW14398   2.569   2.928   2.229
 4504SOL    HW114399   2.561   2.919   2.324
 4504SOL    HW214400   2.645   2.874   2.207
 4505SOL     OW14401   2.272   2.703   3.115
 4505SOL    HW114402   2.346   2.717   3.175
 4505SOL    HW214403   2.225   2.629   3.152
 4506SOL     OW14404   3.130   2.241   3.139
 4506SOL    HW114405   3.160   2.320   3.184
 4506SOL    HW214406   3.039   2.261   3.114
 4507SOL     OW14407   1.932   3.436   3.215
 4507SOL    HW114408   1.902   3.508   3.161
 4507SOL    HW214409   2.028   3.439   3.209
 4508SOL     OW14410   2.212   2.968   2.349
 4508SOL    HW114411   2.217   3.047   2.295
 4508SOL    HW214412   2.207   2.896   2.286
 4509SOL     OW14413   3.110   3.210   2.251
 4509SOL    HW114414   3.166   3.282   2.282
 4509SOL    HW214415   3.023   3.231   2.285
 4510SOL     OW14416   3.143   3.320   3.009
 4510SOL    HW114417   3.199   3.322   3.087
 4510SOL    HW214418   3.088   3.242   3.021
 4511SOL     OW14419   3.444   2.485   2.341
 4511SOL    HW114420   3.396   2.537   2.406
 4511SOL    HW214421   3.488   2.549   2.285
 4512SOL     OW14422   2.208   3.390   3.176
 4512SOL    HW114423   2.196   3.346   3.092
 4512SOL    HW214424   2.303   3.401   3.184
 4513SOL     OW14425   2.263   2.629   3.441
 4513SOL    HW114426   2.331   2.681   3.400
 4513SOL    HW214427   2.288   2.538   3.423
 4514SOL     OW14428   3.464   2.641   3.544
 4514SOL    HW114429   3.377   2.682   3.537
 4514SOL    HW214430   3.516   2.683   3.476
 4515SOL     OW14431   2.863   1.980   3.621
 4515SOL    HW114432   2.914   2.054   3.588
 4515SOL    HW214433   2.913   1.903   3.595
 4516SOL     OW14434   2.361   1.892   3.618
 4516SOL    HW114435   2.322   1.844   3.545
 4516SOL    HW214436   2.293   1.954   3.645
 4517SOL     OW14437   2.439   2.745   2.893
 4517SOL    HW114438   2.483   2.830   2.886
 4517SOL    HW214439   2.385   2.752   2.972
 4518SOL     OW14440   3.218   2.720   2.891
 4518SOL    HW114441   3.135   2.710   2.846
 4518SOL    HW214442   3.260   2.634   2.885
 4519SOL     OW14443   3.068   2.390   2.129
 4519SOL    HW114444   3.074   2.312   2.183
 4519SOL    HW214445   3.027   2.456   2.186
 4520SOL     OW14446   1.911   3.173   3.138
 4520SOL    HW114447   1.942   3.119   3.211
 4520SOL    HW214448   1.915   3.263   3.172
 4521SOL     OW14449   2.643   2.543   2.954
 4521SOL    HW114450   2.668   2.481   2.885
 4521SOL    HW214451   2.577   2.598   2.914
 4522SOL     OW14452   3.597   2.822   3.715
 4522SOL    HW114453   3.551   2.759   3.658
 4522SOL    HW214454   3.537   2.835   3.788
 4523SOL     OW14455   3.479   2.236   2.229
 4523SOL    HW114456   3.506   2.172   2.294
 4523SOL    HW214457   3.456   2.314   2.279
 4524SOL     OW14458   2.900   2.622   2.820
 4524SOL    HW114459   2.895   2.646   2.912
 4524SOL    HW214460   2.862   2.534   2.816
 4525SOL     OW14461   2.843   3.428   3.579
 4525SOL    HW114462   2.829   3.472   3.496
 4525SOL    HW214463   2.887   3.346   3.555
 4526SOL     OW14464   3.716   3.368   3.467
 4526SOL    HW114465   3.735   3.394   3.377
 4526SOL    HW214466   3.798   3.386   3.515
 4527SOL     OW14467   2.218   2.782   3.668
 4527SOL    HW114468   2.300   2.795   3.715
 4527SOL    HW214469   2.241   2.725   3.594
 4528SOL     OW14470   3.391   2.135   1.989
 4528SOL    HW114471   3.326   2.070   2.016
 4528SOL    HW214472   3.424   2.171   2.072
 4529SOL     OW14473   3.154   2.688   1.893
 4529SOL    HW114474   3.197   2.602   1.897
 4529SOL    HW214475   3.186   2.727   1.811
 4530SOL     OW14476   2.927   3.198   2.716
 4530SOL    HW114477   2.931   3.125   2.654
 4530SOL    HW214478   2.989   3.262   2.681
 4531SOL     OW14479   2.172   2.683   2.803
 4531SOL    HW114480   2.266   2.703   2.801
 4531SOL    HW214481   2.167   2.597   2.845
 4532SOL     OW14482   2.994   2.245   3.536
 4532SOL    HW114483   2.948   2.294   3.605
 4532SOL    HW214484   3.083   2.280   3.539
 4533SOL     OW14485   3.027   2.067   3.332
 4533SOL    HW114486   3.014   2.129   3.403
 4533SOL    HW214487   3.068   2.118   3.262
 4534SOL     OW14488   1.867   3.182   2.056
 4534SOL    HW114489   1.781   3.197   2.018
 4534SOL    HW214490   1.863   3.093   2.090
 4535SOL     OW14491   1.952   3.648   2.800
 4535SOL    HW114492   1.922   3.569   2.756
 4535SOL    HW214493   2.042   3.661   2.769
 4536SOL     OW14494   2.358   3.436   2.768
 4536SOL    HW114495   2.427   3.498   2.792
 4536SOL    HW214496   2.403   3.372   2.711
 4537SOL     OW14497   2.850   2.667   3.088
 4537SOL    HW114498   2.885   2.620   3.164
 4537SOL    HW214499   2.772   2.617   3.064
 4538SOL     OW14500   1.905   2.422   2.977
 4538SOL    HW114501   1.944   2.341   2.944
 4538SOL    HW214502   1.927   2.422   3.071
 4539SOL     OW14503   3.239   2.801   3.520
 4539SOL    HW114504   3.260   2.894   3.519
 4539SOL    HW214505   3.238   2.775   3.427
 4540SOL     OW14506   2.694   2.431   2.235
 4540SOL    HW114507   2.689   2.360   2.170
 4540SOL    HW214508   2.633   2.497   2.202
 4541SOL     OW14509   3.504   2.463   3.048
 4541SOL    HW114510   3.495   2.403   3.122
 4541SOL    HW214511   3.591   2.444   3.013
 4542SOL     OW14512   2.106   3.413   3.589
 4542SOL    HW114513   2.082   3.478   3.656
 4542SOL    HW214514   2.107   3.330   3.636
 4543SOL     OW14515   2.789   3.541   3.330
 4543SOL    HW114516   2.764   3.506   3.244
 4543SOL    HW214517   2.785   3.636   3.319
 4544SOL     OW14518   2.008   3.005   3.339
 4544SOL    HW114519   2.008   2.952   3.418
 4544SOL    HW214520   2.019   2.942   3.267
 4545SOL     OW14521   3.188   2.909   3.085
 4545SOL    HW114522   3.211   2.845   3.017
 4545SOL    HW214523   3.117   2.961   3.046
 4546SOL     OW14524   3.173   2.719   2.168
 4546SOL    HW114525   3.098   2.688   2.219
 4546SOL    HW214526   3.148   2.705   2.077
 4547SOL     OW14527   3.635   3.606   3.013
 4547SOL    HW114528   3.694   3.632   2.943
 4547SOL    HW214529   3.610   3.516   2.991
 4548SOL     OW14530   3.103   3.595   2.975
 4548SOL    HW114531   3.185   3.616   2.930
 4548SOL    HW214532   3.109   3.501   2.993
 4549SOL     OW14533   1.945   3.129   2.875
 4549SOL    HW114534   1.932   3.142   2.969
 4549SOL    HW214535   1.871   3.075   2.847
 4550SOL     OW14536   2.539   3.528   3.591
 4550SOL    HW114537   2.485   3.607   3.586
 4550SOL    HW214538   2.605   3.540   3.522
 4551SOL     OW14539   3.581   2.009   2.371
 4551SOL    HW114540   3.654   1.994   2.311
 4551SOL    HW214541   3.565   1.923   2.412
 4552SOL     OW14542   3.252   3.430   2.347
 4552SOL    HW114543   3.313   3.462   2.280
 4552SOL    HW214544   3.204   3.507   2.375
 4553SOL     OW14545   1.999   3.657   3.705
 4553SOL    HW114546   1.948   3.593   3.753
 4553SOL    HW214547   2.046   3.707   3.772
 4554SOL     OW14548   3.140   2.787   2.532
 4554SOL    HW114549   3.213   2.727   2.540
 4554SOL    HW214550   3.174   2.860   2.480
 4555SOL     OW14551   2.676   3.136   3.291
 4555SOL    HW114552   2.648   3.174   3.374
 4555SOL    HW214553   2.607   3.159   3.230
 4556SOL     OW14554   2.533   3.482   2.018
 4556SOL    HW114555   2.544   3.494   1.923
 4556SOL    HW214556   2.478   3.404   2.026
 4557SOL     OW14557   3.488   3.588   3.253
 4557SOL    HW114558   3.538   3.595   3.172
 4557SOL    HW214559   3.474   3.679   3.281
 4558SOL     OW14560   3.703   2.034   2.829
 4558SOL    HW114561   3.732   1.948   2.802
 4558SOL    HW214562   3.616   2.044   2.789
 4559SOL     OW14563   3.069   3.468   1.894
 4559SOL    HW114564   3.059   3.376   1.920
 4559SOL    HW214565   3.004   3.480   1.824
 4560SOL     OW14566   2.686   2.869   3.234
 4560SOL    HW114567   2.734   2.859   3.152
 4560SOL    HW214568   2.688   2.963   3.252
 4561SOL     OW14569   2.787   2.786   2.156
 4561SOL    HW114570   2.847   2.811   2.086
 4561SOL    HW214571   2.830   2.711   2.199
 4562SOL     OW14572   3.354   3.487   1.905
 4562SOL    HW114573   3.259   3.481   1.891
 4562SOL    HW214574   3.390   3.493   1.816
 4563SOL     OW14575   2.233   3.164   3.352
 4563SOL    HW114576   2.218   3.242   3.299
 4563SOL    HW214577   2.154   3.110   3.340
 4564SOL     OW14578   3.472   3.145   3.143
 4564SOL    HW114579   3.532   3.134   3.216
 4564SOL    HW214580   3.412   3.214   3.170
 4565SOL     OW14581   2.915   2.969   2.569
 4565SOL    HW114582   2.845   2.918   2.608
 4565SOL    HW214583   2.977   2.904   2.537
 4566SOL     OW14584   2.882   2.101   2.829
 4566SOL    HW114585   2.879   2.054   2.745
 4566SOL    HW214586   2.880   2.033   2.895
 4567SOL     OW14587   2.465   3.350   2.343
 4567SOL    HW114588   2.510   3.300   2.275
 4567SOL    HW214589   2.396   3.397   2.297
 4568SOL     OW14590   3.584   2.255   3.242
 4568SOL    HW114591   3.656   2.317   3.241
 4568SOL    HW214592   3.613   2.183   3.186
 4569SOL     OW14593   2.121   3.206   2.151
 4569SOL    HW114594   2.028   3.204   2.128
 4569SOL    HW214595   2.123   3.244   2.239
 4570SOL     OW14596   1.974   2.884   3.583
 4570SOL    HW114597   1.897   2.860   3.635
 4570SOL    HW214598   2.048   2.846   3.631
 4571SOL     OW14599   2.553   2.035   3.359
 4571SOL    HW114600   2.640   2.013   3.325
 4571SOL    HW214601   2.570   2.069   3.447
 4572SOL     OW14602   3.292   2.722   3.262
 4572SOL    HW114603   3.244   2.782   3.206
 4572SOL    HW214604   3.381   2.723   3.228
 4573SOL     OW14605   1.865   1.998   2.192
 4573SOL    HW114606   1.838   2.079   2.148
 4573SOL    HW214607   1.955   2.014   2.220
 4574SOL     OW14608   3.041   3.201   1.979
 4574SOL    HW114609   2.951   3.170   1.982
 4574SOL    HW214610   3.069   3.202   2.070
 4575SOL     OW14611   2.481   2.702   3.290
 4575SOL    HW114612   2.541   2.775   3.274
 4575SOL    HW214613   2.538   2.627   3.308
 4576SOL     OW14614   3.345   3.639   2.841
 4576SOL    HW114615   3.368   3.699   2.770
 4576SOL    HW214616   3.429   3.620   2.884
 4577SOL     OW14617   3.333   3.062   3.494
 4577SOL    HW114618   3.322   3.076   3.588
 4577SOL    HW214619   3.427   3.077   3.479
 4578SOL     OW14620   2.241   3.601   3.426
 4578SOL    HW114621   2.156   3.643   3.412
 4578SOL    HW214622   2.220   3.518   3.469
 4579SOL     OW14623   3.531   2.743   3.117
 4579SOL    HW114624   3.526   2.658   3.075
 4579SOL    HW214625   3.522   2.806   3.046
 4580SOL     OW14626   3.078   2.180   2.320
 4580SOL    HW114627   3.142   2.110   2.311
 4580SOL    HW214628   3.107   2.230   2.397
 4581SOL     OW14629   2.477   2.640   2.547
 4581SOL    HW114630   2.515   2.724   2.522
 4581SOL    HW214631   2.389   2.641   2.510
 4582SOL     OW14632   3.623   2.224   3.513
 4582SOL    HW114633   3.607   2.239   3.419
 4582SOL    HW214634   3.552   2.167   3.541
 4583SOL     OW14635   3.607   2.796   3.374
 4583SOL    HW114636   3.604   2.891   3.387
 4583SOL    HW214637   3.592   2.783   3.280
 4584SOL     OW14638   2.723   3.230   1.895
 4584SOL    HW114639   2.687   3.257   1.980
 4584SOL    HW214640   2.743   3.311   1.850
 4585SOL     OW14641   2.522   3.653   2.806
 4585SOL    HW114642   2.503   3.744   2.783
 4585SOL    HW214643   2.618   3.647   2.799
 4586SOL     OW14644   2.730   2.830   2.717
 4586SOL    HW114645   2.778   2.756   2.754
 4586SOL    HW214646   2.696   2.877   2.793
 4587SOL     OW14647   2.942   2.850   1.948
 4587SOL    HW114648   2.922   2.901   1.869
 4587SOL    HW214649   3.017   2.797   1.922
 4588SOL     OW14650   3.716   3.417   2.706
 4588SOL    HW114651   3.638   3.405   2.652
 4588SOL    HW214652   3.709   3.349   2.773
 4589SOL     OW14653   2.087   3.165   3.717
 4589SOL    HW114654   2.021   3.102   3.688
 4589SOL    HW214655   2.068   3.177   3.811
 4590SOL     OW14656   1.946   3.096   2.528
 4590SOL    HW114657   1.949   3.048   2.610
 4590SOL    HW214658   2.014   3.056   2.473
 4591SOL     OW14659   2.543   3.265   3.490
 4591SOL    HW114660   2.463   3.222   3.520
 4591SOL    HW214661   2.539   3.353   3.527
 4592SOL     OW14662   3.675   2.046   3.100
 4592SOL    HW114663   3.683   1.952   3.114
 4592SOL    HW214664   3.685   2.057   3.006
 4593SOL     OW14665   3.561   3.352   2.959
 4593SOL    HW114666   3.481   3.328   2.912
 4593SOL    HW214667   3.573   3.282   3.023
 4594SOL     OW14668   2.689   3.440   2.540
 4594SOL    HW114669   2.677   3.493   2.461
 4594SOL    HW214670   2.613   3.383   2.542
 4595SOL     OW14671   3.294   2.088   2.980
 4595SOL    HW114672   3.318   2.007   3.025
 4595SOL    HW214673   3.243   2.137   3.044
 4596SOL     OW14674   2.873   1.881   3.002
 4596SOL    HW114675   2.818   1.810   2.967
 4596SOL    HW214676   2.961   1.843   3.004
 4597SOL     OW14677   2.635   3.196   2.176
 4597SOL    HW114678   2.604   3.106   2.182
 4597SOL    HW214679   2.717   3.197   2.226
 4598SOL     OW14680   2.482   3.418   3.147
 4598SOL    HW114681   2.484   3.500   3.197
 4598SOL    HW214682   2.569   3.411   3.109
 4599SOL     OW14683   3.214   1.915   2.027
 4599SOL    HW114684   3.243   1.851   1.962
 4599SOL    HW214685   3.127   1.886   2.053
 4600SOL     OW14686   3.158   2.323   2.543
 4600SOL    HW114687   3.105   2.402   2.549
 4600SOL    HW214688   3.154   2.284   2.630
 4601SOL     OW14689   3.449   2.064   2.740
 4601SOL    HW114690   3.388   2.084   2.811
 4601SOL    HW214691   3.448   2.142   2.685
 4602SOL     OW14692   1.904   2.933   2.169
 4602SOL    HW114693   1.998   2.925   2.153
 4602SOL    HW214694   1.876   2.844   2.190
 4603SOL     OW14695   2.746   3.515   2.205
 4603SOL    HW114696   2.674   3.498   2.144
 4603SOL    HW214697   2.717   3.591   2.256
 4604SOL     OW14698   2.056   2.529   3.844
 4604SOL    HW114699   1.974   2.501   3.886
 4604SOL    HW214700   2.056   2.484   3.759
 4605SOL     OW14701   1.852   2.266   4.352
 4605SOL    HW114702   1.765   2.301   4.375
 4605SOL    HW214703   1.839   2.171   4.349
 4606SOL     OW14704   2.438   3.184   4.846
 4606SOL    HW114705   2.377   3.126   4.891
 4606SOL    HW214706   2.467   3.245   4.913
 4607SOL     OW14707   3.423   3.373   4.431
 4607SOL    HW114708   3.379   3.355   4.515
 4607SOL    HW214709   3.351   3.379   4.368
 4608SOL     OW14710   3.000   2.562   4.423
 4608SOL    HW114711   3.043   2.648   4.423
 4608SOL    HW214712   2.940   2.566   4.498
 4609SOL     OW14713   3.627   2.467   3.954
 4609SOL    HW114714   3.608   2.460   3.860
 4609SOL    HW214715   3.593   2.386   3.992
 4610SOL     OW14716   2.732   2.694   5.491
 4610SOL    HW114717   2.713   2.717   5.582
 4610SOL    HW214718   2.713   2.773   5.441
 4611SOL     OW14719   2.559   2.917   4.372
 4611SOL    HW114720   2.601   2.868   4.444
 4611SOL    HW214721   2.466   2.909   4.389
 4612SOL     OW14722   2.587   3.012   5.510
 4612SOL    HW114723   2.628   3.090   5.547
 4612SOL    HW214724   2.496   3.038   5.496
 4613SOL     OW14725   2.169   3.305   4.785
 4613SOL    HW114726   2.111   3.285   4.712
 4613SOL    HW214727   2.249   3.340   4.745
 4614SOL     OW14728   3.323   3.363   5.076
 4614SOL    HW114729   3.373   3.443   5.089
 4614SOL    HW214730   3.263   3.359   5.150
 4615SOL     OW14731   3.472   2.309   4.464
 4615SOL    HW114732   3.405   2.338   4.403
 4615SOL    HW214733   3.493   2.388   4.515
 4616SOL     OW14734   2.081   3.576   4.197
 4616SOL    HW114735   2.103   3.653   4.250
 4616SOL    HW214736   2.154   3.569   4.134
 4617SOL     OW14737   3.000   3.206   5.419
 4617SOL    HW114738   3.041   3.197   5.504
 4617SOL    HW214739   2.947   3.127   5.409
 4618SOL     OW14740   2.095   3.306   4.260
 4618SOL    HW114741   2.078   3.400   4.260
 4618SOL    HW214742   2.032   3.269   4.321
 4619SOL     OW14743   2.476   3.656   5.158
 4619SOL    HW114744   2.393   3.637   5.202
 4619SOL    HW214745   2.497   3.746   5.182
 4620SOL     OW14746   2.447   2.844   3.854
 4620SOL    HW114747   2.493   2.895   3.786
 4620SOL    HW214748   2.484   2.876   3.936
 4621SOL     OW14749   3.456   1.984   5.195
 4621SOL    HW114750   3.459   2.062   5.140
 4621SOL    HW214751   3.445   2.018   5.284
 4622SOL     OW14752   1.981   2.506   4.286
 4622SOL    HW114753   1.942   2.420   4.304
 4622SOL    HW214754   1.967   2.556   4.366
 4623SOL     OW14755   3.704   3.621   4.059
 4623SOL    HW114756   3.768   3.593   4.124
 4623SOL    HW214757   3.727   3.712   4.040
 4624SOL     OW14758   1.895   3.457   3.848
 4624SOL    HW114759   1.876   3.365   3.868
 4624SOL    HW214760   1.870   3.504   3.927
 4625SOL     OW14761   3.549   2.779   4.365
 4625SOL    HW114762   3.634   2.739   4.348
 4625SOL    HW214763   3.530   2.829   4.286
 4626SOL     OW14764   3.508   2.968   4.154
 4626SOL    HW114765   3.593   2.974   4.112
 4626SOL    HW214766   3.513   3.030   4.227
 4627SOL     OW14767   2.475   3.248   4.457
 4627SOL    HW114768   2.444   3.157   4.456
 4627SOL    HW214769   2.459   3.280   4.368
 4628SOL     OW14770   3.156   3.112   5.139
 4628SOL    HW114771   3.181   3.037   5.085
 4628SOL    HW214772   3.205   3.100   5.220
 4629SOL     OW14773   2.668   1.864   4.220
 4629SOL    HW114774   2.710   1.950   4.208
 4629SOL    HW214775   2.576   1.884   4.234
 4630SOL     OW14776   3.393   2.856   3.923
 4630SOL    HW114777   3.323   2.798   3.954
 4630SOL    HW214778   3.434   2.890   4.002
 4631SOL     OW14779   3.047   3.669   5.348
 4631SOL    HW114780   3.058   3.727   5.272
 4631SOL    HW214781   3.065   3.581   5.314
 4632SOL     OW14782   3.325   3.282   4.678
 4632SOL    HW114783   3.258   3.297   4.745
 4632SOL    HW214784   3.313   3.191   4.651
 4633SOL     OW14785   3.521   3.601   4.302
 4633SOL    HW114786   3.501   3.572   4.213
 4633SOL    HW214787   3.496   3.528   4.358
 4634SOL     OW14788   2.493   2.625   4.036
 4634SOL    HW114789   2.485   2.681   3.959
 4634SOL    HW214790   2.407   2.629   4.078
 4635SOL     OW14791   3.443   3.531   4.033
 4635SOL    HW114792   3.533   3.563   4.027
 4635SOL    HW214793   3.416   3.515   3.943
 4636SOL     OW14794   3.268   2.339   5.396
 4636SOL    HW114795   3.254   2.375   5.483
 4636SOL    HW214796   3.316   2.257   5.411
 4637SOL     OW14797   2.939   2.575   4.152
 4637SOL    HW114798   2.953   2.564   4.246
 4637SOL    HW214799   2.858   2.529   4.134
 4638SOL     OW14800   1.955   2.677   4.499
 4638SOL    HW114801   2.033   2.679   4.554
 4638SOL    HW214802   1.890   2.729   4.546
 4639SOL     OW14803   1.989   3.712   5.305
 4639SOL    HW114804   1.989   3.689   5.397
 4639SOL    HW214805   1.898   3.699   5.277
 4640SOL     OW14806   2.759   2.217   3.924
 4640SOL    HW114807   2.798   2.271   3.855
 4640SOL    HW214808   2.748   2.131   3.884
 4641SOL     OW14809   3.569   2.436   5.552
 4641SOL    HW114810   3.532   2.511   5.505
 4641SOL    HW214811   3.595   2.375   5.484
 4642SOL     OW14812   3.234   3.004   4.264
 4642SOL    HW114813   3.314   2.988   4.215
 4642SOL    HW214814   3.185   3.067   4.211
 4643SOL     OW14815   2.440   2.046   4.556
 4643SOL    HW114816   2.421   2.037   4.649
 4643SOL    HW214817   2.446   2.141   4.541
 4644SOL     OW14818   2.867   3.308   4.201
 4644SOL    HW114819   2.832   3.377   4.146
 4644SOL    HW214820   2.846   3.334   4.290
 4645SOL     OW14821   2.216   3.670   4.587
 4645SOL    HW114822   2.261   3.586   4.595
 4645SOL    HW214823   2.285   3.735   4.605
 4646SOL     OW14824   3.660   2.920   4.593
 4646SOL    HW114825   3.605   2.902   4.516
 4646SOL    HW214826   3.598   2.925   4.666
 4647SOL     OW14827   3.094   3.403   5.243
 4647SOL    HW114828   3.079   3.327   5.299
 4647SOL    HW214829   3.033   3.391   5.170
 4648SOL     OW14830   2.175   2.827   3.969
 4648SOL    HW114831   2.258   2.839   3.922
 4648SOL    HW214832   2.143   2.741   3.939
 4649SOL     OW14833   3.344   2.604   4.453
 4649SOL    HW114834   3.340   2.562   4.539
 4649SOL    HW214835   3.421   2.659   4.456
 4650SOL     OW14836   2.326   3.130   5.460
 4650SOL    HW114837   2.300   3.131   5.368
 4650SOL    HW214838   2.243   3.134   5.508
 4651SOL     OW14839   2.984   3.640   3.955
 4651SOL    HW114840   2.910   3.598   4.000
 4651SOL    HW214841   3.007   3.578   3.885
 4652SOL     OW14842   3.491   3.242   3.812
 4652SOL    HW114843   3.450   3.327   3.797
 4652SOL    HW214844   3.422   3.178   3.793
 4653SOL     OW14845   2.328   3.599   4.045
 4653SOL    HW114846   2.370   3.657   4.109
 4653SOL    HW214847   2.400   3.569   3.989
 4654SOL     OW14848   3.263   1.974   4.155
 4654SOL    HW114849   3.251   1.945   4.065
 4654SOL    HW214850   3.358   1.971   4.169
 4655SOL     OW14851   2.120   3.653   4.955
 4655SOL    HW114852   2.177   3.592   5.001
 4655SOL    HW214853   2.113   3.617   4.866
 4656SOL     OW14854   2.798   3.566   4.623
 4656SOL    HW114855   2.870   3.511   4.654
 4656SOL    HW214856   2.755   3.512   4.556
 4657SOL     OW14857   2.225   2.589   4.170
 4657SOL    HW114858   2.260   2.505   4.141
 4657SOL    HW214859   2.138   2.568   4.206
 4658SOL     OW14860   3.397   2.088   5.451
 4658SOL    HW114861   3.407   2.110   5.544
 4658SOL    HW214862   3.324   2.026   5.450
 4659SOL     OW14863   2.510   1.990   3.830
 4659SOL    HW114864   2.566   1.917   3.856
 4659SOL    HW214865   2.458   1.956   3.757
 4660SOL     OW14866   2.732   3.389   4.913
 4660SOL    HW114867   2.710   3.361   4.824
 4660SOL    HW214868   2.788   3.319   4.947
 4661SOL     OW14869   3.232   2.448   5.145
 4661SOL    HW114870   3.239   2.414   5.234
 4661SOL    HW214871   3.241   2.543   5.155
 4662SOL     OW14872   2.689   3.281   4.664
 4662SOL    HW114873   2.763   3.247   4.616
 4662SOL    HW214874   2.612   3.255   4.613
 4663SOL     OW14875   2.397   1.933   4.230
 4663SOL    HW114876   2.376   1.948   4.323
 4663SOL    HW214877   2.372   2.014   4.186
 4664SOL     OW14878   3.290   3.060   3.765
 4664SOL    HW114879   3.321   2.985   3.815
 4664SOL    HW214880   3.204   3.081   3.802
 4665SOL     OW14881   2.796   2.111   4.184
 4665SOL    HW114882   2.778   2.149   4.098
 4665SOL    HW214883   2.891   2.116   4.192
 4666SOL     OW14884   3.085   3.427   4.520
 4666SOL    HW114885   3.097   3.494   4.452
 4666SOL    HW214886   3.153   3.446   4.584
 4667SOL     OW14887   3.130   3.655   4.332
 4667SOL    HW114888   3.177   3.716   4.275
 4667SOL    HW214889   3.064   3.709   4.376
 4668SOL     OW14890   2.887   2.404   3.743
 4668SOL    HW114891   2.836   2.484   3.725
 4668SOL    HW214892   2.949   2.431   3.812
 4669SOL     OW14893   2.400   2.024   4.830
 4669SOL    HW114894   2.454   1.963   4.881
 4669SOL    HW214895   2.339   2.061   4.894
 4670SOL     OW14896   2.741   2.328   4.358
 4670SOL    HW114897   2.721   2.380   4.279
 4670SOL    HW214898   2.759   2.240   4.325
 4671SOL     OW14899   2.900   1.900   4.449
 4671SOL    HW114900   2.824   1.907   4.392
 4671SOL    HW214901   2.876   1.832   4.513
 4672SOL     OW14902   3.295   3.025   4.580
 4672SOL    HW114903   3.237   2.949   4.572
 4672SOL    HW214904   3.327   3.040   4.491
 4673SOL     OW14905   3.336   2.474   4.702
 4673SOL    HW114906   3.278   2.401   4.724
 4673SOL    HW214907   3.400   2.475   4.773
 4674SOL     OW14908   3.708   2.678   4.106
 4674SOL    HW114909   3.764   2.627   4.165
 4674SOL    HW214910   3.679   2.615   4.040
 4675SOL     OW14911   2.353   3.280   3.880
 4675SOL    HW114912   2.278   3.252   3.933
 4675SOL    HW214913   2.338   3.241   3.794
 4676SOL     OW14914   3.531   3.125   4.372
 4676SOL    HW114915   3.626   3.127   4.385
 4676SOL    HW214916   3.502   3.214   4.391
 4677SOL     OW14917   3.257   2.434   3.795
 4677SOL    HW114918   3.194   2.414   3.864
 4677SOL    HW214919   3.340   2.399   3.826
 4678SOL     OW14920   3.613   3.101   5.295
 4678SOL    HW114921   3.700   3.061   5.294
 4678SOL    HW214922   3.629   3.191   5.325
 4679SOL     OW14923   3.470   3.489   5.379
 4679SOL    HW114924   3.464   3.522   5.289
 4679SOL    HW214925   3.553   3.440   5.380
 4680SOL     OW14926   2.984   3.075   4.835
 4680SOL    HW114927   2.902   3.068   4.884
 4680SOL    HW214928   2.958   3.108   4.749
 4681SOL     OW14929   3.489   2.960   4.801
 4681SOL    HW114930   3.488   3.022   4.875
 4681SOL    HW214931   3.409   2.978   4.753
 4682SOL     OW14932   2.851   2.981   5.433
 4682SOL    HW114933   2.757   2.987   5.454
 4682SOL    HW214934   2.859   2.898   5.387
 4683SOL     OW14935   2.572   2.928   4.090
 4683SOL    HW114936   2.563   2.921   4.185
 4683SOL    HW214937   2.645   2.871   4.068
 4684SOL     OW14938   1.937   3.449   5.073
 4684SOL    HW114939   1.910   3.525   5.022
 4684SOL    HW214940   2.032   3.451   5.072
 4685SOL     OW14941   2.207   2.971   4.217
 4685SOL    HW114942   2.219   3.044   4.156
 4685SOL    HW214943   2.206   2.893   4.162
 4686SOL     OW14944   3.108   3.212   4.114
 4686SOL    HW114945   3.166   3.283   4.143
 4686SOL    HW214946   3.022   3.236   4.147
 4687SOL     OW14947   3.137   3.313   4.876
 4687SOL    HW114948   3.194   3.315   4.953
 4687SOL    HW214949   3.092   3.228   4.882
 4688SOL     OW14950   3.445   2.483   4.206
 4688SOL    HW114951   3.397   2.540   4.267
 4688SOL    HW214952   3.489   2.544   4.147
 4689SOL     OW14953   2.211   3.381   5.040
 4689SOL    HW114954   2.196   3.346   4.953
 4689SOL    HW214955   2.306   3.395   5.044
 4690SOL     OW14956   3.465   2.644   5.410
 4690SOL    HW114957   3.377   2.680   5.401
 4690SOL    HW214958   3.515   2.684   5.338
 4691SOL     OW14959   2.970   1.981   5.515
 4691SOL    HW114960   2.904   2.033   5.469
 4691SOL    HW214961   2.984   1.905   5.459
 4692SOL     OW14962   3.216   2.723   4.753
 4692SOL    HW114963   3.152   2.710   4.683
 4692SOL    HW214964   3.262   2.640   4.760
 4693SOL     OW14965   3.069   2.391   3.989
 4693SOL    HW114966   3.073   2.311   4.042
 4693SOL    HW214967   3.034   2.458   4.048
 4694SOL     OW14968   1.872   3.185   5.068
 4694SOL    HW114969   1.926   3.135   5.007
 4694SOL    HW214970   1.903   3.275   5.059
 4695SOL     OW14971   3.598   2.822   5.577
 4695SOL    HW114972   3.552   2.760   5.521
 4695SOL    HW214973   3.538   2.837   5.650
 4696SOL     OW14974   3.481   2.237   4.090
 4696SOL    HW114975   3.506   2.171   4.155
 4696SOL    HW214976   3.457   2.314   4.141
 4697SOL     OW14977   2.842   3.428   5.440
 4697SOL    HW114978   2.829   3.471   5.355
 4697SOL    HW214979   2.887   3.346   5.418
 4698SOL     OW14980   3.717   3.368   5.330
 4698SOL    HW114981   3.735   3.394   5.239
 4698SOL    HW214982   3.798   3.386   5.377
 4699SOL     OW14983   3.390   2.135   3.851
 4699SOL    HW114984   3.326   2.070   3.877
 4699SOL    HW214985   3.424   2.170   3.934
 4700SOL     OW14986   3.154   2.689   3.756
 4700SOL    HW114987   3.196   2.603   3.759
 4700SOL    HW214988   3.185   2.727   3.674
 4701SOL     OW14989   2.936   3.191   4.572
 4701SOL    HW114990   2.957   3.133   4.498
 4701SOL    HW214991   2.987   3.271   4.555
 4702SOL     OW14992   1.867   3.183   3.920
 4702SOL    HW114993   1.781   3.197   3.882
 4702SOL    HW214994   1.865   3.093   3.953
 4703SOL     OW14995   1.951   3.646   4.659
 4703SOL    HW114996   1.925   3.565   4.616
 4703SOL    HW214997   2.041   3.661   4.631
 4704SOL     OW14998   2.359   3.436   4.632
 4704SOL    HW114999   2.428   3.497   4.658
 4704SOL    HW215000   2.405   3.369   4.582
 4705SOL     OW15001   1.912   2.400   4.827
 4705SOL    HW115002   1.997   2.358   4.821
 4705SOL    HW215003   1.913   2.446   4.911
 4706SOL     OW15004   3.235   2.802   5.383
 4706SOL    HW115005   3.256   2.895   5.381
 4706SOL    HW215006   3.237   2.774   5.292
 4707SOL     OW15007   2.714   2.453   4.087
 4707SOL    HW115008   2.712   2.380   4.026
 4707SOL    HW215009   2.640   2.508   4.062
 4708SOL     OW15010   3.506   2.469   4.909
 4708SOL    HW115011   3.488   2.415   4.986
 4708SOL    HW215012   3.593   2.442   4.880
 4709SOL     OW15013   2.109   3.416   5.450
 4709SOL    HW115014   2.083   3.481   5.516
 4709SOL    HW215015   2.103   3.332   5.495
 4710SOL     OW15016   2.796   3.540   5.186
 4710SOL    HW115017   2.759   3.509   5.104
 4710SOL    HW215018   2.789   3.636   5.181
 4711SOL     OW15019   3.187   2.911   4.946
 4711SOL    HW115020   3.207   2.847   4.878
 4711SOL    HW215021   3.119   2.967   4.908
 4712SOL     OW15022   3.171   2.719   4.032
 4712SOL    HW115023   3.096   2.684   4.081
 4712SOL    HW215024   3.148   2.705   3.940
 4713SOL     OW15025   3.634   3.606   4.875
 4713SOL    HW115026   3.694   3.632   4.805
 4713SOL    HW215027   3.610   3.516   4.853
 4714SOL     OW15028   3.102   3.592   4.836
 4714SOL    HW115029   3.185   3.614   4.792
 4714SOL    HW215030   3.109   3.499   4.857
 4715SOL     OW15031   2.538   3.532   5.460
 4715SOL    HW115032   2.486   3.611   5.450
 4715SOL    HW215033   2.603   3.536   5.390
 4716SOL     OW15034   3.582   2.008   4.235
 4716SOL    HW115035   3.654   1.994   4.174
 4716SOL    HW215036   3.566   1.922   4.273
 4717SOL     OW15037   3.252   3.430   4.209
 4717SOL    HW115038   3.313   3.462   4.142
 4717SOL    HW215039   3.204   3.507   4.237
 4718SOL     OW15040   1.998   3.652   5.570
 4718SOL    HW115041   1.948   3.587   5.620
 4718SOL    HW215042   2.044   3.704   5.636
 4719SOL     OW15043   3.146   2.793   4.420
 4719SOL    HW115044   3.218   2.730   4.411
 4719SOL    HW215045   3.166   2.862   4.356
 4720SOL     OW15046   2.533   3.482   3.879
 4720SOL    HW115047   2.544   3.494   3.785
 4720SOL    HW215048   2.478   3.404   3.887
 4721SOL     OW15049   3.488   3.589   5.115
 4721SOL    HW115050   3.538   3.596   5.034
 4721SOL    HW215051   3.475   3.679   5.143
 4722SOL     OW15052   3.705   2.035   4.692
 4722SOL    HW115053   3.731   1.948   4.664
 4722SOL    HW215054   3.616   2.046   4.656
 4723SOL     OW15055   3.069   3.468   3.756
 4723SOL    HW115056   3.059   3.376   3.782
 4723SOL    HW215057   3.004   3.480   3.686
 4724SOL     OW15058   2.783   2.778   4.016
 4724SOL    HW115059   2.842   2.809   3.947
 4724SOL    HW215060   2.832   2.708   4.060
 4725SOL     OW15061   3.354   3.487   3.767
 4725SOL    HW115062   3.259   3.481   3.753
 4725SOL    HW215063   3.391   3.493   3.678
 4726SOL     OW15064   2.219   3.156   5.215
 4726SOL    HW115065   2.216   3.239   5.167
 4726SOL    HW215066   2.144   3.106   5.183
 4727SOL     OW15067   3.474   3.145   5.004
 4727SOL    HW115068   3.530   3.132   5.080
 4727SOL    HW215069   3.412   3.213   5.032
 4728SOL     OW15070   2.464   3.350   4.205
 4728SOL    HW115071   2.509   3.301   4.136
 4728SOL    HW215072   2.395   3.398   4.159
 4729SOL     OW15073   3.586   2.253   5.104
 4729SOL    HW115074   3.657   2.317   5.102
 4729SOL    HW215075   3.616   2.181   5.048
 4730SOL     OW15076   2.122   3.209   4.012
 4730SOL    HW115077   2.029   3.205   3.990
 4730SOL    HW215078   2.124   3.245   4.101
 4731SOL     OW15079   1.955   2.925   5.452
 4731SOL    HW115080   1.881   2.887   5.500
 4731SOL    HW215081   2.013   2.851   5.436
 4732SOL     OW15082   1.877   2.229   3.774
 4732SOL    HW115083   1.802   2.185   3.736
 4732SOL    HW215084   1.912   2.283   3.703
 4733SOL     OW15085   3.293   2.729   5.128
 4733SOL    HW115086   3.246   2.788   5.070
 4733SOL    HW215087   3.381   2.725   5.091
 4734SOL     OW15088   3.041   3.201   3.841
 4734SOL    HW115089   2.950   3.170   3.843
 4734SOL    HW215090   3.068   3.201   3.932
 4735SOL     OW15091   3.346   3.637   4.702
 4735SOL    HW115092   3.368   3.699   4.632
 4735SOL    HW215093   3.429   3.620   4.747
 4736SOL     OW15094   3.331   3.063   5.355
 4736SOL    HW115095   3.319   3.076   5.449
 4736SOL    HW215096   3.425   3.076   5.340
 4737SOL     OW15097   2.241   3.602   5.286
 4737SOL    HW115098   2.156   3.644   5.275
 4737SOL    HW215099   2.221   3.519   5.329
 4738SOL     OW15100   3.532   2.744   4.980
 4738SOL    HW115101   3.527   2.657   4.939
 4738SOL    HW215102   3.523   2.805   4.907
 4739SOL     OW15103   3.079   2.182   4.178
 4739SOL    HW115104   3.140   2.109   4.169
 4739SOL    HW215105   3.112   2.231   4.254
 4740SOL     OW15106   3.625   2.222   5.374
 4740SOL    HW115107   3.606   2.239   5.282
 4740SOL    HW215108   3.552   2.168   5.403
 4741SOL     OW15109   3.611   2.796   5.236
 4741SOL    HW115110   3.602   2.890   5.249
 4741SOL    HW215111   3.592   2.783   5.143
 4742SOL     OW15112   2.725   3.229   3.758
 4742SOL    HW115113   2.685   3.258   3.841
 4742SOL    HW215114   2.743   3.311   3.711
 4743SOL     OW15115   2.522   3.654   4.669
 4743SOL    HW115116   2.503   3.745   4.645
 4743SOL    HW215117   2.617   3.647   4.662
 4744SOL     OW15118   2.944   2.854   3.813
 4744SOL    HW115119   2.921   2.902   3.733
 4744SOL    HW215120   3.016   2.798   3.788
 4745SOL     OW15121   3.717   3.416   4.568
 4745SOL    HW115122   3.638   3.405   4.515
 4745SOL    HW215123   3.709   3.350   4.636
 4746SOL     OW15124   2.080   3.174   5.576
 4746SOL    HW115125   2.019   3.105   5.551
 4746SOL    HW215126   2.077   3.175   5.671
 4747SOL     OW15127   1.951   3.099   4.387
 4747SOL    HW115128   1.947   3.033   4.457
 4747SOL    HW215129   2.013   3.063   4.325
 4748SOL     OW15130   2.534   3.277   5.347
 4748SOL    HW115131   2.462   3.224   5.382
 4748SOL    HW215132   2.526   3.361   5.392
 4749SOL     OW15133   3.678   2.045   4.962
 4749SOL    HW115134   3.680   1.950   4.975
 4749SOL    HW215135   3.688   2.056   4.868
 4750SOL     OW15136   3.562   3.351   4.820
 4750SOL    HW115137   3.481   3.329   4.775
 4750SOL    HW215138   3.574   3.283   4.886
 4751SOL     OW15139   2.694   3.440   4.397
 4751SOL    HW115140   2.674   3.494   4.320
 4751SOL    HW215141   2.616   3.385   4.409
 4752SOL     OW15142   2.633   3.197   4.038
 4752SOL    HW115143   2.602   3.106   4.042
 4752SOL    HW215144   2.716   3.195   4.087
 4753SOL     OW15145   2.478   3.428   5.008
 4753SOL    HW115146   2.485   3.507   5.062
 4753SOL    HW215147   2.566   3.417   4.970
 4754SOL     OW15148   3.214   1.915   3.888
 4754SOL    HW115149   3.243   1.850   3.825
 4754SOL    HW215150   3.127   1.887   3.915
 4755SOL     OW15151   3.167   2.327   4.396
 4755SOL    HW115152   3.115   2.408   4.400
 4755SOL    HW215153   3.153   2.286   4.482
 4756SOL     OW15154   3.450   2.072   4.608
 4756SOL    HW115155   3.358   2.069   4.635
 4756SOL    HW215156   3.455   2.148   4.550
 4757SOL     OW15157   1.907   2.932   4.032
 4757SOL    HW115158   2.000   2.922   4.010
 4757SOL    HW215159   1.878   2.844   4.054
 4758SOL     OW15160   2.747   3.514   4.065
 4758SOL    HW115161   2.674   3.497   4.005
 4758SOL    HW215162   2.718   3.589   4.117
 4759SOL     OW15163   2.072   2.507   5.688
 4759SOL    HW115164   1.993   2.481   5.735
 4759SOL    HW215165   2.098   2.428   5.641
 4760SOL     OW15166   2.431   3.151   6.760
 4760SOL    HW115167   2.343   3.149   6.724
 4760SOL    HW215168   2.442   3.240   6.793
 4761SOL     OW15169   3.423   3.374   6.293
 4761SOL    HW115170   3.381   3.354   6.376
 4761SOL    HW215171   3.352   3.378   6.230
 4762SOL     OW15172   3.632   2.467   5.814
 4762SOL    HW115173   3.610   2.460   5.721
 4762SOL    HW215174   3.595   2.388   5.854
 4763SOL     OW15175   2.637   3.022   6.627
 4763SOL    HW115176   2.559   3.036   6.682
 4763SOL    HW215177   2.657   3.109   6.592
 4764SOL     OW15178   2.737   2.639   7.410
 4764SOL    HW115179   2.721   2.711   7.471
 4764SOL    HW215180   2.757   2.682   7.327
 4765SOL     OW15181   2.573   3.013   7.396
 4765SOL    HW115182   2.621   3.091   7.424
 4765SOL    HW215183   2.490   3.047   7.361
 4766SOL     OW15184   2.192   3.287   6.655
 4766SOL    HW115185   2.117   3.251   6.609
 4766SOL    HW215186   2.239   3.338   6.589
 4767SOL     OW15187   3.322   3.362   6.940
 4767SOL    HW115188   3.373   3.442   6.950
 4767SOL    HW215189   3.260   3.363   7.013
 4768SOL     OW15190   3.487   2.311   6.330
 4768SOL    HW115191   3.397   2.322   6.299
 4768SOL    HW215192   3.506   2.391   6.379
 4769SOL     OW15193   2.080   3.581   6.056
 4769SOL    HW115194   2.102   3.656   6.111
 4769SOL    HW215195   2.154   3.573   5.996
 4770SOL     OW15196   2.998   3.203   7.279
 4770SOL    HW115197   3.038   3.199   7.366
 4770SOL    HW215198   2.946   3.123   7.272
 4771SOL     OW15199   2.104   3.310   6.112
 4771SOL    HW115200   2.081   3.403   6.117
 4771SOL    HW215201   2.051   3.268   6.180
 4772SOL     OW15202   2.107   2.987   6.458
 4772SOL    HW115203   2.118   2.895   6.483
 4772SOL    HW215204   2.060   3.026   6.532
 4773SOL     OW15205   2.474   3.653   7.016
 4773SOL    HW115206   2.392   3.635   7.062
 4773SOL    HW215207   2.496   3.743   7.041
 4774SOL     OW15208   3.458   1.986   7.054
 4774SOL    HW115209   3.465   2.066   7.003
 4774SOL    HW215210   3.444   2.015   7.144
 4775SOL     OW15211   3.704   3.621   5.921
 4775SOL    HW115212   3.768   3.593   5.986
 4775SOL    HW215213   3.727   3.712   5.902
 4776SOL     OW15214   1.890   3.442   5.713
 4776SOL    HW115215   1.819   3.378   5.706
 4776SOL    HW215216   1.868   3.494   5.790
 4777SOL     OW15217   3.555   2.783   6.228
 4777SOL    HW115218   3.637   2.740   6.206
 4777SOL    HW215219   3.531   2.832   6.149
 4778SOL     OW15220   3.508   2.969   6.016
 4778SOL    HW115221   3.593   2.975   5.974
 4778SOL    HW215222   3.513   3.030   6.089
 4779SOL     OW15223   1.990   2.606   7.167
 4779SOL    HW115224   2.041   2.616   7.247
 4779SOL    HW215225   1.931   2.681   7.166
 4780SOL     OW15226   2.466   3.250   6.321
 4780SOL    HW115227   2.428   3.162   6.325
 4780SOL    HW215228   2.452   3.279   6.231
 4781SOL     OW15229   3.151   3.101   7.009
 4781SOL    HW115230   3.183   3.033   6.949
 4781SOL    HW215231   3.208   3.094   7.086
 4782SOL     OW15232   2.041   2.841   6.851
 4782SOL    HW115233   2.126   2.798   6.842
 4782SOL    HW215234   1.978   2.776   6.819
 4783SOL     OW15235   3.401   2.860   5.782
 4783SOL    HW115236   3.331   2.801   5.810
 4783SOL    HW215237   3.438   2.893   5.864
 4784SOL     OW15238   3.048   3.669   7.208
 4784SOL    HW115239   3.058   3.727   7.133
 4784SOL    HW215240   3.064   3.581   7.173
 4785SOL     OW15241   3.327   3.280   6.536
 4785SOL    HW115242   3.261   3.296   6.603
 4785SOL    HW215243   3.314   3.189   6.510
 4786SOL     OW15244   3.520   3.602   6.164
 4786SOL    HW115245   3.501   3.572   6.075
 4786SOL    HW215246   3.496   3.528   6.220
 4787SOL     OW15247   3.126   2.200   6.522
 4787SOL    HW115248   3.046   2.148   6.517
 4787SOL    HW215249   3.182   2.154   6.585
 4788SOL     OW15250   3.442   3.532   5.895
 4788SOL    HW115251   3.532   3.563   5.888
 4788SOL    HW215252   3.416   3.515   5.805
 4789SOL     OW15253   3.256   2.336   7.264
 4789SOL    HW115254   3.258   2.380   7.348
 4789SOL    HW215255   3.316   2.262   7.274
 4790SOL     OW15256   2.819   2.746   7.164
 4790SOL    HW115257   2.871   2.675   7.125
 4790SOL    HW215258   2.773   2.785   7.090
 4791SOL     OW15259   2.857   2.270   6.816
 4791SOL    HW115260   2.785   2.304   6.868
 4791SOL    HW215261   2.814   2.219   6.747
 4792SOL     OW15262   1.989   3.712   7.164
 4792SOL    HW115263   1.990   3.691   7.257
 4792SOL    HW215264   1.898   3.699   7.137
 4793SOL     OW15265   3.571   2.436   7.414
 4793SOL    HW115266   3.533   2.510   7.366
 4793SOL    HW215267   3.598   2.375   7.345
 4794SOL     OW15268   3.235   3.005   6.123
 4794SOL    HW115269   3.316   2.988   6.075
 4794SOL    HW215270   3.188   3.069   6.070
 4795SOL     OW15271   2.869   3.311   6.060
 4795SOL    HW115272   2.831   3.380   6.005
 4795SOL    HW215273   2.853   3.340   6.150
 4796SOL     OW15274   2.216   3.671   6.447
 4796SOL    HW115275   2.258   3.586   6.457
 4796SOL    HW215276   2.285   3.735   6.467
 4797SOL     OW15277   3.661   2.922   6.455
 4797SOL    HW115278   3.608   2.899   6.378
 4797SOL    HW215279   3.598   2.926   6.527
 4798SOL     OW15280   3.090   3.401   7.099
 4798SOL    HW115281   3.076   3.328   7.160
 4798SOL    HW215282   3.026   3.386   7.029
 4799SOL     OW15283   3.341   2.608   6.306
 4799SOL    HW115284   3.336   2.560   6.389
 4799SOL    HW215285   3.417   2.666   6.317
 4800SOL     OW15286   2.327   3.125   7.323
 4800SOL    HW115287   2.301   3.131   7.232
 4800SOL    HW215288   2.245   3.126   7.373
 4801SOL     OW15289   2.984   3.640   5.817
 4801SOL    HW115290   2.910   3.598   5.861
 4801SOL    HW215291   3.007   3.579   5.747
 4802SOL     OW15292   3.492   3.243   5.674
 4802SOL    HW115293   3.449   3.328   5.659
 4802SOL    HW215294   3.424   3.179   5.655
 4803SOL     OW15295   2.328   3.599   5.906
 4803SOL    HW115296   2.370   3.656   5.971
 4803SOL    HW215297   2.400   3.569   5.851
 4804SOL     OW15298   3.288   1.924   6.018
 4804SOL    HW115299   3.267   1.924   5.925
 4804SOL    HW215300   3.373   1.967   6.024
 4805SOL     OW15301   2.119   3.654   6.817
 4805SOL    HW115302   2.169   3.586   6.863
 4805SOL    HW215303   2.105   3.619   6.730
 4806SOL     OW15304   2.799   3.563   6.484
 4806SOL    HW115305   2.876   3.512   6.509
 4806SOL    HW215306   2.756   3.511   6.417
 4807SOL     OW15307   3.397   2.087   7.311
 4807SOL    HW115308   3.406   2.108   7.404
 4807SOL    HW215309   3.329   2.020   7.309
 4808SOL     OW15310   2.451   1.967   5.714
 4808SOL    HW115311   2.544   1.958   5.738
 4808SOL    HW215312   2.452   1.972   5.618
 4809SOL     OW15313   2.626   2.122   7.320
 4809SOL    HW115314   2.700   2.068   7.345
 4809SOL    HW215315   2.582   2.143   7.403
 4810SOL     OW15316   2.740   3.387   6.783
 4810SOL    HW115317   2.722   3.351   6.696
 4810SOL    HW215318   2.808   3.330   6.819
 4811SOL     OW15319   3.197   2.457   7.021
 4811SOL    HW115320   3.231   2.423   7.104
 4811SOL    HW215321   3.240   2.542   7.012
 4812SOL     OW15322   2.680   3.274   6.529
 4812SOL    HW115323   2.762   3.259   6.482
 4812SOL    HW215324   2.612   3.274   6.462
 4813SOL     OW15325   3.292   3.062   5.626
 4813SOL    HW115326   3.323   2.985   5.674
 4813SOL    HW215327   3.205   3.079   5.661
 4814SOL     OW15328   2.931   2.524   7.038
 4814SOL    HW115329   2.896   2.447   7.083
 4814SOL    HW215330   3.025   2.505   7.030
 4815SOL     OW15331   3.086   3.432   6.382
 4815SOL    HW115332   3.101   3.498   6.314
 4815SOL    HW215333   3.155   3.447   6.446
 4816SOL     OW15334   3.130   3.655   6.194
 4816SOL    HW115335   3.177   3.716   6.137
 4816SOL    HW215336   3.065   3.710   6.239
 4817SOL     OW15337   1.935   2.429   6.963
 4817SOL    HW115338   2.022   2.388   6.961
 4817SOL    HW215339   1.939   2.492   7.034
 4818SOL     OW15340   3.294   3.023   6.439
 4818SOL    HW115341   3.234   2.949   6.432
 4818SOL    HW215342   3.326   3.036   6.350
 4819SOL     OW15343   3.329   2.471   6.570
 4819SOL    HW115344   3.285   2.386   6.571
 4819SOL    HW215345   3.391   2.468   6.643
 4820SOL     OW15346   3.707   2.678   5.969
 4820SOL    HW115347   3.764   2.626   6.027
 4820SOL    HW215348   3.679   2.616   5.902
 4821SOL     OW15349   2.359   3.274   5.743
 4821SOL    HW115350   2.278   3.254   5.789
 4821SOL    HW215351   2.344   3.242   5.654
 4822SOL     OW15352   3.532   3.127   6.232
 4822SOL    HW115353   3.626   3.128   6.246
 4822SOL    HW215354   3.503   3.215   6.253
 4823SOL     OW15355   3.255   2.430   5.658
 4823SOL    HW115356   3.210   2.419   5.741
 4823SOL    HW215357   3.345   2.401   5.676
 4824SOL     OW15358   3.614   3.101   7.158
 4824SOL    HW115359   3.701   3.062   7.156
 4824SOL    HW215360   3.629   3.191   7.188
 4825SOL     OW15361   2.921   3.216   6.921
 4825SOL    HW115362   2.845   3.185   6.971
 4825SOL    HW215363   2.996   3.175   6.962
 4826SOL     OW15364   3.470   3.488   7.240
 4826SOL    HW115365   3.464   3.522   7.151
 4826SOL    HW215366   3.552   3.440   7.242
 4827SOL     OW15367   2.991   3.067   6.693
 4827SOL    HW115368   2.933   3.099   6.762
 4827SOL    HW215369   2.951   3.100   6.612
 4828SOL     OW15370   3.489   2.960   6.663
 4828SOL    HW115371   3.486   3.022   6.736
 4828SOL    HW215372   3.408   2.975   6.615
 4829SOL     OW15373   2.795   1.949   6.979
 4829SOL    HW115374   2.818   1.932   6.888
 4829SOL    HW215375   2.872   1.992   7.016
 4830SOL     OW15376   2.846   2.975   7.307
 4830SOL    HW115377   2.754   2.991   7.328
 4830SOL    HW215378   2.845   2.897   7.251
 4831SOL     OW15379   2.259   2.684   6.848
 4831SOL    HW115380   2.338   2.709   6.895
 4831SOL    HW215381   2.234   2.600   6.886
 4832SOL     OW15382   3.129   2.242   6.862
 4832SOL    HW115383   3.159   2.321   6.908
 4832SOL    HW215384   3.039   2.262   6.836
 4833SOL     OW15385   1.933   3.436   6.940
 4833SOL    HW115386   1.901   3.505   6.882
 4833SOL    HW215387   2.028   3.440   6.933
 4834SOL     OW15388   3.108   3.211   5.975
 4834SOL    HW115389   3.167   3.281   6.003
 4834SOL    HW215390   3.022   3.237   6.008
 4835SOL     OW15391   3.143   3.319   6.732
 4835SOL    HW115392   3.198   3.322   6.810
 4835SOL    HW215393   3.087   3.242   6.746
 4836SOL     OW15394   3.437   2.486   6.058
 4836SOL    HW115395   3.398   2.534   6.131
 4836SOL    HW215396   3.486   2.553   6.009
 4837SOL     OW15397   2.208   3.390   6.901
 4837SOL    HW115398   2.196   3.347   6.816
 4837SOL    HW215399   2.303   3.402   6.908
 4838SOL     OW15400   3.464   2.641   7.268
 4838SOL    HW115401   3.378   2.682   7.262
 4838SOL    HW215402   3.516   2.683   7.200
 4839SOL     OW15403   2.863   1.982   7.348
 4839SOL    HW115404   2.913   2.056   7.313
 4839SOL    HW215405   2.911   1.905   7.320
 4840SOL     OW15406   2.355   1.895   7.341
 4840SOL    HW115407   2.319   1.845   7.268
 4840SOL    HW215408   2.288   1.960   7.362
 4841SOL     OW15409   3.223   2.722   6.617
 4841SOL    HW115410   3.155   2.723   6.550
 4841SOL    HW215411   3.262   2.635   6.611
 4842SOL     OW15412   1.901   3.173   6.869
 4842SOL    HW115413   1.939   3.119   6.938
 4842SOL    HW215414   1.912   3.263   6.900
 4843SOL     OW15415   2.645   2.540   6.681
 4843SOL    HW115416   2.661   2.483   6.606
 4843SOL    HW215417   2.610   2.620   6.643
 4844SOL     OW15418   3.596   2.822   7.438
 4844SOL    HW115419   3.551   2.759   7.382
 4844SOL    HW215420   3.537   2.835   7.512
 4845SOL     OW15421   3.488   2.237   5.953
 4845SOL    HW115422   3.515   2.173   6.019
 4845SOL    HW215423   3.464   2.314   6.004
 4846SOL     OW15424   2.844   3.429   7.303
 4846SOL    HW115425   2.829   3.472   7.219
 4846SOL    HW215426   2.887   3.346   7.280
 4847SOL     OW15427   3.716   3.368   7.191
 4847SOL    HW115428   3.735   3.394   7.101
 4847SOL    HW215429   3.798   3.386   7.239
 4848SOL     OW15430   2.226   2.763   7.379
 4848SOL    HW115431   2.294   2.796   7.438
 4848SOL    HW215432   2.274   2.736   7.301
 4849SOL     OW15433   3.394   2.140   5.714
 4849SOL    HW115434   3.334   2.070   5.739
 4849SOL    HW215435   3.430   2.171   5.797
 4850SOL     OW15436   3.160   2.690   5.623
 4850SOL    HW115437   3.194   2.602   5.613
 4850SOL    HW215438   3.177   2.732   5.539
 4851SOL     OW15439   2.935   3.205   6.439
 4851SOL    HW115440   2.967   3.135   6.383
 4851SOL    HW215441   2.991   3.280   6.418
 4852SOL     OW15442   2.994   2.246   7.261
 4852SOL    HW115443   2.948   2.294   7.329
 4852SOL    HW215444   3.083   2.280   7.264
 4853SOL     OW15445   3.025   2.068   7.055
 4853SOL    HW115446   3.013   2.130   7.127
 4853SOL    HW215447   3.069   2.119   6.986
 4854SOL     OW15448   1.952   3.650   6.525
 4854SOL    HW115449   1.918   3.571   6.482
 4854SOL    HW215450   2.041   3.660   6.492
 4855SOL     OW15451   2.356   3.438   6.492
 4855SOL    HW115452   2.426   3.498   6.516
 4855SOL    HW215453   2.397   3.374   6.435
 4856SOL     OW15454   2.846   2.679   6.820
 4856SOL    HW115455   2.886   2.626   6.889
 4856SOL    HW215456   2.779   2.623   6.782
 4857SOL     OW15457   3.239   2.800   7.244
 4857SOL    HW115458   3.260   2.894   7.243
 4857SOL    HW215459   3.238   2.775   7.151
 4858SOL     OW15460   3.506   2.464   6.774
 4858SOL    HW115461   3.496   2.403   6.848
 4858SOL    HW215462   3.593   2.444   6.738
 4859SOL     OW15463   2.106   3.413   7.314
 4859SOL    HW115464   2.082   3.478   7.380
 4859SOL    HW215465   2.107   3.330   7.360
 4860SOL     OW15466   2.790   3.541   7.054
 4860SOL    HW115467   2.764   3.506   6.968
 4860SOL    HW215468   2.785   3.636   7.043
 4861SOL     OW15469   2.008   3.004   7.062
 4861SOL    HW115470   2.010   2.950   7.140
 4861SOL    HW215471   2.022   2.943   6.990
 4862SOL     OW15472   3.189   2.910   6.809
 4862SOL    HW115473   3.210   2.845   6.743
 4862SOL    HW215474   3.118   2.961   6.771
 4863SOL     OW15475   3.188   2.720   5.886
 4863SOL    HW115476   3.122   2.669   5.933
 4863SOL    HW215477   3.165   2.711   5.794
 4864SOL     OW15478   3.635   3.606   6.737
 4864SOL    HW115479   3.694   3.632   6.667
 4864SOL    HW215480   3.610   3.516   6.715
 4865SOL     OW15481   3.102   3.594   6.697
 4865SOL    HW115482   3.185   3.616   6.654
 4865SOL    HW215483   3.109   3.501   6.717
 4866SOL     OW15484   1.944   3.150   6.604
 4866SOL    HW115485   1.926   3.151   6.698
 4866SOL    HW215486   1.884   3.084   6.569
 4867SOL     OW15487   2.539   3.528   7.316
 4867SOL    HW115488   2.485   3.607   7.310
 4867SOL    HW215489   2.605   3.540   7.246
 4868SOL     OW15490   3.582   2.009   6.095
 4868SOL    HW115491   3.655   1.992   6.036
 4868SOL    HW215492   3.565   1.924   6.136
 4869SOL     OW15493   3.252   3.429   6.070
 4869SOL    HW115494   3.313   3.461   6.004
 4869SOL    HW215495   3.204   3.507   6.099
 4870SOL     OW15496   1.999   3.657   7.429
 4870SOL    HW115497   1.948   3.593   7.477
 4870SOL    HW215498   2.045   3.707   7.496
 4871SOL     OW15499   3.147   2.806   6.294
 4871SOL    HW115500   3.202   2.730   6.278
 4871SOL    HW215501   3.167   2.866   6.222
 4872SOL     OW15502   2.676   3.138   7.014
 4872SOL    HW115503   2.647   3.177   7.096
 4872SOL    HW215504   2.604   3.156   6.953
 4873SOL     OW15505   2.533   3.482   5.742
 4873SOL    HW115506   2.543   3.496   5.648
 4873SOL    HW215507   2.480   3.403   5.750
 4874SOL     OW15508   3.488   3.588   6.977
 4874SOL    HW115509   3.538   3.596   6.896
 4874SOL    HW215510   3.475   3.679   7.005
 4875SOL     OW15511   3.703   2.034   6.553
 4875SOL    HW115512   3.733   1.947   6.526
 4875SOL    HW215513   3.617   2.044   6.513
 4876SOL     OW15514   3.068   3.468   5.618
 4876SOL    HW115515   3.061   3.376   5.642
 4876SOL    HW215516   3.004   3.480   5.547
 4877SOL     OW15517   2.686   2.869   6.964
 4877SOL    HW115518   2.734   2.854   6.883
 4877SOL    HW215519   2.688   2.964   6.976
 4878SOL     OW15520   3.353   3.488   5.629
 4878SOL    HW115521   3.259   3.481   5.614
 4878SOL    HW215522   3.390   3.494   5.541
 4879SOL     OW15523   2.231   3.166   7.078
 4879SOL    HW115524   2.217   3.242   7.023
 4879SOL    HW215525   2.155   3.111   7.063
 4880SOL     OW15526   3.473   3.145   6.867
 4880SOL    HW115527   3.531   3.133   6.941
 4880SOL    HW215528   3.412   3.214   6.894
 4881SOL     OW15529   2.465   3.356   6.070
 4881SOL    HW115530   2.509   3.307   6.000
 4881SOL    HW215531   2.392   3.400   6.026
 4882SOL     OW15532   3.584   2.255   6.966
 4882SOL    HW115533   3.656   2.317   6.965
 4882SOL    HW215534   3.613   2.183   6.910
 4883SOL     OW15535   2.115   3.222   5.858
 4883SOL    HW115536   2.020   3.232   5.852
 4883SOL    HW215537   2.135   3.246   5.949
 4884SOL     OW15538   1.977   2.884   7.310
 4884SOL    HW115539   1.898   2.861   7.359
 4884SOL    HW215540   2.048   2.839   7.356
 4885SOL     OW15541   2.553   2.035   7.073
 4885SOL    HW115542   2.641   2.012   7.043
 4885SOL    HW215543   2.567   2.070   7.162
 4886SOL     OW15544   3.292   2.721   6.986
 4886SOL    HW115545   3.243   2.781   6.930
 4886SOL    HW215546   3.381   2.723   6.951
 4887SOL     OW15547   1.908   2.077   5.931
 4887SOL    HW115548   1.911   2.143   5.863
 4887SOL    HW215549   1.997   2.042   5.935
 4888SOL     OW15550   3.041   3.201   5.702
 4888SOL    HW115551   2.948   3.179   5.702
 4888SOL    HW215552   3.066   3.201   5.794
 4889SOL     OW15553   2.476   2.703   7.007
 4889SOL    HW115554   2.543   2.770   6.994
 4889SOL    HW215555   2.524   2.627   7.039
 4890SOL     OW15556   3.346   3.638   6.564
 4890SOL    HW115557   3.369   3.699   6.494
 4890SOL    HW215558   3.428   3.620   6.608
 4891SOL     OW15559   3.333   3.062   7.218
 4891SOL    HW115560   3.321   3.076   7.312
 4891SOL    HW215561   3.427   3.077   7.204
 4892SOL     OW15562   2.241   3.601   7.150
 4892SOL    HW115563   2.156   3.643   7.136
 4892SOL    HW215564   2.220   3.518   7.192
 4893SOL     OW15565   3.531   2.743   6.842
 4893SOL    HW115566   3.526   2.658   6.799
 4893SOL    HW215567   3.522   2.806   6.770
 4894SOL     OW15568   3.624   2.224   7.236
 4894SOL    HW115569   3.607   2.239   7.143
 4894SOL    HW215570   3.553   2.167   7.265
 4895SOL     OW15571   3.607   2.796   7.098
 4895SOL    HW115572   3.603   2.891   7.111
 4895SOL    HW215573   3.592   2.784   7.004
 4896SOL     OW15574   2.729   3.230   5.624
 4896SOL    HW115575   2.685   3.263   5.703
 4896SOL    HW215576   2.744   3.308   5.571
 4897SOL     OW15577   2.523   3.653   6.528
 4897SOL    HW115578   2.502   3.744   6.507
 4897SOL    HW215579   2.619   3.648   6.524
 4898SOL     OW15580   2.703   2.782   6.524
 4898SOL    HW115581   2.799   2.777   6.530
 4898SOL    HW215582   2.681   2.869   6.555
 4899SOL     OW15583   3.716   3.417   6.430
 4899SOL    HW115584   3.638   3.405   6.376
 4899SOL    HW215585   3.710   3.349   6.498
 4900SOL     OW15586   2.087   3.165   7.442
 4900SOL    HW115587   2.019   3.105   7.411
 4900SOL    HW215588   2.067   3.178   7.535
 4901SOL     OW15589   1.962   3.143   6.271
 4901SOL    HW115590   1.997   3.095   6.346
 4901SOL    HW215591   1.975   3.084   6.197
 4902SOL     OW15592   2.542   3.265   7.213
 4902SOL    HW115593   2.463   3.222   7.244
 4902SOL    HW215594   2.538   3.353   7.251
 4903SOL     OW15595   3.675   2.046   6.824
 4903SOL    HW115596   3.683   1.952   6.838
 4903SOL    HW215597   3.685   2.057   6.729
 4904SOL     OW15598   3.561   3.352   6.683
 4904SOL    HW115599   3.481   3.328   6.636
 4904SOL    HW215600   3.573   3.282   6.747
 4905SOL     OW15601   2.690   3.436   6.262
 4905SOL    HW115602   2.680   3.497   6.188
 4905SOL    HW215603   2.610   3.384   6.261
 4906SOL     OW15604   3.294   2.089   6.703
 4906SOL    HW115605   3.312   2.004   6.743
 4906SOL    HW215606   3.245   2.137   6.770
 4907SOL     OW15607   2.634   3.205   5.902
 4907SOL    HW115608   2.598   3.116   5.899
 4907SOL    HW215609   2.713   3.196   5.954
 4908SOL     OW15610   2.481   3.420   6.871
 4908SOL    HW115611   2.484   3.501   6.921
 4908SOL    HW215612   2.570   3.411   6.834
 4909SOL     OW15613   3.228   1.917   5.742
 4909SOL    HW115614   3.257   1.845   5.686
 4909SOL    HW215615   3.132   1.915   5.736
 4910SOL     OW15616   3.218   2.343   6.317
 4910SOL    HW115617   3.157   2.417   6.308
 4910SOL    HW215618   3.181   2.290   6.388
 4911SOL     OW15619   3.450   2.063   6.464
 4911SOL    HW115620   3.390   2.085   6.535
 4911SOL    HW215621   3.452   2.142   6.410
 4912SOL     OW15622   2.747   3.516   5.927
 4912SOL    HW115623   2.674   3.498   5.867
 4912SOL    HW215624   2.717   3.590   5.980
 4913SOL     OW15625   2.053   2.535   7.562
 4913SOL    HW115626   1.978   2.508   7.614
 4913SOL    HW215627   2.069   2.462   7.503
 4914SOL     OW15628   1.844   2.255   8.082
 4914SOL    HW115629   1.762   2.279   8.125
 4914SOL    HW215630   1.832   2.164   8.057
 4915SOL     OW15631   2.429   3.150   8.624
 4915SOL    HW115632   2.341   3.154   8.585
 4915SOL    HW215633   2.444   3.239   8.657
 4916SOL     OW15634   3.423   3.374   8.155
 4916SOL    HW115635   3.381   3.353   8.238
 4916SOL    HW215636   3.352   3.378   8.092
 4917SOL     OW15637   2.995   2.560   8.151
 4917SOL    HW115638   3.043   2.641   8.136
 4917SOL    HW215639   2.951   2.573   8.235
 4918SOL     OW15640   3.631   2.467   7.676
 4918SOL    HW115641   3.609   2.459   7.583
 4918SOL    HW215642   3.593   2.389   7.717
 4919SOL     OW15643   2.615   3.003   8.488
 4919SOL    HW115644   2.547   3.039   8.546
 4919SOL    HW215645   2.651   3.080   8.444
 4920SOL     OW15646   2.733   2.639   9.268
 4920SOL    HW115647   2.722   2.710   9.331
 4920SOL    HW215648   2.755   2.682   9.186
 4921SOL     OW15649   2.565   2.909   8.094
 4921SOL    HW115650   2.624   2.885   8.166
 4921SOL    HW215651   2.488   2.946   8.137
 4922SOL     OW15652   2.574   3.015   9.256
 4922SOL    HW115653   2.622   3.093   9.285
 4922SOL    HW215654   2.491   3.049   9.221
 4923SOL     OW15655   2.193   3.287   8.516
 4923SOL    HW115656   2.120   3.250   8.466
 4923SOL    HW215657   2.242   3.338   8.451
 4924SOL     OW15658   3.323   3.361   8.803
 4924SOL    HW115659   3.373   3.442   8.812
 4924SOL    HW215660   3.260   3.363   8.875
 4925SOL     OW15661   3.474   2.310   8.189
 4925SOL    HW115662   3.398   2.332   8.134
 4925SOL    HW215663   3.488   2.387   8.243
 4926SOL     OW15664   2.081   3.576   7.920
 4926SOL    HW115665   2.103   3.652   7.974
 4926SOL    HW215666   2.154   3.569   7.858
 4927SOL     OW15667   2.998   3.204   9.141
 4927SOL    HW115668   3.039   3.199   9.227
 4927SOL    HW215669   2.946   3.124   9.134
 4928SOL     OW15670   2.093   3.303   7.983
 4928SOL    HW115671   2.075   3.397   7.987
 4928SOL    HW215672   2.032   3.265   8.047
 4929SOL     OW15673   2.119   2.954   8.339
 4929SOL    HW115674   2.114   2.867   8.380
 4929SOL    HW215675   2.061   3.009   8.391
 4930SOL     OW15676   2.473   3.653   8.878
 4930SOL    HW115677   2.391   3.635   8.924
 4930SOL    HW215678   2.496   3.743   8.903
 4931SOL     OW15679   2.443   2.848   7.578
 4931SOL    HW115680   2.491   2.896   7.510
 4931SOL    HW215681   2.482   2.878   7.660
 4932SOL     OW15682   3.458   1.985   8.916
 4932SOL    HW115683   3.465   2.066   8.865
 4932SOL    HW215684   3.443   2.015   9.006
 4933SOL     OW15685   1.968   2.506   8.010
 4933SOL    HW115686   1.933   2.420   8.034
 4933SOL    HW215687   1.964   2.557   8.091
 4934SOL     OW15688   3.704   3.621   7.782
 4934SOL    HW115689   3.768   3.593   7.848
 4934SOL    HW215690   3.728   3.712   7.764
 4935SOL     OW15691   1.895   3.456   7.572
 4935SOL    HW115692   1.876   3.365   7.592
 4935SOL    HW215693   1.870   3.504   7.651
 4936SOL     OW15694   3.551   2.781   8.090
 4936SOL    HW115695   3.635   2.739   8.069
 4936SOL    HW215696   3.530   2.831   8.011
 4937SOL     OW15697   3.508   2.968   7.877
 4937SOL    HW115698   3.594   2.974   7.835
 4937SOL    HW215699   3.513   3.030   7.950
 4938SOL     OW15700   1.995   2.607   9.027
 4938SOL    HW115701   2.035   2.610   9.114
 4938SOL    HW215702   1.937   2.683   9.025
 4939SOL     OW15703   2.475   3.249   8.184
 4939SOL    HW115704   2.429   3.165   8.193
 4939SOL    HW215705   2.460   3.275   8.093
 4940SOL     OW15706   3.151   3.100   8.871
 4940SOL    HW115707   3.182   3.033   8.811
 4940SOL    HW215708   3.208   3.093   8.947
 4941SOL     OW15709   2.672   1.865   7.956
 4941SOL    HW115710   2.714   1.949   7.935
 4941SOL    HW215711   2.579   1.885   7.962
 4942SOL     OW15712   2.039   2.838   8.717
 4942SOL    HW115713   2.126   2.803   8.701
 4942SOL    HW215714   1.980   2.777   8.672
 4943SOL     OW15715   3.393   2.855   7.646
 4943SOL    HW115716   3.323   2.798   7.678
 4943SOL    HW215717   3.434   2.890   7.726
 4944SOL     OW15718   3.047   3.668   9.070
 4944SOL    HW115719   3.058   3.727   8.995
 4944SOL    HW215720   3.064   3.581   9.035
 4945SOL     OW15721   3.329   3.281   8.399
 4945SOL    HW115722   3.260   3.297   8.465
 4945SOL    HW215723   3.316   3.190   8.372
 4946SOL     OW15724   3.521   3.601   8.026
 4946SOL    HW115725   3.500   3.572   7.937
 4946SOL    HW215726   3.496   3.528   8.082
 4947SOL     OW15727   2.496   2.620   7.740
 4947SOL    HW115728   2.486   2.686   7.671
 4947SOL    HW215729   2.406   2.597   7.764
 4948SOL     OW15730   3.141   2.214   8.380
 4948SOL    HW115731   3.052   2.181   8.389
 4948SOL    HW215732   3.192   2.161   8.441
 4949SOL     OW15733   3.442   3.532   7.757
 4949SOL    HW115734   3.533   3.564   7.750
 4949SOL    HW215735   3.416   3.515   7.667
 4950SOL     OW15736   2.669   2.459   8.908
 4950SOL    HW115737   2.674   2.464   9.003
 4950SOL    HW215738   2.594   2.403   8.890
 4951SOL     OW15739   3.256   2.336   9.126
 4951SOL    HW115740   3.258   2.380   9.211
 4951SOL    HW215741   3.316   2.263   9.136
 4952SOL     OW15742   2.816   2.748   9.028
 4952SOL    HW115743   2.874   2.681   8.991
 4952SOL    HW215744   2.771   2.786   8.953
 4953SOL     OW15745   2.863   2.274   8.686
 4953SOL    HW115746   2.785   2.310   8.728
 4953SOL    HW215747   2.832   2.234   8.605
 4954SOL     OW15748   2.937   2.574   7.878
 4954SOL    HW115749   2.946   2.564   7.972
 4954SOL    HW215750   2.856   2.529   7.855
 4955SOL     OW15751   1.951   2.682   8.224
 4955SOL    HW115752   2.033   2.678   8.274
 4955SOL    HW215753   1.906   2.759   8.257
 4956SOL     OW15754   1.989   3.711   9.026
 4956SOL    HW115755   1.989   3.690   9.119
 4956SOL    HW215756   1.897   3.700   9.000
 4957SOL     OW15757   2.758   2.212   7.644
 4957SOL    HW115758   2.799   2.269   7.580
 4957SOL    HW215759   2.759   2.125   7.603
 4958SOL     OW15760   3.571   2.436   9.276
 4958SOL    HW115761   3.533   2.510   9.228
 4958SOL    HW215762   3.598   2.375   9.207
 4959SOL     OW15763   3.239   3.005   7.990
 4959SOL    HW115764   3.318   2.991   7.936
 4959SOL    HW215765   3.186   3.066   7.939
 4960SOL     OW15766   2.868   3.306   7.920
 4960SOL    HW115767   2.830   3.380   7.871
 4960SOL    HW215768   2.850   3.327   8.011
 4961SOL     OW15769   2.216   3.671   8.310
 4961SOL    HW115770   2.260   3.586   8.318
 4961SOL    HW215771   2.285   3.735   8.329
 4962SOL     OW15772   3.660   2.921   8.316
 4962SOL    HW115773   3.606   2.901   8.240
 4962SOL    HW215774   3.598   2.926   8.389
 4963SOL     OW15775   3.090   3.401   8.961
 4963SOL    HW115776   3.076   3.328   9.022
 4963SOL    HW215777   3.027   3.385   8.890
 4964SOL     OW15778   2.184   2.810   7.698
 4964SOL    HW115779   2.266   2.828   7.651
 4964SOL    HW215780   2.146   2.735   7.653
 4965SOL     OW15781   3.341   2.603   8.174
 4965SOL    HW115782   3.331   2.562   8.259
 4965SOL    HW215783   3.418   2.660   8.184
 4966SOL     OW15784   2.328   3.126   9.185
 4966SOL    HW115785   2.301   3.131   9.094
 4966SOL    HW215786   2.245   3.126   9.234
 4967SOL     OW15787   2.983   3.640   7.679
 4967SOL    HW115788   2.911   3.598   7.725
 4967SOL    HW215789   3.007   3.578   7.609
 4968SOL     OW15790   3.491   3.242   7.535
 4968SOL    HW115791   3.449   3.327   7.521
 4968SOL    HW215792   3.422   3.178   7.517
 4969SOL     OW15793   2.328   3.599   7.769
 4969SOL    HW115794   2.370   3.656   7.833
 4969SOL    HW215795   2.400   3.568   7.713
 4970SOL     OW15796   3.263   1.970   7.881
 4970SOL    HW115797   3.253   1.945   7.789
 4970SOL    HW215798   3.358   1.976   7.893
 4971SOL     OW15799   2.118   3.653   8.680
 4971SOL    HW115800   2.169   3.587   8.725
 4971SOL    HW215801   2.107   3.619   8.591
 4972SOL     OW15802   2.800   3.561   8.347
 4972SOL    HW115803   2.877   3.509   8.368
 4972SOL    HW215804   2.756   3.511   8.278
 4973SOL     OW15805   3.397   2.087   9.173
 4973SOL    HW115806   3.406   2.108   9.266
 4973SOL    HW215807   3.327   2.021   9.170
 4974SOL     OW15808   2.504   1.982   7.558
 4974SOL    HW115809   2.572   1.915   7.568
 4974SOL    HW215810   2.453   1.953   7.482
 4975SOL     OW15811   2.633   2.115   9.199
 4975SOL    HW115812   2.713   2.063   9.203
 4975SOL    HW215813   2.589   2.099   9.282
 4976SOL     OW15814   2.738   3.384   8.642
 4976SOL    HW115815   2.723   3.347   8.555
 4976SOL    HW215816   2.808   3.330   8.678
 4977SOL     OW15817   3.202   2.452   8.881
 4977SOL    HW115818   3.233   2.420   8.966
 4977SOL    HW215819   3.239   2.539   8.873
 4978SOL     OW15820   2.677   3.257   8.388
 4978SOL    HW115821   2.761   3.245   8.344
 4978SOL    HW215822   2.613   3.258   8.317
 4979SOL     OW15823   2.788   2.369   8.357
 4979SOL    HW115824   2.766   2.364   8.264
 4979SOL    HW215825   2.825   2.283   8.377
 4980SOL     OW15826   2.402   1.935   7.950
 4980SOL    HW115827   2.345   1.944   8.026
 4980SOL    HW215828   2.384   2.012   7.897
 4981SOL     OW15829   3.290   3.060   7.489
 4981SOL    HW115830   3.320   2.984   7.539
 4981SOL    HW215831   3.204   3.081   7.526
 4982SOL     OW15832   2.798   2.111   7.905
 4982SOL    HW115833   2.777   2.149   7.820
 4982SOL    HW215834   2.893   2.121   7.913
 4983SOL     OW15835   2.942   2.543   8.903
 4983SOL    HW115836   2.877   2.473   8.907
 4983SOL    HW215837   3.026   2.497   8.898
 4984SOL     OW15838   3.085   3.432   8.242
 4984SOL    HW115839   3.102   3.499   8.175
 4984SOL    HW215840   3.154   3.446   8.307
 4985SOL     OW15841   2.329   3.013   8.181
 4985SOL    HW115842   2.259   2.994   8.245
 4985SOL    HW215843   2.289   2.995   8.096
 4986SOL     OW15844   3.131   3.656   8.056
 4986SOL    HW115845   3.177   3.717   7.999
 4986SOL    HW215846   3.065   3.709   8.100
 4987SOL     OW15847   2.886   2.404   7.468
 4987SOL    HW115848   2.835   2.482   7.449
 4987SOL    HW215849   2.948   2.431   7.537
 4988SOL     OW15850   1.947   2.425   8.827
 4988SOL    HW115851   2.034   2.390   8.847
 4988SOL    HW215852   1.932   2.493   8.893
 4989SOL     OW15853   2.736   2.316   8.093
 4989SOL    HW115854   2.700   2.383   8.034
 4989SOL    HW215855   2.755   2.242   8.036
 4990SOL     OW15856   2.875   1.915   8.200
 4990SOL    HW115857   2.819   1.906   8.123
 4990SOL    HW215858   2.854   1.839   8.255
 4991SOL     OW15859   3.299   3.025   8.305
 4991SOL    HW115860   3.230   2.958   8.306
 4991SOL    HW215861   3.321   3.035   8.212
 4992SOL     OW15862   3.329   2.467   8.424
 4992SOL    HW115863   3.277   2.387   8.428
 4992SOL    HW215864   3.388   2.462   8.499
 4993SOL     OW15865   3.708   2.678   7.830
 4993SOL    HW115866   3.764   2.627   7.889
 4993SOL    HW215867   3.680   2.615   7.764
 4994SOL     OW15868   2.352   3.280   7.605
 4994SOL    HW115869   2.277   3.251   7.657
 4994SOL    HW215870   2.338   3.241   7.519
 4995SOL     OW15871   3.533   3.127   8.092
 4995SOL    HW115872   3.627   3.129   8.107
 4995SOL    HW215873   3.503   3.215   8.115
 4996SOL     OW15874   3.256   2.434   7.519
 4996SOL    HW115875   3.194   2.415   7.589
 4996SOL    HW215876   3.340   2.401   7.551
 4997SOL     OW15877   3.614   3.101   9.020
 4997SOL    HW115878   3.701   3.062   9.018
 4997SOL    HW215879   3.630   3.191   9.050
 4998SOL     OW15880   2.921   3.217   8.783
 4998SOL    HW115881   2.846   3.186   8.833
 4998SOL    HW215882   2.997   3.175   8.823
 4999SOL     OW15883   3.470   3.488   9.102
 4999SOL    HW115884   3.464   3.522   9.013
 4999SOL    HW215885   3.552   3.440   9.104
 5000SOL     OW15886   2.993   3.068   8.554
 5000SOL    HW115887   2.931   3.103   8.618
 5000SOL    HW215888   2.959   3.097   8.469
 5001SOL     OW15889   3.490   2.960   8.526
 5001SOL    HW115890   3.485   3.022   8.598
 5001SOL    HW215891   3.410   2.976   8.475
 5002SOL     OW15892   2.787   1.956   8.844
 5002SOL    HW115893   2.808   1.938   8.753
 5002SOL    HW215894   2.866   1.996   8.880
 5003SOL     OW15895   2.846   2.976   9.169
 5003SOL    HW115896   2.754   2.992   9.191
 5003SOL    HW215897   2.845   2.898   9.113
 5004SOL     OW15898   2.570   2.927   7.814
 5004SOL    HW115899   2.562   2.921   7.909
 5004SOL    HW215900   2.643   2.870   7.792
 5005SOL     OW15901   2.276   2.708   8.699
 5005SOL    HW115902   2.345   2.718   8.765
 5005SOL    HW215903   2.246   2.618   8.710
 5006SOL     OW15904   3.132   2.238   8.724
 5006SOL    HW115905   3.163   2.317   8.770
 5006SOL    HW215906   3.041   2.259   8.700
 5007SOL     OW15907   1.932   3.436   8.801
 5007SOL    HW115908   1.902   3.508   8.746
 5007SOL    HW215909   2.028   3.439   8.795
 5008SOL     OW15910   2.212   2.969   7.936
 5008SOL    HW115911   2.217   3.047   7.880
 5008SOL    HW215912   2.207   2.896   7.875
 5009SOL     OW15913   3.110   3.210   7.837
 5009SOL    HW115914   3.166   3.282   7.868
 5009SOL    HW215915   3.023   3.231   7.871
 5010SOL     OW15916   3.143   3.320   8.594
 5010SOL    HW115917   3.198   3.321   8.673
 5010SOL    HW215918   3.088   3.242   8.605
 5011SOL     OW15919   3.444   2.485   7.927
 5011SOL    HW115920   3.396   2.536   7.992
 5011SOL    HW215921   3.487   2.550   7.872
 5012SOL     OW15922   2.208   3.390   8.763
 5012SOL    HW115923   2.196   3.347   8.678
 5012SOL    HW215924   2.303   3.401   8.770
 5013SOL     OW15925   3.464   2.641   9.130
 5013SOL    HW115926   3.378   2.682   9.123
 5013SOL    HW215927   3.516   2.683   9.062
 5014SOL     OW15928   2.867   1.980   9.206
 5014SOL    HW115929   2.920   2.055   9.176
 5014SOL    HW215930   2.916   1.903   9.178
 5015SOL     OW15931   2.357   1.903   9.204
 5015SOL    HW115932   2.316   1.851   9.134
 5015SOL    HW215933   2.310   1.986   9.202
 5016SOL     OW15934   2.435   2.740   8.473
 5016SOL    HW115935   2.482   2.823   8.469
 5016SOL    HW215936   2.386   2.744   8.556
 5017SOL     OW15937   3.218   2.721   8.477
 5017SOL    HW115938   3.133   2.710   8.434
 5017SOL    HW215939   3.259   2.634   8.471
 5018SOL     OW15940   3.069   2.390   7.715
 5018SOL    HW115941   3.073   2.312   7.770
 5018SOL    HW215942   3.033   2.458   7.773
 5019SOL     OW15943   1.910   3.173   8.724
 5019SOL    HW115944   1.941   3.119   8.796
 5019SOL    HW215945   1.915   3.263   8.757
 5020SOL     OW15946   2.641   2.553   8.534
 5020SOL    HW115947   2.666   2.493   8.464
 5020SOL    HW215948   2.569   2.604   8.498
 5021SOL     OW15949   3.597   2.822   9.300
 5021SOL    HW115950   3.551   2.759   9.244
 5021SOL    HW215951   3.537   2.835   9.374
 5022SOL     OW15952   3.479   2.237   7.814
 5022SOL    HW115953   3.506   2.172   7.880
 5022SOL    HW215954   3.456   2.315   7.865
 5023SOL     OW15955   2.903   2.621   8.407
 5023SOL    HW115956   2.896   2.646   8.499
 5023SOL    HW215957   2.864   2.534   8.403
 5024SOL     OW15958   2.844   3.428   9.165
 5024SOL    HW115959   2.829   3.472   9.082
 5024SOL    HW215960   2.887   3.346   9.142
 5025SOL     OW15961   3.716   3.368   9.054
 5025SOL    HW115962   3.735   3.394   8.963
 5025SOL    HW215963   3.798   3.386   9.101
 5026SOL     OW15964   2.224   2.771   9.245
 5026SOL    HW115965   2.295   2.802   9.302
 5026SOL    HW215966   2.269   2.719   9.178
 5027SOL     OW15967   3.392   2.135   7.575
 5027SOL    HW115968   3.326   2.070   7.601
 5027SOL    HW215969   3.424   2.171   7.658
 5028SOL     OW15970   3.153   2.688   7.479
 5028SOL    HW115971   3.196   2.603   7.483
 5028SOL    HW215972   3.185   2.727   7.397
 5029SOL     OW15973   2.927   3.198   8.301
 5029SOL    HW115974   2.931   3.125   8.240
 5029SOL    HW215975   2.989   3.262   8.267
 5030SOL     OW15976   2.175   2.673   8.391
 5030SOL    HW115977   2.266   2.702   8.390
 5030SOL    HW215978   2.176   2.590   8.438
 5031SOL     OW15979   2.996   2.239   9.128
 5031SOL    HW115980   2.948   2.292   9.192
 5031SOL    HW215981   3.083   2.278   9.126
 5032SOL     OW15982   3.025   2.065   8.918
 5032SOL    HW115983   3.013   2.128   8.989
 5032SOL    HW215984   3.065   2.116   8.848
 5033SOL     OW15985   1.867   3.182   7.642
 5033SOL    HW115986   1.780   3.197   7.605
 5033SOL    HW215987   1.864   3.093   7.676
 5034SOL     OW15988   1.952   3.649   8.386
 5034SOL    HW115989   1.922   3.569   8.342
 5034SOL    HW215990   2.042   3.661   8.355
 5035SOL     OW15991   2.358   3.436   8.354
 5035SOL    HW115992   2.427   3.498   8.378
 5035SOL    HW215993   2.402   3.372   8.297
 5036SOL     OW15994   2.853   2.670   8.673
 5036SOL    HW115995   2.890   2.630   8.752
 5036SOL    HW215996   2.772   2.621   8.657
 5037SOL     OW15997   1.900   2.415   8.560
 5037SOL    HW115998   1.964   2.354   8.522
 5037SOL    HW215999   1.923   2.418   8.653
 5038SOL     OW16000   3.239   2.801   9.106
 5038SOL    HW116001   3.260   2.894   9.104
 5038SOL    HW216002   3.237   2.775   9.014
 5039SOL     OW16003   2.717   2.454   7.797
 5039SOL    HW116004   2.708   2.378   7.739
 5039SOL    HW216005   2.642   2.510   7.774
 5040SOL     OW16006   3.504   2.464   8.634
 5040SOL    HW116007   3.494   2.404   8.708
 5040SOL    HW216008   3.591   2.444   8.599
 5041SOL     OW16009   2.106   3.413   9.175
 5041SOL    HW116010   2.082   3.478   9.242
 5041SOL    HW216011   2.107   3.330   9.223
 5042SOL     OW16012   2.789   3.541   8.916
 5042SOL    HW116013   2.764   3.506   8.831
 5042SOL    HW216014   2.784   3.636   8.905
 5043SOL     OW16015   2.006   3.005   8.924
 5043SOL    HW116016   2.009   2.952   9.004
 5043SOL    HW216017   2.019   2.943   8.853
 5044SOL     OW16018   3.189   2.909   8.671
 5044SOL    HW116019   3.211   2.845   8.603
 5044SOL    HW216020   3.118   2.961   8.632
 5045SOL     OW16021   3.173   2.719   7.755
 5045SOL    HW116022   3.099   2.686   7.807
 5045SOL    HW216023   3.147   2.705   7.664
 5046SOL     OW16024   3.635   3.605   8.599
 5046SOL    HW116025   3.694   3.632   8.529
 5046SOL    HW216026   3.610   3.516   8.577
 5047SOL     OW16027   3.103   3.595   8.561
 5047SOL    HW116028   3.185   3.616   8.516
 5047SOL    HW216029   3.109   3.501   8.579
 5048SOL     OW16030   1.946   3.129   8.460
 5048SOL    HW116031   1.932   3.141   8.554
 5048SOL    HW216032   1.872   3.075   8.432
 5049SOL     OW16033   2.539   3.528   9.177
 5049SOL    HW116034   2.485   3.607   9.172
 5049SOL    HW216035   2.605   3.539   9.109
 5050SOL     OW16036   3.581   2.009   7.958
 5050SOL    HW116037   3.654   1.994   7.897
 5050SOL    HW216038   3.565   1.923   7.998
 5051SOL     OW16039   3.253   3.430   7.933
 5051SOL    HW116040   3.313   3.462   7.866
 5051SOL    HW216041   3.204   3.507   7.961
 5052SOL     OW16042   1.999   3.657   9.291
 5052SOL    HW116043   1.948   3.593   9.339
 5052SOL    HW216044   2.046   3.707   9.358
 5053SOL     OW16045   3.140   2.787   8.119
 5053SOL    HW116046   3.213   2.726   8.125
 5053SOL    HW216047   3.174   2.860   8.066
 5054SOL     OW16048   2.677   3.138   8.877
 5054SOL    HW116049   2.648   3.176   8.960
 5054SOL    HW216050   2.606   3.158   8.815
 5055SOL     OW16051   2.533   3.483   7.604
 5055SOL    HW116052   2.544   3.494   7.509
 5055SOL    HW216053   2.478   3.404   7.612
 5056SOL     OW16054   3.488   3.588   8.839
 5056SOL    HW116055   3.538   3.595   8.758
 5056SOL    HW216056   3.475   3.679   8.867
 5057SOL     OW16057   3.703   2.035   8.415
 5057SOL    HW116058   3.732   1.948   8.388
 5057SOL    HW216059   3.616   2.045   8.375
 5058SOL     OW16060   3.069   3.468   7.480
 5058SOL    HW116061   3.059   3.377   7.507
 5058SOL    HW216062   3.004   3.480   7.411
 5059SOL     OW16063   2.690   2.871   8.821
 5059SOL    HW116064   2.737   2.861   8.738
 5059SOL    HW216065   2.691   2.966   8.838
 5060SOL     OW16066   2.780   2.778   7.737
 5060SOL    HW116067   2.842   2.809   7.671
 5060SOL    HW216068   2.828   2.709   7.784
 5061SOL     OW16069   3.354   3.487   7.491
 5061SOL    HW116070   3.259   3.481   7.477
 5061SOL    HW216071   3.390   3.493   7.402
 5062SOL     OW16072   2.231   3.165   8.940
 5062SOL    HW116073   2.218   3.242   8.884
 5062SOL    HW216074   2.154   3.111   8.925
 5063SOL     OW16075   3.473   3.145   8.729
 5063SOL    HW116076   3.531   3.133   8.804
 5063SOL    HW216077   3.412   3.214   8.756
 5064SOL     OW16078   2.916   2.969   8.155
 5064SOL    HW116079   2.845   2.918   8.195
 5064SOL    HW216080   2.978   2.903   8.123
 5065SOL     OW16081   2.882   2.102   8.414
 5065SOL    HW116082   2.879   2.054   8.331
 5065SOL    HW216083   2.880   2.033   8.481
 5066SOL     OW16084   2.466   3.350   7.929
 5066SOL    HW116085   2.510   3.300   7.861
 5066SOL    HW216086   2.395   3.396   7.883
 5067SOL     OW16087   3.584   2.254   8.828
 5067SOL    HW116088   3.656   2.317   8.827
 5067SOL    HW216089   3.614   2.183   8.772
 5068SOL     OW16090   2.121   3.206   7.737
 5068SOL    HW116091   2.028   3.204   7.714
 5068SOL    HW216092   2.123   3.244   7.825
 5069SOL     OW16093   1.976   2.884   9.170
 5069SOL    HW116094   1.899   2.860   9.222
 5069SOL    HW216095   2.049   2.842   9.216
 5070SOL     OW16096   2.546   2.044   8.944
 5070SOL    HW116097   2.631   2.023   8.907
 5070SOL    HW216098   2.565   2.077   9.032
 5071SOL     OW16099   1.881   2.235   7.491
 5071SOL    HW116100   1.803   2.192   7.455
 5071SOL    HW216101   1.920   2.280   7.415
 5072SOL     OW16102   3.292   2.720   8.848
 5072SOL    HW116103   3.242   2.780   8.793
 5072SOL    HW216104   3.381   2.723   8.813
 5073SOL     OW16105   3.041   3.202   7.565
 5073SOL    HW116106   2.951   3.169   7.568
 5073SOL    HW216107   3.069   3.202   7.656
 5074SOL     OW16108   2.488   2.701   8.872
 5074SOL    HW116109   2.544   2.778   8.860
 5074SOL    HW216110   2.549   2.628   8.881
 5075SOL     OW16111   3.345   3.639   8.427
 5075SOL    HW116112   3.369   3.699   8.356
 5075SOL    HW216113   3.428   3.619   8.470
 5076SOL     OW16114   3.333   3.062   9.080
 5076SOL    HW116115   3.321   3.076   9.174
 5076SOL    HW216116   3.427   3.077   9.065
 5077SOL     OW16117   2.241   3.601   9.012
 5077SOL    HW116118   2.156   3.643   8.998
 5077SOL    HW216119   2.220   3.518   9.054
 5078SOL     OW16120   3.531   2.743   8.704
 5078SOL    HW116121   3.525   2.658   8.661
 5078SOL    HW216122   3.522   2.806   8.632
 5079SOL     OW16123   3.078   2.180   7.907
 5079SOL    HW116124   3.142   2.110   7.898
 5079SOL    HW216125   3.107   2.230   7.983
 5080SOL     OW16126   2.515   2.648   8.111
 5080SOL    HW116127   2.539   2.739   8.093
 5080SOL    HW216128   2.428   2.638   8.073
 5081SOL     OW16129   3.624   2.223   9.098
 5081SOL    HW116130   3.607   2.239   9.005
 5081SOL    HW216131   3.552   2.167   9.127
 5082SOL     OW16132   3.608   2.796   8.960
 5082SOL    HW116133   3.603   2.890   8.973
 5082SOL    HW216134   3.592   2.783   8.866
 5083SOL     OW16135   2.723   3.229   7.481
 5083SOL    HW116136   2.687   3.256   7.566
 5083SOL    HW216137   2.742   3.311   7.437
 5084SOL     OW16138   2.522   3.653   8.393
 5084SOL    HW116139   2.503   3.744   8.369
 5084SOL    HW216140   2.618   3.646   8.385
 5085SOL     OW16141   2.731   2.832   8.304
 5085SOL    HW116142   2.777   2.756   8.341
 5085SOL    HW216143   2.697   2.878   8.381
 5086SOL     OW16144   2.944   2.855   7.537
 5086SOL    HW116145   2.921   2.902   7.457
 5086SOL    HW216146   3.017   2.798   7.511
 5087SOL     OW16147   3.716   3.417   8.293
 5087SOL    HW116148   3.638   3.405   8.238
 5087SOL    HW216149   3.709   3.349   8.360
 5088SOL     OW16150   2.087   3.165   9.304
 5088SOL    HW116151   2.018   3.106   9.273
 5088SOL    HW216152   2.067   3.179   9.397
 5089SOL     OW16153   1.946   3.097   8.114
 5089SOL    HW116154   1.948   3.047   8.195
 5089SOL    HW216155   2.013   3.056   8.059
 5090SOL     OW16156   2.542   3.266   9.075
 5090SOL    HW116157   2.462   3.223   9.106
 5090SOL    HW216158   2.538   3.353   9.113
 5091SOL     OW16159   3.675   2.046   8.686
 5091SOL    HW116160   3.683   1.952   8.700
 5091SOL    HW216161   3.685   2.058   8.592
 5092SOL     OW16162   3.561   3.352   8.545
 5092SOL    HW116163   3.481   3.328   8.498
 5092SOL    HW216164   3.573   3.282   8.609
 5093SOL     OW16165   2.689   3.440   8.126
 5093SOL    HW116166   2.676   3.493   8.047
 5093SOL    HW216167   2.613   3.382   8.129
 5094SOL     OW16168   3.294   2.087   8.565
 5094SOL    HW116169   3.319   2.006   8.612
 5094SOL    HW216170   3.244   2.137   8.629
 5095SOL     OW16171   2.872   1.880   8.589
 5095SOL    HW116172   2.818   1.810   8.552
 5095SOL    HW216173   2.960   1.843   8.592
 5096SOL     OW16174   2.635   3.196   7.762
 5096SOL    HW116175   2.604   3.105   7.767
 5096SOL    HW216176   2.716   3.196   7.812
 5097SOL     OW16177   2.482   3.419   8.733
 5097SOL    HW116178   2.484   3.500   8.783
 5097SOL    HW216179   2.569   3.411   8.695
 5098SOL     OW16180   3.214   1.915   7.613
 5098SOL    HW116181   3.242   1.851   7.548
 5098SOL    HW216182   3.127   1.886   7.640
 5099SOL     OW16183   3.159   2.323   8.129
 5099SOL    HW116184   3.106   2.402   8.136
 5099SOL    HW216185   3.154   2.284   8.216
 5100SOL     OW16186   3.449   2.064   8.326
 5100SOL    HW116187   3.388   2.084   8.397
 5100SOL    HW216188   3.448   2.142   8.271
 5101SOL     OW16189   1.905   2.932   7.755
 5101SOL    HW116190   1.998   2.924   7.738
 5101SOL    HW216191   1.877   2.843   7.778
 5102SOL     OW16192   2.746   3.515   7.791
 5102SOL    HW116193   2.674   3.498   7.731
 5102SOL    HW216194   2.717   3.590   7.842
 5103SOL     OW16195   2.061   2.527   9.419
 5103SOL    HW116196   1.977   2.502   9.455
 5103SOL    HW216197   2.080   2.459   9.354
 5104SOL     OW16198   1.837   2.268   9.935
 5104SOL    HW116199   1.756   2.291   9.982
 5104SOL    HW216200   1.827   2.175   9.914
 5105SOL     OW16201   2.429   3.150  10.486
 5105SOL    HW116202   2.342   3.153  10.447
 5105SOL    HW216203   2.443   3.239  10.519
 5106SOL     OW16204   3.424   3.374  10.017
 5106SOL    HW116205   3.381   3.353  10.100
 5106SOL    HW216206   3.352   3.378   9.953
 5107SOL     OW16207   2.993   2.560  10.011
 5107SOL    HW116208   3.042   2.641   9.996
 5107SOL    HW216209   2.950   2.573  10.095
 5108SOL     OW16210   3.630   2.467   9.538
 5108SOL    HW116211   3.609   2.459   9.445
 5108SOL    HW216212   3.593   2.388   9.578
 5109SOL     OW16213   2.617   3.004  10.351
 5109SOL    HW116214   2.548   3.039  10.408
 5109SOL    HW216215   2.652   3.081  10.306
 5110SOL     OW16216   2.690   2.672   0.029
 5110SOL    HW116217   2.718   2.715   0.110
 5110SOL    HW216218   2.742   2.714  11.060
 5111SOL     OW16219   2.554   2.885   9.955
 5111SOL    HW116220   2.616   2.865  10.025
 5111SOL    HW216221   2.483   2.932   9.999
 5112SOL     OW16222   2.194   3.285  10.376
 5112SOL    HW116223   2.120   3.249  10.328
 5112SOL    HW216224   2.242   3.337  10.312
 5113SOL     OW16225   3.325   3.361  10.660
 5113SOL    HW116226   3.381   3.439  10.668
 5113SOL    HW216227   3.269   3.365  10.738
 5114SOL     OW16228   3.473   2.310  10.051
 5114SOL    HW116229   3.399   2.333   9.996
 5114SOL    HW216230   3.489   2.388  10.104
 5115SOL     OW16231   2.082   3.576   9.782
 5115SOL    HW116232   2.103   3.652   9.836
 5115SOL    HW216233   2.154   3.569   9.720
 5116SOL     OW16234   2.093   3.303   9.845
 5116SOL    HW116235   2.076   3.397   9.849
 5116SOL    HW216236   2.032   3.265   9.909
 5117SOL     OW16237   2.119   2.957  10.200
 5117SOL    HW116238   2.114   2.869  10.238
 5117SOL    HW216239   2.061   3.010  10.254
 5118SOL     OW16240   2.472   3.651  10.738
 5118SOL    HW116241   2.392   3.632  10.788
 5118SOL    HW216242   2.495   3.741  10.763
 5119SOL     OW16243   2.442   2.854   9.437
 5119SOL    HW116244   2.490   2.901   9.369
 5119SOL    HW216245   2.481   2.885   9.519
 5120SOL     OW16246   3.450   1.979  10.778
 5120SOL    HW116247   3.467   2.059  10.728
 5120SOL    HW216248   3.456   2.006  10.869
 5121SOL     OW16249   1.968   2.509   9.868
 5121SOL    HW116250   1.932   2.424   9.893
 5121SOL    HW216251   1.969   2.559   9.950
 5122SOL     OW16252   3.704   3.621   9.644
 5122SOL    HW116253   3.768   3.593   9.710
 5122SOL    HW216254   3.728   3.712   9.626
 5123SOL     OW16255   1.895   3.456   9.434
 5123SOL    HW116256   1.875   3.365   9.454
 5123SOL    HW216257   1.870   3.504   9.513
 5124SOL     OW16258   3.551   2.781   9.952
 5124SOL    HW116259   3.635   2.739   9.932
 5124SOL    HW216260   3.530   2.831   9.873
 5125SOL     OW16261   3.508   2.968   9.739
 5125SOL    HW116262   3.594   2.974   9.697
 5125SOL    HW216263   3.513   3.030   9.813
 5126SOL     OW16264   1.994   2.603  10.891
 5126SOL    HW116265   2.022   2.601  10.982
 5126SOL    HW216266   1.936   2.679  10.886
 5127SOL     OW16267   2.476   3.248  10.046
 5127SOL    HW116268   2.429   3.165  10.055
 5127SOL    HW216269   2.460   3.274   9.955
 5128SOL     OW16270   3.156   3.098  10.752
 5128SOL    HW116271   3.181   3.039  10.682
 5128SOL    HW216272   3.213   3.075  10.825
 5129SOL     OW16273   2.675   1.863   9.818
 5129SOL    HW116274   2.715   1.947   9.797
 5129SOL    HW216275   2.581   1.882   9.826
 5130SOL     OW16276   2.041   2.838  10.573
 5130SOL    HW116277   2.126   2.794  10.565
 5130SOL    HW216278   1.979   2.775  10.536
 5131SOL     OW16279   3.394   2.855   9.508
 5131SOL    HW116280   3.323   2.798   9.540
 5131SOL    HW216281   3.434   2.890   9.588
 5132SOL     OW16282   3.059   3.668  10.928
 5132SOL    HW116283   3.056   3.732  10.857
 5132SOL    HW216284   3.067   3.584  10.884
 5133SOL     OW16285   3.329   3.282  10.261
 5133SOL    HW116286   3.260   3.297  10.325
 5133SOL    HW216287   3.316   3.190  10.234
 5134SOL     OW16288   3.520   3.602   9.888
 5134SOL    HW116289   3.500   3.572   9.799
 5134SOL    HW216290   3.496   3.528   9.944
 5135SOL     OW16291   2.521   2.640   9.606
 5135SOL    HW116292   2.516   2.694   9.527
 5135SOL    HW216293   2.436   2.650   9.647
 5136SOL     OW16294   3.141   2.215  10.243
 5136SOL    HW116295   3.052   2.181  10.251
 5136SOL    HW216296   3.192   2.162  10.304
 5137SOL     OW16297   3.442   3.532   9.619
 5137SOL    HW116298   3.533   3.564   9.612
 5137SOL    HW216299   3.416   3.515   9.529
 5138SOL     OW16300   2.830   2.757  10.903
 5138SOL    HW116301   2.873   2.683  10.861
 5138SOL    HW216302   2.781   2.800  10.833
 5139SOL     OW16303   2.861   2.270  10.546
 5139SOL    HW116304   2.779   2.303  10.582
 5139SOL    HW216305   2.835   2.230  10.462
 5140SOL     OW16306   2.921   2.565   9.736
 5140SOL    HW116307   2.934   2.558   9.830
 5140SOL    HW216308   2.839   2.518   9.719
 5141SOL     OW16309   1.951   2.686  10.083
 5141SOL    HW116310   2.032   2.681  10.133
 5141SOL    HW216311   1.905   2.761  10.119
 5142SOL     OW16312   1.990   3.708  10.898
 5142SOL    HW116313   1.972   3.671  10.984
 5142SOL    HW216314   1.905   3.705  10.853
 5143SOL     OW16315   2.757   2.209   9.504
 5143SOL    HW116316   2.796   2.271   9.442
 5143SOL    HW216317   2.763   2.124   9.461
 5144SOL     OW16318   3.239   3.004   9.852
 5144SOL    HW116319   3.318   2.991   9.799
 5144SOL    HW216320   3.186   3.066   9.801
 5145SOL     OW16321   2.868   3.307   9.782
 5145SOL    HW116322   2.831   3.380   9.733
 5145SOL    HW216323   2.850   3.328   9.874
 5146SOL     OW16324   2.216   3.671  10.172
 5146SOL    HW116325   2.260   3.586  10.180
 5146SOL    HW216326   2.285   3.735  10.191
 5147SOL     OW16327   3.660   2.920  10.178
 5147SOL    HW116328   3.606   2.901  10.102
 5147SOL    HW216329   3.598   2.925  10.251
 5148SOL     OW16330   3.090   3.399  10.824
 5148SOL    HW116331   3.099   3.310  10.859
 5148SOL    HW216332   3.027   3.390  10.752
 5149SOL     OW16333   2.188   2.808   9.562
 5149SOL    HW116334   2.267   2.829   9.512
 5149SOL    HW216335   2.149   2.734   9.515
 5150SOL     OW16336   3.341   2.604  10.036
 5150SOL    HW116337   3.332   2.562  10.122
 5150SOL    HW216338   3.418   2.660  10.045
 5151SOL     OW16339   2.314   3.129  11.053
 5151SOL    HW116340   2.286   3.141  10.962
 5151SOL    HW216341   2.250   3.068  11.090
 5152SOL     OW16342   2.983   3.640   9.541
 5152SOL    HW116343   2.911   3.598   9.586
 5152SOL    HW216344   3.007   3.578   9.471
 5153SOL     OW16345   3.491   3.242   9.398
 5153SOL    HW116346   3.449   3.327   9.383
 5153SOL    HW216347   3.422   3.178   9.379
 5154SOL     OW16348   2.328   3.599   9.631
 5154SOL    HW116349   2.370   3.656   9.695
 5154SOL    HW216350   2.400   3.568   9.575
 5155SOL     OW16351   3.263   1.970   9.743
 5155SOL    HW116352   3.253   1.945   9.651
 5155SOL    HW216353   3.358   1.976   9.755
 5156SOL     OW16354   2.117   3.654  10.543
 5156SOL    HW116355   2.168   3.590  10.592
 5156SOL    HW216356   2.109   3.616  10.455
 5157SOL     OW16357   2.800   3.560  10.209
 5157SOL    HW116358   2.879   3.509  10.229
 5157SOL    HW216359   2.756   3.511  10.140
 5158SOL     OW16360   2.507   1.985   9.416
 5158SOL    HW116361   2.567   1.912   9.436
 5158SOL    HW216362   2.450   1.950   9.347
 5159SOL     OW16363   2.625   2.145  11.047
 5159SOL    HW116364   2.689   2.088  11.089
 5159SOL    HW216365   2.558   2.160   0.014
 5160SOL     OW16366   2.737   3.383  10.504
 5160SOL    HW116367   2.722   3.348  10.416
 5160SOL    HW216368   2.810   3.332  10.538
 5161SOL     OW16369   3.199   2.457  10.757
 5161SOL    HW116370   3.254   2.434  10.832
 5161SOL    HW216371   3.230   2.544  10.731
 5162SOL     OW16372   2.677   3.257  10.250
 5162SOL    HW116373   2.762   3.245  10.206
 5162SOL    HW216374   2.613   3.258  10.179
 5163SOL     OW16375   2.785   2.366  10.219
 5163SOL    HW116376   2.770   2.362  10.125
 5163SOL    HW216377   2.822   2.280  10.241
 5164SOL     OW16378   2.406   1.932   9.816
 5164SOL    HW116379   2.354   1.948   9.895
 5164SOL    HW216380   2.401   2.014   9.767
 5165SOL     OW16381   3.290   3.060   9.351
 5165SOL    HW116382   3.321   2.984   9.401
 5165SOL    HW216383   3.205   3.081   9.388
 5166SOL     OW16384   2.799   2.108   9.766
 5166SOL    HW116385   2.775   2.148   9.683
 5166SOL    HW216386   2.894   2.119   9.771
 5167SOL     OW16387   2.928   2.534  10.766
 5167SOL    HW116388   2.879   2.466  10.813
 5167SOL    HW216389   3.018   2.501  10.764
 5168SOL     OW16390   3.085   3.433  10.104
 5168SOL    HW116391   3.101   3.499  10.037
 5168SOL    HW216392   3.154   3.446  10.169
 5169SOL     OW16393   2.330   3.013  10.043
 5169SOL    HW116394   2.260   2.995  10.106
 5169SOL    HW216395   2.290   2.995   9.958
 5170SOL     OW16396   3.131   3.656   9.918
 5170SOL    HW116397   3.177   3.716   9.861
 5170SOL    HW216398   3.065   3.710   9.962
 5171SOL     OW16399   2.885   2.404   9.331
 5171SOL    HW116400   2.836   2.484   9.312
 5171SOL    HW216401   2.948   2.429   9.398
 5172SOL     OW16402   1.960   2.413  10.692
 5172SOL    HW116403   2.043   2.373  10.717
 5172SOL    HW216404   1.949   2.485  10.755
 5173SOL     OW16405   2.752   2.313   9.952
 5173SOL    HW116406   2.718   2.377   9.890
 5173SOL    HW216407   2.770   2.235   9.899
 5174SOL     OW16408   2.874   1.915  10.063
 5174SOL    HW116409   2.819   1.905   9.985
 5174SOL    HW216410   2.853   1.839  10.117
 5175SOL     OW16411   3.298   3.025  10.167
 5175SOL    HW116412   3.230   2.957  10.166
 5175SOL    HW216413   3.322   3.035  10.075
 5176SOL     OW16414   3.328   2.469  10.286
 5176SOL    HW116415   3.278   2.387  10.289
 5176SOL    HW216416   3.388   2.462  10.361
 5177SOL     OW16417   3.708   2.678   9.692
 5177SOL    HW116418   3.764   2.627   9.751
 5177SOL    HW216419   3.679   2.615   9.626
 5178SOL     OW16420   2.352   3.280   9.467
 5178SOL    HW116421   2.277   3.251   9.519
 5178SOL    HW216422   2.338   3.241   9.381
 5179SOL     OW16423   3.532   3.126   9.955
 5179SOL    HW116424   3.627   3.129   9.970
 5179SOL    HW216425   3.503   3.215   9.977
 5180SOL     OW16426   3.256   2.434   9.381
 5180SOL    HW116427   3.194   2.415   9.452
 5180SOL    HW216428   3.340   2.401   9.413
 5181SOL     OW16429   3.621   3.091  10.867
 5181SOL    HW116430   3.712   3.063  10.869
 5181SOL    HW216431   3.622   3.178  10.907
 5182SOL     OW16432   2.925   3.217  10.650
 5182SOL    HW116433   2.847   3.183  10.694
 5182SOL    HW216434   2.997   3.168  10.689
 5183SOL     OW16435   2.992   3.070  10.415
 5183SOL    HW116436   2.926   3.102  10.476
 5183SOL    HW216437   2.962   3.098  10.329
 5184SOL     OW16438   3.490   2.960  10.388
 5184SOL    HW116439   3.486   3.022  10.461
 5184SOL    HW216440   3.411   2.978  10.337
 5185SOL     OW16441   2.793   1.955  10.706
 5185SOL    HW116442   2.813   1.938  10.614
 5185SOL    HW216443   2.871   1.998  10.740
 5186SOL     OW16444   2.570   2.930   9.678
 5186SOL    HW116445   2.559   2.917   9.772
 5186SOL    HW216446   2.644   2.874   9.655
 5187SOL     OW16447   2.267   2.689  10.580
 5187SOL    HW116448   2.342   2.708  10.636
 5187SOL    HW216449   2.230   2.608  10.616
 5188SOL     OW16450   3.131   2.242  10.590
 5188SOL    HW116451   3.160   2.322  10.634
 5188SOL    HW216452   3.041   2.261  10.563
 5189SOL     OW16453   1.932   3.438  10.662
 5189SOL    HW116454   1.903   3.510  10.606
 5189SOL    HW216455   2.028   3.440  10.656
 5190SOL     OW16456   2.212   2.969   9.798
 5190SOL    HW116457   2.217   3.047   9.743
 5190SOL    HW216458   2.207   2.896   9.736
 5191SOL     OW16459   3.110   3.210   9.699
 5191SOL    HW116460   3.166   3.282   9.730
 5191SOL    HW216461   3.023   3.231   9.733
 5192SOL     OW16462   3.142   3.321  10.455
 5192SOL    HW116463   3.199   3.324  10.532
 5192SOL    HW216464   3.089   3.242  10.466
 5193SOL     OW16465   3.444   2.485   9.789
 5193SOL    HW116466   3.396   2.537   9.854
 5193SOL    HW216467   3.487   2.549   9.733
 5194SOL     OW16468   2.207   3.387  10.623
 5194SOL    HW116469   2.196   3.344  10.539
 5194SOL    HW216470   2.302   3.401  10.631
 5195SOL     OW16471   3.457   2.622  10.968
 5195SOL    HW116472   3.380   2.678  10.960
 5195SOL    HW216473   3.527   2.671  10.926
 5196SOL     OW16474   2.432   2.739  10.345
 5196SOL    HW116475   2.479   2.822  10.337
 5196SOL    HW216476   2.387   2.745  10.429
 5197SOL     OW16477   3.218   2.723  10.343
 5197SOL    HW116478   3.135   2.712  10.297
 5197SOL    HW216479   3.260   2.637  10.336
 5198SOL     OW16480   3.068   2.391   9.577
 5198SOL    HW116481   3.074   2.312   9.632
 5198SOL    HW216482   3.026   2.456   9.633
 5199SOL     OW16483   1.913   3.175  10.585
 5199SOL    HW116484   1.939   3.119  10.659
 5199SOL    HW216485   1.914   3.264  10.621
 5200SOL     OW16486   2.643   2.541  10.400
 5200SOL    HW116487   2.664   2.476  10.333
 5200SOL    HW216488   2.572   2.593  10.362
 5201SOL     OW16489   3.479   2.236   9.677
 5201SOL    HW116490   3.506   2.172   9.742
 5201SOL    HW216491   3.456   2.315   9.727
 5202SOL     OW16492   2.899   2.621  10.268
 5202SOL    HW116493   2.894   2.645  10.360
 5202SOL    HW216494   2.859   2.534  10.264
 5203SOL     OW16495   2.835   3.434  11.004
 5203SOL    HW116496   2.821   3.484  10.924
 5203SOL    HW216497   2.866   3.349  10.974
 5204SOL     OW16498   3.718   3.355  10.912
 5204SOL    HW116499   3.735   3.390  10.824
 5204SOL    HW216500   3.784   3.397  10.967
 5205SOL     OW16501   2.230   2.769  11.081
 5205SOL    HW116502   2.310   2.797   0.027
 5205SOL    HW216503   2.262   2.721  11.004
 5206SOL     OW16504   3.391   2.135   9.437
 5206SOL    HW116505   3.326   2.070   9.464
 5206SOL    HW216506   3.424   2.171   9.520
 5207SOL     OW16507   3.154   2.688   9.341
 5207SOL    HW116508   3.197   2.602   9.345
 5207SOL    HW216509   3.186   2.727   9.259
 5208SOL     OW16510   2.928   3.197  10.164
 5208SOL    HW116511   2.931   3.125  10.102
 5208SOL    HW216512   2.989   3.262  10.129
 5209SOL     OW16513   2.171   2.683  10.253
 5209SOL    HW116514   2.264   2.703  10.256
 5209SOL    HW216515   2.162   2.604  10.307
 5210SOL     OW16516   3.024   2.071  10.783
 5210SOL    HW116517   3.035   2.127  10.860
 5210SOL    HW216518   3.064   2.121  10.712
 5211SOL     OW16519   1.867   3.182   9.504
 5211SOL    HW116520   1.780   3.197   9.466
 5211SOL    HW216521   1.863   3.093   9.538
 5212SOL     OW16522   1.951   3.649  10.248
 5212SOL    HW116523   1.922   3.569  10.204
 5212SOL    HW216524   2.041   3.661  10.217
 5213SOL     OW16525   2.359   3.436  10.215
 5213SOL    HW116526   2.427   3.498  10.239
 5213SOL    HW216527   2.403   3.373  10.159
 5214SOL     OW16528   2.850   2.668  10.535
 5214SOL    HW116529   2.884   2.626  10.613
 5214SOL    HW216530   2.771   2.618  10.513
 5215SOL     OW16531   1.903   2.421  10.425
 5215SOL    HW116532   1.944   2.345  10.385
 5215SOL    HW216533   1.929   2.418  10.517
 5216SOL     OW16534   2.694   2.432   9.676
 5216SOL    HW116535   2.684   2.359   9.615
 5216SOL    HW216536   2.628   2.495   9.650
 5217SOL     OW16537   3.504   2.463  10.495
 5217SOL    HW116538   3.496   2.404  10.570
 5217SOL    HW216539   3.591   2.445  10.460
 5218SOL     OW16540   2.116   3.427  11.051
 5218SOL    HW116541   2.059   3.460   0.021
 5218SOL    HW216542   2.125   3.333  11.070
 5219SOL     OW16543   2.801   3.544  10.758
 5219SOL    HW116544   2.765   3.510  10.676
 5219SOL    HW216545   2.786   3.639  10.753
 5220SOL     OW16546   2.015   3.002  10.783
 5220SOL    HW116547   2.008   2.946  10.860
 5220SOL    HW216548   2.024   2.941  10.710
 5221SOL     OW16549   3.186   2.915  10.538
 5221SOL    HW116550   3.212   2.849  10.473
 5221SOL    HW216551   3.116   2.964  10.495
 5222SOL     OW16552   3.173   2.719   9.617
 5222SOL    HW116553   3.097   2.688   9.667
 5222SOL    HW216554   3.148   2.705   9.525
 5223SOL     OW16555   3.637   3.606  10.462
 5223SOL    HW116556   3.696   3.632  10.391
 5223SOL    HW216557   3.611   3.517  10.441
 5224SOL     OW16558   3.103   3.596  10.423
 5224SOL    HW116559   3.185   3.617  10.378
 5224SOL    HW216560   3.109   3.502  10.440
 5225SOL     OW16561   1.945   3.130  10.322
 5225SOL    HW116562   1.934   3.143  10.416
 5225SOL    HW216563   1.872   3.075  10.295
 5226SOL     OW16564   3.581   2.009   9.820
 5226SOL    HW116565   3.654   1.994   9.759
 5226SOL    HW216566   3.565   1.923   9.860
 5227SOL     OW16567   3.253   3.430   9.795
 5227SOL    HW116568   3.313   3.462   9.728
 5227SOL    HW216569   3.204   3.507   9.823
 5228SOL     OW16570   3.140   2.787   9.981
 5228SOL    HW116571   3.213   2.726   9.988
 5228SOL    HW216572   3.173   2.860   9.928
 5229SOL     OW16573   2.680   3.136  10.737
 5229SOL    HW116574   2.649   3.170  10.821
 5229SOL    HW216575   2.610   3.158  10.675
 5230SOL     OW16576   2.533   3.482   9.466
 5230SOL    HW116577   2.544   3.494   9.371
 5230SOL    HW216578   2.478   3.404   9.474
 5231SOL     OW16579   3.483   3.582  10.696
 5231SOL    HW116580   3.539   3.596  10.619
 5231SOL    HW216581   3.469   3.670  10.731
 5232SOL     OW16582   3.703   2.035  10.278
 5232SOL    HW116583   3.732   1.948  10.251
 5232SOL    HW216584   3.617   2.045  10.237
 5233SOL     OW16585   3.069   3.468   9.342
 5233SOL    HW116586   3.059   3.376   9.368
 5233SOL    HW216587   3.004   3.480   9.272
 5234SOL     OW16588   2.691   2.867  10.690
 5234SOL    HW116589   2.736   2.854  10.607
 5234SOL    HW216590   2.691   2.961  10.703
 5235SOL     OW16591   2.785   2.784   9.602
 5235SOL    HW116592   2.846   2.810   9.533
 5235SOL    HW216593   2.827   2.710   9.645
 5236SOL     OW16594   3.354   3.487   9.353
 5236SOL    HW116595   3.259   3.481   9.339
 5236SOL    HW216596   3.390   3.493   9.264
 5237SOL     OW16597   2.228   3.170  10.806
 5237SOL    HW116598   2.215   3.244  10.746
 5237SOL    HW216599   2.155   3.111  10.787
 5238SOL     OW16600   3.475   3.144  10.593
 5238SOL    HW116601   3.531   3.129  10.670
 5238SOL    HW216602   3.418   3.216  10.618
 5239SOL     OW16603   2.915   2.969  10.018
 5239SOL    HW116604   2.843   2.917  10.056
 5239SOL    HW216605   2.977   2.904   9.985
 5240SOL     OW16606   2.883   2.102  10.276
 5240SOL    HW116607   2.879   2.054  10.193
 5240SOL    HW216608   2.880   2.033  10.343
 5241SOL     OW16609   2.465   3.350   9.791
 5241SOL    HW116610   2.510   3.300   9.723
 5241SOL    HW216611   2.395   3.397   9.745
 5242SOL     OW16612   3.580   2.256  10.689
 5242SOL    HW116613   3.652   2.318  10.691
 5242SOL    HW216614   3.610   2.185  10.633
 5243SOL     OW16615   2.121   3.206   9.599
 5243SOL    HW116616   2.028   3.204   9.576
 5243SOL    HW216617   2.123   3.244   9.687
 5244SOL     OW16618   1.981   2.875  11.023
 5244SOL    HW116619   1.910   2.858  11.086
 5244SOL    HW216620   2.058   2.835  11.063
 5245SOL     OW16621   2.553   2.036  10.804
 5245SOL    HW116622   2.638   2.013  10.766
 5245SOL    HW216623   2.574   2.082  10.885
 5246SOL     OW16624   3.291   2.712  10.710
 5246SOL    HW116625   3.243   2.780  10.662
 5246SOL    HW216626   3.381   2.720  10.678
 5247SOL     OW16627   1.870   2.006   9.615
 5247SOL    HW116628   1.836   2.088   9.580
 5247SOL    HW216629   1.965   2.019   9.620
 5248SOL     OW16630   3.041   3.202   9.427
 5248SOL    HW116631   2.951   3.169   9.430
 5248SOL    HW216632   3.069   3.202   9.519
 5249SOL     OW16633   2.482   2.701  10.739
 5249SOL    HW116634   2.549   2.768  10.725
 5249SOL    HW216635   2.530   2.624  10.770
 5250SOL     OW16636   3.345   3.639  10.289
 5250SOL    HW116637   3.369   3.699  10.218
 5250SOL    HW216638   3.427   3.619  10.333
 5251SOL     OW16639   2.707   2.447  10.972
 5251SOL    HW116640   2.682   2.515  11.034
 5251SOL    HW216641   2.684   2.365  11.015
 5252SOL     OW16642   2.244   3.594  10.871
 5252SOL    HW116643   2.166   3.649  10.864
 5252SOL    HW216644   2.218   3.523  10.930
 5253SOL     OW16645   3.532   2.744  10.568
 5253SOL    HW116646   3.525   2.659  10.525
 5253SOL    HW216647   3.523   2.807  10.496
 5254SOL     OW16648   3.077   2.180   9.769
 5254SOL    HW116649   3.142   2.109   9.760
 5254SOL    HW216650   3.107   2.229   9.845
 5255SOL     OW16651   2.476   2.627   9.968
 5255SOL    HW116652   2.506   2.716   9.951
 5255SOL    HW216653   2.383   2.627   9.947
 5256SOL     OW16654   3.610   2.180  10.955
 5256SOL    HW116655   3.593   2.218  10.868
 5256SOL    HW216656   3.531   2.199  11.006
 5257SOL     OW16657   3.612   2.798  10.825
 5257SOL    HW116658   3.603   2.892  10.839
 5257SOL    HW216659   3.594   2.785  10.732
 5258SOL     OW16660   2.723   3.230   9.343
 5258SOL    HW116661   2.687   3.257   9.428
 5258SOL    HW216662   2.743   3.312   9.298
 5259SOL     OW16663   2.523   3.653  10.255
 5259SOL    HW116664   2.502   3.744  10.232
 5259SOL    HW216665   2.618   3.647  10.247
 5260SOL     OW16666   2.728   2.829  10.166
 5260SOL    HW116667   2.777   2.755  10.203
 5260SOL    HW216668   2.696   2.877  10.242
 5261SOL     OW16669   2.944   2.852   9.397
 5261SOL    HW116670   2.922   2.901   9.317
 5261SOL    HW216671   3.018   2.797   9.371
 5262SOL     OW16672   3.716   3.417  10.154
 5262SOL    HW116673   3.638   3.405  10.100
 5262SOL    HW216674   3.710   3.349  10.222
 5263SOL     OW16675   1.946   3.096   9.975
 5263SOL    HW116676   1.949   3.048  10.058
 5263SOL    HW216677   2.013   3.055   9.921
 5264SOL     OW16678   2.542   3.257  10.939
 5264SOL    HW116679   2.469   3.207  10.976
 5264SOL    HW216680   2.507   3.346  10.930
 5265SOL     OW16681   3.671   2.045  10.549
 5265SOL    HW116682   3.681   1.951  10.561
 5265SOL    HW216683   3.683   2.059  10.455
 5266SOL     OW16684   3.562   3.353  10.407
 5266SOL    HW116685   3.482   3.328  10.361
 5266SOL    HW216686   3.576   3.283  10.471
 5267SOL     OW16687   2.689   3.440   9.988
 5267SOL    HW116688   2.677   3.493   9.909
 5267SOL    HW216689   2.613   3.382   9.991
 5268SOL     OW16690   3.293   2.087  10.428
 5268SOL    HW116691   3.319   2.007  10.473
 5268SOL    HW216692   3.243   2.136  10.494
 5269SOL     OW16693   2.872   1.880  10.450
 5269SOL    HW116694   2.818   1.811  10.413
 5269SOL    HW216695   2.961   1.843  10.453
 5270SOL     OW16696   2.635   3.196   9.624
 5270SOL    HW116697   2.604   3.106   9.630
 5270SOL    HW216698   2.717   3.197   9.673
 5271SOL     OW16699   2.481   3.417  10.597
 5271SOL    HW116700   2.482   3.500  10.644
 5271SOL    HW216701   2.568   3.411  10.557
 5272SOL     OW16702   3.214   1.915   9.475
 5272SOL    HW116703   3.242   1.852   9.410
 5272SOL    HW216704   3.127   1.886   9.502
 5273SOL     OW16705   3.158   2.323   9.991
 5273SOL    HW116706   3.105   2.402   9.997
 5273SOL    HW216707   3.154   2.284  10.078
 5274SOL     OW16708   3.449   2.064  10.188
 5274SOL    HW116709   3.388   2.084  10.259
 5274SOL    HW216710   3.448   2.142  10.133
 5275SOL     OW16711   1.904   2.932   9.617
 5275SOL    HW116712   1.998   2.925   9.602
 5275SOL    HW216713   1.876   2.843   9.639
 5276SOL     OW16714   2.746   3.515   9.653
 5276SOL    HW116715   2.674   3.498   9.593
 5276SOL    HW216716   2.717   3.591   9.704
 5277SOL     OW16717   2.062   4.297   0.088
 5277SOL    HW116718   2.042   4.356   0.160
 5277SOL    HW216719   2.077   4.354   0.013
 5278SOL     OW16720   2.086   4.001   0.991
 5278SOL    HW116721   2.113   3.967   1.076
 5278SOL    HW216722   1.996   3.970   0.981
 5279SOL     OW16723   1.866   4.102   0.643
 5279SOL    HW116724   1.784   4.130   0.682
 5279SOL    HW216725   1.843   4.025   0.591
 5280SOL     OW16726   3.596   4.331   0.230
 5280SOL    HW116727   3.608   4.306   0.139
 5280SOL    HW216728   3.587   4.248   0.278
 5281SOL     OW16729   2.598   0.272   0.687
 5281SOL    HW116730   2.585   0.205   0.755
 5281SOL    HW216731   2.511   0.285   0.650
 5282SOL     OW16732   2.311   4.116   1.485
 5282SOL    HW116733   2.388   4.058   1.492
 5282SOL    HW216734   2.237   4.058   1.502
 5283SOL     OW16735   3.477   4.171   0.741
 5283SOL    HW116736   3.410   4.197   0.677
 5283SOL    HW216737   3.475   4.241   0.807
 5284SOL     OW16738   3.458   3.847   1.468
 5284SOL    HW116739   3.465   3.927   1.417
 5284SOL    HW216740   3.443   3.877   1.558
 5285SOL     OW16741   1.947   4.369   0.562
 5285SOL    HW116742   1.931   4.278   0.589
 5285SOL    HW216743   2.005   4.404   0.630
 5286SOL     OW16744   1.981   4.476   1.584
 5286SOL    HW116745   2.049   4.494   1.649
 5286SOL    HW216746   1.949   0.062   1.557
 5287SOL     OW16747   2.677   3.727   0.508
 5287SOL    HW116748   2.716   3.812   0.491
 5287SOL    HW216749   2.583   3.744   0.517
 5288SOL     OW16750   2.196   3.974   1.812
 5288SOL    HW116751   2.235   4.060   1.827
 5288SOL    HW216752   2.105   3.984   1.840
 5289SOL     OW16753   3.139   4.074   0.933
 5289SOL    HW116754   3.050   4.041   0.943
 5289SOL    HW216755   3.191   4.022   0.993
 5290SOL     OW16756   2.690   4.305   1.448
 5290SOL    HW116757   2.650   4.309   1.534
 5290SOL    HW216758   2.624   4.265   1.392
 5291SOL     OW16759   3.257   4.200   1.676
 5291SOL    HW116760   3.260   4.244   1.761
 5291SOL    HW216761   3.315   4.124   1.687
 5292SOL     OW16762   2.860   4.150   1.234
 5292SOL    HW116763   2.787   4.173   1.292
 5292SOL    HW216764   2.820   4.092   1.168
 5293SOL     OW16765   2.921   4.403   0.422
 5293SOL    HW116766   2.918   4.460   0.499
 5293SOL    HW216767   2.830   4.382   0.404
 5294SOL     OW16768   2.750   4.073   0.209
 5294SOL    HW116769   2.794   4.132   0.148
 5294SOL    HW216770   2.764   3.986   0.173
 5295SOL     OW16771   3.571   4.298   1.829
 5295SOL    HW116772   3.583   4.386   1.794
 5295SOL    HW216773   3.592   4.240   1.757
 5296SOL     OW16774   2.413   3.904   0.893
 5296SOL    HW116775   2.414   3.933   0.984
 5296SOL    HW216776   2.410   3.985   0.842
 5297SOL     OW16777   3.350   4.465   0.740
 5297SOL    HW116778   3.335   4.410   0.817
 5297SOL    HW216779   3.391   0.044   0.774
 5298SOL     OW16780   2.061   4.004   1.504
 5298SOL    HW116781   1.976   4.048   1.496
 5298SOL    HW216782   2.044   3.932   1.565
 5299SOL     OW16783   3.264   3.830   0.432
 5299SOL    HW116784   3.256   3.808   0.339
 5299SOL    HW216785   3.358   3.840   0.446
 5300SOL     OW16786   2.215   4.383   0.405
 5300SOL    HW116787   2.255   4.309   0.452
 5300SOL    HW216788   2.144   4.411   0.462
 5301SOL     OW16789   3.397   3.950   1.725
 5301SOL    HW116790   3.406   3.971   1.818
 5301SOL    HW216791   3.328   3.883   1.722
 5302SOL     OW16792   2.479   3.830   0.127
 5302SOL    HW116793   2.568   3.796   0.119
 5302SOL    HW216794   2.440   3.816   0.040
 5303SOL     OW16795   2.627   4.002   1.754
 5303SOL    HW116796   2.704   3.945   1.754
 5303SOL    HW216797   2.579   3.979   1.834
 5304SOL     OW16798   3.204   4.312   1.429
 5304SOL    HW116799   3.227   4.275   1.515
 5304SOL    HW216800   3.248   4.397   1.428
 5305SOL     OW16801   2.786   4.236   0.899
 5305SOL    HW116802   2.763   4.220   0.807
 5305SOL    HW216803   2.825   4.154   0.928
 5306SOL     OW16804   2.412   3.788   0.504
 5306SOL    HW116805   2.330   3.786   0.554
 5306SOL    HW216806   2.405   3.866   0.450
 5307SOL     OW16807   2.148   3.771   0.201
 5307SOL    HW116808   2.188   3.826   0.134
 5307SOL    HW216809   2.216   3.708   0.225
 5308SOL     OW16810   2.801   3.973   0.464
 5308SOL    HW116811   2.775   4.013   0.381
 5308SOL    HW216812   2.896   3.987   0.467
 5309SOL     OW16813   2.937   4.395   1.524
 5309SOL    HW116814   2.854   4.366   1.487
 5309SOL    HW216815   3.003   4.357   1.467
 5310SOL     OW16816   2.870   4.264   0.041
 5310SOL    HW116817   2.885   4.318  11.063
 5310SOL    HW216818   2.951   4.273   0.092
 5311SOL     OW16819   1.938   4.280   1.393
 5311SOL    HW116820   2.029   4.272   1.366
 5311SOL    HW216821   1.938   4.354   1.455
 5312SOL     OW16822   2.421   3.950   1.164
 5312SOL    HW116823   2.462   3.874   1.205
 5312SOL    HW216824   2.330   3.947   1.195
 5313SOL     OW16825   2.729   4.189   0.639
 5313SOL    HW116826   2.701   4.252   0.573
 5313SOL    HW216827   2.749   4.109   0.589
 5314SOL     OW16828   2.876   3.777   0.752
 5314SOL    HW116829   2.818   3.770   0.676
 5314SOL    HW216830   2.855   3.702   0.806
 5315SOL     OW16831   3.339   4.311   0.965
 5315SOL    HW116832   3.279   4.239   0.984
 5315SOL    HW216833   3.389   4.323   1.046
 5316SOL     OW16834   3.264   4.292   0.073
 5316SOL    HW116835   3.198   4.276   0.140
 5316SOL    HW216836   3.328   4.221   0.085
 5317SOL     OW16837   2.390   3.992   0.327
 5317SOL    HW116838   2.416   3.930   0.258
 5317SOL    HW216839   2.370   4.073   0.280
 5318SOL     OW16840   2.780   3.821   1.396
 5318SOL    HW116841   2.804   3.801   1.305
 5318SOL    HW216842   2.859   3.860   1.433
 5319SOL     OW16843   2.297   0.009   1.277
 5319SOL    HW116844   2.365   0.001   1.344
 5319SOL    HW216845   2.254   4.424   1.276
 5320SOL     OW16846   3.127   4.099   1.276
 5320SOL    HW116847   3.161   4.177   1.320
 5320SOL    HW216848   3.038   4.123   1.251
 5321SOL     OW16849   2.415   4.253   0.865
 5321SOL    HW116850   2.435   4.294   0.781
 5321SOL    HW216851   2.480   4.289   0.925
 5322SOL     OW16852   3.438   4.338   0.481
 5322SOL    HW116853   3.398   4.403   0.538
 5322SOL    HW216854   3.485   4.390   0.415
 5323SOL     OW16855   2.858   3.848   1.756
 5323SOL    HW116856   2.914   3.921   1.730
 5323SOL    HW216857   2.906   3.769   1.730
 5324SOL     OW16858   2.360   3.764   1.748
 5324SOL    HW116859   2.316   3.710   1.682
 5324SOL    HW216860   2.301   3.839   1.760
 5325SOL     OW16861   3.072   4.250   0.263
 5325SOL    HW116862   3.083   4.171   0.316
 5325SOL    HW216863   3.024   4.310   0.320
 5326SOL     OW16864   2.161   3.922   1.247
 5326SOL    HW116865   2.123   3.955   1.329
 5326SOL    HW216866   2.142   3.828   1.247
 5327SOL     OW16867   2.594   4.360   1.043
 5327SOL    HW116868   2.668   4.323   0.995
 5327SOL    HW216869   2.604   4.455   1.032
 5328SOL     OW16870   3.614   0.133   1.854
 5328SOL    HW116871   3.547   0.148   1.787
 5328SOL    HW216872   3.571   0.157   1.936
 5329SOL     OW16873   2.166   3.789   0.624
 5329SOL    HW116874   2.145   3.879   0.646
 5329SOL    HW216875   2.172   3.743   0.708
 5330SOL     OW16876   3.478   4.092   0.366
 5330SOL    HW116877   3.507   4.029   0.433
 5330SOL    HW216878   3.454   4.170   0.416
 5331SOL     OW16879   3.395   4.016   0.115
 5331SOL    HW116880   3.337   3.942   0.130
 5331SOL    HW216881   3.429   4.038   0.202
 5332SOL     OW16882   2.180   0.012   0.919
 5332SOL    HW116883   2.257   0.068   0.931
 5332SOL    HW216884   2.194   4.439   0.979
 5333SOL     OW16885   2.198   4.240   1.022
 5333SOL    HW116886   2.159   4.155   1.002
 5333SOL    HW216887   2.273   4.247   0.962
 5334SOL     OW16888   2.999   4.092   1.686
 5334SOL    HW116889   2.946   4.152   1.739
 5334SOL    HW216890   3.083   4.137   1.677
 5335SOL     OW16891   3.022   3.926   1.469
 5335SOL    HW116892   3.013   3.987   1.542
 5335SOL    HW216893   3.063   3.978   1.400
 5336SOL     OW16894   1.898   4.273   1.116
 5336SOL    HW116895   1.979   4.257   1.067
 5336SOL    HW216896   1.925   4.274   1.207
 5337SOL     OW16897   2.056   4.244   1.717
 5337SOL    HW116898   2.111   4.197   1.653
 5337SOL    HW216899   2.003   4.303   1.664
 5338SOL     OW16900   2.676   4.309   0.329
 5338SOL    HW116901   2.687   4.223   0.288
 5338SOL    HW216902   2.582   4.315   0.345
 5339SOL     OW16903   3.498   4.317   1.186
 5339SOL    HW116904   3.494   4.259   1.262
 5339SOL    HW216905   3.586   4.305   1.151
 5340SOL     OW16906   2.547   4.182   1.254
 5340SOL    HW116907   2.501   4.105   1.222
 5340SOL    HW216908   2.549   4.241   1.178
 5341SOL     OW16909   2.333   4.218   0.182
 5341SOL    HW116910   2.374   4.303   0.198
 5341SOL    HW216911   2.239   4.236   0.181
 5342SOL     OW16912   2.780   3.814   0.104
 5342SOL    HW116913   2.830   3.778   0.031
 5342SOL    HW216914   2.817   3.772   0.181
 5343SOL     OW16915   3.581   3.870   0.510
 5343SOL    HW116916   3.654   3.857   0.449
 5343SOL    HW216917   3.567   3.784   0.549
 5344SOL     OW16918   3.140   0.136   0.681
 5344SOL    HW116919   3.196   0.060   0.694
 5344SOL    HW216920   3.189   0.194   0.623
 5345SOL     OW16921   3.702   3.896   0.968
 5345SOL    HW116922   3.731   3.809   0.939
 5345SOL    HW216923   3.616   3.907   0.927
 5346SOL     OW16924   2.124   4.042   0.718
 5346SOL    HW116925   2.036   4.071   0.693
 5346SOL    HW216926   2.119   4.030   0.813
 5347SOL     OW16927   2.924   0.299   0.728
 5347SOL    HW116928   2.843   0.265   0.690
 5347SOL    HW216929   2.990   0.235   0.705
 5348SOL     OW16930   2.882   3.964   0.965
 5348SOL    HW116931   2.878   3.916   0.883
 5348SOL    HW216932   2.878   3.897   1.033
 5349SOL     OW16933   3.584   4.114   1.380
 5349SOL    HW116934   3.655   4.178   1.377
 5349SOL    HW216935   3.613   4.043   1.323
 5350SOL     OW16936   2.536   3.919   1.500
 5350SOL    HW116937   2.621   3.900   1.458
 5350SOL    HW216938   2.559   3.952   1.586
 5351SOL     OW16939   1.942   4.050   0.056
 5351SOL    HW116940   1.875   4.047  11.088
 5351SOL    HW216941   1.971   4.141   0.059
 5352SOL     OW16942   1.928   3.882   0.313
 5352SOL    HW116943   1.914   3.956   0.253
 5352SOL    HW216944   2.011   3.845   0.285
 5353SOL     OW16945   2.592   4.285   1.701
 5353SOL    HW116946   2.591   4.330   1.785
 5353SOL    HW216947   2.610   4.193   1.723
 5354SOL     OW16948   3.079   4.039   0.456
 5354SOL    HW116949   3.143   3.968   0.447
 5354SOL    HW216950   3.108   4.088   0.533
 5355SOL     OW16951   3.621   4.091   1.649
 5355SOL    HW116952   3.605   4.102   1.555
 5355SOL    HW216953   3.552   4.032   1.679
 5356SOL     OW16954   2.962   0.205   0.051
 5356SOL    HW116955   2.960   0.292   0.010
 5356SOL    HW216956   3.052   0.175   0.039
 5357SOL     OW16957   3.676   3.907   1.238
 5357SOL    HW116958   3.684   3.813   1.251
 5357SOL    HW216959   3.684   3.919   1.144
 5358SOL     OW16960   2.304   4.158   0.538
 5358SOL    HW116961   2.329   4.088   0.478
 5358SOL    HW216962   2.248   4.115   0.603
 5359SOL     OW16963   2.186   4.264   1.295
 5359SOL    HW116964   2.243   4.209   1.349
 5359SOL    HW216965   2.205   4.238   1.205
 5360SOL     OW16966   3.294   3.949   1.117
 5360SOL    HW116967   3.318   3.869   1.163
 5360SOL    HW216968   3.242   3.998   1.181
 5361SOL     OW16969   2.871   3.743   1.142
 5361SOL    HW116970   2.817   3.675   1.101
 5361SOL    HW216971   2.959   3.705   1.144
 5362SOL     OW16972   3.213   3.779   0.164
 5362SOL    HW116973   3.234   3.726   0.087
 5362SOL    HW216974   3.126   3.748   0.190
 5363SOL     OW16975   3.161   4.174   0.680
 5363SOL    HW116976   3.126   4.262   0.693
 5363SOL    HW216977   3.160   4.135   0.767
 5364SOL     OW16978   3.448   3.926   0.878
 5364SOL    HW116979   3.388   3.948   0.949
 5364SOL    HW216980   3.449   4.004   0.822
 5365SOL     OW16981   2.085   4.285   1.986
 5365SOL    HW116982   2.036   4.358   2.023
 5365SOL    HW216983   2.078   4.297   1.891
 5366SOL     OW16984   2.086   4.000   2.852
 5366SOL    HW116985   2.114   3.967   2.938
 5366SOL    HW216986   1.996   3.970   2.843
 5367SOL     OW16987   1.866   4.100   2.505
 5367SOL    HW116988   1.785   4.131   2.544
 5367SOL    HW216989   1.841   4.023   2.454
 5368SOL     OW16990   3.592   4.335   2.100
 5368SOL    HW116991   3.592   4.322   2.005
 5368SOL    HW216992   3.593   4.246   2.136
 5369SOL     OW16993   2.592   0.272   2.550
 5369SOL    HW116994   2.582   0.208   2.620
 5369SOL    HW216995   2.504   0.284   2.515
 5370SOL     OW16996   2.311   4.115   3.346
 5370SOL    HW116997   2.388   4.058   3.354
 5370SOL    HW216998   2.237   4.058   3.364
 5371SOL     OW16999   3.477   4.172   2.602
 5371SOL    HW117000   3.408   4.197   2.540
 5371SOL    HW217001   3.475   4.240   2.669
 5372SOL     OW17002   3.458   3.847   3.330
 5372SOL    HW117003   3.465   3.928   3.279
 5372SOL    HW217004   3.443   3.877   3.420
 5373SOL     OW17005   1.936   4.375   2.434
 5373SOL    HW117006   1.930   4.281   2.453
 5373SOL    HW217007   2.006   4.407   2.490
 5374SOL     OW17008   1.981   4.476   3.446
 5374SOL    HW117009   2.049   4.495   3.511
 5374SOL    HW217010   1.949   0.062   3.419
 5375SOL     OW17011   2.677   3.725   2.370
 5375SOL    HW117012   2.717   3.810   2.351
 5375SOL    HW217013   2.583   3.744   2.379
 5376SOL     OW17014   2.196   3.974   3.674
 5376SOL    HW117015   2.235   4.060   3.689
 5376SOL    HW217016   2.105   3.984   3.701
 5377SOL     OW17017   3.139   4.073   2.794
 5377SOL    HW117018   3.050   4.040   2.805
 5377SOL    HW217019   3.191   4.021   2.856
 5378SOL     OW17020   2.691   4.304   3.309
 5378SOL    HW117021   2.650   4.309   3.396
 5378SOL    HW217022   2.623   4.265   3.254
 5379SOL     OW17023   3.257   4.199   3.538
 5379SOL    HW117024   3.259   4.244   3.623
 5379SOL    HW217025   3.315   4.124   3.549
 5380SOL     OW17026   2.860   4.150   3.096
 5380SOL    HW117027   2.788   4.173   3.154
 5380SOL    HW217028   2.820   4.092   3.030
 5381SOL     OW17029   2.918   4.410   2.279
 5381SOL    HW117030   2.915   4.453   2.365
 5381SOL    HW217031   2.831   4.371   2.269
 5382SOL     OW17032   2.754   4.065   2.051
 5382SOL    HW117033   2.795   4.128   1.992
 5382SOL    HW217034   2.773   3.979   2.012
 5383SOL     OW17035   3.571   4.298   3.691
 5383SOL    HW117036   3.583   4.387   3.657
 5383SOL    HW217037   3.592   4.240   3.619
 5384SOL     OW17038   2.412   3.905   2.754
 5384SOL    HW117039   2.414   3.933   2.846
 5384SOL    HW217040   2.411   3.986   2.704
 5385SOL     OW17041   3.353   4.466   2.600
 5385SOL    HW117042   3.336   4.410   2.677
 5385SOL    HW217043   3.393   0.045   2.636
 5386SOL     OW17044   2.061   4.003   3.365
 5386SOL    HW117045   1.976   4.049   3.359
 5386SOL    HW217046   2.044   3.932   3.427
 5387SOL     OW17047   3.263   3.830   2.295
 5387SOL    HW117048   3.254   3.806   2.203
 5387SOL    HW217049   3.357   3.840   2.308
 5388SOL     OW17050   2.216   4.388   2.269
 5388SOL    HW117051   2.254   4.312   2.313
 5388SOL    HW217052   2.146   4.417   2.327
 5389SOL     OW17053   3.397   3.950   3.587
 5389SOL    HW117054   3.406   3.971   3.680
 5389SOL    HW217055   3.328   3.883   3.584
 5390SOL     OW17056   2.496   3.846   1.967
 5390SOL    HW117057   2.566   3.781   1.980
 5390SOL    HW217058   2.447   3.815   1.892
 5391SOL     OW17059   2.627   4.002   3.616
 5391SOL    HW117060   2.704   3.944   3.617
 5391SOL    HW217061   2.580   3.979   3.696
 5392SOL     OW17062   3.204   4.312   3.291
 5392SOL    HW117063   3.227   4.275   3.377
 5392SOL    HW217064   3.247   4.397   3.290
 5393SOL     OW17065   2.785   4.236   2.759
 5393SOL    HW117066   2.763   4.219   2.668
 5393SOL    HW217067   2.825   4.154   2.789
 5394SOL     OW17068   2.411   3.787   2.364
 5394SOL    HW117069   2.331   3.787   2.416
 5394SOL    HW217070   2.404   3.866   2.309
 5395SOL     OW17071   2.153   3.771   2.047
 5395SOL    HW117072   2.212   3.836   2.007
 5395SOL    HW217073   2.212   3.708   2.088
 5396SOL     OW17074   2.800   3.972   2.322
 5396SOL    HW117075   2.774   4.010   2.239
 5396SOL    HW217076   2.895   3.985   2.326
 5397SOL     OW17077   2.937   4.395   3.387
 5397SOL    HW117078   2.854   4.366   3.350
 5397SOL    HW217079   3.003   4.357   3.329
 5398SOL     OW17080   2.886   4.266   1.889
 5398SOL    HW117081   2.871   4.353   1.853
 5398SOL    HW217082   2.950   4.280   1.959
 5399SOL     OW17083   1.938   4.280   3.255
 5399SOL    HW117084   2.029   4.272   3.228
 5399SOL    HW217085   1.938   4.354   3.317
 5400SOL     OW17086   2.421   3.950   3.026
 5400SOL    HW117087   2.462   3.875   3.068
 5400SOL    HW217088   2.330   3.947   3.057
 5401SOL     OW17089   2.730   4.189   2.498
 5401SOL    HW117090   2.698   4.249   2.431
 5401SOL    HW217091   2.750   4.108   2.451
 5402SOL     OW17092   2.876   3.777   2.614
 5402SOL    HW117093   2.819   3.769   2.538
 5402SOL    HW217094   2.855   3.702   2.668
 5403SOL     OW17095   3.339   4.311   2.826
 5403SOL    HW117096   3.279   4.240   2.846
 5403SOL    HW217097   3.390   4.323   2.906
 5404SOL     OW17098   3.265   4.296   1.935
 5404SOL    HW117099   3.202   4.268   2.002
 5404SOL    HW217100   3.348   4.254   1.961
 5405SOL     OW17101   2.387   3.988   2.180
 5405SOL    HW117102   2.430   3.939   2.110
 5405SOL    HW217103   2.370   4.074   2.142
 5406SOL     OW17104   2.781   3.821   3.258
 5406SOL    HW117105   2.804   3.801   3.167
 5406SOL    HW217106   2.859   3.860   3.295
 5407SOL     OW17107   2.297   0.009   3.139
 5407SOL    HW117108   2.365   0.002   3.206
 5407SOL    HW217109   2.254   4.424   3.139
 5408SOL     OW17110   3.127   4.099   3.137
 5408SOL    HW117111   3.161   4.177   3.182
 5408SOL    HW217112   3.038   4.123   3.113
 5409SOL     OW17113   2.415   4.252   2.727
 5409SOL    HW117114   2.434   4.294   2.643
 5409SOL    HW217115   2.480   4.289   2.787
 5410SOL     OW17116   3.430   4.338   2.340
 5410SOL    HW117117   3.404   4.403   2.405
 5410SOL    HW217118   3.491   4.384   2.282
 5411SOL     OW17119   2.858   3.848   3.618
 5411SOL    HW117120   2.914   3.921   3.592
 5411SOL    HW217121   2.906   3.770   3.592
 5412SOL     OW17122   2.360   3.764   3.610
 5412SOL    HW117123   2.316   3.710   3.544
 5412SOL    HW217124   2.301   3.839   3.622
 5413SOL     OW17125   3.072   4.254   2.125
 5413SOL    HW117126   3.082   4.174   2.178
 5413SOL    HW217127   3.023   4.314   2.182
 5414SOL     OW17128   2.161   3.922   3.109
 5414SOL    HW117129   2.123   3.955   3.190
 5414SOL    HW217130   2.142   3.828   3.110
 5415SOL     OW17131   2.594   4.360   2.905
 5415SOL    HW117132   2.668   4.323   2.856
 5415SOL    HW217133   2.604   4.455   2.896
 5416SOL     OW17134   3.614   0.132   3.715
 5416SOL    HW117135   3.547   0.148   3.648
 5416SOL    HW217136   3.571   0.157   3.798
 5417SOL     OW17137   2.165   3.788   2.485
 5417SOL    HW117138   2.145   3.879   2.508
 5417SOL    HW217139   2.172   3.743   2.569
 5418SOL     OW17140   3.476   4.091   2.230
 5418SOL    HW117141   3.506   4.030   2.298
 5418SOL    HW217142   3.452   4.170   2.277
 5419SOL     OW17143   3.388   3.999   1.989
 5419SOL    HW117144   3.325   3.932   2.015
 5419SOL    HW217145   3.423   4.032   2.071
 5420SOL     OW17146   2.181   0.012   2.781
 5420SOL    HW117147   2.257   0.069   2.793
 5420SOL    HW217148   2.195   4.440   2.843
 5421SOL     OW17149   2.199   4.240   2.884
 5421SOL    HW117150   2.159   4.155   2.864
 5421SOL    HW217151   2.273   4.247   2.824
 5422SOL     OW17152   2.999   4.092   3.549
 5422SOL    HW117153   2.946   4.152   3.601
 5422SOL    HW217154   3.083   4.137   3.540
 5423SOL     OW17155   3.022   3.926   3.331
 5423SOL    HW117156   3.013   3.987   3.404
 5423SOL    HW217157   3.063   3.978   3.262
 5424SOL     OW17158   1.898   4.272   2.978
 5424SOL    HW117159   1.979   4.258   2.929
 5424SOL    HW217160   1.925   4.274   3.069
 5425SOL     OW17161   2.056   4.244   3.578
 5425SOL    HW117162   2.111   4.198   3.515
 5425SOL    HW217163   2.003   4.303   3.525
 5426SOL     OW17164   2.681   4.280   2.215
 5426SOL    HW117165   2.683   4.207   2.152
 5426SOL    HW217166   2.595   4.320   2.202
 5427SOL     OW17167   3.498   4.317   3.048
 5427SOL    HW117168   3.494   4.260   3.124
 5427SOL    HW217169   3.586   4.304   3.013
 5428SOL     OW17170   2.547   4.182   3.115
 5428SOL    HW117171   2.501   4.105   3.084
 5428SOL    HW217172   2.549   4.241   3.040
 5429SOL     OW17173   2.342   4.223   2.052
 5429SOL    HW117174   2.373   4.311   2.075
 5429SOL    HW217175   2.248   4.233   2.039
 5430SOL     OW17176   3.582   3.870   2.373
 5430SOL    HW117177   3.654   3.855   2.312
 5430SOL    HW217178   3.566   3.784   2.412
 5431SOL     OW17179   3.141   0.136   2.541
 5431SOL    HW117180   3.199   0.061   2.553
 5431SOL    HW217181   3.192   0.197   2.488
 5432SOL     OW17182   3.701   3.896   2.830
 5432SOL    HW117183   3.731   3.809   2.801
 5432SOL    HW217184   3.616   3.907   2.789
 5433SOL     OW17185   2.124   4.041   2.579
 5433SOL    HW117186   2.036   4.071   2.555
 5433SOL    HW217187   2.120   4.030   2.675
 5434SOL     OW17188   2.768   0.090   2.077
 5434SOL    HW117189   2.849   0.129   2.046
 5434SOL    HW217190   2.791   0.055   2.164
 5435SOL     OW17191   2.928   0.298   2.605
 5435SOL    HW117192   2.852   0.286   2.547
 5435SOL    HW217193   2.992   0.234   2.574
 5436SOL     OW17194   2.882   3.964   2.827
 5436SOL    HW117195   2.878   3.915   2.744
 5436SOL    HW217196   2.878   3.897   2.895
 5437SOL     OW17197   3.584   4.114   3.242
 5437SOL    HW117198   3.655   4.178   3.240
 5437SOL    HW217199   3.613   4.043   3.185
 5438SOL     OW17200   2.536   3.918   3.362
 5438SOL    HW117201   2.621   3.900   3.320
 5438SOL    HW217202   2.559   3.952   3.448
 5439SOL     OW17203   1.937   4.041   1.891
 5439SOL    HW117204   1.850   4.036   1.850
 5439SOL    HW217205   1.969   4.128   1.868
 5440SOL     OW17206   1.930   3.880   2.173
 5440SOL    HW117207   1.915   3.959   2.121
 5440SOL    HW217208   2.015   3.847   2.141
 5441SOL     OW17209   2.592   4.285   3.563
 5441SOL    HW117210   2.591   4.331   3.647
 5441SOL    HW217211   2.610   4.194   3.586
 5442SOL     OW17212   3.080   4.042   2.316
 5442SOL    HW117213   3.142   3.970   2.309
 5442SOL    HW217214   3.108   4.090   2.394
 5443SOL     OW17215   3.621   4.091   3.511
 5443SOL    HW117216   3.605   4.102   3.417
 5443SOL    HW217217   3.552   4.032   3.541
 5444SOL     OW17218   2.973   0.227   1.964
 5444SOL    HW117219   2.960   0.270   1.879
 5444SOL    HW217220   3.059   0.184   1.956
 5445SOL     OW17221   3.676   3.907   3.100
 5445SOL    HW117222   3.684   3.813   3.113
 5445SOL    HW217223   3.684   3.919   3.006
 5446SOL     OW17224   2.303   4.157   2.399
 5446SOL    HW117225   2.326   4.087   2.338
 5446SOL    HW217226   2.248   4.115   2.465
 5447SOL     OW17227   2.186   4.264   3.157
 5447SOL    HW117228   2.243   4.209   3.211
 5447SOL    HW217229   2.206   4.238   3.067
 5448SOL     OW17230   3.294   3.949   2.979
 5448SOL    HW117231   3.319   3.869   3.026
 5448SOL    HW217232   3.242   3.998   3.043
 5449SOL     OW17233   2.871   3.743   3.004
 5449SOL    HW117234   2.817   3.675   2.963
 5449SOL    HW217235   2.959   3.705   3.006
 5450SOL     OW17236   3.215   3.777   2.027
 5450SOL    HW117237   3.243   3.713   1.962
 5450SOL    HW217238   3.127   3.748   2.053
 5451SOL     OW17239   3.161   4.175   2.543
 5451SOL    HW117240   3.126   4.263   2.557
 5451SOL    HW217241   3.160   4.134   2.629
 5452SOL     OW17242   3.448   3.926   2.739
 5452SOL    HW117243   3.388   3.948   2.811
 5452SOL    HW217244   3.449   4.004   2.684
 5453SOL     OW17245   2.085   4.285   3.848
 5453SOL    HW117246   2.037   4.359   3.885
 5453SOL    HW217247   2.078   4.297   3.753
 5454SOL     OW17248   2.086   4.000   4.714
 5454SOL    HW117249   2.114   3.968   4.800
 5454SOL    HW217250   1.996   3.970   4.705
 5455SOL     OW17251   1.866   4.100   4.367
 5455SOL    HW117252   1.785   4.131   4.406
 5455SOL    HW217253   1.841   4.023   4.316
 5456SOL     OW17254   3.592   4.335   3.962
 5456SOL    HW117255   3.592   4.322   3.867
 5456SOL    HW217256   3.594   4.246   3.998
 5457SOL     OW17257   2.593   0.272   4.411
 5457SOL    HW117258   2.582   0.209   4.483
 5457SOL    HW217259   2.504   0.286   4.378
 5458SOL     OW17260   2.311   4.115   5.208
 5458SOL    HW117261   2.388   4.059   5.216
 5458SOL    HW217262   2.237   4.058   5.226
 5459SOL     OW17263   3.477   4.172   4.464
 5459SOL    HW117264   3.409   4.197   4.402
 5459SOL    HW217265   3.475   4.240   4.531
 5460SOL     OW17266   3.458   3.847   5.192
 5460SOL    HW117267   3.465   3.928   5.141
 5460SOL    HW217268   3.443   3.877   5.282
 5461SOL     OW17269   1.934   4.375   4.297
 5461SOL    HW117270   1.930   4.282   4.315
 5461SOL    HW217271   2.006   4.407   4.352
 5462SOL     OW17272   1.981   4.476   5.308
 5462SOL    HW117273   2.049   4.494   5.373
 5462SOL    HW217274   1.949   0.062   5.281
 5463SOL     OW17275   2.676   3.724   4.230
 5463SOL    HW117276   2.717   3.809   4.212
 5463SOL    HW217277   2.583   3.744   4.240
 5464SOL     OW17278   2.196   3.974   5.535
 5464SOL    HW117279   2.235   4.060   5.551
 5464SOL    HW217280   2.105   3.984   5.563
 5465SOL     OW17281   3.139   4.073   4.656
 5465SOL    HW117282   3.050   4.041   4.667
 5465SOL    HW217283   3.191   4.021   4.718
 5466SOL     OW17284   2.691   4.304   5.171
 5466SOL    HW117285   2.650   4.309   5.258
 5466SOL    HW217286   2.623   4.265   5.116
 5467SOL     OW17287   3.257   4.199   5.400
 5467SOL    HW117288   3.259   4.244   5.485
 5467SOL    HW217289   3.315   4.124   5.411
 5468SOL     OW17290   2.860   4.150   4.958
 5468SOL    HW117291   2.788   4.173   5.017
 5468SOL    HW217292   2.820   4.092   4.893
 5469SOL     OW17293   2.918   4.410   4.141
 5469SOL    HW117294   2.916   4.453   4.227
 5469SOL    HW217295   2.831   4.371   4.132
 5470SOL     OW17296   2.754   4.064   3.912
 5470SOL    HW117297   2.795   4.128   3.854
 5470SOL    HW217298   2.774   3.979   3.874
 5471SOL     OW17299   3.571   4.298   5.554
 5471SOL    HW117300   3.583   4.386   5.518
 5471SOL    HW217301   3.592   4.240   5.481
 5472SOL     OW17302   2.411   3.905   4.616
 5472SOL    HW117303   2.413   3.933   4.708
 5472SOL    HW217304   2.411   3.987   4.566
 5473SOL     OW17305   3.353   4.466   4.462
 5473SOL    HW117306   3.336   4.411   4.539
 5473SOL    HW217307   3.393   0.045   4.498
 5474SOL     OW17308   2.060   4.003   5.227
 5474SOL    HW117309   1.976   4.049   5.221
 5474SOL    HW217310   2.045   3.932   5.289
 5475SOL     OW17311   3.263   3.830   4.157
 5475SOL    HW117312   3.254   3.806   4.065
 5475SOL    HW217313   3.357   3.840   4.170
 5476SOL     OW17314   2.215   4.387   4.130
 5476SOL    HW117315   2.254   4.312   4.174
 5476SOL    HW217316   2.146   4.417   4.190
 5477SOL     OW17317   3.397   3.950   5.449
 5477SOL    HW117318   3.406   3.971   5.542
 5477SOL    HW217319   3.328   3.883   5.446
 5478SOL     OW17320   2.496   3.846   3.830
 5478SOL    HW117321   2.566   3.782   3.841
 5478SOL    HW217322   2.447   3.815   3.754
 5479SOL     OW17323   2.627   4.002   5.478
 5479SOL    HW117324   2.704   3.945   5.479
 5479SOL    HW217325   2.579   3.979   5.558
 5480SOL     OW17326   3.205   4.312   5.153
 5480SOL    HW117327   3.227   4.275   5.239
 5480SOL    HW217328   3.247   4.397   5.152
 5481SOL     OW17329   2.785   4.236   4.621
 5481SOL    HW117330   2.763   4.219   4.530
 5481SOL    HW217331   2.825   4.154   4.651
 5482SOL     OW17332   2.411   3.787   4.226
 5482SOL    HW117333   2.331   3.787   4.278
 5482SOL    HW217334   2.404   3.866   4.171
 5483SOL     OW17335   2.153   3.771   3.909
 5483SOL    HW117336   2.212   3.836   3.869
 5483SOL    HW217337   2.213   3.708   3.950
 5484SOL     OW17338   2.800   3.971   4.184
 5484SOL    HW117339   2.774   4.011   4.101
 5484SOL    HW217340   2.895   3.985   4.188
 5485SOL     OW17341   2.937   4.395   5.249
 5485SOL    HW117342   2.854   4.366   5.212
 5485SOL    HW217343   3.003   4.357   5.191
 5486SOL     OW17344   2.886   4.266   3.751
 5486SOL    HW117345   2.871   4.353   3.715
 5486SOL    HW217346   2.950   4.280   3.821
 5487SOL     OW17347   1.938   4.281   5.117
 5487SOL    HW117348   2.029   4.272   5.090
 5487SOL    HW217349   1.938   4.354   5.179
 5488SOL     OW17350   2.421   3.950   4.888
 5488SOL    HW117351   2.463   3.875   4.930
 5488SOL    HW217352   2.330   3.947   4.919
 5489SOL     OW17353   2.730   4.189   4.360
 5489SOL    HW117354   2.698   4.249   4.293
 5489SOL    HW217355   2.750   4.108   4.313
 5490SOL     OW17356   2.878   3.778   4.474
 5490SOL    HW117357   2.820   3.771   4.399
 5490SOL    HW217358   2.856   3.703   4.529
 5491SOL     OW17359   3.340   4.310   4.688
 5491SOL    HW117360   3.278   4.240   4.708
 5491SOL    HW217361   3.390   4.323   4.768
 5492SOL     OW17362   3.265   4.296   3.797
 5492SOL    HW117363   3.202   4.268   3.864
 5492SOL    HW217364   3.347   4.255   3.823
 5493SOL     OW17365   2.387   3.988   4.042
 5493SOL    HW117366   2.430   3.939   3.972
 5493SOL    HW217367   2.370   4.074   4.004
 5494SOL     OW17368   2.780   3.822   5.120
 5494SOL    HW117369   2.804   3.801   5.029
 5494SOL    HW217370   2.859   3.861   5.157
 5495SOL     OW17371   2.297   0.009   5.001
 5495SOL    HW117372   2.365   0.001   5.068
 5495SOL    HW217373   2.254   4.423   5.001
 5496SOL     OW17374   3.127   4.100   4.999
 5496SOL    HW117375   3.161   4.177   5.044
 5496SOL    HW217376   3.038   4.123   4.974
 5497SOL     OW17377   2.415   4.252   4.589
 5497SOL    HW117378   2.434   4.294   4.505
 5497SOL    HW217379   2.480   4.289   4.649
 5498SOL     OW17380   3.430   4.338   4.202
 5498SOL    HW117381   3.404   4.403   4.267
 5498SOL    HW217382   3.491   4.384   4.144
 5499SOL     OW17383   2.858   3.848   5.480
 5499SOL    HW117384   2.914   3.921   5.454
 5499SOL    HW217385   2.906   3.770   5.454
 5500SOL     OW17386   2.359   3.765   5.471
 5500SOL    HW117387   2.316   3.711   5.405
 5500SOL    HW217388   2.301   3.840   5.483
 5501SOL     OW17389   3.072   4.253   3.987
 5501SOL    HW117390   3.082   4.174   4.040
 5501SOL    HW217391   3.023   4.313   4.044
 5502SOL     OW17392   2.160   3.923   4.971
 5502SOL    HW117393   2.123   3.956   5.052
 5502SOL    HW217394   2.141   3.829   4.972
 5503SOL     OW17395   2.594   4.360   4.767
 5503SOL    HW117396   2.668   4.323   4.718
 5503SOL    HW217397   2.604   4.455   4.758
 5504SOL     OW17398   3.614   0.133   5.578
 5504SOL    HW117399   3.547   0.148   5.510
 5504SOL    HW217400   3.571   0.157   5.660
 5505SOL     OW17401   2.165   3.788   4.347
 5505SOL    HW117402   2.145   3.879   4.370
 5505SOL    HW217403   2.173   3.743   4.432
 5506SOL     OW17404   3.476   4.091   4.092
 5506SOL    HW117405   3.506   4.030   4.160
 5506SOL    HW217406   3.452   4.170   4.139
 5507SOL     OW17407   3.389   3.999   3.851
 5507SOL    HW117408   3.325   3.932   3.877
 5507SOL    HW217409   3.424   4.032   3.933
 5508SOL     OW17410   2.181   0.012   4.643
 5508SOL    HW117411   2.257   0.069   4.655
 5508SOL    HW217412   2.195   4.440   4.705
 5509SOL     OW17413   2.198   4.240   4.746
 5509SOL    HW117414   2.159   4.155   4.726
 5509SOL    HW217415   2.272   4.247   4.686
 5510SOL     OW17416   2.999   4.092   5.410
 5510SOL    HW117417   2.946   4.152   5.463
 5510SOL    HW217418   3.083   4.137   5.401
 5511SOL     OW17419   3.022   3.926   5.193
 5511SOL    HW117420   3.013   3.987   5.266
 5511SOL    HW217421   3.063   3.978   5.123
 5512SOL     OW17422   1.898   4.271   4.840
 5512SOL    HW117423   1.980   4.258   4.791
 5512SOL    HW217424   1.925   4.274   4.931
 5513SOL     OW17425   2.055   4.244   5.441
 5513SOL    HW117426   2.111   4.198   5.378
 5513SOL    HW217427   2.003   4.304   5.387
 5514SOL     OW17428   2.681   4.279   4.077
 5514SOL    HW117429   2.683   4.207   4.014
 5514SOL    HW217430   2.596   4.321   4.064
 5515SOL     OW17431   3.498   4.317   4.910
 5515SOL    HW117432   3.494   4.260   4.986
 5515SOL    HW217433   3.586   4.304   4.875
 5516SOL     OW17434   2.547   4.183   4.977
 5516SOL    HW117435   2.501   4.105   4.945
 5516SOL    HW217436   2.549   4.242   4.902
 5517SOL     OW17437   2.342   4.223   3.914
 5517SOL    HW117438   2.373   4.311   3.937
 5517SOL    HW217439   2.248   4.233   3.901
 5518SOL     OW17440   3.582   3.870   4.235
 5518SOL    HW117441   3.654   3.855   4.174
 5518SOL    HW217442   3.566   3.784   4.274
 5519SOL     OW17443   3.141   0.135   4.403
 5519SOL    HW117444   3.199   0.061   4.414
 5519SOL    HW217445   3.192   0.198   4.352
 5520SOL     OW17446   3.701   3.896   4.692
 5520SOL    HW117447   3.731   3.809   4.663
 5520SOL    HW217448   3.616   3.907   4.651
 5521SOL     OW17449   2.124   4.040   4.441
 5521SOL    HW117450   2.036   4.071   4.417
 5521SOL    HW217451   2.120   4.030   4.536
 5522SOL     OW17452   2.768   0.089   3.939
 5522SOL    HW117453   2.849   0.129   3.908
 5522SOL    HW217454   2.790   0.056   4.026
 5523SOL     OW17455   2.928   0.297   4.467
 5523SOL    HW117456   2.852   0.287   4.409
 5523SOL    HW217457   2.991   0.233   4.436
 5524SOL     OW17458   2.882   3.964   4.688
 5524SOL    HW117459   2.878   3.915   4.606
 5524SOL    HW217460   2.877   3.897   4.756
 5525SOL     OW17461   3.584   4.114   5.104
 5525SOL    HW117462   3.655   4.179   5.102
 5525SOL    HW217463   3.613   4.043   5.047
 5526SOL     OW17464   2.536   3.921   5.224
 5526SOL    HW117465   2.621   3.901   5.182
 5526SOL    HW217466   2.560   3.953   5.311
 5527SOL     OW17467   1.937   4.041   3.753
 5527SOL    HW117468   1.851   4.036   3.711
 5527SOL    HW217469   1.969   4.128   3.731
 5528SOL     OW17470   1.930   3.880   4.035
 5528SOL    HW117471   1.915   3.959   3.983
 5528SOL    HW217472   2.015   3.847   4.003
 5529SOL     OW17473   2.592   4.285   5.425
 5529SOL    HW117474   2.591   4.331   5.509
 5529SOL    HW217475   2.610   4.193   5.448
 5530SOL     OW17476   3.080   4.042   4.178
 5530SOL    HW117477   3.142   3.970   4.171
 5530SOL    HW217478   3.108   4.090   4.256
 5531SOL     OW17479   3.621   4.091   5.373
 5531SOL    HW117480   3.605   4.102   5.279
 5531SOL    HW217481   3.552   4.032   5.403
 5532SOL     OW17482   2.973   0.227   3.826
 5532SOL    HW117483   2.961   0.271   3.742
 5532SOL    HW217484   3.058   0.184   3.818
 5533SOL     OW17485   3.676   3.907   4.962
 5533SOL    HW117486   3.684   3.813   4.975
 5533SOL    HW217487   3.684   3.919   4.868
 5534SOL     OW17488   2.303   4.158   4.261
 5534SOL    HW117489   2.326   4.088   4.200
 5534SOL    HW217490   2.248   4.115   4.327
 5535SOL     OW17491   2.186   4.264   5.019
 5535SOL    HW117492   2.243   4.209   5.073
 5535SOL    HW217493   2.206   4.238   4.929
 5536SOL     OW17494   3.293   3.948   4.842
 5536SOL    HW117495   3.320   3.870   4.889
 5536SOL    HW217496   3.242   3.998   4.905
 5537SOL     OW17497   2.871   3.743   4.867
 5537SOL    HW117498   2.816   3.676   4.827
 5537SOL    HW217499   2.959   3.705   4.868
 5538SOL     OW17500   3.215   3.778   3.889
 5538SOL    HW117501   3.243   3.713   3.824
 5538SOL    HW217502   3.127   3.748   3.915
 5539SOL     OW17503   3.160   4.175   4.404
 5539SOL    HW117504   3.126   4.263   4.419
 5539SOL    HW217505   3.160   4.134   4.491
 5540SOL     OW17506   3.448   3.926   4.602
 5540SOL    HW117507   3.388   3.948   4.673
 5540SOL    HW217508   3.449   4.004   4.546
 5541SOL     OW17509   2.085   4.285   5.710
 5541SOL    HW117510   2.036   4.358   5.747
 5541SOL    HW217511   2.078   4.297   5.615
 5542SOL     OW17512   2.086   4.001   6.576
 5542SOL    HW117513   2.114   3.967   6.662
 5542SOL    HW217514   1.996   3.970   6.567
 5543SOL     OW17515   1.866   4.100   6.228
 5543SOL    HW117516   1.785   4.131   6.268
 5543SOL    HW217517   1.841   4.023   6.178
 5544SOL     OW17518   3.592   4.335   5.824
 5544SOL    HW117519   3.592   4.322   5.729
 5544SOL    HW217520   3.593   4.246   5.860
 5545SOL     OW17521   2.593   0.272   6.273
 5545SOL    HW117522   2.582   0.209   6.344
 5545SOL    HW217523   2.504   0.285   6.239
 5546SOL     OW17524   2.311   4.115   7.070
 5546SOL    HW117525   2.388   4.058   7.078
 5546SOL    HW217526   2.237   4.058   7.088
 5547SOL     OW17527   3.477   4.172   6.326
 5547SOL    HW117528   3.408   4.197   6.264
 5547SOL    HW217529   3.475   4.240   6.393
 5548SOL     OW17530   3.458   3.847   7.054
 5548SOL    HW117531   3.465   3.928   7.003
 5548SOL    HW217532   3.443   3.877   7.144
 5549SOL     OW17533   1.935   4.375   6.158
 5549SOL    HW117534   1.930   4.281   6.177
 5549SOL    HW217535   2.006   4.407   6.214
 5550SOL     OW17536   1.981   4.476   7.170
 5550SOL    HW117537   2.049   4.494   7.235
 5550SOL    HW217538   1.949   0.062   7.143
 5551SOL     OW17539   2.677   3.724   6.096
 5551SOL    HW117540   2.717   3.808   6.076
 5551SOL    HW217541   2.584   3.743   6.104
 5552SOL     OW17542   2.196   3.974   7.398
 5552SOL    HW117543   2.235   4.060   7.413
 5552SOL    HW217544   2.105   3.984   7.425
 5553SOL     OW17545   3.139   4.073   6.518
 5553SOL    HW117546   3.050   4.041   6.529
 5553SOL    HW217547   3.191   4.021   6.580
 5554SOL     OW17548   2.691   4.304   7.034
 5554SOL    HW117549   2.650   4.309   7.120
 5554SOL    HW217550   2.624   4.265   6.978
 5555SOL     OW17551   3.257   4.199   7.262
 5555SOL    HW117552   3.260   4.244   7.347
 5555SOL    HW217553   3.315   4.124   7.273
 5556SOL     OW17554   2.860   4.150   6.820
 5556SOL    HW117555   2.788   4.173   6.878
 5556SOL    HW217556   2.820   4.092   6.755
 5557SOL     OW17557   2.918   4.410   6.003
 5557SOL    HW117558   2.915   4.453   6.089
 5557SOL    HW217559   2.831   4.371   5.994
 5558SOL     OW17560   2.754   4.065   5.775
 5558SOL    HW117561   2.795   4.128   5.716
 5558SOL    HW217562   2.773   3.979   5.735
 5559SOL     OW17563   3.571   4.298   7.415
 5559SOL    HW117564   3.583   4.386   7.380
 5559SOL    HW217565   3.592   4.240   7.343
 5560SOL     OW17566   2.413   3.905   6.479
 5560SOL    HW117567   2.414   3.933   6.570
 5560SOL    HW217568   2.411   3.986   6.429
 5561SOL     OW17569   3.353   4.466   6.324
 5561SOL    HW117570   3.336   4.410   6.401
 5561SOL    HW217571   3.393   0.045   6.360
 5562SOL     OW17572   2.061   4.004   7.090
 5562SOL    HW117573   1.976   4.048   7.083
 5562SOL    HW217574   2.045   3.931   7.150
 5563SOL     OW17575   3.263   3.829   6.019
 5563SOL    HW117576   3.254   3.805   5.927
 5563SOL    HW217577   3.357   3.840   6.032
 5564SOL     OW17578   2.216   4.388   5.992
 5564SOL    HW117579   2.254   4.312   6.036
 5564SOL    HW217580   2.146   4.417   6.052
 5565SOL     OW17581   3.397   3.950   7.311
 5565SOL    HW117582   3.406   3.971   7.404
 5565SOL    HW217583   3.328   3.883   7.308
 5566SOL     OW17584   2.496   3.846   5.691
 5566SOL    HW117585   2.565   3.781   5.703
 5566SOL    HW217586   2.447   3.815   5.615
 5567SOL     OW17587   2.627   4.002   7.340
 5567SOL    HW117588   2.704   3.945   7.340
 5567SOL    HW217589   2.579   3.978   7.420
 5568SOL     OW17590   3.205   4.312   7.015
 5568SOL    HW117591   3.227   4.275   7.101
 5568SOL    HW217592   3.247   4.397   7.014
 5569SOL     OW17593   2.786   4.236   6.483
 5569SOL    HW117594   2.763   4.220   6.392
 5569SOL    HW217595   2.825   4.154   6.513
 5570SOL     OW17596   2.412   3.787   6.087
 5570SOL    HW117597   2.332   3.787   6.140
 5570SOL    HW217598   2.405   3.865   6.033
 5571SOL     OW17599   2.154   3.771   5.770
 5571SOL    HW117600   2.212   3.836   5.732
 5571SOL    HW217601   2.212   3.708   5.812
 5572SOL     OW17602   2.800   3.971   6.046
 5572SOL    HW117603   2.774   4.010   5.963
 5572SOL    HW217604   2.895   3.985   6.050
 5573SOL     OW17605   2.937   4.395   7.111
 5573SOL    HW117606   2.854   4.366   7.074
 5573SOL    HW217607   3.003   4.357   7.053
 5574SOL     OW17608   2.886   4.266   5.613
 5574SOL    HW117609   2.871   4.353   5.577
 5574SOL    HW217610   2.950   4.280   5.683
 5575SOL     OW17611   1.938   4.280   6.979
 5575SOL    HW117612   2.029   4.272   6.952
 5575SOL    HW217613   1.938   4.354   7.041
 5576SOL     OW17614   2.421   3.950   6.750
 5576SOL    HW117615   2.462   3.875   6.793
 5576SOL    HW217616   2.330   3.947   6.781
 5577SOL     OW17617   2.731   4.189   6.222
 5577SOL    HW117618   2.698   4.249   6.155
 5577SOL    HW217619   2.750   4.108   6.175
 5578SOL     OW17620   2.878   3.778   6.337
 5578SOL    HW117621   2.819   3.772   6.262
 5578SOL    HW217622   2.855   3.703   6.392
 5579SOL     OW17623   3.340   4.311   6.550
 5579SOL    HW117624   3.279   4.240   6.570
 5579SOL    HW217625   3.390   4.323   6.630
 5580SOL     OW17626   3.265   4.295   5.659
 5580SOL    HW117627   3.202   4.268   5.726
 5580SOL    HW217628   3.347   4.255   5.685
 5581SOL     OW17629   2.387   3.988   5.904
 5581SOL    HW117630   2.430   3.939   5.834
 5581SOL    HW217631   2.370   4.074   5.866
 5582SOL     OW17632   2.780   3.821   6.982
 5582SOL    HW117633   2.804   3.801   6.891
 5582SOL    HW217634   2.859   3.860   7.019
 5583SOL     OW17635   2.297   0.009   6.863
 5583SOL    HW117636   2.365   0.001   6.930
 5583SOL    HW217637   2.254   4.424   6.863
 5584SOL     OW17638   3.127   4.100   6.861
 5584SOL    HW117639   3.161   4.177   6.906
 5584SOL    HW217640   3.038   4.123   6.837
 5585SOL     OW17641   2.415   4.252   6.451
 5585SOL    HW117642   2.434   4.294   6.367
 5585SOL    HW217643   2.480   4.289   6.511
 5586SOL     OW17644   3.430   4.338   6.064
 5586SOL    HW117645   3.404   4.403   6.129
 5586SOL    HW217646   3.491   4.384   6.006
 5587SOL     OW17647   2.858   3.848   7.341
 5587SOL    HW117648   2.915   3.920   7.316
 5587SOL    HW217649   2.906   3.769   7.316
 5588SOL     OW17650   2.360   3.764   7.334
 5588SOL    HW117651   2.316   3.710   7.268
 5588SOL    HW217652   2.301   3.839   7.346
 5589SOL     OW17653   3.072   4.253   5.849
 5589SOL    HW117654   3.082   4.174   5.902
 5589SOL    HW217655   3.023   4.314   5.906
 5590SOL     OW17656   2.161   3.923   6.833
 5590SOL    HW117657   2.123   3.955   6.915
 5590SOL    HW217658   2.142   3.829   6.833
 5591SOL     OW17659   2.594   4.360   6.629
 5591SOL    HW117660   2.668   4.324   6.580
 5591SOL    HW217661   2.604   4.455   6.620
 5592SOL     OW17662   3.614   0.133   7.439
 5592SOL    HW117663   3.547   0.148   7.372
 5592SOL    HW217664   3.571   0.157   7.522
 5593SOL     OW17665   2.167   3.790   6.209
 5593SOL    HW117666   2.145   3.880   6.233
 5593SOL    HW217667   2.173   3.744   6.293
 5594SOL     OW17668   3.476   4.091   5.954
 5594SOL    HW117669   3.506   4.030   6.022
 5594SOL    HW217670   3.452   4.170   6.001
 5595SOL     OW17671   3.388   3.999   5.713
 5595SOL    HW117672   3.325   3.932   5.739
 5595SOL    HW217673   3.423   4.032   5.795
 5596SOL     OW17674   2.181   0.012   6.505
 5596SOL    HW117675   2.257   0.069   6.517
 5596SOL    HW217676   2.195   4.440   6.566
 5597SOL     OW17677   2.199   4.240   6.608
 5597SOL    HW117678   2.159   4.155   6.589
 5597SOL    HW217679   2.273   4.246   6.548
 5598SOL     OW17680   2.999   4.092   7.272
 5598SOL    HW117681   2.946   4.152   7.325
 5598SOL    HW217682   3.083   4.137   7.263
 5599SOL     OW17683   3.023   3.926   7.055
 5599SOL    HW117684   3.013   3.987   7.128
 5599SOL    HW217685   3.063   3.978   6.986
 5600SOL     OW17686   1.898   4.273   6.702
 5600SOL    HW117687   1.979   4.257   6.653
 5600SOL    HW217688   1.925   4.274   6.793
 5601SOL     OW17689   2.055   4.244   7.303
 5601SOL    HW117690   2.110   4.197   7.240
 5601SOL    HW217691   2.003   4.303   7.249
 5602SOL     OW17692   2.681   4.279   5.939
 5602SOL    HW117693   2.683   4.207   5.876
 5602SOL    HW217694   2.595   4.320   5.926
 5603SOL     OW17695   3.498   4.317   6.772
 5603SOL    HW117696   3.494   4.260   6.848
 5603SOL    HW217697   3.586   4.304   6.737
 5604SOL     OW17698   2.548   4.182   6.839
 5604SOL    HW117699   2.501   4.104   6.808
 5604SOL    HW217700   2.549   4.241   6.764
 5605SOL     OW17701   2.342   4.223   5.776
 5605SOL    HW117702   2.373   4.310   5.799
 5605SOL    HW217703   2.248   4.233   5.763
 5606SOL     OW17704   3.582   3.870   6.097
 5606SOL    HW117705   3.654   3.855   6.036
 5606SOL    HW217706   3.566   3.784   6.136
 5607SOL     OW17707   3.141   0.136   6.265
 5607SOL    HW117708   3.199   0.061   6.277
 5607SOL    HW217709   3.192   0.197   6.212
 5608SOL     OW17710   3.701   3.896   6.554
 5608SOL    HW117711   3.731   3.809   6.525
 5608SOL    HW217712   3.616   3.907   6.513
 5609SOL     OW17713   2.124   4.042   6.304
 5609SOL    HW117714   2.036   4.071   6.279
 5609SOL    HW217715   2.120   4.030   6.399
 5610SOL     OW17716   2.768   0.089   5.801
 5610SOL    HW117717   2.849   0.129   5.770
 5610SOL    HW217718   2.790   0.055   5.888
 5611SOL     OW17719   2.928   0.298   6.328
 5611SOL    HW117720   2.852   0.286   6.271
 5611SOL    HW217721   2.992   0.233   6.298
 5612SOL     OW17722   2.882   3.964   6.551
 5612SOL    HW117723   2.878   3.916   6.468
 5612SOL    HW217724   2.878   3.897   6.619
 5613SOL     OW17725   3.584   4.114   6.966
 5613SOL    HW117726   3.655   4.178   6.964
 5613SOL    HW217727   3.613   4.043   6.909
 5614SOL     OW17728   2.536   3.919   7.086
 5614SOL    HW117729   2.621   3.900   7.044
 5614SOL    HW217730   2.559   3.952   7.173
 5615SOL     OW17731   1.937   4.041   5.614
 5615SOL    HW117732   1.850   4.036   5.574
 5615SOL    HW217733   1.969   4.128   5.592
 5616SOL     OW17734   1.930   3.879   5.896
 5616SOL    HW117735   1.915   3.959   5.845
 5616SOL    HW217736   2.015   3.847   5.866
 5617SOL     OW17737   2.592   4.285   7.287
 5617SOL    HW117738   2.591   4.330   7.371
 5617SOL    HW217739   2.610   4.193   7.309
 5618SOL     OW17740   3.080   4.042   6.040
 5618SOL    HW117741   3.142   3.970   6.033
 5618SOL    HW217742   3.108   4.090   6.118
 5619SOL     OW17743   3.621   4.091   7.235
 5619SOL    HW117744   3.605   4.102   7.141
 5619SOL    HW217745   3.552   4.032   7.265
 5620SOL     OW17746   2.973   0.227   5.688
 5620SOL    HW117747   2.961   0.270   5.604
 5620SOL    HW217748   3.058   0.184   5.680
 5621SOL     OW17749   3.676   3.907   6.824
 5621SOL    HW117750   3.684   3.813   6.837
 5621SOL    HW217751   3.684   3.919   6.730
 5622SOL     OW17752   2.303   4.157   6.122
 5622SOL    HW117753   2.326   4.087   6.062
 5622SOL    HW217754   2.248   4.115   6.189
 5623SOL     OW17755   2.186   4.264   6.881
 5623SOL    HW117756   2.243   4.209   6.935
 5623SOL    HW217757   2.205   4.238   6.791
 5624SOL     OW17758   3.293   3.948   6.704
 5624SOL    HW117759   3.319   3.869   6.751
 5624SOL    HW217760   3.242   3.998   6.767
 5625SOL     OW17761   2.871   3.743   6.728
 5625SOL    HW117762   2.816   3.675   6.690
 5625SOL    HW217763   2.959   3.705   6.730
 5626SOL     OW17764   3.215   3.777   5.751
 5626SOL    HW117765   3.243   3.713   5.686
 5626SOL    HW217766   3.127   3.748   5.777
 5627SOL     OW17767   3.161   4.175   6.267
 5627SOL    HW117768   3.126   4.263   6.281
 5627SOL    HW217769   3.160   4.134   6.353
 5628SOL     OW17770   3.448   3.926   6.463
 5628SOL    HW117771   3.388   3.948   6.535
 5628SOL    HW217772   3.449   4.004   6.408
 5629SOL     OW17773   2.086   4.286   7.572
 5629SOL    HW117774   2.035   4.358   7.609
 5629SOL    HW217775   2.078   4.297   7.477
 5630SOL     OW17776   2.086   4.001   8.439
 5630SOL    HW117777   2.114   3.967   8.524
 5630SOL    HW217778   1.996   3.970   8.429
 5631SOL     OW17779   1.866   4.100   8.091
 5631SOL    HW117780   1.785   4.131   8.130
 5631SOL    HW217781   1.841   4.023   8.040
 5632SOL     OW17782   3.592   4.335   7.686
 5632SOL    HW117783   3.592   4.322   7.591
 5632SOL    HW217784   3.593   4.246   7.722
 5633SOL     OW17785   2.592   0.272   8.136
 5633SOL    HW117786   2.582   0.208   8.206
 5633SOL    HW217787   2.504   0.284   8.100
 5634SOL     OW17788   2.311   4.115   8.932
 5634SOL    HW117789   2.388   4.058   8.940
 5634SOL    HW217790   2.237   4.058   8.950
 5635SOL     OW17791   3.477   4.172   8.188
 5635SOL    HW117792   3.408   4.197   8.126
 5635SOL    HW217793   3.475   4.240   8.255
 5636SOL     OW17794   3.458   3.847   8.916
 5636SOL    HW117795   3.465   3.928   8.865
 5636SOL    HW217796   3.443   3.877   9.006
 5637SOL     OW17797   1.935   4.375   8.020
 5637SOL    HW117798   1.930   4.281   8.039
 5637SOL    HW217799   2.006   4.407   8.076
 5638SOL     OW17800   1.981   4.476   9.032
 5638SOL    HW117801   2.049   4.494   9.097
 5638SOL    HW217802   1.949   0.062   9.006
 5639SOL     OW17803   2.677   3.725   7.956
 5639SOL    HW117804   2.717   3.810   7.937
 5639SOL    HW217805   2.583   3.744   7.965
 5640SOL     OW17806   2.196   3.974   9.260
 5640SOL    HW117807   2.235   4.060   9.275
 5640SOL    HW217808   2.105   3.984   9.287
 5641SOL     OW17809   3.139   4.073   8.380
 5641SOL    HW117810   3.050   4.040   8.391
 5641SOL    HW217811   3.191   4.021   8.442
 5642SOL     OW17812   2.690   4.304   8.896
 5642SOL    HW117813   2.650   4.309   8.982
 5642SOL    HW217814   2.623   4.265   8.840
 5643SOL     OW17815   3.257   4.200   9.124
 5643SOL    HW117816   3.260   4.244   9.209
 5643SOL    HW217817   3.315   4.124   9.135
 5644SOL     OW17818   2.860   4.150   8.681
 5644SOL    HW117819   2.787   4.173   8.740
 5644SOL    HW217820   2.820   4.092   8.616
 5645SOL     OW17821   2.918   4.410   7.865
 5645SOL    HW117822   2.915   4.453   7.951
 5645SOL    HW217823   2.831   4.371   7.855
 5646SOL     OW17824   2.754   4.065   7.637
 5646SOL    HW117825   2.795   4.128   7.578
 5646SOL    HW217826   2.772   3.979   7.598
 5647SOL     OW17827   3.571   4.298   9.277
 5647SOL    HW117828   3.583   4.386   9.242
 5647SOL    HW217829   3.592   4.240   9.205
 5648SOL     OW17830   2.412   3.905   8.340
 5648SOL    HW117831   2.414   3.933   8.432
 5648SOL    HW217832   2.411   3.986   8.290
 5649SOL     OW17833   3.353   4.466   8.186
 5649SOL    HW117834   3.336   4.410   8.263
 5649SOL    HW217835   3.393   0.045   8.222
 5650SOL     OW17836   2.061   4.003   8.951
 5650SOL    HW117837   1.976   4.048   8.945
 5650SOL    HW217838   2.045   3.932   9.013
 5651SOL     OW17839   3.263   3.830   7.881
 5651SOL    HW117840   3.254   3.806   7.789
 5651SOL    HW217841   3.357   3.839   7.894
 5652SOL     OW17842   2.216   4.388   7.855
 5652SOL    HW117843   2.254   4.312   7.899
 5652SOL    HW217844   2.146   4.417   7.913
 5653SOL     OW17845   3.397   3.950   9.173
 5653SOL    HW117846   3.406   3.971   9.266
 5653SOL    HW217847   3.328   3.883   9.170
 5654SOL     OW17848   2.497   3.847   7.553
 5654SOL    HW117849   2.565   3.781   7.566
 5654SOL    HW217850   2.447   3.815   7.477
 5655SOL     OW17851   2.627   4.002   9.202
 5655SOL    HW117852   2.704   3.945   9.202
 5655SOL    HW217853   2.579   3.978   9.282
 5656SOL     OW17854   3.204   4.312   8.877
 5656SOL    HW117855   3.227   4.275   8.963
 5656SOL    HW217856   3.248   4.397   8.876
 5657SOL     OW17857   2.786   4.236   8.345
 5657SOL    HW117858   2.763   4.219   8.254
 5657SOL    HW217859   2.825   4.154   8.375
 5658SOL     OW17860   2.411   3.787   7.950
 5658SOL    HW117861   2.331   3.787   8.002
 5658SOL    HW217862   2.404   3.866   7.895
 5659SOL     OW17863   2.153   3.772   7.633
 5659SOL    HW117864   2.212   3.836   7.593
 5659SOL    HW217865   2.212   3.708   7.674
 5660SOL     OW17866   2.800   3.972   7.909
 5660SOL    HW117867   2.774   4.010   7.825
 5660SOL    HW217868   2.895   3.985   7.912
 5661SOL     OW17869   2.937   4.395   8.973
 5661SOL    HW117870   2.854   4.366   8.936
 5661SOL    HW217871   3.003   4.357   8.915
 5662SOL     OW17872   2.886   4.266   7.475
 5662SOL    HW117873   2.871   4.353   7.439
 5662SOL    HW217874   2.950   4.280   7.545
 5663SOL     OW17875   1.938   4.280   8.841
 5663SOL    HW117876   2.029   4.272   8.814
 5663SOL    HW217877   1.938   4.354   8.903
 5664SOL     OW17878   2.421   3.950   8.612
 5664SOL    HW117879   2.463   3.875   8.654
 5664SOL    HW217880   2.330   3.947   8.643
 5665SOL     OW17881   2.731   4.189   8.084
 5665SOL    HW117882   2.698   4.249   8.017
 5665SOL    HW217883   2.750   4.108   8.037
 5666SOL     OW17884   2.876   3.777   8.199
 5666SOL    HW117885   2.819   3.769   8.124
 5666SOL    HW217886   2.855   3.702   8.254
 5667SOL     OW17887   3.339   4.311   8.412
 5667SOL    HW117888   3.279   4.239   8.432
 5667SOL    HW217889   3.390   4.323   8.492
 5668SOL     OW17890   3.265   4.295   7.521
 5668SOL    HW117891   3.202   4.268   7.588
 5668SOL    HW217892   3.347   4.254   7.547
 5669SOL     OW17893   2.387   3.988   7.766
 5669SOL    HW117894   2.430   3.939   7.696
 5669SOL    HW217895   2.370   4.074   7.728
 5670SOL     OW17896   2.780   3.821   8.844
 5670SOL    HW117897   2.804   3.801   8.753
 5670SOL    HW217898   2.859   3.860   8.881
 5671SOL     OW17899   2.297   0.009   8.725
 5671SOL    HW117900   2.365   0.001   8.792
 5671SOL    HW217901   2.254   4.424   8.725
 5672SOL     OW17902   3.127   4.099   8.723
 5672SOL    HW117903   3.161   4.177   8.768
 5672SOL    HW217904   3.038   4.123   8.698
 5673SOL     OW17905   2.415   4.253   8.313
 5673SOL    HW117906   2.435   4.294   8.229
 5673SOL    HW217907   2.480   4.289   8.373
 5674SOL     OW17908   3.430   4.338   7.926
 5674SOL    HW117909   3.404   4.403   7.991
 5674SOL    HW217910   3.491   4.384   7.869
 5675SOL     OW17911   2.858   3.848   9.203
 5675SOL    HW117912   2.914   3.920   9.177
 5675SOL    HW217913   2.906   3.769   9.178
 5676SOL     OW17914   2.360   3.764   9.196
 5676SOL    HW117915   2.316   3.710   9.130
 5676SOL    HW217916   2.301   3.839   9.208
 5677SOL     OW17917   3.072   4.254   7.711
 5677SOL    HW117918   3.082   4.174   7.764
 5677SOL    HW217919   3.023   4.314   7.768
 5678SOL     OW17920   2.161   3.922   8.695
 5678SOL    HW117921   2.123   3.955   8.776
 5678SOL    HW217922   2.142   3.828   8.695
 5679SOL     OW17923   2.594   4.360   8.491
 5679SOL    HW117924   2.668   4.323   8.442
 5679SOL    HW217925   2.604   4.455   8.482
 5680SOL     OW17926   3.614   0.133   9.302
 5680SOL    HW117927   3.547   0.148   9.234
 5680SOL    HW217928   3.571   0.157   9.384
 5681SOL     OW17929   2.166   3.789   8.071
 5681SOL    HW117930   2.145   3.879   8.094
 5681SOL    HW217931   2.172   3.743   8.155
 5682SOL     OW17932   3.476   4.091   7.816
 5682SOL    HW117933   3.506   4.030   7.883
 5682SOL    HW217934   3.452   4.170   7.863
 5683SOL     OW17935   3.388   3.999   7.575
 5683SOL    HW117936   3.325   3.932   7.601
 5683SOL    HW217937   3.423   4.032   7.657
 5684SOL     OW17938   2.181   0.012   8.368
 5684SOL    HW117939   2.257   0.069   8.379
 5684SOL    HW217940   2.195   4.440   8.428
 5685SOL     OW17941   2.198   4.240   8.470
 5685SOL    HW117942   2.159   4.155   8.450
 5685SOL    HW217943   2.273   4.247   8.410
 5686SOL     OW17944   2.999   4.092   9.134
 5686SOL    HW117945   2.946   4.152   9.187
 5686SOL    HW217946   3.083   4.137   9.125
 5687SOL     OW17947   3.022   3.926   8.917
 5687SOL    HW117948   3.013   3.987   8.990
 5687SOL    HW217949   3.063   3.978   8.848
 5688SOL     OW17950   1.898   4.272   8.564
 5688SOL    HW117951   1.979   4.257   8.515
 5688SOL    HW217952   1.925   4.274   8.655
 5689SOL     OW17953   2.055   4.244   9.165
 5689SOL    HW117954   2.111   4.198   9.102
 5689SOL    HW217955   2.003   4.303   9.111
 5690SOL     OW17956   2.681   4.280   7.801
 5690SOL    HW117957   2.683   4.207   7.739
 5690SOL    HW217958   2.595   4.319   7.788
 5691SOL     OW17959   3.498   4.317   8.634
 5691SOL    HW117960   3.494   4.259   8.710
 5691SOL    HW217961   3.586   4.304   8.599
 5692SOL     OW17962   2.547   4.182   8.701
 5692SOL    HW117963   2.501   4.105   8.670
 5692SOL    HW217964   2.549   4.241   8.626
 5693SOL     OW17965   2.342   4.223   7.638
 5693SOL    HW117966   2.373   4.311   7.661
 5693SOL    HW217967   2.248   4.233   7.625
 5694SOL     OW17968   3.582   3.870   7.959
 5694SOL    HW117969   3.654   3.855   7.898
 5694SOL    HW217970   3.566   3.784   7.998
 5695SOL     OW17971   3.141   0.136   8.127
 5695SOL    HW117972   3.199   0.061   8.139
 5695SOL    HW217973   3.192   0.197   8.073
 5696SOL     OW17974   3.702   3.896   8.416
 5696SOL    HW117975   3.731   3.809   8.387
 5696SOL    HW217976   3.616   3.907   8.375
 5697SOL     OW17977   2.124   4.041   8.166
 5697SOL    HW117978   2.036   4.071   8.141
 5697SOL    HW217979   2.120   4.030   8.261
 5698SOL     OW17980   2.768   0.090   7.663
 5698SOL    HW117981   2.849   0.129   7.632
 5698SOL    HW217982   2.791   0.055   7.750
 5699SOL     OW17983   2.928   0.298   8.191
 5699SOL    HW117984   2.852   0.286   8.133
 5699SOL    HW217985   2.992   0.234   8.160
 5700SOL     OW17986   2.882   3.964   8.413
 5700SOL    HW117987   2.878   3.915   8.330
 5700SOL    HW217988   2.878   3.897   8.481
 5701SOL     OW17989   3.584   4.114   8.828
 5701SOL    HW117990   3.655   4.178   8.825
 5701SOL    HW217991   3.613   4.043   8.771
 5702SOL     OW17992   2.536   3.919   8.948
 5702SOL    HW117993   2.621   3.900   8.906
 5702SOL    HW217994   2.559   3.952   9.035
 5703SOL     OW17995   1.937   4.041   7.477
 5703SOL    HW117996   1.850   4.036   7.436
 5703SOL    HW217997   1.969   4.128   7.453
 5704SOL     OW17998   1.930   3.880   7.758
 5704SOL    HW117999   1.915   3.959   7.707
 5704SOL    HW218000   2.015   3.847   7.728
 5705SOL     OW18001   2.592   4.285   9.149
 5705SOL    HW118002   2.591   4.330   9.233
 5705SOL    HW218003   2.609   4.193   9.171
 5706SOL     OW18004   3.080   4.042   7.902
 5706SOL    HW118005   3.142   3.970   7.894
 5706SOL    HW218006   3.108   4.090   7.980
 5707SOL     OW18007   3.621   4.091   9.097
 5707SOL    HW118008   3.605   4.102   9.003
 5707SOL    HW218009   3.552   4.032   9.127
 5708SOL     OW18010   2.973   0.227   7.550
 5708SOL    HW118011   2.960   0.270   7.466
 5708SOL    HW218012   3.058   0.184   7.542
 5709SOL     OW18013   3.676   3.907   8.686
 5709SOL    HW118014   3.684   3.813   8.699
 5709SOL    HW218015   3.684   3.919   8.592
 5710SOL     OW18016   2.303   4.157   7.984
 5710SOL    HW118017   2.326   4.087   7.924
 5710SOL    HW218018   2.248   4.115   8.051
 5711SOL     OW18019   2.186   4.264   8.743
 5711SOL    HW118020   2.243   4.209   8.797
 5711SOL    HW218021   2.206   4.238   8.653
 5712SOL     OW18022   3.294   3.949   8.565
 5712SOL    HW118023   3.318   3.868   8.611
 5712SOL    HW218024   3.242   3.998   8.629
 5713SOL     OW18025   2.871   3.743   8.590
 5713SOL    HW118026   2.817   3.675   8.550
 5713SOL    HW218027   2.959   3.705   8.592
 5714SOL     OW18028   3.215   3.777   7.613
 5714SOL    HW118029   3.243   3.713   7.548
 5714SOL    HW218030   3.127   3.748   7.639
 5715SOL     OW18031   3.161   4.175   8.129
 5715SOL    HW118032   3.125   4.263   8.143
 5715SOL    HW218033   3.160   4.134   8.215
 5716SOL     OW18034   3.448   3.926   8.325
 5716SOL    HW118035   3.389   3.948   8.397
 5716SOL    HW218036   3.449   4.004   8.270
 5717SOL     OW18037   2.086   4.285   9.434
 5717SOL    HW118038   2.035   4.358   9.471
 5717SOL    HW218039   2.078   4.297   9.339
 5718SOL     OW18040   2.087   4.000  10.300
 5718SOL    HW118041   2.114   3.968  10.386
 5718SOL    HW218042   1.996   3.970  10.291
 5719SOL     OW18043   1.866   4.100   9.953
 5719SOL    HW118044   1.785   4.131   9.992
 5719SOL    HW218045   1.841   4.023   9.902
 5720SOL     OW18046   3.592   4.335   9.548
 5720SOL    HW118047   3.592   4.322   9.453
 5720SOL    HW218048   3.593   4.246   9.583
 5721SOL     OW18049   2.592   0.272   9.998
 5721SOL    HW118050   2.582   0.209  10.068
 5721SOL    HW218051   2.504   0.284   9.962
 5722SOL     OW18052   2.317   4.117  10.791
 5722SOL    HW118053   2.386   4.052  10.797
 5722SOL    HW218054   2.237   4.070  10.815
 5723SOL     OW18055   3.477   4.172  10.050
 5723SOL    HW118056   3.408   4.197   9.988
 5723SOL    HW218057   3.476   4.241  10.116
 5724SOL     OW18058   3.451   3.841  10.778
 5724SOL    HW118059   3.467   3.921  10.728
 5724SOL    HW218060   3.452   3.868  10.869
 5725SOL     OW18061   1.935   4.375   9.882
 5725SOL    HW118062   1.930   4.281   9.901
 5725SOL    HW218063   2.006   4.407   9.938
 5726SOL     OW18064   1.993   4.460  10.904
 5726SOL    HW118065   2.088   4.464  10.906
 5726SOL    HW218066   1.965   0.051  10.894
 5727SOL     OW18067   2.677   3.725   9.818
 5727SOL    HW118068   2.717   3.810   9.800
 5727SOL    HW218069   2.583   3.744   9.828
 5728SOL     OW18070   2.206   3.977   0.019
 5728SOL    HW118071   2.248   4.062   0.035
 5728SOL    HW218072   2.113   3.994   0.032
 5729SOL     OW18073   3.139   4.074  10.243
 5729SOL    HW118074   3.050   4.040  10.253
 5729SOL    HW218075   3.191   4.021  10.304
 5730SOL     OW18076   2.687   4.301  10.764
 5730SOL    HW118077   2.639   4.315  10.846
 5730SOL    HW218078   2.622   4.262  10.705
 5731SOL     OW18079   2.859   4.149  10.545
 5731SOL    HW118080   2.784   4.171  10.599
 5731SOL    HW218081   2.824   4.093  10.476
 5732SOL     OW18082   2.918   4.410   9.727
 5732SOL    HW118083   2.915   4.453   9.813
 5732SOL    HW218084   2.831   4.371   9.717
 5733SOL     OW18085   2.754   4.065   9.499
 5733SOL    HW118086   2.795   4.128   9.440
 5733SOL    HW218087   2.772   3.979   9.460
 5734SOL     OW18088   2.413   3.905  10.203
 5734SOL    HW118089   2.414   3.933  10.295
 5734SOL    HW218090   2.411   3.986  10.153
 5735SOL     OW18091   3.353   4.466  10.049
 5735SOL    HW118092   3.336   4.411  10.125
 5735SOL    HW218093   3.393   0.045  10.084
 5736SOL     OW18094   2.065   4.002  10.807
 5736SOL    HW118095   1.985   4.055  10.809
 5736SOL    HW218096   2.052   3.937  10.876
 5737SOL     OW18097   3.263   3.830   9.743
 5737SOL    HW118098   3.254   3.806   9.651
 5737SOL    HW218099   3.357   3.839   9.756
 5738SOL     OW18100   2.216   4.388   9.717
 5738SOL    HW118101   2.254   4.312   9.761
 5738SOL    HW218102   2.146   4.417   9.775
 5739SOL     OW18103   2.497   3.847   9.415
 5739SOL    HW118104   2.565   3.781   9.428
 5739SOL    HW218105   2.447   3.815   9.339
 5740SOL     OW18106   2.627   4.004  11.046
 5740SOL    HW118107   2.694   3.945  11.082
 5740SOL    HW218108   2.567   4.018   0.019
 5741SOL     OW18109   3.214   4.309  10.743
 5741SOL    HW118110   3.232   4.291  10.835
 5741SOL    HW218111   3.241   4.400  10.730
 5742SOL     OW18112   2.786   4.236  10.207
 5742SOL    HW118113   2.763   4.220  10.116
 5742SOL    HW218114   2.824   4.153  10.237
 5743SOL     OW18115   2.411   3.787   9.812
 5743SOL    HW118116   2.331   3.787   9.864
 5743SOL    HW218117   2.404   3.866   9.757
 5744SOL     OW18118   2.153   3.771   9.495
 5744SOL    HW118119   2.212   3.836   9.455
 5744SOL    HW218120   2.212   3.708   9.536
 5745SOL     OW18121   2.800   3.972   9.770
 5745SOL    HW118122   2.774   4.010   9.687
 5745SOL    HW218123   2.895   3.985   9.774
 5746SOL     OW18124   2.941   4.375  10.830
 5746SOL    HW118125   2.853   4.362  10.793
 5746SOL    HW218126   3.000   4.348  10.760
 5747SOL     OW18127   2.886   4.266   9.337
 5747SOL    HW118128   2.871   4.353   9.301
 5747SOL    HW218129   2.950   4.280   9.407
 5748SOL     OW18130   1.936   4.279  10.707
 5748SOL    HW118131   2.027   4.272  10.678
 5748SOL    HW218132   1.938   4.340  10.781
 5749SOL     OW18133   2.420   3.950  10.475
 5749SOL    HW118134   2.461   3.874  10.516
 5749SOL    HW218135   2.330   3.949  10.505
 5750SOL     OW18136   2.731   4.190   9.946
 5750SOL    HW118137   2.697   4.249   9.879
 5750SOL    HW218138   2.750   4.108   9.899
 5751SOL     OW18139   2.876   3.778  10.062
 5751SOL    HW118140   2.819   3.770   9.986
 5751SOL    HW218141   2.855   3.702  10.116
 5752SOL     OW18142   3.339   4.311  10.274
 5752SOL    HW118143   3.279   4.239  10.293
 5752SOL    HW218144   3.389   4.323  10.354
 5753SOL     OW18145   3.265   4.296   9.383
 5753SOL    HW118146   3.202   4.268   9.450
 5753SOL    HW218147   3.347   4.254   9.409
 5754SOL     OW18148   2.387   3.988   9.628
 5754SOL    HW118149   2.430   3.939   9.558
 5754SOL    HW218150   2.370   4.074   9.590
 5755SOL     OW18151   2.781   3.823  10.705
 5755SOL    HW118152   2.804   3.802  10.614
 5755SOL    HW218153   2.859   3.863  10.742
 5756SOL     OW18154   2.299   0.006  10.578
 5756SOL    HW118155   2.357   0.005  10.654
 5756SOL    HW218156   2.251   4.423  10.583
 5757SOL     OW18157   3.128   4.099  10.587
 5757SOL    HW118158   3.163   4.176  10.631
 5757SOL    HW218159   3.039   4.124  10.562
 5758SOL     OW18160   2.416   4.251  10.175
 5758SOL    HW118161   2.434   4.294  10.091
 5758SOL    HW218162   2.480   4.289  10.235
 5759SOL     OW18163   3.430   4.338   9.788
 5759SOL    HW118164   3.404   4.404   9.853
 5759SOL    HW218165   3.491   4.384   9.730
 5760SOL     OW18166   2.268   4.462  10.905
 5760SOL    HW118167   2.333   0.031  10.891
 5760SOL    HW218168   2.320   4.383  10.918
 5761SOL     OW18169   3.072   4.254   9.573
 5761SOL    HW118170   3.082   4.174   9.626
 5761SOL    HW218171   3.023   4.314   9.630
 5762SOL     OW18172   2.161   3.923  10.555
 5762SOL    HW118173   2.126   3.956  10.638
 5762SOL    HW218174   2.141   3.829  10.557
 5763SOL     OW18175   2.594   4.361  10.353
 5763SOL    HW118176   2.668   4.324  10.303
 5763SOL    HW218177   2.603   4.455  10.342
 5764SOL     OW18178   2.166   3.789   9.933
 5764SOL    HW118179   2.145   3.879   9.956
 5764SOL    HW218180   2.172   3.743  10.017
 5765SOL     OW18181   3.476   4.091   9.678
 5765SOL    HW118182   3.506   4.030   9.745
 5765SOL    HW218183   3.452   4.170   9.725
 5766SOL     OW18184   3.388   3.999   9.437
 5766SOL    HW118185   3.325   3.932   9.463
 5766SOL    HW218186   3.423   4.032   9.519
 5767SOL     OW18187   2.181   0.012  10.229
 5767SOL    HW118188   2.257   0.069  10.242
 5767SOL    HW218189   2.194   4.440  10.291
 5768SOL     OW18190   2.198   4.240  10.331
 5768SOL    HW118191   2.159   4.154  10.312
 5768SOL    HW218192   2.272   4.246  10.271
 5769SOL     OW18193   3.019   3.931  10.782
 5769SOL    HW118194   3.027   3.991  10.857
 5769SOL    HW218195   3.060   3.978  10.709
 5770SOL     OW18196   1.899   4.274  10.427
 5770SOL    HW118197   1.980   4.258  10.380
 5770SOL    HW218198   1.924   4.276  10.519
 5771SOL     OW18199   3.208   0.193  10.989
 5771SOL    HW118200   3.279   0.255  11.007
 5771SOL    HW218201   3.231   0.155  10.904
 5772SOL     OW18202   2.681   4.280   9.663
 5772SOL    HW118203   2.684   4.207   9.600
 5772SOL    HW218204   2.595   4.319   9.650
 5773SOL     OW18205   3.498   4.317  10.496
 5773SOL    HW118206   3.495   4.258  10.571
 5773SOL    HW218207   3.586   4.306  10.461
 5774SOL     OW18208   2.553   4.181  10.563
 5774SOL    HW118209   2.503   4.105  10.534
 5774SOL    HW218210   2.550   4.241  10.489
 5775SOL     OW18211   2.342   4.223   9.500
 5775SOL    HW118212   2.373   4.311   9.523
 5775SOL    HW218213   2.248   4.233   9.487
 5776SOL     OW18214   3.582   3.870   9.821
 5776SOL    HW118215   3.654   3.855   9.760
 5776SOL    HW218216   3.566   3.784   9.860
 5777SOL     OW18217   3.142   0.136   9.989
 5777SOL    HW118218   3.199   0.061  10.002
 5777SOL    HW218219   3.192   0.197   9.935
 5778SOL     OW18220   3.702   3.896  10.278
 5778SOL    HW118221   3.731   3.809  10.250
 5778SOL    HW218222   3.616   3.907  10.237
 5779SOL     OW18223   2.124   4.041  10.027
 5779SOL    HW118224   2.036   4.071  10.003
 5779SOL    HW218225   2.120   4.030  10.122
 5780SOL     OW18226   2.768   0.090   9.526
 5780SOL    HW118227   2.849   0.130   9.494
 5780SOL    HW218228   2.791   0.054   9.612
 5781SOL     OW18229   2.928   0.298  10.053
 5781SOL    HW118230   2.853   0.287   9.995
 5781SOL    HW218231   2.992   0.234  10.022
 5782SOL     OW18232   2.882   3.964  10.275
 5782SOL    HW118233   2.878   3.916  10.193
 5782SOL    HW218234   2.878   3.897  10.343
 5783SOL     OW18235   3.580   4.116  10.691
 5783SOL    HW118236   3.652   4.179  10.692
 5783SOL    HW218237   3.611   4.045  10.634
 5784SOL     OW18238   2.536   3.916  10.803
 5784SOL    HW118239   2.619   3.897  10.759
 5784SOL    HW218240   2.563   3.955  10.887
 5785SOL     OW18241   1.937   4.041   9.339
 5785SOL    HW118242   1.850   4.036   9.298
 5785SOL    HW218243   1.969   4.128   9.315
 5786SOL     OW18244   1.930   3.880   9.620
 5786SOL    HW118245   1.915   3.959   9.569
 5786SOL    HW218246   2.015   3.847   9.590
 5787SOL     OW18247   2.581   4.299  11.024
 5787SOL    HW118248   2.625   4.344  11.097
 5787SOL    HW218249   2.617   4.210  11.025
 5788SOL     OW18250   3.080   4.042   9.764
 5788SOL    HW118251   3.142   3.970   9.756
 5788SOL    HW218252   3.108   4.090   9.842
 5789SOL     OW18253   3.615   4.052  10.957
 5789SOL    HW118254   3.593   4.081  10.869
 5789SOL    HW218255   3.532   4.058  11.005
 5790SOL     OW18256   2.974   0.227   9.412
 5790SOL    HW118257   2.960   0.270   9.327
 5790SOL    HW218258   3.059   0.184   9.404
 5791SOL     OW18259   3.672   3.907  10.549
 5791SOL    HW118260   3.682   3.813  10.561
 5791SOL    HW218261   3.682   3.920  10.455
 5792SOL     OW18262   2.303   4.157   9.846
 5792SOL    HW118263   2.326   4.087   9.786
 5792SOL    HW218264   2.248   4.115   9.913
 5793SOL     OW18265   2.183   4.264  10.604
 5793SOL    HW118266   2.240   4.210  10.659
 5793SOL    HW218267   2.204   4.237  10.515
 5794SOL     OW18268   3.293   3.948  10.427
 5794SOL    HW118269   3.321   3.869  10.473
 5794SOL    HW218270   3.242   3.997  10.492
 5795SOL     OW18271   2.871   3.743  10.453
 5795SOL    HW118272   2.817   3.676  10.411
 5795SOL    HW218273   2.959   3.705  10.454
 5796SOL     OW18274   3.215   3.777   9.475
 5796SOL    HW118275   3.243   3.713   9.410
 5796SOL    HW218276   3.127   3.748   9.501
 5797SOL     OW18277   3.161   4.175   9.991
 5797SOL    HW118278   3.125   4.263  10.005
 5797SOL    HW218279   3.160   4.135  10.078
 5798SOL     OW18280   3.448   3.926  10.187
 5798SOL    HW118281   3.388   3.947  10.259
 5798SOL    HW218282   3.449   4.004  10.132
 5799SOL     OW18283   3.945   0.609   0.113
 5799SOL    HW118284   3.863   0.619   0.161
 5799SOL    HW218285   3.926   0.647   0.027
 5800SOL     OW18286   3.930   0.304   0.989
 5800SOL    HW118287   3.964   0.272   1.073
 5800SOL    HW218288   3.849   0.253   0.976
 5801SOL     OW18289   3.730   0.387   0.637
 5801SOL    HW118290   3.644   0.406   0.675
 5801SOL    HW218291   3.715   0.311   0.580
 5802SOL     OW18292   4.265   1.244   1.148
 5802SOL    HW118293   4.198   1.307   1.123
 5802SOL    HW218294   4.334   1.297   1.188
 5803SOL     OW18295   0.020   0.777   1.857
 5803SOL    HW118296   0.068   0.822   1.927
 5803SOL    HW218297   0.062   0.806   1.776
 5804SOL     OW18298   4.396   0.988   0.636
 5804SOL    HW118299   4.474   0.992   0.691
 5804SOL    HW218300   4.335   1.049   0.678
 5805SOL     OW18301   4.419   1.161   1.812
 5805SOL    HW118302   4.459   1.242   1.779
 5805SOL    HW218303   4.327   1.168   1.789
 5806SOL     OW18304   4.061   1.432   1.069
 5806SOL    HW118305   3.988   1.388   1.024
 5806SOL    HW218306   4.106   1.481   1.000
 5807SOL     OW18307   4.163   0.395   1.486
 5807SOL    HW118308   4.242   0.342   1.487
 5807SOL    HW218309   4.091   0.333   1.499
 5808SOL     OW18310   3.941   1.713   0.475
 5808SOL    HW118311   3.962   1.791   0.527
 5808SOL    HW218312   4.013   1.708   0.411
 5809SOL     OW18313   3.951   1.441   0.532
 5809SOL    HW118314   3.935   1.535   0.536
 5809SOL    HW218315   3.892   1.404   0.598
 5810SOL     OW18316   3.976   1.088   0.886
 5810SOL    HW118317   3.979   1.004   0.931
 5810SOL    HW218318   3.924   1.144   0.945
 5811SOL     OW18319   4.361   1.798   1.455
 5811SOL    HW118320   4.274   1.764   1.478
 5811SOL    HW218321   4.350   1.893   1.455
 5812SOL     OW18322   4.298   1.006   0.139
 5812SOL    HW118323   4.312   1.074   0.072
 5812SOL    HW218324   4.379   1.005   0.189
 5813SOL     OW18325   3.838   0.652   0.560
 5813SOL    HW118326   3.808   0.564   0.583
 5813SOL    HW218327   3.830   0.702   0.641
 5814SOL     OW18328   3.771   1.601   0.120
 5814SOL    HW118329   3.742   1.513   0.143
 5814SOL    HW218330   3.744   1.656   0.193
 5815SOL     OW18331   3.845   0.744   1.584
 5815SOL    HW118332   3.936   0.772   1.593
 5815SOL    HW218333   3.795   0.826   1.590
 5816SOL     OW18334   4.309   1.388   0.738
 5816SOL    HW118335   4.274   1.299   0.741
 5816SOL    HW218336   4.311   1.409   0.645
 5817SOL     OW18337   0.015   0.006   0.500
 5817SOL    HW118338   0.047   0.074   0.440
 5817SOL    HW218339   4.428   0.036   0.525
 5818SOL     OW18340   3.912   0.964   1.273
 5818SOL    HW118341   3.997   0.926   1.255
 5818SOL    HW218342   3.850   0.913   1.221
 5819SOL     OW18343   4.039   0.251   1.784
 5819SOL    HW118344   4.100   0.318   1.813
 5819SOL    HW218345   3.965   0.259   1.844
 5820SOL     OW18346   4.308   0.716   0.269
 5820SOL    HW118347   4.330   0.794   0.217
 5820SOL    HW218348   4.246   0.748   0.335
 5821SOL     OW18349   3.813   0.821   0.775
 5821SOL    HW118350   3.893   0.814   0.826
 5821SOL    HW218351   3.770   0.900   0.810
 5822SOL     OW18352   3.853   1.848   1.578
 5822SOL    HW118353   3.853   1.828   1.671
 5822SOL    HW218354   3.762   1.838   1.551
 5823SOL     OW18355   4.243   0.204   0.896
 5823SOL    HW118356   4.283   0.220   0.981
 5823SOL    HW218357   4.261   0.284   0.846
 5824SOL     OW18358   4.082   1.813   0.864
 5824SOL    HW118359   4.132   1.731   0.871
 5824SOL    HW218360   4.148   1.882   0.874
 5825SOL     OW18361   4.040   0.960   0.276
 5825SOL    HW118362   4.120   0.984   0.228
 5825SOL    HW218363   4.014   0.876   0.238
 5826SOL     OW18364   4.177   1.251   1.735
 5826SOL    HW118365   4.151   1.264   1.643
 5826SOL    HW218366   4.097   1.262   1.785
 5827SOL     OW18367   3.912   0.269   1.513
 5827SOL    HW118368   3.845   0.336   1.496
 5827SOL    HW218369   3.924   0.271   1.608
 5828SOL     OW18370   4.191   1.732   0.327
 5828SOL    HW118371   4.224   1.795   0.391
 5828SOL    HW218372   4.264   1.719   0.266
 5829SOL     OW18373   3.980   1.793   1.232
 5829SOL    HW118374   4.027   1.722   1.276
 5829SOL    HW218375   3.966   1.761   1.143
 5830SOL     OW18376   4.108   0.693   0.475
 5830SOL    HW118377   4.135   0.602   0.488
 5830SOL    HW218378   4.015   0.695   0.498
 5831SOL     OW18379   4.344   0.130   0.104
 5831SOL    HW118380   4.429   0.097   0.134
 5831SOL    HW218381   4.323   0.076   0.028
 5832SOL     OW18382   0.022   1.419   0.910
 5832SOL    HW118383   0.079   1.470   0.853
 5832SOL    HW218384   4.445   1.400   0.856
 5833SOL     OW18385   4.273   0.110   0.539
 5833SOL    HW118386   4.188   0.075   0.568
 5833SOL    HW218387   4.253   0.158   0.459
 5834SOL     OW18388   4.010   0.054   0.201
 5834SOL    HW118389   4.076   0.107   0.156
 5834SOL    HW218390   4.059   0.008   0.269
 5835SOL     OW18391   0.324   0.677   1.460
 5835SOL    HW118392   0.256   0.613   1.438
 5835SOL    HW218393   0.406   0.629   1.449
 5836SOL     OW18394   4.192   1.145   0.735
 5836SOL    HW118395   4.123   1.126   0.799
 5836SOL    HW218396   4.150   1.131   0.650
 5837SOL     OW18397   3.807   0.550   1.395
 5837SOL    HW118398   3.898   0.554   1.364
 5837SOL    HW218399   3.800   0.622   1.458
 5838SOL     OW18400   4.296   0.237   1.159
 5838SOL    HW118401   4.303   0.144   1.182
 5838SOL    HW218402   4.209   0.263   1.190
 5839SOL     OW18403   4.237   1.399   0.191
 5839SOL    HW118404   4.152   1.386   0.232
 5839SOL    HW218405   4.222   1.380   0.098
 5840SOL     OW18406   4.242   0.266   0.317
 5840SOL    HW118407   4.285   0.214   0.249
 5840SOL    HW218408   4.222   0.349   0.275
 5841SOL     OW18409   4.141   0.814   1.250
 5841SOL    HW118410   4.208   0.824   1.317
 5841SOL    HW218411   4.106   0.726   1.263
 5842SOL     OW18412   3.794   1.573   1.353
 5842SOL    HW118413   3.762   1.644   1.298
 5842SOL    HW218414   3.889   1.579   1.346
 5843SOL     OW18415   4.068   1.119   0.496
 5843SOL    HW118416   4.069   1.192   0.435
 5843SOL    HW218417   4.064   1.041   0.441
 5844SOL     OW18418   4.304   0.538   0.862
 5844SOL    HW118419   4.302   0.604   0.793
 5844SOL    HW218420   4.366   0.571   0.926
 5845SOL     OW18421   4.072   1.535   1.315
 5845SOL    HW118422   4.066   1.491   1.231
 5845SOL    HW218423   4.165   1.535   1.336
 5846SOL     OW18424   4.138   0.740   1.605
 5846SOL    HW118425   4.195   0.786   1.544
 5846SOL    HW218426   4.185   0.659   1.626
 5847SOL     OW18427   4.239   0.071   1.725
 5847SOL    HW118428   4.207   4.486   1.697
 5847SOL    HW218429   4.160   0.123   1.741
 5848SOL     OW18430   4.289   0.891   1.026
 5848SOL    HW118431   4.317   0.982   1.040
 5848SOL    HW218432   4.243   0.867   1.106
 5849SOL     OW18433   4.014   0.237   1.241
 5849SOL    HW118434   3.970   0.249   1.324
 5849SOL    HW218435   4.053   0.149   1.246
 5850SOL     OW18436   3.770   1.311   1.277
 5850SOL    HW118437   3.803   1.256   1.348
 5850SOL    HW218438   3.776   1.400   1.311
 5851SOL     OW18439   4.018   0.057   0.655
 5851SOL    HW118440   4.007   0.152   0.658
 5851SOL    HW218441   4.029   0.031   0.747
 5852SOL     OW18442   4.076   0.916   1.808
 5852SOL    HW118443   4.158   0.930   1.856
 5852SOL    HW218444   4.099   0.851   1.741
 5853SOL     OW18445   4.031   0.809   0.946
 5853SOL    HW118446   4.122   0.838   0.946
 5853SOL    HW218447   4.034   0.718   0.977
 5854SOL     OW18448   4.069   0.532   1.010
 5854SOL    HW118449   4.025   0.450   0.991
 5854SOL    HW218450   4.148   0.531   0.955
 5855SOL     OW18451   3.732   1.327   0.194
 5855SOL    HW118452   3.645   1.339   0.156
 5855SOL    HW218453   3.732   1.237   0.226
 5856SOL     OW18454   3.816   1.787   0.939
 5856SOL    HW118455   3.786   1.708   0.895
 5856SOL    HW218456   3.906   1.800   0.907
 5857SOL     OW18457   4.232   1.584   0.906
 5857SOL    HW118458   4.318   1.614   0.935
 5857SOL    HW218459   4.251   1.514   0.843
 5858SOL     OW18460   3.757   0.544   1.118
 5858SOL    HW118461   3.832   0.519   1.064
 5858SOL    HW218462   3.791   0.547   1.207
 5859SOL     OW18463   3.909   0.519   1.721
 5859SOL    HW118464   3.985   0.501   1.666
 5859SOL    HW218465   3.867   0.595   1.680
 5860SOL     OW18466   0.025   0.542   0.265
 5860SOL    HW118467   0.019   0.491   0.345
 5860SOL    HW218468   4.462   0.613   0.276
 5861SOL     OW18469   3.969   1.553   1.727
 5861SOL    HW118470   3.943   1.617   1.794
 5861SOL    HW218471   3.967   1.469   1.773
 5862SOL     OW18472   4.187   0.489   0.174
 5862SOL    HW118473   4.244   0.560   0.204
 5862SOL    HW218474   4.101   0.529   0.164
 5863SOL     OW18475   3.870   1.140   1.473
 5863SOL    HW118476   3.871   1.089   1.553
 5863SOL    HW218477   3.886   1.076   1.403
 5864SOL     OW18478   3.809   1.269   1.013
 5864SOL    HW118479   3.793   1.280   1.106
 5864SOL    HW218480   3.738   1.213   0.983
 5865SOL     OW18481   4.389   1.651   1.700
 5865SOL    HW118482   4.355   1.736   1.728
 5865SOL    HW218483   4.427   1.668   1.614
 5866SOL     OW18484   3.861   1.797   1.843
 5866SOL    HW118485   3.810   1.732   1.892
 5866SOL    HW218486   3.908   1.845   1.911
 5867SOL     OW18487   3.988   0.326   0.716
 5867SOL    HW118488   3.901   0.357   0.691
 5867SOL    HW218489   3.984   0.315   0.811
 5868SOL     OW18490   4.087   1.308   1.491
 5868SOL    HW118491   4.068   1.383   1.434
 5868SOL    HW218492   4.015   1.247   1.475
 5869SOL     OW18493   4.325   1.490   0.481
 5869SOL    HW118494   4.343   1.434   0.405
 5869SOL    HW218495   4.256   1.550   0.451
 5870SOL     OW18496   3.991   1.341   0.288
 5870SOL    HW118497   3.903   1.342   0.250
 5870SOL    HW218498   3.979   1.380   0.375
 5871SOL     OW18499   3.836   1.024   1.720
 5871SOL    HW118500   3.760   0.999   1.772
 5871SOL    HW218501   3.910   0.985   1.767
 5872SOL     OW18502   4.368   0.205   1.489
 5872SOL    HW118503   4.459   0.225   1.466
 5872SOL    HW218504   4.372   0.173   1.579
 5873SOL     OW18505   3.800   0.340   0.054
 5873SOL    HW118506   3.726   0.310   0.002
 5873SOL    HW218507   3.817   0.429   0.024
 5874SOL     OW18508   3.790   0.182   0.324
 5874SOL    HW118509   3.784   0.248   0.254
 5874SOL    HW218510   3.860   0.124   0.296
 5875SOL     OW18511   4.338   0.840   1.436
 5875SOL    HW118512   4.377   0.926   1.419
 5875SOL    HW218513   4.413   0.784   1.456
 5876SOL     OW18514   4.396   0.560   1.733
 5876SOL    HW118515   4.419   0.634   1.789
 5876SOL    HW218516   4.479   0.521   1.707
 5877SOL     OW18517   4.107   1.739   1.561
 5877SOL    HW118518   4.022   1.781   1.547
 5877SOL    HW218519   4.087   1.658   1.607
 5878SOL     OW18520   4.310   0.728   0.666
 5878SOL    HW118521   4.350   0.814   0.657
 5878SOL    HW218522   4.239   0.727   0.601
 5879SOL     OW18523   3.943   1.307   1.854
 5879SOL    HW118524   3.878   1.242   1.826
 5879SOL    HW218525   3.927   1.317   1.948
 5880SOL     OW18526   3.809   1.233   0.666
 5880SOL    HW118527   3.814   1.184   0.748
 5880SOL    HW218528   3.879   1.197   0.612
 5881SOL     OW18529   4.418   1.386   1.662
 5881SOL    HW118530   4.328   1.354   1.654
 5881SOL    HW218531   4.409   1.480   1.676
 5882SOL     OW18532   4.164   0.433   0.531
 5882SOL    HW118533   4.182   0.362   0.469
 5882SOL    HW218534   4.108   0.394   0.598
 5883SOL     OW18535   4.054   0.557   1.289
 5883SOL    HW118536   4.106   0.498   1.343
 5883SOL    HW218537   4.073   0.530   1.199
 5884SOL     OW18538   0.035   1.600   0.687
 5884SOL    HW118539   0.064   1.661   0.620
 5884SOL    HW218540   4.465   1.549   0.645
 5885SOL     OW18541   3.766   1.070   0.301
 5885SOL    HW118542   3.862   1.065   0.297
 5885SOL    HW218543   3.738   0.983   0.326
 5886SOL     OW18544   3.954   0.626   1.982
 5886SOL    HW118545   3.867   0.619   2.022
 5886SOL    HW218546   3.941   0.595   1.893
 5887SOL     OW18547   3.929   0.304   2.851
 5887SOL    HW118548   3.964   0.273   2.935
 5887SOL    HW218549   3.849   0.253   2.838
 5888SOL     OW18550   3.731   0.388   2.500
 5888SOL    HW118551   3.644   0.406   2.536
 5888SOL    HW218552   3.717   0.313   2.441
 5889SOL     OW18553   4.266   1.244   3.007
 5889SOL    HW118554   4.198   1.307   2.985
 5889SOL    HW218555   4.334   1.297   3.050
 5890SOL     OW18556   0.020   0.777   3.719
 5890SOL    HW118557   0.068   0.822   3.788
 5890SOL    HW218558   0.062   0.806   3.638
 5891SOL     OW18559   4.398   0.990   2.497
 5891SOL    HW118560   4.473   0.986   2.557
 5891SOL    HW218561   4.337   1.050   2.540
 5892SOL     OW18562   4.419   1.161   3.674
 5892SOL    HW118563   4.458   1.242   3.641
 5892SOL    HW218564   4.327   1.168   3.651
 5893SOL     OW18565   4.061   1.432   2.931
 5893SOL    HW118566   3.988   1.388   2.886
 5893SOL    HW218567   4.106   1.480   2.862
 5894SOL     OW18568   4.163   0.395   3.348
 5894SOL    HW118569   4.242   0.341   3.349
 5894SOL    HW218570   4.091   0.333   3.361
 5895SOL     OW18571   3.942   1.714   2.335
 5895SOL    HW118572   3.963   1.791   2.389
 5895SOL    HW218573   4.017   1.706   2.276
 5896SOL     OW18574   3.954   1.441   2.396
 5896SOL    HW118575   3.935   1.535   2.402
 5896SOL    HW218576   3.895   1.401   2.460
 5897SOL     OW18577   3.976   1.088   2.748
 5897SOL    HW118578   3.980   1.003   2.792
 5897SOL    HW218579   3.924   1.143   2.807
 5898SOL     OW18580   4.361   1.798   3.317
 5898SOL    HW118581   4.274   1.764   3.340
 5898SOL    HW218582   4.350   1.893   3.317
 5899SOL     OW18583   4.309   0.986   2.001
 5899SOL    HW118584   4.340   1.038   1.926
 5899SOL    HW218585   4.377   0.998   2.067
 5900SOL     OW18586   3.840   0.653   2.422
 5900SOL    HW118587   3.810   0.565   2.444
 5900SOL    HW218588   3.831   0.702   2.504
 5901SOL     OW18589   3.757   1.595   1.986
 5901SOL    HW118590   3.738   1.503   2.005
 5901SOL    HW218591   3.732   1.642   2.065
 5902SOL     OW18592   3.845   0.744   3.446
 5902SOL    HW118593   3.936   0.772   3.455
 5902SOL    HW218594   3.795   0.826   3.453
 5903SOL     OW18595   4.309   1.388   2.600
 5903SOL    HW118596   4.274   1.299   2.603
 5903SOL    HW218597   4.311   1.409   2.506
 5904SOL     OW18598   0.018   0.016   2.373
 5904SOL    HW118599   0.048   0.078   2.306
 5904SOL    HW218600   4.428   0.043   2.392
 5905SOL     OW18601   3.912   0.965   3.135
 5905SOL    HW118602   3.997   0.926   3.117
 5905SOL    HW218603   3.850   0.913   3.083
 5906SOL     OW18604   4.039   0.251   3.646
 5906SOL    HW118605   4.100   0.318   3.675
 5906SOL    HW218606   3.965   0.259   3.706
 5907SOL     OW18607   4.312   0.728   2.132
 5907SOL    HW118608   4.308   0.806   2.077
 5907SOL    HW218609   4.245   0.741   2.199
 5908SOL     OW18610   3.812   0.821   2.638
 5908SOL    HW118611   3.893   0.813   2.688
 5908SOL    HW218612   3.770   0.900   2.672
 5909SOL     OW18613   3.853   1.849   3.440
 5909SOL    HW118614   3.853   1.828   3.533
 5909SOL    HW218615   3.762   1.838   3.413
 5910SOL     OW18616   4.241   0.203   2.759
 5910SOL    HW118617   4.283   0.220   2.843
 5910SOL    HW218618   4.261   0.280   2.706
 5911SOL     OW18619   4.082   1.813   2.725
 5911SOL    HW118620   4.132   1.731   2.733
 5911SOL    HW218621   4.148   1.882   2.736
 5912SOL     OW18622   4.042   0.958   2.112
 5912SOL    HW118623   4.125   0.977   2.068
 5912SOL    HW218624   4.012   0.876   2.074
 5913SOL     OW18625   4.177   1.252   3.596
 5913SOL    HW118626   4.151   1.264   3.505
 5913SOL    HW218627   4.097   1.262   3.647
 5914SOL     OW18628   3.911   0.269   3.375
 5914SOL    HW118629   3.845   0.336   3.358
 5914SOL    HW218630   3.924   0.271   3.470
 5915SOL     OW18631   4.191   1.735   2.187
 5915SOL    HW118632   4.224   1.795   2.254
 5915SOL    HW218633   4.261   1.731   2.121
 5916SOL     OW18634   3.980   1.793   3.094
 5916SOL    HW118635   4.026   1.722   3.139
 5916SOL    HW218636   3.966   1.760   3.005
 5917SOL     OW18637   4.112   0.693   2.334
 5917SOL    HW118638   4.136   0.602   2.349
 5917SOL    HW218639   4.018   0.697   2.355
 5918SOL     OW18640   4.327   0.120   1.979
 5918SOL    HW118641   4.412   0.078   1.990
 5918SOL    HW218642   4.302   0.101   1.889
 5919SOL     OW18643   0.021   1.420   2.773
 5919SOL    HW118644   0.080   1.468   2.715
 5919SOL    HW218645   4.444   1.401   2.718
 5920SOL     OW18646   4.271   0.109   2.402
 5920SOL    HW118647   4.187   0.069   2.423
 5920SOL    HW218648   4.254   0.161   2.323
 5921SOL     OW18649   4.024   0.071   2.062
 5921SOL    HW118650   4.103   0.120   2.043
 5921SOL    HW218651   4.052   0.000   2.119
 5922SOL     OW18652   0.324   0.676   3.323
 5922SOL    HW118653   0.256   0.613   3.300
 5922SOL    HW218654   0.406   0.629   3.311
 5923SOL     OW18655   4.190   1.145   2.594
 5923SOL    HW118656   4.122   1.126   2.658
 5923SOL    HW218657   4.149   1.128   2.509
 5924SOL     OW18658   3.807   0.549   3.257
 5924SOL    HW118659   3.898   0.554   3.226
 5924SOL    HW218660   3.800   0.622   3.320
 5925SOL     OW18661   4.297   0.238   3.023
 5925SOL    HW118662   4.304   0.144   3.043
 5925SOL    HW218663   4.209   0.263   3.052
 5926SOL     OW18664   4.231   1.386   2.035
 5926SOL    HW118665   4.146   1.372   2.076
 5926SOL    HW218666   4.210   1.401   1.943
 5927SOL     OW18667   4.243   0.271   2.185
 5927SOL    HW118668   4.284   0.215   2.119
 5927SOL    HW218669   4.223   0.352   2.139
 5928SOL     OW18670   4.141   0.814   3.112
 5928SOL    HW118671   4.208   0.824   3.179
 5928SOL    HW218672   4.106   0.726   3.124
 5929SOL     OW18673   3.794   1.573   3.216
 5929SOL    HW118674   3.762   1.644   3.160
 5929SOL    HW218675   3.889   1.578   3.208
 5930SOL     OW18676   4.069   1.110   2.351
 5930SOL    HW118677   4.071   1.182   2.289
 5930SOL    HW218678   4.068   1.031   2.297
 5931SOL     OW18679   4.303   0.539   2.725
 5931SOL    HW118680   4.301   0.604   2.655
 5931SOL    HW218681   4.367   0.572   2.788
 5932SOL     OW18682   4.072   1.535   3.178
 5932SOL    HW118683   4.066   1.491   3.093
 5932SOL    HW218684   4.165   1.535   3.199
 5933SOL     OW18685   4.138   0.740   3.467
 5933SOL    HW118686   4.195   0.786   3.406
 5933SOL    HW218687   4.185   0.659   3.488
 5934SOL     OW18688   4.239   0.071   3.588
 5934SOL    HW118689   4.206   4.486   3.558
 5934SOL    HW218690   4.161   0.123   3.603
 5935SOL     OW18691   4.290   0.892   2.888
 5935SOL    HW118692   4.317   0.982   2.904
 5935SOL    HW218693   4.243   0.867   2.968
 5936SOL     OW18694   4.015   0.237   3.103
 5936SOL    HW118695   3.970   0.248   3.186
 5936SOL    HW218696   4.053   0.150   3.107
 5937SOL     OW18697   3.772   1.311   3.138
 5937SOL    HW118698   3.803   1.256   3.210
 5937SOL    HW218699   3.776   1.400   3.173
 5938SOL     OW18700   4.012   0.053   2.519
 5938SOL    HW118701   4.006   0.149   2.519
 5938SOL    HW218702   4.026   0.030   2.611
 5939SOL     OW18703   4.077   0.916   3.670
 5939SOL    HW118704   4.158   0.930   3.718
 5939SOL    HW218705   4.099   0.851   3.603
 5940SOL     OW18706   4.031   0.809   2.808
 5940SOL    HW118707   4.122   0.837   2.808
 5940SOL    HW218708   4.034   0.718   2.839
 5941SOL     OW18709   4.069   0.533   2.872
 5941SOL    HW118710   4.025   0.450   2.852
 5941SOL    HW218711   4.147   0.532   2.817
 5942SOL     OW18712   3.729   1.321   2.057
 5942SOL    HW118713   3.642   1.335   2.020
 5942SOL    HW218714   3.727   1.231   2.091
 5943SOL     OW18715   3.816   1.787   2.801
 5943SOL    HW118716   3.786   1.708   2.757
 5943SOL    HW218717   3.906   1.800   2.769
 5944SOL     OW18718   4.232   1.584   2.767
 5944SOL    HW118719   4.318   1.613   2.798
 5944SOL    HW218720   4.251   1.514   2.705
 5945SOL     OW18721   3.756   0.544   2.980
 5945SOL    HW118722   3.831   0.518   2.926
 5945SOL    HW218723   3.791   0.547   3.069
 5946SOL     OW18724   3.909   0.519   3.583
 5946SOL    HW118725   3.985   0.501   3.528
 5946SOL    HW218726   3.867   0.595   3.542
 5947SOL     OW18727   0.028   0.549   2.124
 5947SOL    HW118728   0.021   0.491   2.200
 5947SOL    HW218729   4.462   0.616   2.139
 5948SOL     OW18730   3.970   1.553   3.590
 5948SOL    HW118731   3.942   1.616   3.656
 5948SOL    HW218732   3.967   1.469   3.635
 5949SOL     OW18733   4.190   0.495   2.046
 5949SOL    HW118734   4.248   0.567   2.067
 5949SOL    HW218735   4.104   0.535   2.033
 5950SOL     OW18736   3.870   1.140   3.335
 5950SOL    HW118737   3.871   1.088   3.415
 5950SOL    HW218738   3.886   1.076   3.265
 5951SOL     OW18739   3.809   1.270   2.874
 5951SOL    HW118740   3.794   1.280   2.968
 5951SOL    HW218741   3.738   1.213   2.844
 5952SOL     OW18742   4.389   1.651   3.563
 5952SOL    HW118743   4.354   1.736   3.590
 5952SOL    HW218744   4.427   1.668   3.476
 5953SOL     OW18745   3.861   1.797   3.705
 5953SOL    HW118746   3.810   1.732   3.753
 5953SOL    HW218747   3.908   1.845   3.773
 5954SOL     OW18748   3.988   0.324   2.578
 5954SOL    HW118749   3.901   0.358   2.554
 5954SOL    HW218750   3.985   0.315   2.673
 5955SOL     OW18751   4.088   1.307   3.352
 5955SOL    HW118752   4.068   1.383   3.297
 5955SOL    HW218753   4.015   1.247   3.337
 5956SOL     OW18754   4.326   1.490   2.342
 5956SOL    HW118755   4.343   1.431   2.269
 5956SOL    HW218756   4.259   1.550   2.309
 5957SOL     OW18757   3.984   1.349   2.149
 5957SOL    HW118758   3.891   1.345   2.126
 5957SOL    HW218759   3.986   1.385   2.237
 5958SOL     OW18760   3.836   1.024   3.582
 5958SOL    HW118761   3.760   0.999   3.634
 5958SOL    HW218762   3.910   0.985   3.629
 5959SOL     OW18763   4.368   0.205   3.351
 5959SOL    HW118764   4.459   0.225   3.328
 5959SOL    HW218765   4.373   0.174   3.441
 5960SOL     OW18766   3.805   0.338   1.910
 5960SOL    HW118767   3.735   0.284   1.874
 5960SOL    HW218768   3.818   0.407   1.845
 5961SOL     OW18769   3.788   0.183   2.180
 5961SOL    HW118770   3.787   0.250   2.111
 5961SOL    HW218771   3.864   0.129   2.159
 5962SOL     OW18772   4.339   0.840   3.298
 5962SOL    HW118773   4.377   0.926   3.282
 5962SOL    HW218774   4.413   0.784   3.319
 5963SOL     OW18775   4.396   0.560   3.595
 5963SOL    HW118776   4.419   0.634   3.650
 5963SOL    HW218777   4.480   0.521   3.569
 5964SOL     OW18778   4.107   1.739   3.423
 5964SOL    HW118779   4.022   1.781   3.409
 5964SOL    HW218780   4.087   1.658   3.469
 5965SOL     OW18781   4.309   0.730   2.529
 5965SOL    HW118782   4.350   0.815   2.517
 5965SOL    HW218783   4.240   0.727   2.463
 5966SOL     OW18784   3.943   1.306   3.716
 5966SOL    HW118785   3.878   1.242   3.688
 5966SOL    HW218786   3.927   1.318   3.810
 5967SOL     OW18787   3.809   1.234   2.527
 5967SOL    HW118788   3.813   1.185   2.610
 5967SOL    HW218789   3.877   1.193   2.473
 5968SOL     OW18790   4.418   1.386   3.523
 5968SOL    HW118791   4.328   1.354   3.517
 5968SOL    HW218792   4.409   1.480   3.538
 5969SOL     OW18793   4.165   0.435   2.396
 5969SOL    HW118794   4.184   0.367   2.332
 5969SOL    HW218795   4.109   0.393   2.460
 5970SOL     OW18796   4.054   0.557   3.151
 5970SOL    HW118797   4.106   0.498   3.205
 5970SOL    HW218798   4.073   0.530   3.061
 5971SOL     OW18799   0.036   1.600   2.548
 5971SOL    HW118800   0.060   1.663   2.480
 5971SOL    HW218801   4.467   1.548   2.509
 5972SOL     OW18802   3.768   1.071   2.168
 5972SOL    HW118803   3.862   1.061   2.150
 5972SOL    HW218804   3.739   0.982   2.191
 5973SOL     OW18805   3.954   0.626   3.844
 5973SOL    HW118806   3.867   0.619   3.885
 5973SOL    HW218807   3.941   0.595   3.755
 5974SOL     OW18808   3.929   0.304   4.713
 5974SOL    HW118809   3.964   0.273   4.797
 5974SOL    HW218810   3.849   0.253   4.700
 5975SOL     OW18811   3.731   0.387   4.362
 5975SOL    HW118812   3.644   0.406   4.398
 5975SOL    HW218813   3.716   0.313   4.303
 5976SOL     OW18814   4.267   1.244   4.868
 5976SOL    HW118815   4.197   1.306   4.846
 5976SOL    HW218816   4.333   1.298   4.912
 5977SOL     OW18817   0.020   0.777   5.581
 5977SOL    HW118818   0.068   0.822   5.651
 5977SOL    HW218819   0.062   0.806   5.500
 5978SOL     OW18820   4.399   0.991   4.359
 5978SOL    HW118821   4.472   0.984   4.420
 5978SOL    HW218822   4.337   1.050   4.402
 5979SOL     OW18823   4.419   1.161   5.536
 5979SOL    HW118824   4.458   1.242   5.503
 5979SOL    HW218825   4.327   1.168   5.513
 5980SOL     OW18826   4.061   1.431   4.793
 5980SOL    HW118827   3.988   1.388   4.749
 5980SOL    HW218828   4.105   1.480   4.723
 5981SOL     OW18829   4.163   0.395   5.210
 5981SOL    HW118830   4.242   0.341   5.211
 5981SOL    HW218831   4.091   0.333   5.223
 5982SOL     OW18832   3.942   1.715   4.197
 5982SOL    HW118833   3.963   1.791   4.251
 5982SOL    HW218834   4.017   1.706   4.138
 5983SOL     OW18835   3.955   1.441   4.259
 5983SOL    HW118836   3.935   1.535   4.264
 5983SOL    HW218837   3.896   1.400   4.322
 5984SOL     OW18838   3.977   1.088   4.611
 5984SOL    HW118839   3.979   1.003   4.655
 5984SOL    HW218840   3.924   1.144   4.668
 5985SOL     OW18841   4.361   1.798   5.180
 5985SOL    HW118842   4.274   1.764   5.202
 5985SOL    HW218843   4.350   1.893   5.179
 5986SOL     OW18844   4.309   0.986   3.862
 5986SOL    HW118845   4.340   1.037   3.788
 5986SOL    HW218846   4.377   0.998   3.929
 5987SOL     OW18847   3.840   0.653   4.284
 5987SOL    HW118848   3.810   0.565   4.306
 5987SOL    HW218849   3.831   0.702   4.365
 5988SOL     OW18850   3.758   1.594   3.847
 5988SOL    HW118851   3.738   1.503   3.867
 5988SOL    HW218852   3.733   1.642   3.927
 5989SOL     OW18853   3.845   0.744   5.309
 5989SOL    HW118854   3.936   0.772   5.317
 5989SOL    HW218855   3.794   0.826   5.313
 5990SOL     OW18856   4.310   1.388   4.462
 5990SOL    HW118857   4.274   1.299   4.465
 5990SOL    HW218858   4.311   1.409   4.368
 5991SOL     OW18859   0.018   0.016   4.235
 5991SOL    HW118860   0.048   0.078   4.168
 5991SOL    HW218861   4.428   0.042   4.254
 5992SOL     OW18862   3.912   0.964   4.998
 5992SOL    HW118863   3.997   0.925   4.979
 5992SOL    HW218864   3.850   0.915   4.945
 5993SOL     OW18865   4.039   0.251   5.508
 5993SOL    HW118866   4.100   0.318   5.537
 5993SOL    HW218867   3.965   0.259   5.568
 5994SOL     OW18868   4.312   0.728   3.995
 5994SOL    HW118869   4.308   0.806   3.939
 5994SOL    HW218870   4.245   0.741   4.061
 5995SOL     OW18871   3.812   0.821   4.499
 5995SOL    HW118872   3.893   0.814   4.551
 5995SOL    HW218873   3.769   0.899   4.534
 5996SOL     OW18874   3.854   1.849   5.302
 5996SOL    HW118875   3.853   1.828   5.395
 5996SOL    HW218876   3.763   1.838   5.274
 5997SOL     OW18877   4.242   0.203   4.621
 5997SOL    HW118878   4.284   0.220   4.705
 5997SOL    HW218879   4.261   0.280   4.568
 5998SOL     OW18880   4.082   1.813   4.587
 5998SOL    HW118881   4.132   1.731   4.595
 5998SOL    HW218882   4.148   1.882   4.598
 5999SOL     OW18883   4.042   0.959   3.975
 5999SOL    HW118884   4.125   0.977   3.930
 5999SOL    HW218885   4.012   0.876   3.937
 6000SOL     OW18886   4.177   1.252   5.458
 6000SOL    HW118887   4.151   1.264   5.367
 6000SOL    HW218888   4.097   1.262   5.508
 6001SOL     OW18889   3.911   0.269   5.237
 6001SOL    HW118890   3.845   0.336   5.220
 6001SOL    HW218891   3.924   0.271   5.332
 6002SOL     OW18892   4.191   1.735   4.049
 6002SOL    HW118893   4.224   1.795   4.115
 6002SOL    HW218894   4.261   1.731   3.983
 6003SOL     OW18895   3.983   1.794   4.955
 6003SOL    HW118896   4.027   1.721   5.000
 6003SOL    HW218897   3.964   1.760   4.868
 6004SOL     OW18898   4.112   0.693   4.196
 6004SOL    HW118899   4.136   0.602   4.212
 6004SOL    HW218900   4.019   0.697   4.217
 6005SOL     OW18901   4.327   0.120   3.841
 6005SOL    HW118902   4.412   0.078   3.852
 6005SOL    HW218903   4.302   0.101   3.751
 6006SOL     OW18904   0.021   1.421   4.635
 6006SOL    HW118905   0.080   1.468   4.576
 6006SOL    HW218906   4.444   1.402   4.581
 6007SOL     OW18907   4.271   0.109   4.264
 6007SOL    HW118908   4.187   0.070   4.286
 6007SOL    HW218909   4.254   0.160   4.185
 6008SOL     OW18910   4.024   0.070   3.923
 6008SOL    HW118911   4.103   0.120   3.905
 6008SOL    HW218912   4.053   0.000   3.982
 6009SOL     OW18913   0.324   0.676   5.185
 6009SOL    HW118914   0.255   0.614   5.163
 6009SOL    HW218915   0.406   0.628   5.173
 6010SOL     OW18916   4.191   1.145   4.456
 6010SOL    HW118917   4.122   1.126   4.520
 6010SOL    HW218918   4.149   1.128   4.371
 6011SOL     OW18919   3.807   0.549   5.120
 6011SOL    HW118920   3.898   0.554   5.088
 6011SOL    HW218921   3.800   0.622   5.182
 6012SOL     OW18922   4.297   0.238   4.884
 6012SOL    HW118923   4.303   0.144   4.905
 6012SOL    HW218924   4.209   0.263   4.914
 6013SOL     OW18925   4.231   1.386   3.897
 6013SOL    HW118926   4.146   1.372   3.939
 6013SOL    HW218927   4.210   1.401   3.805
 6014SOL     OW18928   4.243   0.271   4.047
 6014SOL    HW118929   4.284   0.215   3.981
 6014SOL    HW218930   4.223   0.352   4.001
 6015SOL     OW18931   4.141   0.814   4.973
 6015SOL    HW118932   4.208   0.824   5.041
 6015SOL    HW218933   4.106   0.726   4.986
 6016SOL     OW18934   3.793   1.574   5.079
 6016SOL    HW118935   3.758   1.642   5.020
 6016SOL    HW218936   3.888   1.580   5.069
 6017SOL     OW18937   4.070   1.110   4.213
 6017SOL    HW118938   4.070   1.183   4.151
 6017SOL    HW218939   4.068   1.031   4.159
 6018SOL     OW18940   4.303   0.539   4.587
 6018SOL    HW118941   4.301   0.604   4.517
 6018SOL    HW218942   4.366   0.573   4.650
 6019SOL     OW18943   4.071   1.536   5.039
 6019SOL    HW118944   4.066   1.491   4.955
 6019SOL    HW218945   4.165   1.535   5.060
 6020SOL     OW18946   4.138   0.740   5.329
 6020SOL    HW118947   4.195   0.786   5.268
 6020SOL    HW218948   4.185   0.659   5.350
 6021SOL     OW18949   4.239   0.071   5.449
 6021SOL    HW118950   4.206   4.486   5.421
 6021SOL    HW218951   4.161   0.123   5.465
 6022SOL     OW18952   4.291   0.891   4.750
 6022SOL    HW118953   4.316   0.982   4.765
 6022SOL    HW218954   4.243   0.867   4.830
 6023SOL     OW18955   4.015   0.237   4.965
 6023SOL    HW118956   3.970   0.248   5.048
 6023SOL    HW218957   4.053   0.150   4.969
 6024SOL     OW18958   3.775   1.311   5.000
 6024SOL    HW118959   3.804   1.256   5.073
 6024SOL    HW218960   3.776   1.400   5.035
 6025SOL     OW18961   4.013   0.054   4.381
 6025SOL    HW118962   4.006   0.149   4.381
 6025SOL    HW218963   4.026   0.030   4.473
 6026SOL     OW18964   4.077   0.916   5.532
 6026SOL    HW118965   4.158   0.930   5.580
 6026SOL    HW218966   4.099   0.851   5.465
 6027SOL     OW18967   4.031   0.809   4.670
 6027SOL    HW118968   4.122   0.837   4.670
 6027SOL    HW218969   4.034   0.718   4.701
 6028SOL     OW18970   4.069   0.532   4.734
 6028SOL    HW118971   4.025   0.450   4.715
 6028SOL    HW218972   4.147   0.531   4.679
 6029SOL     OW18973   3.730   1.321   3.919
 6029SOL    HW118974   3.643   1.335   3.881
 6029SOL    HW218975   3.727   1.231   3.953
 6030SOL     OW18976   3.816   1.787   4.662
 6030SOL    HW118977   3.785   1.707   4.618
 6030SOL    HW218978   3.905   1.799   4.630
 6031SOL     OW18979   4.232   1.584   4.629
 6031SOL    HW118980   4.318   1.612   4.660
 6031SOL    HW218981   4.251   1.514   4.567
 6032SOL     OW18982   3.756   0.543   4.842
 6032SOL    HW118983   3.831   0.519   4.788
 6032SOL    HW218984   3.791   0.547   4.931
 6033SOL     OW18985   3.909   0.519   5.445
 6033SOL    HW118986   3.985   0.501   5.390
 6033SOL    HW218987   3.867   0.595   5.404
 6034SOL     OW18988   0.028   0.549   3.986
 6034SOL    HW118989   0.020   0.490   4.061
 6034SOL    HW218990   4.462   0.617   4.001
 6035SOL     OW18991   3.970   1.553   5.452
 6035SOL    HW118992   3.943   1.617   5.517
 6035SOL    HW218993   3.967   1.469   5.497
 6036SOL     OW18994   4.190   0.495   3.908
 6036SOL    HW118995   4.248   0.567   3.929
 6036SOL    HW218996   4.104   0.535   3.895
 6037SOL     OW18997   3.870   1.140   5.198
 6037SOL    HW118998   3.871   1.089   5.278
 6037SOL    HW218999   3.886   1.076   5.128
 6038SOL     OW19000   3.810   1.268   4.737
 6038SOL    HW119001   3.795   1.280   4.830
 6038SOL    HW219002   3.737   1.214   4.707
 6039SOL     OW19003   4.390   1.652   5.424
 6039SOL    HW119004   4.354   1.736   5.452
 6039SOL    HW219005   4.425   1.669   5.337
 6040SOL     OW19006   3.861   1.796   5.567
 6040SOL    HW119007   3.810   1.731   5.616
 6040SOL    HW219008   3.908   1.845   5.635
 6041SOL     OW19009   3.988   0.325   4.440
 6041SOL    HW119010   3.901   0.358   4.416
 6041SOL    HW219011   3.984   0.315   4.535
 6042SOL     OW19012   4.088   1.307   5.214
 6042SOL    HW119013   4.067   1.383   5.159
 6042SOL    HW219014   4.016   1.247   5.199
 6043SOL     OW19015   4.326   1.490   4.204
 6043SOL    HW119016   4.342   1.430   4.131
 6043SOL    HW219017   4.258   1.550   4.172
 6044SOL     OW19018   3.984   1.349   4.011
 6044SOL    HW119019   3.891   1.345   3.988
 6044SOL    HW219020   3.985   1.385   4.100
 6045SOL     OW19021   3.836   1.024   5.445
 6045SOL    HW119022   3.760   0.999   5.497
 6045SOL    HW219023   3.910   0.985   5.491
 6046SOL     OW19024   4.368   0.205   5.213
 6046SOL    HW119025   4.459   0.225   5.190
 6046SOL    HW219026   4.373   0.173   5.303
 6047SOL     OW19027   3.806   0.337   3.772
 6047SOL    HW119028   3.735   0.284   3.736
 6047SOL    HW219029   3.818   0.407   3.707
 6048SOL     OW19030   3.788   0.183   4.042
 6048SOL    HW119031   3.787   0.250   3.974
 6048SOL    HW219032   3.864   0.128   4.021
 6049SOL     OW19033   4.338   0.840   5.160
 6049SOL    HW119034   4.377   0.926   5.143
 6049SOL    HW219035   4.413   0.784   5.181
 6050SOL     OW19036   4.396   0.560   5.457
 6050SOL    HW119037   4.419   0.634   5.512
 6050SOL    HW219038   4.480   0.521   5.432
 6051SOL     OW19039   4.107   1.739   5.285
 6051SOL    HW119040   4.023   1.781   5.271
 6051SOL    HW219041   4.086   1.657   5.331
 6052SOL     OW19042   4.309   0.730   4.391
 6052SOL    HW119043   4.350   0.816   4.378
 6052SOL    HW219044   4.240   0.727   4.325
 6053SOL     OW19045   3.943   1.306   5.578
 6053SOL    HW119046   3.878   1.242   5.549
 6053SOL    HW219047   3.926   1.317   5.672
 6054SOL     OW19048   3.810   1.234   4.389
 6054SOL    HW119049   3.811   1.186   4.472
 6054SOL    HW219050   3.878   1.192   4.336
 6055SOL     OW19051   4.418   1.386   5.386
 6055SOL    HW119052   4.328   1.354   5.378
 6055SOL    HW219053   4.409   1.480   5.401
 6056SOL     OW19054   4.166   0.435   4.258
 6056SOL    HW119055   4.184   0.367   4.194
 6056SOL    HW219056   4.109   0.393   4.323
 6057SOL     OW19057   4.054   0.557   5.013
 6057SOL    HW119058   4.106   0.498   5.067
 6057SOL    HW219059   4.073   0.530   4.923
 6058SOL     OW19060   0.036   1.600   4.410
 6058SOL    HW119061   0.060   1.663   4.342
 6058SOL    HW219062   4.467   1.547   4.372
 6059SOL     OW19063   3.768   1.071   4.029
 6059SOL    HW119064   3.862   1.061   4.012
 6059SOL    HW219065   3.739   0.983   4.053
 6060SOL     OW19066   3.954   0.626   5.706
 6060SOL    HW119067   3.867   0.619   5.746
 6060SOL    HW219068   3.941   0.596   5.617
 6061SOL     OW19069   3.929   0.304   6.575
 6061SOL    HW119070   3.964   0.273   6.659
 6061SOL    HW219071   3.849   0.253   6.562
 6062SOL     OW19072   3.731   0.388   6.224
 6062SOL    HW119073   3.644   0.406   6.260
 6062SOL    HW219074   3.717   0.313   6.165
 6063SOL     OW19075   4.267   1.244   6.730
 6063SOL    HW119076   4.197   1.307   6.709
 6063SOL    HW219077   4.334   1.297   6.774
 6064SOL     OW19078   0.020   0.777   7.443
 6064SOL    HW119079   0.068   0.822   7.513
 6064SOL    HW219080   0.062   0.806   7.362
 6065SOL     OW19081   4.399   0.991   6.221
 6065SOL    HW119082   4.472   0.985   6.282
 6065SOL    HW219083   4.337   1.050   6.264
 6066SOL     OW19084   4.419   1.161   7.398
 6066SOL    HW119085   4.459   1.242   7.365
 6066SOL    HW219086   4.327   1.168   7.375
 6067SOL     OW19087   4.061   1.432   6.655
 6067SOL    HW119088   3.988   1.388   6.611
 6067SOL    HW219089   4.105   1.480   6.586
 6068SOL     OW19090   4.163   0.395   7.072
 6068SOL    HW119091   4.242   0.342   7.073
 6068SOL    HW219092   4.091   0.333   7.085
 6069SOL     OW19093   3.942   1.714   6.059
 6069SOL    HW119094   3.963   1.791   6.113
 6069SOL    HW219095   4.016   1.706   6.000
 6070SOL     OW19096   3.955   1.441   6.121
 6070SOL    HW119097   3.935   1.535   6.126
 6070SOL    HW219098   3.895   1.401   6.184
 6071SOL     OW19099   3.976   1.088   6.472
 6071SOL    HW119100   3.980   1.003   6.516
 6071SOL    HW219101   3.924   1.143   6.531
 6072SOL     OW19102   4.361   1.798   7.041
 6072SOL    HW119103   4.274   1.764   7.064
 6072SOL    HW219104   4.350   1.893   7.041
 6073SOL     OW19105   4.309   0.986   5.725
 6073SOL    HW119106   4.340   1.038   5.650
 6073SOL    HW219107   4.377   0.998   5.791
 6074SOL     OW19108   3.840   0.653   6.146
 6074SOL    HW119109   3.810   0.565   6.168
 6074SOL    HW219110   3.831   0.702   6.228
 6075SOL     OW19111   3.757   1.595   5.710
 6075SOL    HW119112   3.738   1.503   5.729
 6075SOL    HW219113   3.732   1.642   5.789
 6076SOL     OW19114   3.845   0.744   7.170
 6076SOL    HW119115   3.936   0.772   7.179
 6076SOL    HW219116   3.795   0.826   7.176
 6077SOL     OW19117   4.309   1.388   6.323
 6077SOL    HW119118   4.274   1.299   6.327
 6077SOL    HW219119   4.311   1.409   6.230
 6078SOL     OW19120   0.018   0.016   6.096
 6078SOL    HW119121   0.048   0.078   6.030
 6078SOL    HW219122   4.428   0.042   6.115
 6079SOL     OW19123   3.912   0.964   6.859
 6079SOL    HW119124   3.997   0.925   6.841
 6079SOL    HW219125   3.850   0.913   6.807
 6080SOL     OW19126   4.039   0.251   7.370
 6080SOL    HW119127   4.100   0.318   7.399
 6080SOL    HW219128   3.965   0.259   7.430
 6081SOL     OW19129   4.312   0.728   5.856
 6081SOL    HW119130   4.308   0.806   5.801
 6081SOL    HW219131   4.245   0.741   5.923
 6082SOL     OW19132   3.812   0.821   6.362
 6082SOL    HW119133   3.893   0.813   6.412
 6082SOL    HW219134   3.770   0.900   6.396
 6083SOL     OW19135   3.853   1.848   7.164
 6083SOL    HW119136   3.853   1.828   7.257
 6083SOL    HW219137   3.762   1.837   7.137
 6084SOL     OW19138   4.241   0.203   6.483
 6084SOL    HW119139   4.283   0.220   6.567
 6084SOL    HW219140   4.261   0.280   6.430
 6085SOL     OW19141   4.083   1.813   6.449
 6085SOL    HW119142   4.132   1.731   6.457
 6085SOL    HW219143   4.148   1.882   6.460
 6086SOL     OW19144   4.042   0.958   5.836
 6086SOL    HW119145   4.125   0.977   5.792
 6086SOL    HW219146   4.012   0.876   5.798
 6087SOL     OW19147   4.177   1.252   7.320
 6087SOL    HW119148   4.151   1.264   7.229
 6087SOL    HW219149   4.097   1.262   7.371
 6088SOL     OW19150   3.911   0.269   7.099
 6088SOL    HW119151   3.845   0.336   7.082
 6088SOL    HW219152   3.924   0.271   7.194
 6089SOL     OW19153   4.191   1.735   5.911
 6089SOL    HW119154   4.224   1.795   5.978
 6089SOL    HW219155   4.261   1.731   5.845
 6090SOL     OW19156   3.981   1.793   6.818
 6090SOL    HW119157   4.027   1.722   6.862
 6090SOL    HW219158   3.966   1.760   6.729
 6091SOL     OW19159   4.112   0.693   6.058
 6091SOL    HW119160   4.136   0.602   6.073
 6091SOL    HW219161   4.018   0.697   6.079
 6092SOL     OW19162   4.327   0.120   5.703
 6092SOL    HW119163   4.412   0.078   5.714
 6092SOL    HW219164   4.302   0.101   5.613
 6093SOL     OW19165   0.021   1.420   6.497
 6093SOL    HW119166   0.080   1.468   6.439
 6093SOL    HW219167   4.444   1.402   6.442
 6094SOL     OW19168   4.271   0.109   6.126
 6094SOL    HW119169   4.187   0.070   6.148
 6094SOL    HW219170   4.254   0.161   6.047
 6095SOL     OW19171   4.024   0.070   5.786
 6095SOL    HW119172   4.103   0.120   5.767
 6095SOL    HW219173   4.052   0.000   5.844
 6096SOL     OW19174   0.324   0.677   7.046
 6096SOL    HW119175   0.256   0.613   7.024
 6096SOL    HW219176   0.406   0.629   7.035
 6097SOL     OW19177   4.190   1.145   6.318
 6097SOL    HW119178   4.122   1.126   6.382
 6097SOL    HW219179   4.149   1.128   6.233
 6098SOL     OW19180   3.807   0.549   6.981
 6098SOL    HW119181   3.898   0.554   6.950
 6098SOL    HW219182   3.800   0.622   7.044
 6099SOL     OW19183   4.297   0.238   6.746
 6099SOL    HW119184   4.304   0.144   6.767
 6099SOL    HW219185   4.209   0.263   6.776
 6100SOL     OW19186   4.231   1.386   5.759
 6100SOL    HW119187   4.146   1.372   5.801
 6100SOL    HW219188   4.210   1.401   5.667
 6101SOL     OW19189   4.243   0.271   5.909
 6101SOL    HW119190   4.284   0.215   5.843
 6101SOL    HW219191   4.223   0.352   5.863
 6102SOL     OW19192   4.141   0.814   6.835
 6102SOL    HW119193   4.208   0.824   6.903
 6102SOL    HW219194   4.106   0.726   6.848
 6103SOL     OW19195   3.794   1.573   6.940
 6103SOL    HW119196   3.761   1.644   6.884
 6103SOL    HW219197   3.889   1.579   6.932
 6104SOL     OW19198   4.069   1.110   6.075
 6104SOL    HW119199   4.071   1.182   6.013
 6104SOL    HW219200   4.068   1.031   6.021
 6105SOL     OW19201   4.303   0.539   6.449
 6105SOL    HW119202   4.301   0.604   6.379
 6105SOL    HW219203   4.366   0.572   6.512
 6106SOL     OW19204   4.072   1.535   6.902
 6106SOL    HW119205   4.066   1.491   6.817
 6106SOL    HW219206   4.165   1.535   6.923
 6107SOL     OW19207   4.138   0.740   7.191
 6107SOL    HW119208   4.195   0.786   7.130
 6107SOL    HW219209   4.185   0.659   7.212
 6108SOL     OW19210   4.239   0.071   7.311
 6108SOL    HW119211   4.206   4.486   7.283
 6108SOL    HW219212   4.161   0.123   7.327
 6109SOL     OW19213   4.290   0.892   6.612
 6109SOL    HW119214   4.317   0.982   6.628
 6109SOL    HW219215   4.243   0.867   6.692
 6110SOL     OW19216   4.015   0.237   6.827
 6110SOL    HW119217   3.970   0.248   6.910
 6110SOL    HW219218   4.053   0.149   6.831
 6111SOL     OW19219   3.772   1.311   6.862
 6111SOL    HW119220   3.803   1.256   6.934
 6111SOL    HW219221   3.776   1.400   6.897
 6112SOL     OW19222   4.013   0.054   6.243
 6112SOL    HW119223   4.006   0.149   6.243
 6112SOL    HW219224   4.026   0.030   6.335
 6113SOL     OW19225   4.077   0.916   7.394
 6113SOL    HW119226   4.158   0.930   7.442
 6113SOL    HW219227   4.099   0.851   7.327
 6114SOL     OW19228   4.031   0.809   6.532
 6114SOL    HW119229   4.122   0.837   6.532
 6114SOL    HW219230   4.034   0.718   6.563
 6115SOL     OW19231   4.069   0.533   6.596
 6115SOL    HW119232   4.025   0.450   6.577
 6115SOL    HW219233   4.147   0.531   6.541
 6116SOL     OW19234   3.730   1.321   5.781
 6116SOL    HW119235   3.643   1.335   5.743
 6116SOL    HW219236   3.727   1.231   5.815
 6117SOL     OW19237   3.817   1.787   6.525
 6117SOL    HW119238   3.786   1.708   6.481
 6117SOL    HW219239   3.906   1.799   6.493
 6118SOL     OW19240   4.232   1.584   6.491
 6118SOL    HW119241   4.318   1.612   6.523
 6118SOL    HW219242   4.251   1.514   6.429
 6119SOL     OW19243   3.756   0.544   6.704
 6119SOL    HW119244   3.831   0.518   6.650
 6119SOL    HW219245   3.791   0.547   6.793
 6120SOL     OW19246   3.909   0.519   7.307
 6120SOL    HW119247   3.985   0.501   7.252
 6120SOL    HW219248   3.867   0.595   7.266
 6121SOL     OW19249   0.028   0.549   5.848
 6121SOL    HW119250   0.021   0.491   5.924
 6121SOL    HW219251   4.462   0.616   5.863
 6122SOL     OW19252   3.970   1.553   7.314
 6122SOL    HW119253   3.943   1.617   7.380
 6122SOL    HW219254   3.967   1.469   7.359
 6123SOL     OW19255   4.190   0.495   5.770
 6123SOL    HW119256   4.248   0.567   5.791
 6123SOL    HW219257   4.104   0.535   5.757
 6124SOL     OW19258   3.870   1.140   7.059
 6124SOL    HW119259   3.871   1.089   7.140
 6124SOL    HW219260   3.886   1.076   6.989
 6125SOL     OW19261   3.809   1.269   6.598
 6125SOL    HW119262   3.794   1.280   6.692
 6125SOL    HW219263   3.738   1.213   6.569
 6126SOL     OW19264   4.389   1.651   7.287
 6126SOL    HW119265   4.354   1.736   7.314
 6126SOL    HW219266   4.427   1.668   7.201
 6127SOL     OW19267   3.861   1.796   7.429
 6127SOL    HW119268   3.810   1.732   7.478
 6127SOL    HW219269   3.908   1.845   7.497
 6128SOL     OW19270   3.988   0.325   6.302
 6128SOL    HW119271   3.901   0.358   6.278
 6128SOL    HW219272   3.985   0.315   6.397
 6129SOL     OW19273   4.088   1.307   7.076
 6129SOL    HW119274   4.068   1.383   7.021
 6129SOL    HW219275   4.015   1.247   7.061
 6130SOL     OW19276   4.326   1.490   6.066
 6130SOL    HW119277   4.342   1.430   5.993
 6130SOL    HW219278   4.258   1.550   6.034
 6131SOL     OW19279   3.984   1.349   5.873
 6131SOL    HW119280   3.891   1.345   5.850
 6131SOL    HW219281   3.986   1.385   5.962
 6132SOL     OW19282   3.836   1.024   7.306
 6132SOL    HW119283   3.760   0.999   7.358
 6132SOL    HW219284   3.910   0.985   7.353
 6133SOL     OW19285   4.368   0.205   7.075
 6133SOL    HW119286   4.459   0.225   7.052
 6133SOL    HW219287   4.373   0.173   7.165
 6134SOL     OW19288   3.805   0.338   5.634
 6134SOL    HW119289   3.735   0.284   5.598
 6134SOL    HW219290   3.818   0.407   5.569
 6135SOL     OW19291   3.788   0.183   5.904
 6135SOL    HW119292   3.787   0.250   5.836
 6135SOL    HW219293   3.864   0.128   5.883
 6136SOL     OW19294   4.338   0.840   7.022
 6136SOL    HW119295   4.377   0.926   7.006
 6136SOL    HW219296   4.413   0.784   7.043
 6137SOL     OW19297   4.396   0.560   7.319
 6137SOL    HW119298   4.419   0.634   7.374
 6137SOL    HW219299   4.479   0.521   7.293
 6138SOL     OW19300   4.107   1.739   7.147
 6138SOL    HW119301   4.022   1.781   7.133
 6138SOL    HW219302   4.087   1.658   7.193
 6139SOL     OW19303   4.309   0.730   6.253
 6139SOL    HW119304   4.350   0.816   6.240
 6139SOL    HW219305   4.240   0.727   6.187
 6140SOL     OW19306   3.943   1.306   7.440
 6140SOL    HW119307   3.878   1.242   7.412
 6140SOL    HW219308   3.927   1.317   7.534
 6141SOL     OW19309   3.809   1.233   6.251
 6141SOL    HW119310   3.812   1.186   6.334
 6141SOL    HW219311   3.877   1.193   6.198
 6142SOL     OW19312   4.418   1.386   7.247
 6142SOL    HW119313   4.328   1.354   7.241
 6142SOL    HW219314   4.408   1.480   7.262
 6143SOL     OW19315   4.165   0.435   6.120
 6143SOL    HW119316   4.184   0.367   6.056
 6143SOL    HW219317   4.109   0.393   6.185
 6144SOL     OW19318   4.054   0.557   6.875
 6144SOL    HW119319   4.106   0.498   6.929
 6144SOL    HW219320   4.073   0.530   6.785
 6145SOL     OW19321   0.036   1.600   6.272
 6145SOL    HW119322   0.059   1.663   6.204
 6145SOL    HW219323   4.467   1.547   6.234
 6146SOL     OW19324   3.768   1.070   5.892
 6146SOL    HW119325   3.861   1.061   5.874
 6146SOL    HW219326   3.739   0.982   5.915
 6147SOL     OW19327   3.954   0.626   7.568
 6147SOL    HW119328   3.867   0.619   7.608
 6147SOL    HW219329   3.941   0.595   7.479
 6148SOL     OW19330   3.929   0.304   8.437
 6148SOL    HW119331   3.964   0.273   8.521
 6148SOL    HW219332   3.849   0.253   8.424
 6149SOL     OW19333   3.731   0.388   8.086
 6149SOL    HW119334   3.644   0.406   8.122
 6149SOL    HW219335   3.717   0.313   8.027
 6150SOL     OW19336   4.266   1.244   8.593
 6150SOL    HW119337   4.198   1.307   8.571
 6150SOL    HW219338   4.334   1.297   8.636
 6151SOL     OW19339   0.020   0.777   9.305
 6151SOL    HW119340   0.069   0.822   9.374
 6151SOL    HW219341   0.062   0.806   9.224
 6152SOL     OW19342   4.398   0.990   8.083
 6152SOL    HW119343   4.473   0.986   8.143
 6152SOL    HW219344   4.337   1.050   8.126
 6153SOL     OW19345   4.419   1.161   9.260
 6153SOL    HW119346   4.459   1.242   9.227
 6153SOL    HW219347   4.327   1.168   9.237
 6154SOL     OW19348   4.061   1.432   8.517
 6154SOL    HW119349   3.988   1.388   8.472
 6154SOL    HW219350   4.106   1.480   8.448
 6155SOL     OW19351   4.163   0.395   8.934
 6155SOL    HW119352   4.242   0.342   8.935
 6155SOL    HW219353   4.091   0.333   8.947
 6156SOL     OW19354   3.942   1.714   7.921
 6156SOL    HW119355   3.963   1.791   7.975
 6156SOL    HW219356   4.017   1.706   7.862
 6157SOL     OW19357   3.954   1.441   7.982
 6157SOL    HW119358   3.935   1.535   7.988
 6157SOL    HW219359   3.895   1.401   8.046
 6158SOL     OW19360   3.976   1.088   8.334
 6158SOL    HW119361   3.980   1.003   8.378
 6158SOL    HW219362   3.924   1.143   8.393
 6159SOL     OW19363   4.361   1.798   8.903
 6159SOL    HW119364   4.274   1.764   8.926
 6159SOL    HW219365   4.350   1.893   8.903
 6160SOL     OW19366   4.309   0.986   7.587
 6160SOL    HW119367   4.340   1.038   7.512
 6160SOL    HW219368   4.377   0.998   7.653
 6161SOL     OW19369   3.840   0.653   8.008
 6161SOL    HW119370   3.810   0.565   8.030
 6161SOL    HW219371   3.831   0.702   8.090
 6162SOL     OW19372   3.758   1.595   7.572
 6162SOL    HW119373   3.738   1.503   7.591
 6162SOL    HW219374   3.732   1.642   7.651
 6163SOL     OW19375   3.845   0.744   9.032
 6163SOL    HW119376   3.936   0.772   9.041
 6163SOL    HW219377   3.795   0.826   9.038
 6164SOL     OW19378   4.309   1.388   8.186
 6164SOL    HW119379   4.274   1.299   8.189
 6164SOL    HW219380   4.311   1.409   8.092
 6165SOL     OW19381   0.018   0.016   7.958
 6165SOL    HW119382   0.048   0.078   7.892
 6165SOL    HW219383   4.428   0.042   7.977
 6166SOL     OW19384   3.912   0.965   8.721
 6166SOL    HW119385   3.997   0.926   8.703
 6166SOL    HW219386   3.850   0.913   8.669
 6167SOL     OW19387   4.039   0.251   9.232
 6167SOL    HW119388   4.100   0.318   9.261
 6167SOL    HW219389   3.965   0.259   9.292
 6168SOL     OW19390   4.312   0.728   7.718
 6168SOL    HW119391   4.308   0.806   7.663
 6168SOL    HW219392   4.245   0.741   7.785
 6169SOL     OW19393   3.812   0.821   8.224
 6169SOL    HW119394   3.893   0.813   8.275
 6169SOL    HW219395   3.770   0.900   8.258
 6170SOL     OW19396   3.853   1.848   9.026
 6170SOL    HW119397   3.853   1.827   9.119
 6170SOL    HW219398   3.762   1.839   8.999
 6171SOL     OW19399   4.241   0.203   8.345
 6171SOL    HW119400   4.283   0.220   8.429
 6171SOL    HW219401   4.261   0.280   8.292
 6172SOL     OW19402   4.082   1.813   8.311
 6172SOL    HW119403   4.132   1.731   8.319
 6172SOL    HW219404   4.148   1.882   8.322
 6173SOL     OW19405   4.042   0.958   7.698
 6173SOL    HW119406   4.125   0.977   7.654
 6173SOL    HW219407   4.012   0.876   7.660
 6174SOL     OW19408   4.177   1.252   9.182
 6174SOL    HW119409   4.151   1.264   9.091
 6174SOL    HW219410   4.097   1.262   9.233
 6175SOL     OW19411   3.911   0.269   8.961
 6175SOL    HW119412   3.845   0.336   8.944
 6175SOL    HW219413   3.924   0.271   9.056
 6176SOL     OW19414   4.191   1.735   7.773
 6176SOL    HW119415   4.224   1.795   7.840
 6176SOL    HW219416   4.261   1.731   7.707
 6177SOL     OW19417   3.980   1.793   8.680
 6177SOL    HW119418   4.027   1.722   8.724
 6177SOL    HW219419   3.966   1.760   8.591
 6178SOL     OW19420   4.112   0.693   7.920
 6178SOL    HW119421   4.136   0.602   7.935
 6178SOL    HW219422   4.018   0.697   7.941
 6179SOL     OW19423   4.327   0.120   7.565
 6179SOL    HW119424   4.412   0.078   7.576
 6179SOL    HW219425   4.302   0.101   7.475
 6180SOL     OW19426   0.021   1.420   8.359
 6180SOL    HW119427   0.080   1.468   8.301
 6180SOL    HW219428   4.444   1.401   8.304
 6181SOL     OW19429   4.271   0.109   7.988
 6181SOL    HW119430   4.187   0.069   8.009
 6181SOL    HW219431   4.254   0.161   7.909
 6182SOL     OW19432   4.024   0.071   7.648
 6182SOL    HW119433   4.103   0.120   7.629
 6182SOL    HW219434   4.052   0.000   7.706
 6183SOL     OW19435   0.324   0.677   8.909
 6183SOL    HW119436   0.256   0.613   8.886
 6183SOL    HW219437   0.406   0.629   8.897
 6184SOL     OW19438   4.190   1.145   8.180
 6184SOL    HW119439   4.122   1.126   8.244
 6184SOL    HW219440   4.149   1.128   8.095
 6185SOL     OW19441   3.807   0.549   8.843
 6185SOL    HW119442   3.898   0.554   8.812
 6185SOL    HW219443   3.800   0.622   8.906
 6186SOL     OW19444   4.297   0.238   8.609
 6186SOL    HW119445   4.304   0.144   8.629
 6186SOL    HW219446   4.209   0.263   8.638
 6187SOL     OW19447   4.231   1.386   7.621
 6187SOL    HW119448   4.146   1.372   7.663
 6187SOL    HW219449   4.210   1.401   7.529
 6188SOL     OW19450   4.243   0.271   7.771
 6188SOL    HW119451   4.284   0.215   7.705
 6188SOL    HW219452   4.223   0.352   7.725
 6189SOL     OW19453   4.141   0.814   8.698
 6189SOL    HW119454   4.208   0.824   8.765
 6189SOL    HW219455   4.106   0.726   8.710
 6190SOL     OW19456   3.794   1.573   8.801
 6190SOL    HW119457   3.761   1.644   8.746
 6190SOL    HW219458   3.889   1.579   8.794
 6191SOL     OW19459   4.069   1.110   7.937
 6191SOL    HW119460   4.071   1.182   7.875
 6191SOL    HW219461   4.068   1.031   7.883
 6192SOL     OW19462   4.303   0.539   8.311
 6192SOL    HW119463   4.301   0.604   8.241
 6192SOL    HW219464   4.367   0.572   8.374
 6193SOL     OW19465   4.072   1.535   8.764
 6193SOL    HW119466   4.066   1.491   8.679
 6193SOL    HW219467   4.165   1.535   8.785
 6194SOL     OW19468   4.138   0.740   9.053
 6194SOL    HW119469   4.195   0.786   8.992
 6194SOL    HW219470   4.185   0.659   9.074
 6195SOL     OW19471   4.239   0.071   9.173
 6195SOL    HW119472   4.206   4.486   9.144
 6195SOL    HW219473   4.160   0.123   9.189
 6196SOL     OW19474   4.290   0.892   8.474
 6196SOL    HW119475   4.317   0.982   8.490
 6196SOL    HW219476   4.243   0.867   8.554
 6197SOL     OW19477   4.015   0.237   8.689
 6197SOL    HW119478   3.970   0.248   8.772
 6197SOL    HW219479   4.053   0.149   8.693
 6198SOL     OW19480   3.771   1.311   8.725
 6198SOL    HW119481   3.803   1.256   8.796
 6198SOL    HW219482   3.776   1.400   8.759
 6199SOL     OW19483   4.013   0.054   8.105
 6199SOL    HW119484   4.006   0.149   8.105
 6199SOL    HW219485   4.026   0.030   8.197
 6200SOL     OW19486   4.076   0.916   9.256
 6200SOL    HW119487   4.158   0.930   9.304
 6200SOL    HW219488   4.099   0.851   9.189
 6201SOL     OW19489   4.031   0.809   8.394
 6201SOL    HW119490   4.122   0.837   8.394
 6201SOL    HW219491   4.034   0.718   8.425
 6202SOL     OW19492   4.069   0.533   8.458
 6202SOL    HW119493   4.025   0.450   8.439
 6202SOL    HW219494   4.147   0.532   8.404
 6203SOL     OW19495   3.729   1.321   7.643
 6203SOL    HW119496   3.643   1.335   7.606
 6203SOL    HW219497   3.727   1.231   7.677
 6204SOL     OW19498   3.816   1.787   8.387
 6204SOL    HW119499   3.786   1.708   8.343
 6204SOL    HW219500   3.906   1.800   8.355
 6205SOL     OW19501   4.232   1.584   8.353
 6205SOL    HW119502   4.318   1.613   8.384
 6205SOL    HW219503   4.251   1.514   8.291
 6206SOL     OW19504   3.756   0.544   8.566
 6206SOL    HW119505   3.831   0.518   8.512
 6206SOL    HW219506   3.791   0.547   8.655
 6207SOL     OW19507   3.909   0.519   9.169
 6207SOL    HW119508   3.985   0.500   9.114
 6207SOL    HW219509   3.867   0.595   9.128
 6208SOL     OW19510   0.028   0.549   7.710
 6208SOL    HW119511   0.021   0.491   7.786
 6208SOL    HW219512   4.462   0.616   7.725
 6209SOL     OW19513   3.969   1.553   9.176
 6209SOL    HW119514   3.943   1.617   9.242
 6209SOL    HW219515   3.967   1.469   9.221
 6210SOL     OW19516   4.190   0.495   7.632
 6210SOL    HW119517   4.248   0.567   7.653
 6210SOL    HW219518   4.104   0.535   7.619
 6211SOL     OW19519   3.870   1.140   8.921
 6211SOL    HW119520   3.871   1.089   9.001
 6211SOL    HW219521   3.886   1.076   8.851
 6212SOL     OW19522   3.809   1.269   8.460
 6212SOL    HW119523   3.793   1.280   8.554
 6212SOL    HW219524   3.738   1.213   8.430
 6213SOL     OW19525   4.389   1.651   9.149
 6213SOL    HW119526   4.354   1.736   9.176
 6213SOL    HW219527   4.427   1.668   9.063
 6214SOL     OW19528   3.861   1.796   9.291
 6214SOL    HW119529   3.810   1.732   9.340
 6214SOL    HW219530   3.908   1.845   9.359
 6215SOL     OW19531   3.988   0.325   8.164
 6215SOL    HW119532   3.901   0.358   8.140
 6215SOL    HW219533   3.985   0.315   8.259
 6216SOL     OW19534   4.088   1.307   8.938
 6216SOL    HW119535   4.068   1.383   8.883
 6216SOL    HW219536   4.015   1.247   8.923
 6217SOL     OW19537   4.326   1.490   7.928
 6217SOL    HW119538   4.342   1.431   7.855
 6217SOL    HW219539   4.259   1.550   7.895
 6218SOL     OW19540   3.984   1.349   7.735
 6218SOL    HW119541   3.891   1.345   7.712
 6218SOL    HW219542   3.986   1.385   7.823
 6219SOL     OW19543   3.836   1.024   9.168
 6219SOL    HW119544   3.760   0.999   9.220
 6219SOL    HW219545   3.910   0.985   9.215
 6220SOL     OW19546   4.368   0.206   8.937
 6220SOL    HW119547   4.459   0.225   8.914
 6220SOL    HW219548   4.373   0.173   9.027
 6221SOL     OW19549   3.805   0.338   7.496
 6221SOL    HW119550   3.735   0.284   7.460
 6221SOL    HW219551   3.818   0.407   7.431
 6222SOL     OW19552   3.788   0.183   7.766
 6222SOL    HW119553   3.787   0.250   7.698
 6222SOL    HW219554   3.864   0.129   7.745
 6223SOL     OW19555   4.338   0.840   8.884
 6223SOL    HW119556   4.377   0.926   8.868
 6223SOL    HW219557   4.413   0.784   8.905
 6224SOL     OW19558   4.396   0.560   9.181
 6224SOL    HW119559   4.419   0.634   9.237
 6224SOL    HW219560   4.479   0.521   9.155
 6225SOL     OW19561   4.107   1.739   9.009
 6225SOL    HW119562   4.022   1.781   8.995
 6225SOL    HW219563   4.087   1.658   9.055
 6226SOL     OW19564   4.309   0.730   8.115
 6226SOL    HW119565   4.350   0.816   8.103
 6226SOL    HW219566   4.240   0.727   8.049
 6227SOL     OW19567   3.943   1.306   9.302
 6227SOL    HW119568   3.878   1.242   9.274
 6227SOL    HW219569   3.927   1.317   9.396
 6228SOL     OW19570   3.809   1.233   8.113
 6228SOL    HW119571   3.813   1.185   8.196
 6228SOL    HW219572   3.877   1.193   8.059
 6229SOL     OW19573   4.418   1.386   9.109
 6229SOL    HW119574   4.328   1.354   9.103
 6229SOL    HW219575   4.409   1.480   9.124
 6230SOL     OW19576   4.165   0.435   7.982
 6230SOL    HW119577   4.184   0.367   7.918
 6230SOL    HW219578   4.109   0.393   8.047
 6231SOL     OW19579   4.054   0.557   8.737
 6231SOL    HW119580   4.106   0.498   8.791
 6231SOL    HW219581   4.073   0.530   8.647
 6232SOL     OW19582   0.036   1.600   8.134
 6232SOL    HW119583   0.060   1.663   8.066
 6232SOL    HW219584   4.467   1.547   8.095
 6233SOL     OW19585   3.768   1.071   7.754
 6233SOL    HW119586   3.862   1.061   7.736
 6233SOL    HW219587   3.739   0.982   7.777
 6234SOL     OW19588   3.954   0.626   9.430
 6234SOL    HW119589   3.867   0.619   9.470
 6234SOL    HW219590   3.942   0.595   9.341
 6235SOL     OW19591   3.929   0.304  10.299
 6235SOL    HW119592   3.964   0.273  10.382
 6235SOL    HW219593   3.849   0.253  10.286
 6236SOL     OW19594   3.731   0.387   9.948
 6236SOL    HW119595   3.644   0.405   9.984
 6236SOL    HW219596   3.717   0.313   9.889
 6237SOL     OW19597   4.266   1.244  10.457
 6237SOL    HW119598   4.198   1.307  10.433
 6237SOL    HW219599   4.334   1.297  10.498
 6238SOL     OW19600   0.024   0.811   0.080
 6238SOL    HW119601   0.103   0.846   0.120
 6238SOL    HW219602   0.049   0.791  11.090
 6239SOL     OW19603   4.398   0.990   9.945
 6239SOL    HW119604   4.473   0.985  10.005
 6239SOL    HW219605   4.337   1.050   9.988
 6240SOL     OW19606   4.062   1.431  10.378
 6240SOL    HW119607   3.988   1.388  10.334
 6240SOL    HW219608   4.106   1.480  10.309
 6241SOL     OW19609   4.175   0.397  10.793
 6241SOL    HW119610   4.245   0.331  10.796
 6241SOL    HW219611   4.096   0.350  10.817
 6242SOL     OW19612   3.942   1.714   9.783
 6242SOL    HW119613   3.963   1.791   9.837
 6242SOL    HW219614   4.017   1.706   9.724
 6243SOL     OW19615   3.954   1.441   9.844
 6243SOL    HW119616   3.935   1.535   9.850
 6243SOL    HW219617   3.895   1.401   9.908
 6244SOL     OW19618   3.976   1.088  10.196
 6244SOL    HW119619   3.980   1.004  10.241
 6244SOL    HW219620   3.924   1.144  10.255
 6245SOL     OW19621   4.355   1.802  10.753
 6245SOL    HW119622   4.268   1.771  10.781
 6245SOL    HW219623   4.352   1.896  10.766
 6246SOL     OW19624   4.309   0.986   9.449
 6246SOL    HW119625   4.340   1.037   9.374
 6246SOL    HW219626   4.377   0.998   9.515
 6247SOL     OW19627   3.840   0.653   9.870
 6247SOL    HW119628   3.810   0.565   9.892
 6247SOL    HW219629   3.831   0.702   9.952
 6248SOL     OW19630   3.757   1.595   9.434
 6248SOL    HW119631   3.738   1.503   9.453
 6248SOL    HW219632   3.732   1.642   9.513
 6249SOL     OW19633   3.849   0.726  10.916
 6249SOL    HW119634   3.941   0.750  10.905
 6249SOL    HW219635   3.802   0.809  10.908
 6250SOL     OW19636   4.309   1.388  10.048
 6250SOL    HW119637   4.274   1.299  10.051
 6250SOL    HW219638   4.311   1.409   9.954
 6251SOL     OW19639   0.018   0.016   9.820
 6251SOL    HW119640   0.048   0.078   9.754
 6251SOL    HW219641   4.428   0.042   9.839
 6252SOL     OW19642   3.912   0.963  10.580
 6252SOL    HW119643   3.997   0.924  10.561
 6252SOL    HW219644   3.849   0.910  10.530
 6253SOL     OW19645   4.058   0.278  11.088
 6253SOL    HW119646   4.115   0.337   0.036
 6253SOL    HW219647   3.973   0.284   0.032
 6254SOL     OW19648   4.312   0.728   9.580
 6254SOL    HW119649   4.308   0.806   9.525
 6254SOL    HW219650   4.245   0.741   9.647
 6255SOL     OW19651   3.812   0.821  10.086
 6255SOL    HW119652   3.893   0.813  10.137
 6255SOL    HW219653   3.770   0.900  10.120
 6256SOL     OW19654   3.854   1.847  10.897
 6256SOL    HW119655   3.837   1.806  10.982
 6256SOL    HW219656   3.771   1.840  10.850
 6257SOL     OW19657   4.241   0.204  10.212
 6257SOL    HW119658   4.288   0.224  10.293
 6257SOL    HW219659   4.260   0.278  10.154
 6258SOL     OW19660   4.082   1.813  10.173
 6258SOL    HW119661   4.132   1.731  10.181
 6258SOL    HW219662   4.148   1.882  10.185
 6259SOL     OW19663   4.042   0.958   9.560
 6259SOL    HW119664   4.125   0.977   9.516
 6259SOL    HW219665   4.012   0.876   9.522
 6260SOL     OW19666   4.177   1.263  11.055
 6260SOL    HW119667   4.152   1.277  10.964
 6260SOL    HW219668   4.107   1.209  11.092
 6261SOL     OW19669   3.922   0.272  10.816
 6261SOL    HW119670   3.848   0.332  10.809
 6261SOL    HW219671   3.937   0.263  10.910
 6262SOL     OW19672   4.191   1.735   9.635
 6262SOL    HW119673   4.224   1.795   9.702
 6262SOL    HW219674   4.261   1.731   9.569
 6263SOL     OW19675   3.980   1.793  10.543
 6263SOL    HW119676   4.027   1.723  10.588
 6263SOL    HW219677   3.967   1.760  10.454
 6264SOL     OW19678   4.112   0.693   9.782
 6264SOL    HW119679   4.136   0.602   9.797
 6264SOL    HW219680   4.018   0.697   9.803
 6265SOL     OW19681   4.327   0.120   9.427
 6265SOL    HW119682   4.412   0.078   9.438
 6265SOL    HW219683   4.302   0.101   9.337
 6266SOL     OW19684   0.021   1.420  10.221
 6266SOL    HW119685   0.080   1.468  10.163
 6266SOL    HW219686   4.444   1.402  10.166
 6267SOL     OW19687   4.271   0.110   9.850
 6267SOL    HW119688   4.187   0.069   9.871
 6267SOL    HW219689   4.254   0.161   9.771
 6268SOL     OW19690   4.024   0.071   9.510
 6268SOL    HW119691   4.103   0.120   9.491
 6268SOL    HW219692   4.052   0.000   9.568
 6269SOL     OW19693   0.310   0.679  10.774
 6269SOL    HW119694   0.252   0.604  10.768
 6269SOL    HW219695   0.398   0.643  10.762
 6270SOL     OW19696   4.190   1.145  10.042
 6270SOL    HW119697   4.122   1.126  10.106
 6270SOL    HW219698   4.149   1.128   9.957
 6271SOL     OW19699   3.806   0.548  10.708
 6271SOL    HW119700   3.896   0.554  10.677
 6271SOL    HW219701   3.801   0.613  10.779
 6272SOL     OW19702   4.299   0.236  10.479
 6272SOL    HW119703   4.298   0.140  10.484
 6272SOL    HW219704   4.209   0.261  10.499
 6273SOL     OW19705   4.231   1.386   9.483
 6273SOL    HW119706   4.146   1.372   9.525
 6273SOL    HW219707   4.210   1.401   9.391
 6274SOL     OW19708   4.243   0.271   9.633
 6274SOL    HW119709   4.284   0.215   9.567
 6274SOL    HW219710   4.223   0.352   9.587
 6275SOL     OW19711   4.141   0.814  10.559
 6275SOL    HW119712   4.208   0.823  10.626
 6275SOL    HW219713   4.107   0.725  10.571
 6276SOL     OW19714   3.794   1.577  10.663
 6276SOL    HW119715   3.763   1.645  10.604
 6276SOL    HW219716   3.889   1.579  10.654
 6277SOL     OW19717   4.069   1.110   9.799
 6277SOL    HW119718   4.071   1.182   9.737
 6277SOL    HW219719   4.068   1.031   9.745
 6278SOL     OW19720   4.302   0.539  10.174
 6278SOL    HW119721   4.302   0.605  10.105
 6278SOL    HW219722   4.368   0.570  10.237
 6279SOL     OW19723   4.072   1.533  10.626
 6279SOL    HW119724   4.067   1.489  10.541
 6279SOL    HW219725   4.165   1.535  10.647
 6280SOL     OW19726   4.135   0.735  10.903
 6280SOL    HW119727   4.199   0.779  10.847
 6280SOL    HW219728   4.162   0.643  10.903
 6281SOL     OW19729   4.290   0.892  10.336
 6281SOL    HW119730   4.317   0.983  10.351
 6281SOL    HW219731   4.243   0.867  10.415
 6282SOL     OW19732   4.015   0.237  10.549
 6282SOL    HW119733   3.975   0.251  10.635
 6282SOL    HW219734   4.051   0.148  10.554
 6283SOL     OW19735   3.775   1.313  10.585
 6283SOL    HW119736   3.801   1.256  10.658
 6283SOL    HW219737   3.775   1.401  10.622
 6284SOL     OW19738   4.012   0.053   9.967
 6284SOL    HW119739   4.006   0.149   9.967
 6284SOL    HW219740   4.026   0.030  10.059
 6285SOL     OW19741   4.081   0.917  11.094
 6285SOL    HW119742   4.164   0.934   0.038
 6285SOL    HW219743   4.101   0.850  11.029
 6286SOL     OW19744   4.031   0.809  10.256
 6286SOL    HW119745   4.122   0.837  10.255
 6286SOL    HW219746   4.034   0.718  10.286
 6287SOL     OW19747   4.069   0.533  10.321
 6287SOL    HW119748   4.025   0.450  10.301
 6287SOL    HW219749   4.147   0.532  10.267
 6288SOL     OW19750   3.729   1.321   9.505
 6288SOL    HW119751   3.643   1.335   9.468
 6288SOL    HW219752   3.727   1.231   9.539
 6289SOL     OW19753   3.816   1.787  10.249
 6289SOL    HW119754   3.786   1.708  10.205
 6289SOL    HW219755   3.906   1.800  10.217
 6290SOL     OW19756   4.232   1.584  10.215
 6290SOL    HW119757   4.318   1.613  10.246
 6290SOL    HW219758   4.251   1.514  10.153
 6291SOL     OW19759   3.757   0.544  10.429
 6291SOL    HW119760   3.832   0.519  10.375
 6291SOL    HW219761   3.791   0.547  10.518
 6292SOL     OW19762   0.028   0.549   9.572
 6292SOL    HW119763   0.021   0.491   9.648
 6292SOL    HW219764   4.462   0.616   9.587
 6293SOL     OW19765   3.978   1.567  11.051
 6293SOL    HW119766   3.919   1.597   0.021
 6293SOL    HW219767   3.986   1.472  11.065
 6294SOL     OW19768   4.189   0.495   9.494
 6294SOL    HW119769   4.248   0.567   9.515
 6294SOL    HW219770   4.104   0.535   9.481
 6295SOL     OW19771   3.876   1.138  10.780
 6295SOL    HW119772   3.868   1.084  10.858
 6295SOL    HW219773   3.889   1.075  10.709
 6296SOL     OW19774   3.809   1.270  10.322
 6296SOL    HW119775   3.795   1.281  10.416
 6296SOL    HW219776   3.738   1.213  10.293
 6297SOL     OW19777   4.390   1.667  11.002
 6297SOL    HW119778   4.308   1.713  10.984
 6297SOL    HW219779   4.429   1.650  10.916
 6298SOL     OW19780   3.988   0.324  10.026
 6298SOL    HW119781   3.902   0.358  10.002
 6298SOL    HW219782   3.985   0.315  10.121
 6299SOL     OW19783   4.082   1.311  10.811
 6299SOL    HW119784   4.070   1.382  10.748
 6299SOL    HW219785   4.014   1.248  10.789
 6300SOL     OW19786   4.326   1.490   9.790
 6300SOL    HW119787   4.342   1.430   9.717
 6300SOL    HW219788   4.259   1.550   9.757
 6301SOL     OW19789   3.984   1.349   9.597
 6301SOL    HW119790   3.891   1.345   9.574
 6301SOL    HW219791   3.986   1.385   9.685
 6302SOL     OW19792   3.839   1.013  11.018
 6302SOL    HW119793   3.769   1.001  11.083
 6302SOL    HW219794   3.918   0.981  11.062
 6303SOL     OW19795   4.374   0.187  10.817
 6303SOL    HW119796   4.439   0.208  10.750
 6303SOL    HW219797   4.416   0.212  10.899
 6304SOL     OW19798   3.805   0.338   9.358
 6304SOL    HW119799   3.735   0.284   9.322
 6304SOL    HW219800   3.818   0.407   9.293
 6305SOL     OW19801   3.788   0.183   9.628
 6305SOL    HW119802   3.787   0.250   9.559
 6305SOL    HW219803   3.864   0.129   9.607
 6306SOL     OW19804   4.339   0.839  10.746
 6306SOL    HW119805   4.374   0.926  10.729
 6306SOL    HW219806   4.416   0.783  10.757
 6307SOL     OW19807   4.116   1.735  10.875
 6307SOL    HW119808   4.038   1.789  10.864
 6307SOL    HW219809   4.086   1.660  10.928
 6308SOL     OW19810   4.309   0.730   9.977
 6308SOL    HW119811   4.350   0.816   9.965
 6308SOL    HW219812   4.240   0.726   9.911
 6309SOL     OW19813   3.809   1.233   9.975
 6309SOL    HW119814   3.813   1.186  10.058
 6309SOL    HW219815   3.877   1.193   9.921
 6310SOL     OW19816   4.408   1.391  10.946
 6310SOL    HW119817   4.331   1.343  10.976
 6310SOL    HW219818   4.400   1.477  10.987
 6311SOL     OW19819   4.165   0.435   9.844
 6311SOL    HW119820   4.184   0.367   9.780
 6311SOL    HW219821   4.109   0.393   9.908
 6312SOL     OW19822   4.054   0.556  10.600
 6312SOL    HW119823   4.108   0.496  10.652
 6312SOL    HW219824   4.071   0.531  10.509
 6313SOL     OW19825   0.036   1.600   9.996
 6313SOL    HW119826   0.060   1.663   9.928
 6313SOL    HW219827   4.467   1.548   9.957
 6314SOL     OW19828   3.768   1.071   9.616
 6314SOL    HW119829   3.862   1.061   9.598
 6314SOL    HW219830   3.739   0.982   9.639
 6315SOL     OW19831   3.946   2.475   0.114
 6315SOL    HW119832   3.863   2.479   0.160
 6315SOL    HW219833   3.927   2.507   0.026
 6316SOL     OW19834   3.947   2.148   0.992
 6316SOL    HW119835   3.979   2.111   1.074
 6316SOL    HW219836   3.858   2.113   0.982
 6317SOL     OW19837   3.727   2.245   0.638
 6317SOL    HW119838   3.644   2.269   0.679
 6317SOL    HW219839   3.707   2.165   0.589
 6318SOL     OW19840   4.265   3.106   1.148
 6318SOL    HW119841   4.198   3.169   1.122
 6318SOL    HW219842   4.334   3.159   1.188
 6319SOL     OW19843   0.018   2.641   1.857
 6319SOL    HW119844   0.070   2.682   1.926
 6319SOL    HW219845   0.063   2.665   1.775
 6320SOL     OW19846   4.397   2.851   0.635
 6320SOL    HW119847   4.474   2.849   0.692
 6320SOL    HW219848   4.336   2.911   0.678
 6321SOL     OW19849   4.419   3.023   1.812
 6321SOL    HW119850   4.459   3.103   1.778
 6321SOL    HW219851   4.327   3.030   1.789
 6322SOL     OW19852   4.061   3.294   1.069
 6322SOL    HW119853   3.989   3.251   1.024
 6322SOL    HW219854   4.106   3.343   1.000
 6323SOL     OW19855   4.171   2.261   1.483
 6323SOL    HW119856   4.246   2.201   1.489
 6323SOL    HW219857   4.095   2.206   1.498
 6324SOL     OW19858   3.941   3.575   0.475
 6324SOL    HW119859   3.962   3.653   0.527
 6324SOL    HW219860   4.012   3.570   0.411
 6325SOL     OW19861   3.951   3.303   0.532
 6325SOL    HW119862   3.936   3.397   0.536
 6325SOL    HW219863   3.892   3.266   0.598
 6326SOL     OW19864   3.975   2.950   0.886
 6326SOL    HW119865   3.980   2.865   0.930
 6326SOL    HW219866   3.924   3.005   0.945
 6327SOL     OW19867   4.362   3.659   1.455
 6327SOL    HW119868   4.275   3.627   1.478
 6327SOL    HW219869   4.352   3.755   1.455
 6328SOL     OW19870   4.297   2.868   0.139
 6328SOL    HW119871   4.311   2.935   0.072
 6328SOL    HW219872   4.379   2.867   0.189
 6329SOL     OW19873   3.838   2.513   0.560
 6329SOL    HW119874   3.807   2.425   0.582
 6329SOL    HW219875   3.830   2.563   0.641
 6330SOL     OW19876   3.771   3.463   0.119
 6330SOL    HW119877   3.742   3.375   0.144
 6330SOL    HW219878   3.744   3.518   0.193
 6331SOL     OW19879   3.846   2.604   1.586
 6331SOL    HW119880   3.938   2.630   1.594
 6331SOL    HW219881   3.797   2.686   1.592
 6332SOL     OW19882   4.309   3.250   0.738
 6332SOL    HW119883   4.274   3.161   0.741
 6332SOL    HW219884   4.311   3.271   0.645
 6333SOL     OW19885   0.021   1.873   0.532
 6333SOL    HW119886   0.052   1.929   0.460
 6333SOL    HW219887   4.426   1.885   0.532
 6334SOL     OW19888   3.912   2.827   1.273
 6334SOL    HW119889   3.997   2.788   1.255
 6334SOL    HW219890   3.850   2.774   1.222
 6335SOL     OW19891   4.058   2.112   1.812
 6335SOL    HW119892   4.101   2.196   1.828
 6335SOL    HW219893   3.969   2.124   1.843
 6336SOL     OW19894   4.309   2.579   0.269
 6336SOL    HW119895   4.329   2.656   0.217
 6336SOL    HW219896   4.246   2.610   0.334
 6337SOL     OW19897   3.812   2.684   0.775
 6337SOL    HW119898   3.893   2.675   0.825
 6337SOL    HW219899   3.770   2.762   0.810
 6338SOL     OW19900   3.853   3.711   1.578
 6338SOL    HW119901   3.853   3.690   1.671
 6338SOL    HW219902   3.762   3.699   1.551
 6339SOL     OW19903   4.251   2.052   0.881
 6339SOL    HW119904   4.270   2.059   0.974
 6339SOL    HW219905   4.260   2.141   0.848
 6340SOL     OW19906   4.082   3.675   0.864
 6340SOL    HW119907   4.132   3.593   0.871
 6340SOL    HW219908   4.148   3.744   0.874
 6341SOL     OW19909   4.040   2.822   0.275
 6341SOL    HW119910   4.120   2.846   0.228
 6341SOL    HW219911   4.014   2.738   0.238
 6342SOL     OW19912   4.177   3.113   1.735
 6342SOL    HW119913   4.151   3.126   1.643
 6342SOL    HW219914   4.097   3.124   1.785
 6343SOL     OW19915   3.925   2.144   1.502
 6343SOL    HW119916   3.843   2.193   1.496
 6343SOL    HW219917   3.905   2.072   1.563
 6344SOL     OW19918   4.192   3.593   0.328
 6344SOL    HW119919   4.225   3.657   0.392
 6344SOL    HW219920   4.264   3.584   0.265
 6345SOL     OW19921   3.979   3.655   1.232
 6345SOL    HW119922   4.027   3.584   1.276
 6345SOL    HW219923   3.966   3.623   1.143
 6346SOL     OW19924   4.108   2.556   0.475
 6346SOL    HW119925   4.135   2.465   0.489
 6346SOL    HW219926   4.015   2.558   0.497
 6347SOL     OW19927   4.348   1.990   0.111
 6347SOL    HW119928   4.435   1.953   0.126
 6347SOL    HW219929   4.318   1.949   0.030
 6348SOL     OW19930   0.021   3.281   0.910
 6348SOL    HW119931   0.079   3.332   0.853
 6348SOL    HW219932   4.444   3.263   0.856
 6349SOL     OW19933   4.260   1.927   0.499
 6349SOL    HW119934   4.180   1.930   0.552
 6349SOL    HW219935   4.256   2.006   0.445
 6350SOL     OW19936   4.008   1.911   0.200
 6350SOL    HW119937   4.051   1.965   0.134
 6350SOL    HW219938   4.075   1.847   0.225
 6351SOL     OW19939   0.326   2.534   1.451
 6351SOL    HW119940   0.257   2.469   1.437
 6351SOL    HW219941   0.407   2.484   1.453
 6352SOL     OW19942   4.192   3.006   0.735
 6352SOL    HW119943   4.123   2.987   0.799
 6352SOL    HW219944   4.150   2.993   0.650
 6353SOL     OW19945   3.803   2.416   1.392
 6353SOL    HW119946   3.895   2.415   1.364
 6353SOL    HW219947   3.799   2.486   1.457
 6354SOL     OW19948   4.283   2.073   1.149
 6354SOL    HW119949   4.326   2.007   1.204
 6354SOL    HW219950   4.196   2.083   1.188
 6355SOL     OW19951   4.237   3.261   0.191
 6355SOL    HW119952   4.152   3.248   0.232
 6355SOL    HW219953   4.222   3.241   0.098
 6356SOL     OW19954   4.249   2.132   0.323
 6356SOL    HW119955   4.285   2.076   0.255
 6356SOL    HW219956   4.225   2.213   0.278
 6357SOL     OW19957   4.140   2.675   1.250
 6357SOL    HW119958   4.207   2.685   1.317
 6357SOL    HW219959   4.106   2.587   1.263
 6358SOL     OW19960   3.794   3.435   1.353
 6358SOL    HW119961   3.762   3.506   1.297
 6358SOL    HW219962   3.889   3.440   1.346
 6359SOL     OW19963   4.067   2.981   0.496
 6359SOL    HW119964   4.069   3.054   0.435
 6359SOL    HW219965   4.064   2.903   0.441
 6360SOL     OW19966   4.300   2.400   0.864
 6360SOL    HW119967   4.300   2.466   0.795
 6360SOL    HW219968   4.366   2.431   0.927
 6361SOL     OW19969   4.072   3.397   1.316
 6361SOL    HW119970   4.067   3.353   1.231
 6361SOL    HW219971   4.165   3.397   1.336
 6362SOL     OW19972   4.137   2.604   1.605
 6362SOL    HW119973   4.197   2.648   1.544
 6362SOL    HW219974   4.179   2.520   1.623
 6363SOL     OW19975   4.232   1.914   1.734
 6363SOL    HW119976   4.186   1.854   1.675
 6363SOL    HW219977   4.167   1.981   1.754
 6364SOL     OW19978   4.289   2.753   1.027
 6364SOL    HW119979   4.317   2.844   1.041
 6364SOL    HW219980   4.243   2.729   1.106
 6365SOL     OW19981   4.024   2.062   1.247
 6365SOL    HW119982   3.985   2.094   1.329
 6365SOL    HW219983   4.004   1.968   1.247
 6366SOL     OW19984   3.769   3.173   1.277
 6366SOL    HW119985   3.802   3.118   1.348
 6366SOL    HW219986   3.776   3.262   1.311
 6367SOL     OW19987   4.020   1.928   0.626
 6367SOL    HW119988   4.004   2.019   0.650
 6367SOL    HW219989   4.033   1.883   0.710
 6368SOL     OW19990   4.076   2.777   1.809
 6368SOL    HW119991   4.158   2.792   1.856
 6368SOL    HW219992   4.098   2.713   1.741
 6369SOL     OW19993   4.031   2.670   0.946
 6369SOL    HW119994   4.122   2.698   0.946
 6369SOL    HW219995   4.033   2.580   0.977
 6370SOL     OW19996   4.064   2.390   1.009
 6370SOL    HW119997   4.027   2.303   0.993
 6370SOL    HW219998   4.143   2.392   0.956
 6371SOL     OW19999   3.732   3.189   0.194
 6371SOL    HW120000   3.645   3.201   0.156
 6371SOL    HW220001   3.732   3.099   0.226
 6372SOL     OW20002   3.817   3.649   0.940
 6372SOL    HW120003   3.786   3.570   0.895
 6372SOL    HW220004   3.906   3.662   0.907
 6373SOL     OW20005   4.232   3.446   0.906
 6373SOL    HW120006   4.318   3.475   0.935
 6373SOL    HW220007   4.251   3.376   0.843
 6374SOL     OW20008   3.759   2.407   1.116
 6374SOL    HW120009   3.838   2.391   1.065
 6374SOL    HW220010   3.789   2.410   1.207
 6375SOL     OW20011   3.915   2.381   1.728
 6375SOL    HW120012   3.971   2.343   1.661
 6375SOL    HW220013   3.872   2.455   1.684
 6376SOL     OW20014   0.027   2.405   0.265
 6376SOL    HW120015   0.020   2.353   0.344
 6376SOL    HW220016   4.463   2.476   0.277
 6377SOL     OW20017   3.969   3.415   1.727
 6377SOL    HW120018   3.943   3.479   1.793
 6377SOL    HW220019   3.967   3.331   1.773
 6378SOL     OW20020   4.186   2.351   0.176
 6378SOL    HW120021   4.243   2.422   0.205
 6378SOL    HW220022   4.100   2.392   0.166
 6379SOL     OW20023   3.870   3.002   1.472
 6379SOL    HW120024   3.871   2.951   1.553
 6379SOL    HW220025   3.886   2.938   1.403
 6380SOL     OW20026   3.809   3.131   1.013
 6380SOL    HW120027   3.793   3.142   1.107
 6380SOL    HW220028   3.738   3.074   0.983
 6381SOL     OW20029   4.389   3.513   1.701
 6381SOL    HW120030   4.354   3.598   1.729
 6381SOL    HW220031   4.428   3.531   1.615
 6382SOL     OW20032   3.862   3.658   1.843
 6382SOL    HW120033   3.810   3.593   1.892
 6382SOL    HW220034   3.908   3.708   1.910
 6383SOL     OW20035   3.985   2.182   0.716
 6383SOL    HW120036   3.898   2.214   0.694
 6383SOL    HW220037   3.984   2.171   0.811
 6384SOL     OW20038   4.087   3.170   1.491
 6384SOL    HW120039   4.068   3.245   1.434
 6384SOL    HW220040   4.015   3.109   1.474
 6385SOL     OW20041   4.324   3.352   0.481
 6385SOL    HW120042   4.343   3.296   0.405
 6385SOL    HW220043   4.257   3.413   0.450
 6386SOL     OW20044   3.991   3.204   0.288
 6386SOL    HW120045   3.903   3.204   0.250
 6386SOL    HW220046   3.979   3.242   0.375
 6387SOL     OW20047   3.836   2.886   1.720
 6387SOL    HW120048   3.760   2.861   1.772
 6387SOL    HW220049   3.910   2.847   1.766
 6388SOL     OW20050   4.389   2.069   1.494
 6388SOL    HW120051   4.478   2.067   1.458
 6388SOL    HW220052   4.401   2.056   1.588
 6389SOL     OW20053   3.808   2.204   0.047
 6389SOL    HW120054   3.732   2.171  11.099
 6389SOL    HW220055   3.824   2.291   0.011
 6390SOL     OW20056   3.789   2.021   0.314
 6390SOL    HW120057   3.780   2.101   0.263
 6390SOL    HW220058   3.872   1.983   0.284
 6391SOL     OW20059   4.337   2.701   1.435
 6391SOL    HW120060   4.380   2.786   1.420
 6391SOL    HW220061   4.410   2.641   1.452
 6392SOL     OW20062   4.397   2.419   1.739
 6392SOL    HW120063   4.419   2.495   1.791
 6392SOL    HW220064   4.481   2.385   1.708
 6393SOL     OW20065   4.107   3.601   1.560
 6393SOL    HW120066   4.022   3.643   1.547
 6393SOL    HW220067   4.087   3.520   1.606
 6394SOL     OW20068   4.308   2.591   0.667
 6394SOL    HW120069   4.350   2.677   0.656
 6394SOL    HW220070   4.239   2.589   0.601
 6395SOL     OW20071   3.943   3.169   1.854
 6395SOL    HW120072   3.878   3.104   1.826
 6395SOL    HW220073   3.927   3.179   1.948
 6396SOL     OW20074   3.808   3.094   0.666
 6396SOL    HW120075   3.815   3.046   0.748
 6396SOL    HW220076   3.879   3.059   0.612
 6397SOL     OW20077   4.418   3.248   1.662
 6397SOL    HW120078   4.328   3.216   1.654
 6397SOL    HW220079   4.409   3.342   1.676
 6398SOL     OW20080   4.161   2.296   0.533
 6398SOL    HW120081   4.182   2.227   0.469
 6398SOL    HW220082   4.104   2.253   0.597
 6399SOL     OW20083   4.053   2.416   1.289
 6399SOL    HW120084   4.107   2.360   1.344
 6399SOL    HW220085   4.074   2.389   1.200
 6400SOL     OW20086   0.035   3.462   0.687
 6400SOL    HW120087   0.063   3.523   0.619
 6400SOL    HW220088   4.465   3.411   0.646
 6401SOL     OW20089   3.766   2.932   0.301
 6401SOL    HW120090   3.861   2.927   0.297
 6401SOL    HW220091   3.738   2.844   0.326
 6402SOL     OW20092   3.954   2.485   1.985
 6402SOL    HW120093   3.865   2.484   2.020
 6402SOL    HW220094   3.945   2.460   1.893
 6403SOL     OW20095   3.947   2.148   2.853
 6403SOL    HW120096   3.979   2.111   2.936
 6403SOL    HW220097   3.858   2.113   2.844
 6404SOL     OW20098   3.727   2.245   2.500
 6404SOL    HW120099   3.644   2.270   2.541
 6404SOL    HW220100   3.706   2.165   2.451
 6405SOL     OW20101   4.266   3.106   3.008
 6405SOL    HW120102   4.198   3.169   2.985
 6405SOL    HW220103   4.334   3.158   3.050
 6406SOL     OW20104   0.018   2.641   3.719
 6406SOL    HW120105   0.070   2.682   3.788
 6406SOL    HW220106   0.063   2.665   3.638
 6407SOL     OW20107   4.398   2.853   2.497
 6407SOL    HW120108   4.473   2.846   2.557
 6407SOL    HW220109   4.337   2.912   2.540
 6408SOL     OW20110   4.419   3.023   3.674
 6408SOL    HW120111   4.459   3.103   3.640
 6408SOL    HW220112   4.327   3.030   3.651
 6409SOL     OW20113   4.061   3.294   2.931
 6409SOL    HW120114   3.988   3.250   2.886
 6409SOL    HW220115   4.106   3.343   2.862
 6410SOL     OW20116   4.171   2.261   3.345
 6410SOL    HW120117   4.246   2.201   3.351
 6410SOL    HW220118   4.095   2.206   3.360
 6411SOL     OW20119   3.942   3.576   2.335
 6411SOL    HW120120   3.963   3.653   2.389
 6411SOL    HW220121   4.017   3.568   2.276
 6412SOL     OW20122   3.954   3.303   2.396
 6412SOL    HW120123   3.936   3.397   2.401
 6412SOL    HW220124   3.895   3.264   2.460
 6413SOL     OW20125   3.975   2.950   2.748
 6413SOL    HW120126   3.980   2.865   2.792
 6413SOL    HW220127   3.924   3.005   2.807
 6414SOL     OW20128   4.362   3.659   3.317
 6414SOL    HW120129   4.275   3.627   3.340
 6414SOL    HW220130   4.353   3.754   3.317
 6415SOL     OW20131   4.309   2.848   2.001
 6415SOL    HW120132   4.340   2.899   1.926
 6415SOL    HW220133   4.377   2.860   2.068
 6416SOL     OW20134   3.839   2.514   2.422
 6416SOL    HW120135   3.808   2.426   2.443
 6416SOL    HW220136   3.831   2.563   2.504
 6417SOL     OW20137   3.757   3.457   1.986
 6417SOL    HW120138   3.738   3.365   2.006
 6417SOL    HW220139   3.732   3.504   2.065
 6418SOL     OW20140   3.846   2.604   3.448
 6418SOL    HW120141   3.938   2.629   3.456
 6418SOL    HW220142   3.798   2.687   3.455
 6419SOL     OW20143   4.309   3.250   2.599
 6419SOL    HW120144   4.274   3.161   2.603
 6419SOL    HW220145   4.311   3.272   2.506
 6420SOL     OW20146   0.022   1.870   2.388
 6420SOL    HW120147   0.052   1.931   2.320
 6420SOL    HW220148   4.427   1.884   2.391
 6421SOL     OW20149   3.912   2.827   3.134
 6421SOL    HW120150   3.998   2.788   3.117
 6421SOL    HW220151   3.851   2.773   3.084
 6422SOL     OW20152   4.058   2.112   3.674
 6422SOL    HW120153   4.101   2.196   3.690
 6422SOL    HW220154   3.969   2.124   3.705
 6423SOL     OW20155   4.312   2.589   2.132
 6423SOL    HW120156   4.308   2.667   2.076
 6423SOL    HW220157   4.244   2.605   2.198
 6424SOL     OW20158   3.812   2.683   2.638
 6424SOL    HW120159   3.893   2.675   2.688
 6424SOL    HW220160   3.770   2.762   2.672
 6425SOL     OW20161   3.853   3.710   3.440
 6425SOL    HW120162   3.853   3.689   3.533
 6425SOL    HW220163   3.761   3.700   3.413
 6426SOL     OW20164   4.250   2.052   2.742
 6426SOL    HW120165   4.270   2.058   2.836
 6426SOL    HW220166   4.261   2.141   2.709
 6427SOL     OW20167   4.082   3.675   2.725
 6427SOL    HW120168   4.132   3.593   2.733
 6427SOL    HW220169   4.147   3.744   2.737
 6428SOL     OW20170   4.043   2.821   2.113
 6428SOL    HW120171   4.126   2.839   2.069
 6428SOL    HW220172   4.013   2.738   2.074
 6429SOL     OW20173   4.177   3.114   3.596
 6429SOL    HW120174   4.151   3.126   3.505
 6429SOL    HW220175   4.097   3.124   3.647
 6430SOL     OW20176   3.925   2.143   3.364
 6430SOL    HW120177   3.843   2.192   3.359
 6430SOL    HW220178   3.906   2.072   3.425
 6431SOL     OW20179   4.192   3.597   2.188
 6431SOL    HW120180   4.225   3.657   2.254
 6431SOL    HW220181   4.260   3.596   2.120
 6432SOL     OW20182   3.979   3.655   3.094
 6432SOL    HW120183   4.026   3.584   3.139
 6432SOL    HW220184   3.966   3.622   3.005
 6433SOL     OW20185   4.112   2.555   2.335
 6433SOL    HW120186   4.136   2.464   2.350
 6433SOL    HW220187   4.018   2.558   2.355
 6434SOL     OW20188   4.340   1.970   1.980
 6434SOL    HW120189   4.435   1.956   1.979
 6434SOL    HW220190   4.311   1.948   1.891
 6435SOL     OW20191   0.021   3.282   2.772
 6435SOL    HW120192   0.080   3.330   2.715
 6435SOL    HW220193   4.444   3.263   2.718
 6436SOL     OW20194   4.260   1.927   2.363
 6436SOL    HW120195   4.181   1.931   2.416
 6436SOL    HW220196   4.256   2.005   2.307
 6437SOL     OW20197   4.017   1.910   2.047
 6437SOL    HW120198   4.078   1.973   2.008
 6437SOL    HW220199   4.073   1.846   2.090
 6438SOL     OW20200   0.326   2.534   3.312
 6438SOL    HW120201   0.257   2.469   3.299
 6438SOL    HW220202   0.407   2.484   3.315
 6439SOL     OW20203   4.190   3.007   2.594
 6439SOL    HW120204   4.122   2.988   2.658
 6439SOL    HW220205   4.149   2.990   2.509
 6440SOL     OW20206   3.803   2.416   3.254
 6440SOL    HW120207   3.895   2.415   3.226
 6440SOL    HW220208   3.799   2.486   3.319
 6441SOL     OW20209   4.283   2.073   3.011
 6441SOL    HW120210   4.327   2.008   3.066
 6441SOL    HW220211   4.196   2.083   3.050
 6442SOL     OW20212   4.231   3.248   2.035
 6442SOL    HW120213   4.146   3.234   2.076
 6442SOL    HW220214   4.210   3.263   1.943
 6443SOL     OW20215   4.245   2.128   2.183
 6443SOL    HW120216   4.286   2.073   2.117
 6443SOL    HW220217   4.225   2.210   2.138
 6444SOL     OW20218   4.140   2.675   3.112
 6444SOL    HW120219   4.207   2.685   3.179
 6444SOL    HW220220   4.106   2.587   3.125
 6445SOL     OW20221   3.794   3.435   3.215
 6445SOL    HW120222   3.762   3.506   3.160
 6445SOL    HW220223   3.889   3.440   3.208
 6446SOL     OW20224   4.069   2.972   2.352
 6446SOL    HW120225   4.072   3.045   2.289
 6446SOL    HW220226   4.068   2.893   2.297
 6447SOL     OW20227   4.300   2.400   2.727
 6447SOL    HW120228   4.300   2.466   2.657
 6447SOL    HW220229   4.366   2.430   2.789
 6448SOL     OW20230   4.072   3.397   3.178
 6448SOL    HW120231   4.067   3.353   3.093
 6448SOL    HW220232   4.165   3.398   3.199
 6449SOL     OW20233   4.137   2.604   3.467
 6449SOL    HW120234   4.197   2.648   3.406
 6449SOL    HW220235   4.179   2.520   3.485
 6450SOL     OW20236   4.232   1.914   3.596
 6450SOL    HW120237   4.186   1.854   3.537
 6450SOL    HW220238   4.167   1.981   3.616
 6451SOL     OW20239   4.290   2.754   2.889
 6451SOL    HW120240   4.317   2.844   2.904
 6451SOL    HW220241   4.243   2.729   2.968
 6452SOL     OW20242   4.024   2.062   3.109
 6452SOL    HW120243   3.985   2.094   3.191
 6452SOL    HW220244   4.005   1.968   3.109
 6453SOL     OW20245   3.769   3.173   3.139
 6453SOL    HW120246   3.802   3.118   3.210
 6453SOL    HW220247   3.776   3.262   3.173
 6454SOL     OW20248   4.019   1.928   2.488
 6454SOL    HW120249   4.003   2.019   2.511
 6454SOL    HW220250   4.032   1.883   2.572
 6455SOL     OW20251   4.076   2.777   3.671
 6455SOL    HW120252   4.158   2.792   3.718
 6455SOL    HW220253   4.098   2.713   3.603
 6456SOL     OW20254   4.031   2.670   2.808
 6456SOL    HW120255   4.122   2.698   2.808
 6456SOL    HW220256   4.033   2.580   2.839
 6457SOL     OW20257   4.064   2.390   2.871
 6457SOL    HW120258   4.027   2.303   2.855
 6457SOL    HW220259   4.143   2.392   2.818
 6458SOL     OW20260   3.729   3.183   2.058
 6458SOL    HW120261   3.642   3.197   2.020
 6458SOL    HW220262   3.727   3.093   2.091
 6459SOL     OW20263   3.816   3.649   2.801
 6459SOL    HW120264   3.786   3.570   2.756
 6459SOL    HW220265   3.906   3.662   2.769
 6460SOL     OW20266   4.232   3.446   2.767
 6460SOL    HW120267   4.318   3.475   2.798
 6460SOL    HW220268   4.251   3.376   2.705
 6461SOL     OW20269   3.759   2.407   2.978
 6461SOL    HW120270   3.839   2.391   2.927
 6461SOL    HW220271   3.789   2.410   3.069
 6462SOL     OW20272   3.915   2.381   3.590
 6462SOL    HW120273   3.971   2.343   3.523
 6462SOL    HW220274   3.872   2.455   3.546
 6463SOL     OW20275   0.031   2.416   2.124
 6463SOL    HW120276   0.020   2.352   2.194
 6463SOL    HW220277   4.463   2.482   2.142
 6464SOL     OW20278   3.969   3.415   3.589
 6464SOL    HW120279   3.943   3.479   3.655
 6464SOL    HW220280   3.967   3.331   3.635
 6465SOL     OW20281   4.189   2.355   2.050
 6465SOL    HW120282   4.248   2.428   2.069
 6465SOL    HW220283   4.104   2.396   2.035
 6466SOL     OW20284   3.870   3.002   3.334
 6466SOL    HW120285   3.871   2.951   3.415
 6466SOL    HW220286   3.886   2.938   3.265
 6467SOL     OW20287   3.809   3.131   2.875
 6467SOL    HW120288   3.793   3.142   2.968
 6467SOL    HW220289   3.738   3.074   2.844
 6468SOL     OW20290   4.388   3.513   3.563
 6468SOL    HW120291   4.354   3.598   3.591
 6468SOL    HW220292   4.429   3.531   3.478
 6469SOL     OW20293   3.862   3.657   3.705
 6469SOL    HW120294   3.810   3.593   3.754
 6469SOL    HW220295   3.908   3.708   3.772
 6470SOL     OW20296   3.985   2.182   2.577
 6470SOL    HW120297   3.898   2.215   2.556
 6470SOL    HW220298   3.984   2.171   2.672
 6471SOL     OW20299   4.087   3.169   3.352
 6471SOL    HW120300   4.068   3.245   3.297
 6471SOL    HW220301   4.015   3.109   3.336
 6472SOL     OW20302   4.326   3.352   2.342
 6472SOL    HW120303   4.342   3.293   2.269
 6472SOL    HW220304   4.260   3.413   2.309
 6473SOL     OW20305   3.984   3.211   2.149
 6473SOL    HW120306   3.891   3.207   2.126
 6473SOL    HW220307   3.986   3.247   2.237
 6474SOL     OW20308   3.836   2.886   3.582
 6474SOL    HW120309   3.760   2.861   3.634
 6474SOL    HW220310   3.910   2.847   3.628
 6475SOL     OW20311   4.389   2.068   3.356
 6475SOL    HW120312   4.478   2.067   3.320
 6475SOL    HW220313   4.401   2.056   3.450
 6476SOL     OW20314   3.803   2.195   1.897
 6476SOL    HW120315   3.715   2.176   1.863
 6476SOL    HW220316   3.832   2.270   1.845
 6477SOL     OW20317   3.792   2.018   2.172
 6477SOL    HW120318   3.777   2.098   2.121
 6477SOL    HW220319   3.877   1.986   2.142
 6478SOL     OW20320   4.338   2.701   3.297
 6478SOL    HW120321   4.380   2.786   3.282
 6478SOL    HW220322   4.410   2.641   3.315
 6479SOL     OW20323   4.397   2.419   3.600
 6479SOL    HW120324   4.419   2.495   3.653
 6479SOL    HW220325   4.481   2.385   3.570
 6480SOL     OW20326   4.107   3.601   3.422
 6480SOL    HW120327   4.022   3.643   3.409
 6480SOL    HW220328   4.087   3.520   3.468
 6481SOL     OW20329   4.308   2.592   2.530
 6481SOL    HW120330   4.350   2.677   2.517
 6481SOL    HW220331   4.239   2.589   2.463
 6482SOL     OW20332   3.943   3.169   3.716
 6482SOL    HW120333   3.878   3.104   3.688
 6482SOL    HW220334   3.928   3.179   3.810
 6483SOL     OW20335   3.809   3.095   2.527
 6483SOL    HW120336   3.814   3.047   2.610
 6483SOL    HW220337   3.877   3.056   2.472
 6484SOL     OW20338   4.418   3.248   3.523
 6484SOL    HW120339   4.328   3.216   3.517
 6484SOL    HW220340   4.408   3.342   3.538
 6485SOL     OW20341   4.164   2.295   2.396
 6485SOL    HW120342   4.180   2.228   2.330
 6485SOL    HW220343   4.106   2.253   2.459
 6486SOL     OW20344   4.053   2.416   3.151
 6486SOL    HW120345   4.107   2.360   3.207
 6486SOL    HW220346   4.074   2.389   3.062
 6487SOL     OW20347   0.036   3.462   2.548
 6487SOL    HW120348   0.060   3.525   2.480
 6487SOL    HW220349   4.467   3.409   2.509
 6488SOL     OW20350   3.768   2.932   2.168
 6488SOL    HW120351   3.861   2.923   2.150
 6488SOL    HW220352   3.739   2.844   2.191
 6489SOL     OW20353   3.954   2.486   3.847
 6489SOL    HW120354   3.865   2.484   3.882
 6489SOL    HW220355   3.945   2.460   3.755
 6490SOL     OW20356   3.949   2.147   4.716
 6490SOL    HW120357   3.980   2.111   4.799
 6490SOL    HW220358   3.860   2.113   4.706
 6491SOL     OW20359   3.727   2.245   4.362
 6491SOL    HW120360   3.644   2.268   4.404
 6491SOL    HW220361   3.708   2.165   4.312
 6492SOL     OW20362   4.267   3.106   4.868
 6492SOL    HW120363   4.198   3.169   4.847
 6492SOL    HW220364   4.334   3.159   4.912
 6493SOL     OW20365   0.020   2.639   5.581
 6493SOL    HW120366   0.068   2.684   5.650
 6493SOL    HW220367   0.063   2.668   5.500
 6494SOL     OW20368   4.398   2.852   4.359
 6494SOL    HW120369   4.473   2.846   4.419
 6494SOL    HW220370   4.337   2.912   4.403
 6495SOL     OW20371   4.420   3.023   5.536
 6495SOL    HW120372   4.458   3.104   5.503
 6495SOL    HW220373   4.327   3.029   5.513
 6496SOL     OW20374   4.061   3.294   4.793
 6496SOL    HW120375   3.988   3.251   4.748
 6496SOL    HW220376   4.106   3.342   4.724
 6497SOL     OW20377   4.172   2.261   5.206
 6497SOL    HW120378   4.245   2.201   5.212
 6497SOL    HW220379   4.095   2.206   5.222
 6498SOL     OW20380   3.942   3.576   4.197
 6498SOL    HW120381   3.962   3.652   4.251
 6498SOL    HW220382   4.017   3.568   4.138
 6499SOL     OW20383   3.954   3.303   4.258
 6499SOL    HW120384   3.936   3.397   4.263
 6499SOL    HW220385   3.895   3.264   4.323
 6500SOL     OW20386   3.975   2.950   4.609
 6500SOL    HW120387   3.980   2.865   4.654
 6500SOL    HW220388   3.924   3.005   4.669
 6501SOL     OW20389   4.362   3.659   5.179
 6501SOL    HW120390   4.275   3.627   5.202
 6501SOL    HW220391   4.353   3.754   5.179
 6502SOL     OW20392   4.309   2.848   3.863
 6502SOL    HW120393   4.340   2.899   3.788
 6502SOL    HW220394   4.377   2.860   3.930
 6503SOL     OW20395   3.839   2.514   4.284
 6503SOL    HW120396   3.809   2.426   4.305
 6503SOL    HW220397   3.831   2.563   4.366
 6504SOL     OW20398   3.756   3.457   3.848
 6504SOL    HW120399   3.738   3.365   3.868
 6504SOL    HW220400   3.732   3.504   3.927
 6505SOL     OW20401   3.845   2.604   5.310
 6505SOL    HW120402   3.936   2.631   5.319
 6505SOL    HW220403   3.795   2.685   5.315
 6506SOL     OW20404   4.309   3.250   4.462
 6506SOL    HW120405   4.274   3.161   4.465
 6506SOL    HW220406   4.311   3.271   4.368
 6507SOL     OW20407   0.022   1.871   4.250
 6507SOL    HW120408   0.052   1.932   4.182
 6507SOL    HW220409   4.428   1.884   4.253
 6508SOL     OW20410   3.912   2.828   4.995
 6508SOL    HW120411   3.998   2.788   4.978
 6508SOL    HW220412   3.850   2.772   4.949
 6509SOL     OW20413   4.059   2.112   5.537
 6509SOL    HW120414   4.101   2.196   5.552
 6509SOL    HW220415   3.969   2.124   5.566
 6510SOL     OW20416   4.312   2.589   3.994
 6510SOL    HW120417   4.308   2.667   3.938
 6510SOL    HW220418   4.244   2.605   4.060
 6511SOL     OW20419   3.811   2.684   4.500
 6511SOL    HW120420   3.892   2.674   4.549
 6511SOL    HW220421   3.770   2.763   4.535
 6512SOL     OW20422   3.853   3.710   5.302
 6512SOL    HW120423   3.853   3.689   5.395
 6512SOL    HW220424   3.761   3.700   5.275
 6513SOL     OW20425   4.251   2.052   4.604
 6513SOL    HW120426   4.271   2.058   4.698
 6513SOL    HW220427   4.261   2.142   4.572
 6514SOL     OW20428   4.082   3.675   4.587
 6514SOL    HW120429   4.132   3.593   4.595
 6514SOL    HW220430   4.147   3.744   4.599
 6515SOL     OW20431   4.043   2.821   3.975
 6515SOL    HW120432   4.126   2.839   3.931
 6515SOL    HW220433   4.013   2.738   3.936
 6516SOL     OW20434   4.178   3.113   5.458
 6516SOL    HW120435   4.151   3.126   5.367
 6516SOL    HW220436   4.097   3.124   5.509
 6517SOL     OW20437   3.924   2.144   5.227
 6517SOL    HW120438   3.841   2.192   5.220
 6517SOL    HW220439   3.905   2.072   5.287
 6518SOL     OW20440   4.192   3.597   4.050
 6518SOL    HW120441   4.225   3.657   4.116
 6518SOL    HW220442   4.260   3.596   3.982
 6519SOL     OW20443   3.979   3.655   4.956
 6519SOL    HW120444   4.026   3.585   5.001
 6519SOL    HW220445   3.967   3.622   4.867
 6520SOL     OW20446   4.112   2.555   4.197
 6520SOL    HW120447   4.136   2.464   4.212
 6520SOL    HW220448   4.018   2.558   4.217
 6521SOL     OW20449   4.340   1.971   3.842
 6521SOL    HW120450   4.435   1.956   3.841
 6521SOL    HW220451   4.311   1.948   3.753
 6522SOL     OW20452   0.021   3.282   4.634
 6522SOL    HW120453   0.080   3.331   4.576
 6522SOL    HW220454   4.444   3.263   4.580
 6523SOL     OW20455   4.260   1.927   4.225
 6523SOL    HW120456   4.181   1.931   4.279
 6523SOL    HW220457   4.256   2.005   4.170
 6524SOL     OW20458   4.017   1.911   3.909
 6524SOL    HW120459   4.079   1.973   3.871
 6524SOL    HW220460   4.073   1.846   3.952
 6525SOL     OW20461   0.328   2.533   5.177
 6525SOL    HW120462   0.256   2.472   5.163
 6525SOL    HW220463   0.406   2.479   5.174
 6526SOL     OW20464   4.190   3.007   4.456
 6526SOL    HW120465   4.122   2.988   4.520
 6526SOL    HW220466   4.148   2.990   4.371
 6527SOL     OW20467   3.804   2.417   5.114
 6527SOL    HW120468   3.896   2.416   5.088
 6527SOL    HW220469   3.798   2.486   5.180
 6528SOL     OW20470   4.283   2.073   4.873
 6528SOL    HW120471   4.326   2.007   4.928
 6528SOL    HW220472   4.196   2.083   4.912
 6529SOL     OW20473   4.231   3.248   3.897
 6529SOL    HW120474   4.146   3.234   3.938
 6529SOL    HW220475   4.210   3.263   3.805
 6530SOL     OW20476   4.245   2.128   4.045
 6530SOL    HW120477   4.286   2.073   3.979
 6530SOL    HW220478   4.225   2.210   4.000
 6531SOL     OW20479   4.140   2.675   4.973
 6531SOL    HW120480   4.207   2.685   5.041
 6531SOL    HW220481   4.105   2.587   4.987
 6532SOL     OW20482   3.794   3.435   5.077
 6532SOL    HW120483   3.762   3.507   5.022
 6532SOL    HW220484   3.889   3.440   5.070
 6533SOL     OW20485   4.068   2.972   4.214
 6533SOL    HW120486   4.072   3.045   4.151
 6533SOL    HW220487   4.067   2.893   4.159
 6534SOL     OW20488   4.300   2.400   4.588
 6534SOL    HW120489   4.300   2.466   4.519
 6534SOL    HW220490   4.366   2.431   4.651
 6535SOL     OW20491   4.071   3.397   5.040
 6535SOL    HW120492   4.066   3.353   4.955
 6535SOL    HW220493   4.165   3.398   5.061
 6536SOL     OW20494   4.137   2.605   5.329
 6536SOL    HW120495   4.197   2.648   5.268
 6536SOL    HW220496   4.178   2.520   5.347
 6537SOL     OW20497   4.232   1.914   5.458
 6537SOL    HW120498   4.186   1.854   5.399
 6537SOL    HW220499   4.167   1.981   5.479
 6538SOL     OW20500   4.289   2.754   4.751
 6538SOL    HW120501   4.317   2.844   4.766
 6538SOL    HW220502   4.243   2.729   4.830
 6539SOL     OW20503   4.025   2.063   4.972
 6539SOL    HW120504   3.985   2.094   5.053
 6539SOL    HW220505   4.005   1.969   4.971
 6540SOL     OW20506   3.772   3.173   5.000
 6540SOL    HW120507   3.803   3.117   5.072
 6540SOL    HW220508   3.776   3.262   5.035
 6541SOL     OW20509   4.020   1.928   4.350
 6541SOL    HW120510   4.004   2.019   4.374
 6541SOL    HW220511   4.032   1.883   4.433
 6542SOL     OW20512   4.076   2.777   5.533
 6542SOL    HW120513   4.158   2.792   5.580
 6542SOL    HW220514   4.098   2.713   5.465
 6543SOL     OW20515   4.031   2.670   4.669
 6543SOL    HW120516   4.122   2.698   4.670
 6543SOL    HW220517   4.033   2.580   4.701
 6544SOL     OW20518   4.064   2.390   4.732
 6544SOL    HW120519   4.027   2.303   4.718
 6544SOL    HW220520   4.143   2.392   4.679
 6545SOL     OW20521   3.729   3.183   3.920
 6545SOL    HW120522   3.642   3.197   3.882
 6545SOL    HW220523   3.726   3.093   3.953
 6546SOL     OW20524   3.816   3.649   4.663
 6546SOL    HW120525   3.786   3.570   4.618
 6546SOL    HW220526   3.906   3.662   4.631
 6547SOL     OW20527   4.232   3.446   4.629
 6547SOL    HW120528   4.318   3.475   4.661
 6547SOL    HW220529   4.251   3.376   4.567
 6548SOL     OW20530   3.759   2.405   4.840
 6548SOL    HW120531   3.839   2.390   4.790
 6548SOL    HW220532   3.788   2.409   4.931
 6549SOL     OW20533   3.915   2.382   5.452
 6549SOL    HW120534   3.969   2.341   5.384
 6549SOL    HW220535   3.872   2.455   5.409
 6550SOL     OW20536   0.031   2.416   3.986
 6550SOL    HW120537   0.020   2.352   4.056
 6550SOL    HW220538   4.463   2.482   4.004
 6551SOL     OW20539   3.970   3.415   5.451
 6551SOL    HW120540   3.943   3.479   5.517
 6551SOL    HW220541   3.967   3.331   5.497
 6552SOL     OW20542   4.189   2.355   3.912
 6552SOL    HW120543   4.248   2.428   3.931
 6552SOL    HW220544   4.104   2.396   3.897
 6553SOL     OW20545   3.871   3.002   5.196
 6553SOL    HW120546   3.871   2.950   5.277
 6553SOL    HW220547   3.886   2.938   5.127
 6554SOL     OW20548   3.809   3.132   4.736
 6554SOL    HW120549   3.794   3.142   4.830
 6554SOL    HW220550   3.738   3.074   4.707
 6555SOL     OW20551   4.389   3.513   5.425
 6555SOL    HW120552   4.354   3.598   5.453
 6555SOL    HW220553   4.428   3.531   5.339
 6556SOL     OW20554   3.862   3.658   5.567
 6556SOL    HW120555   3.810   3.593   5.616
 6556SOL    HW220556   3.908   3.708   5.634
 6557SOL     OW20557   3.986   2.182   4.440
 6557SOL    HW120558   3.898   2.215   4.419
 6557SOL    HW220559   3.985   2.171   4.535
 6558SOL     OW20560   4.088   3.169   5.214
 6558SOL    HW120561   4.068   3.245   5.159
 6558SOL    HW220562   4.016   3.108   5.199
 6559SOL     OW20563   4.326   3.352   4.204
 6559SOL    HW120564   4.342   3.293   4.131
 6559SOL    HW220565   4.260   3.413   4.171
 6560SOL     OW20566   3.984   3.211   4.010
 6560SOL    HW120567   3.891   3.207   3.988
 6560SOL    HW220568   3.986   3.247   4.099
 6561SOL     OW20569   3.836   2.888   5.445
 6561SOL    HW120570   3.759   2.862   5.495
 6561SOL    HW220571   3.910   2.847   5.491
 6562SOL     OW20572   4.389   2.069   5.218
 6562SOL    HW120573   4.478   2.066   5.183
 6562SOL    HW220574   4.400   2.055   5.312
 6563SOL     OW20575   3.803   2.195   3.759
 6563SOL    HW120576   3.715   2.176   3.726
 6563SOL    HW220577   3.832   2.270   3.707
 6564SOL     OW20578   3.792   2.019   4.034
 6564SOL    HW120579   3.778   2.098   3.982
 6564SOL    HW220580   3.877   1.986   4.004
 6565SOL     OW20581   4.338   2.701   5.159
 6565SOL    HW120582   4.380   2.786   5.144
 6565SOL    HW220583   4.410   2.642   5.178
 6566SOL     OW20584   4.397   2.419   5.462
 6566SOL    HW120585   4.419   2.495   5.515
 6566SOL    HW220586   4.481   2.384   5.432
 6567SOL     OW20587   4.107   3.601   5.284
 6567SOL    HW120588   4.022   3.643   5.271
 6567SOL    HW220589   4.087   3.520   5.331
 6568SOL     OW20590   4.308   2.592   4.392
 6568SOL    HW120591   4.350   2.677   4.380
 6568SOL    HW220592   4.240   2.589   4.325
 6569SOL     OW20593   3.943   3.168   5.578
 6569SOL    HW120594   3.879   3.104   5.549
 6569SOL    HW220595   3.926   3.179   5.672
 6570SOL     OW20596   3.808   3.094   4.389
 6570SOL    HW120597   3.815   3.047   4.472
 6570SOL    HW220598   3.877   3.056   4.334
 6571SOL     OW20599   4.418   3.248   5.385
 6571SOL    HW120600   4.328   3.216   5.378
 6571SOL    HW220601   4.408   3.342   5.400
 6572SOL     OW20602   4.164   2.295   4.257
 6572SOL    HW120603   4.180   2.227   4.192
 6572SOL    HW220604   4.106   2.253   4.321
 6573SOL     OW20605   4.054   2.416   5.013
 6573SOL    HW120606   4.107   2.360   5.069
 6573SOL    HW220607   4.075   2.388   4.924
 6574SOL     OW20608   0.036   3.462   4.410
 6574SOL    HW120609   0.059   3.525   4.342
 6574SOL    HW220610   4.467   3.409   4.371
 6575SOL     OW20611   3.767   2.932   4.030
 6575SOL    HW120612   3.861   2.924   4.013
 6575SOL    HW220613   3.739   2.844   4.053
 6576SOL     OW20614   3.954   2.485   5.709
 6576SOL    HW120615   3.865   2.484   5.744
 6576SOL    HW220616   3.945   2.460   5.618
 6577SOL     OW20617   3.947   2.148   6.577
 6577SOL    HW120618   3.979   2.111   6.660
 6577SOL    HW220619   3.858   2.113   6.568
 6578SOL     OW20620   3.730   2.244   6.221
 6578SOL    HW120621   3.648   2.270   6.263
 6578SOL    HW220622   3.708   2.164   6.174
 6579SOL     OW20623   4.267   3.106   6.730
 6579SOL    HW120624   4.198   3.169   6.709
 6579SOL    HW220625   4.334   3.158   6.774
 6580SOL     OW20626   0.018   2.641   7.443
 6580SOL    HW120627   0.070   2.682   7.512
 6580SOL    HW220628   0.063   2.666   7.362
 6581SOL     OW20629   4.399   2.853   6.221
 6581SOL    HW120630   4.472   2.845   6.282
 6581SOL    HW220631   4.337   2.912   6.264
 6582SOL     OW20632   4.419   3.023   7.398
 6582SOL    HW120633   4.459   3.103   7.365
 6582SOL    HW220634   4.327   3.030   7.375
 6583SOL     OW20635   4.061   3.294   6.655
 6583SOL    HW120636   3.988   3.250   6.610
 6583SOL    HW220637   4.106   3.342   6.586
 6584SOL     OW20638   4.171   2.261   7.068
 6584SOL    HW120639   4.246   2.201   7.074
 6584SOL    HW220640   4.095   2.206   7.084
 6585SOL     OW20641   3.942   3.576   6.059
 6585SOL    HW120642   3.962   3.653   6.113
 6585SOL    HW220643   4.017   3.568   6.000
 6586SOL     OW20644   3.954   3.303   6.121
 6586SOL    HW120645   3.936   3.397   6.126
 6586SOL    HW220646   3.895   3.263   6.184
 6587SOL     OW20647   3.976   2.950   6.472
 6587SOL    HW120648   3.980   2.866   6.516
 6587SOL    HW220649   3.924   3.005   6.531
 6588SOL     OW20650   4.362   3.659   7.041
 6588SOL    HW120651   4.275   3.627   7.064
 6588SOL    HW220652   4.353   3.754   7.041
 6589SOL     OW20653   4.309   2.848   5.725
 6589SOL    HW120654   4.340   2.899   5.650
 6589SOL    HW220655   4.377   2.860   5.791
 6590SOL     OW20656   3.840   2.514   6.146
 6590SOL    HW120657   3.809   2.425   6.167
 6590SOL    HW220658   3.831   2.562   6.228
 6591SOL     OW20659   3.757   3.457   5.710
 6591SOL    HW120660   3.738   3.365   5.729
 6591SOL    HW220661   3.732   3.504   5.789
 6592SOL     OW20662   3.846   2.604   7.172
 6592SOL    HW120663   3.938   2.630   7.180
 6592SOL    HW220664   3.797   2.686   7.179
 6593SOL     OW20665   4.309   3.250   6.324
 6593SOL    HW120666   4.274   3.161   6.327
 6593SOL    HW220667   4.311   3.271   6.230
 6594SOL     OW20668   0.022   1.870   6.111
 6594SOL    HW120669   0.052   1.932   6.044
 6594SOL    HW220670   4.428   1.883   6.115
 6595SOL     OW20671   3.912   2.827   6.858
 6595SOL    HW120672   3.998   2.787   6.841
 6595SOL    HW220673   3.850   2.773   6.808
 6596SOL     OW20674   4.059   2.112   7.398
 6596SOL    HW120675   4.101   2.196   7.414
 6596SOL    HW220676   3.969   2.124   7.428
 6597SOL     OW20677   4.312   2.590   5.856
 6597SOL    HW120678   4.308   2.667   5.801
 6597SOL    HW220679   4.244   2.604   5.923
 6598SOL     OW20680   3.812   2.683   6.362
 6598SOL    HW120681   3.893   2.675   6.412
 6598SOL    HW220682   3.771   2.762   6.396
 6599SOL     OW20683   3.853   3.710   7.164
 6599SOL    HW120684   3.853   3.689   7.257
 6599SOL    HW220685   3.761   3.700   7.137
 6600SOL     OW20686   4.251   2.052   6.466
 6600SOL    HW120687   4.271   2.058   6.560
 6600SOL    HW220688   4.260   2.141   6.434
 6601SOL     OW20689   4.082   3.675   6.449
 6601SOL    HW120690   4.132   3.593   6.457
 6601SOL    HW220691   4.147   3.744   6.461
 6602SOL     OW20692   4.043   2.821   5.837
 6602SOL    HW120693   4.125   2.839   5.792
 6602SOL    HW220694   4.012   2.738   5.798
 6603SOL     OW20695   4.178   3.114   7.320
 6603SOL    HW120696   4.151   3.126   7.229
 6603SOL    HW220697   4.097   3.124   7.371
 6604SOL     OW20698   3.925   2.144   7.088
 6604SOL    HW120699   3.842   2.193   7.083
 6604SOL    HW220700   3.906   2.072   7.149
 6605SOL     OW20701   4.192   3.597   5.912
 6605SOL    HW120702   4.225   3.657   5.978
 6605SOL    HW220703   4.260   3.596   5.845
 6606SOL     OW20704   3.979   3.655   6.818
 6606SOL    HW120705   4.026   3.585   6.863
 6606SOL    HW220706   3.966   3.622   6.729
 6607SOL     OW20707   4.112   2.555   6.059
 6607SOL    HW120708   4.136   2.464   6.074
 6607SOL    HW220709   4.018   2.558   6.079
 6608SOL     OW20710   4.341   1.971   5.703
 6608SOL    HW120711   4.435   1.955   5.702
 6608SOL    HW220712   4.311   1.948   5.615
 6609SOL     OW20713   0.021   3.282   6.496
 6609SOL    HW120714   0.080   3.330   6.438
 6609SOL    HW220715   4.444   3.264   6.442
 6610SOL     OW20716   4.260   1.927   6.087
 6610SOL    HW120717   4.181   1.931   6.141
 6610SOL    HW220718   4.256   2.005   6.032
 6611SOL     OW20719   4.017   1.910   5.771
 6611SOL    HW120720   4.078   1.973   5.732
 6611SOL    HW220721   4.073   1.846   5.814
 6612SOL     OW20722   0.326   2.535   7.035
 6612SOL    HW120723   0.257   2.470   7.024
 6612SOL    HW220724   0.407   2.484   7.038
 6613SOL     OW20725   4.190   3.007   6.318
 6613SOL    HW120726   4.122   2.988   6.382
 6613SOL    HW220727   4.149   2.990   6.233
 6614SOL     OW20728   3.803   2.416   6.978
 6614SOL    HW120729   3.895   2.415   6.950
 6614SOL    HW220730   3.799   2.486   7.043
 6615SOL     OW20731   4.283   2.072   6.735
 6615SOL    HW120732   4.327   2.008   6.790
 6615SOL    HW220733   4.196   2.083   6.774
 6616SOL     OW20734   4.231   3.248   5.759
 6616SOL    HW120735   4.146   3.234   5.801
 6616SOL    HW220736   4.210   3.263   5.667
 6617SOL     OW20737   4.245   2.128   5.907
 6617SOL    HW120738   4.286   2.073   5.840
 6617SOL    HW220739   4.225   2.210   5.862
 6618SOL     OW20740   4.140   2.675   6.835
 6618SOL    HW120741   4.207   2.685   6.903
 6618SOL    HW220742   4.106   2.586   6.849
 6619SOL     OW20743   3.794   3.435   6.939
 6619SOL    HW120744   3.762   3.507   6.884
 6619SOL    HW220745   3.889   3.440   6.933
 6620SOL     OW20746   4.069   2.972   6.075
 6620SOL    HW120747   4.071   3.045   6.013
 6620SOL    HW220748   4.068   2.894   6.021
 6621SOL     OW20749   4.300   2.400   6.450
 6621SOL    HW120750   4.300   2.466   6.381
 6621SOL    HW220751   4.366   2.430   6.513
 6622SOL     OW20752   4.072   3.397   6.902
 6622SOL    HW120753   4.067   3.353   6.817
 6622SOL    HW220754   4.165   3.398   6.923
 6623SOL     OW20755   4.137   2.604   7.191
 6623SOL    HW120756   4.197   2.648   7.130
 6623SOL    HW220757   4.179   2.520   7.209
 6624SOL     OW20758   4.232   1.914   7.319
 6624SOL    HW120759   4.186   1.854   7.261
 6624SOL    HW220760   4.168   1.981   7.340
 6625SOL     OW20761   4.290   2.754   6.613
 6625SOL    HW120762   4.317   2.844   6.628
 6625SOL    HW220763   4.243   2.729   6.692
 6626SOL     OW20764   4.024   2.062   6.833
 6626SOL    HW120765   3.985   2.094   6.915
 6626SOL    HW220766   4.005   1.968   6.833
 6627SOL     OW20767   3.770   3.173   6.862
 6627SOL    HW120768   3.803   3.118   6.934
 6627SOL    HW220769   3.776   3.262   6.897
 6628SOL     OW20770   4.020   1.928   6.212
 6628SOL    HW120771   4.004   2.019   6.235
 6628SOL    HW220772   4.032   1.883   6.295
 6629SOL     OW20773   4.076   2.777   7.395
 6629SOL    HW120774   4.158   2.792   7.442
 6629SOL    HW220775   4.099   2.713   7.327
 6630SOL     OW20776   4.031   2.670   6.532
 6630SOL    HW120777   4.122   2.698   6.532
 6630SOL    HW220778   4.033   2.580   6.563
 6631SOL     OW20779   4.064   2.390   6.594
 6631SOL    HW120780   4.027   2.302   6.579
 6631SOL    HW220781   4.143   2.392   6.541
 6632SOL     OW20782   3.730   3.183   5.782
 6632SOL    HW120783   3.643   3.197   5.744
 6632SOL    HW220784   3.727   3.093   5.815
 6633SOL     OW20785   3.816   3.649   6.525
 6633SOL    HW120786   3.786   3.570   6.480
 6633SOL    HW220787   3.906   3.662   6.493
 6634SOL     OW20788   4.232   3.446   6.491
 6634SOL    HW120789   4.318   3.474   6.523
 6634SOL    HW220790   4.251   3.376   6.429
 6635SOL     OW20791   3.760   2.407   6.702
 6635SOL    HW120792   3.839   2.391   6.651
 6635SOL    HW220793   3.789   2.410   6.793
 6636SOL     OW20794   3.915   2.381   7.314
 6636SOL    HW120795   3.971   2.343   7.247
 6636SOL    HW220796   3.872   2.455   7.270
 6637SOL     OW20797   0.031   2.416   5.849
 6637SOL    HW120798   0.020   2.352   5.919
 6637SOL    HW220799   4.463   2.482   5.866
 6638SOL     OW20800   3.969   3.415   7.313
 6638SOL    HW120801   3.943   3.479   7.379
 6638SOL    HW220802   3.967   3.331   7.359
 6639SOL     OW20803   4.189   2.355   5.774
 6639SOL    HW120804   4.247   2.428   5.794
 6639SOL    HW220805   4.104   2.396   5.759
 6640SOL     OW20806   3.870   3.002   7.058
 6640SOL    HW120807   3.871   2.950   7.139
 6640SOL    HW220808   3.886   2.938   6.989
 6641SOL     OW20809   3.809   3.132   6.598
 6641SOL    HW120810   3.793   3.142   6.692
 6641SOL    HW220811   3.738   3.074   6.568
 6642SOL     OW20812   4.388   3.513   7.287
 6642SOL    HW120813   4.354   3.598   7.315
 6642SOL    HW220814   4.429   3.531   7.202
 6643SOL     OW20815   3.862   3.658   7.429
 6643SOL    HW120816   3.810   3.593   7.478
 6643SOL    HW220817   3.908   3.708   7.496
 6644SOL     OW20818   3.986   2.182   6.302
 6644SOL    HW120819   3.899   2.214   6.279
 6644SOL    HW220820   3.984   2.171   6.397
 6645SOL     OW20821   4.088   3.169   7.076
 6645SOL    HW120822   4.068   3.245   7.021
 6645SOL    HW220823   4.015   3.109   7.060
 6646SOL     OW20824   4.326   3.352   6.066
 6646SOL    HW120825   4.342   3.293   5.993
 6646SOL    HW220826   4.260   3.413   6.033
 6647SOL     OW20827   3.984   3.211   5.873
 6647SOL    HW120828   3.891   3.207   5.850
 6647SOL    HW220829   3.986   3.247   5.961
 6648SOL     OW20830   3.836   2.885   7.306
 6648SOL    HW120831   3.760   2.861   7.358
 6648SOL    HW220832   3.910   2.847   7.352
 6649SOL     OW20833   4.390   2.068   7.080
 6649SOL    HW120834   4.479   2.067   7.045
 6649SOL    HW220835   4.401   2.056   7.174
 6650SOL     OW20836   3.802   2.195   5.620
 6650SOL    HW120837   3.715   2.175   5.586
 6650SOL    HW220838   3.832   2.270   5.570
 6651SOL     OW20839   3.792   2.018   5.896
 6651SOL    HW120840   3.778   2.098   5.845
 6651SOL    HW220841   3.877   1.986   5.865
 6652SOL     OW20842   4.338   2.701   7.021
 6652SOL    HW120843   4.380   2.786   7.007
 6652SOL    HW220844   4.410   2.641   7.039
 6653SOL     OW20845   4.397   2.419   7.324
 6653SOL    HW120846   4.419   2.496   7.377
 6653SOL    HW220847   4.481   2.385   7.294
 6654SOL     OW20848   4.107   3.601   7.146
 6654SOL    HW120849   4.022   3.643   7.133
 6654SOL    HW220850   4.087   3.520   7.193
 6655SOL     OW20851   4.308   2.592   6.254
 6655SOL    HW120852   4.350   2.677   6.241
 6655SOL    HW220853   4.240   2.589   6.187
 6656SOL     OW20854   3.943   3.169   7.440
 6656SOL    HW120855   3.878   3.104   7.412
 6656SOL    HW220856   3.928   3.179   7.534
 6657SOL     OW20857   3.808   3.095   6.251
 6657SOL    HW120858   3.813   3.047   6.334
 6657SOL    HW220859   3.877   3.056   6.197
 6658SOL     OW20860   4.418   3.248   7.247
 6658SOL    HW120861   4.328   3.216   7.241
 6658SOL    HW220862   4.408   3.342   7.262
 6659SOL     OW20863   4.164   2.295   6.120
 6659SOL    HW120864   4.180   2.227   6.054
 6659SOL    HW220865   4.106   2.253   6.183
 6660SOL     OW20866   4.053   2.416   6.875
 6660SOL    HW120867   4.107   2.360   6.931
 6660SOL    HW220868   4.074   2.388   6.786
 6661SOL     OW20869   0.036   3.462   6.272
 6661SOL    HW120870   0.059   3.526   6.204
 6661SOL    HW220871   4.467   3.409   6.233
 6662SOL     OW20872   3.768   2.932   5.892
 6662SOL    HW120873   3.861   2.923   5.875
 6662SOL    HW220874   3.738   2.844   5.915
 6663SOL     OW20875   3.954   2.486   7.571
 6663SOL    HW120876   3.865   2.484   7.606
 6663SOL    HW220877   3.944   2.460   7.480
 6664SOL     OW20878   3.947   2.147   8.439
 6664SOL    HW120879   3.979   2.111   8.522
 6664SOL    HW220880   3.858   2.113   8.430
 6665SOL     OW20881   3.727   2.245   8.086
 6665SOL    HW120882   3.644   2.271   8.127
 6665SOL    HW220883   3.706   2.165   8.038
 6666SOL     OW20884   4.266   3.106   8.593
 6666SOL    HW120885   4.198   3.169   8.571
 6666SOL    HW220886   4.334   3.159   8.636
 6667SOL     OW20887   0.018   2.641   9.305
 6667SOL    HW120888   0.070   2.682   9.374
 6667SOL    HW220889   0.063   2.666   9.224
 6668SOL     OW20890   4.399   2.853   8.083
 6668SOL    HW120891   4.472   2.846   8.143
 6668SOL    HW220892   4.337   2.912   8.126
 6669SOL     OW20893   4.419   3.023   9.260
 6669SOL    HW120894   4.459   3.103   9.227
 6669SOL    HW220895   4.327   3.030   9.237
 6670SOL     OW20896   4.061   3.294   8.517
 6670SOL    HW120897   3.988   3.250   8.472
 6670SOL    HW220898   4.106   3.342   8.448
 6671SOL     OW20899   4.171   2.261   8.931
 6671SOL    HW120900   4.246   2.201   8.937
 6671SOL    HW220901   4.095   2.206   8.946
 6672SOL     OW20902   3.942   3.576   7.921
 6672SOL    HW120903   3.963   3.653   7.975
 6672SOL    HW220904   4.017   3.568   7.862
 6673SOL     OW20905   3.954   3.303   7.982
 6673SOL    HW120906   3.935   3.397   7.988
 6673SOL    HW220907   3.895   3.263   8.046
 6674SOL     OW20908   3.976   2.950   8.334
 6674SOL    HW120909   3.980   2.865   8.378
 6674SOL    HW220910   3.924   3.005   8.393
 6675SOL     OW20911   4.362   3.659   8.903
 6675SOL    HW120912   4.275   3.627   8.926
 6675SOL    HW220913   4.353   3.754   8.903
 6676SOL     OW20914   4.309   2.848   7.587
 6676SOL    HW120915   4.340   2.899   7.512
 6676SOL    HW220916   4.377   2.860   7.654
 6677SOL     OW20917   3.840   2.514   8.008
 6677SOL    HW120918   3.808   2.426   8.029
 6677SOL    HW220919   3.831   2.563   8.090
 6678SOL     OW20920   3.757   3.457   7.572
 6678SOL    HW120921   3.738   3.365   7.591
 6678SOL    HW220922   3.732   3.504   7.651
 6679SOL     OW20923   3.846   2.604   9.034
 6679SOL    HW120924   3.937   2.630   9.042
 6679SOL    HW220925   3.797   2.686   9.040
 6680SOL     OW20926   4.309   3.250   8.185
 6680SOL    HW120927   4.274   3.161   8.189
 6680SOL    HW220928   4.311   3.271   8.092
 6681SOL     OW20929   0.022   1.870   7.974
 6681SOL    HW120930   0.052   1.931   7.906
 6681SOL    HW220931   4.427   1.884   7.977
 6682SOL     OW20932   3.912   2.827   8.721
 6682SOL    HW120933   3.997   2.787   8.703
 6682SOL    HW220934   3.850   2.774   8.670
 6683SOL     OW20935   4.058   2.112   9.260
 6683SOL    HW120936   4.101   2.196   9.276
 6683SOL    HW220937   3.969   2.124   9.291
 6684SOL     OW20938   4.312   2.589   7.718
 6684SOL    HW120939   4.308   2.667   7.663
 6684SOL    HW220940   4.244   2.604   7.785
 6685SOL     OW20941   3.812   2.683   8.223
 6685SOL    HW120942   3.893   2.675   8.274
 6685SOL    HW220943   3.770   2.762   8.258
 6686SOL     OW20944   3.853   3.711   9.026
 6686SOL    HW120945   3.853   3.690   9.119
 6686SOL    HW220946   3.762   3.699   8.999
 6687SOL     OW20947   4.251   2.052   8.328
 6687SOL    HW120948   4.270   2.058   8.422
 6687SOL    HW220949   4.260   2.141   8.296
 6688SOL     OW20950   4.082   3.675   8.311
 6688SOL    HW120951   4.132   3.593   8.319
 6688SOL    HW220952   4.147   3.744   8.323
 6689SOL     OW20953   4.043   2.821   7.699
 6689SOL    HW120954   4.126   2.839   7.654
 6689SOL    HW220955   4.013   2.738   7.661
 6690SOL     OW20956   4.177   3.114   9.182
 6690SOL    HW120957   4.151   3.126   9.091
 6690SOL    HW220958   4.097   3.124   9.233
 6691SOL     OW20959   3.924   2.144   8.950
 6691SOL    HW120960   3.843   2.193   8.944
 6691SOL    HW220961   3.905   2.073   9.012
 6692SOL     OW20962   4.192   3.597   7.774
 6692SOL    HW120963   4.225   3.657   7.840
 6692SOL    HW220964   4.260   3.596   7.707
 6693SOL     OW20965   3.980   3.655   8.680
 6693SOL    HW120966   4.026   3.584   8.725
 6693SOL    HW220967   3.966   3.622   8.591
 6694SOL     OW20968   4.112   2.555   7.921
 6694SOL    HW120969   4.136   2.464   7.936
 6694SOL    HW220970   4.018   2.558   7.941
 6695SOL     OW20971   4.340   1.971   7.566
 6695SOL    HW120972   4.435   1.956   7.565
 6695SOL    HW220973   4.312   1.948   7.477
 6696SOL     OW20974   0.021   3.282   8.359
 6696SOL    HW120975   0.080   3.330   8.301
 6696SOL    HW220976   4.444   3.264   8.304
 6697SOL     OW20977   4.260   1.927   7.949
 6697SOL    HW120978   4.181   1.931   8.003
 6697SOL    HW220979   4.256   2.005   7.894
 6698SOL     OW20980   4.017   1.910   7.633
 6698SOL    HW120981   4.078   1.973   7.595
 6698SOL    HW220982   4.073   1.846   7.676
 6699SOL     OW20983   0.326   2.534   8.898
 6699SOL    HW120984   0.257   2.469   8.885
 6699SOL    HW220985   0.407   2.484   8.900
 6700SOL     OW20986   4.190   3.007   8.180
 6700SOL    HW120987   4.122   2.988   8.244
 6700SOL    HW220988   4.149   2.990   8.095
 6701SOL     OW20989   3.803   2.416   8.840
 6701SOL    HW120990   3.895   2.415   8.812
 6701SOL    HW220991   3.799   2.486   8.905
 6702SOL     OW20992   4.283   2.072   8.597
 6702SOL    HW120993   4.327   2.008   8.652
 6702SOL    HW220994   4.196   2.083   8.636
 6703SOL     OW20995   4.231   3.248   7.621
 6703SOL    HW120996   4.146   3.234   7.663
 6703SOL    HW220997   4.210   3.263   7.529
 6704SOL     OW20998   4.245   2.128   7.769
 6704SOL    HW120999   4.286   2.073   7.702
 6704SOL    HW221000   4.225   2.210   7.724
 6705SOL     OW21001   4.140   2.675   8.698
 6705SOL    HW121002   4.207   2.685   8.765
 6705SOL    HW221003   4.106   2.587   8.711
 6706SOL     OW21004   3.794   3.435   8.802
 6706SOL    HW121005   3.762   3.506   8.746
 6706SOL    HW221006   3.889   3.440   8.794
 6707SOL     OW21007   4.069   2.972   7.938
 6707SOL    HW121008   4.071   3.045   7.875
 6707SOL    HW221009   4.068   2.893   7.883
 6708SOL     OW21010   4.300   2.400   8.312
 6708SOL    HW121011   4.300   2.466   8.243
 6708SOL    HW221012   4.366   2.430   8.375
 6709SOL     OW21013   4.072   3.397   8.764
 6709SOL    HW121014   4.066   3.353   8.679
 6709SOL    HW221015   4.165   3.398   8.785
 6710SOL     OW21016   4.137   2.604   9.053
 6710SOL    HW121017   4.197   2.648   8.992
 6710SOL    HW221018   4.179   2.520   9.071
 6711SOL     OW21019   4.232   1.914   9.182
 6711SOL    HW121020   4.186   1.854   9.123
 6711SOL    HW221021   4.167   1.981   9.202
 6712SOL     OW21022   4.290   2.754   8.475
 6712SOL    HW121023   4.317   2.844   8.490
 6712SOL    HW221024   4.243   2.729   8.554
 6713SOL     OW21025   4.024   2.062   8.695
 6713SOL    HW121026   3.985   2.094   8.777
 6713SOL    HW221027   4.004   1.968   8.695
 6714SOL     OW21028   3.771   3.173   8.725
 6714SOL    HW121029   3.803   3.118   8.796
 6714SOL    HW221030   3.776   3.262   8.759
 6715SOL     OW21031   4.020   1.928   8.074
 6715SOL    HW121032   4.003   2.019   8.097
 6715SOL    HW221033   4.032   1.883   8.158
 6716SOL     OW21034   4.076   2.777   9.257
 6716SOL    HW121035   4.158   2.792   9.304
 6716SOL    HW221036   4.098   2.713   9.189
 6717SOL     OW21037   4.031   2.670   8.394
 6717SOL    HW121038   4.122   2.698   8.394
 6717SOL    HW221039   4.033   2.580   8.425
 6718SOL     OW21040   4.064   2.390   8.457
 6718SOL    HW121041   4.027   2.303   8.441
 6718SOL    HW221042   4.143   2.392   8.404
 6719SOL     OW21043   3.729   3.183   7.643
 6719SOL    HW121044   3.642   3.197   7.605
 6719SOL    HW221045   3.726   3.093   7.677
 6720SOL     OW21046   3.816   3.649   8.387
 6720SOL    HW121047   3.786   3.570   8.342
 6720SOL    HW221048   3.906   3.662   8.355
 6721SOL     OW21049   4.232   3.446   8.353
 6721SOL    HW121050   4.318   3.474   8.384
 6721SOL    HW221051   4.251   3.376   8.291
 6722SOL     OW21052   3.759   2.406   8.564
 6722SOL    HW121053   3.839   2.391   8.513
 6722SOL    HW221054   3.789   2.410   8.655
 6723SOL     OW21055   3.915   2.381   9.176
 6723SOL    HW121056   3.971   2.343   9.109
 6723SOL    HW221057   3.872   2.455   9.132
 6724SOL     OW21058   0.031   2.416   7.710
 6724SOL    HW121059   0.021   2.352   7.781
 6724SOL    HW221060   4.463   2.481   7.728
 6725SOL     OW21061   3.969   3.415   9.175
 6725SOL    HW121062   3.943   3.479   9.241
 6725SOL    HW221063   3.967   3.331   9.221
 6726SOL     OW21064   4.189   2.355   7.636
 6726SOL    HW121065   4.248   2.428   7.656
 6726SOL    HW221066   4.104   2.396   7.621
 6727SOL     OW21067   3.870   3.002   8.921
 6727SOL    HW121068   3.871   2.951   9.001
 6727SOL    HW221069   3.886   2.938   8.851
 6728SOL     OW21070   3.809   3.131   8.460
 6728SOL    HW121071   3.793   3.142   8.554
 6728SOL    HW221072   3.738   3.075   8.430
 6729SOL     OW21073   4.389   3.513   9.149
 6729SOL    HW121074   4.354   3.598   9.177
 6729SOL    HW221075   4.428   3.531   9.063
 6730SOL     OW21076   3.862   3.658   9.291
 6730SOL    HW121077   3.810   3.593   9.340
 6730SOL    HW221078   3.908   3.708   9.358
 6731SOL     OW21079   3.985   2.182   8.163
 6731SOL    HW121080   3.898   2.215   8.142
 6731SOL    HW221081   3.984   2.171   8.258
 6732SOL     OW21082   4.088   3.169   8.938
 6732SOL    HW121083   4.068   3.245   8.883
 6732SOL    HW221084   4.015   3.109   8.922
 6733SOL     OW21085   4.326   3.352   7.928
 6733SOL    HW121086   4.342   3.293   7.855
 6733SOL    HW221087   4.259   3.413   7.895
 6734SOL     OW21088   3.984   3.211   7.734
 6734SOL    HW121089   3.891   3.207   7.712
 6734SOL    HW221090   3.986   3.247   7.823
 6735SOL     OW21091   3.836   2.886   9.168
 6735SOL    HW121092   3.760   2.861   9.220
 6735SOL    HW221093   3.910   2.847   9.215
 6736SOL     OW21094   4.390   2.068   8.942
 6736SOL    HW121095   4.478   2.067   8.906
 6736SOL    HW221096   4.401   2.056   9.036
 6737SOL     OW21097   3.803   2.194   7.483
 6737SOL    HW121098   3.715   2.176   7.451
 6737SOL    HW221099   3.832   2.270   7.431
 6738SOL     OW21100   3.792   2.018   7.758
 6738SOL    HW121101   3.777   2.098   7.707
 6738SOL    HW221102   3.877   1.986   7.728
 6739SOL     OW21103   4.337   2.701   8.883
 6739SOL    HW121104   4.380   2.786   8.868
 6739SOL    HW221105   4.410   2.641   8.901
 6740SOL     OW21106   4.397   2.419   9.186
 6740SOL    HW121107   4.419   2.495   9.239
 6740SOL    HW221108   4.481   2.385   9.156
 6741SOL     OW21109   4.107   3.601   9.008
 6741SOL    HW121110   4.022   3.643   8.995
 6741SOL    HW221111   4.087   3.520   9.055
 6742SOL     OW21112   4.308   2.592   8.116
 6742SOL    HW121113   4.350   2.677   8.103
 6742SOL    HW221114   4.239   2.589   8.049
 6743SOL     OW21115   3.943   3.169   9.302
 6743SOL    HW121116   3.878   3.104   9.274
 6743SOL    HW221117   3.927   3.179   9.396
 6744SOL     OW21118   3.809   3.095   8.113
 6744SOL    HW121119   3.813   3.047   8.196
 6744SOL    HW221120   3.877   3.055   8.059
 6745SOL     OW21121   4.418   3.248   9.109
 6745SOL    HW121122   4.328   3.216   9.102
 6745SOL    HW221123   4.408   3.342   9.124
 6746SOL     OW21124   4.164   2.295   7.982
 6746SOL    HW121125   4.180   2.227   7.916
 6746SOL    HW221126   4.106   2.253   8.045
 6747SOL     OW21127   4.053   2.416   8.737
 6747SOL    HW121128   4.107   2.360   8.793
 6747SOL    HW221129   4.074   2.389   8.648
 6748SOL     OW21130   0.036   3.462   8.134
 6748SOL    HW121131   0.059   3.525   8.066
 6748SOL    HW221132   4.467   3.409   8.095
 6749SOL     OW21133   3.768   2.932   7.754
 6749SOL    HW121134   3.862   2.923   7.736
 6749SOL    HW221135   3.739   2.844   7.777
 6750SOL     OW21136   3.954   2.485   9.433
 6750SOL    HW121137   3.865   2.484   9.468
 6750SOL    HW221138   3.944   2.460   9.341
 6751SOL     OW21139   3.947   2.148  10.301
 6751SOL    HW121140   3.979   2.111  10.384
 6751SOL    HW221141   3.858   2.113  10.292
 6752SOL     OW21142   3.727   2.245   9.948
 6752SOL    HW121143   3.644   2.270   9.989
 6752SOL    HW221144   3.706   2.165   9.899
 6753SOL     OW21145   4.266   3.106  10.456
 6753SOL    HW121146   4.198   3.169  10.433
 6753SOL    HW221147   4.334   3.159  10.499
 6754SOL     OW21148   0.024   2.675   0.079
 6754SOL    HW121149   0.103   2.707   0.120
 6754SOL    HW221150   0.050   2.653  11.089
 6755SOL     OW21151   4.399   2.853   9.945
 6755SOL    HW121152   4.472   2.845  10.005
 6755SOL    HW221153   4.337   2.912   9.988
 6756SOL     OW21154   4.062   3.293  10.378
 6756SOL    HW121155   3.988   3.250  10.334
 6756SOL    HW221156   4.106   3.342  10.309
 6757SOL     OW21157   4.177   2.264  10.796
 6757SOL    HW121158   4.246   2.197  10.798
 6757SOL    HW221159   4.097   2.216  10.816
 6758SOL     OW21160   3.942   3.576   9.783
 6758SOL    HW121161   3.963   3.653   9.837
 6758SOL    HW221162   4.017   3.568   9.724
 6759SOL     OW21163   3.954   3.303   9.844
 6759SOL    HW121164   3.935   3.397   9.850
 6759SOL    HW221165   3.895   3.263   9.908
 6760SOL     OW21166   3.976   2.950  10.196
 6760SOL    HW121167   3.980   2.866  10.241
 6760SOL    HW221168   3.924   3.006  10.255
 6761SOL     OW21169   4.355   3.664  10.753
 6761SOL    HW121170   4.269   3.633  10.781
 6761SOL    HW221171   4.353   3.758  10.767
 6762SOL     OW21172   4.309   2.848   9.449
 6762SOL    HW121173   4.340   2.899   9.374
 6762SOL    HW221174   4.377   2.860   9.516
 6763SOL     OW21175   3.840   2.514   9.870
 6763SOL    HW121176   3.808   2.426   9.891
 6763SOL    HW221177   3.831   2.563   9.952
 6764SOL     OW21178   3.757   3.457   9.434
 6764SOL    HW121179   3.738   3.365   9.453
 6764SOL    HW221180   3.732   3.504   9.513
 6765SOL     OW21181   3.849   2.588  10.916
 6765SOL    HW121182   3.942   2.611  10.905
 6765SOL    HW221183   3.803   2.672  10.909
 6766SOL     OW21184   4.309   3.250  10.048
 6766SOL    HW121185   4.274   3.161  10.051
 6766SOL    HW221186   4.311   3.271   9.954
 6767SOL     OW21187   0.022   1.870   9.836
 6767SOL    HW121188   0.052   1.931   9.768
 6767SOL    HW221189   4.427   1.884   9.839
 6768SOL     OW21190   3.912   2.825  10.580
 6768SOL    HW121191   3.997   2.785  10.561
 6768SOL    HW221192   3.849   2.771  10.531
 6769SOL     OW21193   4.067   2.119   0.018
 6769SOL    HW121194   4.117   2.194   0.050
 6769SOL    HW221195   3.976   2.141   0.033
 6770SOL     OW21196   4.312   2.589   9.580
 6770SOL    HW121197   4.308   2.667   9.524
 6770SOL    HW221198   4.244   2.604   9.647
 6771SOL     OW21199   3.812   2.683  10.086
 6771SOL    HW121200   3.893   2.675  10.136
 6771SOL    HW221201   3.770   2.762  10.120
 6772SOL     OW21202   3.855   3.706  10.897
 6772SOL    HW121203   3.837   3.670  10.983
 6772SOL    HW221204   3.771   3.703  10.851
 6773SOL     OW21205   4.251   2.052  10.191
 6773SOL    HW121206   4.271   2.059  10.284
 6773SOL    HW221207   4.261   2.141  10.158
 6774SOL     OW21208   4.082   3.675  10.173
 6774SOL    HW121209   4.132   3.593  10.181
 6774SOL    HW221210   4.147   3.744  10.185
 6775SOL     OW21211   4.043   2.821   9.561
 6775SOL    HW121212   4.126   2.839   9.516
 6775SOL    HW221213   4.013   2.738   9.522
 6776SOL     OW21214   4.177   3.125  11.055
 6776SOL    HW121215   4.152   3.139  10.964
 6776SOL    HW221216   4.107   3.071  11.092
 6777SOL     OW21217   3.928   2.142  10.807
 6777SOL    HW121218   3.846   2.192  10.804
 6777SOL    HW221219   3.912   2.074  10.873
 6778SOL     OW21220   4.192   3.597   9.636
 6778SOL    HW121221   4.225   3.657   9.702
 6778SOL    HW221222   4.260   3.596   9.568
 6779SOL     OW21223   3.980   3.655  10.543
 6779SOL    HW121224   4.026   3.584  10.588
 6779SOL    HW221225   3.967   3.621  10.454
 6780SOL     OW21226   4.112   2.555   9.783
 6780SOL    HW121227   4.136   2.464   9.798
 6780SOL    HW221228   4.018   2.558   9.803
 6781SOL     OW21229   4.340   1.970   9.428
 6781SOL    HW121230   4.435   1.956   9.427
 6781SOL    HW221231   4.312   1.948   9.339
 6782SOL     OW21232   0.021   3.282  10.220
 6782SOL    HW121233   0.080   3.330  10.162
 6782SOL    HW221234   4.444   3.264  10.166
 6783SOL     OW21235   4.260   1.927   9.811
 6783SOL    HW121236   4.181   1.931   9.864
 6783SOL    HW221237   4.256   2.005   9.756
 6784SOL     OW21238   4.017   1.910   9.495
 6784SOL    HW121239   4.078   1.973   9.456
 6784SOL    HW221240   4.073   1.846   9.538
 6785SOL     OW21241   0.312   2.537  10.765
 6785SOL    HW121242   0.253   2.461  10.768
 6785SOL    HW221243   0.400   2.498  10.764
 6786SOL     OW21244   4.190   3.007  10.042
 6786SOL    HW121245   4.122   2.988  10.106
 6786SOL    HW221246   4.149   2.990   9.957
 6787SOL     OW21247   3.802   2.415  10.705
 6787SOL    HW121248   3.894   2.414  10.677
 6787SOL    HW221249   3.799   2.476  10.778
 6788SOL     OW21250   4.284   2.073  10.460
 6788SOL    HW121251   4.324   2.003  10.511
 6788SOL    HW221252   4.196   2.082  10.498
 6789SOL     OW21253   4.231   3.248   9.483
 6789SOL    HW121254   4.146   3.234   9.525
 6789SOL    HW221255   4.210   3.263   9.391
 6790SOL     OW21256   4.245   2.128   9.631
 6790SOL    HW121257   4.286   2.073   9.564
 6790SOL    HW221258   4.225   2.210   9.586
 6791SOL     OW21259   4.140   2.674  10.559
 6791SOL    HW121260   4.207   2.684  10.627
 6791SOL    HW221261   4.106   2.586  10.572
 6792SOL     OW21262   3.794   3.438  10.663
 6792SOL    HW121263   3.763   3.508  10.605
 6792SOL    HW221264   3.889   3.441  10.654
 6793SOL     OW21265   4.069   2.972   9.800
 6793SOL    HW121266   4.071   3.045   9.737
 6793SOL    HW221267   4.068   2.894   9.745
 6794SOL     OW21268   4.300   2.400  10.175
 6794SOL    HW121269   4.301   2.467  10.106
 6794SOL    HW221270   4.366   2.429  10.237
 6795SOL     OW21271   4.071   3.395  10.626
 6795SOL    HW121272   4.067   3.351  10.541
 6795SOL    HW221273   4.165   3.397  10.647
 6796SOL     OW21274   4.135   2.596  10.903
 6796SOL    HW121275   4.199   2.640  10.848
 6796SOL    HW221276   4.161   2.504  10.902
 6797SOL     OW21277   4.290   2.754  10.337
 6797SOL    HW121278   4.316   2.845  10.352
 6797SOL    HW221279   4.242   2.729  10.416
 6798SOL     OW21280   4.025   2.062  10.556
 6798SOL    HW121281   3.989   2.095  10.639
 6798SOL    HW221282   4.005   1.968  10.557
 6799SOL     OW21283   3.774   3.174  10.585
 6799SOL    HW121284   3.801   3.118  10.658
 6799SOL    HW221285   3.775   3.263  10.622
 6800SOL     OW21286   4.020   1.928   9.936
 6800SOL    HW121287   4.003   2.019   9.959
 6800SOL    HW221288   4.032   1.883  10.020
 6801SOL     OW21289   4.081   2.779  11.093
 6801SOL    HW121290   4.164   2.796   0.038
 6801SOL    HW221291   4.101   2.712  11.029
 6802SOL     OW21292   4.031   2.670  10.256
 6802SOL    HW121293   4.122   2.698  10.255
 6802SOL    HW221294   4.033   2.580  10.286
 6803SOL     OW21295   4.063   2.390  10.319
 6803SOL    HW121296   4.027   2.303  10.304
 6803SOL    HW221297   4.143   2.392  10.266
 6804SOL     OW21298   3.729   3.183   9.505
 6804SOL    HW121299   3.643   3.197   9.468
 6804SOL    HW221300   3.727   3.093   9.539
 6805SOL     OW21301   3.816   3.649  10.249
 6805SOL    HW121302   3.786   3.570  10.204
 6805SOL    HW221303   3.906   3.662  10.217
 6806SOL     OW21304   4.232   3.446  10.215
 6806SOL    HW121305   4.318   3.475  10.246
 6806SOL    HW221306   4.251   3.376  10.153
 6807SOL     OW21307   3.759   2.407  10.427
 6807SOL    HW121308   3.839   2.391  10.376
 6807SOL    HW221309   3.789   2.410  10.518
 6808SOL     OW21310   0.031   2.416   9.572
 6808SOL    HW121311   0.020   2.352   9.643
 6808SOL    HW221312   4.463   2.482   9.590
 6809SOL     OW21313   3.979   3.429  11.052
 6809SOL    HW121314   3.920   3.459   0.021
 6809SOL    HW221315   3.985   3.334  11.066
 6810SOL     OW21316   4.189   2.355   9.498
 6810SOL    HW121317   4.248   2.428   9.518
 6810SOL    HW221318   4.104   2.396   9.483
 6811SOL     OW21319   3.876   3.000  10.779
 6811SOL    HW121320   3.869   2.946  10.858
 6811SOL    HW221321   3.889   2.937  10.708
 6812SOL     OW21322   3.809   3.132  10.322
 6812SOL    HW121323   3.795   3.143  10.416
 6812SOL    HW221324   3.738   3.075  10.293
 6813SOL     OW21325   4.392   3.529  11.002
 6813SOL    HW121326   4.309   3.575  10.987
 6813SOL    HW221327   4.427   3.513  10.915
 6814SOL     OW21328   3.985   2.182  10.025
 6814SOL    HW121329   3.898   2.215  10.004
 6814SOL    HW221330   3.984   2.171  10.120
 6815SOL     OW21331   4.082   3.173  10.811
 6815SOL    HW121332   4.070   3.244  10.748
 6815SOL    HW221333   4.014   3.110  10.789
 6816SOL     OW21334   4.326   3.352   9.790
 6816SOL    HW121335   4.342   3.293   9.717
 6816SOL    HW221336   4.260   3.413   9.757
 6817SOL     OW21337   3.984   3.211   9.597
 6817SOL    HW121338   3.891   3.207   9.574
 6817SOL    HW221339   3.986   3.247   9.685
 6818SOL     OW21340   3.839   2.875  11.018
 6818SOL    HW121341   3.770   2.862  11.083
 6818SOL    HW221342   3.918   2.844  11.061
 6819SOL     OW21343   4.396   2.067  10.809
 6819SOL    HW121344   4.474   2.074  10.754
 6819SOL    HW221345   4.428   2.076  10.899
 6820SOL     OW21346   3.803   2.195   9.345
 6820SOL    HW121347   3.715   2.176   9.312
 6820SOL    HW221348   3.832   2.270   9.293
 6821SOL     OW21349   3.792   2.018   9.620
 6821SOL    HW121350   3.777   2.098   9.569
 6821SOL    HW221351   3.877   1.986   9.590
 6822SOL     OW21352   4.338   2.701  10.745
 6822SOL    HW121353   4.377   2.786  10.729
 6822SOL    HW221354   4.412   2.641  10.753
 6823SOL     OW21355   4.116   3.596  10.875
 6823SOL    HW121356   4.038   3.650  10.863
 6823SOL    HW221357   4.086   3.522  10.928
 6824SOL     OW21358   4.308   2.592   9.978
 6824SOL    HW121359   4.350   2.677   9.965
 6824SOL    HW221360   4.240   2.589   9.911
 6825SOL     OW21361   3.809   3.095   9.975
 6825SOL    HW121362   3.814   3.048  10.058
 6825SOL    HW221363   3.877   3.056   9.921
 6826SOL     OW21364   4.408   3.253  10.945
 6826SOL    HW121365   4.331   3.205  10.976
 6826SOL    HW221366   4.401   3.339  10.986
 6827SOL     OW21367   4.164   2.295   9.844
 6827SOL    HW121368   4.180   2.227   9.778
 6827SOL    HW221369   4.106   2.253   9.907
 6828SOL     OW21370   4.054   2.416  10.600
 6828SOL    HW121371   4.108   2.358  10.654
 6828SOL    HW221372   4.073   2.389  10.510
 6829SOL     OW21373   0.036   3.463   9.996
 6829SOL    HW121374   0.059   3.526   9.928
 6829SOL    HW221375   4.467   3.409   9.957
 6830SOL     OW21376   3.768   2.932   9.616
 6830SOL    HW121377   3.861   2.923   9.598
 6830SOL    HW221378   3.739   2.844   9.639
 6831SOL     OW21379   3.923   4.297   0.088
 6831SOL    HW121380   3.900   4.355   0.161
 6831SOL    HW221381   3.937   4.356   0.014
 6832SOL     OW21382   3.947   4.006   0.991
 6832SOL    HW121383   3.977   3.970   1.074
 6832SOL    HW221384   3.857   3.973   0.982
 6833SOL     OW21385   3.728   4.102   0.644
 6833SOL    HW121386   3.645   4.130   0.682
 6833SOL    HW221387   3.705   4.025   0.591
 6834SOL     OW21388   0.061   0.009   1.859
 6834SOL    HW121389   0.116   0.073   1.903
 6834SOL    HW221390   0.075   0.026   1.765
 6835SOL     OW21391   4.173   4.117   1.479
 6835SOL    HW121392   4.248   4.058   1.488
 6835SOL    HW221393   4.097   4.062   1.500
 6836SOL     OW21394   3.811   4.368   0.559
 6836SOL    HW121395   3.795   4.278   0.589
 6836SOL    HW221396   3.869   4.406   0.625
 6837SOL     OW21397   3.841   4.476   1.583
 6837SOL    HW121398   3.908   4.495   1.649
 6837SOL    HW221399   3.809   0.062   1.556
 6838SOL     OW21400   0.022   3.736   0.532
 6838SOL    HW121401   0.053   3.791   0.461
 6838SOL    HW221402   4.427   3.746   0.531
 6839SOL     OW21403   4.059   3.975   1.809
 6839SOL    HW121404   4.100   4.058   1.832
 6839SOL    HW221405   3.968   3.984   1.840
 6840SOL     OW21406   4.250   3.912   0.881
 6840SOL    HW121407   4.270   3.919   0.974
 6840SOL    HW221408   4.260   4.001   0.848
 6841SOL     OW21409   3.923   4.005   1.505
 6841SOL    HW121410   3.838   4.048   1.496
 6841SOL    HW221411   3.907   3.933   1.565
 6842SOL     OW21412   4.092   4.387   0.409
 6842SOL    HW121413   4.129   4.313   0.457
 6842SOL    HW221414   4.020   4.418   0.465
 6843SOL     OW21415   4.343   3.841   0.118
 6843SOL    HW121416   4.435   3.814   0.122
 6843SOL    HW221417   4.314   3.817   0.030
 6844SOL     OW21418   4.260   3.790   0.500
 6844SOL    HW121419   4.180   3.792   0.552
 6844SOL    HW221420   4.255   3.868   0.445
 6845SOL     OW21421   4.009   3.772   0.201
 6845SOL    HW121422   4.051   3.826   0.134
 6845SOL    HW221423   4.076   3.708   0.225
 6846SOL     OW21424   0.364   4.392   1.525
 6846SOL    HW121425   0.306   4.369   1.452
 6846SOL    HW221426   0.432   4.325   1.524
 6847SOL     OW21427   3.800   4.279   1.393
 6847SOL    HW121428   3.891   4.272   1.365
 6847SOL    HW221429   3.801   4.353   1.454
 6848SOL     OW21430   4.283   3.934   1.149
 6848SOL    HW121431   4.327   3.871   1.205
 6848SOL    HW221432   4.196   3.945   1.188
 6849SOL     OW21433   4.248   3.994   0.324
 6849SOL    HW121434   4.281   3.934   0.257
 6849SOL    HW221435   4.228   4.074   0.276
 6850SOL     OW21436   4.156   0.011   1.273
 6850SOL    HW121437   4.220   0.006   1.344
 6850SOL    HW221438   4.114   4.425   1.273
 6851SOL     OW21439   4.306   4.263   0.873
 6851SOL    HW121440   4.314   4.333   0.808
 6851SOL    HW221441   4.373   4.282   0.938
 6852SOL     OW21442   4.232   3.776   1.734
 6852SOL    HW121443   4.186   3.716   1.675
 6852SOL    HW221444   4.168   3.844   1.754
 6853SOL     OW21445   4.024   3.924   1.247
 6853SOL    HW121446   3.985   3.956   1.329
 6853SOL    HW221447   4.004   3.830   1.247
 6854SOL     OW21448   4.021   3.790   0.626
 6854SOL    HW121449   4.004   3.881   0.650
 6854SOL    HW221450   4.033   3.745   0.710
 6855SOL     OW21451   4.040   0.013   0.921
 6855SOL    HW121452   4.116   0.071   0.927
 6855SOL    HW221453   4.061   4.440   0.979
 6856SOL     OW21454   4.071   4.243   1.017
 6856SOL    HW121455   4.030   4.158   0.997
 6856SOL    HW221456   4.149   4.246   0.962
 6857SOL     OW21457   3.759   4.272   1.115
 6857SOL    HW121458   3.839   4.254   1.065
 6857SOL    HW221459   3.788   4.274   1.206
 6858SOL     OW21460   3.917   4.245   1.719
 6858SOL    HW121461   3.970   4.195   1.658
 6858SOL    HW221462   3.863   4.302   1.663
 6859SOL     OW21463   0.001   4.294   0.283
 6859SOL    HW121464   0.027   4.214   0.329
 6859SOL    HW221465   4.489   4.358   0.353
 6860SOL     OW21466   4.194   4.215   0.174
 6860SOL    HW121467   4.247   4.283   0.215
 6860SOL    HW221468   4.105   4.250   0.175
 6861SOL     OW21469   3.986   4.045   0.717
 6861SOL    HW121470   3.897   4.073   0.694
 6861SOL    HW221471   3.983   4.032   0.812
 6862SOL     OW21472   4.391   3.929   1.494
 6862SOL    HW121473   4.480   3.934   1.460
 6862SOL    HW221474   4.402   3.922   1.589
 6863SOL     OW21475   3.804   4.049   0.057
 6863SOL    HW121476   3.737   4.047  11.088
 6863SOL    HW221477   3.833   4.141   0.059
 6864SOL     OW21478   3.789   3.882   0.313
 6864SOL    HW121479   3.775   3.956   0.253
 6864SOL    HW221480   3.873   3.845   0.285
 6865SOL     OW21481   4.406   4.272   1.747
 6865SOL    HW121482   4.425   4.354   1.792
 6865SOL    HW221483   4.491   4.240   1.718
 6866SOL     OW21484   4.173   4.155   0.542
 6866SOL    HW121485   4.188   4.088   0.476
 6866SOL    HW221486   4.110   4.115   0.603
 6867SOL     OW21487   4.047   4.264   1.291
 6867SOL    HW121488   4.103   4.208   1.345
 6867SOL    HW221489   4.069   4.239   1.201
 6868SOL     OW21490   3.950   4.292   1.987
 6868SOL    HW121491   3.891   4.359   2.022
 6868SOL    HW221492   3.938   4.297   1.892
 6869SOL     OW21493   3.947   4.006   2.852
 6869SOL    HW121494   3.978   3.971   2.936
 6869SOL    HW221495   3.857   3.973   2.844
 6870SOL     OW21496   3.728   4.100   2.506
 6870SOL    HW121497   3.646   4.131   2.545
 6870SOL    HW221498   3.703   4.023   2.455
 6871SOL     OW21499   0.061   0.009   3.721
 6871SOL    HW121500   0.116   0.073   3.765
 6871SOL    HW221501   0.075   0.026   3.627
 6872SOL     OW21502   4.173   4.116   3.341
 6872SOL    HW121503   4.248   4.058   3.350
 6872SOL    HW221504   4.097   4.062   3.362
 6873SOL     OW21505   3.798   4.374   2.431
 6873SOL    HW121506   3.795   4.281   2.454
 6873SOL    HW221507   3.869   4.410   2.484
 6874SOL     OW21508   3.841   4.476   3.445
 6874SOL    HW121509   3.908   4.496   3.511
 6874SOL    HW221510   3.808   0.062   3.418
 6875SOL     OW21511   0.022   3.731   2.387
 6875SOL    HW121512   0.053   3.793   2.321
 6875SOL    HW221513   4.427   3.745   2.391
 6876SOL     OW21514   4.058   3.975   3.671
 6876SOL    HW121515   4.100   4.058   3.694
 6876SOL    HW221516   3.968   3.984   3.702
 6877SOL     OW21517   4.250   3.911   2.743
 6877SOL    HW121518   4.269   3.918   2.836
 6877SOL    HW221519   4.261   4.000   2.709
 6878SOL     OW21520   3.923   4.005   3.367
 6878SOL    HW121521   3.838   4.049   3.358
 6878SOL    HW221522   3.907   3.934   3.428
 6879SOL     OW21523   4.091   4.393   2.276
 6879SOL    HW121524   4.128   4.316   2.319
 6879SOL    HW221525   4.021   4.422   2.334
 6880SOL     OW21526   4.339   3.828   1.982
 6880SOL    HW121527   4.434   3.822   1.978
 6880SOL    HW221528   4.310   3.808   1.893
 6881SOL     OW21529   4.260   3.789   2.364
 6881SOL    HW121530   4.181   3.793   2.417
 6881SOL    HW221531   4.255   3.866   2.308
 6882SOL     OW21532   4.017   3.772   2.047
 6882SOL    HW121533   4.078   3.836   2.010
 6882SOL    HW221534   4.073   3.707   2.090
 6883SOL     OW21535   0.364   4.392   3.387
 6883SOL    HW121536   0.306   4.369   3.315
 6883SOL    HW221537   0.432   4.325   3.386
 6884SOL     OW21538   3.800   4.280   3.256
 6884SOL    HW121539   3.891   4.272   3.227
 6884SOL    HW221540   3.801   4.354   3.316
 6885SOL     OW21541   4.283   3.933   3.011
 6885SOL    HW121542   4.327   3.871   3.068
 6885SOL    HW221543   4.196   3.945   3.050
 6886SOL     OW21544   4.245   3.988   2.184
 6886SOL    HW121545   4.285   3.932   2.118
 6886SOL    HW221546   4.229   4.071   2.140
 6887SOL     OW21547   4.156   0.011   3.135
 6887SOL    HW121548   4.220   0.007   3.206
 6887SOL    HW221549   4.113   4.425   3.135
 6888SOL     OW21550   4.305   4.263   2.735
 6888SOL    HW121551   4.313   4.333   2.670
 6888SOL    HW221552   4.373   4.283   2.799
 6889SOL     OW21553   4.232   3.776   3.596
 6889SOL    HW121554   4.186   3.716   3.537
 6889SOL    HW221555   4.168   3.844   3.616
 6890SOL     OW21556   4.023   3.924   3.109
 6890SOL    HW121557   3.985   3.956   3.191
 6890SOL    HW221558   4.004   3.830   3.109
 6891SOL     OW21559   4.020   3.789   2.488
 6891SOL    HW121560   4.003   3.881   2.511
 6891SOL    HW221561   4.032   3.745   2.572
 6892SOL     OW21562   4.040   0.013   2.784
 6892SOL    HW121563   4.115   0.072   2.789
 6892SOL    HW221564   4.062   4.440   2.842
 6893SOL     OW21565   4.071   4.242   2.880
 6893SOL    HW121566   4.030   4.158   2.859
 6893SOL    HW221567   4.149   4.246   2.824
 6894SOL     OW21568   3.759   4.271   2.977
 6894SOL    HW121569   3.839   4.256   2.927
 6894SOL    HW221570   3.788   4.273   3.068
 6895SOL     OW21571   3.917   4.246   3.581
 6895SOL    HW121572   3.970   4.196   3.519
 6895SOL    HW221573   3.863   4.303   3.525
 6896SOL     OW21574   0.003   4.296   2.140
 6896SOL    HW121575   0.026   4.211   2.179
 6896SOL    HW221576   4.479   4.351   2.214
 6897SOL     OW21577   4.202   4.212   2.049
 6897SOL    HW121578   4.254   4.291   2.065
 6897SOL    HW221579   4.112   4.244   2.040
 6898SOL     OW21580   3.986   4.044   2.578
 6898SOL    HW121581   3.897   4.072   2.556
 6898SOL    HW221582   3.984   4.032   2.673
 6899SOL     OW21583   4.391   3.928   3.356
 6899SOL    HW121584   4.480   3.935   3.322
 6899SOL    HW221585   4.402   3.923   3.451
 6900SOL     OW21586   3.799   4.043   1.891
 6900SOL    HW121587   3.712   4.036   1.852
 6900SOL    HW221588   3.831   4.129   1.863
 6901SOL     OW21589   3.792   3.880   2.172
 6901SOL    HW121590   3.777   3.959   2.121
 6901SOL    HW221591   3.877   3.848   2.142
 6902SOL     OW21592   4.406   4.271   3.609
 6902SOL    HW121593   4.425   4.354   3.654
 6902SOL    HW221594   4.492   4.240   3.580
 6903SOL     OW21595   4.175   4.154   2.406
 6903SOL    HW121596   4.186   4.090   2.335
 6903SOL    HW221597   4.111   4.114   2.465
 6904SOL     OW21598   4.047   4.264   3.153
 6904SOL    HW121599   4.103   4.208   3.207
 6904SOL    HW221600   4.069   4.239   3.063
 6905SOL     OW21601   3.949   4.291   3.849
 6905SOL    HW121602   3.892   4.359   3.884
 6905SOL    HW221603   3.938   4.297   3.754
 6906SOL     OW21604   3.947   4.006   4.714
 6906SOL    HW121605   3.978   3.971   4.798
 6906SOL    HW221606   3.857   3.973   4.706
 6907SOL     OW21607   3.728   4.100   4.368
 6907SOL    HW121608   3.646   4.131   4.407
 6907SOL    HW221609   3.703   4.023   4.317
 6908SOL     OW21610   0.061   0.009   5.583
 6908SOL    HW121611   0.116   0.073   5.627
 6908SOL    HW221612   0.075   0.026   5.489
 6909SOL     OW21613   4.173   4.116   5.203
 6909SOL    HW121614   4.248   4.058   5.212
 6909SOL    HW221615   4.097   4.062   5.224
 6910SOL     OW21616   3.799   4.374   4.292
 6910SOL    HW121617   3.795   4.281   4.316
 6910SOL    HW221618   3.869   4.410   4.346
 6911SOL     OW21619   3.841   4.476   5.307
 6911SOL    HW121620   3.908   4.496   5.373
 6911SOL    HW221621   3.808   0.062   5.280
 6912SOL     OW21622   0.022   3.731   4.249
 6912SOL    HW121623   0.053   3.793   4.183
 6912SOL    HW221624   4.427   3.745   4.252
 6913SOL     OW21625   4.059   3.975   5.533
 6913SOL    HW121626   4.100   4.058   5.556
 6913SOL    HW221627   3.968   3.983   5.564
 6914SOL     OW21628   4.250   3.911   4.605
 6914SOL    HW121629   4.269   3.918   4.698
 6914SOL    HW221630   4.261   4.000   4.571
 6915SOL     OW21631   3.923   4.005   5.229
 6915SOL    HW121632   3.838   4.049   5.220
 6915SOL    HW221633   3.907   3.933   5.290
 6916SOL     OW21634   4.091   4.393   4.137
 6916SOL    HW121635   4.128   4.316   4.181
 6916SOL    HW221636   4.021   4.422   4.196
 6917SOL     OW21637   4.339   3.828   3.844
 6917SOL    HW121638   4.434   3.822   3.840
 6917SOL    HW221639   4.310   3.808   3.755
 6918SOL     OW21640   4.260   3.789   4.226
 6918SOL    HW121641   4.181   3.793   4.279
 6918SOL    HW221642   4.255   3.867   4.170
 6919SOL     OW21643   4.017   3.772   3.909
 6919SOL    HW121644   4.078   3.836   3.872
 6919SOL    HW221645   4.074   3.707   3.952
 6920SOL     OW21646   0.364   4.392   5.249
 6920SOL    HW121647   0.306   4.370   5.177
 6920SOL    HW221648   0.432   4.325   5.248
 6921SOL     OW21649   3.800   4.280   5.118
 6921SOL    HW121650   3.891   4.272   5.089
 6921SOL    HW221651   3.800   4.354   5.178
 6922SOL     OW21652   4.283   3.933   4.872
 6922SOL    HW121653   4.327   3.871   4.930
 6922SOL    HW221654   4.196   3.945   4.912
 6923SOL     OW21655   4.244   3.988   4.046
 6923SOL    HW121656   4.285   3.932   3.980
 6923SOL    HW221657   4.229   4.071   4.002
 6924SOL     OW21658   4.156   0.011   4.996
 6924SOL    HW121659   4.219   0.007   5.068
 6924SOL    HW221660   4.114   4.425   4.997
 6925SOL     OW21661   4.305   4.263   4.597
 6925SOL    HW121662   4.312   4.333   4.532
 6925SOL    HW221663   4.373   4.282   4.661
 6926SOL     OW21664   4.232   3.776   5.458
 6926SOL    HW121665   4.186   3.716   5.399
 6926SOL    HW221666   4.168   3.844   5.478
 6927SOL     OW21667   4.023   3.924   4.971
 6927SOL    HW121668   3.985   3.956   5.053
 6927SOL    HW221669   4.004   3.830   4.971
 6928SOL     OW21670   4.020   3.789   4.350
 6928SOL    HW121671   4.003   3.881   4.373
 6928SOL    HW221672   4.032   3.745   4.434
 6929SOL     OW21673   4.040   0.013   4.646
 6929SOL    HW121674   4.115   0.072   4.651
 6929SOL    HW221675   4.062   4.440   4.704
 6930SOL     OW21676   4.071   4.242   4.742
 6930SOL    HW121677   4.030   4.158   4.721
 6930SOL    HW221678   4.148   4.246   4.686
 6931SOL     OW21679   3.759   4.271   4.839
 6931SOL    HW121680   3.839   4.256   4.789
 6931SOL    HW221681   3.788   4.273   4.930
 6932SOL     OW21682   3.917   4.246   5.443
 6932SOL    HW121683   3.970   4.195   5.381
 6932SOL    HW221684   3.863   4.303   5.387
 6933SOL     OW21685   0.003   4.296   4.002
 6933SOL    HW121686   0.026   4.211   4.041
 6933SOL    HW221687   4.479   4.351   4.076
 6934SOL     OW21688   4.202   4.212   3.911
 6934SOL    HW121689   4.253   4.292   3.927
 6934SOL    HW221690   4.112   4.244   3.903
 6935SOL     OW21691   3.986   4.044   4.440
 6935SOL    HW121692   3.897   4.073   4.418
 6935SOL    HW221693   3.984   4.031   4.535
 6936SOL     OW21694   4.391   3.928   5.218
 6936SOL    HW121695   4.480   3.935   5.184
 6936SOL    HW221696   4.402   3.923   5.313
 6937SOL     OW21697   3.799   4.043   3.753
 6937SOL    HW121698   3.712   4.036   3.714
 6937SOL    HW221699   3.831   4.129   3.726
 6938SOL     OW21700   3.792   3.880   4.034
 6938SOL    HW121701   3.777   3.959   3.983
 6938SOL    HW221702   3.877   3.848   4.004
 6939SOL     OW21703   4.406   4.271   5.471
 6939SOL    HW121704   4.425   4.354   5.516
 6939SOL    HW221705   4.492   4.240   5.442
 6940SOL     OW21706   4.175   4.154   4.268
 6940SOL    HW121707   4.186   4.090   4.197
 6940SOL    HW221708   4.111   4.114   4.327
 6941SOL     OW21709   4.047   4.264   5.015
 6941SOL    HW121710   4.103   4.208   5.069
 6941SOL    HW221711   4.069   4.239   4.925
 6942SOL     OW21712   3.950   4.291   5.711
 6942SOL    HW121713   3.891   4.359   5.746
 6942SOL    HW221714   3.938   4.297   5.616
 6943SOL     OW21715   3.947   4.006   6.576
 6943SOL    HW121716   3.978   3.971   6.660
 6943SOL    HW221717   3.857   3.973   6.568
 6944SOL     OW21718   3.728   4.100   6.230
 6944SOL    HW121719   3.646   4.131   6.269
 6944SOL    HW221720   3.703   4.023   6.179
 6945SOL     OW21721   0.061   0.009   7.445
 6945SOL    HW121722   0.116   0.073   7.489
 6945SOL    HW221723   0.075   0.026   7.351
 6946SOL     OW21724   4.173   4.116   7.065
 6946SOL    HW121725   4.248   4.058   7.074
 6946SOL    HW221726   4.097   4.062   7.086
 6947SOL     OW21727   3.799   4.374   6.154
 6947SOL    HW121728   3.795   4.281   6.178
 6947SOL    HW221729   3.869   4.410   6.209
 6948SOL     OW21730   3.841   4.476   7.169
 6948SOL    HW121731   3.908   4.496   7.235
 6948SOL    HW221732   3.808   0.062   7.142
 6949SOL     OW21733   0.022   3.731   6.111
 6949SOL    HW121734   0.053   3.792   6.045
 6949SOL    HW221735   4.427   3.745   6.114
 6950SOL     OW21736   4.059   3.975   7.395
 6950SOL    HW121737   4.100   4.058   7.418
 6950SOL    HW221738   3.968   3.983   7.426
 6951SOL     OW21739   4.250   3.911   6.466
 6951SOL    HW121740   4.269   3.918   6.560
 6951SOL    HW221741   4.261   4.000   6.433
 6952SOL     OW21742   3.923   4.005   7.091
 6952SOL    HW121743   3.838   4.048   7.082
 6952SOL    HW221744   3.907   3.933   7.152
 6953SOL     OW21745   4.091   4.393   5.999
 6953SOL    HW121746   4.128   4.316   6.043
 6953SOL    HW221747   4.021   4.422   6.058
 6954SOL     OW21748   4.339   3.828   5.706
 6954SOL    HW121749   4.434   3.822   5.702
 6954SOL    HW221750   4.310   3.808   5.617
 6955SOL     OW21751   4.260   3.789   6.088
 6955SOL    HW121752   4.181   3.793   6.141
 6955SOL    HW221753   4.255   3.867   6.032
 6956SOL     OW21754   4.017   3.772   5.771
 6956SOL    HW121755   4.078   3.836   5.734
 6956SOL    HW221756   4.073   3.707   5.814
 6957SOL     OW21757   0.364   4.392   7.111
 6957SOL    HW121758   0.306   4.369   7.039
 6957SOL    HW221759   0.432   4.325   7.110
 6958SOL     OW21760   3.800   4.280   6.980
 6958SOL    HW121761   3.891   4.272   6.951
 6958SOL    HW221762   3.800   4.354   7.040
 6959SOL     OW21763   4.282   3.933   6.734
 6959SOL    HW121764   4.327   3.871   6.792
 6959SOL    HW221765   4.196   3.945   6.774
 6960SOL     OW21766   4.244   3.988   5.908
 6960SOL    HW121767   4.285   3.932   5.842
 6960SOL    HW221768   4.229   4.071   5.864
 6961SOL     OW21769   4.156   0.011   6.859
 6961SOL    HW121770   4.220   0.007   6.930
 6961SOL    HW221771   4.114   4.425   6.859
 6962SOL     OW21772   4.305   4.263   6.459
 6962SOL    HW121773   4.313   4.333   6.394
 6962SOL    HW221774   4.373   4.282   6.524
 6963SOL     OW21775   4.232   3.776   7.320
 6963SOL    HW121776   4.186   3.716   7.261
 6963SOL    HW221777   4.168   3.844   7.340
 6964SOL     OW21778   4.023   3.924   6.833
 6964SOL    HW121779   3.985   3.956   6.915
 6964SOL    HW221780   4.004   3.830   6.833
 6965SOL     OW21781   4.020   3.789   6.212
 6965SOL    HW121782   4.003   3.881   6.235
 6965SOL    HW221783   4.032   3.745   6.296
 6966SOL     OW21784   4.040   0.013   6.508
 6966SOL    HW121785   4.115   0.072   6.513
 6966SOL    HW221786   4.062   4.440   6.566
 6967SOL     OW21787   4.071   4.242   6.604
 6967SOL    HW121788   4.030   4.158   6.583
 6967SOL    HW221789   4.149   4.246   6.548
 6968SOL     OW21790   3.759   4.271   6.701
 6968SOL    HW121791   3.839   4.256   6.651
 6968SOL    HW221792   3.788   4.273   6.792
 6969SOL     OW21793   3.916   4.246   7.305
 6969SOL    HW121794   3.970   4.195   7.244
 6969SOL    HW221795   3.863   4.302   7.249
 6970SOL     OW21796   0.003   4.296   5.864
 6970SOL    HW121797   0.026   4.212   5.904
 6970SOL    HW221798   4.479   4.352   5.938
 6971SOL     OW21799   4.202   4.212   5.773
 6971SOL    HW121800   4.253   4.291   5.790
 6971SOL    HW221801   4.112   4.244   5.764
 6972SOL     OW21802   3.986   4.044   6.302
 6972SOL    HW121803   3.897   4.073   6.280
 6972SOL    HW221804   3.984   4.032   6.397
 6973SOL     OW21805   4.391   3.928   7.080
 6973SOL    HW121806   4.480   3.935   7.046
 6973SOL    HW221807   4.402   3.923   7.175
 6974SOL     OW21808   3.799   4.043   5.615
 6974SOL    HW121809   3.712   4.036   5.576
 6974SOL    HW221810   3.831   4.129   5.587
 6975SOL     OW21811   3.792   3.880   5.896
 6975SOL    HW121812   3.777   3.960   5.845
 6975SOL    HW221813   3.877   3.848   5.866
 6976SOL     OW21814   4.406   4.271   7.333
 6976SOL    HW121815   4.425   4.354   7.378
 6976SOL    HW221816   4.492   4.240   7.304
 6977SOL     OW21817   4.175   4.154   6.130
 6977SOL    HW121818   4.186   4.090   6.060
 6977SOL    HW221819   4.111   4.114   6.189
 6978SOL     OW21820   4.047   4.264   6.877
 6978SOL    HW121821   4.103   4.208   6.931
 6978SOL    HW221822   4.069   4.239   6.787
 6979SOL     OW21823   3.950   4.292   7.573
 6979SOL    HW121824   3.891   4.359   7.608
 6979SOL    HW221825   3.938   4.297   7.478
 6980SOL     OW21826   3.947   4.006   8.438
 6980SOL    HW121827   3.978   3.971   8.522
 6980SOL    HW221828   3.857   3.973   8.430
 6981SOL     OW21829   3.728   4.100   8.092
 6981SOL    HW121830   3.646   4.131   8.131
 6981SOL    HW221831   3.703   4.023   8.041
 6982SOL     OW21832   0.061   0.009   9.307
 6982SOL    HW121833   0.116   0.073   9.351
 6982SOL    HW221834   0.075   0.026   9.213
 6983SOL     OW21835   4.173   4.116   8.927
 6983SOL    HW121836   4.248   4.058   8.936
 6983SOL    HW221837   4.097   4.062   8.948
 6984SOL     OW21838   3.799   4.374   8.016
 6984SOL    HW121839   3.795   4.281   8.040
 6984SOL    HW221840   3.869   4.410   8.071
 6985SOL     OW21841   3.841   4.476   9.031
 6985SOL    HW121842   3.908   4.495   9.097
 6985SOL    HW221843   3.809   0.062   9.004
 6986SOL     OW21844   0.022   3.731   7.973
 6986SOL    HW121845   0.053   3.793   7.907
 6986SOL    HW221846   4.427   3.745   7.977
 6987SOL     OW21847   4.059   3.975   9.257
 6987SOL    HW121848   4.100   4.058   9.280
 6987SOL    HW221849   3.968   3.983   9.288
 6988SOL     OW21850   4.250   3.911   8.329
 6988SOL    HW121851   4.269   3.918   8.422
 6988SOL    HW221852   4.261   4.000   8.295
 6989SOL     OW21853   3.923   4.005   8.953
 6989SOL    HW121854   3.838   4.048   8.944
 6989SOL    HW221855   3.907   3.933   9.014
 6990SOL     OW21856   4.091   4.393   7.862
 6990SOL    HW121857   4.128   4.316   7.905
 6990SOL    HW221858   4.021   4.422   7.920
 6991SOL     OW21859   4.339   3.828   7.568
 6991SOL    HW121860   4.434   3.822   7.564
 6991SOL    HW221861   4.310   3.808   7.479
 6992SOL     OW21862   4.260   3.789   7.950
 6992SOL    HW121863   4.181   3.793   8.003
 6992SOL    HW221864   4.255   3.867   7.894
 6993SOL     OW21865   4.017   3.772   7.633
 6993SOL    HW121866   4.078   3.836   7.596
 6993SOL    HW221867   4.073   3.707   7.676
 6994SOL     OW21868   0.364   4.392   8.973
 6994SOL    HW121869   0.306   4.369   8.901
 6994SOL    HW221870   0.432   4.325   8.972
 6995SOL     OW21871   3.800   4.280   8.842
 6995SOL    HW121872   3.891   4.272   8.813
 6995SOL    HW221873   3.801   4.354   8.902
 6996SOL     OW21874   4.283   3.933   8.597
 6996SOL    HW121875   4.327   3.871   8.654
 6996SOL    HW221876   4.196   3.945   8.636
 6997SOL     OW21877   4.244   3.988   7.770
 6997SOL    HW121878   4.285   3.932   7.704
 6997SOL    HW221879   4.229   4.071   7.726
 6998SOL     OW21880   4.156   0.011   8.721
 6998SOL    HW121881   4.220   0.007   8.792
 6998SOL    HW221882   4.113   4.425   8.721
 6999SOL     OW21883   4.305   4.263   8.321
 6999SOL    HW121884   4.313   4.333   8.256
 6999SOL    HW221885   4.373   4.283   8.386
 7000SOL     OW21886   4.232   3.776   9.182
 7000SOL    HW121887   4.186   3.716   9.123
 7000SOL    HW221888   4.168   3.844   9.202
 7001SOL     OW21889   4.023   3.924   8.695
 7001SOL    HW121890   3.985   3.956   8.777
 7001SOL    HW221891   4.004   3.830   8.695
 7002SOL     OW21892   4.020   3.790   8.074
 7002SOL    HW121893   4.003   3.881   8.097
 7002SOL    HW221894   4.032   3.745   8.158
 7003SOL     OW21895   4.040   0.013   8.370
 7003SOL    HW121896   4.115   0.072   8.375
 7003SOL    HW221897   4.062   4.440   8.428
 7004SOL     OW21898   4.071   4.242   8.466
 7004SOL    HW121899   4.030   4.158   8.445
 7004SOL    HW221900   4.149   4.246   8.410
 7005SOL     OW21901   3.759   4.271   8.563
 7005SOL    HW121902   3.839   4.255   8.513
 7005SOL    HW221903   3.788   4.273   8.654
 7006SOL     OW21904   3.916   4.245   9.167
 7006SOL    HW121905   3.970   4.195   9.106
 7006SOL    HW221906   3.863   4.302   9.111
 7007SOL     OW21907   0.003   4.296   7.726
 7007SOL    HW121908   0.026   4.212   7.765
 7007SOL    HW221909   4.479   4.351   7.800
 7008SOL     OW21910   4.202   4.212   7.635
 7008SOL    HW121911   4.253   4.291   7.652
 7008SOL    HW221912   4.112   4.244   7.626
 7009SOL     OW21913   3.986   4.044   8.164
 7009SOL    HW121914   3.897   4.072   8.142
 7009SOL    HW221915   3.984   4.032   8.259
 7010SOL     OW21916   4.391   3.928   8.942
 7010SOL    HW121917   4.480   3.934   8.908
 7010SOL    HW221918   4.402   3.922   9.037
 7011SOL     OW21919   3.799   4.043   7.477
 7011SOL    HW121920   3.712   4.036   7.438
 7011SOL    HW221921   3.831   4.129   7.449
 7012SOL     OW21922   3.793   3.880   7.758
 7012SOL    HW121923   3.777   3.960   7.707
 7012SOL    HW221924   3.877   3.848   7.728
 7013SOL     OW21925   4.406   4.271   9.195
 7013SOL    HW121926   4.425   4.354   9.240
 7013SOL    HW221927   4.492   4.240   9.166
 7014SOL     OW21928   4.175   4.154   7.992
 7014SOL    HW121929   4.186   4.090   7.922
 7014SOL    HW221930   4.111   4.114   8.051
 7015SOL     OW21931   4.047   4.264   8.739
 7015SOL    HW121932   4.103   4.208   8.793
 7015SOL    HW221933   4.069   4.239   8.649
 7016SOL     OW21934   3.950   4.292   9.435
 7016SOL    HW121935   3.891   4.359   9.470
 7016SOL    HW221936   3.938   4.297   9.340
 7017SOL     OW21937   3.947   4.006  10.300
 7017SOL    HW121938   3.978   3.971  10.384
 7017SOL    HW221939   3.857   3.973  10.292
 7018SOL     OW21940   3.728   4.100   9.954
 7018SOL    HW121941   3.646   4.131   9.993
 7018SOL    HW221942   3.703   4.023   9.902
 7019SOL     OW21943   4.180   4.122  10.796
 7019SOL    HW121944   4.247   4.054  10.799
 7019SOL    HW221945   4.099   4.076  10.818
 7020SOL     OW21946   3.798   4.374   9.879
 7020SOL    HW121947   3.795   4.281   9.902
 7020SOL    HW221948   3.869   4.410   9.932
 7021SOL     OW21949   3.852   4.459  10.905
 7021SOL    HW121950   3.948   4.465  10.910
 7021SOL    HW221951   3.822   0.049  10.896
 7022SOL     OW21952   0.022   3.731   9.835
 7022SOL    HW121953   0.053   3.793   9.769
 7022SOL    HW221954   4.427   3.745   9.839
 7023SOL     OW21955   4.067   3.979   0.016
 7023SOL    HW121956   4.110   4.060   0.044
 7023SOL    HW221957   3.974   3.995   0.031
 7024SOL     OW21958   4.250   3.912  10.192
 7024SOL    HW121959   4.270   3.920  10.285
 7024SOL    HW221960   4.261   4.000  10.157
 7025SOL     OW21961   3.928   4.005  10.808
 7025SOL    HW121962   3.847   4.056  10.808
 7025SOL    HW221963   3.915   3.939  10.876
 7026SOL     OW21964   4.091   4.393   9.724
 7026SOL    HW121965   4.128   4.316   9.767
 7026SOL    HW221966   4.021   4.422   9.783
 7027SOL     OW21967   4.339   3.828   9.430
 7027SOL    HW121968   4.434   3.822   9.426
 7027SOL    HW221969   4.310   3.808   9.341
 7028SOL     OW21970   4.260   3.789   9.812
 7028SOL    HW121971   4.181   3.793   9.865
 7028SOL    HW221972   4.255   3.866   9.756
 7029SOL     OW21973   4.017   3.772   9.495
 7029SOL    HW121974   4.078   3.836   9.458
 7029SOL    HW221975   4.073   3.707   9.538
 7030SOL     OW21976   0.328   4.392  10.806
 7030SOL    HW121977   0.239   4.357  10.804
 7030SOL    HW221978   0.383   4.320  10.776
 7031SOL     OW21979   3.799   4.279  10.706
 7031SOL    HW121980   3.890   4.272  10.677
 7031SOL    HW221981   3.802   4.339  10.780
 7032SOL     OW21982   4.284   3.935  10.461
 7032SOL    HW121983   4.324   3.864  10.512
 7032SOL    HW221984   4.196   3.944  10.498
 7033SOL     OW21985   4.245   3.988   9.632
 7033SOL    HW121986   4.285   3.932   9.566
 7033SOL    HW221987   4.229   4.071   9.588
 7034SOL     OW21988   4.155   0.008  10.576
 7034SOL    HW121989   4.222   0.002  10.644
 7034SOL    HW221990   4.109   4.424  10.580
 7035SOL     OW21991   4.305   4.263  10.183
 7035SOL    HW121992   4.314   4.333  10.119
 7035SOL    HW221993   4.374   4.280  10.248
 7036SOL     OW21994   4.126   4.462  10.912
 7036SOL    HW121995   4.191   0.027  10.886
 7036SOL    HW221996   4.171   4.378  10.907
 7037SOL     OW21997   4.025   3.924  10.557
 7037SOL    HW121998   3.988   3.956  10.639
 7037SOL    HW221999   4.005   3.830  10.557
 7038SOL     OW22000   4.020   3.789   9.936
 7038SOL    HW122001   4.003   3.881   9.959
 7038SOL    HW222002   4.032   3.745  10.020
 7039SOL     OW22003   4.040   0.013  10.232
 7039SOL    HW122004   4.115   0.072  10.238
 7039SOL    HW222005   4.062   4.440  10.290
 7040SOL     OW22006   4.071   4.242  10.328
 7040SOL    HW122007   4.030   4.158  10.307
 7040SOL    HW222008   4.149   4.246  10.272
 7041SOL     OW22009   3.759   4.273  10.426
 7041SOL    HW122010   3.840   4.256  10.377
 7041SOL    HW222011   3.788   4.275  10.518
 7042SOL     OW22012   0.003   4.296   9.588
 7042SOL    HW122013   0.026   4.212   9.627
 7042SOL    HW222014   4.480   4.352   9.662
 7043SOL     OW22015   4.202   4.212   9.497
 7043SOL    HW122016   4.254   4.291   9.514
 7043SOL    HW222017   4.112   4.244   9.488
 7044SOL     OW22018   3.986   4.044  10.026
 7044SOL    HW122019   3.897   4.072  10.004
 7044SOL    HW222020   3.984   4.031  10.121
 7045SOL     OW22021   4.397   3.929  10.811
 7045SOL    HW122022   4.474   3.938  10.755
 7045SOL    HW222023   4.429   3.942  10.900
 7046SOL     OW22024   3.799   4.043   9.339
 7046SOL    HW122025   3.712   4.036   9.300
 7046SOL    HW222026   3.831   4.129   9.311
 7047SOL     OW22027   3.792   3.880   9.620
 7047SOL    HW122028   3.777   3.959   9.569
 7047SOL    HW222029   3.877   3.848   9.590
 7048SOL     OW22030   4.175   4.154   9.854
 7048SOL    HW122031   4.186   4.090   9.783
 7048SOL    HW222032   4.111   4.114   9.913
 7049SOL     OW22033   4.047   4.262  10.601
 7049SOL    HW122034   4.103   4.206  10.655
 7049SOL    HW222035   4.068   4.237  10.511
   4.50000   4.50000  11.10000
