Built with Packmol
21954
    1LIG      O    1   2.227   2.220   0.053
    1LIG      C    2   2.292   2.270   0.173
    1LIG     C1    3   2.221   2.217   0.301
    1LIG     O1    4   2.285   2.267   0.423
    1LIG     C2    5   2.220   2.218   0.544
    1LIG     C3    6   2.291   2.273   0.670
    1LIG     O2    7   2.227   2.225   0.791
    1LIG     C4    8   2.290   2.275   0.912
    1LIG     C5    9   2.218   2.221   1.038
    1LIG     O3   10   2.281   2.270   1.160
    1LIG     C6   11   2.216   2.221   1.280
    1LIG     C7   12   2.288   2.277   1.406
    1LIG     O4   13   2.224   2.229   1.528
    1LIG     C8   14   2.288   2.279   1.649
    1LIG     C9   15   2.215   2.223   1.774
    1LIG     O5   16   2.279   2.273   1.895
    1LIG    C10   17   2.215   2.224   2.016
    1LIG    C11   18   2.287   2.280   2.142
    1LIG     O6   19   2.223   2.231   2.263
    1LIG    C12   20   2.286   2.280   2.384
    1LIG    C13   21   2.213   2.225   2.509
    1LIG     O7   22   2.277   2.274   2.631
    1LIG    C14   23   2.213   2.225   2.752
    1LIG    C15   24   2.285   2.280   2.878
    1LIG     O8   25   2.221   2.232   3.000
    1LIG    C16   26   2.285   2.281   3.121
    1LIG    C17   27   2.214   2.226   3.247
    1LIG     O9   28   2.277   2.275   3.369
    1LIG    C18   29   2.212   2.226   3.489
    1LIG    C19   30   2.284   2.281   3.614
    1LIG    O10   31   2.221   2.232   3.736
    1LIG    C20   32   2.285   2.282   3.857
    1LIG    C21   33   2.212   2.226   3.982
    1LIG    O11   34   2.276   2.275   4.103
    1LIG    C22   35   2.212   2.226   4.224
    1LIG    C23   36   2.284   2.282   4.350
    1LIG    O12   37   2.220   2.233   4.471
    1LIG    C24   38   2.284   2.282   4.593
    1LIG    C25   39   2.212   2.227   4.719
    1LIG    O13   40   2.275   2.276   4.841
    1LIG    C26   41   2.211   2.227   4.961
    1LIG    C27   42   2.283   2.282   5.086
    1LIG    O14   43   2.219   2.233   5.208
    1LIG    C28   44   2.284   2.282   5.329
    1LIG    C29   45   2.212   2.226   5.455
    1LIG    O15   46   2.276   2.276   5.577
    1LIG    C30   47   2.212   2.226   5.697
    1LIG    C31   48   2.284   2.281   5.822
    1LIG    O16   49   2.220   2.232   5.943
    1LIG    C32   50   2.284   2.281   6.065
    1LIG    C33   51   2.212   2.226   6.191
    1LIG    O17   52   2.276   2.275   6.312
    1LIG    C34   53   2.212   2.225   6.433
    1LIG    C35   54   2.284   2.280   6.559
    1LIG    O18   55   2.220   2.231   6.680
    1LIG    C36   56   2.284   2.281   6.801
    1LIG    C37   57   2.213   2.225   6.927
    1LIG    O19   58   2.277   2.274   7.049
    1LIG    C38   59   2.213   2.224   7.169
    1LIG    C39   60   2.284   2.279   7.295
    1LIG    O20   61   2.221   2.230   7.417
    1LIG    C40   62   2.285   2.279   7.538
    1LIG    C41   63   2.214   2.224   7.664
    1LIG    O21   64   2.277   2.273   7.786
    1LIG    C42   65   2.213   2.223   7.906
    1LIG    C43   66   2.285   2.278   8.031
    1LIG    O22   67   2.222   2.229   8.153
    1LIG    C44   68   2.286   2.278   8.274
    1LIG    C45   69   2.214   2.222   8.399
    1LIG    O23   70   2.278   2.271   8.521
    1LIG    C46   71   2.214   2.222   8.642
    1LIG    C47   72   2.287   2.278   8.767
    1LIG    O24   73   2.223   2.228   8.888
    1LIG    C48   74   2.286   2.277   9.010
    1LIG    C49   75   2.214   2.221   9.135
    1LIG    O25   76   2.278   2.270   9.256
    1LIG    C50   77   2.215   2.221   9.378
    1LIG    C51   78   2.287   2.277   9.503
    1LIG    O26   79   2.224   2.227   9.624
    1LIG    C52   80   2.287   2.276   9.746
    1LIG    C53   81   2.215   2.220   9.871
    1LIG    O27   82   2.279   2.269   9.991
    1LIG    C54   83   2.216   2.219  10.113
    1LIG    C55   84   2.288   2.275  10.240
    1LIG    O28   85   2.224   2.225  10.361
    1LIG    C56   86   2.288   2.274  10.482
    1LIG    C57   87   2.217   2.218  10.609
    1LIG    O29   88   2.281   2.267  10.731
    1LIG    C58   89   2.217   2.217  10.852
    1LIG    C59   90   2.288   2.272  10.978
    1LIG      H   91   2.289   2.380   0.171
    1LIG     H1   92   2.397   2.239   0.172
    1LIG     H2   93   2.224   2.108   0.301
    1LIG     H3   94   2.116   2.248   0.300
    1LIG     H4   95   2.223   2.108   0.546
    1LIG     H5   96   2.115   2.249   0.545
    1LIG     H6   97   2.289   2.383   0.668
    1LIG     H7   98   2.397   2.242   0.669
    1LIG     H8   99   2.288   2.384   0.913
    1LIG     H9  100   2.395   2.244   0.914
    1LIG    H10  101   2.221   2.111   1.037
    1LIG    H11  102   2.113   2.251   1.036
    1LIG    H12  103   2.219   2.112   1.282
    1LIG    H13  104   2.111   2.252   1.281
    1LIG    H14  105   2.285   2.387   1.404
    1LIG    H15  106   2.393   2.247   1.405
    1LIG    H16  107   2.285   2.388   1.650
    1LIG    H17  108   2.393   2.248   1.651
    1LIG    H18  109   2.218   2.114   1.772
    1LIG    H19  110   2.110   2.255   1.772
    1LIG    H20  111   2.217   2.115   2.018
    1LIG    H21  112   2.109   2.255   2.018
    1LIG    H22  113   2.284   2.389   2.140
    1LIG    H23  114   2.392   2.249   2.140
    1LIG    H24  115   2.283   2.390   2.386
    1LIG    H25  116   2.391   2.249   2.386
    1LIG    H26  117   2.216   2.115   2.508
    1LIG    H27  118   2.108   2.256   2.508
    1LIG    H28  119   2.216   2.115   2.754
    1LIG    H29  120   2.108   2.256   2.753
    1LIG    H30  121   2.282   2.390   2.877
    1LIG    H31  122   2.390   2.249   2.877
    1LIG    H32  123   2.282   2.391   3.122
    1LIG    H33  124   2.390   2.250   3.122
    1LIG    H34  125   2.216   2.117   3.245
    1LIG    H35  126   2.108   2.257   3.245
    1LIG    H36  127   2.215   2.116   3.490
    1LIG    H37  128   2.107   2.257   3.490
    1LIG    H38  129   2.281   2.391   3.613
    1LIG    H39  130   2.389   2.250   3.613
    1LIG    H40  131   2.282   2.391   3.858
    1LIG    H41  132   2.390   2.251   3.858
    1LIG    H42  133   2.215   2.117   3.981
    1LIG    H43  134   2.107   2.257   3.980
    1LIG    H44  135   2.215   2.117   4.226
    1LIG    H45  136   2.107   2.257   4.226
    1LIG    H46  137   2.281   2.392   4.348
    1LIG    H47  138   2.390   2.251   4.349
    1LIG    H48  139   2.281   2.392   4.594
    1LIG    H49  140   2.389   2.251   4.594
    1LIG    H50  141   2.215   2.117   4.718
    1LIG    H51  142   2.107   2.258   4.717
    1LIG    H52  143   2.214   2.117   4.963
    1LIG    H53  144   2.106   2.258   4.963
    1LIG    H54  145   2.280   2.392   5.085
    1LIG    H55  146   2.388   2.251   5.085
    1LIG    H56  147   2.281   2.391   5.331
    1LIG    H57  148   2.389   2.251   5.330
    1LIG    H58  149   2.215   2.117   5.453
    1LIG    H59  150   2.107   2.257   5.454
    1LIG    H60  151   2.215   2.116   5.699
    1LIG    H61  152   2.107   2.257   5.699
    1LIG    H62  153   2.281   2.391   5.821
    1LIG    H63  154   2.389   2.251   5.821
    1LIG    H64  155   2.281   2.391   6.066
    1LIG    H65  156   2.389   2.250   6.066
    1LIG    H66  157   2.215   2.116   6.189
    1LIG    H67  158   2.107   2.257   6.189
    1LIG    H68  159   2.215   2.116   6.434
    1LIG    H69  160   2.107   2.256   6.434
    1LIG    H70  161   2.281   2.390   6.558
    1LIG    H71  162   2.389   2.250   6.557
    1LIG    H72  163   2.281   2.390   6.802
    1LIG    H73  164   2.390   2.250   6.802
    1LIG    H74  165   2.216   2.116   6.926
    1LIG    H75  166   2.108   2.256   6.926
    1LIG    H76  167   2.216   2.115   7.170
    1LIG    H77  168   2.108   2.255   7.171
    1LIG    H78  169   2.281   2.389   7.294
    1LIG    H79  170   2.390   2.248   7.294
    1LIG    H80  171   2.282   2.389   7.539
    1LIG    H81  172   2.390   2.249   7.539
    1LIG    H82  173   2.217   2.114   7.662
    1LIG    H83  174   2.108   2.254   7.663
    1LIG    H84  175   2.217   2.113   7.907
    1LIG    H85  176   2.108   2.254   7.907
    1LIG    H86  177   2.282   2.388   8.030
    1LIG    H87  178   2.391   2.248   8.029
    1LIG    H88  179   2.283   2.388   8.276
    1LIG    H89  180   2.391   2.248   8.275
    1LIG    H90  181   2.217   2.113   8.398
    1LIG    H91  182   2.109   2.253   8.398
    1LIG    H92  183   2.218   2.112   8.644
    1LIG    H93  184   2.109   2.252   8.644
    1LIG    H94  185   2.283   2.387   8.766
    1LIG    H95  186   2.392   2.247   8.766
    1LIG    H96  187   2.283   2.386   9.012
    1LIG    H97  188   2.391   2.246   9.011
    1LIG    H98  189   2.218   2.111   9.133
    1LIG    H99  190   2.109   2.251   9.134
    1LIG   H100  191   2.218   2.111   9.379
    1LIG   H101  192   2.110   2.251   9.380
    1LIG   H102  193   2.284   2.386   9.502
    1LIG   H103  194   2.392   2.246   9.501
    1LIG   H104  195   2.284   2.385   9.747
    1LIG   H105  196   2.392   2.245   9.747
    1LIG   H106  197   2.219   2.110   9.869
    1LIG   H107  198   2.110   2.250   9.870
    1LIG   H108  199   2.220   2.110  10.114
    1LIG   H109  200   2.111   2.250  10.115
    1LIG   H110  201   2.284   2.384  10.239
    1LIG   H111  202   2.393   2.244  10.238
    1LIG   H112  203   2.285   2.384  10.484
    1LIG   H113  204   2.394   2.244  10.483
    1LIG   H114  205   2.221   2.109  10.607
    1LIG   H115  206   2.112   2.249  10.608
    1LIG   H116  207   2.221   2.108  10.852
    1LIG   H117  208   2.112   2.249  10.853
    1LIG   H118  209   2.393   2.242  10.978
    1LIG   H119  210   2.241   2.235  11.073
    1MOL     C1  211   2.597   1.837   5.053
    1MOL     H1  212   2.605   1.730   5.031
    1MOL     O1  213   2.646   1.901   4.936
    1MOL     C2  214   2.643   2.045   4.938
    1MOL     H2  215   2.539   2.080   4.944
    1MOL     C3  216   2.705   2.091   4.808
    1MOL     H3  217   2.806   2.047   4.800
    1MOL     H4  218   2.715   2.200   4.808
    1MOL     O2  219   2.626   2.048   4.698
    1MOL     C4  220   2.682   2.090   4.575
    1MOL     C5  221   2.690   1.875   5.170
    1MOL     H5  222   2.791   1.844   5.141
    1MOL     O3  223   2.655   1.815   5.293
    1MOL     C6  224   2.691   1.678   5.304
    1MOL     C7  225   2.690   2.027   5.191
    1MOL     H6  226   2.591   2.058   5.226
    1MOL     O4  227   2.791   2.063   5.284
    1MOL     C8  228   2.743   2.094   5.414
    1MOL     C9  229   2.721   2.101   5.060
    1MOL     H7  230   2.829   2.091   5.041
    1MOL     O5  231   2.689   2.239   5.082
    1MOL    C10  232   2.782   2.337   5.044
    1MOL     H8  233   2.879   2.292   5.022
    1MOL     O6  234   2.745   2.403   4.924
    1MOL    C11  235   2.616   2.466   4.927
    1MOL     H9  236   2.538   2.392   4.950
    1MOL    C12  237   2.592   2.522   4.788
    1MOL    H10  238   2.678   2.585   4.759
    1MOL    H11  239   2.502   2.586   4.788
    1MOL     O7  240   2.575   2.415   4.696
    1MOL    C13  241   2.537   2.461   4.568
    1MOL    C14  242   2.795   2.444   5.154
    1MOL    H12  243   2.874   2.513   5.121
    1MOL     O8  244   2.829   2.392   5.281
    1MOL    C15  245   2.963   2.348   5.294
    1MOL    C16  246   2.666   2.525   5.170
    1MOL    H13  247   2.589   2.460   5.214
    1MOL     O9  248   2.690   2.638   5.253
    1MOL    C17  249   2.643   2.624   5.387
    1MOL    C18  250   2.614   2.576   5.035
    1MOL    H14  251   2.678   2.659   5.004
    1MOL    O10  252   2.480   2.624   5.058
    1MOL    C19  253   2.444   2.752   5.011
    1MOL    H15  254   2.533   2.806   4.978
    1MOL    O11  255   2.360   2.746   4.898
    1MOL    C20  256   2.237   2.675   4.916
    1MOL    H16  257   2.258   2.570   4.939
    1MOL    C21  258   2.162   2.685   4.784
    1MOL    H17  259   2.165   2.790   4.750
    1MOL    H18  260   2.057   2.656   4.798
    1MOL    O12  261   2.224   2.601   4.688
    1MOL    C22  262   2.157   2.605   4.563
    1MOL    C23  263   2.371   2.830   5.122
    1MOL    H19  264   2.349   2.930   5.080
    1MOL    O13  265   2.445   2.844   5.241
    1MOL    C24  266   2.552   2.937   5.235
    1MOL    C25  267   2.238   2.763   5.157
    1MOL    H20  268   2.259   2.668   5.206
    1MOL    O14  269   2.162   2.848   5.242
    1MOL    C26  270   2.165   2.812   5.379
    1MOL    C27  271   2.154   2.735   5.032
    1MOL    H21  272   2.109   2.831   5.000
    1MOL    O15  273   2.050   2.645   5.071
    1MOL    C28  274   1.916   2.675   5.041
    1MOL    H22  275   1.907   2.780   5.013
    1MOL    O16  276   1.869   2.603   4.928
    1MOL    C29  277   1.877   2.460   4.941
    1MOL    H23  278   1.982   2.431   4.956
    1MOL    C30  279   1.830   2.401   4.809
    1MOL    H24  280   1.856   2.294   4.806
    1MOL    H25  281   1.884   2.451   4.726
    1MOL    O17  282   1.690   2.418   4.795
    1MOL    C31  283   1.639   2.352   4.682
    1MOL    C32  284   1.826   2.641   5.162
    1MOL    H26  285   1.724   2.671   5.133
    1MOL    O18  286   1.864   2.706   5.281
    1MOL    C33  287   1.828   2.843   5.287
    1MOL    C34  288   1.825   2.490   5.189
    1MOL    H27  289   1.924   2.460   5.227
    1MOL    O19  290   1.724   2.460   5.284
    1MOL    C35  291   1.772   2.430   5.414
    1MOL    C36  292   1.795   2.411   5.062
    1MOL    H28  293   1.688   2.422   5.038
    1MOL    O20  294   1.825   2.273   5.090
    1MOL    C37  295   1.733   2.174   5.051
    1MOL    H29  296   1.637   2.220   5.024
    1MOL    O21  297   1.773   2.105   4.935
    1MOL    C38  298   1.901   2.039   4.946
    1MOL    H30  299   1.978   2.114   4.969
    1MOL    C39  300   1.932   1.979   4.809
    1MOL    H31  301   2.039   1.955   4.803
    1MOL    H32  302   1.911   2.055   4.732
    1MOL    O22  303   1.853   1.864   4.788
    1MOL    C40  304   1.891   1.795   4.670
    1MOL    C41  305   1.715   2.073   5.166
    1MOL    H33  306   1.637   2.002   5.134
    1MOL    O23  307   1.678   2.131   5.289
    1MOL    C42  308   1.544   2.176   5.296
    1MOL    C43  309   1.844   1.993   5.190
    1MOL    H34  310   1.919   2.060   5.233
    1MOL    O24  311   1.817   1.884   5.278
    1MOL    C44  312   1.863   1.903   5.411
    1MOL    C45  313   1.899   1.935   5.059
    1MOL    H35  314   1.835   1.851   5.029
    1MOL    O25  315   2.031   1.887   5.087
    1MOL    C46  316   2.068   1.759   5.042
    1MOL    H36  317   1.979   1.703   5.012
    1MOL    O26  318   2.149   1.763   4.926
    1MOL    C47  319   2.270   1.838   4.939
    1MOL    H37  320   2.247   1.942   4.964
    1MOL    C48  321   2.337   1.833   4.802
    1MOL    H38  322   2.346   1.728   4.771
    1MOL    H39  323   2.438   1.876   4.808
    1MOL    O27  324   2.257   1.906   4.711
    1MOL    C49  325   2.317   1.916   4.583
    1MOL    C50  326   2.146   1.686   5.153
    1MOL    H40  327   2.167   1.585   5.114
    1MOL    O28  328   2.077   1.676   5.276
    1MOL    C51  329   1.967   1.586   5.275
    1MOL    C52  330   2.280   1.755   5.180
    1MOL    H41  331   2.261   1.852   5.227
    1MOL    O29  332   2.361   1.673   5.264
    1MOL    C53  333   2.359   1.710   5.402
    1MOL    C54  334   2.359   1.780   5.051
    1MOL    H42  335   2.402   1.684   5.018
    1MOL    O30  336   2.465   1.872   5.083
    1MOL    H43  337   2.521   2.373   4.506
    1MOL    H44  338   2.444   2.519   4.573
    1MOL    H45  339   2.615   2.523   4.522
    1MOL    H46  340   2.614   2.057   4.496
    1MOL    H47  341   2.693   2.199   4.571
    1MOL    H48  342   2.781   2.044   4.558
    1MOL    H49  343   2.249   1.975   4.521
    1MOL    H50  344   2.414   1.966   4.589
    1MOL    H51  345   2.330   1.817   4.537
    1MOL    H52  346   1.829   1.705   4.664
    1MOL    H53  347   1.872   1.856   4.580
    1MOL    H54  348   1.997   1.767   4.672
    1MOL    H55  349   1.531   2.371   4.680
    1MOL    H56  350   1.683   2.391   4.589
    1MOL    H57  351   1.657   2.244   4.687
    1MOL    H58  352   2.210   2.537   4.496
    1MOL    H59  353   2.052   2.573   4.572
    1MOL    H60  354   2.159   2.706   4.520
    1MOL    H61  355   1.523   2.198   5.401
    1MOL    H62  356   1.528   2.268   5.238
    1MOL    H63  357   1.474   2.099   5.261
    1MOL    H64  358   1.684   2.416   5.477
    1MOL    H65  359   1.831   2.338   5.414
    1MOL    H66  360   1.831   2.513   5.455
    1MOL    H67  361   1.843   2.875   5.390
    1MOL    H68  362   1.891   2.906   5.222
    1MOL    H69  363   1.722   2.858   5.260
    1MOL    H70  364   2.108   2.890   5.433
    1MOL    H71  365   2.116   2.715   5.396
    1MOL    H72  366   2.268   2.810   5.418
    1MOL    H73  367   2.585   2.954   5.338
    1MOL    H74  368   2.637   2.899   5.177
    1MOL    H75  369   2.519   3.033   5.192
    1MOL    H76  370   2.673   2.716   5.439
    1MOL    H77  371   2.534   2.616   5.390
    1MOL    H78  372   2.689   2.538   5.436
    1MOL    H79  373   2.981   2.333   5.401
    1MOL    H80  374   2.981   2.254   5.242
    1MOL    H81  375   3.033   2.425   5.257
    1MOL    H82  376   2.831   2.113   5.476
    1MOL    H83  377   2.681   2.184   5.412
    1MOL    H84  378   2.686   2.010   5.457
    1MOL    H85  379   2.679   1.651   5.409
    1MOL    H86  380   2.625   1.614   5.244
    1MOL    H87  381   2.795   1.662   5.274
    1MOL    H88  382   2.419   1.636   5.455
    1MOL    H89  383   2.405   1.809   5.416
    1MOL    H90  384   2.257   1.710   5.442
    1MOL    H91  385   1.939   1.571   5.380
    1MOL    H92  386   1.881   1.627   5.221
    1MOL    H93  387   1.996   1.489   5.232
    1MOL    H94  388   1.831   1.815   5.467
    1MOL    H95  389   1.973   1.909   5.414
    1MOL    H96  390   1.820   1.993   5.456
    1MOL     C1  391   1.903   1.837   6.047
    1MOL     H1  392   1.896   1.730   6.070
    1MOL     O1  393   1.854   1.901   6.164
    1MOL     C2  394   1.857   2.045   6.162
    1MOL     H2  395   1.961   2.080   6.156
    1MOL     C3  396   1.795   2.091   6.292
    1MOL     H3  397   1.694   2.047   6.300
    1MOL     H4  398   1.785   2.200   6.292
    1MOL     O2  399   1.874   2.048   6.402
    1MOL     C4  400   1.818   2.090   6.525
    1MOL     C5  401   1.810   1.875   5.930
    1MOL     H5  402   1.709   1.844   5.959
    1MOL     O3  403   1.845   1.815   5.807
    1MOL     C6  404   1.810   1.678   5.796
    1MOL     C7  405   1.810   2.027   5.910
    1MOL     H6  406   1.909   2.058   5.874
    1MOL     O4  407   1.709   2.063   5.816
    1MOL     C8  408   1.758   2.094   5.686
    1MOL     C9  409   1.779   2.101   6.040
    1MOL     H7  410   1.671   2.091   6.059
    1MOL     O5  411   1.811   2.239   6.018
    1MOL    C10  412   1.719   2.337   6.056
    1MOL     H8  413   1.621   2.292   6.078
    1MOL     O6  414   1.755   2.403   6.176
    1MOL    C11  415   1.884   2.466   6.173
    1MOL     H9  416   1.962   2.392   6.151
    1MOL    C12  417   1.908   2.522   6.313
    1MOL    H10  418   1.822   2.585   6.341
    1MOL    H11  419   1.998   2.586   6.312
    1MOL     O7  420   1.925   2.415   6.404
    1MOL    C13  421   1.963   2.461   6.532
    1MOL    C14  422   1.705   2.444   5.946
    1MOL    H12  423   1.626   2.513   5.979
    1MOL     O8  424   1.671   2.392   5.819
    1MOL    C15  425   1.537   2.348   5.806
    1MOL    C16  426   1.834   2.525   5.930
    1MOL    H13  427   1.911   2.460   5.886
    1MOL     O9  428   1.810   2.638   5.847
    1MOL    C17  429   1.857   2.624   5.714
    1MOL    C18  430   1.887   2.576   6.065
    1MOL    H14  431   1.822   2.659   6.096
    1MOL    O10  432   2.020   2.624   6.042
    1MOL    C19  433   2.056   2.752   6.089
    1MOL    H15  434   1.967   2.806   6.123
    1MOL    O11  435   2.140   2.746   6.202
    1MOL    C20  436   2.263   2.675   6.184
    1MOL    H16  437   2.243   2.570   6.161
    1MOL    C21  438   2.338   2.685   6.316
    1MOL    H17  439   2.335   2.790   6.350
    1MOL    H18  440   2.443   2.656   6.302
    1MOL    O12  441   2.276   2.601   6.412
    1MOL    C22  442   2.343   2.605   6.537
    1MOL    C23  443   2.129   2.830   5.978
    1MOL    H19  444   2.151   2.930   6.020
    1MOL    O13  445   2.055   2.844   5.859
    1MOL    C24  446   1.948   2.937   5.865
    1MOL    C25  447   2.262   2.763   5.943
    1MOL    H20  448   2.241   2.668   5.894
    1MOL    O14  449   2.338   2.848   5.858
    1MOL    C26  450   2.335   2.812   5.721
    1MOL    C27  451   2.346   2.735   6.068
    1MOL    H21  452   2.391   2.831   6.101
    1MOL    O15  453   2.450   2.645   6.029
    1MOL    C28  454   2.584   2.675   6.059
    1MOL    H22  455   2.594   2.780   6.087
    1MOL    O16  456   2.631   2.603   6.172
    1MOL    C29  457   2.623   2.460   6.159
    1MOL    H23  458   2.518   2.431   6.144
    1MOL    C30  459   2.670   2.401   6.291
    1MOL    H24  460   2.644   2.294   6.294
    1MOL    H25  461   2.616   2.451   6.374
    1MOL    O17  462   2.810   2.418   6.305
    1MOL    C31  463   2.861   2.352   6.418
    1MOL    C32  464   2.674   2.641   5.939
    1MOL    H26  465   2.776   2.671   5.967
    1MOL    O18  466   2.636   2.706   5.819
    1MOL    C33  467   2.672   2.843   5.813
    1MOL    C34  468   2.675   2.490   5.911
    1MOL    H27  469   2.576   2.460   5.873
    1MOL    O19  470   2.776   2.460   5.816
    1MOL    C35  471   2.728   2.430   5.686
    1MOL    C36  472   2.705   2.411   6.038
    1MOL    H28  473   2.812   2.422   6.062
    1MOL    O20  474   2.675   2.273   6.010
    1MOL    C37  475   2.768   2.174   6.049
    1MOL    H29  476   2.863   2.220   6.076
    1MOL    O21  477   2.727   2.105   6.165
    1MOL    C38  478   2.599   2.039   6.154
    1MOL    H30  479   2.522   2.114   6.131
    1MOL    C39  480   2.568   1.979   6.291
    1MOL    H31  481   2.461   1.955   6.297
    1MOL    H32  482   2.589   2.055   6.368
    1MOL    O22  483   2.647   1.864   6.312
    1MOL    C40  484   2.609   1.795   6.430
    1MOL    C41  485   2.785   2.073   5.934
    1MOL    H33  486   2.863   2.002   5.967
    1MOL    O23  487   2.822   2.131   5.811
    1MOL    C42  488   2.956   2.176   5.805
    1MOL    C43  489   2.657   1.993   5.910
    1MOL    H34  490   2.581   2.060   5.867
    1MOL    O24  491   2.683   1.884   5.822
    1MOL    C44  492   2.637   1.903   5.690
    1MOL    C45  493   2.602   1.935   6.041
    1MOL    H35  494   2.666   1.851   6.072
    1MOL    O25  495   2.469   1.887   6.013
    1MOL    C46  496   2.432   1.759   6.058
    1MOL    H36  497   2.521   1.703   6.088
    1MOL    O26  498   2.351   1.763   6.174
    1MOL    C47  499   2.230   1.838   6.161
    1MOL    H37  500   2.253   1.942   6.136
    1MOL    C48  501   2.163   1.833   6.298
    1MOL    H38  502   2.154   1.728   6.330
    1MOL    H39  503   2.062   1.876   6.292
    1MOL    O27  504   2.243   1.906   6.389
    1MOL    C49  505   2.184   1.916   6.517
    1MOL    C50  506   2.354   1.686   5.947
    1MOL    H40  507   2.333   1.585   5.986
    1MOL    O28  508   2.423   1.676   5.825
    1MOL    C51  509   2.533   1.586   5.825
    1MOL    C52  510   2.220   1.755   5.920
    1MOL    H41  511   2.240   1.852   5.873
    1MOL    O29  512   2.139   1.673   5.836
    1MOL    C53  513   2.141   1.710   5.699
    1MOL    C54  514   2.141   1.780   6.049
    1MOL    H42  515   2.098   1.684   6.082
    1MOL    O30  516   2.036   1.872   6.017
    1MOL    H43  517   1.979   2.373   6.594
    1MOL    H44  518   2.056   2.519   6.527
    1MOL    H45  519   1.885   2.523   6.578
    1MOL    H46  520   1.886   2.057   6.604
    1MOL    H47  521   1.807   2.199   6.529
    1MOL    H48  522   1.719   2.044   6.542
    1MOL    H49  523   2.251   1.975   6.579
    1MOL    H50  524   2.086   1.966   6.511
    1MOL    H51  525   2.170   1.817   6.563
    1MOL    H52  526   2.671   1.705   6.436
    1MOL    H53  527   2.628   1.856   6.520
    1MOL    H54  528   2.503   1.767   6.428
    1MOL    H55  529   2.969   2.371   6.420
    1MOL    H56  530   2.817   2.391   6.512
    1MOL    H57  531   2.844   2.244   6.413
    1MOL    H58  532   2.290   2.537   6.604
    1MOL    H59  533   2.448   2.573   6.528
    1MOL    H60  534   2.341   2.706   6.580
    1MOL    H61  535   2.977   2.198   5.699
    1MOL    H62  536   2.972   2.268   5.862
    1MOL    H63  537   3.026   2.099   5.839
    1MOL    H64  538   2.817   2.416   5.623
    1MOL    H65  539   2.669   2.338   5.686
    1MOL    H66  540   2.669   2.513   5.645
    1MOL    H67  541   2.657   2.875   5.710
    1MOL    H68  542   2.609   2.906   5.878
    1MOL    H69  543   2.778   2.858   5.840
    1MOL    H70  544   2.392   2.890   5.668
    1MOL    H71  545   2.384   2.715   5.704
    1MOL    H72  546   2.232   2.810   5.682
    1MOL    H73  547   1.915   2.954   5.762
    1MOL    H74  548   1.863   2.899   5.923
    1MOL    H75  549   1.981   3.033   5.908
    1MOL    H76  550   1.827   2.716   5.661
    1MOL    H77  551   1.966   2.616   5.711
    1MOL    H78  552   1.811   2.538   5.664
    1MOL    H79  553   1.519   2.333   5.700
    1MOL    H80  554   1.519   2.254   5.859
    1MOL    H81  555   1.467   2.425   5.843
    1MOL    H82  556   1.670   2.113   5.624
    1MOL    H83  557   1.820   2.184   5.688
    1MOL    H84  558   1.814   2.010   5.643
    1MOL    H85  559   1.821   1.651   5.691
    1MOL    H86  560   1.875   1.614   5.856
    1MOL    H87  561   1.705   1.662   5.826
    1MOL    H88  562   2.081   1.636   5.646
    1MOL    H89  563   2.095   1.809   5.684
    1MOL    H90  564   2.243   1.710   5.658
    1MOL    H91  565   2.561   1.571   5.720
    1MOL    H92  566   2.619   1.627   5.879
    1MOL    H93  567   2.504   1.489   5.868
    1MOL    H94  568   2.669   1.815   5.633
    1MOL    H95  569   2.527   1.909   5.686
    1MOL    H96  570   2.680   1.993   5.644
    2SOL     OW  571   0.230   0.628   0.113
    2SOL    HW1  572   0.137   0.626   0.150
    2SOL    HW2  573   0.231   0.589   0.021
    3SOL     OW  574   0.225   0.275   0.996
    3SOL    HW1  575   0.260   0.258   1.088
    3SOL    HW2  576   0.137   0.230   0.984
    4SOL     OW  577   0.019   0.368   0.647
    4SOL    HW1  578  -0.063   0.411   0.686
    4SOL    HW2  579  -0.009   0.295   0.584
    5SOL     OW  580   0.569   1.275   1.165
    5SOL    HW1  581   0.476   1.268   1.128
    5SOL    HW2  582   0.580   1.364   1.209
    6SOL     OW  583   1.555   1.511   0.703
    6SOL    HW1  584   1.498   1.495   0.784
    6SOL    HW2  585   1.496   1.521   0.623
    7SOL     OW  586   1.135   0.703   0.717
    7SOL    HW1  587   1.192   0.781   0.692
    7SOL    HW2  588   1.075   0.729   0.793
    8SOL     OW  589   1.755   0.607   0.231
    8SOL    HW1  590   1.743   0.594   0.132
    8SOL    HW2  591   1.725   0.526   0.280
    9SOL     OW  592   0.768   1.144   1.023
    9SOL    HW1  593   0.690   1.161   1.083
    9SOL    HW2  594   0.802   1.231   0.987
   10SOL     OW  595   0.850   0.798   1.823
   10SOL    HW1  596   0.846   0.874   1.888
   10SOL    HW2  597   0.872   0.834   1.732
   11SOL     OW  598   0.685   1.012   0.665
   11SOL    HW1  599   0.754   0.996   0.735
   11SOL    HW2  600   0.612   1.069   0.703
   12SOL     OW  601   0.686   1.161   1.803
   12SOL    HW1  602   0.746   1.240   1.817
   12SOL    HW2  603   0.600   1.192   1.762
   13SOL     OW  604   0.335   1.435   1.061
   13SOL    HW1  605   0.257   1.404   1.008
   13SOL    HW2  606   0.393   1.493   1.004
   14SOL     OW  607   1.460   1.505   1.339
   14SOL    HW1  608   1.484   1.599   1.365
   14SOL    HW2  609   1.444   1.451   1.421
   15SOL     OW  610   0.438   0.392   1.499
   15SOL    HW1  611   0.520   0.336   1.508
   15SOL    HW2  612   0.357   0.334   1.503
   16SOL     OW  613   1.603   0.447   0.737
   16SOL    HW1  614   1.529   0.493   0.687
   16SOL    HW2  615   1.654   0.515   0.790
   17SOL     OW  616   0.231   1.713   0.483
   17SOL    HW1  617   0.265   1.790   0.537
   17SOL    HW2  618   0.275   1.713   0.393
   18SOL     OW  619   1.127   1.341   1.690
   18SOL    HW1  620   1.174   1.341   1.778
   18SOL    HW2  621   1.079   1.254   1.679
   19SOL     OW  622   0.230   1.434   0.538
   19SOL    HW1  623   0.204   1.530   0.538
   19SOL    HW2  624   0.159   1.380   0.583
   20SOL     OW  625   0.240   1.091   0.886
   20SOL    HW1  626   0.254   1.007   0.938
   20SOL    HW2  627   0.185   1.155   0.941
   21SOL     OW  628   0.620   1.786   1.439
   21SOL    HW1  629   0.528   1.769   1.474
   21SOL    HW2  630   0.648   1.878   1.465
   22SOL     OW  631   0.606   0.964   0.123
   22SOL    HW1  632   0.613   1.048   0.069
   22SOL    HW2  633   0.652   0.977   0.211
   23SOL     OW  634   1.594   0.114   1.480
   23SOL    HW1  635   1.576   0.181   1.408
   23SOL    HW2  636   1.591   0.160   1.569
   24SOL     OW  637   0.122   0.643   0.563
   24SOL    HW1  638   0.077   0.555   0.580
   24SOL    HW2  639   0.121   0.697   0.647
   25SOL     OW  640   1.842   1.767   0.359
   25SOL    HW1  641   1.896   1.738   0.439
   25SOL    HW2  642   1.872   1.857   0.330
   26SOL     OW  643   0.027   1.596   0.117
   26SOL    HW1  644   0.008   1.500   0.138
   26SOL    HW2  645  -0.006   1.654   0.192
   27SOL     OW  646   1.689   0.922   0.612
   27SOL    HW1  647   1.784   0.893   0.620
   27SOL    HW2  648   1.681   0.987   0.537
   28SOL     OW  649   1.641   1.108   0.432
   28SOL    HW1  650   1.727   1.110   0.380
   28SOL    HW2  651   1.655   1.155   0.520
   29SOL     OW  652   0.113   0.737   1.597
   29SOL    HW1  653   0.201   0.724   1.642
   29SOL    HW2  654   0.100   0.834   1.575
   30SOL     OW  655   0.613   1.365   0.726
   30SOL    HW1  656   0.564   1.278   0.735
   30SOL    HW2  657   0.590   1.408   0.639
   31SOL     OW  658   1.293   1.228   1.423
   31SOL    HW1  659   1.330   1.155   1.365
   31SOL    HW2  660   1.345   1.233   1.508
   32SOL     OW  661   0.809   0.004   0.502
   32SOL    HW1  662   0.849   0.095   0.493
   32SOL    HW2  663   0.709   0.012   0.508
   33SOL     OW  664   0.197   0.976   1.264
   33SOL    HW1  665   0.286   0.931   1.250
   33SOL    HW2  666   0.124   0.911   1.245
   34SOL     OW  667   1.525   0.999   0.190
   34SOL    HW1  668   1.462   0.923   0.203
   34SOL    HW2  669   1.573   1.017   0.276
   35SOL     OW  670   1.187   1.792   1.616
   35SOL    HW1  671   1.211   1.852   1.540
   35SOL    HW2  672   1.194   1.697   1.586
   36SOL     OW  673   0.317   0.251   1.801
   36SOL    HW1  674   0.388   0.322   1.807
   36SOL    HW2  675   0.229   0.290   1.829
   37SOL     OW  676   1.466   1.417   0.953
   37SOL    HW1  677   1.407   1.423   1.033
   37SOL    HW2  678   1.451   1.329   0.907
   38SOL     OW  679   1.667   1.714   0.572
   38SOL    HW1  680   1.626   1.691   0.484
   38SOL    HW2  681   1.649   1.640   0.637
   39SOL     OW  682   0.598   0.729   0.270
   39SOL    HW1  683   0.622   0.798   0.202
   39SOL    HW2  684   0.520   0.762   0.324
   40SOL     OW  685   1.281   0.345   0.944
   40SOL    HW1  686   1.195   0.295   0.931
   40SOL    HW2  687   1.343   0.291   1.000
   41SOL     OW  688   1.576   1.662   0.307
   41SOL    HW1  689   1.665   1.708   0.310
   41SOL    HW2  690   1.555   1.638   0.212
   42SOL     OW  691   0.807   0.605   1.465
   42SOL    HW1  692   0.760   0.602   1.554
   42SOL    HW2  693   0.756   0.550   1.399
   43SOL     OW  694   1.394   0.469   1.674
   43SOL    HW1  695   1.374   0.512   1.762
   43SOL    HW2  696   1.472   0.407   1.683
   44SOL     OW  697   0.973   0.890   1.572
   44SOL    HW1  698   1.019   0.806   1.543
   44SOL    HW2  699   0.917   0.924   1.497
   45SOL     OW  700   0.991   0.410   1.242
   45SOL    HW1  701   0.914   0.444   1.296
   45SOL    HW2  702   0.957   0.359   1.163
   46SOL     OW  703   1.041   0.701   0.429
   46SOL    HW1  704   1.067   0.697   0.525
   46SOL    HW2  705   0.956   0.650   0.415
   47SOL     OW  706   0.076   0.811   0.789
   47SOL    HW1  707   0.175   0.799   0.798
   47SOL    HW2  708   0.052   0.906   0.810
   48SOL     OW  709   0.130   1.821   1.571
   48SOL    HW1  710   0.120   1.806   1.670
   48SOL    HW2  711   0.044   1.857   1.535
   49SOL     OW  712   0.865   0.348   0.195
   49SOL    HW1  713   0.924   0.411   0.146
   49SOL    HW2  714   0.884   0.254   0.166
   50SOL     OW  715   1.719   0.585   1.831
   50SOL    HW1  716   1.693   0.674   1.795
   50SOL    HW2  717   1.717   0.517   1.758
   51SOL     OW  718   1.362   1.144   0.545
   51SOL    HW1  719   1.445   1.115   0.497
   51SOL    HW2  720   1.313   1.211   0.489
   52SOL     OW  721   0.550   0.196   0.885
   52SOL    HW1  722   0.545   0.191   0.985
   52SOL    HW2  723   0.552   0.292   0.856
   53SOL     OW  724   1.008   1.456   0.477
   53SOL    HW1  725   0.962   1.528   0.425
   53SOL    HW2  726   1.004   1.476   0.575
   54SOL     OW  727   0.351   1.801   0.853
   54SOL    HW1  728   0.401   1.715   0.859
   54SOL    HW2  729   0.416   1.878   0.850
   55SOL     OW  730   1.795   1.066   0.873
   55SOL    HW1  731   1.733   1.051   0.797
   55SOL    HW2  732   1.743   1.077   0.958
   56SOL     OW  733   1.227   1.550   1.506
   56SOL    HW1  734   1.233   1.473   1.570
   56SOL    HW2  735   1.175   1.524   1.426
   57SOL     OW  736   0.321   0.943   0.242
   57SOL    HW1  737   0.403   0.982   0.200
   57SOL    HW2  738   0.294   0.861   0.193
   58SOL     OW  739   1.458   0.735   0.728
   58SOL    HW1  740   1.453   0.670   0.803
   58SOL    HW2  741   1.538   0.794   0.741
   59SOL     OW  742   0.461   1.266   1.727
   59SOL    HW1  743   0.411   1.267   1.641
   59SOL    HW2  744   0.398   1.248   1.803
   60SOL     OW  745   1.111   1.776   0.237
   60SOL    HW1  746   1.051   1.714   0.287
   60SOL    HW2  747   1.142   1.732   0.152
   61SOL     OW  748   0.202   0.285   1.498
   61SOL    HW1  749   0.122   0.345   1.485
   61SOL    HW2  750   0.192   0.236   1.584
   62SOL     OW  751   1.632   1.377   0.081
   62SOL    HW1  752   1.600   1.471   0.071
   62SOL    HW2  753   1.556   1.314   0.069
   63SOL     OW  754   0.464   1.743   0.323
   63SOL    HW1  755   0.497   1.782   0.409
   63SOL    HW2  756   0.540   1.736   0.258
   64SOL     OW  757   1.400   0.107   0.426
   64SOL    HW1  758   1.376   0.070   0.336
   64SOL    HW2  759   1.499   0.123   0.430
   65SOL     OW  760   0.249   1.785   1.241
   65SOL    HW1  761   0.306   1.720   1.291
   65SOL    HW2  762   0.233   1.752   1.148
   66SOL     OW  763   0.940   1.698   0.904
   66SOL    HW1  764   1.020   1.641   0.925
   66SOL    HW2  765   0.891   1.658   0.827
   67SOL     OW  766   0.382   0.700   0.480
   67SOL    HW1  767   0.427   0.610   0.477
   67SOL    HW2  768   0.288   0.689   0.513
   68SOL     OW  769   1.547   0.222   1.729
   68SOL    HW1  770   1.542   0.259   1.821
   68SOL    HW2  771   1.475   0.153   1.717
   69SOL     OW  772   0.614   0.122   0.117
   69SOL    HW1  773   0.712   0.100   0.124
   69SOL    HW2  774   0.583   0.105   0.024
   70SOL     OW  775   0.781   0.264   1.749
   70SOL    HW1  776   0.848   0.203   1.792
   70SOL    HW2  777   0.708   0.283   1.814
   71SOL     OW  778   0.888   1.514   1.195
   71SOL    HW1  779   0.865   1.489   1.101
   71SOL    HW2  780   0.949   1.445   1.234
   72SOL     OW  781   1.351   0.590   1.433
   72SOL    HW1  782   1.379   0.547   1.518
   72SOL    HW2  783   1.376   0.686   1.434
   73SOL     OW  784   0.803   1.402   0.924
   73SOL    HW1  785   0.893   1.416   0.882
   73SOL    HW2  786   0.732   1.404   0.853
   74SOL     OW  787   0.922   0.503   0.899
   74SOL    HW1  788   0.897   0.494   0.803
   74SOL    HW2  789   0.970   0.421   0.930
   75SOL     OW  790   0.539   0.064   0.512
   75SOL    HW1  791   0.458   0.065   0.570
   75SOL    HW2  792   0.542   0.147   0.457
   76SOL     OW  793   1.434   1.188   0.041
   76SOL    HW1  794   1.466   1.112   0.098
   76SOL    HW2  795   1.342   1.215   0.071
   77SOL     OW  796   0.297   0.035   0.171
   77SOL    HW1  797   0.346   0.119   0.150
   77SOL    HW2  798   0.359  -0.030   0.216
   78SOL     OW  799   0.935   0.236   0.480
   78SOL    HW1  800   0.887   0.277   0.402
   78SOL    HW2  801   1.034   0.234   0.461
   79SOL     OW  802   1.076   0.683   1.464
   79SOL    HW1  803   0.996   0.622   1.467
   79SOL    HW2  804   1.157   0.630   1.440
   80SOL     OW  805   1.227   1.570   0.793
   80SOL    HW1  806   1.248   1.644   0.728
   80SOL    HW2  807   1.295   1.570   0.866
   81SOL     OW  808   0.459   1.152   0.741
   81SOL    HW1  809   0.388   1.125   0.806
   81SOL    HW2  810   0.433   1.124   0.648
   82SOL     OW  811   1.271   1.797   0.591
   82SOL    HW1  812   1.315   1.861   0.527
   82SOL    HW2  813   1.221   1.849   0.661
   83SOL     OW  814   1.032   0.549   0.016
   83SOL    HW1  815   0.991   0.631  -0.023
   83SOL    HW2  816   1.096   0.575   0.089
   84SOL     OW  817   0.078   0.556   1.386
   84SOL    HW1  818   0.170   0.555   1.345
   84SOL    HW2  819   0.072   0.630   1.453
   85SOL     OW  820   0.561   0.222   1.147
   85SOL    HW1  821   0.599   0.138   1.184
   85SOL    HW2  822   0.473   0.241   1.191
   86SOL     OW  823   0.866   0.454   0.642
   86SOL    HW1  824   0.834   0.526   0.580
   86SOL    HW2  825   0.890   0.373   0.589
   87SOL     OW  826   1.017   0.039   0.753
   87SOL    HW1  827   0.945   0.044   0.684
   87SOL    HW2  828   0.993  -0.030   0.822
   88SOL     OW  829   1.429   1.173   0.867
   88SOL    HW1  830   1.374   1.089   0.860
   88SOL    HW2  831   1.455   1.202   0.775
   89SOL     OW  832   1.466   0.590   0.992
   89SOL    HW1  833   1.436   0.495   0.999
   89SOL    HW2  834   1.539   0.606   1.058
   90SOL     OW  835   1.857   0.833   0.377
   90SOL    HW1  836   1.899   0.769   0.441
   90SOL    HW2  837   1.819   0.782   0.299
   91SOL     OW  838   0.488   1.385   0.174
   91SOL    HW1  839   0.401   1.370   0.221
   91SOL    HW2  840   0.471   1.411   0.079
   92SOL     OW  841   1.664   1.280   0.657
   92SOL    HW1  842   1.763   1.288   0.671
   92SOL    HW2  843   1.619   1.364   0.688
   93SOL     OW  844   1.390   0.575   0.078
   93SOL    HW1  845   1.336   0.554   0.159
   93SOL    HW2  846   1.481   0.534   0.087
   94SOL     OW  847   0.527   0.256   0.328
   94SOL    HW1  848   0.554   0.197   0.253
   94SOL    HW2  849   0.527   0.351   0.297
   95SOL     OW  850   1.754   1.223   1.588
   95SOL    HW1  851   1.845   1.184   1.575
   95SOL    HW2  852   1.762   1.319   1.612
   96SOL     OW  853   1.064   1.347   1.340
   96SOL    HW1  854   0.984   1.324   1.395
   96SOL    HW2  855   1.147   1.321   1.389
   97SOL     OW  856   1.592   1.629   1.625
   97SOL    HW1  857   1.619   1.663   1.535
   97SOL    HW2  858   1.671   1.591   1.671
   98SOL     OW  859   1.111   1.195   1.100
   98SOL    HW1  860   1.071   1.239   1.181
   98SOL    HW2  861   1.070   1.232   1.017
   99SOL     OW  862   1.638   1.099   1.079
   99SOL    HW1  863   1.643   1.180   1.138
   99SOL    HW2  864   1.552   1.101   1.028
  100SOL     OW  865   0.915   0.089   1.402
  100SOL    HW1  866   0.940   0.069   1.307
  100SOL    HW2  867   0.987   0.145   1.444
  101SOL     OW  868   0.980   1.116   1.719
  101SOL    HW1  869   0.881   1.122   1.729
  101SOL    HW2  870   1.003   1.036   1.663
  102SOL     OW  871   0.705   1.050   0.368
  102SOL    HW1  872   0.691   1.057   0.467
  102SOL    HW2  873   0.789   0.999   0.350
  103SOL     OW  874   0.410   0.813   1.251
  103SOL    HW1  875   0.496   0.825   1.301
  103SOL    HW2  876   0.368   0.726   1.278
  104SOL     OW  877   1.274   0.386   1.262
  104SOL    HW1  878   1.295   0.460   1.326
  104SOL    HW2  879   1.185   0.403   1.219
  105SOL     OW  880   0.064   1.564   1.331
  105SOL    HW1  881   0.018   1.646   1.297
  105SOL    HW2  882   0.162   1.583   1.340
  106SOL     OW  883   0.367   1.100   0.501
  106SOL    HW1  884   0.360   1.183   0.445
  106SOL    HW2  885   0.371   1.020   0.441
  107SOL     OW  886   0.566   0.537   0.865
  107SOL    HW1  887   0.578   0.603   0.791
  107SOL    HW2  888   0.612   0.571   0.948
  108SOL     OW  889   1.252   1.348   0.388
  108SOL    HW1  890   1.302   1.425   0.428
  108SOL    HW2  891   1.157   1.350   0.420
  109SOL     OW  892   1.272   1.445   1.142
  109SOL    HW1  893   1.319   1.458   1.229
  109SOL    HW2  894   1.206   1.371   1.151
  110SOL     OW  895   1.582   0.639   0.472
  110SOL    HW1  896   1.551   0.700   0.545
  110SOL    HW2  897   1.632   0.691   0.403
  111SOL     OW  898   0.354   1.510   1.329
  111SOL    HW1  899   0.333   1.466   1.242
  111SOL    HW2  900   0.451   1.536   1.332
  112SOL     OW  901   0.402   0.751   1.598
  112SOL    HW1  902   0.470   0.806   1.551
  112SOL    HW2  903   0.442   0.663   1.625
  113SOL     OW  904   1.587   0.779   1.670
  113SOL    HW1  905   1.495   0.817   1.665
  113SOL    HW2  906   1.647   0.826   1.605
  114SOL     OW  907   1.013   0.105   1.770
  114SOL    HW1  908   1.019   0.190   1.718
  114SOL    HW2  909   1.045   0.029   1.713
  115SOL     OW  910   0.504   0.050   1.740
  115SOL    HW1  911   0.462  -0.007   1.670
  115SOL    HW2  912   0.438   0.119   1.772
  116SOL     OW  913   0.573   0.870   1.029
  116SOL    HW1  914   0.617   0.959   1.020
  116SOL    HW2  915   0.510   0.870   1.106
  117SOL     OW  916   1.360   0.862   1.045
  117SOL    HW1  917   1.285   0.862   0.979
  117SOL    HW2  918   1.397   0.770   1.054
  118SOL     OW  919   1.209   0.525   0.275
  118SOL    HW1  920   1.222   0.441   0.329
  118SOL    HW2  921   1.180   0.599   0.335
  119SOL     OW  922   0.307   0.213   1.231
  119SOL    HW1  923   0.284   0.250   1.321
  119SOL    HW2  924   0.277   0.118   1.225
  120SOL     OW  925   0.037   1.310   1.282
  120SOL    HW1  926   0.090   1.261   1.350
  120SOL    HW2  927   0.059   1.408   1.287
  121SOL     OW  928   0.732   0.634   1.064
  121SOL    HW1  929   0.791   0.608   0.988
  121SOL    HW2  930   0.704   0.730   1.053
  122SOL     OW  931   1.728   0.935   1.854
  122SOL    HW1  932   1.682   0.928   1.765
  122SOL    HW2  933   1.666   0.979   1.920
  123SOL     OW  934   0.307   0.063   0.618
  123SOL    HW1  935   0.296   0.157   0.651
  123SOL    HW2  936   0.302   0.000   0.695
  124SOL     OW  937   1.622   0.367   0.374
  124SOL    HW1  938   1.624   0.291   0.438
  124SOL    HW2  939   1.574   0.444   0.414
  125SOL     OW  940   1.023   0.766   0.966
  125SOL    HW1  941   1.038   0.787   1.062
  125SOL    HW2  942   0.993   0.671   0.957
  126SOL     OW  943   0.980   1.573   1.700
  126SOL    HW1  944   0.960   1.617   1.612
  126SOL    HW2  945   1.019   1.482   1.684
  127SOL     OW  946   1.859   1.518   1.605
  127SOL    HW1  947   1.873   1.545   1.510
  127SOL    HW2  948   1.942   1.540   1.658
  128SOL     OW  949   0.350   0.898   1.804
  128SOL    HW1  950   0.426   0.942   1.852
  128SOL    HW2  951   0.385   0.851   1.722
  129SOL     OW  952   1.540   0.274   0.125
  129SOL    HW1  953   1.479   0.199   0.148
  129SOL    HW2  954   1.562   0.326   0.208
  130SOL     OW  955   1.303   0.838   0.042
  130SOL    HW1  956   1.337   0.745   0.057
  130SOL    HW2  957   1.321   0.865  -0.053
  131SOL     OW  958   1.068   1.333   0.849
  131SOL    HW1  959   1.075   1.249   0.794
  131SOL    HW2  960   1.130   1.402   0.813
  132SOL     OW  961   0.319   0.810   0.949
  132SOL    HW1  962   0.412   0.846   0.954
  132SOL    HW2  963   0.313   0.725   1.001
  133SOL     OW  964   0.339   0.509   1.006
  133SOL    HW1  965   0.287   0.426   0.989
  133SOL    HW2  966   0.416   0.514   0.942
  134SOL     OW  967   1.138   0.380   1.678
  134SOL    HW1  968   1.093   0.443   1.742
  134SOL    HW2  969   1.231   0.411   1.661
  135SOL     OW  970   1.160   0.207   1.477
  135SOL    HW1  971   1.160   0.271   1.554
  135SOL    HW2  972   1.188   0.255   1.394
  136SOL     OW  973   0.008   1.326   0.200
  136SOL    HW1  974  -0.085   1.347   0.169
  136SOL    HW2  975   0.018   1.227   0.213
  137SOL     OW  976   0.088   1.801   0.927
  137SOL    HW1  977   0.046   1.715   0.900
  137SOL    HW2  978   0.182   1.804   0.893
  138SOL     OW  979   0.504   1.568   0.910
  138SOL    HW1  980   0.570   1.642   0.919
  138SOL    HW2  981   0.548   1.489   0.868
  139SOL     OW  982   1.002   0.796   1.238
  139SOL    HW1  983   1.043   0.764   1.324
  139SOL    HW2  984   0.906   0.769   1.235
  140SOL     OW  985   0.040   0.544   1.114
  140SOL    HW1  986   0.125   0.511   1.073
  140SOL    HW2  987   0.053   0.559   1.212
  141SOL     OW  988   0.189   0.520   1.722
  141SOL    HW1  989   0.248   0.480   1.652
  141SOL    HW2  990   0.131   0.591   1.681
  142SOL     OW  991   1.369   0.950   1.660
  142SOL    HW1  992   1.408   1.039   1.680
  142SOL    HW2  993   1.379   0.930   1.563
  143SOL     OW  994   0.815   0.572   0.325
  143SOL    HW1  995   0.822   0.483   0.279
  143SOL    HW2  996   0.721   0.606   0.317
  144SOL     OW  997   1.657   0.604   1.206
  144SOL    HW1  998   1.619   0.535   1.268
  144SOL    HW2  999   1.739   0.568   1.162
  145SOL     OW 1000   0.252   1.564   1.744
  145SOL    HW1 1001   0.222   1.621   1.820
  145SOL    HW2 1002   0.245   1.467   1.770
  146SOL     OW 1003   0.671   0.464   1.269
  146SOL    HW1 1004   0.637   0.375   1.239
  146SOL    HW2 1005   0.697   0.518   1.189
  147SOL     OW 1006   0.930   1.678   1.465
  147SOL    HW1 1007   0.906   1.660   1.370
  147SOL    HW2 1008   0.960   1.772   1.475
  148SOL     OW 1009   0.473   0.500   0.191
  148SOL    HW1 1010   0.534   0.580   0.195
  148SOL    HW2 1011   0.378   0.531   0.198
  149SOL     OW 1012   0.159   1.137   1.466
  149SOL    HW1 1013   0.181   1.076   1.542
  149SOL    HW2 1014   0.169   1.088   1.380
  150SOL     OW 1015   1.347   1.059   1.234
  150SOL    HW1 1016   1.371   0.996   1.160
  150SOL    HW2 1017   1.257   1.099   1.216
  151SOL     OW 1018   1.302   0.855   0.309
  151SOL    HW1 1019   1.216   0.824   0.351
  151SOL    HW2 1020   1.298   0.841   0.210
  152SOL     OW 1021   1.759   1.747   1.154
  152SOL    HW1 1022   1.820   1.777   1.081
  152SOL    HW2 1023   1.721   1.658   1.132
  153SOL     OW 1024   1.252   1.731   1.128
  153SOL    HW1 1025   1.336   1.736   1.074
  153SOL    HW2 1026   1.229   1.635   1.146
  154SOL     OW 1027   0.083   1.258   1.022
  154SOL    HW1 1028   0.078   1.257   1.122
  154SOL    HW2 1029   0.000   1.217   0.984
  155SOL     OW 1030   0.688   1.662   1.716
  155SOL    HW1 1031   0.632   1.743   1.725
  155SOL    HW2 1032   0.740   1.666   1.630
  156SOL     OW 1033   0.903   0.086   0.133
  156SOL    HW1 1034   0.954   0.087   0.047
  156SOL    HW2 1035   0.959   0.044   0.204
  157SOL     OW 1036   1.726   0.135   0.523
  157SOL    HW1 1037   1.799   0.118   0.456
  157SOL    HW2 1038   1.695   0.048   0.561
  158SOL     OW 1039   1.388   1.573   0.477
  158SOL    HW1 1040   1.455   1.585   0.403
  158SOL    HW2 1041   1.348   1.662   0.500
  159SOL     OW 1042   0.130   1.794   1.851
  159SOL    HW1 1043   0.089   1.720   1.904
  159SOL    HW2 1044   0.194   1.845   1.909
  160SOL     OW 1045   1.280   0.927   0.672
  160SOL    HW1 1046   1.340   0.846   0.674
  160SOL    HW2 1047   1.320   0.996   0.612
  161SOL     OW 1048   0.830   1.273   1.422
  161SOL    HW1 1049   0.825   1.306   1.517
  161SOL    HW2 1050   0.744   1.292   1.376
  162SOL     OW 1051   0.672   1.616   0.154
  162SOL    HW1 1052   0.681   1.626   0.055
  162SOL    HW2 1053   0.632   1.527   0.175
  163SOL     OW 1054   1.650   1.720   1.394
  163SOL    HW1 1055   1.703   1.730   1.310
  163SOL    HW2 1056   1.623   1.810   1.428
  164SOL     OW 1057   1.841   0.175   0.963
  164SOL    HW1 1058   1.880   0.090   0.927
  164SOL    HW2 1059   1.743   0.177   0.944
  165SOL     OW 1060   0.263   0.326   0.720
  165SOL    HW1 1061   0.184   0.377   0.686
  165SOL    HW2 1062   0.254   0.311   0.818
  166SOL     OW 1063   1.194   1.612   0.031
  166SOL    HW1 1064   1.200   1.519   0.068
  166SOL    HW2 1065   1.135   1.612  -0.049
  167SOL     OW 1066   0.822   1.002   1.372
  167SOL    HW1 1067   0.862   1.001   1.280
  167SOL    HW2 1068   0.832   1.094   1.412
  168SOL     OW 1069   0.916   0.910   0.291
  168SOL    HW1 1070   0.979   0.948   0.223
  168SOL    HW2 1071   0.956   0.827   0.330
  169SOL     OW 1072   1.504   1.607   0.044
  169SOL    HW1 1073   1.412   1.644   0.051
  169SOL    HW2 1074   1.542   1.627  -0.046
  170SOL     OW 1075   0.372   1.288   1.490
  170SOL    HW1 1076   0.359   1.381   1.456
  170SOL    HW2 1077   0.288   1.236   1.477
  171SOL     OW 1078   1.614   1.292   1.289
  171SOL    HW1 1079   1.674   1.295   1.369
  171SOL    HW2 1080   1.539   1.356   1.302
  172SOL     OW 1081   1.039   1.098   0.696
  172SOL    HW1 1082   0.969   1.051   0.750
  172SOL    HW2 1083   1.098   1.030   0.653
  173SOL     OW 1084   1.014   0.236   0.971
  173SOL    HW1 1085   1.006   0.200   0.878
  173SOL    HW2 1086   1.012   0.160   1.036
  174SOL     OW 1087   0.590   1.487   0.491
  174SOL    HW1 1088   0.632   1.429   0.421
  174SOL    HW2 1089   0.546   1.566   0.447
  175SOL     OW 1090   1.709   0.385   1.381
  175SOL    HW1 1091   1.782   0.454   1.385
  175SOL    HW2 1092   1.737   0.310   1.322
  176SOL     OW 1093   0.255   1.348   0.290
  176SOL    HW1 1094   0.159   1.349   0.263
  176SOL    HW2 1095   0.267   1.401   0.374
  177SOL     OW 1096   0.105   1.013   1.726
  177SOL    HW1 1097   0.028   0.980   1.780
  177SOL    HW2 1098   0.190   0.983   1.768
  178SOL     OW 1099   0.672   0.203   1.489
  178SOL    HW1 1100   0.762   0.187   1.449
  178SOL    HW2 1101   0.680   0.208   1.588
  179SOL     OW 1102   0.075   0.345   0.033
  179SOL    HW1 1103  -0.017   0.317   0.004
  179SOL    HW2 1104   0.106   0.422  -0.023
  180SOL     OW 1105   1.440   0.856   1.398
  180SOL    HW1 1106   1.383   0.908   1.335
  180SOL    HW2 1107   1.536   0.868   1.374
  181SOL     OW 1108   0.072   0.166   0.318
  181SOL    HW1 1109   0.055   0.249   0.264
  181SOL    HW2 1110   0.162   0.129   0.296
  182SOL     OW 1111   1.183   1.335   0.119
  182SOL    HW1 1112   1.084   1.324   0.121
  182SOL    HW2 1113   1.217   1.350   0.212
  183SOL     OW 1114   0.613   0.842   1.431
  183SOL    HW1 1115   0.669   0.923   1.414
  183SOL    HW2 1116   0.672   0.762   1.434
  184SOL     OW 1117   1.493   1.767   0.959
  184SOL    HW1 1118   1.526   1.831   0.890
  184SOL    HW2 1119   1.559   1.761   1.034
  185SOL     OW 1120   0.716   0.565   1.708
  185SOL    HW1 1121   0.735   0.630   1.782
  185SOL    HW2 1122   0.776   0.485   1.717
  186SOL     OW 1123   1.450   1.220   1.633
  186SOL    HW1 1124   1.441   1.210   1.732
  186SOL    HW2 1125   1.546   1.213   1.607
  187SOL     OW 1126   0.390   1.741   1.560
  187SOL    HW1 1127   0.299   1.782   1.558
  187SOL    HW2 1128   0.383   1.647   1.592
  188SOL     OW 1129   1.674   0.883   1.254
  188SOL    HW1 1130   1.647   0.794   1.217
  188SOL    HW2 1131   1.675   0.951   1.181
  189SOL     OW 1132   1.225   0.325   0.449
  189SOL    HW1 1133   1.290   0.251   0.438
  189SOL    HW2 1134   1.245   0.375   0.533
  190SOL     OW 1135   0.594   0.745   0.652
  190SOL    HW1 1136   0.644   0.830   0.633
  190SOL    HW2 1137   0.506   0.747   0.604
  191SOL     OW 1138   1.777   0.342   1.642
  191SOL    HW1 1139   1.760   0.373   1.548
  191SOL    HW2 1140   1.693   0.305   1.680
  192SOL     OW 1141   1.730   0.934   1.517
  192SOL    HW1 1142   1.768   1.025   1.532
  192SOL    HW2 1143   1.722   0.917   1.418
  193SOL     OW 1144   0.859   1.374   0.016
  193SOL    HW1 1145   0.813   1.389   0.104
  193SOL    HW2 1146   0.903   1.459  -0.014
  194SOL     OW 1147   0.661   1.790   0.953
  194SOL    HW1 1148   0.615   1.878   0.940
  194SOL    HW2 1149   0.760   1.802   0.946
  195SOL     OW 1150   0.859   0.956   0.861
  195SOL    HW1 1151   0.913   0.887   0.909
  195SOL    HW2 1152   0.827   1.025   0.927
  196SOL     OW 1153   1.083   0.984   0.087
  196SOL    HW1 1154   1.060   1.037   0.005
  196SOL    HW2 1155   1.164   0.928   0.068
  197SOL     OW 1156   1.861   1.569   0.851
  197SOL    HW1 1157   1.790   1.557   0.781
  197SOL    HW2 1158   1.862   1.490   0.911
  198SOL     OW 1159   0.221   1.314   1.844
  198SOL    HW1 1160   0.156   1.241   1.823
  198SOL    HW2 1161   0.225   1.328   1.942
  199SOL     OW 1162   0.079   1.240   0.653
  199SOL    HW1 1163   0.078   1.193   0.741
  199SOL    HW2 1164   0.161   1.212   0.602
  200SOL     OW 1165   0.672   1.391   1.624
  200SOL    HW1 1166   0.594   1.341   1.662
  200SOL    HW2 1167   0.669   1.486   1.655
  201SOL     OW 1168   1.824   0.192   1.227
  201SOL    HW1 1169   1.820   0.102   1.271
  201SOL    HW2 1170   1.827   0.181   1.128
  202SOL     OW 1171   0.428   0.424   0.520
  202SOL    HW1 1172   0.458   0.352   0.458
  202SOL    HW2 1173   0.389   0.384   0.603
  203SOL     OW 1174   1.705   1.487   1.104
  203SOL    HW1 1175   1.612   1.462   1.077
  203SOL    HW2 1176   1.731   1.437   1.186
  204SOL     OW 1177   0.317   0.547   1.280
  204SOL    HW1 1178   0.355   0.488   1.352
  204SOL    HW2 1179   0.357   0.521   1.192
  205SOL     OW 1180   0.812   1.586   0.687
  205SOL    HW1 1181   0.844   1.596   0.593
  205SOL    HW2 1182   0.733   1.524   0.689
  206SOL     OW 1183   1.424   0.214   1.112
  206SOL    HW1 1184   1.476   0.149   1.167
  206SOL    HW2 1185   1.375   0.277   1.173
  207SOL     OW 1186   1.001   0.034   1.154
  207SOL    HW1 1187   0.938  -0.038   1.123
  207SOL    HW2 1188   1.094  -0.002   1.154
  208SOL     OW 1189   0.770   1.330   0.301
  208SOL    HW1 1190   0.724   1.243   0.318
  208SOL    HW2 1191   0.861   1.327   0.342
  209SOL     OW 1192   0.618   1.567   1.284
  209SOL    HW1 1193   0.613   1.649   1.341
  209SOL    HW2 1194   0.707   1.564   1.239
  210SOL     OW 1195   1.352   0.052   0.168
  210SOL    HW1 1196   1.387   0.011   0.084
  210SOL    HW2 1197   1.262   0.014   0.188
  211SOL     OW 1198   1.300   0.453   0.691
  211SOL    HW1 1199   1.241   0.533   0.695
  211SOL    HW2 1200   1.315   0.418   0.784
  212SOL     OW 1201   1.593   0.221   0.882
  212SOL    HW1 1202   1.509   0.220   0.936
  212SOL    HW2 1203   1.595   0.304   0.826
  213SOL     OW 1204   0.039   1.077   0.300
  213SOL    HW1 1205   0.138   1.066   0.291
  213SOL    HW2 1206  -0.001   0.991   0.332
  214SOL     OW 1207   0.875   1.646   0.337
  214SOL    HW1 1208   0.798   1.611   0.283
  214SOL    HW2 1209   0.843   1.717   0.399
  215SOL     OW 1210   0.230   0.628   1.975
  215SOL    HW1 1211   0.137   0.626   2.012
  215SOL    HW2 1212   0.231   0.589   1.883
  216SOL     OW 1213   0.225   0.275   2.858
  216SOL    HW1 1214   0.260   0.258   2.950
  216SOL    HW2 1215   0.137   0.230   2.846
  217SOL     OW 1216   0.019   0.368   2.509
  217SOL    HW1 1217  -0.063   0.411   2.548
  217SOL    HW2 1218  -0.009   0.295   2.446
  218SOL     OW 1219   0.569   1.275   3.027
  218SOL    HW1 1220   0.476   1.268   2.990
  218SOL    HW2 1221   0.580   1.364   3.071
  219SOL     OW 1222   1.555   1.511   2.565
  219SOL    HW1 1223   1.498   1.495   2.646
  219SOL    HW2 1224   1.496   1.521   2.485
  220SOL     OW 1225   1.135   0.703   2.579
  220SOL    HW1 1226   1.192   0.781   2.554
  220SOL    HW2 1227   1.075   0.729   2.655
  221SOL     OW 1228   1.755   0.607   2.093
  221SOL    HW1 1229   1.743   0.594   1.994
  221SOL    HW2 1230   1.725   0.526   2.142
  222SOL     OW 1231   0.768   1.144   2.885
  222SOL    HW1 1232   0.690   1.161   2.945
  222SOL    HW2 1233   0.802   1.231   2.849
  223SOL     OW 1234   0.850   0.798   3.685
  223SOL    HW1 1235   0.846   0.874   3.750
  223SOL    HW2 1236   0.872   0.834   3.594
  224SOL     OW 1237   0.685   1.012   2.527
  224SOL    HW1 1238   0.754   0.996   2.597
  224SOL    HW2 1239   0.612   1.069   2.565
  225SOL     OW 1240   0.686   1.161   3.665
  225SOL    HW1 1241   0.746   1.240   3.679
  225SOL    HW2 1242   0.600   1.192   3.624
  226SOL     OW 1243   0.335   1.435   2.923
  226SOL    HW1 1244   0.257   1.404   2.870
  226SOL    HW2 1245   0.393   1.493   2.866
  227SOL     OW 1246   1.460   1.505   3.201
  227SOL    HW1 1247   1.484   1.599   3.227
  227SOL    HW2 1248   1.444   1.451   3.283
  228SOL     OW 1249   0.438   0.392   3.361
  228SOL    HW1 1250   0.520   0.336   3.370
  228SOL    HW2 1251   0.357   0.334   3.365
  229SOL     OW 1252   1.603   0.447   2.599
  229SOL    HW1 1253   1.529   0.493   2.549
  229SOL    HW2 1254   1.654   0.515   2.652
  230SOL     OW 1255   0.231   1.713   2.345
  230SOL    HW1 1256   0.265   1.790   2.399
  230SOL    HW2 1257   0.275   1.713   2.255
  231SOL     OW 1258   1.127   1.341   3.552
  231SOL    HW1 1259   1.174   1.341   3.640
  231SOL    HW2 1260   1.079   1.254   3.541
  232SOL     OW 1261   0.230   1.434   2.400
  232SOL    HW1 1262   0.204   1.530   2.400
  232SOL    HW2 1263   0.159   1.380   2.445
  233SOL     OW 1264   0.240   1.091   2.748
  233SOL    HW1 1265   0.254   1.007   2.800
  233SOL    HW2 1266   0.185   1.155   2.803
  234SOL     OW 1267   0.620   1.786   3.301
  234SOL    HW1 1268   0.528   1.769   3.336
  234SOL    HW2 1269   0.648   1.878   3.327
  235SOL     OW 1270   0.606   0.964   1.985
  235SOL    HW1 1271   0.613   1.048   1.931
  235SOL    HW2 1272   0.652   0.977   2.073
  236SOL     OW 1273   1.594   0.114   3.342
  236SOL    HW1 1274   1.576   0.181   3.270
  236SOL    HW2 1275   1.591   0.160   3.431
  237SOL     OW 1276   0.122   0.643   2.425
  237SOL    HW1 1277   0.077   0.555   2.442
  237SOL    HW2 1278   0.121   0.697   2.509
  238SOL     OW 1279   1.842   1.767   2.221
  238SOL    HW1 1280   1.896   1.738   2.301
  238SOL    HW2 1281   1.872   1.857   2.192
  239SOL     OW 1282   0.027   1.596   1.979
  239SOL    HW1 1283   0.008   1.500   2.000
  239SOL    HW2 1284  -0.006   1.654   2.054
  240SOL     OW 1285   1.689   0.922   2.474
  240SOL    HW1 1286   1.784   0.893   2.482
  240SOL    HW2 1287   1.681   0.987   2.399
  241SOL     OW 1288   1.641   1.108   2.294
  241SOL    HW1 1289   1.727   1.110   2.242
  241SOL    HW2 1290   1.655   1.155   2.382
  242SOL     OW 1291   0.113   0.737   3.459
  242SOL    HW1 1292   0.201   0.724   3.504
  242SOL    HW2 1293   0.100   0.834   3.437
  243SOL     OW 1294   0.613   1.365   2.588
  243SOL    HW1 1295   0.564   1.278   2.597
  243SOL    HW2 1296   0.590   1.408   2.501
  244SOL     OW 1297   1.293   1.228   3.285
  244SOL    HW1 1298   1.330   1.155   3.227
  244SOL    HW2 1299   1.345   1.233   3.370
  245SOL     OW 1300   0.809   0.004   2.364
  245SOL    HW1 1301   0.849   0.095   2.355
  245SOL    HW2 1302   0.709   0.012   2.370
  246SOL     OW 1303   0.197   0.976   3.126
  246SOL    HW1 1304   0.286   0.931   3.112
  246SOL    HW2 1305   0.124   0.911   3.107
  247SOL     OW 1306   1.525   0.999   2.052
  247SOL    HW1 1307   1.462   0.923   2.065
  247SOL    HW2 1308   1.573   1.017   2.138
  248SOL     OW 1309   1.187   1.792   3.478
  248SOL    HW1 1310   1.211   1.852   3.402
  248SOL    HW2 1311   1.194   1.697   3.448
  249SOL     OW 1312   0.317   0.251   3.663
  249SOL    HW1 1313   0.388   0.322   3.669
  249SOL    HW2 1314   0.229   0.290   3.691
  250SOL     OW 1315   1.466   1.417   2.815
  250SOL    HW1 1316   1.407   1.423   2.895
  250SOL    HW2 1317   1.451   1.329   2.769
  251SOL     OW 1318   1.667   1.714   2.434
  251SOL    HW1 1319   1.626   1.691   2.346
  251SOL    HW2 1320   1.649   1.640   2.499
  252SOL     OW 1321   0.598   0.729   2.132
  252SOL    HW1 1322   0.622   0.798   2.064
  252SOL    HW2 1323   0.520   0.762   2.186
  253SOL     OW 1324   1.281   0.345   2.806
  253SOL    HW1 1325   1.195   0.295   2.793
  253SOL    HW2 1326   1.343   0.291   2.862
  254SOL     OW 1327   1.576   1.662   2.169
  254SOL    HW1 1328   1.665   1.708   2.172
  254SOL    HW2 1329   1.555   1.638   2.074
  255SOL     OW 1330   0.807   0.605   3.327
  255SOL    HW1 1331   0.760   0.602   3.416
  255SOL    HW2 1332   0.756   0.550   3.261
  256SOL     OW 1333   1.394   0.469   3.536
  256SOL    HW1 1334   1.374   0.512   3.624
  256SOL    HW2 1335   1.472   0.407   3.545
  257SOL     OW 1336   0.973   0.890   3.434
  257SOL    HW1 1337   1.019   0.806   3.405
  257SOL    HW2 1338   0.917   0.924   3.359
  258SOL     OW 1339   0.991   0.410   3.104
  258SOL    HW1 1340   0.914   0.444   3.158
  258SOL    HW2 1341   0.957   0.359   3.025
  259SOL     OW 1342   1.041   0.701   2.291
  259SOL    HW1 1343   1.067   0.697   2.387
  259SOL    HW2 1344   0.956   0.650   2.277
  260SOL     OW 1345   0.076   0.811   2.651
  260SOL    HW1 1346   0.175   0.799   2.660
  260SOL    HW2 1347   0.052   0.906   2.672
  261SOL     OW 1348   0.130   1.821   3.433
  261SOL    HW1 1349   0.120   1.806   3.532
  261SOL    HW2 1350   0.044   1.857   3.397
  262SOL     OW 1351   0.865   0.348   2.057
  262SOL    HW1 1352   0.924   0.411   2.008
  262SOL    HW2 1353   0.884   0.254   2.028
  263SOL     OW 1354   1.719   0.585   3.693
  263SOL    HW1 1355   1.693   0.674   3.657
  263SOL    HW2 1356   1.717   0.517   3.620
  264SOL     OW 1357   1.362   1.144   2.407
  264SOL    HW1 1358   1.445   1.115   2.359
  264SOL    HW2 1359   1.313   1.211   2.351
  265SOL     OW 1360   0.550   0.196   2.747
  265SOL    HW1 1361   0.545   0.191   2.847
  265SOL    HW2 1362   0.552   0.292   2.718
  266SOL     OW 1363   1.008   1.456   2.339
  266SOL    HW1 1364   0.962   1.528   2.287
  266SOL    HW2 1365   1.004   1.476   2.437
  267SOL     OW 1366   0.351   1.801   2.715
  267SOL    HW1 1367   0.401   1.715   2.721
  267SOL    HW2 1368   0.416   1.878   2.712
  268SOL     OW 1369   1.795   1.066   2.735
  268SOL    HW1 1370   1.733   1.051   2.659
  268SOL    HW2 1371   1.743   1.077   2.820
  269SOL     OW 1372   1.227   1.550   3.368
  269SOL    HW1 1373   1.233   1.473   3.432
  269SOL    HW2 1374   1.175   1.524   3.288
  270SOL     OW 1375   0.321   0.943   2.104
  270SOL    HW1 1376   0.403   0.982   2.062
  270SOL    HW2 1377   0.294   0.861   2.055
  271SOL     OW 1378   1.458   0.735   2.590
  271SOL    HW1 1379   1.453   0.670   2.665
  271SOL    HW2 1380   1.538   0.794   2.603
  272SOL     OW 1381   0.461   1.266   3.589
  272SOL    HW1 1382   0.411   1.267   3.503
  272SOL    HW2 1383   0.398   1.248   3.665
  273SOL     OW 1384   1.111   1.776   2.099
  273SOL    HW1 1385   1.051   1.714   2.149
  273SOL    HW2 1386   1.142   1.732   2.014
  274SOL     OW 1387   0.202   0.285   3.360
  274SOL    HW1 1388   0.122   0.345   3.347
  274SOL    HW2 1389   0.192   0.236   3.446
  275SOL     OW 1390   1.632   1.377   1.943
  275SOL    HW1 1391   1.600   1.471   1.933
  275SOL    HW2 1392   1.556   1.314   1.931
  276SOL     OW 1393   0.464   1.743   2.185
  276SOL    HW1 1394   0.497   1.782   2.271
  276SOL    HW2 1395   0.540   1.736   2.120
  277SOL     OW 1396   1.400   0.107   2.288
  277SOL    HW1 1397   1.376   0.070   2.198
  277SOL    HW2 1398   1.499   0.123   2.292
  278SOL     OW 1399   0.249   1.785   3.103
  278SOL    HW1 1400   0.306   1.720   3.153
  278SOL    HW2 1401   0.233   1.752   3.010
  279SOL     OW 1402   0.940   1.698   2.766
  279SOL    HW1 1403   1.020   1.641   2.787
  279SOL    HW2 1404   0.891   1.658   2.689
  280SOL     OW 1405   0.382   0.700   2.342
  280SOL    HW1 1406   0.427   0.610   2.339
  280SOL    HW2 1407   0.288   0.689   2.375
  281SOL     OW 1408   1.547   0.222   3.591
  281SOL    HW1 1409   1.542   0.259   3.683
  281SOL    HW2 1410   1.475   0.153   3.579
  282SOL     OW 1411   0.614   0.122   1.979
  282SOL    HW1 1412   0.712   0.100   1.986
  282SOL    HW2 1413   0.583   0.105   1.886
  283SOL     OW 1414   0.781   0.264   3.611
  283SOL    HW1 1415   0.848   0.203   3.654
  283SOL    HW2 1416   0.708   0.283   3.676
  284SOL     OW 1417   0.888   1.514   3.057
  284SOL    HW1 1418   0.865   1.489   2.963
  284SOL    HW2 1419   0.949   1.445   3.096
  285SOL     OW 1420   1.351   0.590   3.295
  285SOL    HW1 1421   1.379   0.547   3.380
  285SOL    HW2 1422   1.376   0.686   3.296
  286SOL     OW 1423   0.803   1.402   2.786
  286SOL    HW1 1424   0.893   1.416   2.744
  286SOL    HW2 1425   0.732   1.404   2.715
  287SOL     OW 1426   0.922   0.503   2.761
  287SOL    HW1 1427   0.897   0.494   2.665
  287SOL    HW2 1428   0.970   0.421   2.792
  288SOL     OW 1429   0.539   0.064   2.374
  288SOL    HW1 1430   0.458   0.065   2.432
  288SOL    HW2 1431   0.542   0.147   2.319
  289SOL     OW 1432   1.434   1.188   1.903
  289SOL    HW1 1433   1.466   1.112   1.960
  289SOL    HW2 1434   1.342   1.215   1.933
  290SOL     OW 1435   0.297   0.035   2.033
  290SOL    HW1 1436   0.346   0.119   2.012
  290SOL    HW2 1437   0.359  -0.030   2.078
  291SOL     OW 1438   0.935   0.236   2.342
  291SOL    HW1 1439   0.887   0.277   2.264
  291SOL    HW2 1440   1.034   0.234   2.323
  292SOL     OW 1441   1.076   0.683   3.326
  292SOL    HW1 1442   0.996   0.622   3.329
  292SOL    HW2 1443   1.157   0.630   3.302
  293SOL     OW 1444   1.227   1.570   2.655
  293SOL    HW1 1445   1.248   1.644   2.590
  293SOL    HW2 1446   1.295   1.570   2.728
  294SOL     OW 1447   0.459   1.152   2.603
  294SOL    HW1 1448   0.388   1.125   2.668
  294SOL    HW2 1449   0.433   1.124   2.510
  295SOL     OW 1450   1.271   1.797   2.453
  295SOL    HW1 1451   1.315   1.861   2.389
  295SOL    HW2 1452   1.221   1.849   2.523
  296SOL     OW 1453   1.032   0.549   1.878
  296SOL    HW1 1454   0.991   0.631   1.839
  296SOL    HW2 1455   1.096   0.575   1.951
  297SOL     OW 1456   0.078   0.556   3.248
  297SOL    HW1 1457   0.170   0.555   3.207
  297SOL    HW2 1458   0.072   0.630   3.315
  298SOL     OW 1459   0.561   0.222   3.009
  298SOL    HW1 1460   0.599   0.138   3.046
  298SOL    HW2 1461   0.473   0.241   3.053
  299SOL     OW 1462   0.866   0.454   2.504
  299SOL    HW1 1463   0.834   0.526   2.442
  299SOL    HW2 1464   0.890   0.373   2.451
  300SOL     OW 1465   1.017   0.039   2.615
  300SOL    HW1 1466   0.945   0.044   2.546
  300SOL    HW2 1467   0.993  -0.030   2.684
  301SOL     OW 1468   1.429   1.173   2.729
  301SOL    HW1 1469   1.374   1.089   2.722
  301SOL    HW2 1470   1.455   1.202   2.637
  302SOL     OW 1471   1.466   0.590   2.854
  302SOL    HW1 1472   1.436   0.495   2.861
  302SOL    HW2 1473   1.539   0.606   2.920
  303SOL     OW 1474   1.857   0.833   2.239
  303SOL    HW1 1475   1.899   0.769   2.303
  303SOL    HW2 1476   1.819   0.782   2.161
  304SOL     OW 1477   0.488   1.385   2.036
  304SOL    HW1 1478   0.401   1.370   2.083
  304SOL    HW2 1479   0.471   1.411   1.941
  305SOL     OW 1480   1.664   1.280   2.519
  305SOL    HW1 1481   1.763   1.288   2.533
  305SOL    HW2 1482   1.619   1.364   2.550
  306SOL     OW 1483   1.390   0.575   1.940
  306SOL    HW1 1484   1.336   0.554   2.021
  306SOL    HW2 1485   1.481   0.534   1.949
  307SOL     OW 1486   0.527   0.256   2.190
  307SOL    HW1 1487   0.554   0.197   2.115
  307SOL    HW2 1488   0.527   0.351   2.159
  308SOL     OW 1489   1.754   1.223   3.450
  308SOL    HW1 1490   1.845   1.184   3.437
  308SOL    HW2 1491   1.762   1.319   3.474
  309SOL     OW 1492   1.064   1.347   3.202
  309SOL    HW1 1493   0.984   1.324   3.257
  309SOL    HW2 1494   1.147   1.321   3.251
  310SOL     OW 1495   1.592   1.629   3.487
  310SOL    HW1 1496   1.619   1.663   3.397
  310SOL    HW2 1497   1.671   1.591   3.533
  311SOL     OW 1498   1.111   1.195   2.962
  311SOL    HW1 1499   1.071   1.239   3.043
  311SOL    HW2 1500   1.070   1.232   2.879
  312SOL     OW 1501   1.638   1.099   2.941
  312SOL    HW1 1502   1.643   1.180   3.000
  312SOL    HW2 1503   1.552   1.101   2.890
  313SOL     OW 1504   0.915   0.089   3.264
  313SOL    HW1 1505   0.940   0.069   3.169
  313SOL    HW2 1506   0.987   0.145   3.306
  314SOL     OW 1507   0.980   1.116   3.581
  314SOL    HW1 1508   0.881   1.122   3.591
  314SOL    HW2 1509   1.003   1.036   3.525
  315SOL     OW 1510   0.705   1.050   2.230
  315SOL    HW1 1511   0.691   1.057   2.329
  315SOL    HW2 1512   0.789   0.999   2.212
  316SOL     OW 1513   0.410   0.813   3.113
  316SOL    HW1 1514   0.496   0.825   3.163
  316SOL    HW2 1515   0.368   0.726   3.140
  317SOL     OW 1516   1.274   0.386   3.124
  317SOL    HW1 1517   1.295   0.460   3.188
  317SOL    HW2 1518   1.185   0.403   3.081
  318SOL     OW 1519   0.064   1.564   3.193
  318SOL    HW1 1520   0.018   1.646   3.159
  318SOL    HW2 1521   0.162   1.583   3.202
  319SOL     OW 1522   0.367   1.100   2.363
  319SOL    HW1 1523   0.360   1.183   2.307
  319SOL    HW2 1524   0.371   1.020   2.303
  320SOL     OW 1525   0.566   0.537   2.727
  320SOL    HW1 1526   0.578   0.603   2.653
  320SOL    HW2 1527   0.612   0.571   2.810
  321SOL     OW 1528   1.252   1.348   2.250
  321SOL    HW1 1529   1.302   1.425   2.290
  321SOL    HW2 1530   1.157   1.350   2.282
  322SOL     OW 1531   1.272   1.445   3.004
  322SOL    HW1 1532   1.319   1.458   3.091
  322SOL    HW2 1533   1.206   1.371   3.013
  323SOL     OW 1534   1.582   0.639   2.334
  323SOL    HW1 1535   1.551   0.700   2.407
  323SOL    HW2 1536   1.632   0.691   2.265
  324SOL     OW 1537   0.354   1.510   3.191
  324SOL    HW1 1538   0.333   1.466   3.104
  324SOL    HW2 1539   0.451   1.536   3.194
  325SOL     OW 1540   0.402   0.751   3.460
  325SOL    HW1 1541   0.470   0.806   3.413
  325SOL    HW2 1542   0.442   0.663   3.487
  326SOL     OW 1543   1.587   0.779   3.532
  326SOL    HW1 1544   1.495   0.817   3.527
  326SOL    HW2 1545   1.647   0.826   3.467
  327SOL     OW 1546   1.013   0.105   3.632
  327SOL    HW1 1547   1.019   0.190   3.580
  327SOL    HW2 1548   1.045   0.029   3.575
  328SOL     OW 1549   0.504   0.050   3.602
  328SOL    HW1 1550   0.462  -0.007   3.532
  328SOL    HW2 1551   0.438   0.119   3.634
  329SOL     OW 1552   0.573   0.870   2.891
  329SOL    HW1 1553   0.617   0.959   2.882
  329SOL    HW2 1554   0.510   0.870   2.968
  330SOL     OW 1555   1.360   0.862   2.907
  330SOL    HW1 1556   1.285   0.862   2.841
  330SOL    HW2 1557   1.397   0.770   2.916
  331SOL     OW 1558   1.209   0.525   2.137
  331SOL    HW1 1559   1.222   0.441   2.191
  331SOL    HW2 1560   1.180   0.599   2.197
  332SOL     OW 1561   0.307   0.213   3.093
  332SOL    HW1 1562   0.284   0.250   3.183
  332SOL    HW2 1563   0.277   0.118   3.087
  333SOL     OW 1564   0.037   1.310   3.144
  333SOL    HW1 1565   0.090   1.261   3.212
  333SOL    HW2 1566   0.059   1.408   3.149
  334SOL     OW 1567   0.732   0.634   2.926
  334SOL    HW1 1568   0.791   0.608   2.850
  334SOL    HW2 1569   0.704   0.730   2.915
  335SOL     OW 1570   1.728   0.935   3.716
  335SOL    HW1 1571   1.682   0.928   3.627
  335SOL    HW2 1572   1.666   0.979   3.782
  336SOL     OW 1573   0.307   0.063   2.480
  336SOL    HW1 1574   0.296   0.157   2.513
  336SOL    HW2 1575   0.302   0.000   2.557
  337SOL     OW 1576   1.622   0.367   2.236
  337SOL    HW1 1577   1.624   0.291   2.300
  337SOL    HW2 1578   1.574   0.444   2.276
  338SOL     OW 1579   1.023   0.766   2.828
  338SOL    HW1 1580   1.038   0.787   2.924
  338SOL    HW2 1581   0.993   0.671   2.819
  339SOL     OW 1582   0.980   1.573   3.562
  339SOL    HW1 1583   0.960   1.617   3.474
  339SOL    HW2 1584   1.019   1.482   3.546
  340SOL     OW 1585   1.859   1.518   3.467
  340SOL    HW1 1586   1.873   1.545   3.372
  340SOL    HW2 1587   1.942   1.540   3.520
  341SOL     OW 1588   0.350   0.898   3.666
  341SOL    HW1 1589   0.426   0.942   3.714
  341SOL    HW2 1590   0.385   0.851   3.584
  342SOL     OW 1591   1.540   0.274   1.987
  342SOL    HW1 1592   1.479   0.199   2.010
  342SOL    HW2 1593   1.562   0.326   2.070
  343SOL     OW 1594   1.303   0.838   1.904
  343SOL    HW1 1595   1.337   0.745   1.919
  343SOL    HW2 1596   1.321   0.865   1.809
  344SOL     OW 1597   1.068   1.333   2.711
  344SOL    HW1 1598   1.075   1.249   2.656
  344SOL    HW2 1599   1.130   1.402   2.675
  345SOL     OW 1600   0.319   0.810   2.811
  345SOL    HW1 1601   0.412   0.846   2.816
  345SOL    HW2 1602   0.313   0.725   2.863
  346SOL     OW 1603   0.339   0.509   2.868
  346SOL    HW1 1604   0.287   0.426   2.851
  346SOL    HW2 1605   0.416   0.514   2.804
  347SOL     OW 1606   1.138   0.380   3.540
  347SOL    HW1 1607   1.093   0.443   3.604
  347SOL    HW2 1608   1.231   0.411   3.523
  348SOL     OW 1609   1.160   0.207   3.339
  348SOL    HW1 1610   1.160   0.271   3.416
  348SOL    HW2 1611   1.188   0.255   3.256
  349SOL     OW 1612   0.008   1.326   2.062
  349SOL    HW1 1613  -0.085   1.347   2.031
  349SOL    HW2 1614   0.018   1.227   2.075
  350SOL     OW 1615   0.088   1.801   2.789
  350SOL    HW1 1616   0.046   1.715   2.762
  350SOL    HW2 1617   0.182   1.804   2.755
  351SOL     OW 1618   0.504   1.568   2.772
  351SOL    HW1 1619   0.570   1.642   2.781
  351SOL    HW2 1620   0.548   1.489   2.730
  352SOL     OW 1621   1.002   0.796   3.100
  352SOL    HW1 1622   1.043   0.764   3.186
  352SOL    HW2 1623   0.906   0.769   3.097
  353SOL     OW 1624   0.040   0.544   2.976
  353SOL    HW1 1625   0.125   0.511   2.935
  353SOL    HW2 1626   0.053   0.559   3.074
  354SOL     OW 1627   0.189   0.520   3.584
  354SOL    HW1 1628   0.248   0.480   3.514
  354SOL    HW2 1629   0.131   0.591   3.543
  355SOL     OW 1630   1.369   0.950   3.522
  355SOL    HW1 1631   1.408   1.039   3.542
  355SOL    HW2 1632   1.379   0.930   3.425
  356SOL     OW 1633   0.815   0.572   2.187
  356SOL    HW1 1634   0.822   0.483   2.141
  356SOL    HW2 1635   0.721   0.606   2.179
  357SOL     OW 1636   1.657   0.604   3.068
  357SOL    HW1 1637   1.619   0.535   3.130
  357SOL    HW2 1638   1.739   0.568   3.024
  358SOL     OW 1639   0.252   1.564   3.606
  358SOL    HW1 1640   0.222   1.621   3.682
  358SOL    HW2 1641   0.245   1.467   3.632
  359SOL     OW 1642   0.671   0.464   3.131
  359SOL    HW1 1643   0.637   0.375   3.101
  359SOL    HW2 1644   0.697   0.518   3.051
  360SOL     OW 1645   0.930   1.678   3.327
  360SOL    HW1 1646   0.906   1.660   3.232
  360SOL    HW2 1647   0.960   1.772   3.337
  361SOL     OW 1648   0.473   0.500   2.053
  361SOL    HW1 1649   0.534   0.580   2.057
  361SOL    HW2 1650   0.378   0.531   2.060
  362SOL     OW 1651   0.159   1.137   3.328
  362SOL    HW1 1652   0.181   1.076   3.404
  362SOL    HW2 1653   0.169   1.088   3.242
  363SOL     OW 1654   1.347   1.059   3.096
  363SOL    HW1 1655   1.371   0.996   3.022
  363SOL    HW2 1656   1.257   1.099   3.078
  364SOL     OW 1657   1.302   0.855   2.171
  364SOL    HW1 1658   1.216   0.824   2.213
  364SOL    HW2 1659   1.298   0.841   2.072
  365SOL     OW 1660   1.759   1.747   3.016
  365SOL    HW1 1661   1.820   1.777   2.943
  365SOL    HW2 1662   1.721   1.658   2.994
  366SOL     OW 1663   1.252   1.731   2.990
  366SOL    HW1 1664   1.336   1.736   2.936
  366SOL    HW2 1665   1.229   1.635   3.008
  367SOL     OW 1666   0.083   1.258   2.884
  367SOL    HW1 1667   0.078   1.257   2.984
  367SOL    HW2 1668   0.000   1.217   2.846
  368SOL     OW 1669   0.688   1.662   3.578
  368SOL    HW1 1670   0.632   1.743   3.587
  368SOL    HW2 1671   0.740   1.666   3.492
  369SOL     OW 1672   1.726   0.135   2.385
  369SOL    HW1 1673   1.799   0.118   2.318
  369SOL    HW2 1674   1.695   0.048   2.423
  370SOL     OW 1675   1.388   1.573   2.339
  370SOL    HW1 1676   1.455   1.585   2.265
  370SOL    HW2 1677   1.348   1.662   2.362
  371SOL     OW 1678   0.130   1.794   3.713
  371SOL    HW1 1679   0.089   1.720   3.766
  371SOL    HW2 1680   0.194   1.845   3.771
  372SOL     OW 1681   1.280   0.927   2.534
  372SOL    HW1 1682   1.340   0.846   2.536
  372SOL    HW2 1683   1.320   0.996   2.474
  373SOL     OW 1684   0.830   1.273   3.284
  373SOL    HW1 1685   0.825   1.306   3.379
  373SOL    HW2 1686   0.744   1.292   3.238
  374SOL     OW 1687   0.672   1.616   2.016
  374SOL    HW1 1688   0.681   1.626   1.917
  374SOL    HW2 1689   0.632   1.527   2.037
  375SOL     OW 1690   1.650   1.720   3.256
  375SOL    HW1 1691   1.703   1.730   3.172
  375SOL    HW2 1692   1.623   1.810   3.290
  376SOL     OW 1693   1.841   0.175   2.825
  376SOL    HW1 1694   1.880   0.090   2.789
  376SOL    HW2 1695   1.743   0.177   2.806
  377SOL     OW 1696   0.263   0.326   2.582
  377SOL    HW1 1697   0.184   0.377   2.548
  377SOL    HW2 1698   0.254   0.311   2.680
  378SOL     OW 1699   1.194   1.612   1.893
  378SOL    HW1 1700   1.200   1.519   1.930
  378SOL    HW2 1701   1.135   1.612   1.813
  379SOL     OW 1702   0.822   1.002   3.234
  379SOL    HW1 1703   0.862   1.001   3.142
  379SOL    HW2 1704   0.832   1.094   3.274
  380SOL     OW 1705   0.916   0.910   2.153
  380SOL    HW1 1706   0.979   0.948   2.085
  380SOL    HW2 1707   0.956   0.827   2.192
  381SOL     OW 1708   1.504   1.607   1.906
  381SOL    HW1 1709   1.412   1.644   1.913
  381SOL    HW2 1710   1.542   1.627   1.816
  382SOL     OW 1711   0.372   1.288   3.352
  382SOL    HW1 1712   0.359   1.381   3.318
  382SOL    HW2 1713   0.288   1.236   3.339
  383SOL     OW 1714   1.614   1.292   3.151
  383SOL    HW1 1715   1.674   1.295   3.231
  383SOL    HW2 1716   1.539   1.356   3.164
  384SOL     OW 1717   1.039   1.098   2.558
  384SOL    HW1 1718   0.969   1.051   2.612
  384SOL    HW2 1719   1.098   1.030   2.515
  385SOL     OW 1720   1.014   0.236   2.833
  385SOL    HW1 1721   1.006   0.200   2.740
  385SOL    HW2 1722   1.012   0.160   2.898
  386SOL     OW 1723   0.590   1.487   2.353
  386SOL    HW1 1724   0.632   1.429   2.283
  386SOL    HW2 1725   0.546   1.566   2.309
  387SOL     OW 1726   1.709   0.385   3.243
  387SOL    HW1 1727   1.782   0.454   3.247
  387SOL    HW2 1728   1.737   0.310   3.184
  388SOL     OW 1729   0.255   1.348   2.152
  388SOL    HW1 1730   0.159   1.349   2.125
  388SOL    HW2 1731   0.267   1.401   2.236
  389SOL     OW 1732   0.105   1.013   3.588
  389SOL    HW1 1733   0.028   0.980   3.642
  389SOL    HW2 1734   0.190   0.983   3.630
  390SOL     OW 1735   0.672   0.203   3.351
  390SOL    HW1 1736   0.762   0.187   3.311
  390SOL    HW2 1737   0.680   0.208   3.450
  391SOL     OW 1738   0.075   0.345   1.895
  391SOL    HW1 1739  -0.017   0.317   1.866
  391SOL    HW2 1740   0.106   0.422   1.839
  392SOL     OW 1741   1.440   0.856   3.260
  392SOL    HW1 1742   1.383   0.908   3.197
  392SOL    HW2 1743   1.536   0.868   3.236
  393SOL     OW 1744   0.072   0.166   2.180
  393SOL    HW1 1745   0.055   0.249   2.126
  393SOL    HW2 1746   0.162   0.129   2.158
  394SOL     OW 1747   1.183   1.335   1.981
  394SOL    HW1 1748   1.084   1.324   1.983
  394SOL    HW2 1749   1.217   1.350   2.074
  395SOL     OW 1750   0.613   0.842   3.293
  395SOL    HW1 1751   0.669   0.923   3.276
  395SOL    HW2 1752   0.672   0.762   3.296
  396SOL     OW 1753   1.493   1.767   2.821
  396SOL    HW1 1754   1.526   1.831   2.752
  396SOL    HW2 1755   1.559   1.761   2.896
  397SOL     OW 1756   0.716   0.565   3.570
  397SOL    HW1 1757   0.735   0.630   3.644
  397SOL    HW2 1758   0.776   0.485   3.579
  398SOL     OW 1759   1.450   1.220   3.495
  398SOL    HW1 1760   1.441   1.210   3.594
  398SOL    HW2 1761   1.546   1.213   3.469
  399SOL     OW 1762   0.390   1.741   3.422
  399SOL    HW1 1763   0.299   1.782   3.420
  399SOL    HW2 1764   0.383   1.647   3.454
  400SOL     OW 1765   1.674   0.883   3.116
  400SOL    HW1 1766   1.647   0.794   3.079
  400SOL    HW2 1767   1.675   0.951   3.043
  401SOL     OW 1768   1.225   0.325   2.311
  401SOL    HW1 1769   1.290   0.251   2.300
  401SOL    HW2 1770   1.245   0.375   2.395
  402SOL     OW 1771   0.594   0.745   2.514
  402SOL    HW1 1772   0.644   0.830   2.495
  402SOL    HW2 1773   0.506   0.747   2.466
  403SOL     OW 1774   1.777   0.342   3.504
  403SOL    HW1 1775   1.760   0.373   3.410
  403SOL    HW2 1776   1.693   0.305   3.542
  404SOL     OW 1777   1.730   0.934   3.379
  404SOL    HW1 1778   1.768   1.025   3.394
  404SOL    HW2 1779   1.722   0.917   3.280
  405SOL     OW 1780   0.859   1.374   1.878
  405SOL    HW1 1781   0.813   1.389   1.966
  405SOL    HW2 1782   0.903   1.459   1.848
  406SOL     OW 1783   0.661   1.790   2.815
  406SOL    HW1 1784   0.615   1.878   2.802
  406SOL    HW2 1785   0.760   1.802   2.808
  407SOL     OW 1786   0.859   0.956   2.723
  407SOL    HW1 1787   0.913   0.887   2.771
  407SOL    HW2 1788   0.827   1.025   2.789
  408SOL     OW 1789   1.083   0.984   1.949
  408SOL    HW1 1790   1.060   1.037   1.867
  408SOL    HW2 1791   1.164   0.928   1.930
  409SOL     OW 1792   1.861   1.569   2.713
  409SOL    HW1 1793   1.790   1.557   2.643
  409SOL    HW2 1794   1.862   1.490   2.773
  410SOL     OW 1795   0.221   1.314   3.706
  410SOL    HW1 1796   0.156   1.241   3.685
  410SOL    HW2 1797   0.225   1.328   3.804
  411SOL     OW 1798   0.079   1.240   2.515
  411SOL    HW1 1799   0.078   1.193   2.603
  411SOL    HW2 1800   0.161   1.212   2.464
  412SOL     OW 1801   0.672   1.391   3.486
  412SOL    HW1 1802   0.594   1.341   3.524
  412SOL    HW2 1803   0.669   1.486   3.517
  413SOL     OW 1804   1.824   0.192   3.089
  413SOL    HW1 1805   1.820   0.102   3.133
  413SOL    HW2 1806   1.827   0.181   2.990
  414SOL     OW 1807   0.428   0.424   2.382
  414SOL    HW1 1808   0.458   0.352   2.320
  414SOL    HW2 1809   0.389   0.384   2.465
  415SOL     OW 1810   1.705   1.487   2.966
  415SOL    HW1 1811   1.612   1.462   2.939
  415SOL    HW2 1812   1.731   1.437   3.048
  416SOL     OW 1813   0.317   0.547   3.142
  416SOL    HW1 1814   0.355   0.488   3.214
  416SOL    HW2 1815   0.357   0.521   3.054
  417SOL     OW 1816   0.812   1.586   2.549
  417SOL    HW1 1817   0.844   1.596   2.455
  417SOL    HW2 1818   0.733   1.524   2.551
  418SOL     OW 1819   1.424   0.214   2.974
  418SOL    HW1 1820   1.476   0.149   3.029
  418SOL    HW2 1821   1.375   0.277   3.035
  419SOL     OW 1822   1.001   0.034   3.016
  419SOL    HW1 1823   0.938  -0.038   2.985
  419SOL    HW2 1824   1.094  -0.002   3.016
  420SOL     OW 1825   0.770   1.330   2.163
  420SOL    HW1 1826   0.724   1.243   2.180
  420SOL    HW2 1827   0.861   1.327   2.204
  421SOL     OW 1828   0.618   1.567   3.146
  421SOL    HW1 1829   0.613   1.649   3.203
  421SOL    HW2 1830   0.707   1.564   3.101
  422SOL     OW 1831   1.352   0.052   2.030
  422SOL    HW1 1832   1.387   0.011   1.946
  422SOL    HW2 1833   1.262   0.014   2.050
  423SOL     OW 1834   1.300   0.453   2.553
  423SOL    HW1 1835   1.241   0.533   2.557
  423SOL    HW2 1836   1.315   0.418   2.646
  424SOL     OW 1837   1.593   0.221   2.744
  424SOL    HW1 1838   1.509   0.220   2.798
  424SOL    HW2 1839   1.595   0.304   2.688
  425SOL     OW 1840   0.039   1.077   2.162
  425SOL    HW1 1841   0.138   1.066   2.153
  425SOL    HW2 1842  -0.001   0.991   2.194
  426SOL     OW 1843   0.875   1.646   2.199
  426SOL    HW1 1844   0.798   1.611   2.145
  426SOL    HW2 1845   0.843   1.717   2.261
  427SOL     OW 1846   0.230   0.628   3.837
  427SOL    HW1 1847   0.137   0.626   3.874
  427SOL    HW2 1848   0.231   0.589   3.745
  428SOL     OW 1849   0.225   0.275   4.720
  428SOL    HW1 1850   0.260   0.258   4.812
  428SOL    HW2 1851   0.137   0.230   4.708
  429SOL     OW 1852   0.019   0.368   4.371
  429SOL    HW1 1853  -0.063   0.411   4.410
  429SOL    HW2 1854  -0.009   0.295   4.308
  430SOL     OW 1855   0.569   1.275   4.889
  430SOL    HW1 1856   0.476   1.268   4.852
  430SOL    HW2 1857   0.580   1.364   4.933
  431SOL     OW 1858   1.555   1.511   4.427
  431SOL    HW1 1859   1.498   1.495   4.508
  431SOL    HW2 1860   1.496   1.521   4.347
  432SOL     OW 1861   1.135   0.703   4.441
  432SOL    HW1 1862   1.192   0.781   4.416
  432SOL    HW2 1863   1.075   0.729   4.517
  433SOL     OW 1864   1.755   0.607   3.955
  433SOL    HW1 1865   1.743   0.594   3.856
  433SOL    HW2 1866   1.725   0.526   4.004
  434SOL     OW 1867   0.768   1.144   4.747
  434SOL    HW1 1868   0.690   1.161   4.807
  434SOL    HW2 1869   0.802   1.231   4.711
  435SOL     OW 1870   0.850   0.798   5.547
  435SOL    HW1 1871   0.846   0.874   5.612
  435SOL    HW2 1872   0.872   0.834   5.456
  436SOL     OW 1873   0.685   1.012   4.389
  436SOL    HW1 1874   0.754   0.996   4.459
  436SOL    HW2 1875   0.612   1.069   4.427
  437SOL     OW 1876   0.686   1.161   5.527
  437SOL    HW1 1877   0.746   1.240   5.541
  437SOL    HW2 1878   0.600   1.192   5.486
  438SOL     OW 1879   0.335   1.435   4.785
  438SOL    HW1 1880   0.257   1.404   4.732
  438SOL    HW2 1881   0.393   1.493   4.728
  439SOL     OW 1882   1.460   1.505   5.063
  439SOL    HW1 1883   1.484   1.599   5.089
  439SOL    HW2 1884   1.444   1.451   5.145
  440SOL     OW 1885   0.438   0.392   5.223
  440SOL    HW1 1886   0.520   0.336   5.232
  440SOL    HW2 1887   0.357   0.334   5.227
  441SOL     OW 1888   1.603   0.447   4.461
  441SOL    HW1 1889   1.529   0.493   4.411
  441SOL    HW2 1890   1.654   0.515   4.514
  442SOL     OW 1891   0.231   1.713   4.207
  442SOL    HW1 1892   0.265   1.790   4.261
  442SOL    HW2 1893   0.275   1.713   4.117
  443SOL     OW 1894   1.127   1.341   5.414
  443SOL    HW1 1895   1.174   1.341   5.502
  443SOL    HW2 1896   1.079   1.254   5.403
  444SOL     OW 1897   0.230   1.434   4.262
  444SOL    HW1 1898   0.204   1.530   4.262
  444SOL    HW2 1899   0.159   1.380   4.307
  445SOL     OW 1900   0.240   1.091   4.610
  445SOL    HW1 1901   0.254   1.007   4.662
  445SOL    HW2 1902   0.185   1.155   4.665
  446SOL     OW 1903   0.620   1.786   5.163
  446SOL    HW1 1904   0.528   1.769   5.198
  446SOL    HW2 1905   0.648   1.878   5.189
  447SOL     OW 1906   0.606   0.964   3.847
  447SOL    HW1 1907   0.613   1.048   3.793
  447SOL    HW2 1908   0.652   0.977   3.935
  448SOL     OW 1909   1.594   0.114   5.204
  448SOL    HW1 1910   1.576   0.181   5.132
  448SOL    HW2 1911   1.591   0.160   5.293
  449SOL     OW 1912   0.122   0.643   4.287
  449SOL    HW1 1913   0.077   0.555   4.304
  449SOL    HW2 1914   0.121   0.697   4.371
  450SOL     OW 1915   1.842   1.767   4.083
  450SOL    HW1 1916   1.896   1.738   4.163
  450SOL    HW2 1917   1.872   1.857   4.054
  451SOL     OW 1918   0.027   1.596   3.841
  451SOL    HW1 1919   0.008   1.500   3.862
  451SOL    HW2 1920  -0.006   1.654   3.916
  452SOL     OW 1921   1.689   0.922   4.336
  452SOL    HW1 1922   1.784   0.893   4.344
  452SOL    HW2 1923   1.681   0.987   4.261
  453SOL     OW 1924   1.641   1.108   4.156
  453SOL    HW1 1925   1.727   1.110   4.104
  453SOL    HW2 1926   1.655   1.155   4.244
  454SOL     OW 1927   0.113   0.737   5.321
  454SOL    HW1 1928   0.201   0.724   5.366
  454SOL    HW2 1929   0.100   0.834   5.299
  455SOL     OW 1930   0.613   1.365   4.450
  455SOL    HW1 1931   0.564   1.278   4.459
  455SOL    HW2 1932   0.590   1.408   4.363
  456SOL     OW 1933   1.293   1.228   5.147
  456SOL    HW1 1934   1.330   1.155   5.089
  456SOL    HW2 1935   1.345   1.233   5.232
  457SOL     OW 1936   0.809   0.004   4.226
  457SOL    HW1 1937   0.849   0.095   4.217
  457SOL    HW2 1938   0.709   0.012   4.232
  458SOL     OW 1939   0.197   0.976   4.988
  458SOL    HW1 1940   0.286   0.931   4.974
  458SOL    HW2 1941   0.124   0.911   4.969
  459SOL     OW 1942   1.525   0.999   3.914
  459SOL    HW1 1943   1.462   0.923   3.927
  459SOL    HW2 1944   1.573   1.017   4.000
  460SOL     OW 1945   1.187   1.792   5.340
  460SOL    HW1 1946   1.211   1.852   5.264
  460SOL    HW2 1947   1.194   1.697   5.310
  461SOL     OW 1948   0.317   0.251   5.525
  461SOL    HW1 1949   0.388   0.322   5.531
  461SOL    HW2 1950   0.229   0.290   5.553
  462SOL     OW 1951   1.466   1.417   4.677
  462SOL    HW1 1952   1.407   1.423   4.757
  462SOL    HW2 1953   1.451   1.329   4.631
  463SOL     OW 1954   1.667   1.714   4.296
  463SOL    HW1 1955   1.626   1.691   4.208
  463SOL    HW2 1956   1.649   1.640   4.361
  464SOL     OW 1957   0.598   0.729   3.994
  464SOL    HW1 1958   0.622   0.798   3.926
  464SOL    HW2 1959   0.520   0.762   4.048
  465SOL     OW 1960   1.281   0.345   4.668
  465SOL    HW1 1961   1.195   0.295   4.655
  465SOL    HW2 1962   1.343   0.291   4.724
  466SOL     OW 1963   1.576   1.662   4.031
  466SOL    HW1 1964   1.665   1.708   4.034
  466SOL    HW2 1965   1.555   1.638   3.936
  467SOL     OW 1966   0.807   0.605   5.189
  467SOL    HW1 1967   0.760   0.602   5.278
  467SOL    HW2 1968   0.756   0.550   5.123
  468SOL     OW 1969   1.394   0.469   5.398
  468SOL    HW1 1970   1.374   0.512   5.486
  468SOL    HW2 1971   1.472   0.407   5.407
  469SOL     OW 1972   0.973   0.890   5.296
  469SOL    HW1 1973   1.019   0.806   5.267
  469SOL    HW2 1974   0.917   0.924   5.221
  470SOL     OW 1975   0.991   0.410   4.966
  470SOL    HW1 1976   0.914   0.444   5.020
  470SOL    HW2 1977   0.957   0.359   4.887
  471SOL     OW 1978   1.041   0.701   4.153
  471SOL    HW1 1979   1.067   0.697   4.249
  471SOL    HW2 1980   0.956   0.650   4.139
  472SOL     OW 1981   0.076   0.811   4.513
  472SOL    HW1 1982   0.175   0.799   4.522
  472SOL    HW2 1983   0.052   0.906   4.534
  473SOL     OW 1984   0.130   1.821   5.295
  473SOL    HW1 1985   0.120   1.806   5.394
  473SOL    HW2 1986   0.044   1.857   5.259
  474SOL     OW 1987   0.865   0.348   3.919
  474SOL    HW1 1988   0.924   0.411   3.870
  474SOL    HW2 1989   0.884   0.254   3.890
  475SOL     OW 1990   1.719   0.585   5.555
  475SOL    HW1 1991   1.693   0.674   5.519
  475SOL    HW2 1992   1.717   0.517   5.482
  476SOL     OW 1993   1.362   1.144   4.269
  476SOL    HW1 1994   1.445   1.115   4.221
  476SOL    HW2 1995   1.313   1.211   4.213
  477SOL     OW 1996   0.550   0.196   4.609
  477SOL    HW1 1997   0.545   0.191   4.709
  477SOL    HW2 1998   0.552   0.292   4.580
  478SOL     OW 1999   1.008   1.456   4.201
  478SOL    HW1 2000   0.962   1.528   4.149
  478SOL    HW2 2001   1.004   1.476   4.299
  479SOL     OW 2002   0.351   1.801   4.577
  479SOL    HW1 2003   0.401   1.715   4.583
  479SOL    HW2 2004   0.416   1.878   4.574
  480SOL     OW 2005   1.795   1.066   4.597
  480SOL    HW1 2006   1.733   1.051   4.521
  480SOL    HW2 2007   1.743   1.077   4.682
  481SOL     OW 2008   1.227   1.550   5.230
  481SOL    HW1 2009   1.233   1.473   5.294
  481SOL    HW2 2010   1.175   1.524   5.150
  482SOL     OW 2011   0.321   0.943   3.966
  482SOL    HW1 2012   0.403   0.982   3.924
  482SOL    HW2 2013   0.294   0.861   3.917
  483SOL     OW 2014   1.458   0.735   4.452
  483SOL    HW1 2015   1.453   0.670   4.527
  483SOL    HW2 2016   1.538   0.794   4.465
  484SOL     OW 2017   0.461   1.266   5.451
  484SOL    HW1 2018   0.411   1.267   5.365
  484SOL    HW2 2019   0.398   1.248   5.527
  485SOL     OW 2020   1.111   1.776   3.961
  485SOL    HW1 2021   1.051   1.714   4.011
  485SOL    HW2 2022   1.142   1.732   3.876
  486SOL     OW 2023   0.202   0.285   5.222
  486SOL    HW1 2024   0.122   0.345   5.209
  486SOL    HW2 2025   0.192   0.236   5.308
  487SOL     OW 2026   1.632   1.377   3.805
  487SOL    HW1 2027   1.600   1.471   3.795
  487SOL    HW2 2028   1.556   1.314   3.793
  488SOL     OW 2029   0.464   1.743   4.047
  488SOL    HW1 2030   0.497   1.782   4.133
  488SOL    HW2 2031   0.540   1.736   3.982
  489SOL     OW 2032   1.400   0.107   4.150
  489SOL    HW1 2033   1.376   0.070   4.060
  489SOL    HW2 2034   1.499   0.123   4.154
  490SOL     OW 2035   0.249   1.785   4.965
  490SOL    HW1 2036   0.306   1.720   5.015
  490SOL    HW2 2037   0.233   1.752   4.872
  491SOL     OW 2038   0.940   1.698   4.628
  491SOL    HW1 2039   1.020   1.641   4.649
  491SOL    HW2 2040   0.891   1.658   4.551
  492SOL     OW 2041   0.382   0.700   4.204
  492SOL    HW1 2042   0.427   0.610   4.201
  492SOL    HW2 2043   0.288   0.689   4.237
  493SOL     OW 2044   1.547   0.222   5.453
  493SOL    HW1 2045   1.542   0.259   5.545
  493SOL    HW2 2046   1.475   0.153   5.441
  494SOL     OW 2047   0.614   0.122   3.841
  494SOL    HW1 2048   0.712   0.100   3.848
  494SOL    HW2 2049   0.583   0.105   3.748
  495SOL     OW 2050   0.781   0.264   5.473
  495SOL    HW1 2051   0.848   0.203   5.516
  495SOL    HW2 2052   0.708   0.283   5.538
  496SOL     OW 2053   0.888   1.514   4.919
  496SOL    HW1 2054   0.865   1.489   4.825
  496SOL    HW2 2055   0.949   1.445   4.958
  497SOL     OW 2056   1.351   0.590   5.157
  497SOL    HW1 2057   1.379   0.547   5.242
  497SOL    HW2 2058   1.376   0.686   5.158
  498SOL     OW 2059   0.803   1.402   4.648
  498SOL    HW1 2060   0.893   1.416   4.606
  498SOL    HW2 2061   0.732   1.404   4.577
  499SOL     OW 2062   0.922   0.503   4.623
  499SOL    HW1 2063   0.897   0.494   4.527
  499SOL    HW2 2064   0.970   0.421   4.654
  500SOL     OW 2065   0.539   0.064   4.236
  500SOL    HW1 2066   0.458   0.065   4.294
  500SOL    HW2 2067   0.542   0.147   4.181
  501SOL     OW 2068   1.434   1.188   3.765
  501SOL    HW1 2069   1.466   1.112   3.822
  501SOL    HW2 2070   1.342   1.215   3.795
  502SOL     OW 2071   0.297   0.035   3.895
  502SOL    HW1 2072   0.346   0.119   3.874
  502SOL    HW2 2073   0.359  -0.030   3.940
  503SOL     OW 2074   0.935   0.236   4.204
  503SOL    HW1 2075   0.887   0.277   4.126
  503SOL    HW2 2076   1.034   0.234   4.185
  504SOL     OW 2077   1.076   0.683   5.188
  504SOL    HW1 2078   0.996   0.622   5.191
  504SOL    HW2 2079   1.157   0.630   5.164
  505SOL     OW 2080   1.227   1.570   4.517
  505SOL    HW1 2081   1.248   1.644   4.452
  505SOL    HW2 2082   1.295   1.570   4.590
  506SOL     OW 2083   0.459   1.152   4.465
  506SOL    HW1 2084   0.388   1.125   4.530
  506SOL    HW2 2085   0.433   1.124   4.372
  507SOL     OW 2086   1.271   1.797   4.315
  507SOL    HW1 2087   1.315   1.861   4.251
  507SOL    HW2 2088   1.221   1.849   4.385
  508SOL     OW 2089   1.032   0.549   3.740
  508SOL    HW1 2090   0.991   0.631   3.701
  508SOL    HW2 2091   1.096   0.575   3.813
  509SOL     OW 2092   0.078   0.556   5.110
  509SOL    HW1 2093   0.170   0.555   5.069
  509SOL    HW2 2094   0.072   0.630   5.177
  510SOL     OW 2095   0.561   0.222   4.871
  510SOL    HW1 2096   0.599   0.138   4.908
  510SOL    HW2 2097   0.473   0.241   4.915
  511SOL     OW 2098   0.866   0.454   4.366
  511SOL    HW1 2099   0.834   0.526   4.304
  511SOL    HW2 2100   0.890   0.373   4.313
  512SOL     OW 2101   1.017   0.039   4.477
  512SOL    HW1 2102   0.945   0.044   4.408
  512SOL    HW2 2103   0.993  -0.030   4.546
  513SOL     OW 2104   1.429   1.173   4.591
  513SOL    HW1 2105   1.374   1.089   4.584
  513SOL    HW2 2106   1.455   1.202   4.499
  514SOL     OW 2107   1.466   0.590   4.716
  514SOL    HW1 2108   1.436   0.495   4.723
  514SOL    HW2 2109   1.539   0.606   4.782
  515SOL     OW 2110   1.857   0.833   4.101
  515SOL    HW1 2111   1.899   0.769   4.165
  515SOL    HW2 2112   1.819   0.782   4.023
  516SOL     OW 2113   0.488   1.385   3.898
  516SOL    HW1 2114   0.401   1.370   3.945
  516SOL    HW2 2115   0.471   1.411   3.803
  517SOL     OW 2116   1.664   1.280   4.381
  517SOL    HW1 2117   1.763   1.288   4.395
  517SOL    HW2 2118   1.619   1.364   4.412
  518SOL     OW 2119   1.390   0.575   3.802
  518SOL    HW1 2120   1.336   0.554   3.883
  518SOL    HW2 2121   1.481   0.534   3.811
  519SOL     OW 2122   0.527   0.256   4.052
  519SOL    HW1 2123   0.554   0.197   3.977
  519SOL    HW2 2124   0.527   0.351   4.021
  520SOL     OW 2125   1.754   1.223   5.312
  520SOL    HW1 2126   1.845   1.184   5.299
  520SOL    HW2 2127   1.762   1.319   5.336
  521SOL     OW 2128   1.064   1.347   5.064
  521SOL    HW1 2129   0.984   1.324   5.119
  521SOL    HW2 2130   1.147   1.321   5.113
  522SOL     OW 2131   1.592   1.629   5.349
  522SOL    HW1 2132   1.619   1.663   5.259
  522SOL    HW2 2133   1.671   1.591   5.395
  523SOL     OW 2134   1.111   1.195   4.824
  523SOL    HW1 2135   1.071   1.239   4.905
  523SOL    HW2 2136   1.070   1.232   4.741
  524SOL     OW 2137   1.638   1.099   4.803
  524SOL    HW1 2138   1.643   1.180   4.862
  524SOL    HW2 2139   1.552   1.101   4.752
  525SOL     OW 2140   0.915   0.089   5.126
  525SOL    HW1 2141   0.940   0.069   5.031
  525SOL    HW2 2142   0.987   0.145   5.168
  526SOL     OW 2143   0.980   1.116   5.443
  526SOL    HW1 2144   0.881   1.122   5.453
  526SOL    HW2 2145   1.003   1.036   5.387
  527SOL     OW 2146   0.705   1.050   4.092
  527SOL    HW1 2147   0.691   1.057   4.191
  527SOL    HW2 2148   0.789   0.999   4.074
  528SOL     OW 2149   0.410   0.813   4.975
  528SOL    HW1 2150   0.496   0.825   5.025
  528SOL    HW2 2151   0.368   0.726   5.002
  529SOL     OW 2152   1.274   0.386   4.986
  529SOL    HW1 2153   1.295   0.460   5.050
  529SOL    HW2 2154   1.185   0.403   4.943
  530SOL     OW 2155   0.064   1.564   5.055
  530SOL    HW1 2156   0.018   1.646   5.021
  530SOL    HW2 2157   0.162   1.583   5.064
  531SOL     OW 2158   0.367   1.100   4.225
  531SOL    HW1 2159   0.360   1.183   4.169
  531SOL    HW2 2160   0.371   1.020   4.165
  532SOL     OW 2161   0.566   0.537   4.589
  532SOL    HW1 2162   0.578   0.603   4.515
  532SOL    HW2 2163   0.612   0.571   4.672
  533SOL     OW 2164   1.252   1.348   4.112
  533SOL    HW1 2165   1.302   1.425   4.152
  533SOL    HW2 2166   1.157   1.350   4.144
  534SOL     OW 2167   1.272   1.445   4.866
  534SOL    HW1 2168   1.319   1.458   4.953
  534SOL    HW2 2169   1.206   1.371   4.875
  535SOL     OW 2170   1.582   0.639   4.196
  535SOL    HW1 2171   1.551   0.700   4.269
  535SOL    HW2 2172   1.632   0.691   4.127
  536SOL     OW 2173   0.354   1.510   5.053
  536SOL    HW1 2174   0.333   1.466   4.966
  536SOL    HW2 2175   0.451   1.536   5.056
  537SOL     OW 2176   0.402   0.751   5.322
  537SOL    HW1 2177   0.470   0.806   5.275
  537SOL    HW2 2178   0.442   0.663   5.349
  538SOL     OW 2179   1.587   0.779   5.394
  538SOL    HW1 2180   1.495   0.817   5.389
  538SOL    HW2 2181   1.647   0.826   5.329
  539SOL     OW 2182   1.013   0.105   5.494
  539SOL    HW1 2183   1.019   0.190   5.442
  539SOL    HW2 2184   1.045   0.029   5.437
  540SOL     OW 2185   0.504   0.050   5.464
  540SOL    HW1 2186   0.462  -0.007   5.394
  540SOL    HW2 2187   0.438   0.119   5.496
  541SOL     OW 2188   0.573   0.870   4.753
  541SOL    HW1 2189   0.617   0.959   4.744
  541SOL    HW2 2190   0.510   0.870   4.830
  542SOL     OW 2191   1.360   0.862   4.769
  542SOL    HW1 2192   1.285   0.862   4.703
  542SOL    HW2 2193   1.397   0.770   4.778
  543SOL     OW 2194   1.209   0.525   3.999
  543SOL    HW1 2195   1.222   0.441   4.053
  543SOL    HW2 2196   1.180   0.599   4.059
  544SOL     OW 2197   0.307   0.213   4.955
  544SOL    HW1 2198   0.284   0.250   5.045
  544SOL    HW2 2199   0.277   0.118   4.949
  545SOL     OW 2200   0.037   1.310   5.006
  545SOL    HW1 2201   0.090   1.261   5.074
  545SOL    HW2 2202   0.059   1.408   5.011
  546SOL     OW 2203   0.732   0.634   4.788
  546SOL    HW1 2204   0.791   0.608   4.712
  546SOL    HW2 2205   0.704   0.730   4.777
  547SOL     OW 2206   1.728   0.935   5.578
  547SOL    HW1 2207   1.682   0.928   5.489
  547SOL    HW2 2208   1.666   0.979   5.644
  548SOL     OW 2209   0.307   0.063   4.342
  548SOL    HW1 2210   0.296   0.157   4.375
  548SOL    HW2 2211   0.302   0.000   4.419
  549SOL     OW 2212   1.622   0.367   4.098
  549SOL    HW1 2213   1.624   0.291   4.162
  549SOL    HW2 2214   1.574   0.444   4.138
  550SOL     OW 2215   1.023   0.766   4.690
  550SOL    HW1 2216   1.038   0.787   4.786
  550SOL    HW2 2217   0.993   0.671   4.681
  551SOL     OW 2218   0.980   1.573   5.424
  551SOL    HW1 2219   0.960   1.617   5.336
  551SOL    HW2 2220   1.019   1.482   5.408
  552SOL     OW 2221   0.350   0.898   5.528
  552SOL    HW1 2222   0.426   0.942   5.576
  552SOL    HW2 2223   0.385   0.851   5.446
  553SOL     OW 2224   1.540   0.274   3.849
  553SOL    HW1 2225   1.479   0.199   3.872
  553SOL    HW2 2226   1.562   0.326   3.932
  554SOL     OW 2227   1.303   0.838   3.766
  554SOL    HW1 2228   1.337   0.745   3.781
  554SOL    HW2 2229   1.321   0.865   3.671
  555SOL     OW 2230   1.068   1.333   4.573
  555SOL    HW1 2231   1.075   1.249   4.518
  555SOL    HW2 2232   1.130   1.402   4.537
  556SOL     OW 2233   0.319   0.810   4.673
  556SOL    HW1 2234   0.412   0.846   4.678
  556SOL    HW2 2235   0.313   0.725   4.725
  557SOL     OW 2236   0.339   0.509   4.730
  557SOL    HW1 2237   0.287   0.426   4.713
  557SOL    HW2 2238   0.416   0.514   4.666
  558SOL     OW 2239   1.138   0.380   5.402
  558SOL    HW1 2240   1.093   0.443   5.466
  558SOL    HW2 2241   1.231   0.411   5.385
  559SOL     OW 2242   1.160   0.207   5.201
  559SOL    HW1 2243   1.160   0.271   5.278
  559SOL    HW2 2244   1.188   0.255   5.118
  560SOL     OW 2245   0.008   1.326   3.924
  560SOL    HW1 2246  -0.085   1.347   3.893
  560SOL    HW2 2247   0.018   1.227   3.937
  561SOL     OW 2248   0.088   1.801   4.651
  561SOL    HW1 2249   0.046   1.715   4.624
  561SOL    HW2 2250   0.182   1.804   4.617
  562SOL     OW 2251   0.504   1.568   4.634
  562SOL    HW1 2252   0.570   1.642   4.643
  562SOL    HW2 2253   0.548   1.489   4.592
  563SOL     OW 2254   1.002   0.796   4.962
  563SOL    HW1 2255   1.043   0.764   5.048
  563SOL    HW2 2256   0.906   0.769   4.959
  564SOL     OW 2257   0.040   0.544   4.838
  564SOL    HW1 2258   0.125   0.511   4.797
  564SOL    HW2 2259   0.053   0.559   4.936
  565SOL     OW 2260   0.189   0.520   5.446
  565SOL    HW1 2261   0.248   0.480   5.376
  565SOL    HW2 2262   0.131   0.591   5.405
  566SOL     OW 2263   1.369   0.950   5.384
  566SOL    HW1 2264   1.408   1.039   5.404
  566SOL    HW2 2265   1.379   0.930   5.287
  567SOL     OW 2266   0.815   0.572   4.049
  567SOL    HW1 2267   0.822   0.483   4.003
  567SOL    HW2 2268   0.721   0.606   4.041
  568SOL     OW 2269   1.657   0.604   4.930
  568SOL    HW1 2270   1.619   0.535   4.992
  568SOL    HW2 2271   1.739   0.568   4.886
  569SOL     OW 2272   0.252   1.564   5.468
  569SOL    HW1 2273   0.222   1.621   5.544
  569SOL    HW2 2274   0.245   1.467   5.494
  570SOL     OW 2275   0.671   0.464   4.993
  570SOL    HW1 2276   0.637   0.375   4.963
  570SOL    HW2 2277   0.697   0.518   4.913
  571SOL     OW 2278   0.930   1.678   5.189
  571SOL    HW1 2279   0.906   1.660   5.094
  571SOL    HW2 2280   0.960   1.772   5.199
  572SOL     OW 2281   0.473   0.500   3.915
  572SOL    HW1 2282   0.534   0.580   3.919
  572SOL    HW2 2283   0.378   0.531   3.922
  573SOL     OW 2284   0.159   1.137   5.190
  573SOL    HW1 2285   0.181   1.076   5.266
  573SOL    HW2 2286   0.169   1.088   5.104
  574SOL     OW 2287   1.347   1.059   4.958
  574SOL    HW1 2288   1.371   0.996   4.884
  574SOL    HW2 2289   1.257   1.099   4.940
  575SOL     OW 2290   1.302   0.855   4.033
  575SOL    HW1 2291   1.216   0.824   4.075
  575SOL    HW2 2292   1.298   0.841   3.934
  576SOL     OW 2293   1.252   1.731   4.852
  576SOL    HW1 2294   1.336   1.736   4.798
  576SOL    HW2 2295   1.229   1.635   4.870
  577SOL     OW 2296   0.083   1.258   4.746
  577SOL    HW1 2297   0.078   1.257   4.846
  577SOL    HW2 2298   0.000   1.217   4.708
  578SOL     OW 2299   0.688   1.662   5.440
  578SOL    HW1 2300   0.632   1.743   5.449
  578SOL    HW2 2301   0.740   1.666   5.354
  579SOL     OW 2302   1.726   0.135   4.247
  579SOL    HW1 2303   1.799   0.118   4.180
  579SOL    HW2 2304   1.695   0.048   4.285
  580SOL     OW 2305   1.388   1.573   4.201
  580SOL    HW1 2306   1.455   1.585   4.127
  580SOL    HW2 2307   1.348   1.662   4.224
  581SOL     OW 2308   0.130   1.794   5.575
  581SOL    HW1 2309   0.089   1.720   5.628
  581SOL    HW2 2310   0.194   1.845   5.633
  582SOL     OW 2311   1.280   0.927   4.396
  582SOL    HW1 2312   1.340   0.846   4.398
  582SOL    HW2 2313   1.320   0.996   4.336
  583SOL     OW 2314   0.830   1.273   5.146
  583SOL    HW1 2315   0.825   1.306   5.241
  583SOL    HW2 2316   0.744   1.292   5.100
  584SOL     OW 2317   0.672   1.616   3.878
  584SOL    HW1 2318   0.681   1.626   3.779
  584SOL    HW2 2319   0.632   1.527   3.899
  585SOL     OW 2320   1.650   1.720   5.118
  585SOL    HW1 2321   1.703   1.730   5.034
  585SOL    HW2 2322   1.623   1.810   5.152
  586SOL     OW 2323   1.841   0.175   4.687
  586SOL    HW1 2324   1.880   0.090   4.651
  586SOL    HW2 2325   1.743   0.177   4.668
  587SOL     OW 2326   0.263   0.326   4.444
  587SOL    HW1 2327   0.184   0.377   4.410
  587SOL    HW2 2328   0.254   0.311   4.542
  588SOL     OW 2329   1.194   1.612   3.755
  588SOL    HW1 2330   1.200   1.519   3.792
  588SOL    HW2 2331   1.135   1.612   3.675
  589SOL     OW 2332   0.822   1.002   5.096
  589SOL    HW1 2333   0.862   1.001   5.004
  589SOL    HW2 2334   0.832   1.094   5.136
  590SOL     OW 2335   0.916   0.910   4.015
  590SOL    HW1 2336   0.979   0.948   3.947
  590SOL    HW2 2337   0.956   0.827   4.054
  591SOL     OW 2338   1.504   1.607   3.768
  591SOL    HW1 2339   1.412   1.644   3.775
  591SOL    HW2 2340   1.542   1.627   3.678
  592SOL     OW 2341   0.372   1.288   5.214
  592SOL    HW1 2342   0.359   1.381   5.180
  592SOL    HW2 2343   0.288   1.236   5.201
  593SOL     OW 2344   1.614   1.292   5.013
  593SOL    HW1 2345   1.674   1.295   5.093
  593SOL    HW2 2346   1.539   1.356   5.026
  594SOL     OW 2347   1.039   1.098   4.420
  594SOL    HW1 2348   0.969   1.051   4.474
  594SOL    HW2 2349   1.098   1.030   4.377
  595SOL     OW 2350   1.014   0.236   4.695
  595SOL    HW1 2351   1.006   0.200   4.602
  595SOL    HW2 2352   1.012   0.160   4.760
  596SOL     OW 2353   0.590   1.487   4.215
  596SOL    HW1 2354   0.632   1.429   4.145
  596SOL    HW2 2355   0.546   1.566   4.171
  597SOL     OW 2356   1.709   0.385   5.105
  597SOL    HW1 2357   1.782   0.454   5.109
  597SOL    HW2 2358   1.737   0.310   5.046
  598SOL     OW 2359   0.255   1.348   4.014
  598SOL    HW1 2360   0.159   1.349   3.987
  598SOL    HW2 2361   0.267   1.401   4.098
  599SOL     OW 2362   0.105   1.013   5.450
  599SOL    HW1 2363   0.028   0.980   5.504
  599SOL    HW2 2364   0.190   0.983   5.492
  600SOL     OW 2365   0.672   0.203   5.213
  600SOL    HW1 2366   0.762   0.187   5.173
  600SOL    HW2 2367   0.680   0.208   5.312
  601SOL     OW 2368   0.075   0.345   3.757
  601SOL    HW1 2369  -0.017   0.317   3.728
  601SOL    HW2 2370   0.106   0.422   3.701
  602SOL     OW 2371   1.440   0.856   5.122
  602SOL    HW1 2372   1.383   0.908   5.059
  602SOL    HW2 2373   1.536   0.868   5.098
  603SOL     OW 2374   0.072   0.166   4.042
  603SOL    HW1 2375   0.055   0.249   3.988
  603SOL    HW2 2376   0.162   0.129   4.020
  604SOL     OW 2377   1.183   1.335   3.843
  604SOL    HW1 2378   1.084   1.324   3.845
  604SOL    HW2 2379   1.217   1.350   3.936
  605SOL     OW 2380   0.613   0.842   5.155
  605SOL    HW1 2381   0.669   0.923   5.138
  605SOL    HW2 2382   0.672   0.762   5.158
  606SOL     OW 2383   1.493   1.767   4.683
  606SOL    HW1 2384   1.526   1.831   4.614
  606SOL    HW2 2385   1.559   1.761   4.758
  607SOL     OW 2386   0.716   0.565   5.432
  607SOL    HW1 2387   0.735   0.630   5.506
  607SOL    HW2 2388   0.776   0.485   5.441
  608SOL     OW 2389   1.450   1.220   5.357
  608SOL    HW1 2390   1.441   1.210   5.456
  608SOL    HW2 2391   1.546   1.213   5.331
  609SOL     OW 2392   0.390   1.741   5.284
  609SOL    HW1 2393   0.299   1.782   5.282
  609SOL    HW2 2394   0.383   1.647   5.316
  610SOL     OW 2395   1.674   0.883   4.978
  610SOL    HW1 2396   1.647   0.794   4.941
  610SOL    HW2 2397   1.675   0.951   4.905
  611SOL     OW 2398   1.225   0.325   4.173
  611SOL    HW1 2399   1.290   0.251   4.162
  611SOL    HW2 2400   1.245   0.375   4.257
  612SOL     OW 2401   0.594   0.745   4.376
  612SOL    HW1 2402   0.644   0.830   4.357
  612SOL    HW2 2403   0.506   0.747   4.328
  613SOL     OW 2404   1.777   0.342   5.366
  613SOL    HW1 2405   1.760   0.373   5.272
  613SOL    HW2 2406   1.693   0.305   5.404
  614SOL     OW 2407   1.730   0.934   5.241
  614SOL    HW1 2408   1.768   1.025   5.256
  614SOL    HW2 2409   1.722   0.917   5.142
  615SOL     OW 2410   0.859   1.374   3.740
  615SOL    HW1 2411   0.813   1.389   3.828
  615SOL    HW2 2412   0.903   1.459   3.710
  616SOL     OW 2413   0.661   1.790   4.677
  616SOL    HW1 2414   0.615   1.878   4.664
  616SOL    HW2 2415   0.760   1.802   4.670
  617SOL     OW 2416   0.859   0.956   4.585
  617SOL    HW1 2417   0.913   0.887   4.633
  617SOL    HW2 2418   0.827   1.025   4.651
  618SOL     OW 2419   1.083   0.984   3.811
  618SOL    HW1 2420   1.060   1.037   3.729
  618SOL    HW2 2421   1.164   0.928   3.792
  619SOL     OW 2422   1.861   1.569   4.575
  619SOL    HW1 2423   1.790   1.557   4.505
  619SOL    HW2 2424   1.862   1.490   4.635
  620SOL     OW 2425   0.221   1.314   5.568
  620SOL    HW1 2426   0.156   1.241   5.547
  620SOL    HW2 2427   0.225   1.328   5.666
  621SOL     OW 2428   0.079   1.240   4.377
  621SOL    HW1 2429   0.078   1.193   4.465
  621SOL    HW2 2430   0.161   1.212   4.326
  622SOL     OW 2431   0.672   1.391   5.348
  622SOL    HW1 2432   0.594   1.341   5.386
  622SOL    HW2 2433   0.669   1.486   5.379
  623SOL     OW 2434   1.824   0.192   4.951
  623SOL    HW1 2435   1.820   0.102   4.995
  623SOL    HW2 2436   1.827   0.181   4.852
  624SOL     OW 2437   0.428   0.424   4.244
  624SOL    HW1 2438   0.458   0.352   4.182
  624SOL    HW2 2439   0.389   0.384   4.327
  625SOL     OW 2440   1.705   1.487   4.828
  625SOL    HW1 2441   1.612   1.462   4.801
  625SOL    HW2 2442   1.731   1.437   4.910
  626SOL     OW 2443   0.317   0.547   5.004
  626SOL    HW1 2444   0.355   0.488   5.076
  626SOL    HW2 2445   0.357   0.521   4.916
  627SOL     OW 2446   0.812   1.586   4.411
  627SOL    HW1 2447   0.844   1.596   4.317
  627SOL    HW2 2448   0.733   1.524   4.413
  628SOL     OW 2449   1.424   0.214   4.836
  628SOL    HW1 2450   1.476   0.149   4.891
  628SOL    HW2 2451   1.375   0.277   4.897
  629SOL     OW 2452   1.001   0.034   4.878
  629SOL    HW1 2453   0.938  -0.038   4.847
  629SOL    HW2 2454   1.094  -0.002   4.878
  630SOL     OW 2455   0.770   1.330   4.025
  630SOL    HW1 2456   0.724   1.243   4.042
  630SOL    HW2 2457   0.861   1.327   4.066
  631SOL     OW 2458   0.618   1.567   5.008
  631SOL    HW1 2459   0.613   1.649   5.065
  631SOL    HW2 2460   0.707   1.564   4.963
  632SOL     OW 2461   1.352   0.052   3.892
  632SOL    HW1 2462   1.387   0.011   3.808
  632SOL    HW2 2463   1.262   0.014   3.912
  633SOL     OW 2464   1.300   0.453   4.415
  633SOL    HW1 2465   1.241   0.533   4.419
  633SOL    HW2 2466   1.315   0.418   4.508
  634SOL     OW 2467   1.593   0.221   4.606
  634SOL    HW1 2468   1.509   0.220   4.660
  634SOL    HW2 2469   1.595   0.304   4.550
  635SOL     OW 2470   0.039   1.077   4.024
  635SOL    HW1 2471   0.138   1.066   4.015
  635SOL    HW2 2472  -0.001   0.991   4.056
  636SOL     OW 2473   0.875   1.646   4.061
  636SOL    HW1 2474   0.798   1.611   4.007
  636SOL    HW2 2475   0.843   1.717   4.123
  637SOL     OW 2476   0.230   0.628   5.699
  637SOL    HW1 2477   0.137   0.626   5.736
  637SOL    HW2 2478   0.231   0.589   5.607
  638SOL     OW 2479   0.225   0.275   6.582
  638SOL    HW1 2480   0.260   0.258   6.674
  638SOL    HW2 2481   0.137   0.230   6.570
  639SOL     OW 2482   0.019   0.368   6.233
  639SOL    HW1 2483  -0.063   0.411   6.272
  639SOL    HW2 2484  -0.009   0.295   6.170
  640SOL     OW 2485   0.569   1.275   6.751
  640SOL    HW1 2486   0.476   1.268   6.714
  640SOL    HW2 2487   0.580   1.364   6.795
  641SOL     OW 2488   1.555   1.511   6.289
  641SOL    HW1 2489   1.498   1.495   6.370
  641SOL    HW2 2490   1.496   1.521   6.209
  642SOL     OW 2491   1.135   0.703   6.303
  642SOL    HW1 2492   1.192   0.781   6.278
  642SOL    HW2 2493   1.075   0.729   6.379
  643SOL     OW 2494   1.755   0.607   5.817
  643SOL    HW1 2495   1.743   0.594   5.718
  643SOL    HW2 2496   1.725   0.526   5.866
  644SOL     OW 2497   0.768   1.144   6.609
  644SOL    HW1 2498   0.690   1.161   6.669
  644SOL    HW2 2499   0.802   1.231   6.573
  645SOL     OW 2500   0.850   0.798   7.409
  645SOL    HW1 2501   0.846   0.874   7.474
  645SOL    HW2 2502   0.872   0.834   7.318
  646SOL     OW 2503   0.685   1.012   6.251
  646SOL    HW1 2504   0.754   0.996   6.321
  646SOL    HW2 2505   0.612   1.069   6.289
  647SOL     OW 2506   0.686   1.161   7.389
  647SOL    HW1 2507   0.746   1.240   7.403
  647SOL    HW2 2508   0.600   1.192   7.348
  648SOL     OW 2509   0.335   1.435   6.647
  648SOL    HW1 2510   0.257   1.404   6.594
  648SOL    HW2 2511   0.393   1.493   6.590
  649SOL     OW 2512   1.460   1.505   6.925
  649SOL    HW1 2513   1.484   1.599   6.951
  649SOL    HW2 2514   1.444   1.451   7.007
  650SOL     OW 2515   0.438   0.392   7.085
  650SOL    HW1 2516   0.520   0.336   7.094
  650SOL    HW2 2517   0.357   0.334   7.089
  651SOL     OW 2518   1.603   0.447   6.323
  651SOL    HW1 2519   1.529   0.493   6.273
  651SOL    HW2 2520   1.654   0.515   6.376
  652SOL     OW 2521   0.231   1.713   6.069
  652SOL    HW1 2522   0.265   1.790   6.123
  652SOL    HW2 2523   0.275   1.713   5.979
  653SOL     OW 2524   1.127   1.341   7.276
  653SOL    HW1 2525   1.174   1.341   7.364
  653SOL    HW2 2526   1.079   1.254   7.265
  654SOL     OW 2527   0.230   1.434   6.124
  654SOL    HW1 2528   0.204   1.530   6.124
  654SOL    HW2 2529   0.159   1.380   6.169
  655SOL     OW 2530   0.240   1.091   6.472
  655SOL    HW1 2531   0.254   1.007   6.524
  655SOL    HW2 2532   0.185   1.155   6.527
  656SOL     OW 2533   0.620   1.786   7.025
  656SOL    HW1 2534   0.528   1.769   7.060
  656SOL    HW2 2535   0.648   1.878   7.051
  657SOL     OW 2536   0.606   0.964   5.709
  657SOL    HW1 2537   0.613   1.048   5.655
  657SOL    HW2 2538   0.652   0.977   5.797
  658SOL     OW 2539   1.594   0.114   7.066
  658SOL    HW1 2540   1.576   0.181   6.994
  658SOL    HW2 2541   1.591   0.160   7.155
  659SOL     OW 2542   0.122   0.643   6.149
  659SOL    HW1 2543   0.077   0.555   6.166
  659SOL    HW2 2544   0.121   0.697   6.233
  660SOL     OW 2545   0.027   1.596   5.703
  660SOL    HW1 2546   0.008   1.500   5.724
  660SOL    HW2 2547  -0.006   1.654   5.778
  661SOL     OW 2548   1.689   0.922   6.198
  661SOL    HW1 2549   1.784   0.893   6.206
  661SOL    HW2 2550   1.681   0.987   6.123
  662SOL     OW 2551   1.641   1.108   6.018
  662SOL    HW1 2552   1.727   1.110   5.966
  662SOL    HW2 2553   1.655   1.155   6.106
  663SOL     OW 2554   0.113   0.737   7.183
  663SOL    HW1 2555   0.201   0.724   7.228
  663SOL    HW2 2556   0.100   0.834   7.161
  664SOL     OW 2557   0.613   1.365   6.312
  664SOL    HW1 2558   0.564   1.278   6.321
  664SOL    HW2 2559   0.590   1.408   6.225
  665SOL     OW 2560   1.293   1.228   7.009
  665SOL    HW1 2561   1.330   1.155   6.951
  665SOL    HW2 2562   1.345   1.233   7.094
  666SOL     OW 2563   0.809   0.004   6.088
  666SOL    HW1 2564   0.849   0.095   6.079
  666SOL    HW2 2565   0.709   0.012   6.094
  667SOL     OW 2566   0.197   0.976   6.850
  667SOL    HW1 2567   0.286   0.931   6.836
  667SOL    HW2 2568   0.124   0.911   6.831
  668SOL     OW 2569   1.525   0.999   5.776
  668SOL    HW1 2570   1.462   0.923   5.789
  668SOL    HW2 2571   1.573   1.017   5.862
  669SOL     OW 2572   1.187   1.792   7.202
  669SOL    HW1 2573   1.211   1.852   7.126
  669SOL    HW2 2574   1.194   1.697   7.172
  670SOL     OW 2575   0.317   0.251   7.387
  670SOL    HW1 2576   0.388   0.322   7.393
  670SOL    HW2 2577   0.229   0.290   7.415
  671SOL     OW 2578   1.466   1.417   6.539
  671SOL    HW1 2579   1.407   1.423   6.619
  671SOL    HW2 2580   1.451   1.329   6.493
  672SOL     OW 2581   1.667   1.714   6.158
  672SOL    HW1 2582   1.626   1.691   6.070
  672SOL    HW2 2583   1.649   1.640   6.223
  673SOL     OW 2584   0.598   0.729   5.856
  673SOL    HW1 2585   0.622   0.798   5.788
  673SOL    HW2 2586   0.520   0.762   5.910
  674SOL     OW 2587   1.281   0.345   6.530
  674SOL    HW1 2588   1.195   0.295   6.517
  674SOL    HW2 2589   1.343   0.291   6.586
  675SOL     OW 2590   0.807   0.605   7.051
  675SOL    HW1 2591   0.760   0.602   7.140
  675SOL    HW2 2592   0.756   0.550   6.985
  676SOL     OW 2593   1.394   0.469   7.260
  676SOL    HW1 2594   1.374   0.512   7.348
  676SOL    HW2 2595   1.472   0.407   7.269
  677SOL     OW 2596   0.973   0.890   7.158
  677SOL    HW1 2597   1.019   0.806   7.129
  677SOL    HW2 2598   0.917   0.924   7.083
  678SOL     OW 2599   0.991   0.410   6.828
  678SOL    HW1 2600   0.914   0.444   6.882
  678SOL    HW2 2601   0.957   0.359   6.749
  679SOL     OW 2602   1.041   0.701   6.015
  679SOL    HW1 2603   1.067   0.697   6.111
  679SOL    HW2 2604   0.956   0.650   6.001
  680SOL     OW 2605   0.076   0.811   6.375
  680SOL    HW1 2606   0.175   0.799   6.384
  680SOL    HW2 2607   0.052   0.906   6.396
  681SOL     OW 2608   0.130   1.821   7.157
  681SOL    HW1 2609   0.120   1.806   7.256
  681SOL    HW2 2610   0.044   1.857   7.121
  682SOL     OW 2611   0.865   0.348   5.781
  682SOL    HW1 2612   0.924   0.411   5.732
  682SOL    HW2 2613   0.884   0.254   5.752
  683SOL     OW 2614   1.719   0.585   7.417
  683SOL    HW1 2615   1.693   0.674   7.381
  683SOL    HW2 2616   1.717   0.517   7.344
  684SOL     OW 2617   1.362   1.144   6.131
  684SOL    HW1 2618   1.445   1.115   6.083
  684SOL    HW2 2619   1.313   1.211   6.075
  685SOL     OW 2620   0.550   0.196   6.471
  685SOL    HW1 2621   0.545   0.191   6.571
  685SOL    HW2 2622   0.552   0.292   6.442
  686SOL     OW 2623   1.008   1.456   6.063
  686SOL    HW1 2624   0.962   1.528   6.011
  686SOL    HW2 2625   1.004   1.476   6.161
  687SOL     OW 2626   0.351   1.801   6.439
  687SOL    HW1 2627   0.401   1.715   6.445
  687SOL    HW2 2628   0.416   1.878   6.436
  688SOL     OW 2629   1.795   1.066   6.459
  688SOL    HW1 2630   1.733   1.051   6.383
  688SOL    HW2 2631   1.743   1.077   6.544
  689SOL     OW 2632   1.227   1.550   7.092
  689SOL    HW1 2633   1.233   1.473   7.156
  689SOL    HW2 2634   1.175   1.524   7.012
  690SOL     OW 2635   0.321   0.943   5.828
  690SOL    HW1 2636   0.403   0.982   5.786
  690SOL    HW2 2637   0.294   0.861   5.779
  691SOL     OW 2638   1.458   0.735   6.314
  691SOL    HW1 2639   1.453   0.670   6.389
  691SOL    HW2 2640   1.538   0.794   6.327
  692SOL     OW 2641   0.461   1.266   7.313
  692SOL    HW1 2642   0.411   1.267   7.227
  692SOL    HW2 2643   0.398   1.248   7.389
  693SOL     OW 2644   1.111   1.776   5.823
  693SOL    HW1 2645   1.051   1.714   5.873
  693SOL    HW2 2646   1.142   1.732   5.738
  694SOL     OW 2647   0.202   0.285   7.084
  694SOL    HW1 2648   0.122   0.345   7.071
  694SOL    HW2 2649   0.192   0.236   7.170
  695SOL     OW 2650   1.632   1.377   5.667
  695SOL    HW1 2651   1.600   1.471   5.657
  695SOL    HW2 2652   1.556   1.314   5.655
  696SOL     OW 2653   0.464   1.743   5.909
  696SOL    HW1 2654   0.497   1.782   5.995
  696SOL    HW2 2655   0.540   1.736   5.844
  697SOL     OW 2656   1.400   0.107   6.012
  697SOL    HW1 2657   1.376   0.070   5.922
  697SOL    HW2 2658   1.499   0.123   6.016
  698SOL     OW 2659   0.249   1.785   6.827
  698SOL    HW1 2660   0.306   1.720   6.877
  698SOL    HW2 2661   0.233   1.752   6.734
  699SOL     OW 2662   0.940   1.698   6.490
  699SOL    HW1 2663   1.020   1.641   6.511
  699SOL    HW2 2664   0.891   1.658   6.413
  700SOL     OW 2665   0.382   0.700   6.066
  700SOL    HW1 2666   0.427   0.610   6.063
  700SOL    HW2 2667   0.288   0.689   6.099
  701SOL     OW 2668   1.547   0.222   7.315
  701SOL    HW1 2669   1.542   0.259   7.407
  701SOL    HW2 2670   1.475   0.153   7.303
  702SOL     OW 2671   0.614   0.122   5.703
  702SOL    HW1 2672   0.712   0.100   5.710
  702SOL    HW2 2673   0.583   0.105   5.610
  703SOL     OW 2674   0.781   0.264   7.335
  703SOL    HW1 2675   0.848   0.203   7.378
  703SOL    HW2 2676   0.708   0.283   7.400
  704SOL     OW 2677   0.888   1.514   6.781
  704SOL    HW1 2678   0.865   1.489   6.687
  704SOL    HW2 2679   0.949   1.445   6.820
  705SOL     OW 2680   1.351   0.590   7.019
  705SOL    HW1 2681   1.379   0.547   7.104
  705SOL    HW2 2682   1.376   0.686   7.020
  706SOL     OW 2683   0.803   1.402   6.510
  706SOL    HW1 2684   0.893   1.416   6.468
  706SOL    HW2 2685   0.732   1.404   6.439
  707SOL     OW 2686   0.922   0.503   6.485
  707SOL    HW1 2687   0.897   0.494   6.389
  707SOL    HW2 2688   0.970   0.421   6.516
  708SOL     OW 2689   0.539   0.064   6.098
  708SOL    HW1 2690   0.458   0.065   6.156
  708SOL    HW2 2691   0.542   0.147   6.043
  709SOL     OW 2692   1.434   1.188   5.627
  709SOL    HW1 2693   1.466   1.112   5.684
  709SOL    HW2 2694   1.342   1.215   5.657
  710SOL     OW 2695   0.297   0.035   5.757
  710SOL    HW1 2696   0.346   0.119   5.736
  710SOL    HW2 2697   0.359  -0.030   5.802
  711SOL     OW 2698   0.935   0.236   6.066
  711SOL    HW1 2699   0.887   0.277   5.988
  711SOL    HW2 2700   1.034   0.234   6.047
  712SOL     OW 2701   1.076   0.683   7.050
  712SOL    HW1 2702   0.996   0.622   7.053
  712SOL    HW2 2703   1.157   0.630   7.026
  713SOL     OW 2704   1.227   1.570   6.379
  713SOL    HW1 2705   1.248   1.644   6.314
  713SOL    HW2 2706   1.295   1.570   6.452
  714SOL     OW 2707   0.459   1.152   6.327
  714SOL    HW1 2708   0.388   1.125   6.392
  714SOL    HW2 2709   0.433   1.124   6.234
  715SOL     OW 2710   1.271   1.797   6.177
  715SOL    HW1 2711   1.315   1.861   6.113
  715SOL    HW2 2712   1.221   1.849   6.247
  716SOL     OW 2713   1.032   0.549   5.602
  716SOL    HW1 2714   0.991   0.631   5.563
  716SOL    HW2 2715   1.096   0.575   5.675
  717SOL     OW 2716   0.078   0.556   6.972
  717SOL    HW1 2717   0.170   0.555   6.931
  717SOL    HW2 2718   0.072   0.630   7.039
  718SOL     OW 2719   0.561   0.222   6.733
  718SOL    HW1 2720   0.599   0.138   6.770
  718SOL    HW2 2721   0.473   0.241   6.777
  719SOL     OW 2722   0.866   0.454   6.228
  719SOL    HW1 2723   0.834   0.526   6.166
  719SOL    HW2 2724   0.890   0.373   6.175
  720SOL     OW 2725   1.017   0.039   6.339
  720SOL    HW1 2726   0.945   0.044   6.270
  720SOL    HW2 2727   0.993  -0.030   6.408
  721SOL     OW 2728   1.429   1.173   6.453
  721SOL    HW1 2729   1.374   1.089   6.446
  721SOL    HW2 2730   1.455   1.202   6.361
  722SOL     OW 2731   1.466   0.590   6.578
  722SOL    HW1 2732   1.436   0.495   6.585
  722SOL    HW2 2733   1.539   0.606   6.644
  723SOL     OW 2734   1.857   0.833   5.963
  723SOL    HW1 2735   1.899   0.769   6.027
  723SOL    HW2 2736   1.819   0.782   5.885
  724SOL     OW 2737   0.488   1.385   5.760
  724SOL    HW1 2738   0.401   1.370   5.807
  724SOL    HW2 2739   0.471   1.411   5.665
  725SOL     OW 2740   1.664   1.280   6.243
  725SOL    HW1 2741   1.763   1.288   6.257
  725SOL    HW2 2742   1.619   1.364   6.274
  726SOL     OW 2743   1.390   0.575   5.664
  726SOL    HW1 2744   1.336   0.554   5.745
  726SOL    HW2 2745   1.481   0.534   5.673
  727SOL     OW 2746   0.527   0.256   5.914
  727SOL    HW1 2747   0.554   0.197   5.839
  727SOL    HW2 2748   0.527   0.351   5.883
  728SOL     OW 2749   1.754   1.223   7.174
  728SOL    HW1 2750   1.845   1.184   7.161
  728SOL    HW2 2751   1.762   1.319   7.198
  729SOL     OW 2752   1.064   1.347   6.926
  729SOL    HW1 2753   0.984   1.324   6.981
  729SOL    HW2 2754   1.147   1.321   6.975
  730SOL     OW 2755   1.592   1.629   7.211
  730SOL    HW1 2756   1.619   1.663   7.121
  730SOL    HW2 2757   1.671   1.591   7.257
  731SOL     OW 2758   1.111   1.195   6.686
  731SOL    HW1 2759   1.071   1.239   6.767
  731SOL    HW2 2760   1.070   1.232   6.603
  732SOL     OW 2761   1.638   1.099   6.665
  732SOL    HW1 2762   1.643   1.180   6.724
  732SOL    HW2 2763   1.552   1.101   6.614
  733SOL     OW 2764   0.915   0.089   6.988
  733SOL    HW1 2765   0.940   0.069   6.893
  733SOL    HW2 2766   0.987   0.145   7.030
  734SOL     OW 2767   0.980   1.116   7.305
  734SOL    HW1 2768   0.881   1.122   7.315
  734SOL    HW2 2769   1.003   1.036   7.249
  735SOL     OW 2770   0.705   1.050   5.954
  735SOL    HW1 2771   0.691   1.057   6.053
  735SOL    HW2 2772   0.789   0.999   5.936
  736SOL     OW 2773   0.410   0.813   6.837
  736SOL    HW1 2774   0.496   0.825   6.887
  736SOL    HW2 2775   0.368   0.726   6.864
  737SOL     OW 2776   1.274   0.386   6.848
  737SOL    HW1 2777   1.295   0.460   6.912
  737SOL    HW2 2778   1.185   0.403   6.805
  738SOL     OW 2779   0.064   1.564   6.917
  738SOL    HW1 2780   0.018   1.646   6.883
  738SOL    HW2 2781   0.162   1.583   6.926
  739SOL     OW 2782   0.367   1.100   6.087
  739SOL    HW1 2783   0.360   1.183   6.031
  739SOL    HW2 2784   0.371   1.020   6.027
  740SOL     OW 2785   0.566   0.537   6.451
  740SOL    HW1 2786   0.578   0.603   6.377
  740SOL    HW2 2787   0.612   0.571   6.534
  741SOL     OW 2788   1.252   1.348   5.974
  741SOL    HW1 2789   1.302   1.425   6.014
  741SOL    HW2 2790   1.157   1.350   6.006
  742SOL     OW 2791   1.272   1.445   6.728
  742SOL    HW1 2792   1.319   1.458   6.815
  742SOL    HW2 2793   1.206   1.371   6.737
  743SOL     OW 2794   1.582   0.639   6.058
  743SOL    HW1 2795   1.551   0.700   6.131
  743SOL    HW2 2796   1.632   0.691   5.989
  744SOL     OW 2797   0.354   1.510   6.915
  744SOL    HW1 2798   0.333   1.466   6.828
  744SOL    HW2 2799   0.451   1.536   6.918
  745SOL     OW 2800   0.402   0.751   7.184
  745SOL    HW1 2801   0.470   0.806   7.137
  745SOL    HW2 2802   0.442   0.663   7.211
  746SOL     OW 2803   1.587   0.779   7.256
  746SOL    HW1 2804   1.495   0.817   7.251
  746SOL    HW2 2805   1.647   0.826   7.191
  747SOL     OW 2806   1.013   0.105   7.356
  747SOL    HW1 2807   1.019   0.190   7.304
  747SOL    HW2 2808   1.045   0.029   7.299
  748SOL     OW 2809   0.504   0.050   7.326
  748SOL    HW1 2810   0.462  -0.007   7.256
  748SOL    HW2 2811   0.438   0.119   7.358
  749SOL     OW 2812   0.573   0.870   6.615
  749SOL    HW1 2813   0.617   0.959   6.606
  749SOL    HW2 2814   0.510   0.870   6.692
  750SOL     OW 2815   1.360   0.862   6.631
  750SOL    HW1 2816   1.285   0.862   6.565
  750SOL    HW2 2817   1.397   0.770   6.640
  751SOL     OW 2818   1.209   0.525   5.861
  751SOL    HW1 2819   1.222   0.441   5.915
  751SOL    HW2 2820   1.180   0.599   5.921
  752SOL     OW 2821   0.307   0.213   6.817
  752SOL    HW1 2822   0.284   0.250   6.907
  752SOL    HW2 2823   0.277   0.118   6.811
  753SOL     OW 2824   0.037   1.310   6.868
  753SOL    HW1 2825   0.090   1.261   6.936
  753SOL    HW2 2826   0.059   1.408   6.873
  754SOL     OW 2827   0.732   0.634   6.650
  754SOL    HW1 2828   0.791   0.608   6.574
  754SOL    HW2 2829   0.704   0.730   6.639
  755SOL     OW 2830   1.728   0.935   7.440
  755SOL    HW1 2831   1.682   0.928   7.351
  755SOL    HW2 2832   1.666   0.979   7.506
  756SOL     OW 2833   0.307   0.063   6.204
  756SOL    HW1 2834   0.296   0.157   6.237
  756SOL    HW2 2835   0.302   0.000   6.281
  757SOL     OW 2836   1.622   0.367   5.960
  757SOL    HW1 2837   1.624   0.291   6.024
  757SOL    HW2 2838   1.574   0.444   6.000
  758SOL     OW 2839   1.023   0.766   6.552
  758SOL    HW1 2840   1.038   0.787   6.648
  758SOL    HW2 2841   0.993   0.671   6.543
  759SOL     OW 2842   0.980   1.573   7.286
  759SOL    HW1 2843   0.960   1.617   7.198
  759SOL    HW2 2844   1.019   1.482   7.270
  760SOL     OW 2845   1.859   1.518   7.191
  760SOL    HW1 2846   1.873   1.545   7.096
  760SOL    HW2 2847   1.942   1.540   7.244
  761SOL     OW 2848   0.350   0.898   7.390
  761SOL    HW1 2849   0.426   0.942   7.438
  761SOL    HW2 2850   0.385   0.851   7.308
  762SOL     OW 2851   1.540   0.274   5.711
  762SOL    HW1 2852   1.479   0.199   5.734
  762SOL    HW2 2853   1.562   0.326   5.794
  763SOL     OW 2854   1.303   0.838   5.628
  763SOL    HW1 2855   1.337   0.745   5.643
  763SOL    HW2 2856   1.321   0.865   5.533
  764SOL     OW 2857   1.068   1.333   6.435
  764SOL    HW1 2858   1.075   1.249   6.380
  764SOL    HW2 2859   1.130   1.402   6.399
  765SOL     OW 2860   0.319   0.810   6.535
  765SOL    HW1 2861   0.412   0.846   6.540
  765SOL    HW2 2862   0.313   0.725   6.587
  766SOL     OW 2863   0.339   0.509   6.592
  766SOL    HW1 2864   0.287   0.426   6.575
  766SOL    HW2 2865   0.416   0.514   6.528
  767SOL     OW 2866   1.138   0.380   7.264
  767SOL    HW1 2867   1.093   0.443   7.328
  767SOL    HW2 2868   1.231   0.411   7.247
  768SOL     OW 2869   1.160   0.207   7.063
  768SOL    HW1 2870   1.160   0.271   7.140
  768SOL    HW2 2871   1.188   0.255   6.980
  769SOL     OW 2872   0.008   1.326   5.786
  769SOL    HW1 2873  -0.085   1.347   5.755
  769SOL    HW2 2874   0.018   1.227   5.799
  770SOL     OW 2875   0.088   1.801   6.513
  770SOL    HW1 2876   0.046   1.715   6.486
  770SOL    HW2 2877   0.182   1.804   6.479
  771SOL     OW 2878   0.504   1.568   6.496
  771SOL    HW1 2879   0.570   1.642   6.505
  771SOL    HW2 2880   0.548   1.489   6.454
  772SOL     OW 2881   1.002   0.796   6.824
  772SOL    HW1 2882   1.043   0.764   6.910
  772SOL    HW2 2883   0.906   0.769   6.821
  773SOL     OW 2884   0.040   0.544   6.700
  773SOL    HW1 2885   0.125   0.511   6.659
  773SOL    HW2 2886   0.053   0.559   6.798
  774SOL     OW 2887   0.189   0.520   7.308
  774SOL    HW1 2888   0.248   0.480   7.238
  774SOL    HW2 2889   0.131   0.591   7.267
  775SOL     OW 2890   1.369   0.950   7.246
  775SOL    HW1 2891   1.408   1.039   7.266
  775SOL    HW2 2892   1.379   0.930   7.149
  776SOL     OW 2893   0.815   0.572   5.911
  776SOL    HW1 2894   0.822   0.483   5.865
  776SOL    HW2 2895   0.721   0.606   5.903
  777SOL     OW 2896   1.657   0.604   6.792
  777SOL    HW1 2897   1.619   0.535   6.854
  777SOL    HW2 2898   1.739   0.568   6.748
  778SOL     OW 2899   0.252   1.564   7.330
  778SOL    HW1 2900   0.222   1.621   7.406
  778SOL    HW2 2901   0.245   1.467   7.356
  779SOL     OW 2902   0.671   0.464   6.855
  779SOL    HW1 2903   0.637   0.375   6.825
  779SOL    HW2 2904   0.697   0.518   6.775
  780SOL     OW 2905   0.930   1.678   7.051
  780SOL    HW1 2906   0.906   1.660   6.956
  780SOL    HW2 2907   0.960   1.772   7.061
  781SOL     OW 2908   0.473   0.500   5.777
  781SOL    HW1 2909   0.534   0.580   5.781
  781SOL    HW2 2910   0.378   0.531   5.784
  782SOL     OW 2911   0.159   1.137   7.052
  782SOL    HW1 2912   0.181   1.076   7.128
  782SOL    HW2 2913   0.169   1.088   6.966
  783SOL     OW 2914   1.347   1.059   6.820
  783SOL    HW1 2915   1.371   0.996   6.746
  783SOL    HW2 2916   1.257   1.099   6.802
  784SOL     OW 2917   1.302   0.855   5.895
  784SOL    HW1 2918   1.216   0.824   5.937
  784SOL    HW2 2919   1.298   0.841   5.796
  785SOL     OW 2920   1.759   1.747   6.740
  785SOL    HW1 2921   1.820   1.777   6.667
  785SOL    HW2 2922   1.721   1.658   6.718
  786SOL     OW 2923   1.252   1.731   6.714
  786SOL    HW1 2924   1.336   1.736   6.660
  786SOL    HW2 2925   1.229   1.635   6.732
  787SOL     OW 2926   0.083   1.258   6.608
  787SOL    HW1 2927   0.078   1.257   6.708
  787SOL    HW2 2928   0.000   1.217   6.570
  788SOL     OW 2929   0.688   1.662   7.302
  788SOL    HW1 2930   0.632   1.743   7.311
  788SOL    HW2 2931   0.740   1.666   7.216
  789SOL     OW 2932   1.726   0.135   6.109
  789SOL    HW1 2933   1.799   0.118   6.042
  789SOL    HW2 2934   1.695   0.048   6.147
  790SOL     OW 2935   1.388   1.573   6.063
  790SOL    HW1 2936   1.455   1.585   5.989
  790SOL    HW2 2937   1.348   1.662   6.086
  791SOL     OW 2938   0.130   1.794   7.437
  791SOL    HW1 2939   0.089   1.720   7.490
  791SOL    HW2 2940   0.194   1.845   7.495
  792SOL     OW 2941   1.280   0.927   6.258
  792SOL    HW1 2942   1.340   0.846   6.260
  792SOL    HW2 2943   1.320   0.996   6.198
  793SOL     OW 2944   0.830   1.273   7.008
  793SOL    HW1 2945   0.825   1.306   7.103
  793SOL    HW2 2946   0.744   1.292   6.962
  794SOL     OW 2947   0.672   1.616   5.740
  794SOL    HW1 2948   0.681   1.626   5.641
  794SOL    HW2 2949   0.632   1.527   5.761
  795SOL     OW 2950   1.650   1.720   6.980
  795SOL    HW1 2951   1.703   1.730   6.896
  795SOL    HW2 2952   1.623   1.810   7.014
  796SOL     OW 2953   1.841   0.175   6.549
  796SOL    HW1 2954   1.880   0.090   6.513
  796SOL    HW2 2955   1.743   0.177   6.530
  797SOL     OW 2956   0.263   0.326   6.306
  797SOL    HW1 2957   0.184   0.377   6.272
  797SOL    HW2 2958   0.254   0.311   6.404
  798SOL     OW 2959   1.194   1.612   5.617
  798SOL    HW1 2960   1.200   1.519   5.654
  798SOL    HW2 2961   1.135   1.612   5.537
  799SOL     OW 2962   0.822   1.002   6.958
  799SOL    HW1 2963   0.862   1.001   6.866
  799SOL    HW2 2964   0.832   1.094   6.998
  800SOL     OW 2965   0.916   0.910   5.877
  800SOL    HW1 2966   0.979   0.948   5.809
  800SOL    HW2 2967   0.956   0.827   5.916
  801SOL     OW 2968   1.504   1.607   5.630
  801SOL    HW1 2969   1.412   1.644   5.637
  801SOL    HW2 2970   1.542   1.627   5.540
  802SOL     OW 2971   0.372   1.288   7.076
  802SOL    HW1 2972   0.359   1.381   7.042
  802SOL    HW2 2973   0.288   1.236   7.063
  803SOL     OW 2974   1.614   1.292   6.875
  803SOL    HW1 2975   1.674   1.295   6.955
  803SOL    HW2 2976   1.539   1.356   6.888
  804SOL     OW 2977   1.039   1.098   6.282
  804SOL    HW1 2978   0.969   1.051   6.336
  804SOL    HW2 2979   1.098   1.030   6.239
  805SOL     OW 2980   1.014   0.236   6.557
  805SOL    HW1 2981   1.006   0.200   6.464
  805SOL    HW2 2982   1.012   0.160   6.622
  806SOL     OW 2983   0.590   1.487   6.077
  806SOL    HW1 2984   0.632   1.429   6.007
  806SOL    HW2 2985   0.546   1.566   6.033
  807SOL     OW 2986   1.709   0.385   6.967
  807SOL    HW1 2987   1.782   0.454   6.971
  807SOL    HW2 2988   1.737   0.310   6.908
  808SOL     OW 2989   0.255   1.348   5.876
  808SOL    HW1 2990   0.159   1.349   5.849
  808SOL    HW2 2991   0.267   1.401   5.960
  809SOL     OW 2992   0.105   1.013   7.312
  809SOL    HW1 2993   0.028   0.980   7.366
  809SOL    HW2 2994   0.190   0.983   7.354
  810SOL     OW 2995   0.672   0.203   7.075
  810SOL    HW1 2996   0.762   0.187   7.035
  810SOL    HW2 2997   0.680   0.208   7.174
  811SOL     OW 2998   0.075   0.345   5.619
  811SOL    HW1 2999  -0.017   0.317   5.590
  811SOL    HW2 3000   0.106   0.422   5.563
  812SOL     OW 3001   1.440   0.856   6.984
  812SOL    HW1 3002   1.383   0.908   6.921
  812SOL    HW2 3003   1.536   0.868   6.960
  813SOL     OW 3004   0.072   0.166   5.904
  813SOL    HW1 3005   0.055   0.249   5.850
  813SOL    HW2 3006   0.162   0.129   5.882
  814SOL     OW 3007   1.183   1.335   5.705
  814SOL    HW1 3008   1.084   1.324   5.707
  814SOL    HW2 3009   1.217   1.350   5.798
  815SOL     OW 3010   0.613   0.842   7.017
  815SOL    HW1 3011   0.669   0.923   7.000
  815SOL    HW2 3012   0.672   0.762   7.020
  816SOL     OW 3013   1.493   1.767   6.545
  816SOL    HW1 3014   1.526   1.831   6.476
  816SOL    HW2 3015   1.559   1.761   6.620
  817SOL     OW 3016   0.716   0.565   7.294
  817SOL    HW1 3017   0.735   0.630   7.368
  817SOL    HW2 3018   0.776   0.485   7.303
  818SOL     OW 3019   1.450   1.220   7.219
  818SOL    HW1 3020   1.441   1.210   7.318
  818SOL    HW2 3021   1.546   1.213   7.193
  819SOL     OW 3022   0.390   1.741   7.146
  819SOL    HW1 3023   0.299   1.782   7.144
  819SOL    HW2 3024   0.383   1.647   7.178
  820SOL     OW 3025   1.674   0.883   6.840
  820SOL    HW1 3026   1.647   0.794   6.803
  820SOL    HW2 3027   1.675   0.951   6.767
  821SOL     OW 3028   1.225   0.325   6.035
  821SOL    HW1 3029   1.290   0.251   6.024
  821SOL    HW2 3030   1.245   0.375   6.119
  822SOL     OW 3031   0.594   0.745   6.238
  822SOL    HW1 3032   0.644   0.830   6.219
  822SOL    HW2 3033   0.506   0.747   6.190
  823SOL     OW 3034   1.777   0.342   7.228
  823SOL    HW1 3035   1.760   0.373   7.134
  823SOL    HW2 3036   1.693   0.305   7.266
  824SOL     OW 3037   1.730   0.934   7.103
  824SOL    HW1 3038   1.768   1.025   7.118
  824SOL    HW2 3039   1.722   0.917   7.004
  825SOL     OW 3040   0.859   1.374   5.602
  825SOL    HW1 3041   0.813   1.389   5.690
  825SOL    HW2 3042   0.903   1.459   5.572
  826SOL     OW 3043   0.661   1.790   6.539
  826SOL    HW1 3044   0.615   1.878   6.526
  826SOL    HW2 3045   0.760   1.802   6.532
  827SOL     OW 3046   0.859   0.956   6.447
  827SOL    HW1 3047   0.913   0.887   6.495
  827SOL    HW2 3048   0.827   1.025   6.513
  828SOL     OW 3049   1.083   0.984   5.673
  828SOL    HW1 3050   1.060   1.037   5.591
  828SOL    HW2 3051   1.164   0.928   5.654
  829SOL     OW 3052   1.861   1.569   6.437
  829SOL    HW1 3053   1.790   1.557   6.367
  829SOL    HW2 3054   1.862   1.490   6.497
  830SOL     OW 3055   0.221   1.314   7.430
  830SOL    HW1 3056   0.156   1.241   7.409
  830SOL    HW2 3057   0.225   1.328   7.528
  831SOL     OW 3058   0.079   1.240   6.239
  831SOL    HW1 3059   0.078   1.193   6.327
  831SOL    HW2 3060   0.161   1.212   6.188
  832SOL     OW 3061   0.672   1.391   7.210
  832SOL    HW1 3062   0.594   1.341   7.248
  832SOL    HW2 3063   0.669   1.486   7.241
  833SOL     OW 3064   1.824   0.192   6.813
  833SOL    HW1 3065   1.820   0.102   6.857
  833SOL    HW2 3066   1.827   0.181   6.714
  834SOL     OW 3067   0.428   0.424   6.106
  834SOL    HW1 3068   0.458   0.352   6.044
  834SOL    HW2 3069   0.389   0.384   6.189
  835SOL     OW 3070   1.705   1.487   6.690
  835SOL    HW1 3071   1.612   1.462   6.663
  835SOL    HW2 3072   1.731   1.437   6.772
  836SOL     OW 3073   0.317   0.547   6.866
  836SOL    HW1 3074   0.355   0.488   6.938
  836SOL    HW2 3075   0.357   0.521   6.778
  837SOL     OW 3076   0.812   1.586   6.273
  837SOL    HW1 3077   0.844   1.596   6.179
  837SOL    HW2 3078   0.733   1.524   6.275
  838SOL     OW 3079   1.424   0.214   6.698
  838SOL    HW1 3080   1.476   0.149   6.753
  838SOL    HW2 3081   1.375   0.277   6.759
  839SOL     OW 3082   1.001   0.034   6.740
  839SOL    HW1 3083   0.938  -0.038   6.709
  839SOL    HW2 3084   1.094  -0.002   6.740
  840SOL     OW 3085   0.770   1.330   5.887
  840SOL    HW1 3086   0.724   1.243   5.904
  840SOL    HW2 3087   0.861   1.327   5.928
  841SOL     OW 3088   0.618   1.567   6.870
  841SOL    HW1 3089   0.613   1.649   6.927
  841SOL    HW2 3090   0.707   1.564   6.825
  842SOL     OW 3091   1.352   0.052   5.754
  842SOL    HW1 3092   1.387   0.011   5.670
  842SOL    HW2 3093   1.262   0.014   5.774
  843SOL     OW 3094   1.300   0.453   6.277
  843SOL    HW1 3095   1.241   0.533   6.281
  843SOL    HW2 3096   1.315   0.418   6.370
  844SOL     OW 3097   1.593   0.221   6.468
  844SOL    HW1 3098   1.509   0.220   6.522
  844SOL    HW2 3099   1.595   0.304   6.412
  845SOL     OW 3100   0.039   1.077   5.886
  845SOL    HW1 3101   0.138   1.066   5.877
  845SOL    HW2 3102  -0.001   0.991   5.918
  846SOL     OW 3103   0.875   1.646   5.923
  846SOL    HW1 3104   0.798   1.611   5.869
  846SOL    HW2 3105   0.843   1.717   5.985
  847SOL     OW 3106   0.230   0.628   7.561
  847SOL    HW1 3107   0.137   0.626   7.598
  847SOL    HW2 3108   0.231   0.589   7.469
  848SOL     OW 3109   0.225   0.275   8.444
  848SOL    HW1 3110   0.260   0.258   8.536
  848SOL    HW2 3111   0.137   0.230   8.432
  849SOL     OW 3112   0.019   0.368   8.095
  849SOL    HW1 3113  -0.063   0.411   8.134
  849SOL    HW2 3114  -0.009   0.295   8.032
  850SOL     OW 3115   0.569   1.275   8.613
  850SOL    HW1 3116   0.476   1.268   8.576
  850SOL    HW2 3117   0.580   1.364   8.657
  851SOL     OW 3118   1.555   1.511   8.151
  851SOL    HW1 3119   1.498   1.495   8.232
  851SOL    HW2 3120   1.496   1.521   8.071
  852SOL     OW 3121   1.135   0.703   8.165
  852SOL    HW1 3122   1.192   0.781   8.140
  852SOL    HW2 3123   1.075   0.729   8.241
  853SOL     OW 3124   1.755   0.607   7.679
  853SOL    HW1 3125   1.743   0.594   7.580
  853SOL    HW2 3126   1.725   0.526   7.728
  854SOL     OW 3127   0.768   1.144   8.471
  854SOL    HW1 3128   0.690   1.161   8.531
  854SOL    HW2 3129   0.802   1.231   8.435
  855SOL     OW 3130   0.850   0.798   9.271
  855SOL    HW1 3131   0.846   0.874   9.336
  855SOL    HW2 3132   0.872   0.834   9.180
  856SOL     OW 3133   0.685   1.012   8.113
  856SOL    HW1 3134   0.754   0.996   8.183
  856SOL    HW2 3135   0.612   1.069   8.151
  857SOL     OW 3136   0.686   1.161   9.251
  857SOL    HW1 3137   0.746   1.240   9.265
  857SOL    HW2 3138   0.600   1.192   9.210
  858SOL     OW 3139   0.335   1.435   8.509
  858SOL    HW1 3140   0.257   1.404   8.456
  858SOL    HW2 3141   0.393   1.493   8.452
  859SOL     OW 3142   1.460   1.505   8.787
  859SOL    HW1 3143   1.484   1.599   8.813
  859SOL    HW2 3144   1.444   1.451   8.869
  860SOL     OW 3145   0.438   0.392   8.947
  860SOL    HW1 3146   0.520   0.336   8.956
  860SOL    HW2 3147   0.357   0.334   8.951
  861SOL     OW 3148   1.603   0.447   8.185
  861SOL    HW1 3149   1.529   0.493   8.135
  861SOL    HW2 3150   1.654   0.515   8.238
  862SOL     OW 3151   0.231   1.713   7.931
  862SOL    HW1 3152   0.265   1.790   7.985
  862SOL    HW2 3153   0.275   1.713   7.841
  863SOL     OW 3154   1.127   1.341   9.138
  863SOL    HW1 3155   1.174   1.341   9.226
  863SOL    HW2 3156   1.079   1.254   9.127
  864SOL     OW 3157   0.230   1.434   7.986
  864SOL    HW1 3158   0.204   1.530   7.986
  864SOL    HW2 3159   0.159   1.380   8.031
  865SOL     OW 3160   0.240   1.091   8.334
  865SOL    HW1 3161   0.254   1.007   8.386
  865SOL    HW2 3162   0.185   1.155   8.389
  866SOL     OW 3163   0.620   1.786   8.887
  866SOL    HW1 3164   0.528   1.769   8.922
  866SOL    HW2 3165   0.648   1.878   8.913
  867SOL     OW 3166   0.606   0.964   7.571
  867SOL    HW1 3167   0.613   1.048   7.517
  867SOL    HW2 3168   0.652   0.977   7.659
  868SOL     OW 3169   1.594   0.114   8.928
  868SOL    HW1 3170   1.576   0.181   8.856
  868SOL    HW2 3171   1.591   0.160   9.017
  869SOL     OW 3172   0.122   0.643   8.011
  869SOL    HW1 3173   0.077   0.555   8.028
  869SOL    HW2 3174   0.121   0.697   8.095
  870SOL     OW 3175   1.842   1.767   7.807
  870SOL    HW1 3176   1.896   1.738   7.887
  870SOL    HW2 3177   1.872   1.857   7.778
  871SOL     OW 3178   0.027   1.596   7.565
  871SOL    HW1 3179   0.008   1.500   7.586
  871SOL    HW2 3180  -0.006   1.654   7.640
  872SOL     OW 3181   1.689   0.922   8.060
  872SOL    HW1 3182   1.784   0.893   8.068
  872SOL    HW2 3183   1.681   0.987   7.985
  873SOL     OW 3184   1.641   1.108   7.880
  873SOL    HW1 3185   1.727   1.110   7.828
  873SOL    HW2 3186   1.655   1.155   7.968
  874SOL     OW 3187   0.113   0.737   9.045
  874SOL    HW1 3188   0.201   0.724   9.090
  874SOL    HW2 3189   0.100   0.834   9.023
  875SOL     OW 3190   0.613   1.365   8.174
  875SOL    HW1 3191   0.564   1.278   8.183
  875SOL    HW2 3192   0.590   1.408   8.087
  876SOL     OW 3193   1.293   1.228   8.871
  876SOL    HW1 3194   1.330   1.155   8.813
  876SOL    HW2 3195   1.345   1.233   8.956
  877SOL     OW 3196   0.809   0.004   7.950
  877SOL    HW1 3197   0.849   0.095   7.941
  877SOL    HW2 3198   0.709   0.012   7.956
  878SOL     OW 3199   0.197   0.976   8.712
  878SOL    HW1 3200   0.286   0.931   8.698
  878SOL    HW2 3201   0.124   0.911   8.693
  879SOL     OW 3202   1.525   0.999   7.638
  879SOL    HW1 3203   1.462   0.923   7.651
  879SOL    HW2 3204   1.573   1.017   7.724
  880SOL     OW 3205   1.187   1.792   9.064
  880SOL    HW1 3206   1.211   1.852   8.988
  880SOL    HW2 3207   1.194   1.697   9.034
  881SOL     OW 3208   0.317   0.251   9.249
  881SOL    HW1 3209   0.388   0.322   9.255
  881SOL    HW2 3210   0.229   0.290   9.277
  882SOL     OW 3211   1.466   1.417   8.401
  882SOL    HW1 3212   1.407   1.423   8.481
  882SOL    HW2 3213   1.451   1.329   8.355
  883SOL     OW 3214   1.667   1.714   8.020
  883SOL    HW1 3215   1.626   1.691   7.932
  883SOL    HW2 3216   1.649   1.640   8.085
  884SOL     OW 3217   0.598   0.729   7.718
  884SOL    HW1 3218   0.622   0.798   7.650
  884SOL    HW2 3219   0.520   0.762   7.772
  885SOL     OW 3220   1.281   0.345   8.392
  885SOL    HW1 3221   1.195   0.295   8.379
  885SOL    HW2 3222   1.343   0.291   8.448
  886SOL     OW 3223   1.576   1.662   7.755
  886SOL    HW1 3224   1.665   1.708   7.758
  886SOL    HW2 3225   1.555   1.638   7.660
  887SOL     OW 3226   0.807   0.605   8.913
  887SOL    HW1 3227   0.760   0.602   9.002
  887SOL    HW2 3228   0.756   0.550   8.847
  888SOL     OW 3229   1.394   0.469   9.122
  888SOL    HW1 3230   1.374   0.512   9.210
  888SOL    HW2 3231   1.472   0.407   9.131
  889SOL     OW 3232   0.973   0.890   9.020
  889SOL    HW1 3233   1.019   0.806   8.991
  889SOL    HW2 3234   0.917   0.924   8.945
  890SOL     OW 3235   0.991   0.410   8.690
  890SOL    HW1 3236   0.914   0.444   8.744
  890SOL    HW2 3237   0.957   0.359   8.611
  891SOL     OW 3238   1.041   0.701   7.877
  891SOL    HW1 3239   1.067   0.697   7.973
  891SOL    HW2 3240   0.956   0.650   7.863
  892SOL     OW 3241   0.076   0.811   8.237
  892SOL    HW1 3242   0.175   0.799   8.246
  892SOL    HW2 3243   0.052   0.906   8.258
  893SOL     OW 3244   0.130   1.821   9.019
  893SOL    HW1 3245   0.120   1.806   9.118
  893SOL    HW2 3246   0.044   1.857   8.983
  894SOL     OW 3247   0.865   0.348   7.643
  894SOL    HW1 3248   0.924   0.411   7.594
  894SOL    HW2 3249   0.884   0.254   7.614
  895SOL     OW 3250   1.719   0.585   9.279
  895SOL    HW1 3251   1.693   0.674   9.243
  895SOL    HW2 3252   1.717   0.517   9.206
  896SOL     OW 3253   1.362   1.144   7.993
  896SOL    HW1 3254   1.445   1.115   7.945
  896SOL    HW2 3255   1.313   1.211   7.937
  897SOL     OW 3256   0.550   0.196   8.333
  897SOL    HW1 3257   0.545   0.191   8.433
  897SOL    HW2 3258   0.552   0.292   8.304
  898SOL     OW 3259   1.008   1.456   7.925
  898SOL    HW1 3260   0.962   1.528   7.873
  898SOL    HW2 3261   1.004   1.476   8.023
  899SOL     OW 3262   0.351   1.801   8.301
  899SOL    HW1 3263   0.401   1.715   8.307
  899SOL    HW2 3264   0.416   1.878   8.298
  900SOL     OW 3265   1.795   1.066   8.321
  900SOL    HW1 3266   1.733   1.051   8.245
  900SOL    HW2 3267   1.743   1.077   8.406
  901SOL     OW 3268   1.227   1.550   8.954
  901SOL    HW1 3269   1.233   1.473   9.018
  901SOL    HW2 3270   1.175   1.524   8.874
  902SOL     OW 3271   0.321   0.943   7.690
  902SOL    HW1 3272   0.403   0.982   7.648
  902SOL    HW2 3273   0.294   0.861   7.641
  903SOL     OW 3274   1.458   0.735   8.176
  903SOL    HW1 3275   1.453   0.670   8.251
  903SOL    HW2 3276   1.538   0.794   8.189
  904SOL     OW 3277   0.461   1.266   9.175
  904SOL    HW1 3278   0.411   1.267   9.089
  904SOL    HW2 3279   0.398   1.248   9.251
  905SOL     OW 3280   1.111   1.776   7.685
  905SOL    HW1 3281   1.051   1.714   7.735
  905SOL    HW2 3282   1.142   1.732   7.600
  906SOL     OW 3283   0.202   0.285   8.946
  906SOL    HW1 3284   0.122   0.345   8.933
  906SOL    HW2 3285   0.192   0.236   9.032
  907SOL     OW 3286   1.632   1.377   7.529
  907SOL    HW1 3287   1.600   1.471   7.519
  907SOL    HW2 3288   1.556   1.314   7.517
  908SOL     OW 3289   0.464   1.743   7.771
  908SOL    HW1 3290   0.497   1.782   7.857
  908SOL    HW2 3291   0.540   1.736   7.706
  909SOL     OW 3292   1.400   0.107   7.874
  909SOL    HW1 3293   1.376   0.070   7.784
  909SOL    HW2 3294   1.499   0.123   7.878
  910SOL     OW 3295   0.249   1.785   8.689
  910SOL    HW1 3296   0.306   1.720   8.739
  910SOL    HW2 3297   0.233   1.752   8.596
  911SOL     OW 3298   0.940   1.698   8.352
  911SOL    HW1 3299   1.020   1.641   8.373
  911SOL    HW2 3300   0.891   1.658   8.275
  912SOL     OW 3301   0.382   0.700   7.928
  912SOL    HW1 3302   0.427   0.610   7.925
  912SOL    HW2 3303   0.288   0.689   7.961
  913SOL     OW 3304   1.547   0.222   9.177
  913SOL    HW1 3305   1.542   0.259   9.269
  913SOL    HW2 3306   1.475   0.153   9.165
  914SOL     OW 3307   0.614   0.122   7.565
  914SOL    HW1 3308   0.712   0.100   7.572
  914SOL    HW2 3309   0.583   0.105   7.472
  915SOL     OW 3310   0.781   0.264   9.197
  915SOL    HW1 3311   0.848   0.203   9.240
  915SOL    HW2 3312   0.708   0.283   9.262
  916SOL     OW 3313   0.888   1.514   8.643
  916SOL    HW1 3314   0.865   1.489   8.549
  916SOL    HW2 3315   0.949   1.445   8.682
  917SOL     OW 3316   1.351   0.590   8.881
  917SOL    HW1 3317   1.379   0.547   8.966
  917SOL    HW2 3318   1.376   0.686   8.882
  918SOL     OW 3319   0.803   1.402   8.372
  918SOL    HW1 3320   0.893   1.416   8.330
  918SOL    HW2 3321   0.732   1.404   8.301
  919SOL     OW 3322   0.922   0.503   8.347
  919SOL    HW1 3323   0.897   0.494   8.251
  919SOL    HW2 3324   0.970   0.421   8.378
  920SOL     OW 3325   0.539   0.064   7.960
  920SOL    HW1 3326   0.458   0.065   8.018
  920SOL    HW2 3327   0.542   0.147   7.905
  921SOL     OW 3328   1.434   1.188   7.489
  921SOL    HW1 3329   1.466   1.112   7.546
  921SOL    HW2 3330   1.342   1.215   7.519
  922SOL     OW 3331   0.297   0.035   7.619
  922SOL    HW1 3332   0.346   0.119   7.598
  922SOL    HW2 3333   0.359  -0.030   7.664
  923SOL     OW 3334   0.935   0.236   7.928
  923SOL    HW1 3335   0.887   0.277   7.850
  923SOL    HW2 3336   1.034   0.234   7.909
  924SOL     OW 3337   1.076   0.683   8.912
  924SOL    HW1 3338   0.996   0.622   8.915
  924SOL    HW2 3339   1.157   0.630   8.888
  925SOL     OW 3340   1.227   1.570   8.241
  925SOL    HW1 3341   1.248   1.644   8.176
  925SOL    HW2 3342   1.295   1.570   8.314
  926SOL     OW 3343   0.459   1.152   8.189
  926SOL    HW1 3344   0.388   1.125   8.254
  926SOL    HW2 3345   0.433   1.124   8.096
  927SOL     OW 3346   1.271   1.797   8.039
  927SOL    HW1 3347   1.315   1.861   7.975
  927SOL    HW2 3348   1.221   1.849   8.109
  928SOL     OW 3349   1.032   0.549   7.464
  928SOL    HW1 3350   0.991   0.631   7.425
  928SOL    HW2 3351   1.096   0.575   7.537
  929SOL     OW 3352   0.078   0.556   8.834
  929SOL    HW1 3353   0.170   0.555   8.793
  929SOL    HW2 3354   0.072   0.630   8.901
  930SOL     OW 3355   0.561   0.222   8.595
  930SOL    HW1 3356   0.599   0.138   8.632
  930SOL    HW2 3357   0.473   0.241   8.639
  931SOL     OW 3358   0.866   0.454   8.090
  931SOL    HW1 3359   0.834   0.526   8.028
  931SOL    HW2 3360   0.890   0.373   8.037
  932SOL     OW 3361   1.017   0.039   8.201
  932SOL    HW1 3362   0.945   0.044   8.132
  932SOL    HW2 3363   0.993  -0.030   8.270
  933SOL     OW 3364   1.429   1.173   8.315
  933SOL    HW1 3365   1.374   1.089   8.308
  933SOL    HW2 3366   1.455   1.202   8.223
  934SOL     OW 3367   1.466   0.590   8.440
  934SOL    HW1 3368   1.436   0.495   8.447
  934SOL    HW2 3369   1.539   0.606   8.506
  935SOL     OW 3370   1.857   0.833   7.825
  935SOL    HW1 3371   1.899   0.769   7.889
  935SOL    HW2 3372   1.819   0.782   7.747
  936SOL     OW 3373   0.488   1.385   7.622
  936SOL    HW1 3374   0.401   1.370   7.669
  936SOL    HW2 3375   0.471   1.411   7.527
  937SOL     OW 3376   1.664   1.280   8.105
  937SOL    HW1 3377   1.763   1.288   8.119
  937SOL    HW2 3378   1.619   1.364   8.136
  938SOL     OW 3379   1.390   0.575   7.526
  938SOL    HW1 3380   1.336   0.554   7.607
  938SOL    HW2 3381   1.481   0.534   7.535
  939SOL     OW 3382   0.527   0.256   7.776
  939SOL    HW1 3383   0.554   0.197   7.701
  939SOL    HW2 3384   0.527   0.351   7.745
  940SOL     OW 3385   1.754   1.223   9.036
  940SOL    HW1 3386   1.845   1.184   9.023
  940SOL    HW2 3387   1.762   1.319   9.060
  941SOL     OW 3388   1.064   1.347   8.788
  941SOL    HW1 3389   0.984   1.324   8.843
  941SOL    HW2 3390   1.147   1.321   8.837
  942SOL     OW 3391   1.592   1.629   9.073
  942SOL    HW1 3392   1.619   1.663   8.983
  942SOL    HW2 3393   1.671   1.591   9.119
  943SOL     OW 3394   1.111   1.195   8.548
  943SOL    HW1 3395   1.071   1.239   8.629
  943SOL    HW2 3396   1.070   1.232   8.465
  944SOL     OW 3397   1.638   1.099   8.527
  944SOL    HW1 3398   1.643   1.180   8.586
  944SOL    HW2 3399   1.552   1.101   8.476
  945SOL     OW 3400   0.915   0.089   8.850
  945SOL    HW1 3401   0.940   0.069   8.755
  945SOL    HW2 3402   0.987   0.145   8.892
  946SOL     OW 3403   0.980   1.116   9.167
  946SOL    HW1 3404   0.881   1.122   9.177
  946SOL    HW2 3405   1.003   1.036   9.111
  947SOL     OW 3406   0.705   1.050   7.816
  947SOL    HW1 3407   0.691   1.057   7.915
  947SOL    HW2 3408   0.789   0.999   7.798
  948SOL     OW 3409   0.410   0.813   8.699
  948SOL    HW1 3410   0.496   0.825   8.749
  948SOL    HW2 3411   0.368   0.726   8.726
  949SOL     OW 3412   1.274   0.386   8.710
  949SOL    HW1 3413   1.295   0.460   8.774
  949SOL    HW2 3414   1.185   0.403   8.667
  950SOL     OW 3415   0.064   1.564   8.779
  950SOL    HW1 3416   0.018   1.646   8.745
  950SOL    HW2 3417   0.162   1.583   8.788
  951SOL     OW 3418   0.367   1.100   7.949
  951SOL    HW1 3419   0.360   1.183   7.893
  951SOL    HW2 3420   0.371   1.020   7.889
  952SOL     OW 3421   0.566   0.537   8.313
  952SOL    HW1 3422   0.578   0.603   8.239
  952SOL    HW2 3423   0.612   0.571   8.396
  953SOL     OW 3424   1.252   1.348   7.836
  953SOL    HW1 3425   1.302   1.425   7.876
  953SOL    HW2 3426   1.157   1.350   7.868
  954SOL     OW 3427   1.272   1.445   8.590
  954SOL    HW1 3428   1.319   1.458   8.677
  954SOL    HW2 3429   1.206   1.371   8.599
  955SOL     OW 3430   1.582   0.639   7.920
  955SOL    HW1 3431   1.551   0.700   7.993
  955SOL    HW2 3432   1.632   0.691   7.851
  956SOL     OW 3433   0.354   1.510   8.777
  956SOL    HW1 3434   0.333   1.466   8.690
  956SOL    HW2 3435   0.451   1.536   8.780
  957SOL     OW 3436   0.402   0.751   9.046
  957SOL    HW1 3437   0.470   0.806   8.999
  957SOL    HW2 3438   0.442   0.663   9.073
  958SOL     OW 3439   1.587   0.779   9.118
  958SOL    HW1 3440   1.495   0.817   9.113
  958SOL    HW2 3441   1.647   0.826   9.053
  959SOL     OW 3442   1.013   0.105   9.218
  959SOL    HW1 3443   1.019   0.190   9.166
  959SOL    HW2 3444   1.045   0.029   9.161
  960SOL     OW 3445   0.504   0.050   9.188
  960SOL    HW1 3446   0.462  -0.007   9.118
  960SOL    HW2 3447   0.438   0.119   9.220
  961SOL     OW 3448   0.573   0.870   8.477
  961SOL    HW1 3449   0.617   0.959   8.468
  961SOL    HW2 3450   0.510   0.870   8.554
  962SOL     OW 3451   1.360   0.862   8.493
  962SOL    HW1 3452   1.285   0.862   8.427
  962SOL    HW2 3453   1.397   0.770   8.502
  963SOL     OW 3454   1.209   0.525   7.723
  963SOL    HW1 3455   1.222   0.441   7.777
  963SOL    HW2 3456   1.180   0.599   7.783
  964SOL     OW 3457   0.307   0.213   8.679
  964SOL    HW1 3458   0.284   0.250   8.769
  964SOL    HW2 3459   0.277   0.118   8.673
  965SOL     OW 3460   0.037   1.310   8.730
  965SOL    HW1 3461   0.090   1.261   8.798
  965SOL    HW2 3462   0.059   1.408   8.735
  966SOL     OW 3463   0.732   0.634   8.512
  966SOL    HW1 3464   0.791   0.608   8.436
  966SOL    HW2 3465   0.704   0.730   8.501
  967SOL     OW 3466   1.728   0.935   9.302
  967SOL    HW1 3467   1.682   0.928   9.213
  967SOL    HW2 3468   1.666   0.979   9.368
  968SOL     OW 3469   0.307   0.063   8.066
  968SOL    HW1 3470   0.296   0.157   8.099
  968SOL    HW2 3471   0.302   0.000   8.143
  969SOL     OW 3472   1.622   0.367   7.822
  969SOL    HW1 3473   1.624   0.291   7.886
  969SOL    HW2 3474   1.574   0.444   7.862
  970SOL     OW 3475   1.023   0.766   8.414
  970SOL    HW1 3476   1.038   0.787   8.510
  970SOL    HW2 3477   0.993   0.671   8.405
  971SOL     OW 3478   0.980   1.573   9.148
  971SOL    HW1 3479   0.960   1.617   9.060
  971SOL    HW2 3480   1.019   1.482   9.132
  972SOL     OW 3481   1.859   1.518   9.053
  972SOL    HW1 3482   1.873   1.545   8.958
  972SOL    HW2 3483   1.942   1.540   9.106
  973SOL     OW 3484   0.350   0.898   9.252
  973SOL    HW1 3485   0.426   0.942   9.300
  973SOL    HW2 3486   0.385   0.851   9.170
  974SOL     OW 3487   1.540   0.274   7.573
  974SOL    HW1 3488   1.479   0.199   7.596
  974SOL    HW2 3489   1.562   0.326   7.656
  975SOL     OW 3490   1.303   0.838   7.490
  975SOL    HW1 3491   1.337   0.745   7.505
  975SOL    HW2 3492   1.321   0.865   7.395
  976SOL     OW 3493   1.068   1.333   8.297
  976SOL    HW1 3494   1.075   1.249   8.242
  976SOL    HW2 3495   1.130   1.402   8.261
  977SOL     OW 3496   0.319   0.810   8.397
  977SOL    HW1 3497   0.412   0.846   8.402
  977SOL    HW2 3498   0.313   0.725   8.449
  978SOL     OW 3499   0.339   0.509   8.454
  978SOL    HW1 3500   0.287   0.426   8.437
  978SOL    HW2 3501   0.416   0.514   8.390
  979SOL     OW 3502   1.138   0.380   9.126
  979SOL    HW1 3503   1.093   0.443   9.190
  979SOL    HW2 3504   1.231   0.411   9.109
  980SOL     OW 3505   1.160   0.207   8.925
  980SOL    HW1 3506   1.160   0.271   9.002
  980SOL    HW2 3507   1.188   0.255   8.842
  981SOL     OW 3508   0.008   1.326   7.648
  981SOL    HW1 3509  -0.085   1.347   7.617
  981SOL    HW2 3510   0.018   1.227   7.661
  982SOL     OW 3511   0.088   1.801   8.375
  982SOL    HW1 3512   0.046   1.715   8.348
  982SOL    HW2 3513   0.182   1.804   8.341
  983SOL     OW 3514   0.504   1.568   8.358
  983SOL    HW1 3515   0.570   1.642   8.367
  983SOL    HW2 3516   0.548   1.489   8.316
  984SOL     OW 3517   1.002   0.796   8.686
  984SOL    HW1 3518   1.043   0.764   8.772
  984SOL    HW2 3519   0.906   0.769   8.683
  985SOL     OW 3520   0.040   0.544   8.562
  985SOL    HW1 3521   0.125   0.511   8.521
  985SOL    HW2 3522   0.053   0.559   8.660
  986SOL     OW 3523   0.189   0.520   9.170
  986SOL    HW1 3524   0.248   0.480   9.100
  986SOL    HW2 3525   0.131   0.591   9.129
  987SOL     OW 3526   1.369   0.950   9.108
  987SOL    HW1 3527   1.408   1.039   9.128
  987SOL    HW2 3528   1.379   0.930   9.011
  988SOL     OW 3529   0.815   0.572   7.773
  988SOL    HW1 3530   0.822   0.483   7.727
  988SOL    HW2 3531   0.721   0.606   7.765
  989SOL     OW 3532   1.657   0.604   8.654
  989SOL    HW1 3533   1.619   0.535   8.716
  989SOL    HW2 3534   1.739   0.568   8.610
  990SOL     OW 3535   0.252   1.564   9.192
  990SOL    HW1 3536   0.222   1.621   9.268
  990SOL    HW2 3537   0.245   1.467   9.218
  991SOL     OW 3538   0.671   0.464   8.717
  991SOL    HW1 3539   0.637   0.375   8.687
  991SOL    HW2 3540   0.697   0.518   8.637
  992SOL     OW 3541   0.930   1.678   8.913
  992SOL    HW1 3542   0.906   1.660   8.818
  992SOL    HW2 3543   0.960   1.772   8.923
  993SOL     OW 3544   0.473   0.500   7.639
  993SOL    HW1 3545   0.534   0.580   7.643
  993SOL    HW2 3546   0.378   0.531   7.646
  994SOL     OW 3547   0.159   1.137   8.914
  994SOL    HW1 3548   0.181   1.076   8.990
  994SOL    HW2 3549   0.169   1.088   8.828
  995SOL     OW 3550   1.347   1.059   8.682
  995SOL    HW1 3551   1.371   0.996   8.608
  995SOL    HW2 3552   1.257   1.099   8.664
  996SOL     OW 3553   1.302   0.855   7.757
  996SOL    HW1 3554   1.216   0.824   7.799
  996SOL    HW2 3555   1.298   0.841   7.658
  997SOL     OW 3556   1.759   1.747   8.602
  997SOL    HW1 3557   1.820   1.777   8.529
  997SOL    HW2 3558   1.721   1.658   8.580
  998SOL     OW 3559   1.252   1.731   8.576
  998SOL    HW1 3560   1.336   1.736   8.522
  998SOL    HW2 3561   1.229   1.635   8.594
  999SOL     OW 3562   0.083   1.258   8.470
  999SOL    HW1 3563   0.078   1.257   8.570
  999SOL    HW2 3564   0.000   1.217   8.432
 1000SOL     OW 3565   0.688   1.662   9.164
 1000SOL    HW1 3566   0.632   1.743   9.173
 1000SOL    HW2 3567   0.740   1.666   9.078
 1001SOL     OW 3568   1.726   0.135   7.971
 1001SOL    HW1 3569   1.799   0.118   7.904
 1001SOL    HW2 3570   1.695   0.048   8.009
 1002SOL     OW 3571   1.388   1.573   7.925
 1002SOL    HW1 3572   1.455   1.585   7.851
 1002SOL    HW2 3573   1.348   1.662   7.948
 1003SOL     OW 3574   0.130   1.794   9.299
 1003SOL    HW1 3575   0.089   1.720   9.352
 1003SOL    HW2 3576   0.194   1.845   9.357
 1004SOL     OW 3577   1.280   0.927   8.120
 1004SOL    HW1 3578   1.340   0.846   8.122
 1004SOL    HW2 3579   1.320   0.996   8.060
 1005SOL     OW 3580   0.830   1.273   8.870
 1005SOL    HW1 3581   0.825   1.306   8.965
 1005SOL    HW2 3582   0.744   1.292   8.824
 1006SOL     OW 3583   0.672   1.616   7.602
 1006SOL    HW1 3584   0.681   1.626   7.503
 1006SOL    HW2 3585   0.632   1.527   7.623
 1007SOL     OW 3586   1.650   1.720   8.842
 1007SOL    HW1 3587   1.703   1.730   8.758
 1007SOL    HW2 3588   1.623   1.810   8.876
 1008SOL     OW 3589   1.841   0.175   8.411
 1008SOL    HW1 3590   1.880   0.090   8.375
 1008SOL    HW2 3591   1.743   0.177   8.392
 1009SOL     OW 3592   0.263   0.326   8.168
 1009SOL    HW1 3593   0.184   0.377   8.134
 1009SOL    HW2 3594   0.254   0.311   8.266
 1010SOL     OW 3595   1.194   1.612   7.479
 1010SOL    HW1 3596   1.200   1.519   7.516
 1010SOL    HW2 3597   1.135   1.612   7.399
 1011SOL     OW 3598   0.822   1.002   8.820
 1011SOL    HW1 3599   0.862   1.001   8.728
 1011SOL    HW2 3600   0.832   1.094   8.860
 1012SOL     OW 3601   0.916   0.910   7.739
 1012SOL    HW1 3602   0.979   0.948   7.671
 1012SOL    HW2 3603   0.956   0.827   7.778
 1013SOL     OW 3604   1.504   1.607   7.492
 1013SOL    HW1 3605   1.412   1.644   7.499
 1013SOL    HW2 3606   1.542   1.627   7.402
 1014SOL     OW 3607   0.372   1.288   8.938
 1014SOL    HW1 3608   0.359   1.381   8.904
 1014SOL    HW2 3609   0.288   1.236   8.925
 1015SOL     OW 3610   1.614   1.292   8.737
 1015SOL    HW1 3611   1.674   1.295   8.817
 1015SOL    HW2 3612   1.539   1.356   8.750
 1016SOL     OW 3613   1.039   1.098   8.144
 1016SOL    HW1 3614   0.969   1.051   8.198
 1016SOL    HW2 3615   1.098   1.030   8.101
 1017SOL     OW 3616   1.014   0.236   8.419
 1017SOL    HW1 3617   1.006   0.200   8.326
 1017SOL    HW2 3618   1.012   0.160   8.484
 1018SOL     OW 3619   0.590   1.487   7.939
 1018SOL    HW1 3620   0.632   1.429   7.869
 1018SOL    HW2 3621   0.546   1.566   7.895
 1019SOL     OW 3622   1.709   0.385   8.829
 1019SOL    HW1 3623   1.782   0.454   8.833
 1019SOL    HW2 3624   1.737   0.310   8.770
 1020SOL     OW 3625   0.255   1.348   7.738
 1020SOL    HW1 3626   0.159   1.349   7.711
 1020SOL    HW2 3627   0.267   1.401   7.822
 1021SOL     OW 3628   0.105   1.013   9.174
 1021SOL    HW1 3629   0.028   0.980   9.228
 1021SOL    HW2 3630   0.190   0.983   9.216
 1022SOL     OW 3631   0.672   0.203   8.937
 1022SOL    HW1 3632   0.762   0.187   8.897
 1022SOL    HW2 3633   0.680   0.208   9.036
 1023SOL     OW 3634   0.075   0.345   7.481
 1023SOL    HW1 3635  -0.017   0.317   7.452
 1023SOL    HW2 3636   0.106   0.422   7.425
 1024SOL     OW 3637   1.440   0.856   8.846
 1024SOL    HW1 3638   1.383   0.908   8.783
 1024SOL    HW2 3639   1.536   0.868   8.822
 1025SOL     OW 3640   0.072   0.166   7.766
 1025SOL    HW1 3641   0.055   0.249   7.712
 1025SOL    HW2 3642   0.162   0.129   7.744
 1026SOL     OW 3643   1.183   1.335   7.567
 1026SOL    HW1 3644   1.084   1.324   7.569
 1026SOL    HW2 3645   1.217   1.350   7.660
 1027SOL     OW 3646   0.613   0.842   8.879
 1027SOL    HW1 3647   0.669   0.923   8.862
 1027SOL    HW2 3648   0.672   0.762   8.882
 1028SOL     OW 3649   1.493   1.767   8.407
 1028SOL    HW1 3650   1.526   1.831   8.338
 1028SOL    HW2 3651   1.559   1.761   8.482
 1029SOL     OW 3652   0.716   0.565   9.156
 1029SOL    HW1 3653   0.735   0.630   9.230
 1029SOL    HW2 3654   0.776   0.485   9.165
 1030SOL     OW 3655   1.450   1.220   9.081
 1030SOL    HW1 3656   1.441   1.210   9.180
 1030SOL    HW2 3657   1.546   1.213   9.055
 1031SOL     OW 3658   0.390   1.741   9.008
 1031SOL    HW1 3659   0.299   1.782   9.006
 1031SOL    HW2 3660   0.383   1.647   9.040
 1032SOL     OW 3661   1.674   0.883   8.702
 1032SOL    HW1 3662   1.647   0.794   8.665
 1032SOL    HW2 3663   1.675   0.951   8.629
 1033SOL     OW 3664   1.225   0.325   7.897
 1033SOL    HW1 3665   1.290   0.251   7.886
 1033SOL    HW2 3666   1.245   0.375   7.981
 1034SOL     OW 3667   0.594   0.745   8.100
 1034SOL    HW1 3668   0.644   0.830   8.081
 1034SOL    HW2 3669   0.506   0.747   8.052
 1035SOL     OW 3670   1.777   0.342   9.090
 1035SOL    HW1 3671   1.760   0.373   8.996
 1035SOL    HW2 3672   1.693   0.305   9.128
 1036SOL     OW 3673   1.730   0.934   8.965
 1036SOL    HW1 3674   1.768   1.025   8.980
 1036SOL    HW2 3675   1.722   0.917   8.866
 1037SOL     OW 3676   0.859   1.374   7.464
 1037SOL    HW1 3677   0.813   1.389   7.552
 1037SOL    HW2 3678   0.903   1.459   7.434
 1038SOL     OW 3679   0.661   1.790   8.401
 1038SOL    HW1 3680   0.615   1.878   8.388
 1038SOL    HW2 3681   0.760   1.802   8.394
 1039SOL     OW 3682   0.859   0.956   8.309
 1039SOL    HW1 3683   0.913   0.887   8.357
 1039SOL    HW2 3684   0.827   1.025   8.375
 1040SOL     OW 3685   1.083   0.984   7.535
 1040SOL    HW1 3686   1.060   1.037   7.453
 1040SOL    HW2 3687   1.164   0.928   7.516
 1041SOL     OW 3688   1.861   1.569   8.299
 1041SOL    HW1 3689   1.790   1.557   8.229
 1041SOL    HW2 3690   1.862   1.490   8.359
 1042SOL     OW 3691   0.221   1.314   9.292
 1042SOL    HW1 3692   0.156   1.241   9.271
 1042SOL    HW2 3693   0.225   1.328   9.390
 1043SOL     OW 3694   0.079   1.240   8.101
 1043SOL    HW1 3695   0.078   1.193   8.189
 1043SOL    HW2 3696   0.161   1.212   8.050
 1044SOL     OW 3697   0.672   1.391   9.072
 1044SOL    HW1 3698   0.594   1.341   9.110
 1044SOL    HW2 3699   0.669   1.486   9.103
 1045SOL     OW 3700   1.824   0.192   8.675
 1045SOL    HW1 3701   1.820   0.102   8.719
 1045SOL    HW2 3702   1.827   0.181   8.576
 1046SOL     OW 3703   0.428   0.424   7.968
 1046SOL    HW1 3704   0.458   0.352   7.906
 1046SOL    HW2 3705   0.389   0.384   8.051
 1047SOL     OW 3706   1.705   1.487   8.552
 1047SOL    HW1 3707   1.612   1.462   8.525
 1047SOL    HW2 3708   1.731   1.437   8.634
 1048SOL     OW 3709   0.317   0.547   8.728
 1048SOL    HW1 3710   0.355   0.488   8.800
 1048SOL    HW2 3711   0.357   0.521   8.640
 1049SOL     OW 3712   0.812   1.586   8.135
 1049SOL    HW1 3713   0.844   1.596   8.041
 1049SOL    HW2 3714   0.733   1.524   8.137
 1050SOL     OW 3715   1.424   0.214   8.560
 1050SOL    HW1 3716   1.476   0.149   8.615
 1050SOL    HW2 3717   1.375   0.277   8.621
 1051SOL     OW 3718   1.001   0.034   8.602
 1051SOL    HW1 3719   0.938  -0.038   8.571
 1051SOL    HW2 3720   1.094  -0.002   8.602
 1052SOL     OW 3721   0.770   1.330   7.749
 1052SOL    HW1 3722   0.724   1.243   7.766
 1052SOL    HW2 3723   0.861   1.327   7.790
 1053SOL     OW 3724   0.618   1.567   8.732
 1053SOL    HW1 3725   0.613   1.649   8.789
 1053SOL    HW2 3726   0.707   1.564   8.687
 1054SOL     OW 3727   1.352   0.052   7.616
 1054SOL    HW1 3728   1.387   0.011   7.532
 1054SOL    HW2 3729   1.262   0.014   7.636
 1055SOL     OW 3730   1.300   0.453   8.139
 1055SOL    HW1 3731   1.241   0.533   8.143
 1055SOL    HW2 3732   1.315   0.418   8.232
 1056SOL     OW 3733   1.593   0.221   8.330
 1056SOL    HW1 3734   1.509   0.220   8.384
 1056SOL    HW2 3735   1.595   0.304   8.274
 1057SOL     OW 3736   0.039   1.077   7.748
 1057SOL    HW1 3737   0.138   1.066   7.739
 1057SOL    HW2 3738  -0.001   0.991   7.780
 1058SOL     OW 3739   0.875   1.646   7.785
 1058SOL    HW1 3740   0.798   1.611   7.731
 1058SOL    HW2 3741   0.843   1.717   7.847
 1059SOL     OW 3742   0.230   0.628   9.423
 1059SOL    HW1 3743   0.137   0.626   9.460
 1059SOL    HW2 3744   0.231   0.589   9.331
 1060SOL     OW 3745   0.225   0.275  10.306
 1060SOL    HW1 3746   0.260   0.258  10.398
 1060SOL    HW2 3747   0.137   0.230  10.294
 1061SOL     OW 3748   0.019   0.368   9.957
 1061SOL    HW1 3749  -0.063   0.411   9.996
 1061SOL    HW2 3750  -0.009   0.295   9.894
 1062SOL     OW 3751   0.569   1.275  10.475
 1062SOL    HW1 3752   0.476   1.268  10.438
 1062SOL    HW2 3753   0.580   1.364  10.519
 1063SOL     OW 3754   1.555   1.511  10.013
 1063SOL    HW1 3755   1.498   1.495  10.094
 1063SOL    HW2 3756   1.496   1.521   9.933
 1064SOL     OW 3757   1.135   0.703  10.027
 1064SOL    HW1 3758   1.192   0.781  10.002
 1064SOL    HW2 3759   1.075   0.729  10.103
 1065SOL     OW 3760   1.755   0.607   9.541
 1065SOL    HW1 3761   1.743   0.594   9.442
 1065SOL    HW2 3762   1.725   0.526   9.590
 1066SOL     OW 3763   0.768   1.144  10.333
 1066SOL    HW1 3764   0.690   1.161  10.393
 1066SOL    HW2 3765   0.802   1.231  10.297
 1067SOL     OW 3766   0.850   0.798  11.133
 1067SOL    HW1 3767   0.846   0.874  11.198
 1067SOL    HW2 3768   0.872   0.834  11.042
 1068SOL     OW 3769   0.685   1.012   9.975
 1068SOL    HW1 3770   0.754   0.996  10.045
 1068SOL    HW2 3771   0.612   1.069  10.013
 1069SOL     OW 3772   0.335   1.435  10.371
 1069SOL    HW1 3773   0.257   1.404  10.318
 1069SOL    HW2 3774   0.393   1.493  10.314
 1070SOL     OW 3775   1.460   1.505  10.649
 1070SOL    HW1 3776   1.484   1.599  10.675
 1070SOL    HW2 3777   1.444   1.451  10.731
 1071SOL     OW 3778   0.438   0.392  10.809
 1071SOL    HW1 3779   0.520   0.336  10.818
 1071SOL    HW2 3780   0.357   0.334  10.813
 1072SOL     OW 3781   1.603   0.447  10.047
 1072SOL    HW1 3782   1.529   0.493   9.997
 1072SOL    HW2 3783   1.654   0.515  10.100
 1073SOL     OW 3784   0.231   1.713   9.793
 1073SOL    HW1 3785   0.265   1.790   9.847
 1073SOL    HW2 3786   0.275   1.713   9.703
 1074SOL     OW 3787   0.230   1.434   9.848
 1074SOL    HW1 3788   0.204   1.530   9.848
 1074SOL    HW2 3789   0.159   1.380   9.893
 1075SOL     OW 3790   0.240   1.091  10.196
 1075SOL    HW1 3791   0.254   1.007  10.248
 1075SOL    HW2 3792   0.185   1.155  10.251
 1076SOL     OW 3793   0.620   1.786  10.749
 1076SOL    HW1 3794   0.528   1.769  10.784
 1076SOL    HW2 3795   0.648   1.878  10.775
 1077SOL     OW 3796   0.606   0.964   9.433
 1077SOL    HW1 3797   0.613   1.048   9.379
 1077SOL    HW2 3798   0.652   0.977   9.521
 1078SOL     OW 3799   1.594   0.114  10.790
 1078SOL    HW1 3800   1.576   0.181  10.718
 1078SOL    HW2 3801   1.591   0.160  10.879
 1079SOL     OW 3802   0.122   0.643   9.873
 1079SOL    HW1 3803   0.077   0.555   9.890
 1079SOL    HW2 3804   0.121   0.697   9.957
 1080SOL     OW 3805   1.842   1.767   9.669
 1080SOL    HW1 3806   1.896   1.738   9.749
 1080SOL    HW2 3807   1.872   1.857   9.640
 1081SOL     OW 3808   0.027   1.596   9.427
 1081SOL    HW1 3809   0.008   1.500   9.448
 1081SOL    HW2 3810  -0.006   1.654   9.502
 1082SOL     OW 3811   1.689   0.922   9.922
 1082SOL    HW1 3812   1.784   0.893   9.930
 1082SOL    HW2 3813   1.681   0.987   9.847
 1083SOL     OW 3814   1.641   1.108   9.742
 1083SOL    HW1 3815   1.727   1.110   9.690
 1083SOL    HW2 3816   1.655   1.155   9.830
 1084SOL     OW 3817   0.113   0.737  10.907
 1084SOL    HW1 3818   0.201   0.724  10.952
 1084SOL    HW2 3819   0.100   0.834  10.885
 1085SOL     OW 3820   0.613   1.365  10.036
 1085SOL    HW1 3821   0.564   1.278  10.045
 1085SOL    HW2 3822   0.590   1.408   9.949
 1086SOL     OW 3823   1.293   1.228  10.733
 1086SOL    HW1 3824   1.330   1.155  10.675
 1086SOL    HW2 3825   1.345   1.233  10.818
 1087SOL     OW 3826   0.809   0.004   9.812
 1087SOL    HW1 3827   0.849   0.095   9.803
 1087SOL    HW2 3828   0.709   0.012   9.818
 1088SOL     OW 3829   0.197   0.976  10.574
 1088SOL    HW1 3830   0.286   0.931  10.560
 1088SOL    HW2 3831   0.124   0.911  10.555
 1089SOL     OW 3832   1.525   0.999   9.500
 1089SOL    HW1 3833   1.462   0.923   9.513
 1089SOL    HW2 3834   1.573   1.017   9.586
 1090SOL     OW 3835   1.187   1.792  10.926
 1090SOL    HW1 3836   1.211   1.852  10.850
 1090SOL    HW2 3837   1.194   1.697  10.896
 1091SOL     OW 3838   0.317   0.251  11.111
 1091SOL    HW1 3839   0.388   0.322  11.117
 1091SOL    HW2 3840   0.229   0.290  11.139
 1092SOL     OW 3841   1.466   1.417  10.263
 1092SOL    HW1 3842   1.407   1.423  10.343
 1092SOL    HW2 3843   1.451   1.329  10.217
 1093SOL     OW 3844   1.667   1.714   9.882
 1093SOL    HW1 3845   1.626   1.691   9.794
 1093SOL    HW2 3846   1.649   1.640   9.947
 1094SOL     OW 3847   0.598   0.729   9.580
 1094SOL    HW1 3848   0.622   0.798   9.512
 1094SOL    HW2 3849   0.520   0.762   9.634
 1095SOL     OW 3850   1.281   0.345  10.254
 1095SOL    HW1 3851   1.195   0.295  10.241
 1095SOL    HW2 3852   1.343   0.291  10.310
 1096SOL     OW 3853   1.576   1.662   9.617
 1096SOL    HW1 3854   1.665   1.708   9.620
 1096SOL    HW2 3855   1.555   1.638   9.522
 1097SOL     OW 3856   0.807   0.605  10.775
 1097SOL    HW1 3857   0.760   0.602  10.864
 1097SOL    HW2 3858   0.756   0.550  10.709
 1098SOL     OW 3859   0.973   0.890  10.882
 1098SOL    HW1 3860   1.019   0.806  10.853
 1098SOL    HW2 3861   0.917   0.924  10.807
 1099SOL     OW 3862   0.991   0.410  10.552
 1099SOL    HW1 3863   0.914   0.444  10.606
 1099SOL    HW2 3864   0.957   0.359  10.473
 1100SOL     OW 3865   1.041   0.701   9.739
 1100SOL    HW1 3866   1.067   0.697   9.835
 1100SOL    HW2 3867   0.956   0.650   9.725
 1101SOL     OW 3868   0.076   0.811  10.099
 1101SOL    HW1 3869   0.175   0.799  10.108
 1101SOL    HW2 3870   0.052   0.906  10.120
 1102SOL     OW 3871   0.130   1.821  10.881
 1102SOL    HW1 3872   0.120   1.806  10.980
 1102SOL    HW2 3873   0.044   1.857  10.845
 1103SOL     OW 3874   0.865   0.348   9.505
 1103SOL    HW1 3875   0.924   0.411   9.456
 1103SOL    HW2 3876   0.884   0.254   9.476
 1104SOL     OW 3877   1.362   1.144   9.855
 1104SOL    HW1 3878   1.445   1.115   9.807
 1104SOL    HW2 3879   1.313   1.211   9.799
 1105SOL     OW 3880   0.550   0.196  10.195
 1105SOL    HW1 3881   0.545   0.191  10.295
 1105SOL    HW2 3882   0.552   0.292  10.166
 1106SOL     OW 3883   1.008   1.456   9.787
 1106SOL    HW1 3884   0.962   1.528   9.735
 1106SOL    HW2 3885   1.004   1.476   9.885
 1107SOL     OW 3886   0.351   1.801  10.163
 1107SOL    HW1 3887   0.401   1.715  10.169
 1107SOL    HW2 3888   0.416   1.878  10.160
 1108SOL     OW 3889   1.795   1.066  10.183
 1108SOL    HW1 3890   1.733   1.051  10.107
 1108SOL    HW2 3891   1.743   1.077  10.268
 1109SOL     OW 3892   1.227   1.550  10.816
 1109SOL    HW1 3893   1.233   1.473  10.880
 1109SOL    HW2 3894   1.175   1.524  10.736
 1110SOL     OW 3895   0.321   0.943   9.552
 1110SOL    HW1 3896   0.403   0.982   9.510
 1110SOL    HW2 3897   0.294   0.861   9.503
 1111SOL     OW 3898   1.458   0.735  10.038
 1111SOL    HW1 3899   1.453   0.670  10.113
 1111SOL    HW2 3900   1.538   0.794  10.051
 1112SOL     OW 3901   0.461   1.266  11.037
 1112SOL    HW1 3902   0.411   1.267  10.951
 1112SOL    HW2 3903   0.398   1.248  11.113
 1113SOL     OW 3904   1.111   1.776   9.547
 1113SOL    HW1 3905   1.051   1.714   9.597
 1113SOL    HW2 3906   1.142   1.732   9.462
 1114SOL     OW 3907   0.202   0.285  10.808
 1114SOL    HW1 3908   0.122   0.345  10.795
 1114SOL    HW2 3909   0.192   0.236  10.894
 1115SOL     OW 3910   1.632   1.377   9.391
 1115SOL    HW1 3911   1.600   1.471   9.381
 1115SOL    HW2 3912   1.556   1.314   9.379
 1116SOL     OW 3913   0.464   1.743   9.633
 1116SOL    HW1 3914   0.497   1.782   9.719
 1116SOL    HW2 3915   0.540   1.736   9.568
 1117SOL     OW 3916   1.400   0.107   9.736
 1117SOL    HW1 3917   1.376   0.070   9.646
 1117SOL    HW2 3918   1.499   0.123   9.740
 1118SOL     OW 3919   0.249   1.785  10.551
 1118SOL    HW1 3920   0.306   1.720  10.601
 1118SOL    HW2 3921   0.233   1.752  10.458
 1119SOL     OW 3922   0.940   1.698  10.214
 1119SOL    HW1 3923   1.020   1.641  10.235
 1119SOL    HW2 3924   0.891   1.658  10.137
 1120SOL     OW 3925   0.382   0.700   9.790
 1120SOL    HW1 3926   0.427   0.610   9.787
 1120SOL    HW2 3927   0.288   0.689   9.823
 1121SOL     OW 3928   0.614   0.122   9.427
 1121SOL    HW1 3929   0.712   0.100   9.434
 1121SOL    HW2 3930   0.583   0.105   9.334
 1122SOL     OW 3931   0.781   0.264  11.059
 1122SOL    HW1 3932   0.848   0.203  11.102
 1122SOL    HW2 3933   0.708   0.283  11.124
 1123SOL     OW 3934   0.888   1.514  10.505
 1123SOL    HW1 3935   0.865   1.489  10.411
 1123SOL    HW2 3936   0.949   1.445  10.544
 1124SOL     OW 3937   1.351   0.590  10.743
 1124SOL    HW1 3938   1.379   0.547  10.828
 1124SOL    HW2 3939   1.376   0.686  10.744
 1125SOL     OW 3940   0.803   1.402  10.234
 1125SOL    HW1 3941   0.893   1.416  10.192
 1125SOL    HW2 3942   0.732   1.404  10.163
 1126SOL     OW 3943   0.922   0.503  10.209
 1126SOL    HW1 3944   0.897   0.494  10.113
 1126SOL    HW2 3945   0.970   0.421  10.240
 1127SOL     OW 3946   0.539   0.064   9.822
 1127SOL    HW1 3947   0.458   0.065   9.880
 1127SOL    HW2 3948   0.542   0.147   9.767
 1128SOL     OW 3949   1.434   1.188   9.351
 1128SOL    HW1 3950   1.466   1.112   9.408
 1128SOL    HW2 3951   1.342   1.215   9.381
 1129SOL     OW 3952   0.297   0.035   9.481
 1129SOL    HW1 3953   0.346   0.119   9.460
 1129SOL    HW2 3954   0.359  -0.030   9.526
 1130SOL     OW 3955   0.935   0.236   9.790
 1130SOL    HW1 3956   0.887   0.277   9.712
 1130SOL    HW2 3957   1.034   0.234   9.771
 1131SOL     OW 3958   1.076   0.683  10.774
 1131SOL    HW1 3959   0.996   0.622  10.777
 1131SOL    HW2 3960   1.157   0.630  10.750
 1132SOL     OW 3961   1.227   1.570  10.103
 1132SOL    HW1 3962   1.248   1.644  10.038
 1132SOL    HW2 3963   1.295   1.570  10.176
 1133SOL     OW 3964   0.459   1.152  10.051
 1133SOL    HW1 3965   0.388   1.125  10.116
 1133SOL    HW2 3966   0.433   1.124   9.958
 1134SOL     OW 3967   1.271   1.797   9.901
 1134SOL    HW1 3968   1.315   1.861   9.837
 1134SOL    HW2 3969   1.221   1.849   9.971
 1135SOL     OW 3970   1.032   0.549   9.326
 1135SOL    HW1 3971   0.991   0.631   9.287
 1135SOL    HW2 3972   1.096   0.575   9.399
 1136SOL     OW 3973   0.078   0.556  10.696
 1136SOL    HW1 3974   0.170   0.555  10.655
 1136SOL    HW2 3975   0.072   0.630  10.763
 1137SOL     OW 3976   0.561   0.222  10.457
 1137SOL    HW1 3977   0.599   0.138  10.494
 1137SOL    HW2 3978   0.473   0.241  10.501
 1138SOL     OW 3979   0.866   0.454   9.952
 1138SOL    HW1 3980   0.834   0.526   9.890
 1138SOL    HW2 3981   0.890   0.373   9.899
 1139SOL     OW 3982   1.017   0.039  10.063
 1139SOL    HW1 3983   0.945   0.044   9.994
 1139SOL    HW2 3984   0.993  -0.030  10.132
 1140SOL     OW 3985   1.429   1.173  10.177
 1140SOL    HW1 3986   1.374   1.089  10.170
 1140SOL    HW2 3987   1.455   1.202  10.085
 1141SOL     OW 3988   1.466   0.590  10.302
 1141SOL    HW1 3989   1.436   0.495  10.309
 1141SOL    HW2 3990   1.539   0.606  10.368
 1142SOL     OW 3991   1.857   0.833   9.687
 1142SOL    HW1 3992   1.899   0.769   9.751
 1142SOL    HW2 3993   1.819   0.782   9.609
 1143SOL     OW 3994   0.488   1.385   9.484
 1143SOL    HW1 3995   0.401   1.370   9.531
 1143SOL    HW2 3996   0.471   1.411   9.389
 1144SOL     OW 3997   1.664   1.280   9.967
 1144SOL    HW1 3998   1.763   1.288   9.981
 1144SOL    HW2 3999   1.619   1.364   9.998
 1145SOL     OW 4000   1.390   0.575   9.388
 1145SOL    HW1 4001   1.336   0.554   9.469
 1145SOL    HW2 4002   1.481   0.534   9.397
 1146SOL     OW 4003   0.527   0.256   9.638
 1146SOL    HW1 4004   0.554   0.197   9.563
 1146SOL    HW2 4005   0.527   0.351   9.607
 1147SOL     OW 4006   1.754   1.223  10.898
 1147SOL    HW1 4007   1.845   1.184  10.885
 1147SOL    HW2 4008   1.762   1.319  10.922
 1148SOL     OW 4009   1.064   1.347  10.650
 1148SOL    HW1 4010   0.984   1.324  10.705
 1148SOL    HW2 4011   1.147   1.321  10.699
 1149SOL     OW 4012   1.111   1.195  10.410
 1149SOL    HW1 4013   1.071   1.239  10.491
 1149SOL    HW2 4014   1.070   1.232  10.327
 1150SOL     OW 4015   1.638   1.099  10.389
 1150SOL    HW1 4016   1.643   1.180  10.448
 1150SOL    HW2 4017   1.552   1.101  10.338
 1151SOL     OW 4018   0.915   0.089  10.712
 1151SOL    HW1 4019   0.940   0.069  10.617
 1151SOL    HW2 4020   0.987   0.145  10.754
 1152SOL     OW 4021   0.705   1.050   9.678
 1152SOL    HW1 4022   0.691   1.057   9.777
 1152SOL    HW2 4023   0.789   0.999   9.660
 1153SOL     OW 4024   0.410   0.813  10.561
 1153SOL    HW1 4025   0.496   0.825  10.611
 1153SOL    HW2 4026   0.368   0.726  10.588
 1154SOL     OW 4027   1.274   0.386  10.572
 1154SOL    HW1 4028   1.295   0.460  10.636
 1154SOL    HW2 4029   1.185   0.403  10.529
 1155SOL     OW 4030   0.064   1.564  10.641
 1155SOL    HW1 4031   0.018   1.646  10.607
 1155SOL    HW2 4032   0.162   1.583  10.650
 1156SOL     OW 4033   0.367   1.100   9.811
 1156SOL    HW1 4034   0.360   1.183   9.755
 1156SOL    HW2 4035   0.371   1.020   9.751
 1157SOL     OW 4036   0.566   0.537  10.175
 1157SOL    HW1 4037   0.578   0.603  10.101
 1157SOL    HW2 4038   0.612   0.571  10.258
 1158SOL     OW 4039   1.252   1.348   9.698
 1158SOL    HW1 4040   1.302   1.425   9.738
 1158SOL    HW2 4041   1.157   1.350   9.730
 1159SOL     OW 4042   1.272   1.445  10.452
 1159SOL    HW1 4043   1.319   1.458  10.539
 1159SOL    HW2 4044   1.206   1.371  10.461
 1160SOL     OW 4045   1.582   0.639   9.782
 1160SOL    HW1 4046   1.551   0.700   9.855
 1160SOL    HW2 4047   1.632   0.691   9.713
 1161SOL     OW 4048   0.354   1.510  10.639
 1161SOL    HW1 4049   0.333   1.466  10.552
 1161SOL    HW2 4050   0.451   1.536  10.642
 1162SOL     OW 4051   0.402   0.751  10.908
 1162SOL    HW1 4052   0.470   0.806  10.861
 1162SOL    HW2 4053   0.442   0.663  10.935
 1163SOL     OW 4054   1.587   0.779  10.980
 1163SOL    HW1 4055   1.495   0.817  10.975
 1163SOL    HW2 4056   1.647   0.826  10.915
 1164SOL     OW 4057   0.573   0.870  10.339
 1164SOL    HW1 4058   0.617   0.959  10.330
 1164SOL    HW2 4059   0.510   0.870  10.416
 1165SOL     OW 4060   1.360   0.862  10.355
 1165SOL    HW1 4061   1.285   0.862  10.289
 1165SOL    HW2 4062   1.397   0.770  10.364
 1166SOL     OW 4063   1.209   0.525   9.585
 1166SOL    HW1 4064   1.222   0.441   9.639
 1166SOL    HW2 4065   1.180   0.599   9.645
 1167SOL     OW 4066   0.307   0.213  10.541
 1167SOL    HW1 4067   0.284   0.250  10.631
 1167SOL    HW2 4068   0.277   0.118  10.535
 1168SOL     OW 4069   0.037   1.310  10.592
 1168SOL    HW1 4070   0.090   1.261  10.660
 1168SOL    HW2 4071   0.059   1.408  10.597
 1169SOL     OW 4072   0.732   0.634  10.374
 1169SOL    HW1 4073   0.791   0.608  10.298
 1169SOL    HW2 4074   0.704   0.730  10.363
 1170SOL     OW 4075   0.307   0.063   9.928
 1170SOL    HW1 4076   0.296   0.157   9.961
 1170SOL    HW2 4077   0.302   0.000  10.005
 1171SOL     OW 4078   1.622   0.367   9.684
 1171SOL    HW1 4079   1.624   0.291   9.748
 1171SOL    HW2 4080   1.574   0.444   9.724
 1172SOL     OW 4081   1.023   0.766  10.276
 1172SOL    HW1 4082   1.038   0.787  10.372
 1172SOL    HW2 4083   0.993   0.671  10.267
 1173SOL     OW 4084   0.980   1.573  11.010
 1173SOL    HW1 4085   0.960   1.617  10.922
 1173SOL    HW2 4086   1.019   1.482  10.994
 1174SOL     OW 4087   1.859   1.518  10.915
 1174SOL    HW1 4088   1.873   1.545  10.820
 1174SOL    HW2 4089   1.942   1.540  10.968
 1175SOL     OW 4090   0.350   0.898  11.114
 1175SOL    HW1 4091   0.426   0.942  11.162
 1175SOL    HW2 4092   0.385   0.851  11.032
 1176SOL     OW 4093   1.540   0.274   9.435
 1176SOL    HW1 4094   1.479   0.199   9.458
 1176SOL    HW2 4095   1.562   0.326   9.518
 1177SOL     OW 4096   1.303   0.838   9.352
 1177SOL    HW1 4097   1.337   0.745   9.367
 1177SOL    HW2 4098   1.321   0.865   9.257
 1178SOL     OW 4099   1.068   1.333  10.159
 1178SOL    HW1 4100   1.075   1.249  10.104
 1178SOL    HW2 4101   1.130   1.402  10.123
 1179SOL     OW 4102   0.319   0.810  10.259
 1179SOL    HW1 4103   0.412   0.846  10.264
 1179SOL    HW2 4104   0.313   0.725  10.311
 1180SOL     OW 4105   0.339   0.509  10.316
 1180SOL    HW1 4106   0.287   0.426  10.299
 1180SOL    HW2 4107   0.416   0.514  10.252
 1181SOL     OW 4108   1.160   0.207  10.787
 1181SOL    HW1 4109   1.160   0.271  10.864
 1181SOL    HW2 4110   1.188   0.255  10.704
 1182SOL     OW 4111   0.008   1.326   9.510
 1182SOL    HW1 4112  -0.085   1.347   9.479
 1182SOL    HW2 4113   0.018   1.227   9.523
 1183SOL     OW 4114   0.088   1.801  10.237
 1183SOL    HW1 4115   0.046   1.715  10.210
 1183SOL    HW2 4116   0.182   1.804  10.203
 1184SOL     OW 4117   0.504   1.568  10.220
 1184SOL    HW1 4118   0.570   1.642  10.229
 1184SOL    HW2 4119   0.548   1.489  10.178
 1185SOL     OW 4120   1.002   0.796  10.548
 1185SOL    HW1 4121   1.043   0.764  10.634
 1185SOL    HW2 4122   0.906   0.769  10.545
 1186SOL     OW 4123   0.040   0.544  10.424
 1186SOL    HW1 4124   0.125   0.511  10.383
 1186SOL    HW2 4125   0.053   0.559  10.522
 1187SOL     OW 4126   0.815   0.572   9.635
 1187SOL    HW1 4127   0.822   0.483   9.589
 1187SOL    HW2 4128   0.721   0.606   9.627
 1188SOL     OW 4129   1.657   0.604  10.516
 1188SOL    HW1 4130   1.619   0.535  10.578
 1188SOL    HW2 4131   1.739   0.568  10.472
 1189SOL     OW 4132   0.252   1.564  11.054
 1189SOL    HW1 4133   0.222   1.621  11.130
 1189SOL    HW2 4134   0.245   1.467  11.080
 1190SOL     OW 4135   0.671   0.464  10.579
 1190SOL    HW1 4136   0.637   0.375  10.549
 1190SOL    HW2 4137   0.697   0.518  10.499
 1191SOL     OW 4138   0.930   1.678  10.775
 1191SOL    HW1 4139   0.906   1.660  10.680
 1191SOL    HW2 4140   0.960   1.772  10.785
 1192SOL     OW 4141   0.473   0.500   9.501
 1192SOL    HW1 4142   0.534   0.580   9.505
 1192SOL    HW2 4143   0.378   0.531   9.508
 1193SOL     OW 4144   0.159   1.137  10.776
 1193SOL    HW1 4145   0.181   1.076  10.852
 1193SOL    HW2 4146   0.169   1.088  10.690
 1194SOL     OW 4147   1.347   1.059  10.544
 1194SOL    HW1 4148   1.371   0.996  10.470
 1194SOL    HW2 4149   1.257   1.099  10.526
 1195SOL     OW 4150   1.302   0.855   9.619
 1195SOL    HW1 4151   1.216   0.824   9.661
 1195SOL    HW2 4152   1.298   0.841   9.520
 1196SOL     OW 4153   1.759   1.747  10.464
 1196SOL    HW1 4154   1.820   1.777  10.391
 1196SOL    HW2 4155   1.721   1.658  10.442
 1197SOL     OW 4156   1.252   1.731  10.438
 1197SOL    HW1 4157   1.336   1.736  10.384
 1197SOL    HW2 4158   1.229   1.635  10.456
 1198SOL     OW 4159   0.083   1.258  10.332
 1198SOL    HW1 4160   0.078   1.257  10.432
 1198SOL    HW2 4161   0.000   1.217  10.294
 1199SOL     OW 4162   1.726   0.135   9.833
 1199SOL    HW1 4163   1.799   0.118   9.766
 1199SOL    HW2 4164   1.695   0.048   9.871
 1200SOL     OW 4165   1.388   1.573   9.787
 1200SOL    HW1 4166   1.455   1.585   9.713
 1200SOL    HW2 4167   1.348   1.662   9.810
 1201SOL     OW 4168   1.280   0.927   9.982
 1201SOL    HW1 4169   1.340   0.846   9.984
 1201SOL    HW2 4170   1.320   0.996   9.922
 1202SOL     OW 4171   0.830   1.273  10.732
 1202SOL    HW1 4172   0.825   1.306  10.827
 1202SOL    HW2 4173   0.744   1.292  10.686
 1203SOL     OW 4174   0.672   1.616   9.464
 1203SOL    HW1 4175   0.681   1.626   9.365
 1203SOL    HW2 4176   0.632   1.527   9.485
 1204SOL     OW 4177   1.650   1.720  10.704
 1204SOL    HW1 4178   1.703   1.730  10.620
 1204SOL    HW2 4179   1.623   1.810  10.738
 1205SOL     OW 4180   1.841   0.175  10.273
 1205SOL    HW1 4181   1.880   0.090  10.237
 1205SOL    HW2 4182   1.743   0.177  10.254
 1206SOL     OW 4183   0.263   0.326  10.030
 1206SOL    HW1 4184   0.184   0.377   9.996
 1206SOL    HW2 4185   0.254   0.311  10.128
 1207SOL     OW 4186   1.194   1.612   9.341
 1207SOL    HW1 4187   1.200   1.519   9.378
 1207SOL    HW2 4188   1.135   1.612   9.261
 1208SOL     OW 4189   0.822   1.002  10.682
 1208SOL    HW1 4190   0.862   1.001  10.590
 1208SOL    HW2 4191   0.832   1.094  10.722
 1209SOL     OW 4192   0.916   0.910   9.601
 1209SOL    HW1 4193   0.979   0.948   9.533
 1209SOL    HW2 4194   0.956   0.827   9.640
 1210SOL     OW 4195   1.504   1.607   9.354
 1210SOL    HW1 4196   1.412   1.644   9.361
 1210SOL    HW2 4197   1.542   1.627   9.264
 1211SOL     OW 4198   0.372   1.288  10.800
 1211SOL    HW1 4199   0.359   1.381  10.766
 1211SOL    HW2 4200   0.288   1.236  10.787
 1212SOL     OW 4201   1.614   1.292  10.599
 1212SOL    HW1 4202   1.674   1.295  10.679
 1212SOL    HW2 4203   1.539   1.356  10.612
 1213SOL     OW 4204   1.039   1.098  10.006
 1213SOL    HW1 4205   0.969   1.051  10.060
 1213SOL    HW2 4206   1.098   1.030   9.963
 1214SOL     OW 4207   1.014   0.236  10.281
 1214SOL    HW1 4208   1.006   0.200  10.188
 1214SOL    HW2 4209   1.012   0.160  10.346
 1215SOL     OW 4210   0.590   1.487   9.801
 1215SOL    HW1 4211   0.632   1.429   9.731
 1215SOL    HW2 4212   0.546   1.566   9.757
 1216SOL     OW 4213   1.709   0.385  10.691
 1216SOL    HW1 4214   1.782   0.454  10.695
 1216SOL    HW2 4215   1.737   0.310  10.632
 1217SOL     OW 4216   0.255   1.348   9.600
 1217SOL    HW1 4217   0.159   1.349   9.573
 1217SOL    HW2 4218   0.267   1.401   9.684
 1218SOL     OW 4219   0.105   1.013  11.036
 1218SOL    HW1 4220   0.028   0.980  11.090
 1218SOL    HW2 4221   0.190   0.983  11.078
 1219SOL     OW 4222   0.672   0.203  10.799
 1219SOL    HW1 4223   0.762   0.187  10.759
 1219SOL    HW2 4224   0.680   0.208  10.898
 1220SOL     OW 4225   0.075   0.345   9.343
 1220SOL    HW1 4226  -0.017   0.317   9.314
 1220SOL    HW2 4227   0.106   0.422   9.287
 1221SOL     OW 4228   1.440   0.856  10.708
 1221SOL    HW1 4229   1.383   0.908  10.645
 1221SOL    HW2 4230   1.536   0.868  10.684
 1222SOL     OW 4231   0.072   0.166   9.628
 1222SOL    HW1 4232   0.055   0.249   9.574
 1222SOL    HW2 4233   0.162   0.129   9.606
 1223SOL     OW 4234   1.183   1.335   9.429
 1223SOL    HW1 4235   1.084   1.324   9.431
 1223SOL    HW2 4236   1.217   1.350   9.522
 1224SOL     OW 4237   0.613   0.842  10.741
 1224SOL    HW1 4238   0.669   0.923  10.724
 1224SOL    HW2 4239   0.672   0.762  10.744
 1225SOL     OW 4240   1.493   1.767  10.269
 1225SOL    HW1 4241   1.526   1.831  10.200
 1225SOL    HW2 4242   1.559   1.761  10.344
 1226SOL     OW 4243   0.716   0.565  11.018
 1226SOL    HW1 4244   0.735   0.630  11.092
 1226SOL    HW2 4245   0.776   0.485  11.027
 1227SOL     OW 4246   0.390   1.741  10.870
 1227SOL    HW1 4247   0.299   1.782  10.868
 1227SOL    HW2 4248   0.383   1.647  10.902
 1228SOL     OW 4249   1.674   0.883  10.564
 1228SOL    HW1 4250   1.647   0.794  10.527
 1228SOL    HW2 4251   1.675   0.951  10.491
 1229SOL     OW 4252   1.225   0.325   9.759
 1229SOL    HW1 4253   1.290   0.251   9.748
 1229SOL    HW2 4254   1.245   0.375   9.843
 1230SOL     OW 4255   0.594   0.745   9.962
 1230SOL    HW1 4256   0.644   0.830   9.943
 1230SOL    HW2 4257   0.506   0.747   9.914
 1231SOL     OW 4258   1.777   0.342  10.952
 1231SOL    HW1 4259   1.760   0.373  10.858
 1231SOL    HW2 4260   1.693   0.305  10.990
 1232SOL     OW 4261   1.730   0.934  10.827
 1232SOL    HW1 4262   1.768   1.025  10.842
 1232SOL    HW2 4263   1.722   0.917  10.728
 1233SOL     OW 4264   0.859   1.374   9.326
 1233SOL    HW1 4265   0.813   1.389   9.414
 1233SOL    HW2 4266   0.903   1.459   9.296
 1234SOL     OW 4267   0.661   1.790  10.263
 1234SOL    HW1 4268   0.615   1.878  10.250
 1234SOL    HW2 4269   0.760   1.802  10.256
 1235SOL     OW 4270   0.859   0.956  10.171
 1235SOL    HW1 4271   0.913   0.887  10.219
 1235SOL    HW2 4272   0.827   1.025  10.237
 1236SOL     OW 4273   1.083   0.984   9.397
 1236SOL    HW1 4274   1.060   1.037   9.315
 1236SOL    HW2 4275   1.164   0.928   9.378
 1237SOL     OW 4276   1.861   1.569  10.161
 1237SOL    HW1 4277   1.790   1.557  10.091
 1237SOL    HW2 4278   1.862   1.490  10.221
 1238SOL     OW 4279   0.079   1.240   9.963
 1238SOL    HW1 4280   0.078   1.193  10.051
 1238SOL    HW2 4281   0.161   1.212   9.912
 1239SOL     OW 4282   0.672   1.391  10.934
 1239SOL    HW1 4283   0.594   1.341  10.972
 1239SOL    HW2 4284   0.669   1.486  10.965
 1240SOL     OW 4285   1.824   0.192  10.537
 1240SOL    HW1 4286   1.820   0.102  10.581
 1240SOL    HW2 4287   1.827   0.181  10.438
 1241SOL     OW 4288   0.428   0.424   9.830
 1241SOL    HW1 4289   0.458   0.352   9.768
 1241SOL    HW2 4290   0.389   0.384   9.913
 1242SOL     OW 4291   1.705   1.487  10.414
 1242SOL    HW1 4292   1.612   1.462  10.387
 1242SOL    HW2 4293   1.731   1.437  10.496
 1243SOL     OW 4294   0.317   0.547  10.590
 1243SOL    HW1 4295   0.355   0.488  10.662
 1243SOL    HW2 4296   0.357   0.521  10.502
 1244SOL     OW 4297   0.812   1.586   9.997
 1244SOL    HW1 4298   0.844   1.596   9.903
 1244SOL    HW2 4299   0.733   1.524   9.999
 1245SOL     OW 4300   1.424   0.214  10.422
 1245SOL    HW1 4301   1.476   0.149  10.477
 1245SOL    HW2 4302   1.375   0.277  10.483
 1246SOL     OW 4303   1.001   0.034  10.464
 1246SOL    HW1 4304   0.938  -0.038  10.433
 1246SOL    HW2 4305   1.094  -0.002  10.464
 1247SOL     OW 4306   0.770   1.330   9.611
 1247SOL    HW1 4307   0.724   1.243   9.628
 1247SOL    HW2 4308   0.861   1.327   9.652
 1248SOL     OW 4309   0.618   1.567  10.594
 1248SOL    HW1 4310   0.613   1.649  10.651
 1248SOL    HW2 4311   0.707   1.564  10.549
 1249SOL     OW 4312   1.352   0.052   9.478
 1249SOL    HW1 4313   1.387   0.011   9.394
 1249SOL    HW2 4314   1.262   0.014   9.498
 1250SOL     OW 4315   1.300   0.453  10.001
 1250SOL    HW1 4316   1.241   0.533  10.005
 1250SOL    HW2 4317   1.315   0.418  10.094
 1251SOL     OW 4318   1.593   0.221  10.192
 1251SOL    HW1 4319   1.509   0.220  10.246
 1251SOL    HW2 4320   1.595   0.304  10.136
 1252SOL     OW 4321   0.039   1.077   9.610
 1252SOL    HW1 4322   0.138   1.066   9.601
 1252SOL    HW2 4323  -0.001   0.991   9.642
 1253SOL     OW 4324   0.875   1.646   9.647
 1253SOL    HW1 4325   0.798   1.611   9.593
 1253SOL    HW2 4326   0.843   1.717   9.709
 1254SOL     OW 4327   0.230   2.490   0.113
 1254SOL    HW1 4328   0.137   2.488   0.150
 1254SOL    HW2 4329   0.231   2.451   0.021
 1255SOL     OW 4330   0.225   2.137   0.996
 1255SOL    HW1 4331   0.260   2.120   1.088
 1255SOL    HW2 4332   0.137   2.092   0.984
 1256SOL     OW 4333   0.019   2.230   0.647
 1256SOL    HW1 4334  -0.063   2.273   0.686
 1256SOL    HW2 4335  -0.009   2.157   0.584
 1257SOL     OW 4336   0.569   3.137   1.165
 1257SOL    HW1 4337   0.476   3.130   1.128
 1257SOL    HW2 4338   0.580   3.226   1.209
 1258SOL     OW 4339   1.555   3.373   0.703
 1258SOL    HW1 4340   1.498   3.357   0.784
 1258SOL    HW2 4341   1.496   3.383   0.623
 1259SOL     OW 4342   1.135   2.565   0.717
 1259SOL    HW1 4343   1.192   2.643   0.692
 1259SOL    HW2 4344   1.075   2.591   0.793
 1260SOL     OW 4345   1.755   2.469   0.231
 1260SOL    HW1 4346   1.743   2.456   0.132
 1260SOL    HW2 4347   1.725   2.388   0.280
 1261SOL     OW 4348   0.768   3.006   1.023
 1261SOL    HW1 4349   0.690   3.023   1.083
 1261SOL    HW2 4350   0.802   3.093   0.987
 1262SOL     OW 4351   0.850   2.660   1.823
 1262SOL    HW1 4352   0.846   2.736   1.888
 1262SOL    HW2 4353   0.872   2.696   1.732
 1263SOL     OW 4354   0.685   2.874   0.665
 1263SOL    HW1 4355   0.754   2.858   0.735
 1263SOL    HW2 4356   0.612   2.931   0.703
 1264SOL     OW 4357   0.686   3.023   1.803
 1264SOL    HW1 4358   0.746   3.102   1.817
 1264SOL    HW2 4359   0.600   3.054   1.762
 1265SOL     OW 4360   0.335   3.297   1.061
 1265SOL    HW1 4361   0.257   3.266   1.008
 1265SOL    HW2 4362   0.393   3.355   1.004
 1266SOL     OW 4363   1.460   3.367   1.339
 1266SOL    HW1 4364   1.484   3.461   1.365
 1266SOL    HW2 4365   1.444   3.313   1.421
 1267SOL     OW 4366   0.438   2.254   1.499
 1267SOL    HW1 4367   0.520   2.198   1.508
 1267SOL    HW2 4368   0.357   2.196   1.503
 1268SOL     OW 4369   1.603   2.309   0.737
 1268SOL    HW1 4370   1.529   2.355   0.687
 1268SOL    HW2 4371   1.654   2.377   0.790
 1269SOL     OW 4372   0.231   3.575   0.483
 1269SOL    HW1 4373   0.265   3.652   0.537
 1269SOL    HW2 4374   0.275   3.575   0.393
 1270SOL     OW 4375   1.127   3.203   1.690
 1270SOL    HW1 4376   1.174   3.203   1.778
 1270SOL    HW2 4377   1.079   3.116   1.679
 1271SOL     OW 4378   0.230   3.296   0.538
 1271SOL    HW1 4379   0.204   3.392   0.538
 1271SOL    HW2 4380   0.159   3.242   0.583
 1272SOL     OW 4381   0.240   2.953   0.886
 1272SOL    HW1 4382   0.254   2.869   0.938
 1272SOL    HW2 4383   0.185   3.017   0.941
 1273SOL     OW 4384   0.620   3.648   1.439
 1273SOL    HW1 4385   0.528   3.631   1.474
 1273SOL    HW2 4386   0.648   3.740   1.465
 1274SOL     OW 4387   0.606   2.826   0.123
 1274SOL    HW1 4388   0.613   2.910   0.069
 1274SOL    HW2 4389   0.652   2.839   0.211
 1275SOL     OW 4390   1.594   1.976   1.480
 1275SOL    HW1 4391   1.576   2.043   1.408
 1275SOL    HW2 4392   1.591   2.022   1.569
 1276SOL     OW 4393   0.122   2.505   0.563
 1276SOL    HW1 4394   0.077   2.417   0.580
 1276SOL    HW2 4395   0.121   2.559   0.647
 1277SOL     OW 4396   1.842   3.629   0.359
 1277SOL    HW1 4397   1.896   3.600   0.439
 1277SOL    HW2 4398   1.872   3.719   0.330
 1278SOL     OW 4399   0.027   3.458   0.117
 1278SOL    HW1 4400   0.008   3.362   0.138
 1278SOL    HW2 4401  -0.006   3.516   0.192
 1279SOL     OW 4402   1.689   2.784   0.612
 1279SOL    HW1 4403   1.784   2.755   0.620
 1279SOL    HW2 4404   1.681   2.849   0.537
 1280SOL     OW 4405   1.641   2.970   0.432
 1280SOL    HW1 4406   1.727   2.972   0.380
 1280SOL    HW2 4407   1.655   3.017   0.520
 1281SOL     OW 4408   0.113   2.599   1.597
 1281SOL    HW1 4409   0.201   2.586   1.642
 1281SOL    HW2 4410   0.100   2.696   1.575
 1282SOL     OW 4411   0.613   3.227   0.726
 1282SOL    HW1 4412   0.564   3.140   0.735
 1282SOL    HW2 4413   0.590   3.270   0.639
 1283SOL     OW 4414   1.293   3.090   1.423
 1283SOL    HW1 4415   1.330   3.017   1.365
 1283SOL    HW2 4416   1.345   3.095   1.508
 1284SOL     OW 4417   0.809   1.866   0.502
 1284SOL    HW1 4418   0.849   1.957   0.493
 1284SOL    HW2 4419   0.709   1.874   0.508
 1285SOL     OW 4420   0.197   2.838   1.264
 1285SOL    HW1 4421   0.286   2.793   1.250
 1285SOL    HW2 4422   0.124   2.773   1.245
 1286SOL     OW 4423   1.525   2.861   0.190
 1286SOL    HW1 4424   1.462   2.785   0.203
 1286SOL    HW2 4425   1.573   2.879   0.276
 1287SOL     OW 4426   1.187   3.654   1.616
 1287SOL    HW1 4427   1.211   3.714   1.540
 1287SOL    HW2 4428   1.194   3.559   1.586
 1288SOL     OW 4429   0.317   2.113   1.801
 1288SOL    HW1 4430   0.388   2.184   1.807
 1288SOL    HW2 4431   0.229   2.152   1.829
 1289SOL     OW 4432   1.466   3.279   0.953
 1289SOL    HW1 4433   1.407   3.285   1.033
 1289SOL    HW2 4434   1.451   3.191   0.907
 1290SOL     OW 4435   1.667   3.576   0.572
 1290SOL    HW1 4436   1.626   3.553   0.484
 1290SOL    HW2 4437   1.649   3.502   0.637
 1291SOL     OW 4438   0.598   2.591   0.270
 1291SOL    HW1 4439   0.622   2.660   0.202
 1291SOL    HW2 4440   0.520   2.624   0.324
 1292SOL     OW 4441   1.281   2.207   0.944
 1292SOL    HW1 4442   1.195   2.157   0.931
 1292SOL    HW2 4443   1.343   2.153   1.000
 1293SOL     OW 4444   1.576   3.524   0.307
 1293SOL    HW1 4445   1.665   3.570   0.310
 1293SOL    HW2 4446   1.555   3.500   0.212
 1294SOL     OW 4447   0.807   2.467   1.465
 1294SOL    HW1 4448   0.760   2.464   1.554
 1294SOL    HW2 4449   0.756   2.412   1.399
 1295SOL     OW 4450   1.394   2.331   1.674
 1295SOL    HW1 4451   1.374   2.374   1.762
 1295SOL    HW2 4452   1.472   2.269   1.683
 1296SOL     OW 4453   0.973   2.752   1.572
 1296SOL    HW1 4454   1.019   2.668   1.543
 1296SOL    HW2 4455   0.917   2.786   1.497
 1297SOL     OW 4456   0.991   2.272   1.242
 1297SOL    HW1 4457   0.914   2.306   1.296
 1297SOL    HW2 4458   0.957   2.221   1.163
 1298SOL     OW 4459   1.041   2.563   0.429
 1298SOL    HW1 4460   1.067   2.559   0.525
 1298SOL    HW2 4461   0.956   2.512   0.415
 1299SOL     OW 4462   0.076   2.673   0.789
 1299SOL    HW1 4463   0.175   2.661   0.798
 1299SOL    HW2 4464   0.052   2.768   0.810
 1300SOL     OW 4465   0.130   3.683   1.571
 1300SOL    HW1 4466   0.120   3.668   1.670
 1300SOL    HW2 4467   0.044   3.719   1.535
 1301SOL     OW 4468   0.865   2.210   0.195
 1301SOL    HW1 4469   0.924   2.273   0.146
 1301SOL    HW2 4470   0.884   2.116   0.166
 1302SOL     OW 4471   1.719   2.447   1.831
 1302SOL    HW1 4472   1.693   2.536   1.795
 1302SOL    HW2 4473   1.717   2.379   1.758
 1303SOL     OW 4474   1.362   3.006   0.545
 1303SOL    HW1 4475   1.445   2.977   0.497
 1303SOL    HW2 4476   1.313   3.073   0.489
 1304SOL     OW 4477   0.550   2.058   0.885
 1304SOL    HW1 4478   0.545   2.053   0.985
 1304SOL    HW2 4479   0.552   2.154   0.856
 1305SOL     OW 4480   1.008   3.318   0.477
 1305SOL    HW1 4481   0.962   3.390   0.425
 1305SOL    HW2 4482   1.004   3.338   0.575
 1306SOL     OW 4483   0.351   3.663   0.853
 1306SOL    HW1 4484   0.401   3.577   0.859
 1306SOL    HW2 4485   0.416   3.740   0.850
 1307SOL     OW 4486   1.795   2.928   0.873
 1307SOL    HW1 4487   1.733   2.913   0.797
 1307SOL    HW2 4488   1.743   2.939   0.958
 1308SOL     OW 4489   1.227   3.412   1.506
 1308SOL    HW1 4490   1.233   3.335   1.570
 1308SOL    HW2 4491   1.175   3.386   1.426
 1309SOL     OW 4492   0.321   2.805   0.242
 1309SOL    HW1 4493   0.403   2.844   0.200
 1309SOL    HW2 4494   0.294   2.723   0.193
 1310SOL     OW 4495   1.458   2.597   0.728
 1310SOL    HW1 4496   1.453   2.532   0.803
 1310SOL    HW2 4497   1.538   2.656   0.741
 1311SOL     OW 4498   0.461   3.128   1.727
 1311SOL    HW1 4499   0.411   3.129   1.641
 1311SOL    HW2 4500   0.398   3.110   1.803
 1312SOL     OW 4501   1.111   3.638   0.237
 1312SOL    HW1 4502   1.051   3.576   0.287
 1312SOL    HW2 4503   1.142   3.594   0.152
 1313SOL     OW 4504   0.202   2.147   1.498
 1313SOL    HW1 4505   0.122   2.207   1.485
 1313SOL    HW2 4506   0.192   2.098   1.584
 1314SOL     OW 4507   1.632   3.239   0.081
 1314SOL    HW1 4508   1.600   3.333   0.071
 1314SOL    HW2 4509   1.556   3.176   0.069
 1315SOL     OW 4510   0.464   3.605   0.323
 1315SOL    HW1 4511   0.497   3.644   0.409
 1315SOL    HW2 4512   0.540   3.598   0.258
 1316SOL     OW 4513   1.400   1.969   0.426
 1316SOL    HW1 4514   1.376   1.932   0.336
 1316SOL    HW2 4515   1.499   1.985   0.430
 1317SOL     OW 4516   0.249   3.647   1.241
 1317SOL    HW1 4517   0.306   3.582   1.291
 1317SOL    HW2 4518   0.233   3.614   1.148
 1318SOL     OW 4519   0.940   3.560   0.904
 1318SOL    HW1 4520   1.020   3.503   0.925
 1318SOL    HW2 4521   0.891   3.520   0.827
 1319SOL     OW 4522   0.382   2.562   0.480
 1319SOL    HW1 4523   0.427   2.472   0.477
 1319SOL    HW2 4524   0.288   2.551   0.513
 1320SOL     OW 4525   1.547   2.084   1.729
 1320SOL    HW1 4526   1.542   2.121   1.821
 1320SOL    HW2 4527   1.475   2.015   1.717
 1321SOL     OW 4528   0.614   1.984   0.117
 1321SOL    HW1 4529   0.712   1.962   0.124
 1321SOL    HW2 4530   0.583   1.967   0.024
 1322SOL     OW 4531   0.781   2.126   1.749
 1322SOL    HW1 4532   0.848   2.065   1.792
 1322SOL    HW2 4533   0.708   2.145   1.814
 1323SOL     OW 4534   0.888   3.376   1.195
 1323SOL    HW1 4535   0.865   3.351   1.101
 1323SOL    HW2 4536   0.949   3.307   1.234
 1324SOL     OW 4537   1.351   2.452   1.433
 1324SOL    HW1 4538   1.379   2.409   1.518
 1324SOL    HW2 4539   1.376   2.548   1.434
 1325SOL     OW 4540   0.803   3.264   0.924
 1325SOL    HW1 4541   0.893   3.278   0.882
 1325SOL    HW2 4542   0.732   3.266   0.853
 1326SOL     OW 4543   0.922   2.365   0.899
 1326SOL    HW1 4544   0.897   2.356   0.803
 1326SOL    HW2 4545   0.970   2.283   0.930
 1327SOL     OW 4546   0.539   1.926   0.512
 1327SOL    HW1 4547   0.458   1.927   0.570
 1327SOL    HW2 4548   0.542   2.009   0.457
 1328SOL     OW 4549   1.434   3.050   0.041
 1328SOL    HW1 4550   1.466   2.974   0.098
 1328SOL    HW2 4551   1.342   3.077   0.071
 1329SOL     OW 4552   0.297   1.897   0.171
 1329SOL    HW1 4553   0.346   1.981   0.150
 1329SOL    HW2 4554   0.359   1.832   0.216
 1330SOL     OW 4555   0.935   2.098   0.480
 1330SOL    HW1 4556   0.887   2.139   0.402
 1330SOL    HW2 4557   1.034   2.096   0.461
 1331SOL     OW 4558   1.076   2.545   1.464
 1331SOL    HW1 4559   0.996   2.484   1.467
 1331SOL    HW2 4560   1.157   2.492   1.440
 1332SOL     OW 4561   1.227   3.432   0.793
 1332SOL    HW1 4562   1.248   3.506   0.728
 1332SOL    HW2 4563   1.295   3.432   0.866
 1333SOL     OW 4564   0.459   3.014   0.741
 1333SOL    HW1 4565   0.388   2.987   0.806
 1333SOL    HW2 4566   0.433   2.986   0.648
 1334SOL     OW 4567   1.271   3.659   0.591
 1334SOL    HW1 4568   1.315   3.723   0.527
 1334SOL    HW2 4569   1.221   3.711   0.661
 1335SOL     OW 4570   1.032   2.411   0.016
 1335SOL    HW1 4571   0.991   2.493  -0.023
 1335SOL    HW2 4572   1.096   2.437   0.089
 1336SOL     OW 4573   0.078   2.418   1.386
 1336SOL    HW1 4574   0.170   2.417   1.345
 1336SOL    HW2 4575   0.072   2.492   1.453
 1337SOL     OW 4576   0.561   2.084   1.147
 1337SOL    HW1 4577   0.599   2.000   1.184
 1337SOL    HW2 4578   0.473   2.103   1.191
 1338SOL     OW 4579   0.866   2.316   0.642
 1338SOL    HW1 4580   0.834   2.388   0.580
 1338SOL    HW2 4581   0.890   2.235   0.589
 1339SOL     OW 4582   1.017   1.901   0.753
 1339SOL    HW1 4583   0.945   1.906   0.684
 1339SOL    HW2 4584   0.993   1.832   0.822
 1340SOL     OW 4585   1.429   3.035   0.867
 1340SOL    HW1 4586   1.374   2.951   0.860
 1340SOL    HW2 4587   1.455   3.064   0.775
 1341SOL     OW 4588   1.466   2.452   0.992
 1341SOL    HW1 4589   1.436   2.357   0.999
 1341SOL    HW2 4590   1.539   2.468   1.058
 1342SOL     OW 4591   1.857   2.695   0.377
 1342SOL    HW1 4592   1.899   2.631   0.441
 1342SOL    HW2 4593   1.819   2.644   0.299
 1343SOL     OW 4594   0.488   3.247   0.174
 1343SOL    HW1 4595   0.401   3.232   0.221
 1343SOL    HW2 4596   0.471   3.273   0.079
 1344SOL     OW 4597   1.664   3.142   0.657
 1344SOL    HW1 4598   1.763   3.150   0.671
 1344SOL    HW2 4599   1.619   3.226   0.688
 1345SOL     OW 4600   1.390   2.437   0.078
 1345SOL    HW1 4601   1.336   2.416   0.159
 1345SOL    HW2 4602   1.481   2.396   0.087
 1346SOL     OW 4603   0.527   2.118   0.328
 1346SOL    HW1 4604   0.554   2.059   0.253
 1346SOL    HW2 4605   0.527   2.213   0.297
 1347SOL     OW 4606   1.754   3.085   1.588
 1347SOL    HW1 4607   1.845   3.046   1.575
 1347SOL    HW2 4608   1.762   3.181   1.612
 1348SOL     OW 4609   1.064   3.209   1.340
 1348SOL    HW1 4610   0.984   3.186   1.395
 1348SOL    HW2 4611   1.147   3.183   1.389
 1349SOL     OW 4612   1.592   3.491   1.625
 1349SOL    HW1 4613   1.619   3.525   1.535
 1349SOL    HW2 4614   1.671   3.453   1.671
 1350SOL     OW 4615   1.111   3.057   1.100
 1350SOL    HW1 4616   1.071   3.101   1.181
 1350SOL    HW2 4617   1.070   3.094   1.017
 1351SOL     OW 4618   1.638   2.961   1.079
 1351SOL    HW1 4619   1.643   3.042   1.138
 1351SOL    HW2 4620   1.552   2.963   1.028
 1352SOL     OW 4621   0.915   1.951   1.402
 1352SOL    HW1 4622   0.940   1.931   1.307
 1352SOL    HW2 4623   0.987   2.007   1.444
 1353SOL     OW 4624   0.980   2.978   1.719
 1353SOL    HW1 4625   0.881   2.984   1.729
 1353SOL    HW2 4626   1.003   2.898   1.663
 1354SOL     OW 4627   0.705   2.912   0.368
 1354SOL    HW1 4628   0.691   2.919   0.467
 1354SOL    HW2 4629   0.789   2.861   0.350
 1355SOL     OW 4630   0.410   2.675   1.251
 1355SOL    HW1 4631   0.496   2.687   1.301
 1355SOL    HW2 4632   0.368   2.588   1.278
 1356SOL     OW 4633   1.274   2.248   1.262
 1356SOL    HW1 4634   1.295   2.322   1.326
 1356SOL    HW2 4635   1.185   2.265   1.219
 1357SOL     OW 4636   0.064   3.426   1.331
 1357SOL    HW1 4637   0.018   3.508   1.297
 1357SOL    HW2 4638   0.162   3.445   1.340
 1358SOL     OW 4639   0.367   2.962   0.501
 1358SOL    HW1 4640   0.360   3.045   0.445
 1358SOL    HW2 4641   0.371   2.882   0.441
 1359SOL     OW 4642   0.566   2.399   0.865
 1359SOL    HW1 4643   0.578   2.465   0.791
 1359SOL    HW2 4644   0.612   2.433   0.948
 1360SOL     OW 4645   1.252   3.210   0.388
 1360SOL    HW1 4646   1.302   3.287   0.428
 1360SOL    HW2 4647   1.157   3.212   0.420
 1361SOL     OW 4648   1.272   3.307   1.142
 1361SOL    HW1 4649   1.319   3.320   1.229
 1361SOL    HW2 4650   1.206   3.233   1.151
 1362SOL     OW 4651   1.582   2.501   0.472
 1362SOL    HW1 4652   1.551   2.562   0.545
 1362SOL    HW2 4653   1.632   2.553   0.403
 1363SOL     OW 4654   0.354   3.372   1.329
 1363SOL    HW1 4655   0.333   3.328   1.242
 1363SOL    HW2 4656   0.451   3.398   1.332
 1364SOL     OW 4657   0.402   2.613   1.598
 1364SOL    HW1 4658   0.470   2.668   1.551
 1364SOL    HW2 4659   0.442   2.525   1.625
 1365SOL     OW 4660   1.587   2.641   1.670
 1365SOL    HW1 4661   1.495   2.679   1.665
 1365SOL    HW2 4662   1.647   2.688   1.605
 1366SOL     OW 4663   1.013   1.967   1.770
 1366SOL    HW1 4664   1.019   2.052   1.718
 1366SOL    HW2 4665   1.045   1.891   1.713
 1367SOL     OW 4666   0.504   1.912   1.740
 1367SOL    HW1 4667   0.462   1.855   1.670
 1367SOL    HW2 4668   0.438   1.981   1.772
 1368SOL     OW 4669   0.573   2.732   1.029
 1368SOL    HW1 4670   0.617   2.821   1.020
 1368SOL    HW2 4671   0.510   2.732   1.106
 1369SOL     OW 4672   1.360   2.724   1.045
 1369SOL    HW1 4673   1.285   2.724   0.979
 1369SOL    HW2 4674   1.397   2.632   1.054
 1370SOL     OW 4675   1.209   2.387   0.275
 1370SOL    HW1 4676   1.222   2.303   0.329
 1370SOL    HW2 4677   1.180   2.461   0.335
 1371SOL     OW 4678   0.307   2.075   1.231
 1371SOL    HW1 4679   0.284   2.112   1.321
 1371SOL    HW2 4680   0.277   1.980   1.225
 1372SOL     OW 4681   0.037   3.172   1.282
 1372SOL    HW1 4682   0.090   3.123   1.350
 1372SOL    HW2 4683   0.059   3.270   1.287
 1373SOL     OW 4684   0.732   2.496   1.064
 1373SOL    HW1 4685   0.791   2.470   0.988
 1373SOL    HW2 4686   0.704   2.592   1.053
 1374SOL     OW 4687   1.728   2.797   1.854
 1374SOL    HW1 4688   1.682   2.790   1.765
 1374SOL    HW2 4689   1.666   2.841   1.920
 1375SOL     OW 4690   0.307   1.925   0.618
 1375SOL    HW1 4691   0.296   2.019   0.651
 1375SOL    HW2 4692   0.302   1.862   0.695
 1376SOL     OW 4693   1.622   2.229   0.374
 1376SOL    HW1 4694   1.624   2.153   0.438
 1376SOL    HW2 4695   1.574   2.306   0.414
 1377SOL     OW 4696   1.023   2.628   0.966
 1377SOL    HW1 4697   1.038   2.649   1.062
 1377SOL    HW2 4698   0.993   2.533   0.957
 1378SOL     OW 4699   0.980   3.435   1.700
 1378SOL    HW1 4700   0.960   3.479   1.612
 1378SOL    HW2 4701   1.019   3.344   1.684
 1379SOL     OW 4702   1.859   3.380   1.605
 1379SOL    HW1 4703   1.873   3.407   1.510
 1379SOL    HW2 4704   1.942   3.402   1.658
 1380SOL     OW 4705   0.350   2.760   1.804
 1380SOL    HW1 4706   0.426   2.804   1.852
 1380SOL    HW2 4707   0.385   2.713   1.722
 1381SOL     OW 4708   1.540   2.136   0.125
 1381SOL    HW1 4709   1.479   2.061   0.148
 1381SOL    HW2 4710   1.562   2.188   0.208
 1382SOL     OW 4711   1.303   2.700   0.042
 1382SOL    HW1 4712   1.337   2.607   0.057
 1382SOL    HW2 4713   1.321   2.727  -0.053
 1383SOL     OW 4714   1.068   3.195   0.849
 1383SOL    HW1 4715   1.075   3.111   0.794
 1383SOL    HW2 4716   1.130   3.264   0.813
 1384SOL     OW 4717   0.319   2.672   0.949
 1384SOL    HW1 4718   0.412   2.708   0.954
 1384SOL    HW2 4719   0.313   2.587   1.001
 1385SOL     OW 4720   0.339   2.371   1.006
 1385SOL    HW1 4721   0.287   2.288   0.989
 1385SOL    HW2 4722   0.416   2.376   0.942
 1386SOL     OW 4723   1.138   2.242   1.678
 1386SOL    HW1 4724   1.093   2.305   1.742
 1386SOL    HW2 4725   1.231   2.273   1.661
 1387SOL     OW 4726   1.160   2.069   1.477
 1387SOL    HW1 4727   1.160   2.133   1.554
 1387SOL    HW2 4728   1.188   2.117   1.394
 1388SOL     OW 4729   0.008   3.188   0.200
 1388SOL    HW1 4730  -0.085   3.209   0.169
 1388SOL    HW2 4731   0.018   3.089   0.213
 1389SOL     OW 4732   0.088   3.663   0.927
 1389SOL    HW1 4733   0.046   3.577   0.900
 1389SOL    HW2 4734   0.182   3.666   0.893
 1390SOL     OW 4735   0.504   3.430   0.910
 1390SOL    HW1 4736   0.570   3.504   0.919
 1390SOL    HW2 4737   0.548   3.351   0.868
 1391SOL     OW 4738   1.002   2.658   1.238
 1391SOL    HW1 4739   1.043   2.626   1.324
 1391SOL    HW2 4740   0.906   2.631   1.235
 1392SOL     OW 4741   0.040   2.406   1.114
 1392SOL    HW1 4742   0.125   2.373   1.073
 1392SOL    HW2 4743   0.053   2.421   1.212
 1393SOL     OW 4744   0.189   2.382   1.722
 1393SOL    HW1 4745   0.248   2.342   1.652
 1393SOL    HW2 4746   0.131   2.453   1.681
 1394SOL     OW 4747   1.369   2.812   1.660
 1394SOL    HW1 4748   1.408   2.901   1.680
 1394SOL    HW2 4749   1.379   2.792   1.563
 1395SOL     OW 4750   0.815   2.434   0.325
 1395SOL    HW1 4751   0.822   2.345   0.279
 1395SOL    HW2 4752   0.721   2.468   0.317
 1396SOL     OW 4753   1.657   2.466   1.206
 1396SOL    HW1 4754   1.619   2.397   1.268
 1396SOL    HW2 4755   1.739   2.430   1.162
 1397SOL     OW 4756   0.252   3.426   1.744
 1397SOL    HW1 4757   0.222   3.483   1.820
 1397SOL    HW2 4758   0.245   3.329   1.770
 1398SOL     OW 4759   0.671   2.326   1.269
 1398SOL    HW1 4760   0.637   2.237   1.239
 1398SOL    HW2 4761   0.697   2.380   1.189
 1399SOL     OW 4762   0.930   3.540   1.465
 1399SOL    HW1 4763   0.906   3.522   1.370
 1399SOL    HW2 4764   0.960   3.634   1.475
 1400SOL     OW 4765   0.473   2.362   0.191
 1400SOL    HW1 4766   0.534   2.442   0.195
 1400SOL    HW2 4767   0.378   2.393   0.198
 1401SOL     OW 4768   0.159   2.999   1.466
 1401SOL    HW1 4769   0.181   2.938   1.542
 1401SOL    HW2 4770   0.169   2.950   1.380
 1402SOL     OW 4771   1.347   2.921   1.234
 1402SOL    HW1 4772   1.371   2.858   1.160
 1402SOL    HW2 4773   1.257   2.961   1.216
 1403SOL     OW 4774   1.302   2.717   0.309
 1403SOL    HW1 4775   1.216   2.686   0.351
 1403SOL    HW2 4776   1.298   2.703   0.210
 1404SOL     OW 4777   1.759   3.609   1.154
 1404SOL    HW1 4778   1.820   3.639   1.081
 1404SOL    HW2 4779   1.721   3.520   1.132
 1405SOL     OW 4780   1.252   3.593   1.128
 1405SOL    HW1 4781   1.336   3.598   1.074
 1405SOL    HW2 4782   1.229   3.497   1.146
 1406SOL     OW 4783   0.083   3.120   1.022
 1406SOL    HW1 4784   0.078   3.119   1.122
 1406SOL    HW2 4785   0.000   3.079   0.984
 1407SOL     OW 4786   0.688   3.524   1.716
 1407SOL    HW1 4787   0.632   3.605   1.725
 1407SOL    HW2 4788   0.740   3.528   1.630
 1408SOL     OW 4789   0.903   1.948   0.133
 1408SOL    HW1 4790   0.954   1.949   0.047
 1408SOL    HW2 4791   0.959   1.906   0.204
 1409SOL     OW 4792   1.726   1.997   0.523
 1409SOL    HW1 4793   1.799   1.980   0.456
 1409SOL    HW2 4794   1.695   1.910   0.561
 1410SOL     OW 4795   1.388   3.435   0.477
 1410SOL    HW1 4796   1.455   3.447   0.403
 1410SOL    HW2 4797   1.348   3.524   0.500
 1411SOL     OW 4798   0.130   3.656   1.851
 1411SOL    HW1 4799   0.089   3.582   1.904
 1411SOL    HW2 4800   0.194   3.707   1.909
 1412SOL     OW 4801   1.280   2.789   0.672
 1412SOL    HW1 4802   1.340   2.708   0.674
 1412SOL    HW2 4803   1.320   2.858   0.612
 1413SOL     OW 4804   0.830   3.135   1.422
 1413SOL    HW1 4805   0.825   3.168   1.517
 1413SOL    HW2 4806   0.744   3.154   1.376
 1414SOL     OW 4807   0.672   3.478   0.154
 1414SOL    HW1 4808   0.681   3.488   0.055
 1414SOL    HW2 4809   0.632   3.389   0.175
 1415SOL     OW 4810   1.650   3.582   1.394
 1415SOL    HW1 4811   1.703   3.592   1.310
 1415SOL    HW2 4812   1.623   3.672   1.428
 1416SOL     OW 4813   1.841   2.037   0.963
 1416SOL    HW1 4814   1.880   1.952   0.927
 1416SOL    HW2 4815   1.743   2.039   0.944
 1417SOL     OW 4816   0.263   2.188   0.720
 1417SOL    HW1 4817   0.184   2.239   0.686
 1417SOL    HW2 4818   0.254   2.173   0.818
 1418SOL     OW 4819   1.194   3.474   0.031
 1418SOL    HW1 4820   1.200   3.381   0.068
 1418SOL    HW2 4821   1.135   3.474  -0.049
 1419SOL     OW 4822   0.822   2.864   1.372
 1419SOL    HW1 4823   0.862   2.863   1.280
 1419SOL    HW2 4824   0.832   2.956   1.412
 1420SOL     OW 4825   0.916   2.772   0.291
 1420SOL    HW1 4826   0.979   2.810   0.223
 1420SOL    HW2 4827   0.956   2.689   0.330
 1421SOL     OW 4828   1.504   3.469   0.044
 1421SOL    HW1 4829   1.412   3.506   0.051
 1421SOL    HW2 4830   1.542   3.489  -0.046
 1422SOL     OW 4831   0.372   3.150   1.490
 1422SOL    HW1 4832   0.359   3.243   1.456
 1422SOL    HW2 4833   0.288   3.098   1.477
 1423SOL     OW 4834   1.614   3.154   1.289
 1423SOL    HW1 4835   1.674   3.157   1.369
 1423SOL    HW2 4836   1.539   3.218   1.302
 1424SOL     OW 4837   1.039   2.960   0.696
 1424SOL    HW1 4838   0.969   2.913   0.750
 1424SOL    HW2 4839   1.098   2.892   0.653
 1425SOL     OW 4840   1.014   2.098   0.971
 1425SOL    HW1 4841   1.006   2.062   0.878
 1425SOL    HW2 4842   1.012   2.022   1.036
 1426SOL     OW 4843   0.590   3.349   0.491
 1426SOL    HW1 4844   0.632   3.291   0.421
 1426SOL    HW2 4845   0.546   3.428   0.447
 1427SOL     OW 4846   1.709   2.247   1.381
 1427SOL    HW1 4847   1.782   2.316   1.385
 1427SOL    HW2 4848   1.737   2.172   1.322
 1428SOL     OW 4849   0.255   3.210   0.290
 1428SOL    HW1 4850   0.159   3.211   0.263
 1428SOL    HW2 4851   0.267   3.263   0.374
 1429SOL     OW 4852   0.105   2.875   1.726
 1429SOL    HW1 4853   0.028   2.842   1.780
 1429SOL    HW2 4854   0.190   2.845   1.768
 1430SOL     OW 4855   0.672   2.065   1.489
 1430SOL    HW1 4856   0.762   2.049   1.449
 1430SOL    HW2 4857   0.680   2.070   1.588
 1431SOL     OW 4858   0.075   2.207   0.033
 1431SOL    HW1 4859  -0.017   2.179   0.004
 1431SOL    HW2 4860   0.106   2.284  -0.023
 1432SOL     OW 4861   1.440   2.718   1.398
 1432SOL    HW1 4862   1.383   2.770   1.335
 1432SOL    HW2 4863   1.536   2.730   1.374
 1433SOL     OW 4864   0.072   2.028   0.318
 1433SOL    HW1 4865   0.055   2.111   0.264
 1433SOL    HW2 4866   0.162   1.991   0.296
 1434SOL     OW 4867   1.183   3.197   0.119
 1434SOL    HW1 4868   1.084   3.186   0.121
 1434SOL    HW2 4869   1.217   3.212   0.212
 1435SOL     OW 4870   0.613   2.704   1.431
 1435SOL    HW1 4871   0.669   2.785   1.414
 1435SOL    HW2 4872   0.672   2.624   1.434
 1436SOL     OW 4873   1.493   3.629   0.959
 1436SOL    HW1 4874   1.526   3.693   0.890
 1436SOL    HW2 4875   1.559   3.623   1.034
 1437SOL     OW 4876   0.716   2.427   1.708
 1437SOL    HW1 4877   0.735   2.492   1.782
 1437SOL    HW2 4878   0.776   2.347   1.717
 1438SOL     OW 4879   1.450   3.082   1.633
 1438SOL    HW1 4880   1.441   3.072   1.732
 1438SOL    HW2 4881   1.546   3.075   1.607
 1439SOL     OW 4882   0.390   3.603   1.560
 1439SOL    HW1 4883   0.299   3.644   1.558
 1439SOL    HW2 4884   0.383   3.509   1.592
 1440SOL     OW 4885   1.674   2.745   1.254
 1440SOL    HW1 4886   1.647   2.656   1.217
 1440SOL    HW2 4887   1.675   2.813   1.181
 1441SOL     OW 4888   1.225   2.187   0.449
 1441SOL    HW1 4889   1.290   2.113   0.438
 1441SOL    HW2 4890   1.245   2.237   0.533
 1442SOL     OW 4891   0.594   2.607   0.652
 1442SOL    HW1 4892   0.644   2.692   0.633
 1442SOL    HW2 4893   0.506   2.609   0.604
 1443SOL     OW 4894   1.777   2.204   1.642
 1443SOL    HW1 4895   1.760   2.235   1.548
 1443SOL    HW2 4896   1.693   2.167   1.680
 1444SOL     OW 4897   1.730   2.796   1.517
 1444SOL    HW1 4898   1.768   2.887   1.532
 1444SOL    HW2 4899   1.722   2.779   1.418
 1445SOL     OW 4900   0.859   3.236   0.016
 1445SOL    HW1 4901   0.813   3.251   0.104
 1445SOL    HW2 4902   0.903   3.321  -0.014
 1446SOL     OW 4903   0.661   3.652   0.953
 1446SOL    HW1 4904   0.615   3.740   0.940
 1446SOL    HW2 4905   0.760   3.664   0.946
 1447SOL     OW 4906   0.859   2.818   0.861
 1447SOL    HW1 4907   0.913   2.749   0.909
 1447SOL    HW2 4908   0.827   2.887   0.927
 1448SOL     OW 4909   1.083   2.846   0.087
 1448SOL    HW1 4910   1.060   2.899   0.005
 1448SOL    HW2 4911   1.164   2.790   0.068
 1449SOL     OW 4912   1.861   3.431   0.851
 1449SOL    HW1 4913   1.790   3.419   0.781
 1449SOL    HW2 4914   1.862   3.352   0.911
 1450SOL     OW 4915   0.221   3.176   1.844
 1450SOL    HW1 4916   0.156   3.103   1.823
 1450SOL    HW2 4917   0.225   3.190   1.942
 1451SOL     OW 4918   0.079   3.102   0.653
 1451SOL    HW1 4919   0.078   3.055   0.741
 1451SOL    HW2 4920   0.161   3.074   0.602
 1452SOL     OW 4921   0.672   3.253   1.624
 1452SOL    HW1 4922   0.594   3.203   1.662
 1452SOL    HW2 4923   0.669   3.348   1.655
 1453SOL     OW 4924   1.824   2.054   1.227
 1453SOL    HW1 4925   1.820   1.964   1.271
 1453SOL    HW2 4926   1.827   2.043   1.128
 1454SOL     OW 4927   0.428   2.286   0.520
 1454SOL    HW1 4928   0.458   2.214   0.458
 1454SOL    HW2 4929   0.389   2.246   0.603
 1455SOL     OW 4930   1.705   3.349   1.104
 1455SOL    HW1 4931   1.612   3.324   1.077
 1455SOL    HW2 4932   1.731   3.299   1.186
 1456SOL     OW 4933   0.317   2.409   1.280
 1456SOL    HW1 4934   0.355   2.350   1.352
 1456SOL    HW2 4935   0.357   2.383   1.192
 1457SOL     OW 4936   0.812   3.448   0.687
 1457SOL    HW1 4937   0.844   3.458   0.593
 1457SOL    HW2 4938   0.733   3.386   0.689
 1458SOL     OW 4939   1.424   2.076   1.112
 1458SOL    HW1 4940   1.476   2.011   1.167
 1458SOL    HW2 4941   1.375   2.139   1.173
 1459SOL     OW 4942   1.001   1.896   1.154
 1459SOL    HW1 4943   0.938   1.824   1.123
 1459SOL    HW2 4944   1.094   1.860   1.154
 1460SOL     OW 4945   0.770   3.192   0.301
 1460SOL    HW1 4946   0.724   3.105   0.318
 1460SOL    HW2 4947   0.861   3.189   0.342
 1461SOL     OW 4948   0.618   3.429   1.284
 1461SOL    HW1 4949   0.613   3.511   1.341
 1461SOL    HW2 4950   0.707   3.426   1.239
 1462SOL     OW 4951   1.352   1.914   0.168
 1462SOL    HW1 4952   1.387   1.873   0.084
 1462SOL    HW2 4953   1.262   1.876   0.188
 1463SOL     OW 4954   1.300   2.315   0.691
 1463SOL    HW1 4955   1.241   2.395   0.695
 1463SOL    HW2 4956   1.315   2.280   0.784
 1464SOL     OW 4957   1.593   2.083   0.882
 1464SOL    HW1 4958   1.509   2.082   0.936
 1464SOL    HW2 4959   1.595   2.166   0.826
 1465SOL     OW 4960   0.039   2.939   0.300
 1465SOL    HW1 4961   0.138   2.928   0.291
 1465SOL    HW2 4962  -0.001   2.853   0.332
 1466SOL     OW 4963   0.875   3.508   0.337
 1466SOL    HW1 4964   0.798   3.473   0.283
 1466SOL    HW2 4965   0.843   3.579   0.399
 1467SOL     OW 4966   0.230   2.490   1.975
 1467SOL    HW1 4967   0.137   2.488   2.012
 1467SOL    HW2 4968   0.231   2.451   1.883
 1468SOL     OW 4969   0.225   2.137   2.858
 1468SOL    HW1 4970   0.260   2.120   2.950
 1468SOL    HW2 4971   0.137   2.092   2.846
 1469SOL     OW 4972   0.019   2.230   2.509
 1469SOL    HW1 4973  -0.063   2.273   2.548
 1469SOL    HW2 4974  -0.009   2.157   2.446
 1470SOL     OW 4975   0.569   3.137   3.027
 1470SOL    HW1 4976   0.476   3.130   2.990
 1470SOL    HW2 4977   0.580   3.226   3.071
 1471SOL     OW 4978   1.555   3.373   2.565
 1471SOL    HW1 4979   1.498   3.357   2.646
 1471SOL    HW2 4980   1.496   3.383   2.485
 1472SOL     OW 4981   1.135   2.565   2.579
 1472SOL    HW1 4982   1.192   2.643   2.554
 1472SOL    HW2 4983   1.075   2.591   2.655
 1473SOL     OW 4984   1.755   2.469   2.093
 1473SOL    HW1 4985   1.743   2.456   1.994
 1473SOL    HW2 4986   1.725   2.388   2.142
 1474SOL     OW 4987   0.768   3.006   2.885
 1474SOL    HW1 4988   0.690   3.023   2.945
 1474SOL    HW2 4989   0.802   3.093   2.849
 1475SOL     OW 4990   0.850   2.660   3.685
 1475SOL    HW1 4991   0.846   2.736   3.750
 1475SOL    HW2 4992   0.872   2.696   3.594
 1476SOL     OW 4993   0.685   2.874   2.527
 1476SOL    HW1 4994   0.754   2.858   2.597
 1476SOL    HW2 4995   0.612   2.931   2.565
 1477SOL     OW 4996   0.686   3.023   3.665
 1477SOL    HW1 4997   0.746   3.102   3.679
 1477SOL    HW2 4998   0.600   3.054   3.624
 1478SOL     OW 4999   0.335   3.297   2.923
 1478SOL    HW1 5000   0.257   3.266   2.870
 1478SOL    HW2 5001   0.393   3.355   2.866
 1479SOL     OW 5002   1.460   3.367   3.201
 1479SOL    HW1 5003   1.484   3.461   3.227
 1479SOL    HW2 5004   1.444   3.313   3.283
 1480SOL     OW 5005   0.438   2.254   3.361
 1480SOL    HW1 5006   0.520   2.198   3.370
 1480SOL    HW2 5007   0.357   2.196   3.365
 1481SOL     OW 5008   1.603   2.309   2.599
 1481SOL    HW1 5009   1.529   2.355   2.549
 1481SOL    HW2 5010   1.654   2.377   2.652
 1482SOL     OW 5011   0.231   3.575   2.345
 1482SOL    HW1 5012   0.265   3.652   2.399
 1482SOL    HW2 5013   0.275   3.575   2.255
 1483SOL     OW 5014   1.127   3.203   3.552
 1483SOL    HW1 5015   1.174   3.203   3.640
 1483SOL    HW2 5016   1.079   3.116   3.541
 1484SOL     OW 5017   0.230   3.296   2.400
 1484SOL    HW1 5018   0.204   3.392   2.400
 1484SOL    HW2 5019   0.159   3.242   2.445
 1485SOL     OW 5020   0.240   2.953   2.748
 1485SOL    HW1 5021   0.254   2.869   2.800
 1485SOL    HW2 5022   0.185   3.017   2.803
 1486SOL     OW 5023   0.620   3.648   3.301
 1486SOL    HW1 5024   0.528   3.631   3.336
 1486SOL    HW2 5025   0.648   3.740   3.327
 1487SOL     OW 5026   0.606   2.826   1.985
 1487SOL    HW1 5027   0.613   2.910   1.931
 1487SOL    HW2 5028   0.652   2.839   2.073
 1488SOL     OW 5029   1.594   1.976   3.342
 1488SOL    HW1 5030   1.576   2.043   3.270
 1488SOL    HW2 5031   1.591   2.022   3.431
 1489SOL     OW 5032   0.122   2.505   2.425
 1489SOL    HW1 5033   0.077   2.417   2.442
 1489SOL    HW2 5034   0.121   2.559   2.509
 1490SOL     OW 5035   1.842   3.629   2.221
 1490SOL    HW1 5036   1.896   3.600   2.301
 1490SOL    HW2 5037   1.872   3.719   2.192
 1491SOL     OW 5038   0.027   3.458   1.979
 1491SOL    HW1 5039   0.008   3.362   2.000
 1491SOL    HW2 5040  -0.006   3.516   2.054
 1492SOL     OW 5041   1.689   2.784   2.474
 1492SOL    HW1 5042   1.784   2.755   2.482
 1492SOL    HW2 5043   1.681   2.849   2.399
 1493SOL     OW 5044   1.641   2.970   2.294
 1493SOL    HW1 5045   1.727   2.972   2.242
 1493SOL    HW2 5046   1.655   3.017   2.382
 1494SOL     OW 5047   0.113   2.599   3.459
 1494SOL    HW1 5048   0.201   2.586   3.504
 1494SOL    HW2 5049   0.100   2.696   3.437
 1495SOL     OW 5050   0.613   3.227   2.588
 1495SOL    HW1 5051   0.564   3.140   2.597
 1495SOL    HW2 5052   0.590   3.270   2.501
 1496SOL     OW 5053   1.293   3.090   3.285
 1496SOL    HW1 5054   1.330   3.017   3.227
 1496SOL    HW2 5055   1.345   3.095   3.370
 1497SOL     OW 5056   0.809   1.866   2.364
 1497SOL    HW1 5057   0.849   1.957   2.355
 1497SOL    HW2 5058   0.709   1.874   2.370
 1498SOL     OW 5059   0.197   2.838   3.126
 1498SOL    HW1 5060   0.286   2.793   3.112
 1498SOL    HW2 5061   0.124   2.773   3.107
 1499SOL     OW 5062   1.525   2.861   2.052
 1499SOL    HW1 5063   1.462   2.785   2.065
 1499SOL    HW2 5064   1.573   2.879   2.138
 1500SOL     OW 5065   1.187   3.654   3.478
 1500SOL    HW1 5066   1.211   3.714   3.402
 1500SOL    HW2 5067   1.194   3.559   3.448
 1501SOL     OW 5068   0.317   2.113   3.663
 1501SOL    HW1 5069   0.388   2.184   3.669
 1501SOL    HW2 5070   0.229   2.152   3.691
 1502SOL     OW 5071   1.466   3.279   2.815
 1502SOL    HW1 5072   1.407   3.285   2.895
 1502SOL    HW2 5073   1.451   3.191   2.769
 1503SOL     OW 5074   1.667   3.576   2.434
 1503SOL    HW1 5075   1.626   3.553   2.346
 1503SOL    HW2 5076   1.649   3.502   2.499
 1504SOL     OW 5077   0.598   2.591   2.132
 1504SOL    HW1 5078   0.622   2.660   2.064
 1504SOL    HW2 5079   0.520   2.624   2.186
 1505SOL     OW 5080   1.281   2.207   2.806
 1505SOL    HW1 5081   1.195   2.157   2.793
 1505SOL    HW2 5082   1.343   2.153   2.862
 1506SOL     OW 5083   1.576   3.524   2.169
 1506SOL    HW1 5084   1.665   3.570   2.172
 1506SOL    HW2 5085   1.555   3.500   2.074
 1507SOL     OW 5086   0.807   2.467   3.327
 1507SOL    HW1 5087   0.760   2.464   3.416
 1507SOL    HW2 5088   0.756   2.412   3.261
 1508SOL     OW 5089   1.394   2.331   3.536
 1508SOL    HW1 5090   1.374   2.374   3.624
 1508SOL    HW2 5091   1.472   2.269   3.545
 1509SOL     OW 5092   0.973   2.752   3.434
 1509SOL    HW1 5093   1.019   2.668   3.405
 1509SOL    HW2 5094   0.917   2.786   3.359
 1510SOL     OW 5095   0.991   2.272   3.104
 1510SOL    HW1 5096   0.914   2.306   3.158
 1510SOL    HW2 5097   0.957   2.221   3.025
 1511SOL     OW 5098   1.041   2.563   2.291
 1511SOL    HW1 5099   1.067   2.559   2.387
 1511SOL    HW2 5100   0.956   2.512   2.277
 1512SOL     OW 5101   0.076   2.673   2.651
 1512SOL    HW1 5102   0.175   2.661   2.660
 1512SOL    HW2 5103   0.052   2.768   2.672
 1513SOL     OW 5104   0.130   3.683   3.433
 1513SOL    HW1 5105   0.120   3.668   3.532
 1513SOL    HW2 5106   0.044   3.719   3.397
 1514SOL     OW 5107   0.865   2.210   2.057
 1514SOL    HW1 5108   0.924   2.273   2.008
 1514SOL    HW2 5109   0.884   2.116   2.028
 1515SOL     OW 5110   1.719   2.447   3.693
 1515SOL    HW1 5111   1.693   2.536   3.657
 1515SOL    HW2 5112   1.717   2.379   3.620
 1516SOL     OW 5113   1.362   3.006   2.407
 1516SOL    HW1 5114   1.445   2.977   2.359
 1516SOL    HW2 5115   1.313   3.073   2.351
 1517SOL     OW 5116   0.550   2.058   2.747
 1517SOL    HW1 5117   0.545   2.053   2.847
 1517SOL    HW2 5118   0.552   2.154   2.718
 1518SOL     OW 5119   1.008   3.318   2.339
 1518SOL    HW1 5120   0.962   3.390   2.287
 1518SOL    HW2 5121   1.004   3.338   2.437
 1519SOL     OW 5122   0.351   3.663   2.715
 1519SOL    HW1 5123   0.401   3.577   2.721
 1519SOL    HW2 5124   0.416   3.740   2.712
 1520SOL     OW 5125   1.795   2.928   2.735
 1520SOL    HW1 5126   1.733   2.913   2.659
 1520SOL    HW2 5127   1.743   2.939   2.820
 1521SOL     OW 5128   1.227   3.412   3.368
 1521SOL    HW1 5129   1.233   3.335   3.432
 1521SOL    HW2 5130   1.175   3.386   3.288
 1522SOL     OW 5131   0.321   2.805   2.104
 1522SOL    HW1 5132   0.403   2.844   2.062
 1522SOL    HW2 5133   0.294   2.723   2.055
 1523SOL     OW 5134   1.458   2.597   2.590
 1523SOL    HW1 5135   1.453   2.532   2.665
 1523SOL    HW2 5136   1.538   2.656   2.603
 1524SOL     OW 5137   0.461   3.128   3.589
 1524SOL    HW1 5138   0.411   3.129   3.503
 1524SOL    HW2 5139   0.398   3.110   3.665
 1525SOL     OW 5140   1.111   3.638   2.099
 1525SOL    HW1 5141   1.051   3.576   2.149
 1525SOL    HW2 5142   1.142   3.594   2.014
 1526SOL     OW 5143   0.202   2.147   3.360
 1526SOL    HW1 5144   0.122   2.207   3.347
 1526SOL    HW2 5145   0.192   2.098   3.446
 1527SOL     OW 5146   1.632   3.239   1.943
 1527SOL    HW1 5147   1.600   3.333   1.933
 1527SOL    HW2 5148   1.556   3.176   1.931
 1528SOL     OW 5149   0.464   3.605   2.185
 1528SOL    HW1 5150   0.497   3.644   2.271
 1528SOL    HW2 5151   0.540   3.598   2.120
 1529SOL     OW 5152   1.400   1.969   2.288
 1529SOL    HW1 5153   1.376   1.932   2.198
 1529SOL    HW2 5154   1.499   1.985   2.292
 1530SOL     OW 5155   0.249   3.647   3.103
 1530SOL    HW1 5156   0.306   3.582   3.153
 1530SOL    HW2 5157   0.233   3.614   3.010
 1531SOL     OW 5158   0.940   3.560   2.766
 1531SOL    HW1 5159   1.020   3.503   2.787
 1531SOL    HW2 5160   0.891   3.520   2.689
 1532SOL     OW 5161   0.382   2.562   2.342
 1532SOL    HW1 5162   0.427   2.472   2.339
 1532SOL    HW2 5163   0.288   2.551   2.375
 1533SOL     OW 5164   1.547   2.084   3.591
 1533SOL    HW1 5165   1.542   2.121   3.683
 1533SOL    HW2 5166   1.475   2.015   3.579
 1534SOL     OW 5167   0.614   1.984   1.979
 1534SOL    HW1 5168   0.712   1.962   1.986
 1534SOL    HW2 5169   0.583   1.967   1.886
 1535SOL     OW 5170   0.781   2.126   3.611
 1535SOL    HW1 5171   0.848   2.065   3.654
 1535SOL    HW2 5172   0.708   2.145   3.676
 1536SOL     OW 5173   0.888   3.376   3.057
 1536SOL    HW1 5174   0.865   3.351   2.963
 1536SOL    HW2 5175   0.949   3.307   3.096
 1537SOL     OW 5176   1.351   2.452   3.295
 1537SOL    HW1 5177   1.379   2.409   3.380
 1537SOL    HW2 5178   1.376   2.548   3.296
 1538SOL     OW 5179   0.803   3.264   2.786
 1538SOL    HW1 5180   0.893   3.278   2.744
 1538SOL    HW2 5181   0.732   3.266   2.715
 1539SOL     OW 5182   0.922   2.365   2.761
 1539SOL    HW1 5183   0.897   2.356   2.665
 1539SOL    HW2 5184   0.970   2.283   2.792
 1540SOL     OW 5185   0.539   1.926   2.374
 1540SOL    HW1 5186   0.458   1.927   2.432
 1540SOL    HW2 5187   0.542   2.009   2.319
 1541SOL     OW 5188   1.434   3.050   1.903
 1541SOL    HW1 5189   1.466   2.974   1.960
 1541SOL    HW2 5190   1.342   3.077   1.933
 1542SOL     OW 5191   0.297   1.897   2.033
 1542SOL    HW1 5192   0.346   1.981   2.012
 1542SOL    HW2 5193   0.359   1.832   2.078
 1543SOL     OW 5194   0.935   2.098   2.342
 1543SOL    HW1 5195   0.887   2.139   2.264
 1543SOL    HW2 5196   1.034   2.096   2.323
 1544SOL     OW 5197   1.076   2.545   3.326
 1544SOL    HW1 5198   0.996   2.484   3.329
 1544SOL    HW2 5199   1.157   2.492   3.302
 1545SOL     OW 5200   1.227   3.432   2.655
 1545SOL    HW1 5201   1.248   3.506   2.590
 1545SOL    HW2 5202   1.295   3.432   2.728
 1546SOL     OW 5203   0.459   3.014   2.603
 1546SOL    HW1 5204   0.388   2.987   2.668
 1546SOL    HW2 5205   0.433   2.986   2.510
 1547SOL     OW 5206   1.271   3.659   2.453
 1547SOL    HW1 5207   1.315   3.723   2.389
 1547SOL    HW2 5208   1.221   3.711   2.523
 1548SOL     OW 5209   1.032   2.411   1.878
 1548SOL    HW1 5210   0.991   2.493   1.839
 1548SOL    HW2 5211   1.096   2.437   1.951
 1549SOL     OW 5212   0.078   2.418   3.248
 1549SOL    HW1 5213   0.170   2.417   3.207
 1549SOL    HW2 5214   0.072   2.492   3.315
 1550SOL     OW 5215   0.561   2.084   3.009
 1550SOL    HW1 5216   0.599   2.000   3.046
 1550SOL    HW2 5217   0.473   2.103   3.053
 1551SOL     OW 5218   0.866   2.316   2.504
 1551SOL    HW1 5219   0.834   2.388   2.442
 1551SOL    HW2 5220   0.890   2.235   2.451
 1552SOL     OW 5221   1.017   1.901   2.615
 1552SOL    HW1 5222   0.945   1.906   2.546
 1552SOL    HW2 5223   0.993   1.832   2.684
 1553SOL     OW 5224   1.429   3.035   2.729
 1553SOL    HW1 5225   1.374   2.951   2.722
 1553SOL    HW2 5226   1.455   3.064   2.637
 1554SOL     OW 5227   1.466   2.452   2.854
 1554SOL    HW1 5228   1.436   2.357   2.861
 1554SOL    HW2 5229   1.539   2.468   2.920
 1555SOL     OW 5230   1.857   2.695   2.239
 1555SOL    HW1 5231   1.899   2.631   2.303
 1555SOL    HW2 5232   1.819   2.644   2.161
 1556SOL     OW 5233   0.488   3.247   2.036
 1556SOL    HW1 5234   0.401   3.232   2.083
 1556SOL    HW2 5235   0.471   3.273   1.941
 1557SOL     OW 5236   1.664   3.142   2.519
 1557SOL    HW1 5237   1.763   3.150   2.533
 1557SOL    HW2 5238   1.619   3.226   2.550
 1558SOL     OW 5239   1.390   2.437   1.940
 1558SOL    HW1 5240   1.336   2.416   2.021
 1558SOL    HW2 5241   1.481   2.396   1.949
 1559SOL     OW 5242   0.527   2.118   2.190
 1559SOL    HW1 5243   0.554   2.059   2.115
 1559SOL    HW2 5244   0.527   2.213   2.159
 1560SOL     OW 5245   1.754   3.085   3.450
 1560SOL    HW1 5246   1.845   3.046   3.437
 1560SOL    HW2 5247   1.762   3.181   3.474
 1561SOL     OW 5248   1.064   3.209   3.202
 1561SOL    HW1 5249   0.984   3.186   3.257
 1561SOL    HW2 5250   1.147   3.183   3.251
 1562SOL     OW 5251   1.592   3.491   3.487
 1562SOL    HW1 5252   1.619   3.525   3.397
 1562SOL    HW2 5253   1.671   3.453   3.533
 1563SOL     OW 5254   1.111   3.057   2.962
 1563SOL    HW1 5255   1.071   3.101   3.043
 1563SOL    HW2 5256   1.070   3.094   2.879
 1564SOL     OW 5257   1.638   2.961   2.941
 1564SOL    HW1 5258   1.643   3.042   3.000
 1564SOL    HW2 5259   1.552   2.963   2.890
 1565SOL     OW 5260   0.915   1.951   3.264
 1565SOL    HW1 5261   0.940   1.931   3.169
 1565SOL    HW2 5262   0.987   2.007   3.306
 1566SOL     OW 5263   0.980   2.978   3.581
 1566SOL    HW1 5264   0.881   2.984   3.591
 1566SOL    HW2 5265   1.003   2.898   3.525
 1567SOL     OW 5266   0.705   2.912   2.230
 1567SOL    HW1 5267   0.691   2.919   2.329
 1567SOL    HW2 5268   0.789   2.861   2.212
 1568SOL     OW 5269   0.410   2.675   3.113
 1568SOL    HW1 5270   0.496   2.687   3.163
 1568SOL    HW2 5271   0.368   2.588   3.140
 1569SOL     OW 5272   1.274   2.248   3.124
 1569SOL    HW1 5273   1.295   2.322   3.188
 1569SOL    HW2 5274   1.185   2.265   3.081
 1570SOL     OW 5275   0.064   3.426   3.193
 1570SOL    HW1 5276   0.018   3.508   3.159
 1570SOL    HW2 5277   0.162   3.445   3.202
 1571SOL     OW 5278   0.367   2.962   2.363
 1571SOL    HW1 5279   0.360   3.045   2.307
 1571SOL    HW2 5280   0.371   2.882   2.303
 1572SOL     OW 5281   0.566   2.399   2.727
 1572SOL    HW1 5282   0.578   2.465   2.653
 1572SOL    HW2 5283   0.612   2.433   2.810
 1573SOL     OW 5284   1.252   3.210   2.250
 1573SOL    HW1 5285   1.302   3.287   2.290
 1573SOL    HW2 5286   1.157   3.212   2.282
 1574SOL     OW 5287   1.272   3.307   3.004
 1574SOL    HW1 5288   1.319   3.320   3.091
 1574SOL    HW2 5289   1.206   3.233   3.013
 1575SOL     OW 5290   1.582   2.501   2.334
 1575SOL    HW1 5291   1.551   2.562   2.407
 1575SOL    HW2 5292   1.632   2.553   2.265
 1576SOL     OW 5293   0.354   3.372   3.191
 1576SOL    HW1 5294   0.333   3.328   3.104
 1576SOL    HW2 5295   0.451   3.398   3.194
 1577SOL     OW 5296   0.402   2.613   3.460
 1577SOL    HW1 5297   0.470   2.668   3.413
 1577SOL    HW2 5298   0.442   2.525   3.487
 1578SOL     OW 5299   1.587   2.641   3.532
 1578SOL    HW1 5300   1.495   2.679   3.527
 1578SOL    HW2 5301   1.647   2.688   3.467
 1579SOL     OW 5302   1.013   1.967   3.632
 1579SOL    HW1 5303   1.019   2.052   3.580
 1579SOL    HW2 5304   1.045   1.891   3.575
 1580SOL     OW 5305   0.504   1.912   3.602
 1580SOL    HW1 5306   0.462   1.855   3.532
 1580SOL    HW2 5307   0.438   1.981   3.634
 1581SOL     OW 5308   0.573   2.732   2.891
 1581SOL    HW1 5309   0.617   2.821   2.882
 1581SOL    HW2 5310   0.510   2.732   2.968
 1582SOL     OW 5311   1.360   2.724   2.907
 1582SOL    HW1 5312   1.285   2.724   2.841
 1582SOL    HW2 5313   1.397   2.632   2.916
 1583SOL     OW 5314   1.209   2.387   2.137
 1583SOL    HW1 5315   1.222   2.303   2.191
 1583SOL    HW2 5316   1.180   2.461   2.197
 1584SOL     OW 5317   0.307   2.075   3.093
 1584SOL    HW1 5318   0.284   2.112   3.183
 1584SOL    HW2 5319   0.277   1.980   3.087
 1585SOL     OW 5320   0.037   3.172   3.144
 1585SOL    HW1 5321   0.090   3.123   3.212
 1585SOL    HW2 5322   0.059   3.270   3.149
 1586SOL     OW 5323   0.732   2.496   2.926
 1586SOL    HW1 5324   0.791   2.470   2.850
 1586SOL    HW2 5325   0.704   2.592   2.915
 1587SOL     OW 5326   1.728   2.797   3.716
 1587SOL    HW1 5327   1.682   2.790   3.627
 1587SOL    HW2 5328   1.666   2.841   3.782
 1588SOL     OW 5329   0.307   1.925   2.480
 1588SOL    HW1 5330   0.296   2.019   2.513
 1588SOL    HW2 5331   0.302   1.862   2.557
 1589SOL     OW 5332   1.622   2.229   2.236
 1589SOL    HW1 5333   1.624   2.153   2.300
 1589SOL    HW2 5334   1.574   2.306   2.276
 1590SOL     OW 5335   1.023   2.628   2.828
 1590SOL    HW1 5336   1.038   2.649   2.924
 1590SOL    HW2 5337   0.993   2.533   2.819
 1591SOL     OW 5338   0.980   3.435   3.562
 1591SOL    HW1 5339   0.960   3.479   3.474
 1591SOL    HW2 5340   1.019   3.344   3.546
 1592SOL     OW 5341   1.859   3.380   3.467
 1592SOL    HW1 5342   1.873   3.407   3.372
 1592SOL    HW2 5343   1.942   3.402   3.520
 1593SOL     OW 5344   0.350   2.760   3.666
 1593SOL    HW1 5345   0.426   2.804   3.714
 1593SOL    HW2 5346   0.385   2.713   3.584
 1594SOL     OW 5347   1.540   2.136   1.987
 1594SOL    HW1 5348   1.479   2.061   2.010
 1594SOL    HW2 5349   1.562   2.188   2.070
 1595SOL     OW 5350   1.303   2.700   1.904
 1595SOL    HW1 5351   1.337   2.607   1.919
 1595SOL    HW2 5352   1.321   2.727   1.809
 1596SOL     OW 5353   1.068   3.195   2.711
 1596SOL    HW1 5354   1.075   3.111   2.656
 1596SOL    HW2 5355   1.130   3.264   2.675
 1597SOL     OW 5356   0.319   2.672   2.811
 1597SOL    HW1 5357   0.412   2.708   2.816
 1597SOL    HW2 5358   0.313   2.587   2.863
 1598SOL     OW 5359   0.339   2.371   2.868
 1598SOL    HW1 5360   0.287   2.288   2.851
 1598SOL    HW2 5361   0.416   2.376   2.804
 1599SOL     OW 5362   1.138   2.242   3.540
 1599SOL    HW1 5363   1.093   2.305   3.604
 1599SOL    HW2 5364   1.231   2.273   3.523
 1600SOL     OW 5365   1.160   2.069   3.339
 1600SOL    HW1 5366   1.160   2.133   3.416
 1600SOL    HW2 5367   1.188   2.117   3.256
 1601SOL     OW 5368   0.008   3.188   2.062
 1601SOL    HW1 5369  -0.085   3.209   2.031
 1601SOL    HW2 5370   0.018   3.089   2.075
 1602SOL     OW 5371   0.088   3.663   2.789
 1602SOL    HW1 5372   0.046   3.577   2.762
 1602SOL    HW2 5373   0.182   3.666   2.755
 1603SOL     OW 5374   0.504   3.430   2.772
 1603SOL    HW1 5375   0.570   3.504   2.781
 1603SOL    HW2 5376   0.548   3.351   2.730
 1604SOL     OW 5377   1.002   2.658   3.100
 1604SOL    HW1 5378   1.043   2.626   3.186
 1604SOL    HW2 5379   0.906   2.631   3.097
 1605SOL     OW 5380   0.040   2.406   2.976
 1605SOL    HW1 5381   0.125   2.373   2.935
 1605SOL    HW2 5382   0.053   2.421   3.074
 1606SOL     OW 5383   0.189   2.382   3.584
 1606SOL    HW1 5384   0.248   2.342   3.514
 1606SOL    HW2 5385   0.131   2.453   3.543
 1607SOL     OW 5386   1.369   2.812   3.522
 1607SOL    HW1 5387   1.408   2.901   3.542
 1607SOL    HW2 5388   1.379   2.792   3.425
 1608SOL     OW 5389   0.815   2.434   2.187
 1608SOL    HW1 5390   0.822   2.345   2.141
 1608SOL    HW2 5391   0.721   2.468   2.179
 1609SOL     OW 5392   1.657   2.466   3.068
 1609SOL    HW1 5393   1.619   2.397   3.130
 1609SOL    HW2 5394   1.739   2.430   3.024
 1610SOL     OW 5395   0.252   3.426   3.606
 1610SOL    HW1 5396   0.222   3.483   3.682
 1610SOL    HW2 5397   0.245   3.329   3.632
 1611SOL     OW 5398   0.671   2.326   3.131
 1611SOL    HW1 5399   0.637   2.237   3.101
 1611SOL    HW2 5400   0.697   2.380   3.051
 1612SOL     OW 5401   0.930   3.540   3.327
 1612SOL    HW1 5402   0.906   3.522   3.232
 1612SOL    HW2 5403   0.960   3.634   3.337
 1613SOL     OW 5404   0.473   2.362   2.053
 1613SOL    HW1 5405   0.534   2.442   2.057
 1613SOL    HW2 5406   0.378   2.393   2.060
 1614SOL     OW 5407   0.159   2.999   3.328
 1614SOL    HW1 5408   0.181   2.938   3.404
 1614SOL    HW2 5409   0.169   2.950   3.242
 1615SOL     OW 5410   1.347   2.921   3.096
 1615SOL    HW1 5411   1.371   2.858   3.022
 1615SOL    HW2 5412   1.257   2.961   3.078
 1616SOL     OW 5413   1.302   2.717   2.171
 1616SOL    HW1 5414   1.216   2.686   2.213
 1616SOL    HW2 5415   1.298   2.703   2.072
 1617SOL     OW 5416   1.759   3.609   3.016
 1617SOL    HW1 5417   1.820   3.639   2.943
 1617SOL    HW2 5418   1.721   3.520   2.994
 1618SOL     OW 5419   1.252   3.593   2.990
 1618SOL    HW1 5420   1.336   3.598   2.936
 1618SOL    HW2 5421   1.229   3.497   3.008
 1619SOL     OW 5422   0.083   3.120   2.884
 1619SOL    HW1 5423   0.078   3.119   2.984
 1619SOL    HW2 5424   0.000   3.079   2.846
 1620SOL     OW 5425   0.688   3.524   3.578
 1620SOL    HW1 5426   0.632   3.605   3.587
 1620SOL    HW2 5427   0.740   3.528   3.492
 1621SOL     OW 5428   1.726   1.997   2.385
 1621SOL    HW1 5429   1.799   1.980   2.318
 1621SOL    HW2 5430   1.695   1.910   2.423
 1622SOL     OW 5431   1.388   3.435   2.339
 1622SOL    HW1 5432   1.455   3.447   2.265
 1622SOL    HW2 5433   1.348   3.524   2.362
 1623SOL     OW 5434   0.130   3.656   3.713
 1623SOL    HW1 5435   0.089   3.582   3.766
 1623SOL    HW2 5436   0.194   3.707   3.771
 1624SOL     OW 5437   1.280   2.789   2.534
 1624SOL    HW1 5438   1.340   2.708   2.536
 1624SOL    HW2 5439   1.320   2.858   2.474
 1625SOL     OW 5440   0.830   3.135   3.284
 1625SOL    HW1 5441   0.825   3.168   3.379
 1625SOL    HW2 5442   0.744   3.154   3.238
 1626SOL     OW 5443   0.672   3.478   2.016
 1626SOL    HW1 5444   0.681   3.488   1.917
 1626SOL    HW2 5445   0.632   3.389   2.037
 1627SOL     OW 5446   1.650   3.582   3.256
 1627SOL    HW1 5447   1.703   3.592   3.172
 1627SOL    HW2 5448   1.623   3.672   3.290
 1628SOL     OW 5449   1.841   2.037   2.825
 1628SOL    HW1 5450   1.880   1.952   2.789
 1628SOL    HW2 5451   1.743   2.039   2.806
 1629SOL     OW 5452   0.263   2.188   2.582
 1629SOL    HW1 5453   0.184   2.239   2.548
 1629SOL    HW2 5454   0.254   2.173   2.680
 1630SOL     OW 5455   1.194   3.474   1.893
 1630SOL    HW1 5456   1.200   3.381   1.930
 1630SOL    HW2 5457   1.135   3.474   1.813
 1631SOL     OW 5458   0.822   2.864   3.234
 1631SOL    HW1 5459   0.862   2.863   3.142
 1631SOL    HW2 5460   0.832   2.956   3.274
 1632SOL     OW 5461   0.916   2.772   2.153
 1632SOL    HW1 5462   0.979   2.810   2.085
 1632SOL    HW2 5463   0.956   2.689   2.192
 1633SOL     OW 5464   1.504   3.469   1.906
 1633SOL    HW1 5465   1.412   3.506   1.913
 1633SOL    HW2 5466   1.542   3.489   1.816
 1634SOL     OW 5467   0.372   3.150   3.352
 1634SOL    HW1 5468   0.359   3.243   3.318
 1634SOL    HW2 5469   0.288   3.098   3.339
 1635SOL     OW 5470   1.614   3.154   3.151
 1635SOL    HW1 5471   1.674   3.157   3.231
 1635SOL    HW2 5472   1.539   3.218   3.164
 1636SOL     OW 5473   1.039   2.960   2.558
 1636SOL    HW1 5474   0.969   2.913   2.612
 1636SOL    HW2 5475   1.098   2.892   2.515
 1637SOL     OW 5476   1.014   2.098   2.833
 1637SOL    HW1 5477   1.006   2.062   2.740
 1637SOL    HW2 5478   1.012   2.022   2.898
 1638SOL     OW 5479   0.590   3.349   2.353
 1638SOL    HW1 5480   0.632   3.291   2.283
 1638SOL    HW2 5481   0.546   3.428   2.309
 1639SOL     OW 5482   1.709   2.247   3.243
 1639SOL    HW1 5483   1.782   2.316   3.247
 1639SOL    HW2 5484   1.737   2.172   3.184
 1640SOL     OW 5485   0.255   3.210   2.152
 1640SOL    HW1 5486   0.159   3.211   2.125
 1640SOL    HW2 5487   0.267   3.263   2.236
 1641SOL     OW 5488   0.105   2.875   3.588
 1641SOL    HW1 5489   0.028   2.842   3.642
 1641SOL    HW2 5490   0.190   2.845   3.630
 1642SOL     OW 5491   0.672   2.065   3.351
 1642SOL    HW1 5492   0.762   2.049   3.311
 1642SOL    HW2 5493   0.680   2.070   3.450
 1643SOL     OW 5494   0.075   2.207   1.895
 1643SOL    HW1 5495  -0.017   2.179   1.866
 1643SOL    HW2 5496   0.106   2.284   1.839
 1644SOL     OW 5497   1.440   2.718   3.260
 1644SOL    HW1 5498   1.383   2.770   3.197
 1644SOL    HW2 5499   1.536   2.730   3.236
 1645SOL     OW 5500   0.072   2.028   2.180
 1645SOL    HW1 5501   0.055   2.111   2.126
 1645SOL    HW2 5502   0.162   1.991   2.158
 1646SOL     OW 5503   1.183   3.197   1.981
 1646SOL    HW1 5504   1.084   3.186   1.983
 1646SOL    HW2 5505   1.217   3.212   2.074
 1647SOL     OW 5506   0.613   2.704   3.293
 1647SOL    HW1 5507   0.669   2.785   3.276
 1647SOL    HW2 5508   0.672   2.624   3.296
 1648SOL     OW 5509   1.493   3.629   2.821
 1648SOL    HW1 5510   1.526   3.693   2.752
 1648SOL    HW2 5511   1.559   3.623   2.896
 1649SOL     OW 5512   0.716   2.427   3.570
 1649SOL    HW1 5513   0.735   2.492   3.644
 1649SOL    HW2 5514   0.776   2.347   3.579
 1650SOL     OW 5515   1.450   3.082   3.495
 1650SOL    HW1 5516   1.441   3.072   3.594
 1650SOL    HW2 5517   1.546   3.075   3.469
 1651SOL     OW 5518   0.390   3.603   3.422
 1651SOL    HW1 5519   0.299   3.644   3.420
 1651SOL    HW2 5520   0.383   3.509   3.454
 1652SOL     OW 5521   1.674   2.745   3.116
 1652SOL    HW1 5522   1.647   2.656   3.079
 1652SOL    HW2 5523   1.675   2.813   3.043
 1653SOL     OW 5524   1.225   2.187   2.311
 1653SOL    HW1 5525   1.290   2.113   2.300
 1653SOL    HW2 5526   1.245   2.237   2.395
 1654SOL     OW 5527   0.594   2.607   2.514
 1654SOL    HW1 5528   0.644   2.692   2.495
 1654SOL    HW2 5529   0.506   2.609   2.466
 1655SOL     OW 5530   1.777   2.204   3.504
 1655SOL    HW1 5531   1.760   2.235   3.410
 1655SOL    HW2 5532   1.693   2.167   3.542
 1656SOL     OW 5533   1.730   2.796   3.379
 1656SOL    HW1 5534   1.768   2.887   3.394
 1656SOL    HW2 5535   1.722   2.779   3.280
 1657SOL     OW 5536   0.859   3.236   1.878
 1657SOL    HW1 5537   0.813   3.251   1.966
 1657SOL    HW2 5538   0.903   3.321   1.848
 1658SOL     OW 5539   0.661   3.652   2.815
 1658SOL    HW1 5540   0.615   3.740   2.802
 1658SOL    HW2 5541   0.760   3.664   2.808
 1659SOL     OW 5542   0.859   2.818   2.723
 1659SOL    HW1 5543   0.913   2.749   2.771
 1659SOL    HW2 5544   0.827   2.887   2.789
 1660SOL     OW 5545   1.083   2.846   1.949
 1660SOL    HW1 5546   1.060   2.899   1.867
 1660SOL    HW2 5547   1.164   2.790   1.930
 1661SOL     OW 5548   1.861   3.431   2.713
 1661SOL    HW1 5549   1.790   3.419   2.643
 1661SOL    HW2 5550   1.862   3.352   2.773
 1662SOL     OW 5551   0.221   3.176   3.706
 1662SOL    HW1 5552   0.156   3.103   3.685
 1662SOL    HW2 5553   0.225   3.190   3.804
 1663SOL     OW 5554   0.079   3.102   2.515
 1663SOL    HW1 5555   0.078   3.055   2.603
 1663SOL    HW2 5556   0.161   3.074   2.464
 1664SOL     OW 5557   0.672   3.253   3.486
 1664SOL    HW1 5558   0.594   3.203   3.524
 1664SOL    HW2 5559   0.669   3.348   3.517
 1665SOL     OW 5560   1.824   2.054   3.089
 1665SOL    HW1 5561   1.820   1.964   3.133
 1665SOL    HW2 5562   1.827   2.043   2.990
 1666SOL     OW 5563   0.428   2.286   2.382
 1666SOL    HW1 5564   0.458   2.214   2.320
 1666SOL    HW2 5565   0.389   2.246   2.465
 1667SOL     OW 5566   1.705   3.349   2.966
 1667SOL    HW1 5567   1.612   3.324   2.939
 1667SOL    HW2 5568   1.731   3.299   3.048
 1668SOL     OW 5569   0.317   2.409   3.142
 1668SOL    HW1 5570   0.355   2.350   3.214
 1668SOL    HW2 5571   0.357   2.383   3.054
 1669SOL     OW 5572   0.812   3.448   2.549
 1669SOL    HW1 5573   0.844   3.458   2.455
 1669SOL    HW2 5574   0.733   3.386   2.551
 1670SOL     OW 5575   1.424   2.076   2.974
 1670SOL    HW1 5576   1.476   2.011   3.029
 1670SOL    HW2 5577   1.375   2.139   3.035
 1671SOL     OW 5578   1.001   1.896   3.016
 1671SOL    HW1 5579   0.938   1.824   2.985
 1671SOL    HW2 5580   1.094   1.860   3.016
 1672SOL     OW 5581   0.770   3.192   2.163
 1672SOL    HW1 5582   0.724   3.105   2.180
 1672SOL    HW2 5583   0.861   3.189   2.204
 1673SOL     OW 5584   0.618   3.429   3.146
 1673SOL    HW1 5585   0.613   3.511   3.203
 1673SOL    HW2 5586   0.707   3.426   3.101
 1674SOL     OW 5587   1.352   1.914   2.030
 1674SOL    HW1 5588   1.387   1.873   1.946
 1674SOL    HW2 5589   1.262   1.876   2.050
 1675SOL     OW 5590   1.300   2.315   2.553
 1675SOL    HW1 5591   1.241   2.395   2.557
 1675SOL    HW2 5592   1.315   2.280   2.646
 1676SOL     OW 5593   1.593   2.083   2.744
 1676SOL    HW1 5594   1.509   2.082   2.798
 1676SOL    HW2 5595   1.595   2.166   2.688
 1677SOL     OW 5596   0.039   2.939   2.162
 1677SOL    HW1 5597   0.138   2.928   2.153
 1677SOL    HW2 5598  -0.001   2.853   2.194
 1678SOL     OW 5599   0.875   3.508   2.199
 1678SOL    HW1 5600   0.798   3.473   2.145
 1678SOL    HW2 5601   0.843   3.579   2.261
 1679SOL     OW 5602   0.230   2.490   3.837
 1679SOL    HW1 5603   0.137   2.488   3.874
 1679SOL    HW2 5604   0.231   2.451   3.745
 1680SOL     OW 5605   0.225   2.137   4.720
 1680SOL    HW1 5606   0.260   2.120   4.812
 1680SOL    HW2 5607   0.137   2.092   4.708
 1681SOL     OW 5608   0.019   2.230   4.371
 1681SOL    HW1 5609  -0.063   2.273   4.410
 1681SOL    HW2 5610  -0.009   2.157   4.308
 1682SOL     OW 5611   0.569   3.137   4.889
 1682SOL    HW1 5612   0.476   3.130   4.852
 1682SOL    HW2 5613   0.580   3.226   4.933
 1683SOL     OW 5614   1.555   3.373   4.427
 1683SOL    HW1 5615   1.498   3.357   4.508
 1683SOL    HW2 5616   1.496   3.383   4.347
 1684SOL     OW 5617   1.135   2.565   4.441
 1684SOL    HW1 5618   1.192   2.643   4.416
 1684SOL    HW2 5619   1.075   2.591   4.517
 1685SOL     OW 5620   1.755   2.469   3.955
 1685SOL    HW1 5621   1.743   2.456   3.856
 1685SOL    HW2 5622   1.725   2.388   4.004
 1686SOL     OW 5623   0.768   3.006   4.747
 1686SOL    HW1 5624   0.690   3.023   4.807
 1686SOL    HW2 5625   0.802   3.093   4.711
 1687SOL     OW 5626   0.850   2.660   5.547
 1687SOL    HW1 5627   0.846   2.736   5.612
 1687SOL    HW2 5628   0.872   2.696   5.456
 1688SOL     OW 5629   0.685   2.874   4.389
 1688SOL    HW1 5630   0.754   2.858   4.459
 1688SOL    HW2 5631   0.612   2.931   4.427
 1689SOL     OW 5632   0.686   3.023   5.527
 1689SOL    HW1 5633   0.746   3.102   5.541
 1689SOL    HW2 5634   0.600   3.054   5.486
 1690SOL     OW 5635   0.335   3.297   4.785
 1690SOL    HW1 5636   0.257   3.266   4.732
 1690SOL    HW2 5637   0.393   3.355   4.728
 1691SOL     OW 5638   1.460   3.367   5.063
 1691SOL    HW1 5639   1.484   3.461   5.089
 1691SOL    HW2 5640   1.444   3.313   5.145
 1692SOL     OW 5641   0.438   2.254   5.223
 1692SOL    HW1 5642   0.520   2.198   5.232
 1692SOL    HW2 5643   0.357   2.196   5.227
 1693SOL     OW 5644   0.231   3.575   4.207
 1693SOL    HW1 5645   0.265   3.652   4.261
 1693SOL    HW2 5646   0.275   3.575   4.117
 1694SOL     OW 5647   1.127   3.203   5.414
 1694SOL    HW1 5648   1.174   3.203   5.502
 1694SOL    HW2 5649   1.079   3.116   5.403
 1695SOL     OW 5650   0.230   3.296   4.262
 1695SOL    HW1 5651   0.204   3.392   4.262
 1695SOL    HW2 5652   0.159   3.242   4.307
 1696SOL     OW 5653   0.240   2.953   4.610
 1696SOL    HW1 5654   0.254   2.869   4.662
 1696SOL    HW2 5655   0.185   3.017   4.665
 1697SOL     OW 5656   0.620   3.648   5.163
 1697SOL    HW1 5657   0.528   3.631   5.198
 1697SOL    HW2 5658   0.648   3.740   5.189
 1698SOL     OW 5659   0.606   2.826   3.847
 1698SOL    HW1 5660   0.613   2.910   3.793
 1698SOL    HW2 5661   0.652   2.839   3.935
 1699SOL     OW 5662   0.122   2.505   4.287
 1699SOL    HW1 5663   0.077   2.417   4.304
 1699SOL    HW2 5664   0.121   2.559   4.371
 1700SOL     OW 5665   1.842   3.629   4.083
 1700SOL    HW1 5666   1.896   3.600   4.163
 1700SOL    HW2 5667   1.872   3.719   4.054
 1701SOL     OW 5668   0.027   3.458   3.841
 1701SOL    HW1 5669   0.008   3.362   3.862
 1701SOL    HW2 5670  -0.006   3.516   3.916
 1702SOL     OW 5671   1.689   2.784   4.336
 1702SOL    HW1 5672   1.784   2.755   4.344
 1702SOL    HW2 5673   1.681   2.849   4.261
 1703SOL     OW 5674   1.641   2.970   4.156
 1703SOL    HW1 5675   1.727   2.972   4.104
 1703SOL    HW2 5676   1.655   3.017   4.244
 1704SOL     OW 5677   0.113   2.599   5.321
 1704SOL    HW1 5678   0.201   2.586   5.366
 1704SOL    HW2 5679   0.100   2.696   5.299
 1705SOL     OW 5680   0.613   3.227   4.450
 1705SOL    HW1 5681   0.564   3.140   4.459
 1705SOL    HW2 5682   0.590   3.270   4.363
 1706SOL     OW 5683   1.293   3.090   5.147
 1706SOL    HW1 5684   1.330   3.017   5.089
 1706SOL    HW2 5685   1.345   3.095   5.232
 1707SOL     OW 5686   0.809   1.866   4.226
 1707SOL    HW1 5687   0.849   1.957   4.217
 1707SOL    HW2 5688   0.709   1.874   4.232
 1708SOL     OW 5689   0.197   2.838   4.988
 1708SOL    HW1 5690   0.286   2.793   4.974
 1708SOL    HW2 5691   0.124   2.773   4.969
 1709SOL     OW 5692   1.525   2.861   3.914
 1709SOL    HW1 5693   1.462   2.785   3.927
 1709SOL    HW2 5694   1.573   2.879   4.000
 1710SOL     OW 5695   1.187   3.654   5.340
 1710SOL    HW1 5696   1.211   3.714   5.264
 1710SOL    HW2 5697   1.194   3.559   5.310
 1711SOL     OW 5698   0.317   2.113   5.525
 1711SOL    HW1 5699   0.388   2.184   5.531
 1711SOL    HW2 5700   0.229   2.152   5.553
 1712SOL     OW 5701   1.466   3.279   4.677
 1712SOL    HW1 5702   1.407   3.285   4.757
 1712SOL    HW2 5703   1.451   3.191   4.631
 1713SOL     OW 5704   1.667   3.576   4.296
 1713SOL    HW1 5705   1.626   3.553   4.208
 1713SOL    HW2 5706   1.649   3.502   4.361
 1714SOL     OW 5707   0.598   2.591   3.994
 1714SOL    HW1 5708   0.622   2.660   3.926
 1714SOL    HW2 5709   0.520   2.624   4.048
 1715SOL     OW 5710   1.281   2.207   4.668
 1715SOL    HW1 5711   1.195   2.157   4.655
 1715SOL    HW2 5712   1.343   2.153   4.724
 1716SOL     OW 5713   1.576   3.524   4.031
 1716SOL    HW1 5714   1.665   3.570   4.034
 1716SOL    HW2 5715   1.555   3.500   3.936
 1717SOL     OW 5716   0.807   2.467   5.189
 1717SOL    HW1 5717   0.760   2.464   5.278
 1717SOL    HW2 5718   0.756   2.412   5.123
 1718SOL     OW 5719   0.973   2.752   5.296
 1718SOL    HW1 5720   1.019   2.668   5.267
 1718SOL    HW2 5721   0.917   2.786   5.221
 1719SOL     OW 5722   0.991   2.272   4.966
 1719SOL    HW1 5723   0.914   2.306   5.020
 1719SOL    HW2 5724   0.957   2.221   4.887
 1720SOL     OW 5725   1.041   2.563   4.153
 1720SOL    HW1 5726   1.067   2.559   4.249
 1720SOL    HW2 5727   0.956   2.512   4.139
 1721SOL     OW 5728   0.076   2.673   4.513
 1721SOL    HW1 5729   0.175   2.661   4.522
 1721SOL    HW2 5730   0.052   2.768   4.534
 1722SOL     OW 5731   0.130   3.683   5.295
 1722SOL    HW1 5732   0.120   3.668   5.394
 1722SOL    HW2 5733   0.044   3.719   5.259
 1723SOL     OW 5734   0.865   2.210   3.919
 1723SOL    HW1 5735   0.924   2.273   3.870
 1723SOL    HW2 5736   0.884   2.116   3.890
 1724SOL     OW 5737   1.362   3.006   4.269
 1724SOL    HW1 5738   1.445   2.977   4.221
 1724SOL    HW2 5739   1.313   3.073   4.213
 1725SOL     OW 5740   0.550   2.058   4.609
 1725SOL    HW1 5741   0.545   2.053   4.709
 1725SOL    HW2 5742   0.552   2.154   4.580
 1726SOL     OW 5743   1.008   3.318   4.201
 1726SOL    HW1 5744   0.962   3.390   4.149
 1726SOL    HW2 5745   1.004   3.338   4.299
 1727SOL     OW 5746   0.351   3.663   4.577
 1727SOL    HW1 5747   0.401   3.577   4.583
 1727SOL    HW2 5748   0.416   3.740   4.574
 1728SOL     OW 5749   1.795   2.928   4.597
 1728SOL    HW1 5750   1.733   2.913   4.521
 1728SOL    HW2 5751   1.743   2.939   4.682
 1729SOL     OW 5752   1.227   3.412   5.230
 1729SOL    HW1 5753   1.233   3.335   5.294
 1729SOL    HW2 5754   1.175   3.386   5.150
 1730SOL     OW 5755   0.321   2.805   3.966
 1730SOL    HW1 5756   0.403   2.844   3.924
 1730SOL    HW2 5757   0.294   2.723   3.917
 1731SOL     OW 5758   1.458   2.597   4.452
 1731SOL    HW1 5759   1.453   2.532   4.527
 1731SOL    HW2 5760   1.538   2.656   4.465
 1732SOL     OW 5761   0.461   3.128   5.451
 1732SOL    HW1 5762   0.411   3.129   5.365
 1732SOL    HW2 5763   0.398   3.110   5.527
 1733SOL     OW 5764   1.111   3.638   3.961
 1733SOL    HW1 5765   1.051   3.576   4.011
 1733SOL    HW2 5766   1.142   3.594   3.876
 1734SOL     OW 5767   0.202   2.147   5.222
 1734SOL    HW1 5768   0.122   2.207   5.209
 1734SOL    HW2 5769   0.192   2.098   5.308
 1735SOL     OW 5770   1.632   3.239   3.805
 1735SOL    HW1 5771   1.600   3.333   3.795
 1735SOL    HW2 5772   1.556   3.176   3.793
 1736SOL     OW 5773   0.464   3.605   4.047
 1736SOL    HW1 5774   0.497   3.644   4.133
 1736SOL    HW2 5775   0.540   3.598   3.982
 1737SOL     OW 5776   1.400   1.969   4.150
 1737SOL    HW1 5777   1.376   1.932   4.060
 1737SOL    HW2 5778   1.499   1.985   4.154
 1738SOL     OW 5779   0.249   3.647   4.965
 1738SOL    HW1 5780   0.306   3.582   5.015
 1738SOL    HW2 5781   0.233   3.614   4.872
 1739SOL     OW 5782   0.940   3.560   4.628
 1739SOL    HW1 5783   1.020   3.503   4.649
 1739SOL    HW2 5784   0.891   3.520   4.551
 1740SOL     OW 5785   0.382   2.562   4.204
 1740SOL    HW1 5786   0.427   2.472   4.201
 1740SOL    HW2 5787   0.288   2.551   4.237
 1741SOL     OW 5788   0.614   1.984   3.841
 1741SOL    HW1 5789   0.712   1.962   3.848
 1741SOL    HW2 5790   0.583   1.967   3.748
 1742SOL     OW 5791   0.781   2.126   5.473
 1742SOL    HW1 5792   0.848   2.065   5.516
 1742SOL    HW2 5793   0.708   2.145   5.538
 1743SOL     OW 5794   0.888   3.376   4.919
 1743SOL    HW1 5795   0.865   3.351   4.825
 1743SOL    HW2 5796   0.949   3.307   4.958
 1744SOL     OW 5797   1.351   2.452   5.157
 1744SOL    HW1 5798   1.379   2.409   5.242
 1744SOL    HW2 5799   1.376   2.548   5.158
 1745SOL     OW 5800   0.803   3.264   4.648
 1745SOL    HW1 5801   0.893   3.278   4.606
 1745SOL    HW2 5802   0.732   3.266   4.577
 1746SOL     OW 5803   0.922   2.365   4.623
 1746SOL    HW1 5804   0.897   2.356   4.527
 1746SOL    HW2 5805   0.970   2.283   4.654
 1747SOL     OW 5806   0.539   1.926   4.236
 1747SOL    HW1 5807   0.458   1.927   4.294
 1747SOL    HW2 5808   0.542   2.009   4.181
 1748SOL     OW 5809   1.434   3.050   3.765
 1748SOL    HW1 5810   1.466   2.974   3.822
 1748SOL    HW2 5811   1.342   3.077   3.795
 1749SOL     OW 5812   0.297   1.897   3.895
 1749SOL    HW1 5813   0.346   1.981   3.874
 1749SOL    HW2 5814   0.359   1.832   3.940
 1750SOL     OW 5815   0.935   2.098   4.204
 1750SOL    HW1 5816   0.887   2.139   4.126
 1750SOL    HW2 5817   1.034   2.096   4.185
 1751SOL     OW 5818   1.076   2.545   5.188
 1751SOL    HW1 5819   0.996   2.484   5.191
 1751SOL    HW2 5820   1.157   2.492   5.164
 1752SOL     OW 5821   1.227   3.432   4.517
 1752SOL    HW1 5822   1.248   3.506   4.452
 1752SOL    HW2 5823   1.295   3.432   4.590
 1753SOL     OW 5824   0.459   3.014   4.465
 1753SOL    HW1 5825   0.388   2.987   4.530
 1753SOL    HW2 5826   0.433   2.986   4.372
 1754SOL     OW 5827   1.271   3.659   4.315
 1754SOL    HW1 5828   1.315   3.723   4.251
 1754SOL    HW2 5829   1.221   3.711   4.385
 1755SOL     OW 5830   1.032   2.411   3.740
 1755SOL    HW1 5831   0.991   2.493   3.701
 1755SOL    HW2 5832   1.096   2.437   3.813
 1756SOL     OW 5833   0.078   2.418   5.110
 1756SOL    HW1 5834   0.170   2.417   5.069
 1756SOL    HW2 5835   0.072   2.492   5.177
 1757SOL     OW 5836   0.561   2.084   4.871
 1757SOL    HW1 5837   0.599   2.000   4.908
 1757SOL    HW2 5838   0.473   2.103   4.915
 1758SOL     OW 5839   0.866   2.316   4.366
 1758SOL    HW1 5840   0.834   2.388   4.304
 1758SOL    HW2 5841   0.890   2.235   4.313
 1759SOL     OW 5842   1.017   1.901   4.477
 1759SOL    HW1 5843   0.945   1.906   4.408
 1759SOL    HW2 5844   0.993   1.832   4.546
 1760SOL     OW 5845   1.429   3.035   4.591
 1760SOL    HW1 5846   1.374   2.951   4.584
 1760SOL    HW2 5847   1.455   3.064   4.499
 1761SOL     OW 5848   1.857   2.695   4.101
 1761SOL    HW1 5849   1.899   2.631   4.165
 1761SOL    HW2 5850   1.819   2.644   4.023
 1762SOL     OW 5851   0.488   3.247   3.898
 1762SOL    HW1 5852   0.401   3.232   3.945
 1762SOL    HW2 5853   0.471   3.273   3.803
 1763SOL     OW 5854   1.664   3.142   4.381
 1763SOL    HW1 5855   1.763   3.150   4.395
 1763SOL    HW2 5856   1.619   3.226   4.412
 1764SOL     OW 5857   1.390   2.437   3.802
 1764SOL    HW1 5858   1.336   2.416   3.883
 1764SOL    HW2 5859   1.481   2.396   3.811
 1765SOL     OW 5860   0.527   2.118   4.052
 1765SOL    HW1 5861   0.554   2.059   3.977
 1765SOL    HW2 5862   0.527   2.213   4.021
 1766SOL     OW 5863   1.754   3.085   5.312
 1766SOL    HW1 5864   1.845   3.046   5.299
 1766SOL    HW2 5865   1.762   3.181   5.336
 1767SOL     OW 5866   1.064   3.209   5.064
 1767SOL    HW1 5867   0.984   3.186   5.119
 1767SOL    HW2 5868   1.147   3.183   5.113
 1768SOL     OW 5869   1.592   3.491   5.349
 1768SOL    HW1 5870   1.619   3.525   5.259
 1768SOL    HW2 5871   1.671   3.453   5.395
 1769SOL     OW 5872   1.111   3.057   4.824
 1769SOL    HW1 5873   1.071   3.101   4.905
 1769SOL    HW2 5874   1.070   3.094   4.741
 1770SOL     OW 5875   1.638   2.961   4.803
 1770SOL    HW1 5876   1.643   3.042   4.862
 1770SOL    HW2 5877   1.552   2.963   4.752
 1771SOL     OW 5878   0.915   1.951   5.126
 1771SOL    HW1 5879   0.940   1.931   5.031
 1771SOL    HW2 5880   0.987   2.007   5.168
 1772SOL     OW 5881   0.980   2.978   5.443
 1772SOL    HW1 5882   0.881   2.984   5.453
 1772SOL    HW2 5883   1.003   2.898   5.387
 1773SOL     OW 5884   0.705   2.912   4.092
 1773SOL    HW1 5885   0.691   2.919   4.191
 1773SOL    HW2 5886   0.789   2.861   4.074
 1774SOL     OW 5887   0.410   2.675   4.975
 1774SOL    HW1 5888   0.496   2.687   5.025
 1774SOL    HW2 5889   0.368   2.588   5.002
 1775SOL     OW 5890   1.274   2.248   4.986
 1775SOL    HW1 5891   1.295   2.322   5.050
 1775SOL    HW2 5892   1.185   2.265   4.943
 1776SOL     OW 5893   0.064   3.426   5.055
 1776SOL    HW1 5894   0.018   3.508   5.021
 1776SOL    HW2 5895   0.162   3.445   5.064
 1777SOL     OW 5896   0.367   2.962   4.225
 1777SOL    HW1 5897   0.360   3.045   4.169
 1777SOL    HW2 5898   0.371   2.882   4.165
 1778SOL     OW 5899   0.566   2.399   4.589
 1778SOL    HW1 5900   0.578   2.465   4.515
 1778SOL    HW2 5901   0.612   2.433   4.672
 1779SOL     OW 5902   1.252   3.210   4.112
 1779SOL    HW1 5903   1.302   3.287   4.152
 1779SOL    HW2 5904   1.157   3.212   4.144
 1780SOL     OW 5905   1.272   3.307   4.866
 1780SOL    HW1 5906   1.319   3.320   4.953
 1780SOL    HW2 5907   1.206   3.233   4.875
 1781SOL     OW 5908   1.582   2.501   4.196
 1781SOL    HW1 5909   1.551   2.562   4.269
 1781SOL    HW2 5910   1.632   2.553   4.127
 1782SOL     OW 5911   0.354   3.372   5.053
 1782SOL    HW1 5912   0.333   3.328   4.966
 1782SOL    HW2 5913   0.451   3.398   5.056
 1783SOL     OW 5914   0.402   2.613   5.322
 1783SOL    HW1 5915   0.470   2.668   5.275
 1783SOL    HW2 5916   0.442   2.525   5.349
 1784SOL     OW 5917   1.587   2.641   5.394
 1784SOL    HW1 5918   1.495   2.679   5.389
 1784SOL    HW2 5919   1.647   2.688   5.329
 1785SOL     OW 5920   1.013   1.967   5.494
 1785SOL    HW1 5921   1.019   2.052   5.442
 1785SOL    HW2 5922   1.045   1.891   5.437
 1786SOL     OW 5923   0.504   1.912   5.464
 1786SOL    HW1 5924   0.462   1.855   5.394
 1786SOL    HW2 5925   0.438   1.981   5.496
 1787SOL     OW 5926   0.573   2.732   4.753
 1787SOL    HW1 5927   0.617   2.821   4.744
 1787SOL    HW2 5928   0.510   2.732   4.830
 1788SOL     OW 5929   1.360   2.724   4.769
 1788SOL    HW1 5930   1.285   2.724   4.703
 1788SOL    HW2 5931   1.397   2.632   4.778
 1789SOL     OW 5932   1.209   2.387   3.999
 1789SOL    HW1 5933   1.222   2.303   4.053
 1789SOL    HW2 5934   1.180   2.461   4.059
 1790SOL     OW 5935   0.307   2.075   4.955
 1790SOL    HW1 5936   0.284   2.112   5.045
 1790SOL    HW2 5937   0.277   1.980   4.949
 1791SOL     OW 5938   0.037   3.172   5.006
 1791SOL    HW1 5939   0.090   3.123   5.074
 1791SOL    HW2 5940   0.059   3.270   5.011
 1792SOL     OW 5941   0.732   2.496   4.788
 1792SOL    HW1 5942   0.791   2.470   4.712
 1792SOL    HW2 5943   0.704   2.592   4.777
 1793SOL     OW 5944   0.307   1.925   4.342
 1793SOL    HW1 5945   0.296   2.019   4.375
 1793SOL    HW2 5946   0.302   1.862   4.419
 1794SOL     OW 5947   1.622   2.229   4.098
 1794SOL    HW1 5948   1.624   2.153   4.162
 1794SOL    HW2 5949   1.574   2.306   4.138
 1795SOL     OW 5950   1.023   2.628   4.690
 1795SOL    HW1 5951   1.038   2.649   4.786
 1795SOL    HW2 5952   0.993   2.533   4.681
 1796SOL     OW 5953   0.980   3.435   5.424
 1796SOL    HW1 5954   0.960   3.479   5.336
 1796SOL    HW2 5955   1.019   3.344   5.408
 1797SOL     OW 5956   1.859   3.380   5.329
 1797SOL    HW1 5957   1.873   3.407   5.234
 1797SOL    HW2 5958   1.942   3.402   5.382
 1798SOL     OW 5959   0.350   2.760   5.528
 1798SOL    HW1 5960   0.426   2.804   5.576
 1798SOL    HW2 5961   0.385   2.713   5.446
 1799SOL     OW 5962   1.540   2.136   3.849
 1799SOL    HW1 5963   1.479   2.061   3.872
 1799SOL    HW2 5964   1.562   2.188   3.932
 1800SOL     OW 5965   1.303   2.700   3.766
 1800SOL    HW1 5966   1.337   2.607   3.781
 1800SOL    HW2 5967   1.321   2.727   3.671
 1801SOL     OW 5968   1.068   3.195   4.573
 1801SOL    HW1 5969   1.075   3.111   4.518
 1801SOL    HW2 5970   1.130   3.264   4.537
 1802SOL     OW 5971   0.319   2.672   4.673
 1802SOL    HW1 5972   0.412   2.708   4.678
 1802SOL    HW2 5973   0.313   2.587   4.725
 1803SOL     OW 5974   0.339   2.371   4.730
 1803SOL    HW1 5975   0.287   2.288   4.713
 1803SOL    HW2 5976   0.416   2.376   4.666
 1804SOL     OW 5977   1.138   2.242   5.402
 1804SOL    HW1 5978   1.093   2.305   5.466
 1804SOL    HW2 5979   1.231   2.273   5.385
 1805SOL     OW 5980   1.160   2.069   5.201
 1805SOL    HW1 5981   1.160   2.133   5.278
 1805SOL    HW2 5982   1.188   2.117   5.118
 1806SOL     OW 5983   0.008   3.188   3.924
 1806SOL    HW1 5984  -0.085   3.209   3.893
 1806SOL    HW2 5985   0.018   3.089   3.937
 1807SOL     OW 5986   0.088   3.663   4.651
 1807SOL    HW1 5987   0.046   3.577   4.624
 1807SOL    HW2 5988   0.182   3.666   4.617
 1808SOL     OW 5989   0.504   3.430   4.634
 1808SOL    HW1 5990   0.570   3.504   4.643
 1808SOL    HW2 5991   0.548   3.351   4.592
 1809SOL     OW 5992   1.002   2.658   4.962
 1809SOL    HW1 5993   1.043   2.626   5.048
 1809SOL    HW2 5994   0.906   2.631   4.959
 1810SOL     OW 5995   0.040   2.406   4.838
 1810SOL    HW1 5996   0.125   2.373   4.797
 1810SOL    HW2 5997   0.053   2.421   4.936
 1811SOL     OW 5998   0.189   2.382   5.446
 1811SOL    HW1 5999   0.248   2.342   5.376
 1811SOL    HW2 6000   0.131   2.453   5.405
 1812SOL     OW 6001   1.369   2.812   5.384
 1812SOL    HW1 6002   1.408   2.901   5.404
 1812SOL    HW2 6003   1.379   2.792   5.287
 1813SOL     OW 6004   0.815   2.434   4.049
 1813SOL    HW1 6005   0.822   2.345   4.003
 1813SOL    HW2 6006   0.721   2.468   4.041
 1814SOL     OW 6007   0.252   3.426   5.468
 1814SOL    HW1 6008   0.222   3.483   5.544
 1814SOL    HW2 6009   0.245   3.329   5.494
 1815SOL     OW 6010   0.671   2.326   4.993
 1815SOL    HW1 6011   0.637   2.237   4.963
 1815SOL    HW2 6012   0.697   2.380   4.913
 1816SOL     OW 6013   0.930   3.540   5.189
 1816SOL    HW1 6014   0.906   3.522   5.094
 1816SOL    HW2 6015   0.960   3.634   5.199
 1817SOL     OW 6016   0.473   2.362   3.915
 1817SOL    HW1 6017   0.534   2.442   3.919
 1817SOL    HW2 6018   0.378   2.393   3.922
 1818SOL     OW 6019   0.159   2.999   5.190
 1818SOL    HW1 6020   0.181   2.938   5.266
 1818SOL    HW2 6021   0.169   2.950   5.104
 1819SOL     OW 6022   1.347   2.921   4.958
 1819SOL    HW1 6023   1.371   2.858   4.884
 1819SOL    HW2 6024   1.257   2.961   4.940
 1820SOL     OW 6025   1.302   2.717   4.033
 1820SOL    HW1 6026   1.216   2.686   4.075
 1820SOL    HW2 6027   1.298   2.703   3.934
 1821SOL     OW 6028   1.759   3.609   4.878
 1821SOL    HW1 6029   1.820   3.639   4.805
 1821SOL    HW2 6030   1.721   3.520   4.856
 1822SOL     OW 6031   1.252   3.593   4.852
 1822SOL    HW1 6032   1.336   3.598   4.798
 1822SOL    HW2 6033   1.229   3.497   4.870
 1823SOL     OW 6034   0.083   3.120   4.746
 1823SOL    HW1 6035   0.078   3.119   4.846
 1823SOL    HW2 6036   0.000   3.079   4.708
 1824SOL     OW 6037   0.688   3.524   5.440
 1824SOL    HW1 6038   0.632   3.605   5.449
 1824SOL    HW2 6039   0.740   3.528   5.354
 1825SOL     OW 6040   1.726   1.997   4.247
 1825SOL    HW1 6041   1.799   1.980   4.180
 1825SOL    HW2 6042   1.695   1.910   4.285
 1826SOL     OW 6043   1.388   3.435   4.201
 1826SOL    HW1 6044   1.455   3.447   4.127
 1826SOL    HW2 6045   1.348   3.524   4.224
 1827SOL     OW 6046   0.130   3.656   5.575
 1827SOL    HW1 6047   0.089   3.582   5.628
 1827SOL    HW2 6048   0.194   3.707   5.633
 1828SOL     OW 6049   1.280   2.789   4.396
 1828SOL    HW1 6050   1.340   2.708   4.398
 1828SOL    HW2 6051   1.320   2.858   4.336
 1829SOL     OW 6052   0.830   3.135   5.146
 1829SOL    HW1 6053   0.825   3.168   5.241
 1829SOL    HW2 6054   0.744   3.154   5.100
 1830SOL     OW 6055   0.672   3.478   3.878
 1830SOL    HW1 6056   0.681   3.488   3.779
 1830SOL    HW2 6057   0.632   3.389   3.899
 1831SOL     OW 6058   1.650   3.582   5.118
 1831SOL    HW1 6059   1.703   3.592   5.034
 1831SOL    HW2 6060   1.623   3.672   5.152
 1832SOL     OW 6061   0.263   2.188   4.444
 1832SOL    HW1 6062   0.184   2.239   4.410
 1832SOL    HW2 6063   0.254   2.173   4.542
 1833SOL     OW 6064   1.194   3.474   3.755
 1833SOL    HW1 6065   1.200   3.381   3.792
 1833SOL    HW2 6066   1.135   3.474   3.675
 1834SOL     OW 6067   0.822   2.864   5.096
 1834SOL    HW1 6068   0.862   2.863   5.004
 1834SOL    HW2 6069   0.832   2.956   5.136
 1835SOL     OW 6070   0.916   2.772   4.015
 1835SOL    HW1 6071   0.979   2.810   3.947
 1835SOL    HW2 6072   0.956   2.689   4.054
 1836SOL     OW 6073   1.504   3.469   3.768
 1836SOL    HW1 6074   1.412   3.506   3.775
 1836SOL    HW2 6075   1.542   3.489   3.678
 1837SOL     OW 6076   0.372   3.150   5.214
 1837SOL    HW1 6077   0.359   3.243   5.180
 1837SOL    HW2 6078   0.288   3.098   5.201
 1838SOL     OW 6079   1.614   3.154   5.013
 1838SOL    HW1 6080   1.674   3.157   5.093
 1838SOL    HW2 6081   1.539   3.218   5.026
 1839SOL     OW 6082   1.039   2.960   4.420
 1839SOL    HW1 6083   0.969   2.913   4.474
 1839SOL    HW2 6084   1.098   2.892   4.377
 1840SOL     OW 6085   1.014   2.098   4.695
 1840SOL    HW1 6086   1.006   2.062   4.602
 1840SOL    HW2 6087   1.012   2.022   4.760
 1841SOL     OW 6088   0.590   3.349   4.215
 1841SOL    HW1 6089   0.632   3.291   4.145
 1841SOL    HW2 6090   0.546   3.428   4.171
 1842SOL     OW 6091   0.255   3.210   4.014
 1842SOL    HW1 6092   0.159   3.211   3.987
 1842SOL    HW2 6093   0.267   3.263   4.098
 1843SOL     OW 6094   0.105   2.875   5.450
 1843SOL    HW1 6095   0.028   2.842   5.504
 1843SOL    HW2 6096   0.190   2.845   5.492
 1844SOL     OW 6097   0.672   2.065   5.213
 1844SOL    HW1 6098   0.762   2.049   5.173
 1844SOL    HW2 6099   0.680   2.070   5.312
 1845SOL     OW 6100   0.075   2.207   3.757
 1845SOL    HW1 6101  -0.017   2.179   3.728
 1845SOL    HW2 6102   0.106   2.284   3.701
 1846SOL     OW 6103   1.440   2.718   5.122
 1846SOL    HW1 6104   1.383   2.770   5.059
 1846SOL    HW2 6105   1.536   2.730   5.098
 1847SOL     OW 6106   0.072   2.028   4.042
 1847SOL    HW1 6107   0.055   2.111   3.988
 1847SOL    HW2 6108   0.162   1.991   4.020
 1848SOL     OW 6109   1.183   3.197   3.843
 1848SOL    HW1 6110   1.084   3.186   3.845
 1848SOL    HW2 6111   1.217   3.212   3.936
 1849SOL     OW 6112   0.613   2.704   5.155
 1849SOL    HW1 6113   0.669   2.785   5.138
 1849SOL    HW2 6114   0.672   2.624   5.158
 1850SOL     OW 6115   1.493   3.629   4.683
 1850SOL    HW1 6116   1.526   3.693   4.614
 1850SOL    HW2 6117   1.559   3.623   4.758
 1851SOL     OW 6118   0.716   2.427   5.432
 1851SOL    HW1 6119   0.735   2.492   5.506
 1851SOL    HW2 6120   0.776   2.347   5.441
 1852SOL     OW 6121   1.450   3.082   5.357
 1852SOL    HW1 6122   1.441   3.072   5.456
 1852SOL    HW2 6123   1.546   3.075   5.331
 1853SOL     OW 6124   0.390   3.603   5.284
 1853SOL    HW1 6125   0.299   3.644   5.282
 1853SOL    HW2 6126   0.383   3.509   5.316
 1854SOL     OW 6127   1.674   2.745   4.978
 1854SOL    HW1 6128   1.647   2.656   4.941
 1854SOL    HW2 6129   1.675   2.813   4.905
 1855SOL     OW 6130   1.225   2.187   4.173
 1855SOL    HW1 6131   1.290   2.113   4.162
 1855SOL    HW2 6132   1.245   2.237   4.257
 1856SOL     OW 6133   0.594   2.607   4.376
 1856SOL    HW1 6134   0.644   2.692   4.357
 1856SOL    HW2 6135   0.506   2.609   4.328
 1857SOL     OW 6136   0.859   3.236   3.740
 1857SOL    HW1 6137   0.813   3.251   3.828
 1857SOL    HW2 6138   0.903   3.321   3.710
 1858SOL     OW 6139   0.661   3.652   4.677
 1858SOL    HW1 6140   0.615   3.740   4.664
 1858SOL    HW2 6141   0.760   3.664   4.670
 1859SOL     OW 6142   0.859   2.818   4.585
 1859SOL    HW1 6143   0.913   2.749   4.633
 1859SOL    HW2 6144   0.827   2.887   4.651
 1860SOL     OW 6145   1.083   2.846   3.811
 1860SOL    HW1 6146   1.060   2.899   3.729
 1860SOL    HW2 6147   1.164   2.790   3.792
 1861SOL     OW 6148   1.861   3.431   4.575
 1861SOL    HW1 6149   1.790   3.419   4.505
 1861SOL    HW2 6150   1.862   3.352   4.635
 1862SOL     OW 6151   0.221   3.176   5.568
 1862SOL    HW1 6152   0.156   3.103   5.547
 1862SOL    HW2 6153   0.225   3.190   5.666
 1863SOL     OW 6154   0.079   3.102   4.377
 1863SOL    HW1 6155   0.078   3.055   4.465
 1863SOL    HW2 6156   0.161   3.074   4.326
 1864SOL     OW 6157   0.672   3.253   5.348
 1864SOL    HW1 6158   0.594   3.203   5.386
 1864SOL    HW2 6159   0.669   3.348   5.379
 1865SOL     OW 6160   0.428   2.286   4.244
 1865SOL    HW1 6161   0.458   2.214   4.182
 1865SOL    HW2 6162   0.389   2.246   4.327
 1866SOL     OW 6163   1.705   3.349   4.828
 1866SOL    HW1 6164   1.612   3.324   4.801
 1866SOL    HW2 6165   1.731   3.299   4.910
 1867SOL     OW 6166   0.317   2.409   5.004
 1867SOL    HW1 6167   0.355   2.350   5.076
 1867SOL    HW2 6168   0.357   2.383   4.916
 1868SOL     OW 6169   0.812   3.448   4.411
 1868SOL    HW1 6170   0.844   3.458   4.317
 1868SOL    HW2 6171   0.733   3.386   4.413
 1869SOL     OW 6172   1.424   2.076   4.836
 1869SOL    HW1 6173   1.476   2.011   4.891
 1869SOL    HW2 6174   1.375   2.139   4.897
 1870SOL     OW 6175   1.001   1.896   4.878
 1870SOL    HW1 6176   0.938   1.824   4.847
 1870SOL    HW2 6177   1.094   1.860   4.878
 1871SOL     OW 6178   0.770   3.192   4.025
 1871SOL    HW1 6179   0.724   3.105   4.042
 1871SOL    HW2 6180   0.861   3.189   4.066
 1872SOL     OW 6181   0.618   3.429   5.008
 1872SOL    HW1 6182   0.613   3.511   5.065
 1872SOL    HW2 6183   0.707   3.426   4.963
 1873SOL     OW 6184   1.352   1.914   3.892
 1873SOL    HW1 6185   1.387   1.873   3.808
 1873SOL    HW2 6186   1.262   1.876   3.912
 1874SOL     OW 6187   1.300   2.315   4.415
 1874SOL    HW1 6188   1.241   2.395   4.419
 1874SOL    HW2 6189   1.315   2.280   4.508
 1875SOL     OW 6190   1.593   2.083   4.606
 1875SOL    HW1 6191   1.509   2.082   4.660
 1875SOL    HW2 6192   1.595   2.166   4.550
 1876SOL     OW 6193   0.039   2.939   4.024
 1876SOL    HW1 6194   0.138   2.928   4.015
 1876SOL    HW2 6195  -0.001   2.853   4.056
 1877SOL     OW 6196   0.875   3.508   4.061
 1877SOL    HW1 6197   0.798   3.473   4.007
 1877SOL    HW2 6198   0.843   3.579   4.123
 1878SOL     OW 6199   0.230   2.490   5.699
 1878SOL    HW1 6200   0.137   2.488   5.736
 1878SOL    HW2 6201   0.231   2.451   5.607
 1879SOL     OW 6202   0.225   2.137   6.582
 1879SOL    HW1 6203   0.260   2.120   6.674
 1879SOL    HW2 6204   0.137   2.092   6.570
 1880SOL     OW 6205   0.019   2.230   6.233
 1880SOL    HW1 6206  -0.063   2.273   6.272
 1880SOL    HW2 6207  -0.009   2.157   6.170
 1881SOL     OW 6208   0.569   3.137   6.751
 1881SOL    HW1 6209   0.476   3.130   6.714
 1881SOL    HW2 6210   0.580   3.226   6.795
 1882SOL     OW 6211   1.555   3.373   6.289
 1882SOL    HW1 6212   1.498   3.357   6.370
 1882SOL    HW2 6213   1.496   3.383   6.209
 1883SOL     OW 6214   1.135   2.565   6.303
 1883SOL    HW1 6215   1.192   2.643   6.278
 1883SOL    HW2 6216   1.075   2.591   6.379
 1884SOL     OW 6217   0.768   3.006   6.609
 1884SOL    HW1 6218   0.690   3.023   6.669
 1884SOL    HW2 6219   0.802   3.093   6.573
 1885SOL     OW 6220   0.850   2.660   7.409
 1885SOL    HW1 6221   0.846   2.736   7.474
 1885SOL    HW2 6222   0.872   2.696   7.318
 1886SOL     OW 6223   0.685   2.874   6.251
 1886SOL    HW1 6224   0.754   2.858   6.321
 1886SOL    HW2 6225   0.612   2.931   6.289
 1887SOL     OW 6226   0.686   3.023   7.389
 1887SOL    HW1 6227   0.746   3.102   7.403
 1887SOL    HW2 6228   0.600   3.054   7.348
 1888SOL     OW 6229   0.335   3.297   6.647
 1888SOL    HW1 6230   0.257   3.266   6.594
 1888SOL    HW2 6231   0.393   3.355   6.590
 1889SOL     OW 6232   1.460   3.367   6.925
 1889SOL    HW1 6233   1.484   3.461   6.951
 1889SOL    HW2 6234   1.444   3.313   7.007
 1890SOL     OW 6235   0.438   2.254   7.085
 1890SOL    HW1 6236   0.520   2.198   7.094
 1890SOL    HW2 6237   0.357   2.196   7.089
 1891SOL     OW 6238   1.603   2.309   6.323
 1891SOL    HW1 6239   1.529   2.355   6.273
 1891SOL    HW2 6240   1.654   2.377   6.376
 1892SOL     OW 6241   0.231   3.575   6.069
 1892SOL    HW1 6242   0.265   3.652   6.123
 1892SOL    HW2 6243   0.275   3.575   5.979
 1893SOL     OW 6244   1.127   3.203   7.276
 1893SOL    HW1 6245   1.174   3.203   7.364
 1893SOL    HW2 6246   1.079   3.116   7.265
 1894SOL     OW 6247   0.230   3.296   6.124
 1894SOL    HW1 6248   0.204   3.392   6.124
 1894SOL    HW2 6249   0.159   3.242   6.169
 1895SOL     OW 6250   0.240   2.953   6.472
 1895SOL    HW1 6251   0.254   2.869   6.524
 1895SOL    HW2 6252   0.185   3.017   6.527
 1896SOL     OW 6253   0.620   3.648   7.025
 1896SOL    HW1 6254   0.528   3.631   7.060
 1896SOL    HW2 6255   0.648   3.740   7.051
 1897SOL     OW 6256   0.606   2.826   5.709
 1897SOL    HW1 6257   0.613   2.910   5.655
 1897SOL    HW2 6258   0.652   2.839   5.797
 1898SOL     OW 6259   1.594   1.976   7.066
 1898SOL    HW1 6260   1.576   2.043   6.994
 1898SOL    HW2 6261   1.591   2.022   7.155
 1899SOL     OW 6262   0.122   2.505   6.149
 1899SOL    HW1 6263   0.077   2.417   6.166
 1899SOL    HW2 6264   0.121   2.559   6.233
 1900SOL     OW 6265   1.842   3.629   5.945
 1900SOL    HW1 6266   1.896   3.600   6.025
 1900SOL    HW2 6267   1.872   3.719   5.916
 1901SOL     OW 6268   0.027   3.458   5.703
 1901SOL    HW1 6269   0.008   3.362   5.724
 1901SOL    HW2 6270  -0.006   3.516   5.778
 1902SOL     OW 6271   1.689   2.784   6.198
 1902SOL    HW1 6272   1.784   2.755   6.206
 1902SOL    HW2 6273   1.681   2.849   6.123
 1903SOL     OW 6274   1.641   2.970   6.018
 1903SOL    HW1 6275   1.727   2.972   5.966
 1903SOL    HW2 6276   1.655   3.017   6.106
 1904SOL     OW 6277   0.113   2.599   7.183
 1904SOL    HW1 6278   0.201   2.586   7.228
 1904SOL    HW2 6279   0.100   2.696   7.161
 1905SOL     OW 6280   0.613   3.227   6.312
 1905SOL    HW1 6281   0.564   3.140   6.321
 1905SOL    HW2 6282   0.590   3.270   6.225
 1906SOL     OW 6283   1.293   3.090   7.009
 1906SOL    HW1 6284   1.330   3.017   6.951
 1906SOL    HW2 6285   1.345   3.095   7.094
 1907SOL     OW 6286   0.809   1.866   6.088
 1907SOL    HW1 6287   0.849   1.957   6.079
 1907SOL    HW2 6288   0.709   1.874   6.094
 1908SOL     OW 6289   0.197   2.838   6.850
 1908SOL    HW1 6290   0.286   2.793   6.836
 1908SOL    HW2 6291   0.124   2.773   6.831
 1909SOL     OW 6292   1.525   2.861   5.776
 1909SOL    HW1 6293   1.462   2.785   5.789
 1909SOL    HW2 6294   1.573   2.879   5.862
 1910SOL     OW 6295   1.187   3.654   7.202
 1910SOL    HW1 6296   1.211   3.714   7.126
 1910SOL    HW2 6297   1.194   3.559   7.172
 1911SOL     OW 6298   0.317   2.113   7.387
 1911SOL    HW1 6299   0.388   2.184   7.393
 1911SOL    HW2 6300   0.229   2.152   7.415
 1912SOL     OW 6301   1.466   3.279   6.539
 1912SOL    HW1 6302   1.407   3.285   6.619
 1912SOL    HW2 6303   1.451   3.191   6.493
 1913SOL     OW 6304   1.667   3.576   6.158
 1913SOL    HW1 6305   1.626   3.553   6.070
 1913SOL    HW2 6306   1.649   3.502   6.223
 1914SOL     OW 6307   0.598   2.591   5.856
 1914SOL    HW1 6308   0.622   2.660   5.788
 1914SOL    HW2 6309   0.520   2.624   5.910
 1915SOL     OW 6310   1.281   2.207   6.530
 1915SOL    HW1 6311   1.195   2.157   6.517
 1915SOL    HW2 6312   1.343   2.153   6.586
 1916SOL     OW 6313   1.576   3.524   5.893
 1916SOL    HW1 6314   1.665   3.570   5.896
 1916SOL    HW2 6315   1.555   3.500   5.798
 1917SOL     OW 6316   0.807   2.467   7.051
 1917SOL    HW1 6317   0.760   2.464   7.140
 1917SOL    HW2 6318   0.756   2.412   6.985
 1918SOL     OW 6319   1.394   2.331   7.260
 1918SOL    HW1 6320   1.374   2.374   7.348
 1918SOL    HW2 6321   1.472   2.269   7.269
 1919SOL     OW 6322   0.973   2.752   7.158
 1919SOL    HW1 6323   1.019   2.668   7.129
 1919SOL    HW2 6324   0.917   2.786   7.083
 1920SOL     OW 6325   0.991   2.272   6.828
 1920SOL    HW1 6326   0.914   2.306   6.882
 1920SOL    HW2 6327   0.957   2.221   6.749
 1921SOL     OW 6328   1.041   2.563   6.015
 1921SOL    HW1 6329   1.067   2.559   6.111
 1921SOL    HW2 6330   0.956   2.512   6.001
 1922SOL     OW 6331   0.076   2.673   6.375
 1922SOL    HW1 6332   0.175   2.661   6.384
 1922SOL    HW2 6333   0.052   2.768   6.396
 1923SOL     OW 6334   0.130   3.683   7.157
 1923SOL    HW1 6335   0.120   3.668   7.256
 1923SOL    HW2 6336   0.044   3.719   7.121
 1924SOL     OW 6337   0.865   2.210   5.781
 1924SOL    HW1 6338   0.924   2.273   5.732
 1924SOL    HW2 6339   0.884   2.116   5.752
 1925SOL     OW 6340   1.719   2.447   7.417
 1925SOL    HW1 6341   1.693   2.536   7.381
 1925SOL    HW2 6342   1.717   2.379   7.344
 1926SOL     OW 6343   1.362   3.006   6.131
 1926SOL    HW1 6344   1.445   2.977   6.083
 1926SOL    HW2 6345   1.313   3.073   6.075
 1927SOL     OW 6346   0.550   2.058   6.471
 1927SOL    HW1 6347   0.545   2.053   6.571
 1927SOL    HW2 6348   0.552   2.154   6.442
 1928SOL     OW 6349   1.008   3.318   6.063
 1928SOL    HW1 6350   0.962   3.390   6.011
 1928SOL    HW2 6351   1.004   3.338   6.161
 1929SOL     OW 6352   0.351   3.663   6.439
 1929SOL    HW1 6353   0.401   3.577   6.445
 1929SOL    HW2 6354   0.416   3.740   6.436
 1930SOL     OW 6355   1.795   2.928   6.459
 1930SOL    HW1 6356   1.733   2.913   6.383
 1930SOL    HW2 6357   1.743   2.939   6.544
 1931SOL     OW 6358   1.227   3.412   7.092
 1931SOL    HW1 6359   1.233   3.335   7.156
 1931SOL    HW2 6360   1.175   3.386   7.012
 1932SOL     OW 6361   0.321   2.805   5.828
 1932SOL    HW1 6362   0.403   2.844   5.786
 1932SOL    HW2 6363   0.294   2.723   5.779
 1933SOL     OW 6364   1.458   2.597   6.314
 1933SOL    HW1 6365   1.453   2.532   6.389
 1933SOL    HW2 6366   1.538   2.656   6.327
 1934SOL     OW 6367   0.461   3.128   7.313
 1934SOL    HW1 6368   0.411   3.129   7.227
 1934SOL    HW2 6369   0.398   3.110   7.389
 1935SOL     OW 6370   1.111   3.638   5.823
 1935SOL    HW1 6371   1.051   3.576   5.873
 1935SOL    HW2 6372   1.142   3.594   5.738
 1936SOL     OW 6373   0.202   2.147   7.084
 1936SOL    HW1 6374   0.122   2.207   7.071
 1936SOL    HW2 6375   0.192   2.098   7.170
 1937SOL     OW 6376   1.632   3.239   5.667
 1937SOL    HW1 6377   1.600   3.333   5.657
 1937SOL    HW2 6378   1.556   3.176   5.655
 1938SOL     OW 6379   0.464   3.605   5.909
 1938SOL    HW1 6380   0.497   3.644   5.995
 1938SOL    HW2 6381   0.540   3.598   5.844
 1939SOL     OW 6382   1.400   1.969   6.012
 1939SOL    HW1 6383   1.376   1.932   5.922
 1939SOL    HW2 6384   1.499   1.985   6.016
 1940SOL     OW 6385   0.249   3.647   6.827
 1940SOL    HW1 6386   0.306   3.582   6.877
 1940SOL    HW2 6387   0.233   3.614   6.734
 1941SOL     OW 6388   0.940   3.560   6.490
 1941SOL    HW1 6389   1.020   3.503   6.511
 1941SOL    HW2 6390   0.891   3.520   6.413
 1942SOL     OW 6391   0.382   2.562   6.066
 1942SOL    HW1 6392   0.427   2.472   6.063
 1942SOL    HW2 6393   0.288   2.551   6.099
 1943SOL     OW 6394   1.547   2.084   7.315
 1943SOL    HW1 6395   1.542   2.121   7.407
 1943SOL    HW2 6396   1.475   2.015   7.303
 1944SOL     OW 6397   0.614   1.984   5.703
 1944SOL    HW1 6398   0.712   1.962   5.710
 1944SOL    HW2 6399   0.583   1.967   5.610
 1945SOL     OW 6400   0.781   2.126   7.335
 1945SOL    HW1 6401   0.848   2.065   7.378
 1945SOL    HW2 6402   0.708   2.145   7.400
 1946SOL     OW 6403   0.888   3.376   6.781
 1946SOL    HW1 6404   0.865   3.351   6.687
 1946SOL    HW2 6405   0.949   3.307   6.820
 1947SOL     OW 6406   1.351   2.452   7.019
 1947SOL    HW1 6407   1.379   2.409   7.104
 1947SOL    HW2 6408   1.376   2.548   7.020
 1948SOL     OW 6409   0.803   3.264   6.510
 1948SOL    HW1 6410   0.893   3.278   6.468
 1948SOL    HW2 6411   0.732   3.266   6.439
 1949SOL     OW 6412   0.922   2.365   6.485
 1949SOL    HW1 6413   0.897   2.356   6.389
 1949SOL    HW2 6414   0.970   2.283   6.516
 1950SOL     OW 6415   0.539   1.926   6.098
 1950SOL    HW1 6416   0.458   1.927   6.156
 1950SOL    HW2 6417   0.542   2.009   6.043
 1951SOL     OW 6418   1.434   3.050   5.627
 1951SOL    HW1 6419   1.466   2.974   5.684
 1951SOL    HW2 6420   1.342   3.077   5.657
 1952SOL     OW 6421   0.297   1.897   5.757
 1952SOL    HW1 6422   0.346   1.981   5.736
 1952SOL    HW2 6423   0.359   1.832   5.802
 1953SOL     OW 6424   0.935   2.098   6.066
 1953SOL    HW1 6425   0.887   2.139   5.988
 1953SOL    HW2 6426   1.034   2.096   6.047
 1954SOL     OW 6427   1.076   2.545   7.050
 1954SOL    HW1 6428   0.996   2.484   7.053
 1954SOL    HW2 6429   1.157   2.492   7.026
 1955SOL     OW 6430   1.227   3.432   6.379
 1955SOL    HW1 6431   1.248   3.506   6.314
 1955SOL    HW2 6432   1.295   3.432   6.452
 1956SOL     OW 6433   0.459   3.014   6.327
 1956SOL    HW1 6434   0.388   2.987   6.392
 1956SOL    HW2 6435   0.433   2.986   6.234
 1957SOL     OW 6436   1.271   3.659   6.177
 1957SOL    HW1 6437   1.315   3.723   6.113
 1957SOL    HW2 6438   1.221   3.711   6.247
 1958SOL     OW 6439   1.032   2.411   5.602
 1958SOL    HW1 6440   0.991   2.493   5.563
 1958SOL    HW2 6441   1.096   2.437   5.675
 1959SOL     OW 6442   0.078   2.418   6.972
 1959SOL    HW1 6443   0.170   2.417   6.931
 1959SOL    HW2 6444   0.072   2.492   7.039
 1960SOL     OW 6445   0.561   2.084   6.733
 1960SOL    HW1 6446   0.599   2.000   6.770
 1960SOL    HW2 6447   0.473   2.103   6.777
 1961SOL     OW 6448   0.866   2.316   6.228
 1961SOL    HW1 6449   0.834   2.388   6.166
 1961SOL    HW2 6450   0.890   2.235   6.175
 1962SOL     OW 6451   1.017   1.901   6.339
 1962SOL    HW1 6452   0.945   1.906   6.270
 1962SOL    HW2 6453   0.993   1.832   6.408
 1963SOL     OW 6454   1.429   3.035   6.453
 1963SOL    HW1 6455   1.374   2.951   6.446
 1963SOL    HW2 6456   1.455   3.064   6.361
 1964SOL     OW 6457   1.466   2.452   6.578
 1964SOL    HW1 6458   1.436   2.357   6.585
 1964SOL    HW2 6459   1.539   2.468   6.644
 1965SOL     OW 6460   0.488   3.247   5.760
 1965SOL    HW1 6461   0.401   3.232   5.807
 1965SOL    HW2 6462   0.471   3.273   5.665
 1966SOL     OW 6463   1.664   3.142   6.243
 1966SOL    HW1 6464   1.763   3.150   6.257
 1966SOL    HW2 6465   1.619   3.226   6.274
 1967SOL     OW 6466   0.527   2.118   5.914
 1967SOL    HW1 6467   0.554   2.059   5.839
 1967SOL    HW2 6468   0.527   2.213   5.883
 1968SOL     OW 6469   1.754   3.085   7.174
 1968SOL    HW1 6470   1.845   3.046   7.161
 1968SOL    HW2 6471   1.762   3.181   7.198
 1969SOL     OW 6472   1.064   3.209   6.926
 1969SOL    HW1 6473   0.984   3.186   6.981
 1969SOL    HW2 6474   1.147   3.183   6.975
 1970SOL     OW 6475   1.592   3.491   7.211
 1970SOL    HW1 6476   1.619   3.525   7.121
 1970SOL    HW2 6477   1.671   3.453   7.257
 1971SOL     OW 6478   1.111   3.057   6.686
 1971SOL    HW1 6479   1.071   3.101   6.767
 1971SOL    HW2 6480   1.070   3.094   6.603
 1972SOL     OW 6481   1.638   2.961   6.665
 1972SOL    HW1 6482   1.643   3.042   6.724
 1972SOL    HW2 6483   1.552   2.963   6.614
 1973SOL     OW 6484   0.915   1.951   6.988
 1973SOL    HW1 6485   0.940   1.931   6.893
 1973SOL    HW2 6486   0.987   2.007   7.030
 1974SOL     OW 6487   0.980   2.978   7.305
 1974SOL    HW1 6488   0.881   2.984   7.315
 1974SOL    HW2 6489   1.003   2.898   7.249
 1975SOL     OW 6490   0.705   2.912   5.954
 1975SOL    HW1 6491   0.691   2.919   6.053
 1975SOL    HW2 6492   0.789   2.861   5.936
 1976SOL     OW 6493   0.410   2.675   6.837
 1976SOL    HW1 6494   0.496   2.687   6.887
 1976SOL    HW2 6495   0.368   2.588   6.864
 1977SOL     OW 6496   1.274   2.248   6.848
 1977SOL    HW1 6497   1.295   2.322   6.912
 1977SOL    HW2 6498   1.185   2.265   6.805
 1978SOL     OW 6499   0.064   3.426   6.917
 1978SOL    HW1 6500   0.018   3.508   6.883
 1978SOL    HW2 6501   0.162   3.445   6.926
 1979SOL     OW 6502   0.367   2.962   6.087
 1979SOL    HW1 6503   0.360   3.045   6.031
 1979SOL    HW2 6504   0.371   2.882   6.027
 1980SOL     OW 6505   0.566   2.399   6.451
 1980SOL    HW1 6506   0.578   2.465   6.377
 1980SOL    HW2 6507   0.612   2.433   6.534
 1981SOL     OW 6508   1.252   3.210   5.974
 1981SOL    HW1 6509   1.302   3.287   6.014
 1981SOL    HW2 6510   1.157   3.212   6.006
 1982SOL     OW 6511   1.272   3.307   6.728
 1982SOL    HW1 6512   1.319   3.320   6.815
 1982SOL    HW2 6513   1.206   3.233   6.737
 1983SOL     OW 6514   0.354   3.372   6.915
 1983SOL    HW1 6515   0.333   3.328   6.828
 1983SOL    HW2 6516   0.451   3.398   6.918
 1984SOL     OW 6517   0.402   2.613   7.184
 1984SOL    HW1 6518   0.470   2.668   7.137
 1984SOL    HW2 6519   0.442   2.525   7.211
 1985SOL     OW 6520   1.587   2.641   7.256
 1985SOL    HW1 6521   1.495   2.679   7.251
 1985SOL    HW2 6522   1.647   2.688   7.191
 1986SOL     OW 6523   1.013   1.967   7.356
 1986SOL    HW1 6524   1.019   2.052   7.304
 1986SOL    HW2 6525   1.045   1.891   7.299
 1987SOL     OW 6526   0.504   1.912   7.326
 1987SOL    HW1 6527   0.462   1.855   7.256
 1987SOL    HW2 6528   0.438   1.981   7.358
 1988SOL     OW 6529   0.573   2.732   6.615
 1988SOL    HW1 6530   0.617   2.821   6.606
 1988SOL    HW2 6531   0.510   2.732   6.692
 1989SOL     OW 6532   1.360   2.724   6.631
 1989SOL    HW1 6533   1.285   2.724   6.565
 1989SOL    HW2 6534   1.397   2.632   6.640
 1990SOL     OW 6535   1.209   2.387   5.861
 1990SOL    HW1 6536   1.222   2.303   5.915
 1990SOL    HW2 6537   1.180   2.461   5.921
 1991SOL     OW 6538   0.307   2.075   6.817
 1991SOL    HW1 6539   0.284   2.112   6.907
 1991SOL    HW2 6540   0.277   1.980   6.811
 1992SOL     OW 6541   0.037   3.172   6.868
 1992SOL    HW1 6542   0.090   3.123   6.936
 1992SOL    HW2 6543   0.059   3.270   6.873
 1993SOL     OW 6544   0.732   2.496   6.650
 1993SOL    HW1 6545   0.791   2.470   6.574
 1993SOL    HW2 6546   0.704   2.592   6.639
 1994SOL     OW 6547   1.728   2.797   7.440
 1994SOL    HW1 6548   1.682   2.790   7.351
 1994SOL    HW2 6549   1.666   2.841   7.506
 1995SOL     OW 6550   0.307   1.925   6.204
 1995SOL    HW1 6551   0.296   2.019   6.237
 1995SOL    HW2 6552   0.302   1.862   6.281
 1996SOL     OW 6553   1.023   2.628   6.552
 1996SOL    HW1 6554   1.038   2.649   6.648
 1996SOL    HW2 6555   0.993   2.533   6.543
 1997SOL     OW 6556   0.980   3.435   7.286
 1997SOL    HW1 6557   0.960   3.479   7.198
 1997SOL    HW2 6558   1.019   3.344   7.270
 1998SOL     OW 6559   1.859   3.380   7.191
 1998SOL    HW1 6560   1.873   3.407   7.096
 1998SOL    HW2 6561   1.942   3.402   7.244
 1999SOL     OW 6562   0.350   2.760   7.390
 1999SOL    HW1 6563   0.426   2.804   7.438
 1999SOL    HW2 6564   0.385   2.713   7.308
 2000SOL     OW 6565   1.303   2.700   5.628
 2000SOL    HW1 6566   1.337   2.607   5.643
 2000SOL    HW2 6567   1.321   2.727   5.533
 2001SOL     OW 6568   1.068   3.195   6.435
 2001SOL    HW1 6569   1.075   3.111   6.380
 2001SOL    HW2 6570   1.130   3.264   6.399
 2002SOL     OW 6571   0.319   2.672   6.535
 2002SOL    HW1 6572   0.412   2.708   6.540
 2002SOL    HW2 6573   0.313   2.587   6.587
 2003SOL     OW 6574   0.339   2.371   6.592
 2003SOL    HW1 6575   0.287   2.288   6.575
 2003SOL    HW2 6576   0.416   2.376   6.528
 2004SOL     OW 6577   1.138   2.242   7.264
 2004SOL    HW1 6578   1.093   2.305   7.328
 2004SOL    HW2 6579   1.231   2.273   7.247
 2005SOL     OW 6580   1.160   2.069   7.063
 2005SOL    HW1 6581   1.160   2.133   7.140
 2005SOL    HW2 6582   1.188   2.117   6.980
 2006SOL     OW 6583   0.008   3.188   5.786
 2006SOL    HW1 6584  -0.085   3.209   5.755
 2006SOL    HW2 6585   0.018   3.089   5.799
 2007SOL     OW 6586   0.088   3.663   6.513
 2007SOL    HW1 6587   0.046   3.577   6.486
 2007SOL    HW2 6588   0.182   3.666   6.479
 2008SOL     OW 6589   0.504   3.430   6.496
 2008SOL    HW1 6590   0.570   3.504   6.505
 2008SOL    HW2 6591   0.548   3.351   6.454
 2009SOL     OW 6592   1.002   2.658   6.824
 2009SOL    HW1 6593   1.043   2.626   6.910
 2009SOL    HW2 6594   0.906   2.631   6.821
 2010SOL     OW 6595   0.040   2.406   6.700
 2010SOL    HW1 6596   0.125   2.373   6.659
 2010SOL    HW2 6597   0.053   2.421   6.798
 2011SOL     OW 6598   0.189   2.382   7.308
 2011SOL    HW1 6599   0.248   2.342   7.238
 2011SOL    HW2 6600   0.131   2.453   7.267
 2012SOL     OW 6601   1.369   2.812   7.246
 2012SOL    HW1 6602   1.408   2.901   7.266
 2012SOL    HW2 6603   1.379   2.792   7.149
 2013SOL     OW 6604   0.815   2.434   5.911
 2013SOL    HW1 6605   0.822   2.345   5.865
 2013SOL    HW2 6606   0.721   2.468   5.903
 2014SOL     OW 6607   1.657   2.466   6.792
 2014SOL    HW1 6608   1.619   2.397   6.854
 2014SOL    HW2 6609   1.739   2.430   6.748
 2015SOL     OW 6610   0.252   3.426   7.330
 2015SOL    HW1 6611   0.222   3.483   7.406
 2015SOL    HW2 6612   0.245   3.329   7.356
 2016SOL     OW 6613   0.671   2.326   6.855
 2016SOL    HW1 6614   0.637   2.237   6.825
 2016SOL    HW2 6615   0.697   2.380   6.775
 2017SOL     OW 6616   0.930   3.540   7.051
 2017SOL    HW1 6617   0.906   3.522   6.956
 2017SOL    HW2 6618   0.960   3.634   7.061
 2018SOL     OW 6619   0.473   2.362   5.777
 2018SOL    HW1 6620   0.534   2.442   5.781
 2018SOL    HW2 6621   0.378   2.393   5.784
 2019SOL     OW 6622   0.159   2.999   7.052
 2019SOL    HW1 6623   0.181   2.938   7.128
 2019SOL    HW2 6624   0.169   2.950   6.966
 2020SOL     OW 6625   1.347   2.921   6.820
 2020SOL    HW1 6626   1.371   2.858   6.746
 2020SOL    HW2 6627   1.257   2.961   6.802
 2021SOL     OW 6628   1.302   2.717   5.895
 2021SOL    HW1 6629   1.216   2.686   5.937
 2021SOL    HW2 6630   1.298   2.703   5.796
 2022SOL     OW 6631   1.759   3.609   6.740
 2022SOL    HW1 6632   1.820   3.639   6.667
 2022SOL    HW2 6633   1.721   3.520   6.718
 2023SOL     OW 6634   1.252   3.593   6.714
 2023SOL    HW1 6635   1.336   3.598   6.660
 2023SOL    HW2 6636   1.229   3.497   6.732
 2024SOL     OW 6637   0.083   3.120   6.608
 2024SOL    HW1 6638   0.078   3.119   6.708
 2024SOL    HW2 6639   0.000   3.079   6.570
 2025SOL     OW 6640   0.688   3.524   7.302
 2025SOL    HW1 6641   0.632   3.605   7.311
 2025SOL    HW2 6642   0.740   3.528   7.216
 2026SOL     OW 6643   1.388   3.435   6.063
 2026SOL    HW1 6644   1.455   3.447   5.989
 2026SOL    HW2 6645   1.348   3.524   6.086
 2027SOL     OW 6646   0.130   3.656   7.437
 2027SOL    HW1 6647   0.089   3.582   7.490
 2027SOL    HW2 6648   0.194   3.707   7.495
 2028SOL     OW 6649   1.280   2.789   6.258
 2028SOL    HW1 6650   1.340   2.708   6.260
 2028SOL    HW2 6651   1.320   2.858   6.198
 2029SOL     OW 6652   0.830   3.135   7.008
 2029SOL    HW1 6653   0.825   3.168   7.103
 2029SOL    HW2 6654   0.744   3.154   6.962
 2030SOL     OW 6655   0.672   3.478   5.740
 2030SOL    HW1 6656   0.681   3.488   5.641
 2030SOL    HW2 6657   0.632   3.389   5.761
 2031SOL     OW 6658   1.650   3.582   6.980
 2031SOL    HW1 6659   1.703   3.592   6.896
 2031SOL    HW2 6660   1.623   3.672   7.014
 2032SOL     OW 6661   0.263   2.188   6.306
 2032SOL    HW1 6662   0.184   2.239   6.272
 2032SOL    HW2 6663   0.254   2.173   6.404
 2033SOL     OW 6664   1.194   3.474   5.617
 2033SOL    HW1 6665   1.200   3.381   5.654
 2033SOL    HW2 6666   1.135   3.474   5.537
 2034SOL     OW 6667   0.822   2.864   6.958
 2034SOL    HW1 6668   0.862   2.863   6.866
 2034SOL    HW2 6669   0.832   2.956   6.998
 2035SOL     OW 6670   0.916   2.772   5.877
 2035SOL    HW1 6671   0.979   2.810   5.809
 2035SOL    HW2 6672   0.956   2.689   5.916
 2036SOL     OW 6673   1.504   3.469   5.630
 2036SOL    HW1 6674   1.412   3.506   5.637
 2036SOL    HW2 6675   1.542   3.489   5.540
 2037SOL     OW 6676   0.372   3.150   7.076
 2037SOL    HW1 6677   0.359   3.243   7.042
 2037SOL    HW2 6678   0.288   3.098   7.063
 2038SOL     OW 6679   1.614   3.154   6.875
 2038SOL    HW1 6680   1.674   3.157   6.955
 2038SOL    HW2 6681   1.539   3.218   6.888
 2039SOL     OW 6682   1.039   2.960   6.282
 2039SOL    HW1 6683   0.969   2.913   6.336
 2039SOL    HW2 6684   1.098   2.892   6.239
 2040SOL     OW 6685   1.014   2.098   6.557
 2040SOL    HW1 6686   1.006   2.062   6.464
 2040SOL    HW2 6687   1.012   2.022   6.622
 2041SOL     OW 6688   0.590   3.349   6.077
 2041SOL    HW1 6689   0.632   3.291   6.007
 2041SOL    HW2 6690   0.546   3.428   6.033
 2042SOL     OW 6691   1.709   2.247   6.967
 2042SOL    HW1 6692   1.782   2.316   6.971
 2042SOL    HW2 6693   1.737   2.172   6.908
 2043SOL     OW 6694   0.255   3.210   5.876
 2043SOL    HW1 6695   0.159   3.211   5.849
 2043SOL    HW2 6696   0.267   3.263   5.960
 2044SOL     OW 6697   0.105   2.875   7.312
 2044SOL    HW1 6698   0.028   2.842   7.366
 2044SOL    HW2 6699   0.190   2.845   7.354
 2045SOL     OW 6700   0.672   2.065   7.075
 2045SOL    HW1 6701   0.762   2.049   7.035
 2045SOL    HW2 6702   0.680   2.070   7.174
 2046SOL     OW 6703   0.075   2.207   5.619
 2046SOL    HW1 6704  -0.017   2.179   5.590
 2046SOL    HW2 6705   0.106   2.284   5.563
 2047SOL     OW 6706   1.440   2.718   6.984
 2047SOL    HW1 6707   1.383   2.770   6.921
 2047SOL    HW2 6708   1.536   2.730   6.960
 2048SOL     OW 6709   0.072   2.028   5.904
 2048SOL    HW1 6710   0.055   2.111   5.850
 2048SOL    HW2 6711   0.162   1.991   5.882
 2049SOL     OW 6712   1.183   3.197   5.705
 2049SOL    HW1 6713   1.084   3.186   5.707
 2049SOL    HW2 6714   1.217   3.212   5.798
 2050SOL     OW 6715   0.613   2.704   7.017
 2050SOL    HW1 6716   0.669   2.785   7.000
 2050SOL    HW2 6717   0.672   2.624   7.020
 2051SOL     OW 6718   1.493   3.629   6.545
 2051SOL    HW1 6719   1.526   3.693   6.476
 2051SOL    HW2 6720   1.559   3.623   6.620
 2052SOL     OW 6721   0.716   2.427   7.294
 2052SOL    HW1 6722   0.735   2.492   7.368
 2052SOL    HW2 6723   0.776   2.347   7.303
 2053SOL     OW 6724   1.450   3.082   7.219
 2053SOL    HW1 6725   1.441   3.072   7.318
 2053SOL    HW2 6726   1.546   3.075   7.193
 2054SOL     OW 6727   0.390   3.603   7.146
 2054SOL    HW1 6728   0.299   3.644   7.144
 2054SOL    HW2 6729   0.383   3.509   7.178
 2055SOL     OW 6730   1.674   2.745   6.840
 2055SOL    HW1 6731   1.647   2.656   6.803
 2055SOL    HW2 6732   1.675   2.813   6.767
 2056SOL     OW 6733   1.225   2.187   6.035
 2056SOL    HW1 6734   1.290   2.113   6.024
 2056SOL    HW2 6735   1.245   2.237   6.119
 2057SOL     OW 6736   0.594   2.607   6.238
 2057SOL    HW1 6737   0.644   2.692   6.219
 2057SOL    HW2 6738   0.506   2.609   6.190
 2058SOL     OW 6739   1.777   2.204   7.228
 2058SOL    HW1 6740   1.760   2.235   7.134
 2058SOL    HW2 6741   1.693   2.167   7.266
 2059SOL     OW 6742   1.730   2.796   7.103
 2059SOL    HW1 6743   1.768   2.887   7.118
 2059SOL    HW2 6744   1.722   2.779   7.004
 2060SOL     OW 6745   0.859   3.236   5.602
 2060SOL    HW1 6746   0.813   3.251   5.690
 2060SOL    HW2 6747   0.903   3.321   5.572
 2061SOL     OW 6748   0.661   3.652   6.539
 2061SOL    HW1 6749   0.615   3.740   6.526
 2061SOL    HW2 6750   0.760   3.664   6.532
 2062SOL     OW 6751   0.859   2.818   6.447
 2062SOL    HW1 6752   0.913   2.749   6.495
 2062SOL    HW2 6753   0.827   2.887   6.513
 2063SOL     OW 6754   1.083   2.846   5.673
 2063SOL    HW1 6755   1.060   2.899   5.591
 2063SOL    HW2 6756   1.164   2.790   5.654
 2064SOL     OW 6757   1.861   3.431   6.437
 2064SOL    HW1 6758   1.790   3.419   6.367
 2064SOL    HW2 6759   1.862   3.352   6.497
 2065SOL     OW 6760   0.221   3.176   7.430
 2065SOL    HW1 6761   0.156   3.103   7.409
 2065SOL    HW2 6762   0.225   3.190   7.528
 2066SOL     OW 6763   0.079   3.102   6.239
 2066SOL    HW1 6764   0.078   3.055   6.327
 2066SOL    HW2 6765   0.161   3.074   6.188
 2067SOL     OW 6766   0.672   3.253   7.210
 2067SOL    HW1 6767   0.594   3.203   7.248
 2067SOL    HW2 6768   0.669   3.348   7.241
 2068SOL     OW 6769   0.428   2.286   6.106
 2068SOL    HW1 6770   0.458   2.214   6.044
 2068SOL    HW2 6771   0.389   2.246   6.189
 2069SOL     OW 6772   1.705   3.349   6.690
 2069SOL    HW1 6773   1.612   3.324   6.663
 2069SOL    HW2 6774   1.731   3.299   6.772
 2070SOL     OW 6775   0.317   2.409   6.866
 2070SOL    HW1 6776   0.355   2.350   6.938
 2070SOL    HW2 6777   0.357   2.383   6.778
 2071SOL     OW 6778   0.812   3.448   6.273
 2071SOL    HW1 6779   0.844   3.458   6.179
 2071SOL    HW2 6780   0.733   3.386   6.275
 2072SOL     OW 6781   1.424   2.076   6.698
 2072SOL    HW1 6782   1.476   2.011   6.753
 2072SOL    HW2 6783   1.375   2.139   6.759
 2073SOL     OW 6784   1.001   1.896   6.740
 2073SOL    HW1 6785   0.938   1.824   6.709
 2073SOL    HW2 6786   1.094   1.860   6.740
 2074SOL     OW 6787   0.770   3.192   5.887
 2074SOL    HW1 6788   0.724   3.105   5.904
 2074SOL    HW2 6789   0.861   3.189   5.928
 2075SOL     OW 6790   0.618   3.429   6.870
 2075SOL    HW1 6791   0.613   3.511   6.927
 2075SOL    HW2 6792   0.707   3.426   6.825
 2076SOL     OW 6793   1.352   1.914   5.754
 2076SOL    HW1 6794   1.387   1.873   5.670
 2076SOL    HW2 6795   1.262   1.876   5.774
 2077SOL     OW 6796   1.300   2.315   6.277
 2077SOL    HW1 6797   1.241   2.395   6.281
 2077SOL    HW2 6798   1.315   2.280   6.370
 2078SOL     OW 6799   0.039   2.939   5.886
 2078SOL    HW1 6800   0.138   2.928   5.877
 2078SOL    HW2 6801  -0.001   2.853   5.918
 2079SOL     OW 6802   0.875   3.508   5.923
 2079SOL    HW1 6803   0.798   3.473   5.869
 2079SOL    HW2 6804   0.843   3.579   5.985
 2080SOL     OW 6805   0.230   2.490   7.561
 2080SOL    HW1 6806   0.137   2.488   7.598
 2080SOL    HW2 6807   0.231   2.451   7.469
 2081SOL     OW 6808   0.225   2.137   8.444
 2081SOL    HW1 6809   0.260   2.120   8.536
 2081SOL    HW2 6810   0.137   2.092   8.432
 2082SOL     OW 6811   0.019   2.230   8.095
 2082SOL    HW1 6812  -0.063   2.273   8.134
 2082SOL    HW2 6813  -0.009   2.157   8.032
 2083SOL     OW 6814   0.569   3.137   8.613
 2083SOL    HW1 6815   0.476   3.130   8.576
 2083SOL    HW2 6816   0.580   3.226   8.657
 2084SOL     OW 6817   1.555   3.373   8.151
 2084SOL    HW1 6818   1.498   3.357   8.232
 2084SOL    HW2 6819   1.496   3.383   8.071
 2085SOL     OW 6820   1.135   2.565   8.165
 2085SOL    HW1 6821   1.192   2.643   8.140
 2085SOL    HW2 6822   1.075   2.591   8.241
 2086SOL     OW 6823   1.755   2.469   7.679
 2086SOL    HW1 6824   1.743   2.456   7.580
 2086SOL    HW2 6825   1.725   2.388   7.728
 2087SOL     OW 6826   0.768   3.006   8.471
 2087SOL    HW1 6827   0.690   3.023   8.531
 2087SOL    HW2 6828   0.802   3.093   8.435
 2088SOL     OW 6829   0.850   2.660   9.271
 2088SOL    HW1 6830   0.846   2.736   9.336
 2088SOL    HW2 6831   0.872   2.696   9.180
 2089SOL     OW 6832   0.685   2.874   8.113
 2089SOL    HW1 6833   0.754   2.858   8.183
 2089SOL    HW2 6834   0.612   2.931   8.151
 2090SOL     OW 6835   0.686   3.023   9.251
 2090SOL    HW1 6836   0.746   3.102   9.265
 2090SOL    HW2 6837   0.600   3.054   9.210
 2091SOL     OW 6838   0.335   3.297   8.509
 2091SOL    HW1 6839   0.257   3.266   8.456
 2091SOL    HW2 6840   0.393   3.355   8.452
 2092SOL     OW 6841   1.460   3.367   8.787
 2092SOL    HW1 6842   1.484   3.461   8.813
 2092SOL    HW2 6843   1.444   3.313   8.869
 2093SOL     OW 6844   0.438   2.254   8.947
 2093SOL    HW1 6845   0.520   2.198   8.956
 2093SOL    HW2 6846   0.357   2.196   8.951
 2094SOL     OW 6847   1.603   2.309   8.185
 2094SOL    HW1 6848   1.529   2.355   8.135
 2094SOL    HW2 6849   1.654   2.377   8.238
 2095SOL     OW 6850   0.231   3.575   7.931
 2095SOL    HW1 6851   0.265   3.652   7.985
 2095SOL    HW2 6852   0.275   3.575   7.841
 2096SOL     OW 6853   1.127   3.203   9.138
 2096SOL    HW1 6854   1.174   3.203   9.226
 2096SOL    HW2 6855   1.079   3.116   9.127
 2097SOL     OW 6856   0.230   3.296   7.986
 2097SOL    HW1 6857   0.204   3.392   7.986
 2097SOL    HW2 6858   0.159   3.242   8.031
 2098SOL     OW 6859   0.240   2.953   8.334
 2098SOL    HW1 6860   0.254   2.869   8.386
 2098SOL    HW2 6861   0.185   3.017   8.389
 2099SOL     OW 6862   0.620   3.648   8.887
 2099SOL    HW1 6863   0.528   3.631   8.922
 2099SOL    HW2 6864   0.648   3.740   8.913
 2100SOL     OW 6865   0.606   2.826   7.571
 2100SOL    HW1 6866   0.613   2.910   7.517
 2100SOL    HW2 6867   0.652   2.839   7.659
 2101SOL     OW 6868   1.594   1.976   8.928
 2101SOL    HW1 6869   1.576   2.043   8.856
 2101SOL    HW2 6870   1.591   2.022   9.017
 2102SOL     OW 6871   0.122   2.505   8.011
 2102SOL    HW1 6872   0.077   2.417   8.028
 2102SOL    HW2 6873   0.121   2.559   8.095
 2103SOL     OW 6874   1.842   3.629   7.807
 2103SOL    HW1 6875   1.896   3.600   7.887
 2103SOL    HW2 6876   1.872   3.719   7.778
 2104SOL     OW 6877   0.027   3.458   7.565
 2104SOL    HW1 6878   0.008   3.362   7.586
 2104SOL    HW2 6879  -0.006   3.516   7.640
 2105SOL     OW 6880   1.689   2.784   8.060
 2105SOL    HW1 6881   1.784   2.755   8.068
 2105SOL    HW2 6882   1.681   2.849   7.985
 2106SOL     OW 6883   1.641   2.970   7.880
 2106SOL    HW1 6884   1.727   2.972   7.828
 2106SOL    HW2 6885   1.655   3.017   7.968
 2107SOL     OW 6886   0.113   2.599   9.045
 2107SOL    HW1 6887   0.201   2.586   9.090
 2107SOL    HW2 6888   0.100   2.696   9.023
 2108SOL     OW 6889   0.613   3.227   8.174
 2108SOL    HW1 6890   0.564   3.140   8.183
 2108SOL    HW2 6891   0.590   3.270   8.087
 2109SOL     OW 6892   1.293   3.090   8.871
 2109SOL    HW1 6893   1.330   3.017   8.813
 2109SOL    HW2 6894   1.345   3.095   8.956
 2110SOL     OW 6895   0.809   1.866   7.950
 2110SOL    HW1 6896   0.849   1.957   7.941
 2110SOL    HW2 6897   0.709   1.874   7.956
 2111SOL     OW 6898   0.197   2.838   8.712
 2111SOL    HW1 6899   0.286   2.793   8.698
 2111SOL    HW2 6900   0.124   2.773   8.693
 2112SOL     OW 6901   1.525   2.861   7.638
 2112SOL    HW1 6902   1.462   2.785   7.651
 2112SOL    HW2 6903   1.573   2.879   7.724
 2113SOL     OW 6904   1.187   3.654   9.064
 2113SOL    HW1 6905   1.211   3.714   8.988
 2113SOL    HW2 6906   1.194   3.559   9.034
 2114SOL     OW 6907   0.317   2.113   9.249
 2114SOL    HW1 6908   0.388   2.184   9.255
 2114SOL    HW2 6909   0.229   2.152   9.277
 2115SOL     OW 6910   1.466   3.279   8.401
 2115SOL    HW1 6911   1.407   3.285   8.481
 2115SOL    HW2 6912   1.451   3.191   8.355
 2116SOL     OW 6913   1.667   3.576   8.020
 2116SOL    HW1 6914   1.626   3.553   7.932
 2116SOL    HW2 6915   1.649   3.502   8.085
 2117SOL     OW 6916   0.598   2.591   7.718
 2117SOL    HW1 6917   0.622   2.660   7.650
 2117SOL    HW2 6918   0.520   2.624   7.772
 2118SOL     OW 6919   1.281   2.207   8.392
 2118SOL    HW1 6920   1.195   2.157   8.379
 2118SOL    HW2 6921   1.343   2.153   8.448
 2119SOL     OW 6922   1.576   3.524   7.755
 2119SOL    HW1 6923   1.665   3.570   7.758
 2119SOL    HW2 6924   1.555   3.500   7.660
 2120SOL     OW 6925   0.807   2.467   8.913
 2120SOL    HW1 6926   0.760   2.464   9.002
 2120SOL    HW2 6927   0.756   2.412   8.847
 2121SOL     OW 6928   1.394   2.331   9.122
 2121SOL    HW1 6929   1.374   2.374   9.210
 2121SOL    HW2 6930   1.472   2.269   9.131
 2122SOL     OW 6931   0.973   2.752   9.020
 2122SOL    HW1 6932   1.019   2.668   8.991
 2122SOL    HW2 6933   0.917   2.786   8.945
 2123SOL     OW 6934   0.991   2.272   8.690
 2123SOL    HW1 6935   0.914   2.306   8.744
 2123SOL    HW2 6936   0.957   2.221   8.611
 2124SOL     OW 6937   1.041   2.563   7.877
 2124SOL    HW1 6938   1.067   2.559   7.973
 2124SOL    HW2 6939   0.956   2.512   7.863
 2125SOL     OW 6940   0.076   2.673   8.237
 2125SOL    HW1 6941   0.175   2.661   8.246
 2125SOL    HW2 6942   0.052   2.768   8.258
 2126SOL     OW 6943   0.130   3.683   9.019
 2126SOL    HW1 6944   0.120   3.668   9.118
 2126SOL    HW2 6945   0.044   3.719   8.983
 2127SOL     OW 6946   0.865   2.210   7.643
 2127SOL    HW1 6947   0.924   2.273   7.594
 2127SOL    HW2 6948   0.884   2.116   7.614
 2128SOL     OW 6949   1.719   2.447   9.279
 2128SOL    HW1 6950   1.693   2.536   9.243
 2128SOL    HW2 6951   1.717   2.379   9.206
 2129SOL     OW 6952   1.362   3.006   7.993
 2129SOL    HW1 6953   1.445   2.977   7.945
 2129SOL    HW2 6954   1.313   3.073   7.937
 2130SOL     OW 6955   0.550   2.058   8.333
 2130SOL    HW1 6956   0.545   2.053   8.433
 2130SOL    HW2 6957   0.552   2.154   8.304
 2131SOL     OW 6958   1.008   3.318   7.925
 2131SOL    HW1 6959   0.962   3.390   7.873
 2131SOL    HW2 6960   1.004   3.338   8.023
 2132SOL     OW 6961   0.351   3.663   8.301
 2132SOL    HW1 6962   0.401   3.577   8.307
 2132SOL    HW2 6963   0.416   3.740   8.298
 2133SOL     OW 6964   1.795   2.928   8.321
 2133SOL    HW1 6965   1.733   2.913   8.245
 2133SOL    HW2 6966   1.743   2.939   8.406
 2134SOL     OW 6967   1.227   3.412   8.954
 2134SOL    HW1 6968   1.233   3.335   9.018
 2134SOL    HW2 6969   1.175   3.386   8.874
 2135SOL     OW 6970   0.321   2.805   7.690
 2135SOL    HW1 6971   0.403   2.844   7.648
 2135SOL    HW2 6972   0.294   2.723   7.641
 2136SOL     OW 6973   1.458   2.597   8.176
 2136SOL    HW1 6974   1.453   2.532   8.251
 2136SOL    HW2 6975   1.538   2.656   8.189
 2137SOL     OW 6976   0.461   3.128   9.175
 2137SOL    HW1 6977   0.411   3.129   9.089
 2137SOL    HW2 6978   0.398   3.110   9.251
 2138SOL     OW 6979   1.111   3.638   7.685
 2138SOL    HW1 6980   1.051   3.576   7.735
 2138SOL    HW2 6981   1.142   3.594   7.600
 2139SOL     OW 6982   0.202   2.147   8.946
 2139SOL    HW1 6983   0.122   2.207   8.933
 2139SOL    HW2 6984   0.192   2.098   9.032
 2140SOL     OW 6985   1.632   3.239   7.529
 2140SOL    HW1 6986   1.600   3.333   7.519
 2140SOL    HW2 6987   1.556   3.176   7.517
 2141SOL     OW 6988   0.464   3.605   7.771
 2141SOL    HW1 6989   0.497   3.644   7.857
 2141SOL    HW2 6990   0.540   3.598   7.706
 2142SOL     OW 6991   1.400   1.969   7.874
 2142SOL    HW1 6992   1.376   1.932   7.784
 2142SOL    HW2 6993   1.499   1.985   7.878
 2143SOL     OW 6994   0.249   3.647   8.689
 2143SOL    HW1 6995   0.306   3.582   8.739
 2143SOL    HW2 6996   0.233   3.614   8.596
 2144SOL     OW 6997   0.940   3.560   8.352
 2144SOL    HW1 6998   1.020   3.503   8.373
 2144SOL    HW2 6999   0.891   3.520   8.275
 2145SOL     OW 7000   0.382   2.562   7.928
 2145SOL    HW1 7001   0.427   2.472   7.925
 2145SOL    HW2 7002   0.288   2.551   7.961
 2146SOL     OW 7003   1.547   2.084   9.177
 2146SOL    HW1 7004   1.542   2.121   9.269
 2146SOL    HW2 7005   1.475   2.015   9.165
 2147SOL     OW 7006   0.614   1.984   7.565
 2147SOL    HW1 7007   0.712   1.962   7.572
 2147SOL    HW2 7008   0.583   1.967   7.472
 2148SOL     OW 7009   0.781   2.126   9.197
 2148SOL    HW1 7010   0.848   2.065   9.240
 2148SOL    HW2 7011   0.708   2.145   9.262
 2149SOL     OW 7012   0.888   3.376   8.643
 2149SOL    HW1 7013   0.865   3.351   8.549
 2149SOL    HW2 7014   0.949   3.307   8.682
 2150SOL     OW 7015   1.351   2.452   8.881
 2150SOL    HW1 7016   1.379   2.409   8.966
 2150SOL    HW2 7017   1.376   2.548   8.882
 2151SOL     OW 7018   0.803   3.264   8.372
 2151SOL    HW1 7019   0.893   3.278   8.330
 2151SOL    HW2 7020   0.732   3.266   8.301
 2152SOL     OW 7021   0.922   2.365   8.347
 2152SOL    HW1 7022   0.897   2.356   8.251
 2152SOL    HW2 7023   0.970   2.283   8.378
 2153SOL     OW 7024   0.539   1.926   7.960
 2153SOL    HW1 7025   0.458   1.927   8.018
 2153SOL    HW2 7026   0.542   2.009   7.905
 2154SOL     OW 7027   1.434   3.050   7.489
 2154SOL    HW1 7028   1.466   2.974   7.546
 2154SOL    HW2 7029   1.342   3.077   7.519
 2155SOL     OW 7030   0.297   1.897   7.619
 2155SOL    HW1 7031   0.346   1.981   7.598
 2155SOL    HW2 7032   0.359   1.832   7.664
 2156SOL     OW 7033   0.935   2.098   7.928
 2156SOL    HW1 7034   0.887   2.139   7.850
 2156SOL    HW2 7035   1.034   2.096   7.909
 2157SOL     OW 7036   1.076   2.545   8.912
 2157SOL    HW1 7037   0.996   2.484   8.915
 2157SOL    HW2 7038   1.157   2.492   8.888
 2158SOL     OW 7039   1.227   3.432   8.241
 2158SOL    HW1 7040   1.248   3.506   8.176
 2158SOL    HW2 7041   1.295   3.432   8.314
 2159SOL     OW 7042   0.459   3.014   8.189
 2159SOL    HW1 7043   0.388   2.987   8.254
 2159SOL    HW2 7044   0.433   2.986   8.096
 2160SOL     OW 7045   1.271   3.659   8.039
 2160SOL    HW1 7046   1.315   3.723   7.975
 2160SOL    HW2 7047   1.221   3.711   8.109
 2161SOL     OW 7048   1.032   2.411   7.464
 2161SOL    HW1 7049   0.991   2.493   7.425
 2161SOL    HW2 7050   1.096   2.437   7.537
 2162SOL     OW 7051   0.078   2.418   8.834
 2162SOL    HW1 7052   0.170   2.417   8.793
 2162SOL    HW2 7053   0.072   2.492   8.901
 2163SOL     OW 7054   0.561   2.084   8.595
 2163SOL    HW1 7055   0.599   2.000   8.632
 2163SOL    HW2 7056   0.473   2.103   8.639
 2164SOL     OW 7057   0.866   2.316   8.090
 2164SOL    HW1 7058   0.834   2.388   8.028
 2164SOL    HW2 7059   0.890   2.235   8.037
 2165SOL     OW 7060   1.017   1.901   8.201
 2165SOL    HW1 7061   0.945   1.906   8.132
 2165SOL    HW2 7062   0.993   1.832   8.270
 2166SOL     OW 7063   1.429   3.035   8.315
 2166SOL    HW1 7064   1.374   2.951   8.308
 2166SOL    HW2 7065   1.455   3.064   8.223
 2167SOL     OW 7066   1.466   2.452   8.440
 2167SOL    HW1 7067   1.436   2.357   8.447
 2167SOL    HW2 7068   1.539   2.468   8.506
 2168SOL     OW 7069   1.857   2.695   7.825
 2168SOL    HW1 7070   1.899   2.631   7.889
 2168SOL    HW2 7071   1.819   2.644   7.747
 2169SOL     OW 7072   0.488   3.247   7.622
 2169SOL    HW1 7073   0.401   3.232   7.669
 2169SOL    HW2 7074   0.471   3.273   7.527
 2170SOL     OW 7075   1.664   3.142   8.105
 2170SOL    HW1 7076   1.763   3.150   8.119
 2170SOL    HW2 7077   1.619   3.226   8.136
 2171SOL     OW 7078   1.390   2.437   7.526
 2171SOL    HW1 7079   1.336   2.416   7.607
 2171SOL    HW2 7080   1.481   2.396   7.535
 2172SOL     OW 7081   0.527   2.118   7.776
 2172SOL    HW1 7082   0.554   2.059   7.701
 2172SOL    HW2 7083   0.527   2.213   7.745
 2173SOL     OW 7084   1.754   3.085   9.036
 2173SOL    HW1 7085   1.845   3.046   9.023
 2173SOL    HW2 7086   1.762   3.181   9.060
 2174SOL     OW 7087   1.064   3.209   8.788
 2174SOL    HW1 7088   0.984   3.186   8.843
 2174SOL    HW2 7089   1.147   3.183   8.837
 2175SOL     OW 7090   1.592   3.491   9.073
 2175SOL    HW1 7091   1.619   3.525   8.983
 2175SOL    HW2 7092   1.671   3.453   9.119
 2176SOL     OW 7093   1.111   3.057   8.548
 2176SOL    HW1 7094   1.071   3.101   8.629
 2176SOL    HW2 7095   1.070   3.094   8.465
 2177SOL     OW 7096   1.638   2.961   8.527
 2177SOL    HW1 7097   1.643   3.042   8.586
 2177SOL    HW2 7098   1.552   2.963   8.476
 2178SOL     OW 7099   0.915   1.951   8.850
 2178SOL    HW1 7100   0.940   1.931   8.755
 2178SOL    HW2 7101   0.987   2.007   8.892
 2179SOL     OW 7102   0.980   2.978   9.167
 2179SOL    HW1 7103   0.881   2.984   9.177
 2179SOL    HW2 7104   1.003   2.898   9.111
 2180SOL     OW 7105   0.705   2.912   7.816
 2180SOL    HW1 7106   0.691   2.919   7.915
 2180SOL    HW2 7107   0.789   2.861   7.798
 2181SOL     OW 7108   0.410   2.675   8.699
 2181SOL    HW1 7109   0.496   2.687   8.749
 2181SOL    HW2 7110   0.368   2.588   8.726
 2182SOL     OW 7111   1.274   2.248   8.710
 2182SOL    HW1 7112   1.295   2.322   8.774
 2182SOL    HW2 7113   1.185   2.265   8.667
 2183SOL     OW 7114   0.064   3.426   8.779
 2183SOL    HW1 7115   0.018   3.508   8.745
 2183SOL    HW2 7116   0.162   3.445   8.788
 2184SOL     OW 7117   0.367   2.962   7.949
 2184SOL    HW1 7118   0.360   3.045   7.893
 2184SOL    HW2 7119   0.371   2.882   7.889
 2185SOL     OW 7120   0.566   2.399   8.313
 2185SOL    HW1 7121   0.578   2.465   8.239
 2185SOL    HW2 7122   0.612   2.433   8.396
 2186SOL     OW 7123   1.252   3.210   7.836
 2186SOL    HW1 7124   1.302   3.287   7.876
 2186SOL    HW2 7125   1.157   3.212   7.868
 2187SOL     OW 7126   1.272   3.307   8.590
 2187SOL    HW1 7127   1.319   3.320   8.677
 2187SOL    HW2 7128   1.206   3.233   8.599
 2188SOL     OW 7129   1.582   2.501   7.920
 2188SOL    HW1 7130   1.551   2.562   7.993
 2188SOL    HW2 7131   1.632   2.553   7.851
 2189SOL     OW 7132   0.354   3.372   8.777
 2189SOL    HW1 7133   0.333   3.328   8.690
 2189SOL    HW2 7134   0.451   3.398   8.780
 2190SOL     OW 7135   0.402   2.613   9.046
 2190SOL    HW1 7136   0.470   2.668   8.999
 2190SOL    HW2 7137   0.442   2.525   9.073
 2191SOL     OW 7138   1.587   2.641   9.118
 2191SOL    HW1 7139   1.495   2.679   9.113
 2191SOL    HW2 7140   1.647   2.688   9.053
 2192SOL     OW 7141   1.013   1.967   9.218
 2192SOL    HW1 7142   1.019   2.052   9.166
 2192SOL    HW2 7143   1.045   1.891   9.161
 2193SOL     OW 7144   0.504   1.912   9.188
 2193SOL    HW1 7145   0.462   1.855   9.118
 2193SOL    HW2 7146   0.438   1.981   9.220
 2194SOL     OW 7147   0.573   2.732   8.477
 2194SOL    HW1 7148   0.617   2.821   8.468
 2194SOL    HW2 7149   0.510   2.732   8.554
 2195SOL     OW 7150   1.360   2.724   8.493
 2195SOL    HW1 7151   1.285   2.724   8.427
 2195SOL    HW2 7152   1.397   2.632   8.502
 2196SOL     OW 7153   1.209   2.387   7.723
 2196SOL    HW1 7154   1.222   2.303   7.777
 2196SOL    HW2 7155   1.180   2.461   7.783
 2197SOL     OW 7156   0.307   2.075   8.679
 2197SOL    HW1 7157   0.284   2.112   8.769
 2197SOL    HW2 7158   0.277   1.980   8.673
 2198SOL     OW 7159   0.037   3.172   8.730
 2198SOL    HW1 7160   0.090   3.123   8.798
 2198SOL    HW2 7161   0.059   3.270   8.735
 2199SOL     OW 7162   0.732   2.496   8.512
 2199SOL    HW1 7163   0.791   2.470   8.436
 2199SOL    HW2 7164   0.704   2.592   8.501
 2200SOL     OW 7165   1.728   2.797   9.302
 2200SOL    HW1 7166   1.682   2.790   9.213
 2200SOL    HW2 7167   1.666   2.841   9.368
 2201SOL     OW 7168   0.307   1.925   8.066
 2201SOL    HW1 7169   0.296   2.019   8.099
 2201SOL    HW2 7170   0.302   1.862   8.143
 2202SOL     OW 7171   1.622   2.229   7.822
 2202SOL    HW1 7172   1.624   2.153   7.886
 2202SOL    HW2 7173   1.574   2.306   7.862
 2203SOL     OW 7174   1.023   2.628   8.414
 2203SOL    HW1 7175   1.038   2.649   8.510
 2203SOL    HW2 7176   0.993   2.533   8.405
 2204SOL     OW 7177   0.980   3.435   9.148
 2204SOL    HW1 7178   0.960   3.479   9.060
 2204SOL    HW2 7179   1.019   3.344   9.132
 2205SOL     OW 7180   1.859   3.380   9.053
 2205SOL    HW1 7181   1.873   3.407   8.958
 2205SOL    HW2 7182   1.942   3.402   9.106
 2206SOL     OW 7183   0.350   2.760   9.252
 2206SOL    HW1 7184   0.426   2.804   9.300
 2206SOL    HW2 7185   0.385   2.713   9.170
 2207SOL     OW 7186   1.540   2.136   7.573
 2207SOL    HW1 7187   1.479   2.061   7.596
 2207SOL    HW2 7188   1.562   2.188   7.656
 2208SOL     OW 7189   1.303   2.700   7.490
 2208SOL    HW1 7190   1.337   2.607   7.505
 2208SOL    HW2 7191   1.321   2.727   7.395
 2209SOL     OW 7192   1.068   3.195   8.297
 2209SOL    HW1 7193   1.075   3.111   8.242
 2209SOL    HW2 7194   1.130   3.264   8.261
 2210SOL     OW 7195   0.319   2.672   8.397
 2210SOL    HW1 7196   0.412   2.708   8.402
 2210SOL    HW2 7197   0.313   2.587   8.449
 2211SOL     OW 7198   0.339   2.371   8.454
 2211SOL    HW1 7199   0.287   2.288   8.437
 2211SOL    HW2 7200   0.416   2.376   8.390
 2212SOL     OW 7201   1.138   2.242   9.126
 2212SOL    HW1 7202   1.093   2.305   9.190
 2212SOL    HW2 7203   1.231   2.273   9.109
 2213SOL     OW 7204   1.160   2.069   8.925
 2213SOL    HW1 7205   1.160   2.133   9.002
 2213SOL    HW2 7206   1.188   2.117   8.842
 2214SOL     OW 7207   0.008   3.188   7.648
 2214SOL    HW1 7208  -0.085   3.209   7.617
 2214SOL    HW2 7209   0.018   3.089   7.661
 2215SOL     OW 7210   0.088   3.663   8.375
 2215SOL    HW1 7211   0.046   3.577   8.348
 2215SOL    HW2 7212   0.182   3.666   8.341
 2216SOL     OW 7213   0.504   3.430   8.358
 2216SOL    HW1 7214   0.570   3.504   8.367
 2216SOL    HW2 7215   0.548   3.351   8.316
 2217SOL     OW 7216   1.002   2.658   8.686
 2217SOL    HW1 7217   1.043   2.626   8.772
 2217SOL    HW2 7218   0.906   2.631   8.683
 2218SOL     OW 7219   0.040   2.406   8.562
 2218SOL    HW1 7220   0.125   2.373   8.521
 2218SOL    HW2 7221   0.053   2.421   8.660
 2219SOL     OW 7222   0.189   2.382   9.170
 2219SOL    HW1 7223   0.248   2.342   9.100
 2219SOL    HW2 7224   0.131   2.453   9.129
 2220SOL     OW 7225   1.369   2.812   9.108
 2220SOL    HW1 7226   1.408   2.901   9.128
 2220SOL    HW2 7227   1.379   2.792   9.011
 2221SOL     OW 7228   0.815   2.434   7.773
 2221SOL    HW1 7229   0.822   2.345   7.727
 2221SOL    HW2 7230   0.721   2.468   7.765
 2222SOL     OW 7231   1.657   2.466   8.654
 2222SOL    HW1 7232   1.619   2.397   8.716
 2222SOL    HW2 7233   1.739   2.430   8.610
 2223SOL     OW 7234   0.252   3.426   9.192
 2223SOL    HW1 7235   0.222   3.483   9.268
 2223SOL    HW2 7236   0.245   3.329   9.218
 2224SOL     OW 7237   0.671   2.326   8.717
 2224SOL    HW1 7238   0.637   2.237   8.687
 2224SOL    HW2 7239   0.697   2.380   8.637
 2225SOL     OW 7240   0.930   3.540   8.913
 2225SOL    HW1 7241   0.906   3.522   8.818
 2225SOL    HW2 7242   0.960   3.634   8.923
 2226SOL     OW 7243   0.473   2.362   7.639
 2226SOL    HW1 7244   0.534   2.442   7.643
 2226SOL    HW2 7245   0.378   2.393   7.646
 2227SOL     OW 7246   0.159   2.999   8.914
 2227SOL    HW1 7247   0.181   2.938   8.990
 2227SOL    HW2 7248   0.169   2.950   8.828
 2228SOL     OW 7249   1.347   2.921   8.682
 2228SOL    HW1 7250   1.371   2.858   8.608
 2228SOL    HW2 7251   1.257   2.961   8.664
 2229SOL     OW 7252   1.302   2.717   7.757
 2229SOL    HW1 7253   1.216   2.686   7.799
 2229SOL    HW2 7254   1.298   2.703   7.658
 2230SOL     OW 7255   1.759   3.609   8.602
 2230SOL    HW1 7256   1.820   3.639   8.529
 2230SOL    HW2 7257   1.721   3.520   8.580
 2231SOL     OW 7258   1.252   3.593   8.576
 2231SOL    HW1 7259   1.336   3.598   8.522
 2231SOL    HW2 7260   1.229   3.497   8.594
 2232SOL     OW 7261   0.083   3.120   8.470
 2232SOL    HW1 7262   0.078   3.119   8.570
 2232SOL    HW2 7263   0.000   3.079   8.432
 2233SOL     OW 7264   0.688   3.524   9.164
 2233SOL    HW1 7265   0.632   3.605   9.173
 2233SOL    HW2 7266   0.740   3.528   9.078
 2234SOL     OW 7267   1.726   1.997   7.971
 2234SOL    HW1 7268   1.799   1.980   7.904
 2234SOL    HW2 7269   1.695   1.910   8.009
 2235SOL     OW 7270   1.388   3.435   7.925
 2235SOL    HW1 7271   1.455   3.447   7.851
 2235SOL    HW2 7272   1.348   3.524   7.948
 2236SOL     OW 7273   0.130   3.656   9.299
 2236SOL    HW1 7274   0.089   3.582   9.352
 2236SOL    HW2 7275   0.194   3.707   9.357
 2237SOL     OW 7276   1.280   2.789   8.120
 2237SOL    HW1 7277   1.340   2.708   8.122
 2237SOL    HW2 7278   1.320   2.858   8.060
 2238SOL     OW 7279   0.830   3.135   8.870
 2238SOL    HW1 7280   0.825   3.168   8.965
 2238SOL    HW2 7281   0.744   3.154   8.824
 2239SOL     OW 7282   0.672   3.478   7.602
 2239SOL    HW1 7283   0.681   3.488   7.503
 2239SOL    HW2 7284   0.632   3.389   7.623
 2240SOL     OW 7285   1.650   3.582   8.842
 2240SOL    HW1 7286   1.703   3.592   8.758
 2240SOL    HW2 7287   1.623   3.672   8.876
 2241SOL     OW 7288   1.841   2.037   8.411
 2241SOL    HW1 7289   1.880   1.952   8.375
 2241SOL    HW2 7290   1.743   2.039   8.392
 2242SOL     OW 7291   0.263   2.188   8.168
 2242SOL    HW1 7292   0.184   2.239   8.134
 2242SOL    HW2 7293   0.254   2.173   8.266
 2243SOL     OW 7294   1.194   3.474   7.479
 2243SOL    HW1 7295   1.200   3.381   7.516
 2243SOL    HW2 7296   1.135   3.474   7.399
 2244SOL     OW 7297   0.822   2.864   8.820
 2244SOL    HW1 7298   0.862   2.863   8.728
 2244SOL    HW2 7299   0.832   2.956   8.860
 2245SOL     OW 7300   0.916   2.772   7.739
 2245SOL    HW1 7301   0.979   2.810   7.671
 2245SOL    HW2 7302   0.956   2.689   7.778
 2246SOL     OW 7303   1.504   3.469   7.492
 2246SOL    HW1 7304   1.412   3.506   7.499
 2246SOL    HW2 7305   1.542   3.489   7.402
 2247SOL     OW 7306   0.372   3.150   8.938
 2247SOL    HW1 7307   0.359   3.243   8.904
 2247SOL    HW2 7308   0.288   3.098   8.925
 2248SOL     OW 7309   1.614   3.154   8.737
 2248SOL    HW1 7310   1.674   3.157   8.817
 2248SOL    HW2 7311   1.539   3.218   8.750
 2249SOL     OW 7312   1.039   2.960   8.144
 2249SOL    HW1 7313   0.969   2.913   8.198
 2249SOL    HW2 7314   1.098   2.892   8.101
 2250SOL     OW 7315   1.014   2.098   8.419
 2250SOL    HW1 7316   1.006   2.062   8.326
 2250SOL    HW2 7317   1.012   2.022   8.484
 2251SOL     OW 7318   0.590   3.349   7.939
 2251SOL    HW1 7319   0.632   3.291   7.869
 2251SOL    HW2 7320   0.546   3.428   7.895
 2252SOL     OW 7321   1.709   2.247   8.829
 2252SOL    HW1 7322   1.782   2.316   8.833
 2252SOL    HW2 7323   1.737   2.172   8.770
 2253SOL     OW 7324   0.255   3.210   7.738
 2253SOL    HW1 7325   0.159   3.211   7.711
 2253SOL    HW2 7326   0.267   3.263   7.822
 2254SOL     OW 7327   0.105   2.875   9.174
 2254SOL    HW1 7328   0.028   2.842   9.228
 2254SOL    HW2 7329   0.190   2.845   9.216
 2255SOL     OW 7330   0.672   2.065   8.937
 2255SOL    HW1 7331   0.762   2.049   8.897
 2255SOL    HW2 7332   0.680   2.070   9.036
 2256SOL     OW 7333   0.075   2.207   7.481
 2256SOL    HW1 7334  -0.017   2.179   7.452
 2256SOL    HW2 7335   0.106   2.284   7.425
 2257SOL     OW 7336   1.440   2.718   8.846
 2257SOL    HW1 7337   1.383   2.770   8.783
 2257SOL    HW2 7338   1.536   2.730   8.822
 2258SOL     OW 7339   0.072   2.028   7.766
 2258SOL    HW1 7340   0.055   2.111   7.712
 2258SOL    HW2 7341   0.162   1.991   7.744
 2259SOL     OW 7342   1.183   3.197   7.567
 2259SOL    HW1 7343   1.084   3.186   7.569
 2259SOL    HW2 7344   1.217   3.212   7.660
 2260SOL     OW 7345   0.613   2.704   8.879
 2260SOL    HW1 7346   0.669   2.785   8.862
 2260SOL    HW2 7347   0.672   2.624   8.882
 2261SOL     OW 7348   1.493   3.629   8.407
 2261SOL    HW1 7349   1.526   3.693   8.338
 2261SOL    HW2 7350   1.559   3.623   8.482
 2262SOL     OW 7351   0.716   2.427   9.156
 2262SOL    HW1 7352   0.735   2.492   9.230
 2262SOL    HW2 7353   0.776   2.347   9.165
 2263SOL     OW 7354   1.450   3.082   9.081
 2263SOL    HW1 7355   1.441   3.072   9.180
 2263SOL    HW2 7356   1.546   3.075   9.055
 2264SOL     OW 7357   0.390   3.603   9.008
 2264SOL    HW1 7358   0.299   3.644   9.006
 2264SOL    HW2 7359   0.383   3.509   9.040
 2265SOL     OW 7360   1.674   2.745   8.702
 2265SOL    HW1 7361   1.647   2.656   8.665
 2265SOL    HW2 7362   1.675   2.813   8.629
 2266SOL     OW 7363   1.225   2.187   7.897
 2266SOL    HW1 7364   1.290   2.113   7.886
 2266SOL    HW2 7365   1.245   2.237   7.981
 2267SOL     OW 7366   0.594   2.607   8.100
 2267SOL    HW1 7367   0.644   2.692   8.081
 2267SOL    HW2 7368   0.506   2.609   8.052
 2268SOL     OW 7369   1.777   2.204   9.090
 2268SOL    HW1 7370   1.760   2.235   8.996
 2268SOL    HW2 7371   1.693   2.167   9.128
 2269SOL     OW 7372   1.730   2.796   8.965
 2269SOL    HW1 7373   1.768   2.887   8.980
 2269SOL    HW2 7374   1.722   2.779   8.866
 2270SOL     OW 7375   0.859   3.236   7.464
 2270SOL    HW1 7376   0.813   3.251   7.552
 2270SOL    HW2 7377   0.903   3.321   7.434
 2271SOL     OW 7378   0.661   3.652   8.401
 2271SOL    HW1 7379   0.615   3.740   8.388
 2271SOL    HW2 7380   0.760   3.664   8.394
 2272SOL     OW 7381   0.859   2.818   8.309
 2272SOL    HW1 7382   0.913   2.749   8.357
 2272SOL    HW2 7383   0.827   2.887   8.375
 2273SOL     OW 7384   1.083   2.846   7.535
 2273SOL    HW1 7385   1.060   2.899   7.453
 2273SOL    HW2 7386   1.164   2.790   7.516
 2274SOL     OW 7387   1.861   3.431   8.299
 2274SOL    HW1 7388   1.790   3.419   8.229
 2274SOL    HW2 7389   1.862   3.352   8.359
 2275SOL     OW 7390   0.221   3.176   9.292
 2275SOL    HW1 7391   0.156   3.103   9.271
 2275SOL    HW2 7392   0.225   3.190   9.390
 2276SOL     OW 7393   0.079   3.102   8.101
 2276SOL    HW1 7394   0.078   3.055   8.189
 2276SOL    HW2 7395   0.161   3.074   8.050
 2277SOL     OW 7396   0.672   3.253   9.072
 2277SOL    HW1 7397   0.594   3.203   9.110
 2277SOL    HW2 7398   0.669   3.348   9.103
 2278SOL     OW 7399   1.824   2.054   8.675
 2278SOL    HW1 7400   1.820   1.964   8.719
 2278SOL    HW2 7401   1.827   2.043   8.576
 2279SOL     OW 7402   0.428   2.286   7.968
 2279SOL    HW1 7403   0.458   2.214   7.906
 2279SOL    HW2 7404   0.389   2.246   8.051
 2280SOL     OW 7405   1.705   3.349   8.552
 2280SOL    HW1 7406   1.612   3.324   8.525
 2280SOL    HW2 7407   1.731   3.299   8.634
 2281SOL     OW 7408   0.317   2.409   8.728
 2281SOL    HW1 7409   0.355   2.350   8.800
 2281SOL    HW2 7410   0.357   2.383   8.640
 2282SOL     OW 7411   0.812   3.448   8.135
 2282SOL    HW1 7412   0.844   3.458   8.041
 2282SOL    HW2 7413   0.733   3.386   8.137
 2283SOL     OW 7414   1.424   2.076   8.560
 2283SOL    HW1 7415   1.476   2.011   8.615
 2283SOL    HW2 7416   1.375   2.139   8.621
 2284SOL     OW 7417   1.001   1.896   8.602
 2284SOL    HW1 7418   0.938   1.824   8.571
 2284SOL    HW2 7419   1.094   1.860   8.602
 2285SOL     OW 7420   0.770   3.192   7.749
 2285SOL    HW1 7421   0.724   3.105   7.766
 2285SOL    HW2 7422   0.861   3.189   7.790
 2286SOL     OW 7423   0.618   3.429   8.732
 2286SOL    HW1 7424   0.613   3.511   8.789
 2286SOL    HW2 7425   0.707   3.426   8.687
 2287SOL     OW 7426   1.352   1.914   7.616
 2287SOL    HW1 7427   1.387   1.873   7.532
 2287SOL    HW2 7428   1.262   1.876   7.636
 2288SOL     OW 7429   1.300   2.315   8.139
 2288SOL    HW1 7430   1.241   2.395   8.143
 2288SOL    HW2 7431   1.315   2.280   8.232
 2289SOL     OW 7432   1.593   2.083   8.330
 2289SOL    HW1 7433   1.509   2.082   8.384
 2289SOL    HW2 7434   1.595   2.166   8.274
 2290SOL     OW 7435   0.039   2.939   7.748
 2290SOL    HW1 7436   0.138   2.928   7.739
 2290SOL    HW2 7437  -0.001   2.853   7.780
 2291SOL     OW 7438   0.875   3.508   7.785
 2291SOL    HW1 7439   0.798   3.473   7.731
 2291SOL    HW2 7440   0.843   3.579   7.847
 2292SOL     OW 7441   0.230   2.490   9.423
 2292SOL    HW1 7442   0.137   2.488   9.460
 2292SOL    HW2 7443   0.231   2.451   9.331
 2293SOL     OW 7444   0.225   2.137  10.306
 2293SOL    HW1 7445   0.260   2.120  10.398
 2293SOL    HW2 7446   0.137   2.092  10.294
 2294SOL     OW 7447   0.019   2.230   9.957
 2294SOL    HW1 7448  -0.063   2.273   9.996
 2294SOL    HW2 7449  -0.009   2.157   9.894
 2295SOL     OW 7450   0.569   3.137  10.475
 2295SOL    HW1 7451   0.476   3.130  10.438
 2295SOL    HW2 7452   0.580   3.226  10.519
 2296SOL     OW 7453   1.555   3.373  10.013
 2296SOL    HW1 7454   1.498   3.357  10.094
 2296SOL    HW2 7455   1.496   3.383   9.933
 2297SOL     OW 7456   1.135   2.565  10.027
 2297SOL    HW1 7457   1.192   2.643  10.002
 2297SOL    HW2 7458   1.075   2.591  10.103
 2298SOL     OW 7459   1.755   2.469   9.541
 2298SOL    HW1 7460   1.743   2.456   9.442
 2298SOL    HW2 7461   1.725   2.388   9.590
 2299SOL     OW 7462   0.768   3.006  10.333
 2299SOL    HW1 7463   0.690   3.023  10.393
 2299SOL    HW2 7464   0.802   3.093  10.297
 2300SOL     OW 7465   0.850   2.660  11.133
 2300SOL    HW1 7466   0.846   2.736  11.198
 2300SOL    HW2 7467   0.872   2.696  11.042
 2301SOL     OW 7468   0.685   2.874   9.975
 2301SOL    HW1 7469   0.754   2.858  10.045
 2301SOL    HW2 7470   0.612   2.931  10.013
 2302SOL     OW 7471   0.335   3.297  10.371
 2302SOL    HW1 7472   0.257   3.266  10.318
 2302SOL    HW2 7473   0.393   3.355  10.314
 2303SOL     OW 7474   1.460   3.367  10.649
 2303SOL    HW1 7475   1.484   3.461  10.675
 2303SOL    HW2 7476   1.444   3.313  10.731
 2304SOL     OW 7477   0.438   2.254  10.809
 2304SOL    HW1 7478   0.520   2.198  10.818
 2304SOL    HW2 7479   0.357   2.196  10.813
 2305SOL     OW 7480   1.603   2.309  10.047
 2305SOL    HW1 7481   1.529   2.355   9.997
 2305SOL    HW2 7482   1.654   2.377  10.100
 2306SOL     OW 7483   0.231   3.575   9.793
 2306SOL    HW1 7484   0.265   3.652   9.847
 2306SOL    HW2 7485   0.275   3.575   9.703
 2307SOL     OW 7486   0.230   3.296   9.848
 2307SOL    HW1 7487   0.204   3.392   9.848
 2307SOL    HW2 7488   0.159   3.242   9.893
 2308SOL     OW 7489   0.240   2.953  10.196
 2308SOL    HW1 7490   0.254   2.869  10.248
 2308SOL    HW2 7491   0.185   3.017  10.251
 2309SOL     OW 7492   0.620   3.648  10.749
 2309SOL    HW1 7493   0.528   3.631  10.784
 2309SOL    HW2 7494   0.648   3.740  10.775
 2310SOL     OW 7495   0.606   2.826   9.433
 2310SOL    HW1 7496   0.613   2.910   9.379
 2310SOL    HW2 7497   0.652   2.839   9.521
 2311SOL     OW 7498   1.594   1.976  10.790
 2311SOL    HW1 7499   1.576   2.043  10.718
 2311SOL    HW2 7500   1.591   2.022  10.879
 2312SOL     OW 7501   0.122   2.505   9.873
 2312SOL    HW1 7502   0.077   2.417   9.890
 2312SOL    HW2 7503   0.121   2.559   9.957
 2313SOL     OW 7504   1.842   3.629   9.669
 2313SOL    HW1 7505   1.896   3.600   9.749
 2313SOL    HW2 7506   1.872   3.719   9.640
 2314SOL     OW 7507   0.027   3.458   9.427
 2314SOL    HW1 7508   0.008   3.362   9.448
 2314SOL    HW2 7509  -0.006   3.516   9.502
 2315SOL     OW 7510   1.689   2.784   9.922
 2315SOL    HW1 7511   1.784   2.755   9.930
 2315SOL    HW2 7512   1.681   2.849   9.847
 2316SOL     OW 7513   1.641   2.970   9.742
 2316SOL    HW1 7514   1.727   2.972   9.690
 2316SOL    HW2 7515   1.655   3.017   9.830
 2317SOL     OW 7516   0.113   2.599  10.907
 2317SOL    HW1 7517   0.201   2.586  10.952
 2317SOL    HW2 7518   0.100   2.696  10.885
 2318SOL     OW 7519   0.613   3.227  10.036
 2318SOL    HW1 7520   0.564   3.140  10.045
 2318SOL    HW2 7521   0.590   3.270   9.949
 2319SOL     OW 7522   1.293   3.090  10.733
 2319SOL    HW1 7523   1.330   3.017  10.675
 2319SOL    HW2 7524   1.345   3.095  10.818
 2320SOL     OW 7525   0.809   1.866   9.812
 2320SOL    HW1 7526   0.849   1.957   9.803
 2320SOL    HW2 7527   0.709   1.874   9.818
 2321SOL     OW 7528   0.197   2.838  10.574
 2321SOL    HW1 7529   0.286   2.793  10.560
 2321SOL    HW2 7530   0.124   2.773  10.555
 2322SOL     OW 7531   1.525   2.861   9.500
 2322SOL    HW1 7532   1.462   2.785   9.513
 2322SOL    HW2 7533   1.573   2.879   9.586
 2323SOL     OW 7534   1.187   3.654  10.926
 2323SOL    HW1 7535   1.211   3.714  10.850
 2323SOL    HW2 7536   1.194   3.559  10.896
 2324SOL     OW 7537   0.317   2.113  11.111
 2324SOL    HW1 7538   0.388   2.184  11.117
 2324SOL    HW2 7539   0.229   2.152  11.139
 2325SOL     OW 7540   1.466   3.279  10.263
 2325SOL    HW1 7541   1.407   3.285  10.343
 2325SOL    HW2 7542   1.451   3.191  10.217
 2326SOL     OW 7543   1.667   3.576   9.882
 2326SOL    HW1 7544   1.626   3.553   9.794
 2326SOL    HW2 7545   1.649   3.502   9.947
 2327SOL     OW 7546   0.598   2.591   9.580
 2327SOL    HW1 7547   0.622   2.660   9.512
 2327SOL    HW2 7548   0.520   2.624   9.634
 2328SOL     OW 7549   1.281   2.207  10.254
 2328SOL    HW1 7550   1.195   2.157  10.241
 2328SOL    HW2 7551   1.343   2.153  10.310
 2329SOL     OW 7552   1.576   3.524   9.617
 2329SOL    HW1 7553   1.665   3.570   9.620
 2329SOL    HW2 7554   1.555   3.500   9.522
 2330SOL     OW 7555   0.807   2.467  10.775
 2330SOL    HW1 7556   0.760   2.464  10.864
 2330SOL    HW2 7557   0.756   2.412  10.709
 2331SOL     OW 7558   0.973   2.752  10.882
 2331SOL    HW1 7559   1.019   2.668  10.853
 2331SOL    HW2 7560   0.917   2.786  10.807
 2332SOL     OW 7561   0.991   2.272  10.552
 2332SOL    HW1 7562   0.914   2.306  10.606
 2332SOL    HW2 7563   0.957   2.221  10.473
 2333SOL     OW 7564   1.041   2.563   9.739
 2333SOL    HW1 7565   1.067   2.559   9.835
 2333SOL    HW2 7566   0.956   2.512   9.725
 2334SOL     OW 7567   0.076   2.673  10.099
 2334SOL    HW1 7568   0.175   2.661  10.108
 2334SOL    HW2 7569   0.052   2.768  10.120
 2335SOL     OW 7570   0.130   3.683  10.881
 2335SOL    HW1 7571   0.120   3.668  10.980
 2335SOL    HW2 7572   0.044   3.719  10.845
 2336SOL     OW 7573   0.865   2.210   9.505
 2336SOL    HW1 7574   0.924   2.273   9.456
 2336SOL    HW2 7575   0.884   2.116   9.476
 2337SOL     OW 7576   1.362   3.006   9.855
 2337SOL    HW1 7577   1.445   2.977   9.807
 2337SOL    HW2 7578   1.313   3.073   9.799
 2338SOL     OW 7579   0.550   2.058  10.195
 2338SOL    HW1 7580   0.545   2.053  10.295
 2338SOL    HW2 7581   0.552   2.154  10.166
 2339SOL     OW 7582   1.008   3.318   9.787
 2339SOL    HW1 7583   0.962   3.390   9.735
 2339SOL    HW2 7584   1.004   3.338   9.885
 2340SOL     OW 7585   0.351   3.663  10.163
 2340SOL    HW1 7586   0.401   3.577  10.169
 2340SOL    HW2 7587   0.416   3.740  10.160
 2341SOL     OW 7588   1.795   2.928  10.183
 2341SOL    HW1 7589   1.733   2.913  10.107
 2341SOL    HW2 7590   1.743   2.939  10.268
 2342SOL     OW 7591   1.227   3.412  10.816
 2342SOL    HW1 7592   1.233   3.335  10.880
 2342SOL    HW2 7593   1.175   3.386  10.736
 2343SOL     OW 7594   0.321   2.805   9.552
 2343SOL    HW1 7595   0.403   2.844   9.510
 2343SOL    HW2 7596   0.294   2.723   9.503
 2344SOL     OW 7597   1.458   2.597  10.038
 2344SOL    HW1 7598   1.453   2.532  10.113
 2344SOL    HW2 7599   1.538   2.656  10.051
 2345SOL     OW 7600   0.461   3.128  11.037
 2345SOL    HW1 7601   0.411   3.129  10.951
 2345SOL    HW2 7602   0.398   3.110  11.113
 2346SOL     OW 7603   1.111   3.638   9.547
 2346SOL    HW1 7604   1.051   3.576   9.597
 2346SOL    HW2 7605   1.142   3.594   9.462
 2347SOL     OW 7606   0.202   2.147  10.808
 2347SOL    HW1 7607   0.122   2.207  10.795
 2347SOL    HW2 7608   0.192   2.098  10.894
 2348SOL     OW 7609   1.632   3.239   9.391
 2348SOL    HW1 7610   1.600   3.333   9.381
 2348SOL    HW2 7611   1.556   3.176   9.379
 2349SOL     OW 7612   0.464   3.605   9.633
 2349SOL    HW1 7613   0.497   3.644   9.719
 2349SOL    HW2 7614   0.540   3.598   9.568
 2350SOL     OW 7615   1.400   1.969   9.736
 2350SOL    HW1 7616   1.376   1.932   9.646
 2350SOL    HW2 7617   1.499   1.985   9.740
 2351SOL     OW 7618   0.249   3.647  10.551
 2351SOL    HW1 7619   0.306   3.582  10.601
 2351SOL    HW2 7620   0.233   3.614  10.458
 2352SOL     OW 7621   0.940   3.560  10.214
 2352SOL    HW1 7622   1.020   3.503  10.235
 2352SOL    HW2 7623   0.891   3.520  10.137
 2353SOL     OW 7624   0.382   2.562   9.790
 2353SOL    HW1 7625   0.427   2.472   9.787
 2353SOL    HW2 7626   0.288   2.551   9.823
 2354SOL     OW 7627   0.614   1.984   9.427
 2354SOL    HW1 7628   0.712   1.962   9.434
 2354SOL    HW2 7629   0.583   1.967   9.334
 2355SOL     OW 7630   0.781   2.126  11.059
 2355SOL    HW1 7631   0.848   2.065  11.102
 2355SOL    HW2 7632   0.708   2.145  11.124
 2356SOL     OW 7633   0.888   3.376  10.505
 2356SOL    HW1 7634   0.865   3.351  10.411
 2356SOL    HW2 7635   0.949   3.307  10.544
 2357SOL     OW 7636   1.351   2.452  10.743
 2357SOL    HW1 7637   1.379   2.409  10.828
 2357SOL    HW2 7638   1.376   2.548  10.744
 2358SOL     OW 7639   0.803   3.264  10.234
 2358SOL    HW1 7640   0.893   3.278  10.192
 2358SOL    HW2 7641   0.732   3.266  10.163
 2359SOL     OW 7642   0.922   2.365  10.209
 2359SOL    HW1 7643   0.897   2.356  10.113
 2359SOL    HW2 7644   0.970   2.283  10.240
 2360SOL     OW 7645   0.539   1.926   9.822
 2360SOL    HW1 7646   0.458   1.927   9.880
 2360SOL    HW2 7647   0.542   2.009   9.767
 2361SOL     OW 7648   1.434   3.050   9.351
 2361SOL    HW1 7649   1.466   2.974   9.408
 2361SOL    HW2 7650   1.342   3.077   9.381
 2362SOL     OW 7651   0.297   1.897   9.481
 2362SOL    HW1 7652   0.346   1.981   9.460
 2362SOL    HW2 7653   0.359   1.832   9.526
 2363SOL     OW 7654   0.935   2.098   9.790
 2363SOL    HW1 7655   0.887   2.139   9.712
 2363SOL    HW2 7656   1.034   2.096   9.771
 2364SOL     OW 7657   1.076   2.545  10.774
 2364SOL    HW1 7658   0.996   2.484  10.777
 2364SOL    HW2 7659   1.157   2.492  10.750
 2365SOL     OW 7660   1.227   3.432  10.103
 2365SOL    HW1 7661   1.248   3.506  10.038
 2365SOL    HW2 7662   1.295   3.432  10.176
 2366SOL     OW 7663   0.459   3.014  10.051
 2366SOL    HW1 7664   0.388   2.987  10.116
 2366SOL    HW2 7665   0.433   2.986   9.958
 2367SOL     OW 7666   1.271   3.659   9.901
 2367SOL    HW1 7667   1.315   3.723   9.837
 2367SOL    HW2 7668   1.221   3.711   9.971
 2368SOL     OW 7669   1.032   2.411   9.326
 2368SOL    HW1 7670   0.991   2.493   9.287
 2368SOL    HW2 7671   1.096   2.437   9.399
 2369SOL     OW 7672   0.078   2.418  10.696
 2369SOL    HW1 7673   0.170   2.417  10.655
 2369SOL    HW2 7674   0.072   2.492  10.763
 2370SOL     OW 7675   0.561   2.084  10.457
 2370SOL    HW1 7676   0.599   2.000  10.494
 2370SOL    HW2 7677   0.473   2.103  10.501
 2371SOL     OW 7678   0.866   2.316   9.952
 2371SOL    HW1 7679   0.834   2.388   9.890
 2371SOL    HW2 7680   0.890   2.235   9.899
 2372SOL     OW 7681   1.017   1.901  10.063
 2372SOL    HW1 7682   0.945   1.906   9.994
 2372SOL    HW2 7683   0.993   1.832  10.132
 2373SOL     OW 7684   1.429   3.035  10.177
 2373SOL    HW1 7685   1.374   2.951  10.170
 2373SOL    HW2 7686   1.455   3.064  10.085
 2374SOL     OW 7687   1.466   2.452  10.302
 2374SOL    HW1 7688   1.436   2.357  10.309
 2374SOL    HW2 7689   1.539   2.468  10.368
 2375SOL     OW 7690   1.857   2.695   9.687
 2375SOL    HW1 7691   1.899   2.631   9.751
 2375SOL    HW2 7692   1.819   2.644   9.609
 2376SOL     OW 7693   0.488   3.247   9.484
 2376SOL    HW1 7694   0.401   3.232   9.531
 2376SOL    HW2 7695   0.471   3.273   9.389
 2377SOL     OW 7696   1.664   3.142   9.967
 2377SOL    HW1 7697   1.763   3.150   9.981
 2377SOL    HW2 7698   1.619   3.226   9.998
 2378SOL     OW 7699   1.390   2.437   9.388
 2378SOL    HW1 7700   1.336   2.416   9.469
 2378SOL    HW2 7701   1.481   2.396   9.397
 2379SOL     OW 7702   0.527   2.118   9.638
 2379SOL    HW1 7703   0.554   2.059   9.563
 2379SOL    HW2 7704   0.527   2.213   9.607
 2380SOL     OW 7705   1.754   3.085  10.898
 2380SOL    HW1 7706   1.845   3.046  10.885
 2380SOL    HW2 7707   1.762   3.181  10.922
 2381SOL     OW 7708   1.064   3.209  10.650
 2381SOL    HW1 7709   0.984   3.186  10.705
 2381SOL    HW2 7710   1.147   3.183  10.699
 2382SOL     OW 7711   1.111   3.057  10.410
 2382SOL    HW1 7712   1.071   3.101  10.491
 2382SOL    HW2 7713   1.070   3.094  10.327
 2383SOL     OW 7714   1.638   2.961  10.389
 2383SOL    HW1 7715   1.643   3.042  10.448
 2383SOL    HW2 7716   1.552   2.963  10.338
 2384SOL     OW 7717   0.915   1.951  10.712
 2384SOL    HW1 7718   0.940   1.931  10.617
 2384SOL    HW2 7719   0.987   2.007  10.754
 2385SOL     OW 7720   0.705   2.912   9.678
 2385SOL    HW1 7721   0.691   2.919   9.777
 2385SOL    HW2 7722   0.789   2.861   9.660
 2386SOL     OW 7723   0.410   2.675  10.561
 2386SOL    HW1 7724   0.496   2.687  10.611
 2386SOL    HW2 7725   0.368   2.588  10.588
 2387SOL     OW 7726   1.274   2.248  10.572
 2387SOL    HW1 7727   1.295   2.322  10.636
 2387SOL    HW2 7728   1.185   2.265  10.529
 2388SOL     OW 7729   0.064   3.426  10.641
 2388SOL    HW1 7730   0.018   3.508  10.607
 2388SOL    HW2 7731   0.162   3.445  10.650
 2389SOL     OW 7732   0.367   2.962   9.811
 2389SOL    HW1 7733   0.360   3.045   9.755
 2389SOL    HW2 7734   0.371   2.882   9.751
 2390SOL     OW 7735   0.566   2.399  10.175
 2390SOL    HW1 7736   0.578   2.465  10.101
 2390SOL    HW2 7737   0.612   2.433  10.258
 2391SOL     OW 7738   1.252   3.210   9.698
 2391SOL    HW1 7739   1.302   3.287   9.738
 2391SOL    HW2 7740   1.157   3.212   9.730
 2392SOL     OW 7741   1.272   3.307  10.452
 2392SOL    HW1 7742   1.319   3.320  10.539
 2392SOL    HW2 7743   1.206   3.233  10.461
 2393SOL     OW 7744   1.582   2.501   9.782
 2393SOL    HW1 7745   1.551   2.562   9.855
 2393SOL    HW2 7746   1.632   2.553   9.713
 2394SOL     OW 7747   0.354   3.372  10.639
 2394SOL    HW1 7748   0.333   3.328  10.552
 2394SOL    HW2 7749   0.451   3.398  10.642
 2395SOL     OW 7750   0.402   2.613  10.908
 2395SOL    HW1 7751   0.470   2.668  10.861
 2395SOL    HW2 7752   0.442   2.525  10.935
 2396SOL     OW 7753   1.587   2.641  10.980
 2396SOL    HW1 7754   1.495   2.679  10.975
 2396SOL    HW2 7755   1.647   2.688  10.915
 2397SOL     OW 7756   0.573   2.732  10.339
 2397SOL    HW1 7757   0.617   2.821  10.330
 2397SOL    HW2 7758   0.510   2.732  10.416
 2398SOL     OW 7759   1.360   2.724  10.355
 2398SOL    HW1 7760   1.285   2.724  10.289
 2398SOL    HW2 7761   1.397   2.632  10.364
 2399SOL     OW 7762   1.209   2.387   9.585
 2399SOL    HW1 7763   1.222   2.303   9.639
 2399SOL    HW2 7764   1.180   2.461   9.645
 2400SOL     OW 7765   0.307   2.075  10.541
 2400SOL    HW1 7766   0.284   2.112  10.631
 2400SOL    HW2 7767   0.277   1.980  10.535
 2401SOL     OW 7768   0.037   3.172  10.592
 2401SOL    HW1 7769   0.090   3.123  10.660
 2401SOL    HW2 7770   0.059   3.270  10.597
 2402SOL     OW 7771   0.732   2.496  10.374
 2402SOL    HW1 7772   0.791   2.470  10.298
 2402SOL    HW2 7773   0.704   2.592  10.363
 2403SOL     OW 7774   0.307   1.925   9.928
 2403SOL    HW1 7775   0.296   2.019   9.961
 2403SOL    HW2 7776   0.302   1.862  10.005
 2404SOL     OW 7777   1.622   2.229   9.684
 2404SOL    HW1 7778   1.624   2.153   9.748
 2404SOL    HW2 7779   1.574   2.306   9.724
 2405SOL     OW 7780   1.023   2.628  10.276
 2405SOL    HW1 7781   1.038   2.649  10.372
 2405SOL    HW2 7782   0.993   2.533  10.267
 2406SOL     OW 7783   0.980   3.435  11.010
 2406SOL    HW1 7784   0.960   3.479  10.922
 2406SOL    HW2 7785   1.019   3.344  10.994
 2407SOL     OW 7786   1.859   3.380  10.915
 2407SOL    HW1 7787   1.873   3.407  10.820
 2407SOL    HW2 7788   1.942   3.402  10.968
 2408SOL     OW 7789   0.350   2.760  11.114
 2408SOL    HW1 7790   0.426   2.804  11.162
 2408SOL    HW2 7791   0.385   2.713  11.032
 2409SOL     OW 7792   1.540   2.136   9.435
 2409SOL    HW1 7793   1.479   2.061   9.458
 2409SOL    HW2 7794   1.562   2.188   9.518
 2410SOL     OW 7795   1.303   2.700   9.352
 2410SOL    HW1 7796   1.337   2.607   9.367
 2410SOL    HW2 7797   1.321   2.727   9.257
 2411SOL     OW 7798   1.068   3.195  10.159
 2411SOL    HW1 7799   1.075   3.111  10.104
 2411SOL    HW2 7800   1.130   3.264  10.123
 2412SOL     OW 7801   0.319   2.672  10.259
 2412SOL    HW1 7802   0.412   2.708  10.264
 2412SOL    HW2 7803   0.313   2.587  10.311
 2413SOL     OW 7804   0.339   2.371  10.316
 2413SOL    HW1 7805   0.287   2.288  10.299
 2413SOL    HW2 7806   0.416   2.376  10.252
 2414SOL     OW 7807   1.160   2.069  10.787
 2414SOL    HW1 7808   1.160   2.133  10.864
 2414SOL    HW2 7809   1.188   2.117  10.704
 2415SOL     OW 7810   0.008   3.188   9.510
 2415SOL    HW1 7811  -0.085   3.209   9.479
 2415SOL    HW2 7812   0.018   3.089   9.523
 2416SOL     OW 7813   0.088   3.663  10.237
 2416SOL    HW1 7814   0.046   3.577  10.210
 2416SOL    HW2 7815   0.182   3.666  10.203
 2417SOL     OW 7816   0.504   3.430  10.220
 2417SOL    HW1 7817   0.570   3.504  10.229
 2417SOL    HW2 7818   0.548   3.351  10.178
 2418SOL     OW 7819   1.002   2.658  10.548
 2418SOL    HW1 7820   1.043   2.626  10.634
 2418SOL    HW2 7821   0.906   2.631  10.545
 2419SOL     OW 7822   0.040   2.406  10.424
 2419SOL    HW1 7823   0.125   2.373  10.383
 2419SOL    HW2 7824   0.053   2.421  10.522
 2420SOL     OW 7825   0.815   2.434   9.635
 2420SOL    HW1 7826   0.822   2.345   9.589
 2420SOL    HW2 7827   0.721   2.468   9.627
 2421SOL     OW 7828   1.657   2.466  10.516
 2421SOL    HW1 7829   1.619   2.397  10.578
 2421SOL    HW2 7830   1.739   2.430  10.472
 2422SOL     OW 7831   0.252   3.426  11.054
 2422SOL    HW1 7832   0.222   3.483  11.130
 2422SOL    HW2 7833   0.245   3.329  11.080
 2423SOL     OW 7834   0.671   2.326  10.579
 2423SOL    HW1 7835   0.637   2.237  10.549
 2423SOL    HW2 7836   0.697   2.380  10.499
 2424SOL     OW 7837   0.930   3.540  10.775
 2424SOL    HW1 7838   0.906   3.522  10.680
 2424SOL    HW2 7839   0.960   3.634  10.785
 2425SOL     OW 7840   0.473   2.362   9.501
 2425SOL    HW1 7841   0.534   2.442   9.505
 2425SOL    HW2 7842   0.378   2.393   9.508
 2426SOL     OW 7843   0.159   2.999  10.776
 2426SOL    HW1 7844   0.181   2.938  10.852
 2426SOL    HW2 7845   0.169   2.950  10.690
 2427SOL     OW 7846   1.347   2.921  10.544
 2427SOL    HW1 7847   1.371   2.858  10.470
 2427SOL    HW2 7848   1.257   2.961  10.526
 2428SOL     OW 7849   1.302   2.717   9.619
 2428SOL    HW1 7850   1.216   2.686   9.661
 2428SOL    HW2 7851   1.298   2.703   9.520
 2429SOL     OW 7852   1.759   3.609  10.464
 2429SOL    HW1 7853   1.820   3.639  10.391
 2429SOL    HW2 7854   1.721   3.520  10.442
 2430SOL     OW 7855   1.252   3.593  10.438
 2430SOL    HW1 7856   1.336   3.598  10.384
 2430SOL    HW2 7857   1.229   3.497  10.456
 2431SOL     OW 7858   0.083   3.120  10.332
 2431SOL    HW1 7859   0.078   3.119  10.432
 2431SOL    HW2 7860   0.000   3.079  10.294
 2432SOL     OW 7861   1.726   1.997   9.833
 2432SOL    HW1 7862   1.799   1.980   9.766
 2432SOL    HW2 7863   1.695   1.910   9.871
 2433SOL     OW 7864   1.388   3.435   9.787
 2433SOL    HW1 7865   1.455   3.447   9.713
 2433SOL    HW2 7866   1.348   3.524   9.810
 2434SOL     OW 7867   1.280   2.789   9.982
 2434SOL    HW1 7868   1.340   2.708   9.984
 2434SOL    HW2 7869   1.320   2.858   9.922
 2435SOL     OW 7870   0.830   3.135  10.732
 2435SOL    HW1 7871   0.825   3.168  10.827
 2435SOL    HW2 7872   0.744   3.154  10.686
 2436SOL     OW 7873   0.672   3.478   9.464
 2436SOL    HW1 7874   0.681   3.488   9.365
 2436SOL    HW2 7875   0.632   3.389   9.485
 2437SOL     OW 7876   1.650   3.582  10.704
 2437SOL    HW1 7877   1.703   3.592  10.620
 2437SOL    HW2 7878   1.623   3.672  10.738
 2438SOL     OW 7879   1.841   2.037  10.273
 2438SOL    HW1 7880   1.880   1.952  10.237
 2438SOL    HW2 7881   1.743   2.039  10.254
 2439SOL     OW 7882   0.263   2.188  10.030
 2439SOL    HW1 7883   0.184   2.239   9.996
 2439SOL    HW2 7884   0.254   2.173  10.128
 2440SOL     OW 7885   1.194   3.474   9.341
 2440SOL    HW1 7886   1.200   3.381   9.378
 2440SOL    HW2 7887   1.135   3.474   9.261
 2441SOL     OW 7888   0.822   2.864  10.682
 2441SOL    HW1 7889   0.862   2.863  10.590
 2441SOL    HW2 7890   0.832   2.956  10.722
 2442SOL     OW 7891   0.916   2.772   9.601
 2442SOL    HW1 7892   0.979   2.810   9.533
 2442SOL    HW2 7893   0.956   2.689   9.640
 2443SOL     OW 7894   1.504   3.469   9.354
 2443SOL    HW1 7895   1.412   3.506   9.361
 2443SOL    HW2 7896   1.542   3.489   9.264
 2444SOL     OW 7897   0.372   3.150  10.800
 2444SOL    HW1 7898   0.359   3.243  10.766
 2444SOL    HW2 7899   0.288   3.098  10.787
 2445SOL     OW 7900   1.614   3.154  10.599
 2445SOL    HW1 7901   1.674   3.157  10.679
 2445SOL    HW2 7902   1.539   3.218  10.612
 2446SOL     OW 7903   1.039   2.960  10.006
 2446SOL    HW1 7904   0.969   2.913  10.060
 2446SOL    HW2 7905   1.098   2.892   9.963
 2447SOL     OW 7906   1.014   2.098  10.281
 2447SOL    HW1 7907   1.006   2.062  10.188
 2447SOL    HW2 7908   1.012   2.022  10.346
 2448SOL     OW 7909   0.590   3.349   9.801
 2448SOL    HW1 7910   0.632   3.291   9.731
 2448SOL    HW2 7911   0.546   3.428   9.757
 2449SOL     OW 7912   1.709   2.247  10.691
 2449SOL    HW1 7913   1.782   2.316  10.695
 2449SOL    HW2 7914   1.737   2.172  10.632
 2450SOL     OW 7915   0.255   3.210   9.600
 2450SOL    HW1 7916   0.159   3.211   9.573
 2450SOL    HW2 7917   0.267   3.263   9.684
 2451SOL     OW 7918   0.105   2.875  11.036
 2451SOL    HW1 7919   0.028   2.842  11.090
 2451SOL    HW2 7920   0.190   2.845  11.078
 2452SOL     OW 7921   0.672   2.065  10.799
 2452SOL    HW1 7922   0.762   2.049  10.759
 2452SOL    HW2 7923   0.680   2.070  10.898
 2453SOL     OW 7924   0.075   2.207   9.343
 2453SOL    HW1 7925  -0.017   2.179   9.314
 2453SOL    HW2 7926   0.106   2.284   9.287
 2454SOL     OW 7927   1.440   2.718  10.708
 2454SOL    HW1 7928   1.383   2.770  10.645
 2454SOL    HW2 7929   1.536   2.730  10.684
 2455SOL     OW 7930   0.072   2.028   9.628
 2455SOL    HW1 7931   0.055   2.111   9.574
 2455SOL    HW2 7932   0.162   1.991   9.606
 2456SOL     OW 7933   1.183   3.197   9.429
 2456SOL    HW1 7934   1.084   3.186   9.431
 2456SOL    HW2 7935   1.217   3.212   9.522
 2457SOL     OW 7936   0.613   2.704  10.741
 2457SOL    HW1 7937   0.669   2.785  10.724
 2457SOL    HW2 7938   0.672   2.624  10.744
 2458SOL     OW 7939   1.493   3.629  10.269
 2458SOL    HW1 7940   1.526   3.693  10.200
 2458SOL    HW2 7941   1.559   3.623  10.344
 2459SOL     OW 7942   0.716   2.427  11.018
 2459SOL    HW1 7943   0.735   2.492  11.092
 2459SOL    HW2 7944   0.776   2.347  11.027
 2460SOL     OW 7945   0.390   3.603  10.870
 2460SOL    HW1 7946   0.299   3.644  10.868
 2460SOL    HW2 7947   0.383   3.509  10.902
 2461SOL     OW 7948   1.674   2.745  10.564
 2461SOL    HW1 7949   1.647   2.656  10.527
 2461SOL    HW2 7950   1.675   2.813  10.491
 2462SOL     OW 7951   1.225   2.187   9.759
 2462SOL    HW1 7952   1.290   2.113   9.748
 2462SOL    HW2 7953   1.245   2.237   9.843
 2463SOL     OW 7954   0.594   2.607   9.962
 2463SOL    HW1 7955   0.644   2.692   9.943
 2463SOL    HW2 7956   0.506   2.609   9.914
 2464SOL     OW 7957   1.777   2.204  10.952
 2464SOL    HW1 7958   1.760   2.235  10.858
 2464SOL    HW2 7959   1.693   2.167  10.990
 2465SOL     OW 7960   1.730   2.796  10.827
 2465SOL    HW1 7961   1.768   2.887  10.842
 2465SOL    HW2 7962   1.722   2.779  10.728
 2466SOL     OW 7963   0.859   3.236   9.326
 2466SOL    HW1 7964   0.813   3.251   9.414
 2466SOL    HW2 7965   0.903   3.321   9.296
 2467SOL     OW 7966   0.661   3.652  10.263
 2467SOL    HW1 7967   0.615   3.740  10.250
 2467SOL    HW2 7968   0.760   3.664  10.256
 2468SOL     OW 7969   0.859   2.818  10.171
 2468SOL    HW1 7970   0.913   2.749  10.219
 2468SOL    HW2 7971   0.827   2.887  10.237
 2469SOL     OW 7972   1.083   2.846   9.397
 2469SOL    HW1 7973   1.060   2.899   9.315
 2469SOL    HW2 7974   1.164   2.790   9.378
 2470SOL     OW 7975   1.861   3.431  10.161
 2470SOL    HW1 7976   1.790   3.419  10.091
 2470SOL    HW2 7977   1.862   3.352  10.221
 2471SOL     OW 7978   0.079   3.102   9.963
 2471SOL    HW1 7979   0.078   3.055  10.051
 2471SOL    HW2 7980   0.161   3.074   9.912
 2472SOL     OW 7981   0.672   3.253  10.934
 2472SOL    HW1 7982   0.594   3.203  10.972
 2472SOL    HW2 7983   0.669   3.348  10.965
 2473SOL     OW 7984   1.824   2.054  10.537
 2473SOL    HW1 7985   1.820   1.964  10.581
 2473SOL    HW2 7986   1.827   2.043  10.438
 2474SOL     OW 7987   0.428   2.286   9.830
 2474SOL    HW1 7988   0.458   2.214   9.768
 2474SOL    HW2 7989   0.389   2.246   9.913
 2475SOL     OW 7990   1.705   3.349  10.414
 2475SOL    HW1 7991   1.612   3.324  10.387
 2475SOL    HW2 7992   1.731   3.299  10.496
 2476SOL     OW 7993   0.317   2.409  10.590
 2476SOL    HW1 7994   0.355   2.350  10.662
 2476SOL    HW2 7995   0.357   2.383  10.502
 2477SOL     OW 7996   0.812   3.448   9.997
 2477SOL    HW1 7997   0.844   3.458   9.903
 2477SOL    HW2 7998   0.733   3.386   9.999
 2478SOL     OW 7999   1.424   2.076  10.422
 2478SOL    HW1 8000   1.476   2.011  10.477
 2478SOL    HW2 8001   1.375   2.139  10.483
 2479SOL     OW 8002   1.001   1.896  10.464
 2479SOL    HW1 8003   0.938   1.824  10.433
 2479SOL    HW2 8004   1.094   1.860  10.464
 2480SOL     OW 8005   0.770   3.192   9.611
 2480SOL    HW1 8006   0.724   3.105   9.628
 2480SOL    HW2 8007   0.861   3.189   9.652
 2481SOL     OW 8008   0.618   3.429  10.594
 2481SOL    HW1 8009   0.613   3.511  10.651
 2481SOL    HW2 8010   0.707   3.426  10.549
 2482SOL     OW 8011   1.352   1.914   9.478
 2482SOL    HW1 8012   1.387   1.873   9.394
 2482SOL    HW2 8013   1.262   1.876   9.498
 2483SOL     OW 8014   1.300   2.315  10.001
 2483SOL    HW1 8015   1.241   2.395  10.005
 2483SOL    HW2 8016   1.315   2.280  10.094
 2484SOL     OW 8017   1.593   2.083  10.192
 2484SOL    HW1 8018   1.509   2.082  10.246
 2484SOL    HW2 8019   1.595   2.166  10.136
 2485SOL     OW 8020   0.039   2.939   9.610
 2485SOL    HW1 8021   0.138   2.928   9.601
 2485SOL    HW2 8022  -0.001   2.853   9.642
 2486SOL     OW 8023   0.875   3.508   9.647
 2486SOL    HW1 8024   0.798   3.473   9.593
 2486SOL    HW2 8025   0.843   3.579   9.709
 2487SOL     OW 8026   0.230   4.352   0.113
 2487SOL    HW1 8027   0.137   4.350   0.150
 2487SOL    HW2 8028   0.231   4.313   0.021
 2488SOL     OW 8029   0.225   3.999   0.996
 2488SOL    HW1 8030   0.260   3.982   1.088
 2488SOL    HW2 8031   0.137   3.954   0.984
 2489SOL     OW 8032   0.019   4.092   0.647
 2489SOL    HW1 8033  -0.063   4.135   0.686
 2489SOL    HW2 8034  -0.009   4.019   0.584
 2490SOL     OW 8035   1.755   4.331   0.231
 2490SOL    HW1 8036   1.743   4.318   0.132
 2490SOL    HW2 8037   1.725   4.250   0.280
 2491SOL     OW 8038   0.685   4.736   0.665
 2491SOL    HW1 8039   0.754   4.720   0.735
 2491SOL    HW2 8040   0.612   4.793   0.703
 2492SOL     OW 8041   0.438   4.116   1.499
 2492SOL    HW1 8042   0.520   4.060   1.508
 2492SOL    HW2 8043   0.357   4.058   1.503
 2493SOL     OW 8044   1.603   4.171   0.737
 2493SOL    HW1 8045   1.529   4.217   0.687
 2493SOL    HW2 8046   1.654   4.239   0.790
 2494SOL     OW 8047   1.594   3.838   1.480
 2494SOL    HW1 8048   1.576   3.905   1.408
 2494SOL    HW2 8049   1.591   3.884   1.569
 2495SOL     OW 8050   0.122   4.367   0.563
 2495SOL    HW1 8051   0.077   4.279   0.580
 2495SOL    HW2 8052   0.121   4.421   0.647
 2496SOL     OW 8053   0.113   4.461   1.597
 2496SOL    HW1 8054   0.201   4.448   1.642
 2496SOL    HW2 8055   0.100   4.558   1.575
 2497SOL     OW 8056   0.809   3.728   0.502
 2497SOL    HW1 8057   0.849   3.819   0.493
 2497SOL    HW2 8058   0.709   3.736   0.508
 2498SOL     OW 8059   0.317   3.975   1.801
 2498SOL    HW1 8060   0.388   4.046   1.807
 2498SOL    HW2 8061   0.229   4.014   1.829
 2499SOL     OW 8062   1.281   4.069   0.944
 2499SOL    HW1 8063   1.195   4.019   0.931
 2499SOL    HW2 8064   1.343   4.015   1.000
 2500SOL     OW 8065   0.807   4.329   1.465
 2500SOL    HW1 8066   0.760   4.326   1.554
 2500SOL    HW2 8067   0.756   4.274   1.399
 2501SOL     OW 8068   1.394   4.193   1.674
 2501SOL    HW1 8069   1.374   4.236   1.762
 2501SOL    HW2 8070   1.472   4.131   1.683
 2502SOL     OW 8071   0.991   4.134   1.242
 2502SOL    HW1 8072   0.914   4.168   1.296
 2502SOL    HW2 8073   0.957   4.083   1.163
 2503SOL     OW 8074   1.041   4.425   0.429
 2503SOL    HW1 8075   1.067   4.421   0.525
 2503SOL    HW2 8076   0.956   4.374   0.415
 2504SOL     OW 8077   0.076   4.535   0.789
 2504SOL    HW1 8078   0.175   4.523   0.798
 2504SOL    HW2 8079   0.052   4.630   0.810
 2505SOL     OW 8080   0.865   4.072   0.195
 2505SOL    HW1 8081   0.924   4.135   0.146
 2505SOL    HW2 8082   0.884   3.978   0.166
 2506SOL     OW 8083   1.719   4.309   1.831
 2506SOL    HW1 8084   1.693   4.398   1.795
 2506SOL    HW2 8085   1.717   4.241   1.758
 2507SOL     OW 8086   0.550   3.920   0.885
 2507SOL    HW1 8087   0.545   3.915   0.985
 2507SOL    HW2 8088   0.552   4.016   0.856
 2508SOL     OW 8089   1.458   4.459   0.728
 2508SOL    HW1 8090   1.453   4.394   0.803
 2508SOL    HW2 8091   1.538   4.518   0.741
 2509SOL     OW 8092   0.202   4.009   1.498
 2509SOL    HW1 8093   0.122   4.069   1.485
 2509SOL    HW2 8094   0.192   3.960   1.584
 2510SOL     OW 8095   1.400   3.831   0.426
 2510SOL    HW1 8096   1.376   3.794   0.336
 2510SOL    HW2 8097   1.499   3.847   0.430
 2511SOL     OW 8098   0.382   4.424   0.480
 2511SOL    HW1 8099   0.427   4.334   0.477
 2511SOL    HW2 8100   0.288   4.413   0.513
 2512SOL     OW 8101   1.547   3.946   1.729
 2512SOL    HW1 8102   1.542   3.983   1.821
 2512SOL    HW2 8103   1.475   3.877   1.717
 2513SOL     OW 8104   0.614   3.846   0.117
 2513SOL    HW1 8105   0.712   3.824   0.124
 2513SOL    HW2 8106   0.583   3.829   0.024
 2514SOL     OW 8107   0.781   3.988   1.749
 2514SOL    HW1 8108   0.848   3.927   1.792
 2514SOL    HW2 8109   0.708   4.007   1.814
 2515SOL     OW 8110   1.351   4.314   1.433
 2515SOL    HW1 8111   1.379   4.271   1.518
 2515SOL    HW2 8112   1.376   4.410   1.434
 2516SOL     OW 8113   0.922   4.227   0.899
 2516SOL    HW1 8114   0.897   4.218   0.803
 2516SOL    HW2 8115   0.970   4.145   0.930
 2517SOL     OW 8116   0.539   3.788   0.512
 2517SOL    HW1 8117   0.458   3.789   0.570
 2517SOL    HW2 8118   0.542   3.871   0.457
 2518SOL     OW 8119   0.297   3.759   0.171
 2518SOL    HW1 8120   0.346   3.843   0.150
 2518SOL    HW2 8121   0.359   3.694   0.216
 2519SOL     OW 8122   0.935   3.960   0.480
 2519SOL    HW1 8123   0.887   4.001   0.402
 2519SOL    HW2 8124   1.034   3.958   0.461
 2520SOL     OW 8125   1.076   4.407   1.464
 2520SOL    HW1 8126   0.996   4.346   1.467
 2520SOL    HW2 8127   1.157   4.354   1.440
 2521SOL     OW 8128   1.032   4.273   0.016
 2521SOL    HW1 8129   0.991   4.355  -0.023
 2521SOL    HW2 8130   1.096   4.299   0.089
 2522SOL     OW 8131   0.078   4.280   1.386
 2522SOL    HW1 8132   0.170   4.279   1.345
 2522SOL    HW2 8133   0.072   4.354   1.453
 2523SOL     OW 8134   0.561   3.946   1.147
 2523SOL    HW1 8135   0.599   3.862   1.184
 2523SOL    HW2 8136   0.473   3.965   1.191
 2524SOL     OW 8137   0.866   4.178   0.642
 2524SOL    HW1 8138   0.834   4.250   0.580
 2524SOL    HW2 8139   0.890   4.097   0.589
 2525SOL     OW 8140   1.017   3.763   0.753
 2525SOL    HW1 8141   0.945   3.768   0.684
 2525SOL    HW2 8142   0.993   3.694   0.822
 2526SOL     OW 8143   1.466   4.314   0.992
 2526SOL    HW1 8144   1.436   4.219   0.999
 2526SOL    HW2 8145   1.539   4.330   1.058
 2527SOL     OW 8146   1.390   4.299   0.078
 2527SOL    HW1 8147   1.336   4.278   0.159
 2527SOL    HW2 8148   1.481   4.258   0.087
 2528SOL     OW 8149   0.527   3.980   0.328
 2528SOL    HW1 8150   0.554   3.921   0.253
 2528SOL    HW2 8151   0.527   4.075   0.297
 2529SOL     OW 8152   0.915   3.813   1.402
 2529SOL    HW1 8153   0.940   3.793   1.307
 2529SOL    HW2 8154   0.987   3.869   1.444
 2530SOL     OW 8155   0.410   4.537   1.251
 2530SOL    HW1 8156   0.496   4.549   1.301
 2530SOL    HW2 8157   0.368   4.450   1.278
 2531SOL     OW 8158   1.274   4.110   1.262
 2531SOL    HW1 8159   1.295   4.184   1.326
 2531SOL    HW2 8160   1.185   4.127   1.219
 2532SOL     OW 8161   0.566   4.261   0.865
 2532SOL    HW1 8162   0.578   4.327   0.791
 2532SOL    HW2 8163   0.612   4.295   0.948
 2533SOL     OW 8164   1.582   4.363   0.472
 2533SOL    HW1 8165   1.551   4.424   0.545
 2533SOL    HW2 8166   1.632   4.415   0.403
 2534SOL     OW 8167   1.013   3.829   1.770
 2534SOL    HW1 8168   1.019   3.914   1.718
 2534SOL    HW2 8169   1.045   3.753   1.713
 2535SOL     OW 8170   0.504   3.774   1.740
 2535SOL    HW1 8171   0.462   3.717   1.670
 2535SOL    HW2 8172   0.438   3.843   1.772
 2536SOL     OW 8173   1.209   4.249   0.275
 2536SOL    HW1 8174   1.222   4.165   0.329
 2536SOL    HW2 8175   1.180   4.323   0.335
 2537SOL     OW 8176   0.307   3.937   1.231
 2537SOL    HW1 8177   0.284   3.974   1.321
 2537SOL    HW2 8178   0.277   3.842   1.225
 2538SOL     OW 8179   0.732   4.358   1.064
 2538SOL    HW1 8180   0.791   4.332   0.988
 2538SOL    HW2 8181   0.704   4.454   1.053
 2539SOL     OW 8182   1.728   4.659   1.854
 2539SOL    HW1 8183   1.682   4.652   1.765
 2539SOL    HW2 8184   1.666   4.703   1.920
 2540SOL     OW 8185   0.307   3.787   0.618
 2540SOL    HW1 8186   0.296   3.881   0.651
 2540SOL    HW2 8187   0.302   3.724   0.695
 2541SOL     OW 8188   1.622   4.091   0.374
 2541SOL    HW1 8189   1.624   4.015   0.438
 2541SOL    HW2 8190   1.574   4.168   0.414
 2542SOL     OW 8191   1.540   3.998   0.125
 2542SOL    HW1 8192   1.479   3.923   0.148
 2542SOL    HW2 8193   1.562   4.050   0.208
 2543SOL     OW 8194   0.319   4.534   0.949
 2543SOL    HW1 8195   0.412   4.570   0.954
 2543SOL    HW2 8196   0.313   4.449   1.001
 2544SOL     OW 8197   0.339   4.233   1.006
 2544SOL    HW1 8198   0.287   4.150   0.989
 2544SOL    HW2 8199   0.416   4.238   0.942
 2545SOL     OW 8200   1.138   4.104   1.678
 2545SOL    HW1 8201   1.093   4.167   1.742
 2545SOL    HW2 8202   1.231   4.135   1.661
 2546SOL     OW 8203   1.160   3.931   1.477
 2546SOL    HW1 8204   1.160   3.995   1.554
 2546SOL    HW2 8205   1.188   3.979   1.394
 2547SOL     OW 8206   0.040   4.268   1.114
 2547SOL    HW1 8207   0.125   4.235   1.073
 2547SOL    HW2 8208   0.053   4.283   1.212
 2548SOL     OW 8209   0.189   4.244   1.722
 2548SOL    HW1 8210   0.248   4.204   1.652
 2548SOL    HW2 8211   0.131   4.315   1.681
 2549SOL     OW 8212   0.815   4.296   0.325
 2549SOL    HW1 8213   0.822   4.207   0.279
 2549SOL    HW2 8214   0.721   4.330   0.317
 2550SOL     OW 8215   1.657   4.328   1.206
 2550SOL    HW1 8216   1.619   4.259   1.268
 2550SOL    HW2 8217   1.739   4.292   1.162
 2551SOL     OW 8218   0.671   4.188   1.269
 2551SOL    HW1 8219   0.637   4.099   1.239
 2551SOL    HW2 8220   0.697   4.242   1.189
 2552SOL     OW 8221   0.473   4.224   0.191
 2552SOL    HW1 8222   0.534   4.304   0.195
 2552SOL    HW2 8223   0.378   4.255   0.198
 2553SOL     OW 8224   0.903   3.810   0.133
 2553SOL    HW1 8225   0.954   3.811   0.047
 2553SOL    HW2 8226   0.959   3.768   0.204
 2554SOL     OW 8227   1.726   3.859   0.523
 2554SOL    HW1 8228   1.799   3.842   0.456
 2554SOL    HW2 8229   1.695   3.772   0.561
 2555SOL     OW 8230   1.280   4.651   0.672
 2555SOL    HW1 8231   1.340   4.570   0.674
 2555SOL    HW2 8232   1.320   4.720   0.612
 2556SOL     OW 8233   1.841   3.899   0.963
 2556SOL    HW1 8234   1.880   3.814   0.927
 2556SOL    HW2 8235   1.743   3.901   0.944
 2557SOL     OW 8236   0.263   4.050   0.720
 2557SOL    HW1 8237   0.184   4.101   0.686
 2557SOL    HW2 8238   0.254   4.035   0.818
 2558SOL     OW 8239   1.039   4.822   0.696
 2558SOL    HW1 8240   0.969   4.775   0.750
 2558SOL    HW2 8241   1.098   4.754   0.653
 2559SOL     OW 8242   1.014   3.960   0.971
 2559SOL    HW1 8243   1.006   3.924   0.878
 2559SOL    HW2 8244   1.012   3.884   1.036
 2560SOL     OW 8245   1.709   4.109   1.381
 2560SOL    HW1 8246   1.782   4.178   1.385
 2560SOL    HW2 8247   1.737   4.034   1.322
 2561SOL     OW 8248   0.672   3.927   1.489
 2561SOL    HW1 8249   0.762   3.911   1.449
 2561SOL    HW2 8250   0.680   3.932   1.588
 2562SOL     OW 8251   0.075   4.069   0.033
 2562SOL    HW1 8252  -0.017   4.041   0.004
 2562SOL    HW2 8253   0.106   4.146  -0.023
 2563SOL     OW 8254   0.072   3.890   0.318
 2563SOL    HW1 8255   0.055   3.973   0.264
 2563SOL    HW2 8256   0.162   3.853   0.296
 2564SOL     OW 8257   0.716   4.289   1.708
 2564SOL    HW1 8258   0.735   4.354   1.782
 2564SOL    HW2 8259   0.776   4.209   1.717
 2565SOL     OW 8260   1.225   4.049   0.449
 2565SOL    HW1 8261   1.290   3.975   0.438
 2565SOL    HW2 8262   1.245   4.099   0.533
 2566SOL     OW 8263   1.777   4.066   1.642
 2566SOL    HW1 8264   1.760   4.097   1.548
 2566SOL    HW2 8265   1.693   4.029   1.680
 2567SOL     OW 8266   1.083   4.708   0.087
 2567SOL    HW1 8267   1.060   4.761   0.005
 2567SOL    HW2 8268   1.164   4.652   0.068
 2568SOL     OW 8269   1.824   3.916   1.227
 2568SOL    HW1 8270   1.820   3.826   1.271
 2568SOL    HW2 8271   1.827   3.905   1.128
 2569SOL     OW 8272   0.428   4.148   0.520
 2569SOL    HW1 8273   0.458   4.076   0.458
 2569SOL    HW2 8274   0.389   4.108   0.603
 2570SOL     OW 8275   0.317   4.271   1.280
 2570SOL    HW1 8276   0.355   4.212   1.352
 2570SOL    HW2 8277   0.357   4.245   1.192
 2571SOL     OW 8278   1.424   3.938   1.112
 2571SOL    HW1 8279   1.476   3.873   1.167
 2571SOL    HW2 8280   1.375   4.001   1.173
 2572SOL     OW 8281   1.001   3.758   1.154
 2572SOL    HW1 8282   0.938   3.686   1.123
 2572SOL    HW2 8283   1.094   3.722   1.154
 2573SOL     OW 8284   1.352   3.776   0.168
 2573SOL    HW1 8285   1.387   3.735   0.084
 2573SOL    HW2 8286   1.262   3.738   0.188
 2574SOL     OW 8287   1.300   4.177   0.691
 2574SOL    HW1 8288   1.241   4.257   0.695
 2574SOL    HW2 8289   1.315   4.142   0.784
 2575SOL     OW 8290   1.593   3.945   0.882
 2575SOL    HW1 8291   1.509   3.944   0.936
 2575SOL    HW2 8292   1.595   4.028   0.826
 2576SOL     OW 8293   0.230   4.352   1.975
 2576SOL    HW1 8294   0.137   4.350   2.012
 2576SOL    HW2 8295   0.231   4.313   1.883
 2577SOL     OW 8296   0.225   3.999   2.858
 2577SOL    HW1 8297   0.260   3.982   2.950
 2577SOL    HW2 8298   0.137   3.954   2.846
 2578SOL     OW 8299   0.019   4.092   2.509
 2578SOL    HW1 8300  -0.063   4.135   2.548
 2578SOL    HW2 8301  -0.009   4.019   2.446
 2579SOL     OW 8302   1.755   4.331   2.093
 2579SOL    HW1 8303   1.743   4.318   1.994
 2579SOL    HW2 8304   1.725   4.250   2.142
 2580SOL     OW 8305   0.685   4.736   2.527
 2580SOL    HW1 8306   0.754   4.720   2.597
 2580SOL    HW2 8307   0.612   4.793   2.565
 2581SOL     OW 8308   0.438   4.116   3.361
 2581SOL    HW1 8309   0.520   4.060   3.370
 2581SOL    HW2 8310   0.357   4.058   3.365
 2582SOL     OW 8311   1.603   4.171   2.599
 2582SOL    HW1 8312   1.529   4.217   2.549
 2582SOL    HW2 8313   1.654   4.239   2.652
 2583SOL     OW 8314   1.594   3.838   3.342
 2583SOL    HW1 8315   1.576   3.905   3.270
 2583SOL    HW2 8316   1.591   3.884   3.431
 2584SOL     OW 8317   0.122   4.367   2.425
 2584SOL    HW1 8318   0.077   4.279   2.442
 2584SOL    HW2 8319   0.121   4.421   2.509
 2585SOL     OW 8320   0.113   4.461   3.459
 2585SOL    HW1 8321   0.201   4.448   3.504
 2585SOL    HW2 8322   0.100   4.558   3.437
 2586SOL     OW 8323   0.809   3.728   2.364
 2586SOL    HW1 8324   0.849   3.819   2.355
 2586SOL    HW2 8325   0.709   3.736   2.370
 2587SOL     OW 8326   0.317   3.975   3.663
 2587SOL    HW1 8327   0.388   4.046   3.669
 2587SOL    HW2 8328   0.229   4.014   3.691
 2588SOL     OW 8329   1.281   4.069   2.806
 2588SOL    HW1 8330   1.195   4.019   2.793
 2588SOL    HW2 8331   1.343   4.015   2.862
 2589SOL     OW 8332   0.807   4.329   3.327
 2589SOL    HW1 8333   0.760   4.326   3.416
 2589SOL    HW2 8334   0.756   4.274   3.261
 2590SOL     OW 8335   1.394   4.193   3.536
 2590SOL    HW1 8336   1.374   4.236   3.624
 2590SOL    HW2 8337   1.472   4.131   3.545
 2591SOL     OW 8338   0.991   4.134   3.104
 2591SOL    HW1 8339   0.914   4.168   3.158
 2591SOL    HW2 8340   0.957   4.083   3.025
 2592SOL     OW 8341   1.041   4.425   2.291
 2592SOL    HW1 8342   1.067   4.421   2.387
 2592SOL    HW2 8343   0.956   4.374   2.277
 2593SOL     OW 8344   0.076   4.535   2.651
 2593SOL    HW1 8345   0.175   4.523   2.660
 2593SOL    HW2 8346   0.052   4.630   2.672
 2594SOL     OW 8347   0.865   4.072   2.057
 2594SOL    HW1 8348   0.924   4.135   2.008
 2594SOL    HW2 8349   0.884   3.978   2.028
 2595SOL     OW 8350   1.719   4.309   3.693
 2595SOL    HW1 8351   1.693   4.398   3.657
 2595SOL    HW2 8352   1.717   4.241   3.620
 2596SOL     OW 8353   0.550   3.920   2.747
 2596SOL    HW1 8354   0.545   3.915   2.847
 2596SOL    HW2 8355   0.552   4.016   2.718
 2597SOL     OW 8356   1.458   4.459   2.590
 2597SOL    HW1 8357   1.453   4.394   2.665
 2597SOL    HW2 8358   1.538   4.518   2.603
 2598SOL     OW 8359   0.202   4.009   3.360
 2598SOL    HW1 8360   0.122   4.069   3.347
 2598SOL    HW2 8361   0.192   3.960   3.446
 2599SOL     OW 8362   1.400   3.831   2.288
 2599SOL    HW1 8363   1.376   3.794   2.198
 2599SOL    HW2 8364   1.499   3.847   2.292
 2600SOL     OW 8365   0.382   4.424   2.342
 2600SOL    HW1 8366   0.427   4.334   2.339
 2600SOL    HW2 8367   0.288   4.413   2.375
 2601SOL     OW 8368   1.547   3.946   3.591
 2601SOL    HW1 8369   1.542   3.983   3.683
 2601SOL    HW2 8370   1.475   3.877   3.579
 2602SOL     OW 8371   0.614   3.846   1.979
 2602SOL    HW1 8372   0.712   3.824   1.986
 2602SOL    HW2 8373   0.583   3.829   1.886
 2603SOL     OW 8374   0.781   3.988   3.611
 2603SOL    HW1 8375   0.848   3.927   3.654
 2603SOL    HW2 8376   0.708   4.007   3.676
 2604SOL     OW 8377   1.351   4.314   3.295
 2604SOL    HW1 8378   1.379   4.271   3.380
 2604SOL    HW2 8379   1.376   4.410   3.296
 2605SOL     OW 8380   0.922   4.227   2.761
 2605SOL    HW1 8381   0.897   4.218   2.665
 2605SOL    HW2 8382   0.970   4.145   2.792
 2606SOL     OW 8383   0.539   3.788   2.374
 2606SOL    HW1 8384   0.458   3.789   2.432
 2606SOL    HW2 8385   0.542   3.871   2.319
 2607SOL     OW 8386   0.297   3.759   2.033
 2607SOL    HW1 8387   0.346   3.843   2.012
 2607SOL    HW2 8388   0.359   3.694   2.078
 2608SOL     OW 8389   0.935   3.960   2.342
 2608SOL    HW1 8390   0.887   4.001   2.264
 2608SOL    HW2 8391   1.034   3.958   2.323
 2609SOL     OW 8392   1.076   4.407   3.326
 2609SOL    HW1 8393   0.996   4.346   3.329
 2609SOL    HW2 8394   1.157   4.354   3.302
 2610SOL     OW 8395   1.032   4.273   1.878
 2610SOL    HW1 8396   0.991   4.355   1.839
 2610SOL    HW2 8397   1.096   4.299   1.951
 2611SOL     OW 8398   0.078   4.280   3.248
 2611SOL    HW1 8399   0.170   4.279   3.207
 2611SOL    HW2 8400   0.072   4.354   3.315
 2612SOL     OW 8401   0.561   3.946   3.009
 2612SOL    HW1 8402   0.599   3.862   3.046
 2612SOL    HW2 8403   0.473   3.965   3.053
 2613SOL     OW 8404   0.866   4.178   2.504
 2613SOL    HW1 8405   0.834   4.250   2.442
 2613SOL    HW2 8406   0.890   4.097   2.451
 2614SOL     OW 8407   1.017   3.763   2.615
 2614SOL    HW1 8408   0.945   3.768   2.546
 2614SOL    HW2 8409   0.993   3.694   2.684
 2615SOL     OW 8410   1.466   4.314   2.854
 2615SOL    HW1 8411   1.436   4.219   2.861
 2615SOL    HW2 8412   1.539   4.330   2.920
 2616SOL     OW 8413   1.390   4.299   1.940
 2616SOL    HW1 8414   1.336   4.278   2.021
 2616SOL    HW2 8415   1.481   4.258   1.949
 2617SOL     OW 8416   0.527   3.980   2.190
 2617SOL    HW1 8417   0.554   3.921   2.115
 2617SOL    HW2 8418   0.527   4.075   2.159
 2618SOL     OW 8419   0.915   3.813   3.264
 2618SOL    HW1 8420   0.940   3.793   3.169
 2618SOL    HW2 8421   0.987   3.869   3.306
 2619SOL     OW 8422   0.410   4.537   3.113
 2619SOL    HW1 8423   0.496   4.549   3.163
 2619SOL    HW2 8424   0.368   4.450   3.140
 2620SOL     OW 8425   1.274   4.110   3.124
 2620SOL    HW1 8426   1.295   4.184   3.188
 2620SOL    HW2 8427   1.185   4.127   3.081
 2621SOL     OW 8428   0.566   4.261   2.727
 2621SOL    HW1 8429   0.578   4.327   2.653
 2621SOL    HW2 8430   0.612   4.295   2.810
 2622SOL     OW 8431   1.582   4.363   2.334
 2622SOL    HW1 8432   1.551   4.424   2.407
 2622SOL    HW2 8433   1.632   4.415   2.265
 2623SOL     OW 8434   1.013   3.829   3.632
 2623SOL    HW1 8435   1.019   3.914   3.580
 2623SOL    HW2 8436   1.045   3.753   3.575
 2624SOL     OW 8437   0.504   3.774   3.602
 2624SOL    HW1 8438   0.462   3.717   3.532
 2624SOL    HW2 8439   0.438   3.843   3.634
 2625SOL     OW 8440   1.209   4.249   2.137
 2625SOL    HW1 8441   1.222   4.165   2.191
 2625SOL    HW2 8442   1.180   4.323   2.197
 2626SOL     OW 8443   0.307   3.937   3.093
 2626SOL    HW1 8444   0.284   3.974   3.183
 2626SOL    HW2 8445   0.277   3.842   3.087
 2627SOL     OW 8446   0.732   4.358   2.926
 2627SOL    HW1 8447   0.791   4.332   2.850
 2627SOL    HW2 8448   0.704   4.454   2.915
 2628SOL     OW 8449   1.728   4.659   3.716
 2628SOL    HW1 8450   1.682   4.652   3.627
 2628SOL    HW2 8451   1.666   4.703   3.782
 2629SOL     OW 8452   0.307   3.787   2.480
 2629SOL    HW1 8453   0.296   3.881   2.513
 2629SOL    HW2 8454   0.302   3.724   2.557
 2630SOL     OW 8455   1.622   4.091   2.236
 2630SOL    HW1 8456   1.624   4.015   2.300
 2630SOL    HW2 8457   1.574   4.168   2.276
 2631SOL     OW 8458   1.540   3.998   1.987
 2631SOL    HW1 8459   1.479   3.923   2.010
 2631SOL    HW2 8460   1.562   4.050   2.070
 2632SOL     OW 8461   0.319   4.534   2.811
 2632SOL    HW1 8462   0.412   4.570   2.816
 2632SOL    HW2 8463   0.313   4.449   2.863
 2633SOL     OW 8464   0.339   4.233   2.868
 2633SOL    HW1 8465   0.287   4.150   2.851
 2633SOL    HW2 8466   0.416   4.238   2.804
 2634SOL     OW 8467   1.138   4.104   3.540
 2634SOL    HW1 8468   1.093   4.167   3.604
 2634SOL    HW2 8469   1.231   4.135   3.523
 2635SOL     OW 8470   1.160   3.931   3.339
 2635SOL    HW1 8471   1.160   3.995   3.416
 2635SOL    HW2 8472   1.188   3.979   3.256
 2636SOL     OW 8473   0.040   4.268   2.976
 2636SOL    HW1 8474   0.125   4.235   2.935
 2636SOL    HW2 8475   0.053   4.283   3.074
 2637SOL     OW 8476   0.189   4.244   3.584
 2637SOL    HW1 8477   0.248   4.204   3.514
 2637SOL    HW2 8478   0.131   4.315   3.543
 2638SOL     OW 8479   0.815   4.296   2.187
 2638SOL    HW1 8480   0.822   4.207   2.141
 2638SOL    HW2 8481   0.721   4.330   2.179
 2639SOL     OW 8482   1.657   4.328   3.068
 2639SOL    HW1 8483   1.619   4.259   3.130
 2639SOL    HW2 8484   1.739   4.292   3.024
 2640SOL     OW 8485   0.671   4.188   3.131
 2640SOL    HW1 8486   0.637   4.099   3.101
 2640SOL    HW2 8487   0.697   4.242   3.051
 2641SOL     OW 8488   0.473   4.224   2.053
 2641SOL    HW1 8489   0.534   4.304   2.057
 2641SOL    HW2 8490   0.378   4.255   2.060
 2642SOL     OW 8491   1.726   3.859   2.385
 2642SOL    HW1 8492   1.799   3.842   2.318
 2642SOL    HW2 8493   1.695   3.772   2.423
 2643SOL     OW 8494   1.280   4.651   2.534
 2643SOL    HW1 8495   1.340   4.570   2.536
 2643SOL    HW2 8496   1.320   4.720   2.474
 2644SOL     OW 8497   1.841   3.899   2.825
 2644SOL    HW1 8498   1.880   3.814   2.789
 2644SOL    HW2 8499   1.743   3.901   2.806
 2645SOL     OW 8500   0.263   4.050   2.582
 2645SOL    HW1 8501   0.184   4.101   2.548
 2645SOL    HW2 8502   0.254   4.035   2.680
 2646SOL     OW 8503   0.916   4.634   2.153
 2646SOL    HW1 8504   0.979   4.672   2.085
 2646SOL    HW2 8505   0.956   4.551   2.192
 2647SOL     OW 8506   1.039   4.822   2.558
 2647SOL    HW1 8507   0.969   4.775   2.612
 2647SOL    HW2 8508   1.098   4.754   2.515
 2648SOL     OW 8509   1.014   3.960   2.833
 2648SOL    HW1 8510   1.006   3.924   2.740
 2648SOL    HW2 8511   1.012   3.884   2.898
 2649SOL     OW 8512   1.709   4.109   3.243
 2649SOL    HW1 8513   1.782   4.178   3.247
 2649SOL    HW2 8514   1.737   4.034   3.184
 2650SOL     OW 8515   0.672   3.927   3.351
 2650SOL    HW1 8516   0.762   3.911   3.311
 2650SOL    HW2 8517   0.680   3.932   3.450
 2651SOL     OW 8518   0.075   4.069   1.895
 2651SOL    HW1 8519  -0.017   4.041   1.866
 2651SOL    HW2 8520   0.106   4.146   1.839
 2652SOL     OW 8521   0.072   3.890   2.180
 2652SOL    HW1 8522   0.055   3.973   2.126
 2652SOL    HW2 8523   0.162   3.853   2.158
 2653SOL     OW 8524   0.716   4.289   3.570
 2653SOL    HW1 8525   0.735   4.354   3.644
 2653SOL    HW2 8526   0.776   4.209   3.579
 2654SOL     OW 8527   1.225   4.049   2.311
 2654SOL    HW1 8528   1.290   3.975   2.300
 2654SOL    HW2 8529   1.245   4.099   2.395
 2655SOL     OW 8530   1.777   4.066   3.504
 2655SOL    HW1 8531   1.760   4.097   3.410
 2655SOL    HW2 8532   1.693   4.029   3.542
 2656SOL     OW 8533   1.083   4.708   1.949
 2656SOL    HW1 8534   1.060   4.761   1.867
 2656SOL    HW2 8535   1.164   4.652   1.930
 2657SOL     OW 8536   1.824   3.916   3.089
 2657SOL    HW1 8537   1.820   3.826   3.133
 2657SOL    HW2 8538   1.827   3.905   2.990
 2658SOL     OW 8539   0.428   4.148   2.382
 2658SOL    HW1 8540   0.458   4.076   2.320
 2658SOL    HW2 8541   0.389   4.108   2.465
 2659SOL     OW 8542   0.317   4.271   3.142
 2659SOL    HW1 8543   0.355   4.212   3.214
 2659SOL    HW2 8544   0.357   4.245   3.054
 2660SOL     OW 8545   1.424   3.938   2.974
 2660SOL    HW1 8546   1.476   3.873   3.029
 2660SOL    HW2 8547   1.375   4.001   3.035
 2661SOL     OW 8548   1.001   3.758   3.016
 2661SOL    HW1 8549   0.938   3.686   2.985
 2661SOL    HW2 8550   1.094   3.722   3.016
 2662SOL     OW 8551   1.352   3.776   2.030
 2662SOL    HW1 8552   1.387   3.735   1.946
 2662SOL    HW2 8553   1.262   3.738   2.050
 2663SOL     OW 8554   1.300   4.177   2.553
 2663SOL    HW1 8555   1.241   4.257   2.557
 2663SOL    HW2 8556   1.315   4.142   2.646
 2664SOL     OW 8557   1.593   3.945   2.744
 2664SOL    HW1 8558   1.509   3.944   2.798
 2664SOL    HW2 8559   1.595   4.028   2.688
 2665SOL     OW 8560   0.230   4.352   3.837
 2665SOL    HW1 8561   0.137   4.350   3.874
 2665SOL    HW2 8562   0.231   4.313   3.745
 2666SOL     OW 8563   0.225   3.999   4.720
 2666SOL    HW1 8564   0.260   3.982   4.812
 2666SOL    HW2 8565   0.137   3.954   4.708
 2667SOL     OW 8566   0.019   4.092   4.371
 2667SOL    HW1 8567  -0.063   4.135   4.410
 2667SOL    HW2 8568  -0.009   4.019   4.308
 2668SOL     OW 8569   1.755   4.331   3.955
 2668SOL    HW1 8570   1.743   4.318   3.856
 2668SOL    HW2 8571   1.725   4.250   4.004
 2669SOL     OW 8572   0.685   4.736   4.389
 2669SOL    HW1 8573   0.754   4.720   4.459
 2669SOL    HW2 8574   0.612   4.793   4.427
 2670SOL     OW 8575   0.438   4.116   5.223
 2670SOL    HW1 8576   0.520   4.060   5.232
 2670SOL    HW2 8577   0.357   4.058   5.227
 2671SOL     OW 8578   1.603   4.171   4.461
 2671SOL    HW1 8579   1.529   4.217   4.411
 2671SOL    HW2 8580   1.654   4.239   4.514
 2672SOL     OW 8581   1.594   3.838   5.204
 2672SOL    HW1 8582   1.576   3.905   5.132
 2672SOL    HW2 8583   1.591   3.884   5.293
 2673SOL     OW 8584   0.122   4.367   4.287
 2673SOL    HW1 8585   0.077   4.279   4.304
 2673SOL    HW2 8586   0.121   4.421   4.371
 2674SOL     OW 8587   0.113   4.461   5.321
 2674SOL    HW1 8588   0.201   4.448   5.366
 2674SOL    HW2 8589   0.100   4.558   5.299
 2675SOL     OW 8590   0.809   3.728   4.226
 2675SOL    HW1 8591   0.849   3.819   4.217
 2675SOL    HW2 8592   0.709   3.736   4.232
 2676SOL     OW 8593   0.317   3.975   5.525
 2676SOL    HW1 8594   0.388   4.046   5.531
 2676SOL    HW2 8595   0.229   4.014   5.553
 2677SOL     OW 8596   1.281   4.069   4.668
 2677SOL    HW1 8597   1.195   4.019   4.655
 2677SOL    HW2 8598   1.343   4.015   4.724
 2678SOL     OW 8599   0.807   4.329   5.189
 2678SOL    HW1 8600   0.760   4.326   5.278
 2678SOL    HW2 8601   0.756   4.274   5.123
 2679SOL     OW 8602   1.394   4.193   5.398
 2679SOL    HW1 8603   1.374   4.236   5.486
 2679SOL    HW2 8604   1.472   4.131   5.407
 2680SOL     OW 8605   0.991   4.134   4.966
 2680SOL    HW1 8606   0.914   4.168   5.020
 2680SOL    HW2 8607   0.957   4.083   4.887
 2681SOL     OW 8608   1.041   4.425   4.153
 2681SOL    HW1 8609   1.067   4.421   4.249
 2681SOL    HW2 8610   0.956   4.374   4.139
 2682SOL     OW 8611   0.076   4.535   4.513
 2682SOL    HW1 8612   0.175   4.523   4.522
 2682SOL    HW2 8613   0.052   4.630   4.534
 2683SOL     OW 8614   0.865   4.072   3.919
 2683SOL    HW1 8615   0.924   4.135   3.870
 2683SOL    HW2 8616   0.884   3.978   3.890
 2684SOL     OW 8617   1.719   4.309   5.555
 2684SOL    HW1 8618   1.693   4.398   5.519
 2684SOL    HW2 8619   1.717   4.241   5.482
 2685SOL     OW 8620   0.550   3.920   4.609
 2685SOL    HW1 8621   0.545   3.915   4.709
 2685SOL    HW2 8622   0.552   4.016   4.580
 2686SOL     OW 8623   1.458   4.459   4.452
 2686SOL    HW1 8624   1.453   4.394   4.527
 2686SOL    HW2 8625   1.538   4.518   4.465
 2687SOL     OW 8626   0.202   4.009   5.222
 2687SOL    HW1 8627   0.122   4.069   5.209
 2687SOL    HW2 8628   0.192   3.960   5.308
 2688SOL     OW 8629   1.400   3.831   4.150
 2688SOL    HW1 8630   1.376   3.794   4.060
 2688SOL    HW2 8631   1.499   3.847   4.154
 2689SOL     OW 8632   0.382   4.424   4.204
 2689SOL    HW1 8633   0.427   4.334   4.201
 2689SOL    HW2 8634   0.288   4.413   4.237
 2690SOL     OW 8635   1.547   3.946   5.453
 2690SOL    HW1 8636   1.542   3.983   5.545
 2690SOL    HW2 8637   1.475   3.877   5.441
 2691SOL     OW 8638   0.614   3.846   3.841
 2691SOL    HW1 8639   0.712   3.824   3.848
 2691SOL    HW2 8640   0.583   3.829   3.748
 2692SOL     OW 8641   0.781   3.988   5.473
 2692SOL    HW1 8642   0.848   3.927   5.516
 2692SOL    HW2 8643   0.708   4.007   5.538
 2693SOL     OW 8644   1.351   4.314   5.157
 2693SOL    HW1 8645   1.379   4.271   5.242
 2693SOL    HW2 8646   1.376   4.410   5.158
 2694SOL     OW 8647   0.922   4.227   4.623
 2694SOL    HW1 8648   0.897   4.218   4.527
 2694SOL    HW2 8649   0.970   4.145   4.654
 2695SOL     OW 8650   0.539   3.788   4.236
 2695SOL    HW1 8651   0.458   3.789   4.294
 2695SOL    HW2 8652   0.542   3.871   4.181
 2696SOL     OW 8653   0.297   3.759   3.895
 2696SOL    HW1 8654   0.346   3.843   3.874
 2696SOL    HW2 8655   0.359   3.694   3.940
 2697SOL     OW 8656   0.935   3.960   4.204
 2697SOL    HW1 8657   0.887   4.001   4.126
 2697SOL    HW2 8658   1.034   3.958   4.185
 2698SOL     OW 8659   1.076   4.407   5.188
 2698SOL    HW1 8660   0.996   4.346   5.191
 2698SOL    HW2 8661   1.157   4.354   5.164
 2699SOL     OW 8662   1.032   4.273   3.740
 2699SOL    HW1 8663   0.991   4.355   3.701
 2699SOL    HW2 8664   1.096   4.299   3.813
 2700SOL     OW 8665   0.078   4.280   5.110
 2700SOL    HW1 8666   0.170   4.279   5.069
 2700SOL    HW2 8667   0.072   4.354   5.177
 2701SOL     OW 8668   0.561   3.946   4.871
 2701SOL    HW1 8669   0.599   3.862   4.908
 2701SOL    HW2 8670   0.473   3.965   4.915
 2702SOL     OW 8671   0.866   4.178   4.366
 2702SOL    HW1 8672   0.834   4.250   4.304
 2702SOL    HW2 8673   0.890   4.097   4.313
 2703SOL     OW 8674   1.017   3.763   4.477
 2703SOL    HW1 8675   0.945   3.768   4.408
 2703SOL    HW2 8676   0.993   3.694   4.546
 2704SOL     OW 8677   1.466   4.314   4.716
 2704SOL    HW1 8678   1.436   4.219   4.723
 2704SOL    HW2 8679   1.539   4.330   4.782
 2705SOL     OW 8680   1.390   4.299   3.802
 2705SOL    HW1 8681   1.336   4.278   3.883
 2705SOL    HW2 8682   1.481   4.258   3.811
 2706SOL     OW 8683   0.527   3.980   4.052
 2706SOL    HW1 8684   0.554   3.921   3.977
 2706SOL    HW2 8685   0.527   4.075   4.021
 2707SOL     OW 8686   0.915   3.813   5.126
 2707SOL    HW1 8687   0.940   3.793   5.031
 2707SOL    HW2 8688   0.987   3.869   5.168
 2708SOL     OW 8689   0.410   4.537   4.975
 2708SOL    HW1 8690   0.496   4.549   5.025
 2708SOL    HW2 8691   0.368   4.450   5.002
 2709SOL     OW 8692   1.274   4.110   4.986
 2709SOL    HW1 8693   1.295   4.184   5.050
 2709SOL    HW2 8694   1.185   4.127   4.943
 2710SOL     OW 8695   0.566   4.261   4.589
 2710SOL    HW1 8696   0.578   4.327   4.515
 2710SOL    HW2 8697   0.612   4.295   4.672
 2711SOL     OW 8698   1.582   4.363   4.196
 2711SOL    HW1 8699   1.551   4.424   4.269
 2711SOL    HW2 8700   1.632   4.415   4.127
 2712SOL     OW 8701   1.013   3.829   5.494
 2712SOL    HW1 8702   1.019   3.914   5.442
 2712SOL    HW2 8703   1.045   3.753   5.437
 2713SOL     OW 8704   0.504   3.774   5.464
 2713SOL    HW1 8705   0.462   3.717   5.394
 2713SOL    HW2 8706   0.438   3.843   5.496
 2714SOL     OW 8707   1.209   4.249   3.999
 2714SOL    HW1 8708   1.222   4.165   4.053
 2714SOL    HW2 8709   1.180   4.323   4.059
 2715SOL     OW 8710   0.307   3.937   4.955
 2715SOL    HW1 8711   0.284   3.974   5.045
 2715SOL    HW2 8712   0.277   3.842   4.949
 2716SOL     OW 8713   0.732   4.358   4.788
 2716SOL    HW1 8714   0.791   4.332   4.712
 2716SOL    HW2 8715   0.704   4.454   4.777
 2717SOL     OW 8716   1.728   4.659   5.578
 2717SOL    HW1 8717   1.682   4.652   5.489
 2717SOL    HW2 8718   1.666   4.703   5.644
 2718SOL     OW 8719   0.307   3.787   4.342
 2718SOL    HW1 8720   0.296   3.881   4.375
 2718SOL    HW2 8721   0.302   3.724   4.419
 2719SOL     OW 8722   1.622   4.091   4.098
 2719SOL    HW1 8723   1.624   4.015   4.162
 2719SOL    HW2 8724   1.574   4.168   4.138
 2720SOL     OW 8725   1.540   3.998   3.849
 2720SOL    HW1 8726   1.479   3.923   3.872
 2720SOL    HW2 8727   1.562   4.050   3.932
 2721SOL     OW 8728   0.319   4.534   4.673
 2721SOL    HW1 8729   0.412   4.570   4.678
 2721SOL    HW2 8730   0.313   4.449   4.725
 2722SOL     OW 8731   0.339   4.233   4.730
 2722SOL    HW1 8732   0.287   4.150   4.713
 2722SOL    HW2 8733   0.416   4.238   4.666
 2723SOL     OW 8734   1.138   4.104   5.402
 2723SOL    HW1 8735   1.093   4.167   5.466
 2723SOL    HW2 8736   1.231   4.135   5.385
 2724SOL     OW 8737   1.160   3.931   5.201
 2724SOL    HW1 8738   1.160   3.995   5.278
 2724SOL    HW2 8739   1.188   3.979   5.118
 2725SOL     OW 8740   0.040   4.268   4.838
 2725SOL    HW1 8741   0.125   4.235   4.797
 2725SOL    HW2 8742   0.053   4.283   4.936
 2726SOL     OW 8743   0.189   4.244   5.446
 2726SOL    HW1 8744   0.248   4.204   5.376
 2726SOL    HW2 8745   0.131   4.315   5.405
 2727SOL     OW 8746   0.815   4.296   4.049
 2727SOL    HW1 8747   0.822   4.207   4.003
 2727SOL    HW2 8748   0.721   4.330   4.041
 2728SOL     OW 8749   1.657   4.328   4.930
 2728SOL    HW1 8750   1.619   4.259   4.992
 2728SOL    HW2 8751   1.739   4.292   4.886
 2729SOL     OW 8752   0.671   4.188   4.993
 2729SOL    HW1 8753   0.637   4.099   4.963
 2729SOL    HW2 8754   0.697   4.242   4.913
 2730SOL     OW 8755   0.473   4.224   3.915
 2730SOL    HW1 8756   0.534   4.304   3.919
 2730SOL    HW2 8757   0.378   4.255   3.922
 2731SOL     OW 8758   1.726   3.859   4.247
 2731SOL    HW1 8759   1.799   3.842   4.180
 2731SOL    HW2 8760   1.695   3.772   4.285
 2732SOL     OW 8761   1.280   4.651   4.396
 2732SOL    HW1 8762   1.340   4.570   4.398
 2732SOL    HW2 8763   1.320   4.720   4.336
 2733SOL     OW 8764   1.841   3.899   4.687
 2733SOL    HW1 8765   1.880   3.814   4.651
 2733SOL    HW2 8766   1.743   3.901   4.668
 2734SOL     OW 8767   0.263   4.050   4.444
 2734SOL    HW1 8768   0.184   4.101   4.410
 2734SOL    HW2 8769   0.254   4.035   4.542
 2735SOL     OW 8770   0.916   4.634   4.015
 2735SOL    HW1 8771   0.979   4.672   3.947
 2735SOL    HW2 8772   0.956   4.551   4.054
 2736SOL     OW 8773   1.039   4.822   4.420
 2736SOL    HW1 8774   0.969   4.775   4.474
 2736SOL    HW2 8775   1.098   4.754   4.377
 2737SOL     OW 8776   1.014   3.960   4.695
 2737SOL    HW1 8777   1.006   3.924   4.602
 2737SOL    HW2 8778   1.012   3.884   4.760
 2738SOL     OW 8779   1.709   4.109   5.105
 2738SOL    HW1 8780   1.782   4.178   5.109
 2738SOL    HW2 8781   1.737   4.034   5.046
 2739SOL     OW 8782   0.672   3.927   5.213
 2739SOL    HW1 8783   0.762   3.911   5.173
 2739SOL    HW2 8784   0.680   3.932   5.312
 2740SOL     OW 8785   0.075   4.069   3.757
 2740SOL    HW1 8786  -0.017   4.041   3.728
 2740SOL    HW2 8787   0.106   4.146   3.701
 2741SOL     OW 8788   0.072   3.890   4.042
 2741SOL    HW1 8789   0.055   3.973   3.988
 2741SOL    HW2 8790   0.162   3.853   4.020
 2742SOL     OW 8791   0.716   4.289   5.432
 2742SOL    HW1 8792   0.735   4.354   5.506
 2742SOL    HW2 8793   0.776   4.209   5.441
 2743SOL     OW 8794   1.225   4.049   4.173
 2743SOL    HW1 8795   1.290   3.975   4.162
 2743SOL    HW2 8796   1.245   4.099   4.257
 2744SOL     OW 8797   1.777   4.066   5.366
 2744SOL    HW1 8798   1.760   4.097   5.272
 2744SOL    HW2 8799   1.693   4.029   5.404
 2745SOL     OW 8800   1.083   4.708   3.811
 2745SOL    HW1 8801   1.060   4.761   3.729
 2745SOL    HW2 8802   1.164   4.652   3.792
 2746SOL     OW 8803   1.824   3.916   4.951
 2746SOL    HW1 8804   1.820   3.826   4.995
 2746SOL    HW2 8805   1.827   3.905   4.852
 2747SOL     OW 8806   0.428   4.148   4.244
 2747SOL    HW1 8807   0.458   4.076   4.182
 2747SOL    HW2 8808   0.389   4.108   4.327
 2748SOL     OW 8809   0.317   4.271   5.004
 2748SOL    HW1 8810   0.355   4.212   5.076
 2748SOL    HW2 8811   0.357   4.245   4.916
 2749SOL     OW 8812   1.424   3.938   4.836
 2749SOL    HW1 8813   1.476   3.873   4.891
 2749SOL    HW2 8814   1.375   4.001   4.897
 2750SOL     OW 8815   1.001   3.758   4.878
 2750SOL    HW1 8816   0.938   3.686   4.847
 2750SOL    HW2 8817   1.094   3.722   4.878
 2751SOL     OW 8818   1.352   3.776   3.892
 2751SOL    HW1 8819   1.387   3.735   3.808
 2751SOL    HW2 8820   1.262   3.738   3.912
 2752SOL     OW 8821   1.300   4.177   4.415
 2752SOL    HW1 8822   1.241   4.257   4.419
 2752SOL    HW2 8823   1.315   4.142   4.508
 2753SOL     OW 8824   1.593   3.945   4.606
 2753SOL    HW1 8825   1.509   3.944   4.660
 2753SOL    HW2 8826   1.595   4.028   4.550
 2754SOL     OW 8827   0.230   4.352   5.699
 2754SOL    HW1 8828   0.137   4.350   5.736
 2754SOL    HW2 8829   0.231   4.313   5.607
 2755SOL     OW 8830   0.225   3.999   6.582
 2755SOL    HW1 8831   0.260   3.982   6.674
 2755SOL    HW2 8832   0.137   3.954   6.570
 2756SOL     OW 8833   0.019   4.092   6.233
 2756SOL    HW1 8834  -0.063   4.135   6.272
 2756SOL    HW2 8835  -0.009   4.019   6.170
 2757SOL     OW 8836   1.755   4.331   5.817
 2757SOL    HW1 8837   1.743   4.318   5.718
 2757SOL    HW2 8838   1.725   4.250   5.866
 2758SOL     OW 8839   0.685   4.736   6.251
 2758SOL    HW1 8840   0.754   4.720   6.321
 2758SOL    HW2 8841   0.612   4.793   6.289
 2759SOL     OW 8842   0.438   4.116   7.085
 2759SOL    HW1 8843   0.520   4.060   7.094
 2759SOL    HW2 8844   0.357   4.058   7.089
 2760SOL     OW 8845   1.603   4.171   6.323
 2760SOL    HW1 8846   1.529   4.217   6.273
 2760SOL    HW2 8847   1.654   4.239   6.376
 2761SOL     OW 8848   1.594   3.838   7.066
 2761SOL    HW1 8849   1.576   3.905   6.994
 2761SOL    HW2 8850   1.591   3.884   7.155
 2762SOL     OW 8851   0.122   4.367   6.149
 2762SOL    HW1 8852   0.077   4.279   6.166
 2762SOL    HW2 8853   0.121   4.421   6.233
 2763SOL     OW 8854   0.113   4.461   7.183
 2763SOL    HW1 8855   0.201   4.448   7.228
 2763SOL    HW2 8856   0.100   4.558   7.161
 2764SOL     OW 8857   0.809   3.728   6.088
 2764SOL    HW1 8858   0.849   3.819   6.079
 2764SOL    HW2 8859   0.709   3.736   6.094
 2765SOL     OW 8860   0.317   3.975   7.387
 2765SOL    HW1 8861   0.388   4.046   7.393
 2765SOL    HW2 8862   0.229   4.014   7.415
 2766SOL     OW 8863   1.281   4.069   6.530
 2766SOL    HW1 8864   1.195   4.019   6.517
 2766SOL    HW2 8865   1.343   4.015   6.586
 2767SOL     OW 8866   0.807   4.329   7.051
 2767SOL    HW1 8867   0.760   4.326   7.140
 2767SOL    HW2 8868   0.756   4.274   6.985
 2768SOL     OW 8869   1.394   4.193   7.260
 2768SOL    HW1 8870   1.374   4.236   7.348
 2768SOL    HW2 8871   1.472   4.131   7.269
 2769SOL     OW 8872   0.991   4.134   6.828
 2769SOL    HW1 8873   0.914   4.168   6.882
 2769SOL    HW2 8874   0.957   4.083   6.749
 2770SOL     OW 8875   1.041   4.425   6.015
 2770SOL    HW1 8876   1.067   4.421   6.111
 2770SOL    HW2 8877   0.956   4.374   6.001
 2771SOL     OW 8878   0.076   4.535   6.375
 2771SOL    HW1 8879   0.175   4.523   6.384
 2771SOL    HW2 8880   0.052   4.630   6.396
 2772SOL     OW 8881   0.865   4.072   5.781
 2772SOL    HW1 8882   0.924   4.135   5.732
 2772SOL    HW2 8883   0.884   3.978   5.752
 2773SOL     OW 8884   1.719   4.309   7.417
 2773SOL    HW1 8885   1.693   4.398   7.381
 2773SOL    HW2 8886   1.717   4.241   7.344
 2774SOL     OW 8887   0.550   3.920   6.471
 2774SOL    HW1 8888   0.545   3.915   6.571
 2774SOL    HW2 8889   0.552   4.016   6.442
 2775SOL     OW 8890   1.458   4.459   6.314
 2775SOL    HW1 8891   1.453   4.394   6.389
 2775SOL    HW2 8892   1.538   4.518   6.327
 2776SOL     OW 8893   0.202   4.009   7.084
 2776SOL    HW1 8894   0.122   4.069   7.071
 2776SOL    HW2 8895   0.192   3.960   7.170
 2777SOL     OW 8896   1.400   3.831   6.012
 2777SOL    HW1 8897   1.376   3.794   5.922
 2777SOL    HW2 8898   1.499   3.847   6.016
 2778SOL     OW 8899   0.382   4.424   6.066
 2778SOL    HW1 8900   0.427   4.334   6.063
 2778SOL    HW2 8901   0.288   4.413   6.099
 2779SOL     OW 8902   1.547   3.946   7.315
 2779SOL    HW1 8903   1.542   3.983   7.407
 2779SOL    HW2 8904   1.475   3.877   7.303
 2780SOL     OW 8905   0.614   3.846   5.703
 2780SOL    HW1 8906   0.712   3.824   5.710
 2780SOL    HW2 8907   0.583   3.829   5.610
 2781SOL     OW 8908   0.781   3.988   7.335
 2781SOL    HW1 8909   0.848   3.927   7.378
 2781SOL    HW2 8910   0.708   4.007   7.400
 2782SOL     OW 8911   1.351   4.314   7.019
 2782SOL    HW1 8912   1.379   4.271   7.104
 2782SOL    HW2 8913   1.376   4.410   7.020
 2783SOL     OW 8914   0.922   4.227   6.485
 2783SOL    HW1 8915   0.897   4.218   6.389
 2783SOL    HW2 8916   0.970   4.145   6.516
 2784SOL     OW 8917   0.539   3.788   6.098
 2784SOL    HW1 8918   0.458   3.789   6.156
 2784SOL    HW2 8919   0.542   3.871   6.043
 2785SOL     OW 8920   0.297   3.759   5.757
 2785SOL    HW1 8921   0.346   3.843   5.736
 2785SOL    HW2 8922   0.359   3.694   5.802
 2786SOL     OW 8923   0.935   3.960   6.066
 2786SOL    HW1 8924   0.887   4.001   5.988
 2786SOL    HW2 8925   1.034   3.958   6.047
 2787SOL     OW 8926   1.076   4.407   7.050
 2787SOL    HW1 8927   0.996   4.346   7.053
 2787SOL    HW2 8928   1.157   4.354   7.026
 2788SOL     OW 8929   1.032   4.273   5.602
 2788SOL    HW1 8930   0.991   4.355   5.563
 2788SOL    HW2 8931   1.096   4.299   5.675
 2789SOL     OW 8932   0.078   4.280   6.972
 2789SOL    HW1 8933   0.170   4.279   6.931
 2789SOL    HW2 8934   0.072   4.354   7.039
 2790SOL     OW 8935   0.561   3.946   6.733
 2790SOL    HW1 8936   0.599   3.862   6.770
 2790SOL    HW2 8937   0.473   3.965   6.777
 2791SOL     OW 8938   0.866   4.178   6.228
 2791SOL    HW1 8939   0.834   4.250   6.166
 2791SOL    HW2 8940   0.890   4.097   6.175
 2792SOL     OW 8941   1.017   3.763   6.339
 2792SOL    HW1 8942   0.945   3.768   6.270
 2792SOL    HW2 8943   0.993   3.694   6.408
 2793SOL     OW 8944   1.466   4.314   6.578
 2793SOL    HW1 8945   1.436   4.219   6.585
 2793SOL    HW2 8946   1.539   4.330   6.644
 2794SOL     OW 8947   1.390   4.299   5.664
 2794SOL    HW1 8948   1.336   4.278   5.745
 2794SOL    HW2 8949   1.481   4.258   5.673
 2795SOL     OW 8950   0.527   3.980   5.914
 2795SOL    HW1 8951   0.554   3.921   5.839
 2795SOL    HW2 8952   0.527   4.075   5.883
 2796SOL     OW 8953   0.915   3.813   6.988
 2796SOL    HW1 8954   0.940   3.793   6.893
 2796SOL    HW2 8955   0.987   3.869   7.030
 2797SOL     OW 8956   0.410   4.537   6.837
 2797SOL    HW1 8957   0.496   4.549   6.887
 2797SOL    HW2 8958   0.368   4.450   6.864
 2798SOL     OW 8959   1.274   4.110   6.848
 2798SOL    HW1 8960   1.295   4.184   6.912
 2798SOL    HW2 8961   1.185   4.127   6.805
 2799SOL     OW 8962   0.566   4.261   6.451
 2799SOL    HW1 8963   0.578   4.327   6.377
 2799SOL    HW2 8964   0.612   4.295   6.534
 2800SOL     OW 8965   1.582   4.363   6.058
 2800SOL    HW1 8966   1.551   4.424   6.131
 2800SOL    HW2 8967   1.632   4.415   5.989
 2801SOL     OW 8968   1.013   3.829   7.356
 2801SOL    HW1 8969   1.019   3.914   7.304
 2801SOL    HW2 8970   1.045   3.753   7.299
 2802SOL     OW 8971   0.504   3.774   7.326
 2802SOL    HW1 8972   0.462   3.717   7.256
 2802SOL    HW2 8973   0.438   3.843   7.358
 2803SOL     OW 8974   1.209   4.249   5.861
 2803SOL    HW1 8975   1.222   4.165   5.915
 2803SOL    HW2 8976   1.180   4.323   5.921
 2804SOL     OW 8977   0.307   3.937   6.817
 2804SOL    HW1 8978   0.284   3.974   6.907
 2804SOL    HW2 8979   0.277   3.842   6.811
 2805SOL     OW 8980   0.732   4.358   6.650
 2805SOL    HW1 8981   0.791   4.332   6.574
 2805SOL    HW2 8982   0.704   4.454   6.639
 2806SOL     OW 8983   1.728   4.659   7.440
 2806SOL    HW1 8984   1.682   4.652   7.351
 2806SOL    HW2 8985   1.666   4.703   7.506
 2807SOL     OW 8986   0.307   3.787   6.204
 2807SOL    HW1 8987   0.296   3.881   6.237
 2807SOL    HW2 8988   0.302   3.724   6.281
 2808SOL     OW 8989   1.622   4.091   5.960
 2808SOL    HW1 8990   1.624   4.015   6.024
 2808SOL    HW2 8991   1.574   4.168   6.000
 2809SOL     OW 8992   1.540   3.998   5.711
 2809SOL    HW1 8993   1.479   3.923   5.734
 2809SOL    HW2 8994   1.562   4.050   5.794
 2810SOL     OW 8995   0.319   4.534   6.535
 2810SOL    HW1 8996   0.412   4.570   6.540
 2810SOL    HW2 8997   0.313   4.449   6.587
 2811SOL     OW 8998   0.339   4.233   6.592
 2811SOL    HW1 8999   0.287   4.150   6.575
 2811SOL    HW2 9000   0.416   4.238   6.528
 2812SOL     OW 9001   1.138   4.104   7.264
 2812SOL    HW1 9002   1.093   4.167   7.328
 2812SOL    HW2 9003   1.231   4.135   7.247
 2813SOL     OW 9004   1.160   3.931   7.063
 2813SOL    HW1 9005   1.160   3.995   7.140
 2813SOL    HW2 9006   1.188   3.979   6.980
 2814SOL     OW 9007   0.040   4.268   6.700
 2814SOL    HW1 9008   0.125   4.235   6.659
 2814SOL    HW2 9009   0.053   4.283   6.798
 2815SOL     OW 9010   0.189   4.244   7.308
 2815SOL    HW1 9011   0.248   4.204   7.238
 2815SOL    HW2 9012   0.131   4.315   7.267
 2816SOL     OW 9013   0.815   4.296   5.911
 2816SOL    HW1 9014   0.822   4.207   5.865
 2816SOL    HW2 9015   0.721   4.330   5.903
 2817SOL     OW 9016   1.657   4.328   6.792
 2817SOL    HW1 9017   1.619   4.259   6.854
 2817SOL    HW2 9018   1.739   4.292   6.748
 2818SOL     OW 9019   0.671   4.188   6.855
 2818SOL    HW1 9020   0.637   4.099   6.825
 2818SOL    HW2 9021   0.697   4.242   6.775
 2819SOL     OW 9022   0.473   4.224   5.777
 2819SOL    HW1 9023   0.534   4.304   5.781
 2819SOL    HW2 9024   0.378   4.255   5.784
 2820SOL     OW 9025   1.726   3.859   6.109
 2820SOL    HW1 9026   1.799   3.842   6.042
 2820SOL    HW2 9027   1.695   3.772   6.147
 2821SOL     OW 9028   1.280   4.651   6.258
 2821SOL    HW1 9029   1.340   4.570   6.260
 2821SOL    HW2 9030   1.320   4.720   6.198
 2822SOL     OW 9031   1.841   3.899   6.549
 2822SOL    HW1 9032   1.880   3.814   6.513
 2822SOL    HW2 9033   1.743   3.901   6.530
 2823SOL     OW 9034   0.263   4.050   6.306
 2823SOL    HW1 9035   0.184   4.101   6.272
 2823SOL    HW2 9036   0.254   4.035   6.404
 2824SOL     OW 9037   0.916   4.634   5.877
 2824SOL    HW1 9038   0.979   4.672   5.809
 2824SOL    HW2 9039   0.956   4.551   5.916
 2825SOL     OW 9040   1.039   4.822   6.282
 2825SOL    HW1 9041   0.969   4.775   6.336
 2825SOL    HW2 9042   1.098   4.754   6.239
 2826SOL     OW 9043   1.014   3.960   6.557
 2826SOL    HW1 9044   1.006   3.924   6.464
 2826SOL    HW2 9045   1.012   3.884   6.622
 2827SOL     OW 9046   1.709   4.109   6.967
 2827SOL    HW1 9047   1.782   4.178   6.971
 2827SOL    HW2 9048   1.737   4.034   6.908
 2828SOL     OW 9049   0.672   3.927   7.075
 2828SOL    HW1 9050   0.762   3.911   7.035
 2828SOL    HW2 9051   0.680   3.932   7.174
 2829SOL     OW 9052   0.075   4.069   5.619
 2829SOL    HW1 9053  -0.017   4.041   5.590
 2829SOL    HW2 9054   0.106   4.146   5.563
 2830SOL     OW 9055   0.072   3.890   5.904
 2830SOL    HW1 9056   0.055   3.973   5.850
 2830SOL    HW2 9057   0.162   3.853   5.882
 2831SOL     OW 9058   0.716   4.289   7.294
 2831SOL    HW1 9059   0.735   4.354   7.368
 2831SOL    HW2 9060   0.776   4.209   7.303
 2832SOL     OW 9061   1.225   4.049   6.035
 2832SOL    HW1 9062   1.290   3.975   6.024
 2832SOL    HW2 9063   1.245   4.099   6.119
 2833SOL     OW 9064   1.777   4.066   7.228
 2833SOL    HW1 9065   1.760   4.097   7.134
 2833SOL    HW2 9066   1.693   4.029   7.266
 2834SOL     OW 9067   1.083   4.708   5.673
 2834SOL    HW1 9068   1.060   4.761   5.591
 2834SOL    HW2 9069   1.164   4.652   5.654
 2835SOL     OW 9070   1.824   3.916   6.813
 2835SOL    HW1 9071   1.820   3.826   6.857
 2835SOL    HW2 9072   1.827   3.905   6.714
 2836SOL     OW 9073   0.428   4.148   6.106
 2836SOL    HW1 9074   0.458   4.076   6.044
 2836SOL    HW2 9075   0.389   4.108   6.189
 2837SOL     OW 9076   0.317   4.271   6.866
 2837SOL    HW1 9077   0.355   4.212   6.938
 2837SOL    HW2 9078   0.357   4.245   6.778
 2838SOL     OW 9079   1.424   3.938   6.698
 2838SOL    HW1 9080   1.476   3.873   6.753
 2838SOL    HW2 9081   1.375   4.001   6.759
 2839SOL     OW 9082   1.001   3.758   6.740
 2839SOL    HW1 9083   0.938   3.686   6.709
 2839SOL    HW2 9084   1.094   3.722   6.740
 2840SOL     OW 9085   1.352   3.776   5.754
 2840SOL    HW1 9086   1.387   3.735   5.670
 2840SOL    HW2 9087   1.262   3.738   5.774
 2841SOL     OW 9088   1.300   4.177   6.277
 2841SOL    HW1 9089   1.241   4.257   6.281
 2841SOL    HW2 9090   1.315   4.142   6.370
 2842SOL     OW 9091   1.593   3.945   6.468
 2842SOL    HW1 9092   1.509   3.944   6.522
 2842SOL    HW2 9093   1.595   4.028   6.412
 2843SOL     OW 9094   0.230   4.352   7.561
 2843SOL    HW1 9095   0.137   4.350   7.598
 2843SOL    HW2 9096   0.231   4.313   7.469
 2844SOL     OW 9097   0.225   3.999   8.444
 2844SOL    HW1 9098   0.260   3.982   8.536
 2844SOL    HW2 9099   0.137   3.954   8.432
 2845SOL     OW 9100   0.019   4.092   8.095
 2845SOL    HW1 9101  -0.063   4.135   8.134
 2845SOL    HW2 9102  -0.009   4.019   8.032
 2846SOL     OW 9103   1.755   4.331   7.679
 2846SOL    HW1 9104   1.743   4.318   7.580
 2846SOL    HW2 9105   1.725   4.250   7.728
 2847SOL     OW 9106   0.685   4.736   8.113
 2847SOL    HW1 9107   0.754   4.720   8.183
 2847SOL    HW2 9108   0.612   4.793   8.151
 2848SOL     OW 9109   0.438   4.116   8.947
 2848SOL    HW1 9110   0.520   4.060   8.956
 2848SOL    HW2 9111   0.357   4.058   8.951
 2849SOL     OW 9112   1.603   4.171   8.185
 2849SOL    HW1 9113   1.529   4.217   8.135
 2849SOL    HW2 9114   1.654   4.239   8.238
 2850SOL     OW 9115   1.594   3.838   8.928
 2850SOL    HW1 9116   1.576   3.905   8.856
 2850SOL    HW2 9117   1.591   3.884   9.017
 2851SOL     OW 9118   0.122   4.367   8.011
 2851SOL    HW1 9119   0.077   4.279   8.028
 2851SOL    HW2 9120   0.121   4.421   8.095
 2852SOL     OW 9121   0.113   4.461   9.045
 2852SOL    HW1 9122   0.201   4.448   9.090
 2852SOL    HW2 9123   0.100   4.558   9.023
 2853SOL     OW 9124   0.809   3.728   7.950
 2853SOL    HW1 9125   0.849   3.819   7.941
 2853SOL    HW2 9126   0.709   3.736   7.956
 2854SOL     OW 9127   0.317   3.975   9.249
 2854SOL    HW1 9128   0.388   4.046   9.255
 2854SOL    HW2 9129   0.229   4.014   9.277
 2855SOL     OW 9130   1.281   4.069   8.392
 2855SOL    HW1 9131   1.195   4.019   8.379
 2855SOL    HW2 9132   1.343   4.015   8.448
 2856SOL     OW 9133   0.807   4.329   8.913
 2856SOL    HW1 9134   0.760   4.326   9.002
 2856SOL    HW2 9135   0.756   4.274   8.847
 2857SOL     OW 9136   1.394   4.193   9.122
 2857SOL    HW1 9137   1.374   4.236   9.210
 2857SOL    HW2 9138   1.472   4.131   9.131
 2858SOL     OW 9139   0.991   4.134   8.690
 2858SOL    HW1 9140   0.914   4.168   8.744
 2858SOL    HW2 9141   0.957   4.083   8.611
 2859SOL     OW 9142   1.041   4.425   7.877
 2859SOL    HW1 9143   1.067   4.421   7.973
 2859SOL    HW2 9144   0.956   4.374   7.863
 2860SOL     OW 9145   0.076   4.535   8.237
 2860SOL    HW1 9146   0.175   4.523   8.246
 2860SOL    HW2 9147   0.052   4.630   8.258
 2861SOL     OW 9148   0.865   4.072   7.643
 2861SOL    HW1 9149   0.924   4.135   7.594
 2861SOL    HW2 9150   0.884   3.978   7.614
 2862SOL     OW 9151   1.719   4.309   9.279
 2862SOL    HW1 9152   1.693   4.398   9.243
 2862SOL    HW2 9153   1.717   4.241   9.206
 2863SOL     OW 9154   0.550   3.920   8.333
 2863SOL    HW1 9155   0.545   3.915   8.433
 2863SOL    HW2 9156   0.552   4.016   8.304
 2864SOL     OW 9157   1.458   4.459   8.176
 2864SOL    HW1 9158   1.453   4.394   8.251
 2864SOL    HW2 9159   1.538   4.518   8.189
 2865SOL     OW 9160   0.202   4.009   8.946
 2865SOL    HW1 9161   0.122   4.069   8.933
 2865SOL    HW2 9162   0.192   3.960   9.032
 2866SOL     OW 9163   1.400   3.831   7.874
 2866SOL    HW1 9164   1.376   3.794   7.784
 2866SOL    HW2 9165   1.499   3.847   7.878
 2867SOL     OW 9166   0.382   4.424   7.928
 2867SOL    HW1 9167   0.427   4.334   7.925
 2867SOL    HW2 9168   0.288   4.413   7.961
 2868SOL     OW 9169   1.547   3.946   9.177
 2868SOL    HW1 9170   1.542   3.983   9.269
 2868SOL    HW2 9171   1.475   3.877   9.165
 2869SOL     OW 9172   0.614   3.846   7.565
 2869SOL    HW1 9173   0.712   3.824   7.572
 2869SOL    HW2 9174   0.583   3.829   7.472
 2870SOL     OW 9175   0.781   3.988   9.197
 2870SOL    HW1 9176   0.848   3.927   9.240
 2870SOL    HW2 9177   0.708   4.007   9.262
 2871SOL     OW 9178   1.351   4.314   8.881
 2871SOL    HW1 9179   1.379   4.271   8.966
 2871SOL    HW2 9180   1.376   4.410   8.882
 2872SOL     OW 9181   0.922   4.227   8.347
 2872SOL    HW1 9182   0.897   4.218   8.251
 2872SOL    HW2 9183   0.970   4.145   8.378
 2873SOL     OW 9184   0.539   3.788   7.960
 2873SOL    HW1 9185   0.458   3.789   8.018
 2873SOL    HW2 9186   0.542   3.871   7.905
 2874SOL     OW 9187   0.297   3.759   7.619
 2874SOL    HW1 9188   0.346   3.843   7.598
 2874SOL    HW2 9189   0.359   3.694   7.664
 2875SOL     OW 9190   0.935   3.960   7.928
 2875SOL    HW1 9191   0.887   4.001   7.850
 2875SOL    HW2 9192   1.034   3.958   7.909
 2876SOL     OW 9193   1.076   4.407   8.912
 2876SOL    HW1 9194   0.996   4.346   8.915
 2876SOL    HW2 9195   1.157   4.354   8.888
 2877SOL     OW 9196   1.032   4.273   7.464
 2877SOL    HW1 9197   0.991   4.355   7.425
 2877SOL    HW2 9198   1.096   4.299   7.537
 2878SOL     OW 9199   0.078   4.280   8.834
 2878SOL    HW1 9200   0.170   4.279   8.793
 2878SOL    HW2 9201   0.072   4.354   8.901
 2879SOL     OW 9202   0.561   3.946   8.595
 2879SOL    HW1 9203   0.599   3.862   8.632
 2879SOL    HW2 9204   0.473   3.965   8.639
 2880SOL     OW 9205   0.866   4.178   8.090
 2880SOL    HW1 9206   0.834   4.250   8.028
 2880SOL    HW2 9207   0.890   4.097   8.037
 2881SOL     OW 9208   1.017   3.763   8.201
 2881SOL    HW1 9209   0.945   3.768   8.132
 2881SOL    HW2 9210   0.993   3.694   8.270
 2882SOL     OW 9211   1.466   4.314   8.440
 2882SOL    HW1 9212   1.436   4.219   8.447
 2882SOL    HW2 9213   1.539   4.330   8.506
 2883SOL     OW 9214   1.390   4.299   7.526
 2883SOL    HW1 9215   1.336   4.278   7.607
 2883SOL    HW2 9216   1.481   4.258   7.535
 2884SOL     OW 9217   0.527   3.980   7.776
 2884SOL    HW1 9218   0.554   3.921   7.701
 2884SOL    HW2 9219   0.527   4.075   7.745
 2885SOL     OW 9220   0.915   3.813   8.850
 2885SOL    HW1 9221   0.940   3.793   8.755
 2885SOL    HW2 9222   0.987   3.869   8.892
 2886SOL     OW 9223   0.410   4.537   8.699
 2886SOL    HW1 9224   0.496   4.549   8.749
 2886SOL    HW2 9225   0.368   4.450   8.726
 2887SOL     OW 9226   1.274   4.110   8.710
 2887SOL    HW1 9227   1.295   4.184   8.774
 2887SOL    HW2 9228   1.185   4.127   8.667
 2888SOL     OW 9229   0.566   4.261   8.313
 2888SOL    HW1 9230   0.578   4.327   8.239
 2888SOL    HW2 9231   0.612   4.295   8.396
 2889SOL     OW 9232   1.582   4.363   7.920
 2889SOL    HW1 9233   1.551   4.424   7.993
 2889SOL    HW2 9234   1.632   4.415   7.851
 2890SOL     OW 9235   1.013   3.829   9.218
 2890SOL    HW1 9236   1.019   3.914   9.166
 2890SOL    HW2 9237   1.045   3.753   9.161
 2891SOL     OW 9238   0.504   3.774   9.188
 2891SOL    HW1 9239   0.462   3.717   9.118
 2891SOL    HW2 9240   0.438   3.843   9.220
 2892SOL     OW 9241   1.209   4.249   7.723
 2892SOL    HW1 9242   1.222   4.165   7.777
 2892SOL    HW2 9243   1.180   4.323   7.783
 2893SOL     OW 9244   0.307   3.937   8.679
 2893SOL    HW1 9245   0.284   3.974   8.769
 2893SOL    HW2 9246   0.277   3.842   8.673
 2894SOL     OW 9247   0.732   4.358   8.512
 2894SOL    HW1 9248   0.791   4.332   8.436
 2894SOL    HW2 9249   0.704   4.454   8.501
 2895SOL     OW 9250   1.728   4.659   9.302
 2895SOL    HW1 9251   1.682   4.652   9.213
 2895SOL    HW2 9252   1.666   4.703   9.368
 2896SOL     OW 9253   0.307   3.787   8.066
 2896SOL    HW1 9254   0.296   3.881   8.099
 2896SOL    HW2 9255   0.302   3.724   8.143
 2897SOL     OW 9256   1.622   4.091   7.822
 2897SOL    HW1 9257   1.624   4.015   7.886
 2897SOL    HW2 9258   1.574   4.168   7.862
 2898SOL     OW 9259   1.540   3.998   7.573
 2898SOL    HW1 9260   1.479   3.923   7.596
 2898SOL    HW2 9261   1.562   4.050   7.656
 2899SOL     OW 9262   0.319   4.534   8.397
 2899SOL    HW1 9263   0.412   4.570   8.402
 2899SOL    HW2 9264   0.313   4.449   8.449
 2900SOL     OW 9265   0.339   4.233   8.454
 2900SOL    HW1 9266   0.287   4.150   8.437
 2900SOL    HW2 9267   0.416   4.238   8.390
 2901SOL     OW 9268   1.138   4.104   9.126
 2901SOL    HW1 9269   1.093   4.167   9.190
 2901SOL    HW2 9270   1.231   4.135   9.109
 2902SOL     OW 9271   1.160   3.931   8.925
 2902SOL    HW1 9272   1.160   3.995   9.002
 2902SOL    HW2 9273   1.188   3.979   8.842
 2903SOL     OW 9274   0.040   4.268   8.562
 2903SOL    HW1 9275   0.125   4.235   8.521
 2903SOL    HW2 9276   0.053   4.283   8.660
 2904SOL     OW 9277   0.189   4.244   9.170
 2904SOL    HW1 9278   0.248   4.204   9.100
 2904SOL    HW2 9279   0.131   4.315   9.129
 2905SOL     OW 9280   0.815   4.296   7.773
 2905SOL    HW1 9281   0.822   4.207   7.727
 2905SOL    HW2 9282   0.721   4.330   7.765
 2906SOL     OW 9283   1.657   4.328   8.654
 2906SOL    HW1 9284   1.619   4.259   8.716
 2906SOL    HW2 9285   1.739   4.292   8.610
 2907SOL     OW 9286   0.671   4.188   8.717
 2907SOL    HW1 9287   0.637   4.099   8.687
 2907SOL    HW2 9288   0.697   4.242   8.637
 2908SOL     OW 9289   0.473   4.224   7.639
 2908SOL    HW1 9290   0.534   4.304   7.643
 2908SOL    HW2 9291   0.378   4.255   7.646
 2909SOL     OW 9292   1.726   3.859   7.971
 2909SOL    HW1 9293   1.799   3.842   7.904
 2909SOL    HW2 9294   1.695   3.772   8.009
 2910SOL     OW 9295   1.280   4.651   8.120
 2910SOL    HW1 9296   1.340   4.570   8.122
 2910SOL    HW2 9297   1.320   4.720   8.060
 2911SOL     OW 9298   1.841   3.899   8.411
 2911SOL    HW1 9299   1.880   3.814   8.375
 2911SOL    HW2 9300   1.743   3.901   8.392
 2912SOL     OW 9301   0.263   4.050   8.168
 2912SOL    HW1 9302   0.184   4.101   8.134
 2912SOL    HW2 9303   0.254   4.035   8.266
 2913SOL     OW 9304   0.916   4.634   7.739
 2913SOL    HW1 9305   0.979   4.672   7.671
 2913SOL    HW2 9306   0.956   4.551   7.778
 2914SOL     OW 9307   1.039   4.822   8.144
 2914SOL    HW1 9308   0.969   4.775   8.198
 2914SOL    HW2 9309   1.098   4.754   8.101
 2915SOL     OW 9310   1.014   3.960   8.419
 2915SOL    HW1 9311   1.006   3.924   8.326
 2915SOL    HW2 9312   1.012   3.884   8.484
 2916SOL     OW 9313   1.709   4.109   8.829
 2916SOL    HW1 9314   1.782   4.178   8.833
 2916SOL    HW2 9315   1.737   4.034   8.770
 2917SOL     OW 9316   0.672   3.927   8.937
 2917SOL    HW1 9317   0.762   3.911   8.897
 2917SOL    HW2 9318   0.680   3.932   9.036
 2918SOL     OW 9319   0.075   4.069   7.481
 2918SOL    HW1 9320  -0.017   4.041   7.452
 2918SOL    HW2 9321   0.106   4.146   7.425
 2919SOL     OW 9322   0.072   3.890   7.766
 2919SOL    HW1 9323   0.055   3.973   7.712
 2919SOL    HW2 9324   0.162   3.853   7.744
 2920SOL     OW 9325   0.716   4.289   9.156
 2920SOL    HW1 9326   0.735   4.354   9.230
 2920SOL    HW2 9327   0.776   4.209   9.165
 2921SOL     OW 9328   1.225   4.049   7.897
 2921SOL    HW1 9329   1.290   3.975   7.886
 2921SOL    HW2 9330   1.245   4.099   7.981
 2922SOL     OW 9331   1.777   4.066   9.090
 2922SOL    HW1 9332   1.760   4.097   8.996
 2922SOL    HW2 9333   1.693   4.029   9.128
 2923SOL     OW 9334   1.083   4.708   7.535
 2923SOL    HW1 9335   1.060   4.761   7.453
 2923SOL    HW2 9336   1.164   4.652   7.516
 2924SOL     OW 9337   1.824   3.916   8.675
 2924SOL    HW1 9338   1.820   3.826   8.719
 2924SOL    HW2 9339   1.827   3.905   8.576
 2925SOL     OW 9340   0.428   4.148   7.968
 2925SOL    HW1 9341   0.458   4.076   7.906
 2925SOL    HW2 9342   0.389   4.108   8.051
 2926SOL     OW 9343   0.317   4.271   8.728
 2926SOL    HW1 9344   0.355   4.212   8.800
 2926SOL    HW2 9345   0.357   4.245   8.640
 2927SOL     OW 9346   1.424   3.938   8.560
 2927SOL    HW1 9347   1.476   3.873   8.615
 2927SOL    HW2 9348   1.375   4.001   8.621
 2928SOL     OW 9349   1.001   3.758   8.602
 2928SOL    HW1 9350   0.938   3.686   8.571
 2928SOL    HW2 9351   1.094   3.722   8.602
 2929SOL     OW 9352   1.352   3.776   7.616
 2929SOL    HW1 9353   1.387   3.735   7.532
 2929SOL    HW2 9354   1.262   3.738   7.636
 2930SOL     OW 9355   1.300   4.177   8.139
 2930SOL    HW1 9356   1.241   4.257   8.143
 2930SOL    HW2 9357   1.315   4.142   8.232
 2931SOL     OW 9358   1.593   3.945   8.330
 2931SOL    HW1 9359   1.509   3.944   8.384
 2931SOL    HW2 9360   1.595   4.028   8.274
 2932SOL     OW 9361   0.230   4.352   9.423
 2932SOL    HW1 9362   0.137   4.350   9.460
 2932SOL    HW2 9363   0.231   4.313   9.331
 2933SOL     OW 9364   0.225   3.999  10.306
 2933SOL    HW1 9365   0.260   3.982  10.398
 2933SOL    HW2 9366   0.137   3.954  10.294
 2934SOL     OW 9367   0.019   4.092   9.957
 2934SOL    HW1 9368  -0.063   4.135   9.996
 2934SOL    HW2 9369  -0.009   4.019   9.894
 2935SOL     OW 9370   1.755   4.331   9.541
 2935SOL    HW1 9371   1.743   4.318   9.442
 2935SOL    HW2 9372   1.725   4.250   9.590
 2936SOL     OW 9373   0.685   4.736   9.975
 2936SOL    HW1 9374   0.754   4.720  10.045
 2936SOL    HW2 9375   0.612   4.793  10.013
 2937SOL     OW 9376   0.438   4.116  10.809
 2937SOL    HW1 9377   0.520   4.060  10.818
 2937SOL    HW2 9378   0.357   4.058  10.813
 2938SOL     OW 9379   1.603   4.171  10.047
 2938SOL    HW1 9380   1.529   4.217   9.997
 2938SOL    HW2 9381   1.654   4.239  10.100
 2939SOL     OW 9382   1.594   3.838  10.790
 2939SOL    HW1 9383   1.576   3.905  10.718
 2939SOL    HW2 9384   1.591   3.884  10.879
 2940SOL     OW 9385   0.122   4.367   9.873
 2940SOL    HW1 9386   0.077   4.279   9.890
 2940SOL    HW2 9387   0.121   4.421   9.957
 2941SOL     OW 9388   0.113   4.461  10.907
 2941SOL    HW1 9389   0.201   4.448  10.952
 2941SOL    HW2 9390   0.100   4.558  10.885
 2942SOL     OW 9391   0.809   3.728   9.812
 2942SOL    HW1 9392   0.849   3.819   9.803
 2942SOL    HW2 9393   0.709   3.736   9.818
 2943SOL     OW 9394   0.317   3.975  11.111
 2943SOL    HW1 9395   0.388   4.046  11.117
 2943SOL    HW2 9396   0.229   4.014  11.139
 2944SOL     OW 9397   1.281   4.069  10.254
 2944SOL    HW1 9398   1.195   4.019  10.241
 2944SOL    HW2 9399   1.343   4.015  10.310
 2945SOL     OW 9400   0.807   4.329  10.775
 2945SOL    HW1 9401   0.760   4.326  10.864
 2945SOL    HW2 9402   0.756   4.274  10.709
 2946SOL     OW 9403   0.991   4.134  10.552
 2946SOL    HW1 9404   0.914   4.168  10.606
 2946SOL    HW2 9405   0.957   4.083  10.473
 2947SOL     OW 9406   1.041   4.425   9.739
 2947SOL    HW1 9407   1.067   4.421   9.835
 2947SOL    HW2 9408   0.956   4.374   9.725
 2948SOL     OW 9409   0.076   4.535  10.099
 2948SOL    HW1 9410   0.175   4.523  10.108
 2948SOL    HW2 9411   0.052   4.630  10.120
 2949SOL     OW 9412   0.865   4.072   9.505
 2949SOL    HW1 9413   0.924   4.135   9.456
 2949SOL    HW2 9414   0.884   3.978   9.476
 2950SOL     OW 9415   0.550   3.920  10.195
 2950SOL    HW1 9416   0.545   3.915  10.295
 2950SOL    HW2 9417   0.552   4.016  10.166
 2951SOL     OW 9418   1.458   4.459  10.038
 2951SOL    HW1 9419   1.453   4.394  10.113
 2951SOL    HW2 9420   1.538   4.518  10.051
 2952SOL     OW 9421   0.202   4.009  10.808
 2952SOL    HW1 9422   0.122   4.069  10.795
 2952SOL    HW2 9423   0.192   3.960  10.894
 2953SOL     OW 9424   1.400   3.831   9.736
 2953SOL    HW1 9425   1.376   3.794   9.646
 2953SOL    HW2 9426   1.499   3.847   9.740
 2954SOL     OW 9427   0.382   4.424   9.790
 2954SOL    HW1 9428   0.427   4.334   9.787
 2954SOL    HW2 9429   0.288   4.413   9.823
 2955SOL     OW 9430   0.614   3.846   9.427
 2955SOL    HW1 9431   0.712   3.824   9.434
 2955SOL    HW2 9432   0.583   3.829   9.334
 2956SOL     OW 9433   0.781   3.988  11.059
 2956SOL    HW1 9434   0.848   3.927  11.102
 2956SOL    HW2 9435   0.708   4.007  11.124
 2957SOL     OW 9436   1.351   4.314  10.743
 2957SOL    HW1 9437   1.379   4.271  10.828
 2957SOL    HW2 9438   1.376   4.410  10.744
 2958SOL     OW 9439   0.922   4.227  10.209
 2958SOL    HW1 9440   0.897   4.218  10.113
 2958SOL    HW2 9441   0.970   4.145  10.240
 2959SOL     OW 9442   0.539   3.788   9.822
 2959SOL    HW1 9443   0.458   3.789   9.880
 2959SOL    HW2 9444   0.542   3.871   9.767
 2960SOL     OW 9445   0.297   3.759   9.481
 2960SOL    HW1 9446   0.346   3.843   9.460
 2960SOL    HW2 9447   0.359   3.694   9.526
 2961SOL     OW 9448   0.935   3.960   9.790
 2961SOL    HW1 9449   0.887   4.001   9.712
 2961SOL    HW2 9450   1.034   3.958   9.771
 2962SOL     OW 9451   1.076   4.407  10.774
 2962SOL    HW1 9452   0.996   4.346  10.777
 2962SOL    HW2 9453   1.157   4.354  10.750
 2963SOL     OW 9454   1.032   4.273   9.326
 2963SOL    HW1 9455   0.991   4.355   9.287
 2963SOL    HW2 9456   1.096   4.299   9.399
 2964SOL     OW 9457   0.078   4.280  10.696
 2964SOL    HW1 9458   0.170   4.279  10.655
 2964SOL    HW2 9459   0.072   4.354  10.763
 2965SOL     OW 9460   0.561   3.946  10.457
 2965SOL    HW1 9461   0.599   3.862  10.494
 2965SOL    HW2 9462   0.473   3.965  10.501
 2966SOL     OW 9463   0.866   4.178   9.952
 2966SOL    HW1 9464   0.834   4.250   9.890
 2966SOL    HW2 9465   0.890   4.097   9.899
 2967SOL     OW 9466   1.017   3.763  10.063
 2967SOL    HW1 9467   0.945   3.768   9.994
 2967SOL    HW2 9468   0.993   3.694  10.132
 2968SOL     OW 9469   1.466   4.314  10.302
 2968SOL    HW1 9470   1.436   4.219  10.309
 2968SOL    HW2 9471   1.539   4.330  10.368
 2969SOL     OW 9472   1.390   4.299   9.388
 2969SOL    HW1 9473   1.336   4.278   9.469
 2969SOL    HW2 9474   1.481   4.258   9.397
 2970SOL     OW 9475   0.527   3.980   9.638
 2970SOL    HW1 9476   0.554   3.921   9.563
 2970SOL    HW2 9477   0.527   4.075   9.607
 2971SOL     OW 9478   0.915   3.813  10.712
 2971SOL    HW1 9479   0.940   3.793  10.617
 2971SOL    HW2 9480   0.987   3.869  10.754
 2972SOL     OW 9481   0.410   4.537  10.561
 2972SOL    HW1 9482   0.496   4.549  10.611
 2972SOL    HW2 9483   0.368   4.450  10.588
 2973SOL     OW 9484   1.274   4.110  10.572
 2973SOL    HW1 9485   1.295   4.184  10.636
 2973SOL    HW2 9486   1.185   4.127  10.529
 2974SOL     OW 9487   0.566   4.261  10.175
 2974SOL    HW1 9488   0.578   4.327  10.101
 2974SOL    HW2 9489   0.612   4.295  10.258
 2975SOL     OW 9490   1.582   4.363   9.782
 2975SOL    HW1 9491   1.551   4.424   9.855
 2975SOL    HW2 9492   1.632   4.415   9.713
 2976SOL     OW 9493   0.402   4.475  10.908
 2976SOL    HW1 9494   0.470   4.530  10.861
 2976SOL    HW2 9495   0.442   4.387  10.935
 2977SOL     OW 9496   1.209   4.249   9.585
 2977SOL    HW1 9497   1.222   4.165   9.639
 2977SOL    HW2 9498   1.180   4.323   9.645
 2978SOL     OW 9499   0.307   3.937  10.541
 2978SOL    HW1 9500   0.284   3.974  10.631
 2978SOL    HW2 9501   0.277   3.842  10.535
 2979SOL     OW 9502   0.732   4.358  10.374
 2979SOL    HW1 9503   0.791   4.332  10.298
 2979SOL    HW2 9504   0.704   4.454  10.363
 2980SOL     OW 9505   0.307   3.787   9.928
 2980SOL    HW1 9506   0.296   3.881   9.961
 2980SOL    HW2 9507   0.302   3.724  10.005
 2981SOL     OW 9508   1.622   4.091   9.684
 2981SOL    HW1 9509   1.624   4.015   9.748
 2981SOL    HW2 9510   1.574   4.168   9.724
 2982SOL     OW 9511   1.540   3.998   9.435
 2982SOL    HW1 9512   1.479   3.923   9.458
 2982SOL    HW2 9513   1.562   4.050   9.518
 2983SOL     OW 9514   0.319   4.534  10.259
 2983SOL    HW1 9515   0.412   4.570  10.264
 2983SOL    HW2 9516   0.313   4.449  10.311
 2984SOL     OW 9517   0.339   4.233  10.316
 2984SOL    HW1 9518   0.287   4.150  10.299
 2984SOL    HW2 9519   0.416   4.238  10.252
 2985SOL     OW 9520   1.160   3.931  10.787
 2985SOL    HW1 9521   1.160   3.995  10.864
 2985SOL    HW2 9522   1.188   3.979  10.704
 2986SOL     OW 9523   0.040   4.268  10.424
 2986SOL    HW1 9524   0.125   4.235  10.383
 2986SOL    HW2 9525   0.053   4.283  10.522
 2987SOL     OW 9526   1.369   4.674  10.970
 2987SOL    HW1 9527   1.408   4.763  10.990
 2987SOL    HW2 9528   1.379   4.654  10.873
 2988SOL     OW 9529   0.815   4.296   9.635
 2988SOL    HW1 9530   0.822   4.207   9.589
 2988SOL    HW2 9531   0.721   4.330   9.627
 2989SOL     OW 9532   1.657   4.328  10.516
 2989SOL    HW1 9533   1.619   4.259  10.578
 2989SOL    HW2 9534   1.739   4.292  10.472
 2990SOL     OW 9535   0.671   4.188  10.579
 2990SOL    HW1 9536   0.637   4.099  10.549
 2990SOL    HW2 9537   0.697   4.242  10.499
 2991SOL     OW 9538   0.473   4.224   9.501
 2991SOL    HW1 9539   0.534   4.304   9.505
 2991SOL    HW2 9540   0.378   4.255   9.508
 2992SOL     OW 9541   1.726   3.859   9.833
 2992SOL    HW1 9542   1.799   3.842   9.766
 2992SOL    HW2 9543   1.695   3.772   9.871
 2993SOL     OW 9544   1.280   4.651   9.982
 2993SOL    HW1 9545   1.340   4.570   9.984
 2993SOL    HW2 9546   1.320   4.720   9.922
 2994SOL     OW 9547   1.841   3.899  10.273
 2994SOL    HW1 9548   1.880   3.814  10.237
 2994SOL    HW2 9549   1.743   3.901  10.254
 2995SOL     OW 9550   0.263   4.050  10.030
 2995SOL    HW1 9551   0.184   4.101   9.996
 2995SOL    HW2 9552   0.254   4.035  10.128
 2996SOL     OW 9553   0.916   4.634   9.601
 2996SOL    HW1 9554   0.979   4.672   9.533
 2996SOL    HW2 9555   0.956   4.551   9.640
 2997SOL     OW 9556   1.039   4.822  10.006
 2997SOL    HW1 9557   0.969   4.775  10.060
 2997SOL    HW2 9558   1.098   4.754   9.963
 2998SOL     OW 9559   1.014   3.960  10.281
 2998SOL    HW1 9560   1.006   3.924  10.188
 2998SOL    HW2 9561   1.012   3.884  10.346
 2999SOL     OW 9562   1.709   4.109  10.691
 2999SOL    HW1 9563   1.782   4.178  10.695
 2999SOL    HW2 9564   1.737   4.034  10.632
 3000SOL     OW 9565   0.672   3.927  10.799
 3000SOL    HW1 9566   0.762   3.911  10.759
 3000SOL    HW2 9567   0.680   3.932  10.898
 3001SOL     OW 9568   0.075   4.069   9.343
 3001SOL    HW1 9569  -0.017   4.041   9.314
 3001SOL    HW2 9570   0.106   4.146   9.287
 3002SOL     OW 9571   0.072   3.890   9.628
 3002SOL    HW1 9572   0.055   3.973   9.574
 3002SOL    HW2 9573   0.162   3.853   9.606
 3003SOL     OW 9574   0.716   4.289  11.018
 3003SOL    HW1 9575   0.735   4.354  11.092
 3003SOL    HW2 9576   0.776   4.209  11.027
 3004SOL     OW 9577   1.225   4.049   9.759
 3004SOL    HW1 9578   1.290   3.975   9.748
 3004SOL    HW2 9579   1.245   4.099   9.843
 3005SOL     OW 9580   1.777   4.066  10.952
 3005SOL    HW1 9581   1.760   4.097  10.858
 3005SOL    HW2 9582   1.693   4.029  10.990
 3006SOL     OW 9583   1.083   4.708   9.397
 3006SOL    HW1 9584   1.060   4.761   9.315
 3006SOL    HW2 9585   1.164   4.652   9.378
 3007SOL     OW 9586   1.824   3.916  10.537
 3007SOL    HW1 9587   1.820   3.826  10.581
 3007SOL    HW2 9588   1.827   3.905  10.438
 3008SOL     OW 9589   0.428   4.148   9.830
 3008SOL    HW1 9590   0.458   4.076   9.768
 3008SOL    HW2 9591   0.389   4.108   9.913
 3009SOL     OW 9592   0.317   4.271  10.590
 3009SOL    HW1 9593   0.355   4.212  10.662
 3009SOL    HW2 9594   0.357   4.245  10.502
 3010SOL     OW 9595   1.424   3.938  10.422
 3010SOL    HW1 9596   1.476   3.873  10.477
 3010SOL    HW2 9597   1.375   4.001  10.483
 3011SOL     OW 9598   1.001   3.758  10.464
 3011SOL    HW1 9599   0.938   3.686  10.433
 3011SOL    HW2 9600   1.094   3.722  10.464
 3012SOL     OW 9601   1.352   3.776   9.478
 3012SOL    HW1 9602   1.387   3.735   9.394
 3012SOL    HW2 9603   1.262   3.738   9.498
 3013SOL     OW 9604   1.300   4.177  10.001
 3013SOL    HW1 9605   1.241   4.257  10.005
 3013SOL    HW2 9606   1.315   4.142  10.094
 3014SOL     OW 9607   1.593   3.945  10.192
 3014SOL    HW1 9608   1.509   3.944  10.246
 3014SOL    HW2 9609   1.595   4.028  10.136
 3015SOL     OW 9610   2.092   0.628   0.113
 3015SOL    HW1 9611   1.999   0.626   0.150
 3015SOL    HW2 9612   2.093   0.589   0.021
 3016SOL     OW 9613   2.087   0.275   0.996
 3016SOL    HW1 9614   2.122   0.258   1.088
 3016SOL    HW2 9615   1.999   0.230   0.984
 3017SOL     OW 9616   1.881   0.368   0.647
 3017SOL    HW1 9617   1.799   0.411   0.686
 3017SOL    HW2 9618   1.853   0.295   0.584
 3018SOL     OW 9619   2.431   1.275   1.165
 3018SOL    HW1 9620   2.338   1.268   1.128
 3018SOL    HW2 9621   2.442   1.364   1.209
 3019SOL     OW 9622   3.417   1.511   0.703
 3019SOL    HW1 9623   3.360   1.495   0.784
 3019SOL    HW2 9624   3.358   1.521   0.623
 3020SOL     OW 9625   2.997   0.703   0.717
 3020SOL    HW1 9626   3.054   0.781   0.692
 3020SOL    HW2 9627   2.937   0.729   0.793
 3021SOL     OW 9628   3.617   0.607   0.231
 3021SOL    HW1 9629   3.605   0.594   0.132
 3021SOL    HW2 9630   3.587   0.526   0.280
 3022SOL     OW 9631   2.630   1.144   1.023
 3022SOL    HW1 9632   2.552   1.161   1.083
 3022SOL    HW2 9633   2.664   1.231   0.987
 3023SOL     OW 9634   2.712   0.798   1.823
 3023SOL    HW1 9635   2.708   0.874   1.888
 3023SOL    HW2 9636   2.734   0.834   1.732
 3024SOL     OW 9637   2.547   1.012   0.665
 3024SOL    HW1 9638   2.616   0.996   0.735
 3024SOL    HW2 9639   2.474   1.069   0.703
 3025SOL     OW 9640   2.548   1.161   1.803
 3025SOL    HW1 9641   2.608   1.240   1.817
 3025SOL    HW2 9642   2.462   1.192   1.762
 3026SOL     OW 9643   2.197   1.435   1.061
 3026SOL    HW1 9644   2.119   1.404   1.008
 3026SOL    HW2 9645   2.255   1.493   1.004
 3027SOL     OW 9646   3.322   1.505   1.339
 3027SOL    HW1 9647   3.346   1.599   1.365
 3027SOL    HW2 9648   3.306   1.451   1.421
 3028SOL     OW 9649   2.300   0.392   1.499
 3028SOL    HW1 9650   2.382   0.336   1.508
 3028SOL    HW2 9651   2.219   0.334   1.503
 3029SOL     OW 9652   3.465   0.447   0.737
 3029SOL    HW1 9653   3.391   0.493   0.687
 3029SOL    HW2 9654   3.516   0.515   0.790
 3030SOL     OW 9655   2.093   1.713   0.483
 3030SOL    HW1 9656   2.127   1.790   0.537
 3030SOL    HW2 9657   2.137   1.713   0.393
 3031SOL     OW 9658   2.989   1.341   1.690
 3031SOL    HW1 9659   3.036   1.341   1.778
 3031SOL    HW2 9660   2.941   1.254   1.679
 3032SOL     OW 9661   2.092   1.434   0.538
 3032SOL    HW1 9662   2.066   1.530   0.538
 3032SOL    HW2 9663   2.021   1.380   0.583
 3033SOL     OW 9664   2.102   1.091   0.886
 3033SOL    HW1 9665   2.116   1.007   0.938
 3033SOL    HW2 9666   2.047   1.155   0.941
 3034SOL     OW 9667   2.482   1.786   1.439
 3034SOL    HW1 9668   2.390   1.769   1.474
 3034SOL    HW2 9669   2.510   1.878   1.465
 3035SOL     OW 9670   2.468   0.964   0.123
 3035SOL    HW1 9671   2.475   1.048   0.069
 3035SOL    HW2 9672   2.514   0.977   0.211
 3036SOL     OW 9673   3.456   0.114   1.480
 3036SOL    HW1 9674   3.438   0.181   1.408
 3036SOL    HW2 9675   3.453   0.160   1.569
 3037SOL     OW 9676   1.984   0.643   0.563
 3037SOL    HW1 9677   1.939   0.555   0.580
 3037SOL    HW2 9678   1.983   0.697   0.647
 3038SOL     OW 9679   3.704   1.767   0.359
 3038SOL    HW1 9680   3.758   1.738   0.439
 3038SOL    HW2 9681   3.734   1.857   0.330
 3039SOL     OW 9682   1.889   1.596   0.117
 3039SOL    HW1 9683   1.870   1.500   0.138
 3039SOL    HW2 9684   1.856   1.654   0.192
 3040SOL     OW 9685   3.551   0.922   0.612
 3040SOL    HW1 9686   3.646   0.893   0.620
 3040SOL    HW2 9687   3.543   0.987   0.537
 3041SOL     OW 9688   3.503   1.108   0.432
 3041SOL    HW1 9689   3.589   1.110   0.380
 3041SOL    HW2 9690   3.517   1.155   0.520
 3042SOL     OW 9691   1.975   0.737   1.597
 3042SOL    HW1 9692   2.063   0.724   1.642
 3042SOL    HW2 9693   1.962   0.834   1.575
 3043SOL     OW 9694   2.475   1.365   0.726
 3043SOL    HW1 9695   2.426   1.278   0.735
 3043SOL    HW2 9696   2.452   1.408   0.639
 3044SOL     OW 9697   3.155   1.228   1.423
 3044SOL    HW1 9698   3.192   1.155   1.365
 3044SOL    HW2 9699   3.207   1.233   1.508
 3045SOL     OW 9700   2.671   0.004   0.502
 3045SOL    HW1 9701   2.711   0.095   0.493
 3045SOL    HW2 9702   2.571   0.012   0.508
 3046SOL     OW 9703   2.059   0.976   1.264
 3046SOL    HW1 9704   2.148   0.931   1.250
 3046SOL    HW2 9705   1.986   0.911   1.245
 3047SOL     OW 9706   3.387   0.999   0.190
 3047SOL    HW1 9707   3.324   0.923   0.203
 3047SOL    HW2 9708   3.435   1.017   0.276
 3048SOL     OW 9709   3.049   1.792   1.616
 3048SOL    HW1 9710   3.073   1.852   1.540
 3048SOL    HW2 9711   3.056   1.697   1.586
 3049SOL     OW 9712   2.179   0.251   1.801
 3049SOL    HW1 9713   2.250   0.322   1.807
 3049SOL    HW2 9714   2.091   0.290   1.829
 3050SOL     OW 9715   3.328   1.417   0.953
 3050SOL    HW1 9716   3.269   1.423   1.033
 3050SOL    HW2 9717   3.313   1.329   0.907
 3051SOL     OW 9718   3.529   1.714   0.572
 3051SOL    HW1 9719   3.488   1.691   0.484
 3051SOL    HW2 9720   3.511   1.640   0.637
 3052SOL     OW 9721   2.460   0.729   0.270
 3052SOL    HW1 9722   2.484   0.798   0.202
 3052SOL    HW2 9723   2.382   0.762   0.324
 3053SOL     OW 9724   3.143   0.345   0.944
 3053SOL    HW1 9725   3.057   0.295   0.931
 3053SOL    HW2 9726   3.205   0.291   1.000
 3054SOL     OW 9727   3.438   1.662   0.307
 3054SOL    HW1 9728   3.527   1.708   0.310
 3054SOL    HW2 9729   3.417   1.638   0.212
 3055SOL     OW 9730   2.669   0.605   1.465
 3055SOL    HW1 9731   2.622   0.602   1.554
 3055SOL    HW2 9732   2.618   0.550   1.399
 3056SOL     OW 9733   3.256   0.469   1.674
 3056SOL    HW1 9734   3.236   0.512   1.762
 3056SOL    HW2 9735   3.334   0.407   1.683
 3057SOL     OW 9736   2.835   0.890   1.572
 3057SOL    HW1 9737   2.881   0.806   1.543
 3057SOL    HW2 9738   2.779   0.924   1.497
 3058SOL     OW 9739   2.853   0.410   1.242
 3058SOL    HW1 9740   2.776   0.444   1.296
 3058SOL    HW2 9741   2.819   0.359   1.163
 3059SOL     OW 9742   2.903   0.701   0.429
 3059SOL    HW1 9743   2.929   0.697   0.525
 3059SOL    HW2 9744   2.818   0.650   0.415
 3060SOL     OW 9745   1.938   0.811   0.789
 3060SOL    HW1 9746   2.037   0.799   0.798
 3060SOL    HW2 9747   1.914   0.906   0.810
 3061SOL     OW 9748   1.992   1.821   1.571
 3061SOL    HW1 9749   1.982   1.806   1.670
 3061SOL    HW2 9750   1.906   1.857   1.535
 3062SOL     OW 9751   2.727   0.348   0.195
 3062SOL    HW1 9752   2.786   0.411   0.146
 3062SOL    HW2 9753   2.746   0.254   0.166
 3063SOL     OW 9754   3.581   0.585   1.831
 3063SOL    HW1 9755   3.555   0.674   1.795
 3063SOL    HW2 9756   3.579   0.517   1.758
 3064SOL     OW 9757   3.224   1.144   0.545
 3064SOL    HW1 9758   3.307   1.115   0.497
 3064SOL    HW2 9759   3.175   1.211   0.489
 3065SOL     OW 9760   2.412   0.196   0.885
 3065SOL    HW1 9761   2.407   0.191   0.985
 3065SOL    HW2 9762   2.414   0.292   0.856
 3066SOL     OW 9763   2.870   1.456   0.477
 3066SOL    HW1 9764   2.824   1.528   0.425
 3066SOL    HW2 9765   2.866   1.476   0.575
 3067SOL     OW 9766   2.213   1.801   0.853
 3067SOL    HW1 9767   2.263   1.715   0.859
 3067SOL    HW2 9768   2.278   1.878   0.850
 3068SOL     OW 9769   3.657   1.066   0.873
 3068SOL    HW1 9770   3.595   1.051   0.797
 3068SOL    HW2 9771   3.605   1.077   0.958
 3069SOL     OW 9772   3.089   1.550   1.506
 3069SOL    HW1 9773   3.095   1.473   1.570
 3069SOL    HW2 9774   3.037   1.524   1.426
 3070SOL     OW 9775   2.183   0.943   0.242
 3070SOL    HW1 9776   2.265   0.982   0.200
 3070SOL    HW2 9777   2.156   0.861   0.193
 3071SOL     OW 9778   3.320   0.735   0.728
 3071SOL    HW1 9779   3.315   0.670   0.803
 3071SOL    HW2 9780   3.400   0.794   0.741
 3072SOL     OW 9781   2.323   1.266   1.727
 3072SOL    HW1 9782   2.273   1.267   1.641
 3072SOL    HW2 9783   2.260   1.248   1.803
 3073SOL     OW 9784   2.973   1.776   0.237
 3073SOL    HW1 9785   2.913   1.714   0.287
 3073SOL    HW2 9786   3.004   1.732   0.152
 3074SOL     OW 9787   2.064   0.285   1.498
 3074SOL    HW1 9788   1.984   0.345   1.485
 3074SOL    HW2 9789   2.054   0.236   1.584
 3075SOL     OW 9790   3.494   1.377   0.081
 3075SOL    HW1 9791   3.462   1.471   0.071
 3075SOL    HW2 9792   3.418   1.314   0.069
 3076SOL     OW 9793   2.326   1.743   0.323
 3076SOL    HW1 9794   2.359   1.782   0.409
 3076SOL    HW2 9795   2.402   1.736   0.258
 3077SOL     OW 9796   3.262   0.107   0.426
 3077SOL    HW1 9797   3.238   0.070   0.336
 3077SOL    HW2 9798   3.361   0.123   0.430
 3078SOL     OW 9799   2.111   1.785   1.241
 3078SOL    HW1 9800   2.168   1.720   1.291
 3078SOL    HW2 9801   2.095   1.752   1.148
 3079SOL     OW 9802   2.802   1.698   0.904
 3079SOL    HW1 9803   2.882   1.641   0.925
 3079SOL    HW2 9804   2.753   1.658   0.827
 3080SOL     OW 9805   2.244   0.700   0.480
 3080SOL    HW1 9806   2.289   0.610   0.477
 3080SOL    HW2 9807   2.150   0.689   0.513
 3081SOL     OW 9808   3.409   0.222   1.729
 3081SOL    HW1 9809   3.404   0.259   1.821
 3081SOL    HW2 9810   3.337   0.153   1.717
 3082SOL     OW 9811   2.476   0.122   0.117
 3082SOL    HW1 9812   2.574   0.100   0.124
 3082SOL    HW2 9813   2.445   0.105   0.024
 3083SOL     OW 9814   2.643   0.264   1.749
 3083SOL    HW1 9815   2.710   0.203   1.792
 3083SOL    HW2 9816   2.570   0.283   1.814
 3084SOL     OW 9817   2.750   1.514   1.195
 3084SOL    HW1 9818   2.727   1.489   1.101
 3084SOL    HW2 9819   2.811   1.445   1.234
 3085SOL     OW 9820   3.213   0.590   1.433
 3085SOL    HW1 9821   3.241   0.547   1.518
 3085SOL    HW2 9822   3.238   0.686   1.434
 3086SOL     OW 9823   2.665   1.402   0.924
 3086SOL    HW1 9824   2.755   1.416   0.882
 3086SOL    HW2 9825   2.594   1.404   0.853
 3087SOL     OW 9826   2.784   0.503   0.899
 3087SOL    HW1 9827   2.759   0.494   0.803
 3087SOL    HW2 9828   2.832   0.421   0.930
 3088SOL     OW 9829   2.401   0.064   0.512
 3088SOL    HW1 9830   2.320   0.065   0.570
 3088SOL    HW2 9831   2.404   0.147   0.457
 3089SOL     OW 9832   3.296   1.188   0.041
 3089SOL    HW1 9833   3.328   1.112   0.098
 3089SOL    HW2 9834   3.204   1.215   0.071
 3090SOL     OW 9835   2.159   0.035   0.171
 3090SOL    HW1 9836   2.208   0.119   0.150
 3090SOL    HW2 9837   2.221  -0.030   0.216
 3091SOL     OW 9838   2.797   0.236   0.480
 3091SOL    HW1 9839   2.749   0.277   0.402
 3091SOL    HW2 9840   2.896   0.234   0.461
 3092SOL     OW 9841   2.938   0.683   1.464
 3092SOL    HW1 9842   2.858   0.622   1.467
 3092SOL    HW2 9843   3.019   0.630   1.440
 3093SOL     OW 9844   3.089   1.570   0.793
 3093SOL    HW1 9845   3.110   1.644   0.728
 3093SOL    HW2 9846   3.157   1.570   0.866
 3094SOL     OW 9847   2.321   1.152   0.741
 3094SOL    HW1 9848   2.250   1.125   0.806
 3094SOL    HW2 9849   2.295   1.124   0.648
 3095SOL     OW 9850   3.133   1.797   0.591
 3095SOL    HW1 9851   3.177   1.861   0.527
 3095SOL    HW2 9852   3.083   1.849   0.661
 3096SOL     OW 9853   2.894   0.549   0.016
 3096SOL    HW1 9854   2.853   0.631  -0.023
 3096SOL    HW2 9855   2.958   0.575   0.089
 3097SOL     OW 9856   1.940   0.556   1.386
 3097SOL    HW1 9857   2.032   0.555   1.345
 3097SOL    HW2 9858   1.934   0.630   1.453
 3098SOL     OW 9859   2.423   0.222   1.147
 3098SOL    HW1 9860   2.461   0.138   1.184
 3098SOL    HW2 9861   2.335   0.241   1.191
 3099SOL     OW 9862   2.728   0.454   0.642
 3099SOL    HW1 9863   2.696   0.526   0.580
 3099SOL    HW2 9864   2.752   0.373   0.589
 3100SOL     OW 9865   2.879   0.039   0.753
 3100SOL    HW1 9866   2.807   0.044   0.684
 3100SOL    HW2 9867   2.855  -0.030   0.822
 3101SOL     OW 9868   3.291   1.173   0.867
 3101SOL    HW1 9869   3.236   1.089   0.860
 3101SOL    HW2 9870   3.317   1.202   0.775
 3102SOL     OW 9871   3.328   0.590   0.992
 3102SOL    HW1 9872   3.298   0.495   0.999
 3102SOL    HW2 9873   3.401   0.606   1.058
 3103SOL     OW 9874   3.719   0.833   0.377
 3103SOL    HW1 9875   3.761   0.769   0.441
 3103SOL    HW2 9876   3.681   0.782   0.299
 3104SOL     OW 9877   2.350   1.385   0.174
 3104SOL    HW1 9878   2.263   1.370   0.221
 3104SOL    HW2 9879   2.333   1.411   0.079
 3105SOL     OW 9880   3.526   1.280   0.657
 3105SOL    HW1 9881   3.625   1.288   0.671
 3105SOL    HW2 9882   3.481   1.364   0.688
 3106SOL     OW 9883   3.252   0.575   0.078
 3106SOL    HW1 9884   3.198   0.554   0.159
 3106SOL    HW2 9885   3.343   0.534   0.087
 3107SOL     OW 9886   2.389   0.256   0.328
 3107SOL    HW1 9887   2.416   0.197   0.253
 3107SOL    HW2 9888   2.389   0.351   0.297
 3108SOL     OW 9889   3.616   1.223   1.588
 3108SOL    HW1 9890   3.707   1.184   1.575
 3108SOL    HW2 9891   3.624   1.319   1.612
 3109SOL     OW 9892   2.926   1.347   1.340
 3109SOL    HW1 9893   2.846   1.324   1.395
 3109SOL    HW2 9894   3.009   1.321   1.389
 3110SOL     OW 9895   3.454   1.629   1.625
 3110SOL    HW1 9896   3.481   1.663   1.535
 3110SOL    HW2 9897   3.533   1.591   1.671
 3111SOL     OW 9898   2.973   1.195   1.100
 3111SOL    HW1 9899   2.933   1.239   1.181
 3111SOL    HW2 9900   2.932   1.232   1.017
 3112SOL     OW 9901   3.500   1.099   1.079
 3112SOL    HW1 9902   3.505   1.180   1.138
 3112SOL    HW2 9903   3.414   1.101   1.028
 3113SOL     OW 9904   2.777   0.089   1.402
 3113SOL    HW1 9905   2.802   0.069   1.307
 3113SOL    HW2 9906   2.849   0.145   1.444
 3114SOL     OW 9907   2.842   1.116   1.719
 3114SOL    HW1 9908   2.743   1.122   1.729
 3114SOL    HW2 9909   2.865   1.036   1.663
 3115SOL     OW 9910   2.567   1.050   0.368
 3115SOL    HW1 9911   2.553   1.057   0.467
 3115SOL    HW2 9912   2.651   0.999   0.350
 3116SOL     OW 9913   2.272   0.813   1.251
 3116SOL    HW1 9914   2.358   0.825   1.301
 3116SOL    HW2 9915   2.230   0.726   1.278
 3117SOL     OW 9916   3.136   0.386   1.262
 3117SOL    HW1 9917   3.157   0.460   1.326
 3117SOL    HW2 9918   3.047   0.403   1.219
 3118SOL     OW 9919   1.926   1.564   1.331
 3118SOL    HW1 9920   1.880   1.646   1.297
 3118SOL    HW2 9921   2.024   1.583   1.340
 3119SOL     OW 9922   2.229   1.100   0.501
 3119SOL    HW1 9923   2.222   1.183   0.445
 3119SOL    HW2 9924   2.233   1.020   0.441
 3120SOL     OW 9925   2.428   0.537   0.865
 3120SOL    HW1 9926   2.440   0.603   0.791
 3120SOL    HW2 9927   2.474   0.571   0.948
 3121SOL     OW 9928   3.114   1.348   0.388
 3121SOL    HW1 9929   3.164   1.425   0.428
 3121SOL    HW2 9930   3.019   1.350   0.420
 3122SOL     OW 9931   3.134   1.445   1.142
 3122SOL    HW1 9932   3.181   1.458   1.229
 3122SOL    HW2 9933   3.068   1.371   1.151
 3123SOL     OW 9934   3.444   0.639   0.472
 3123SOL    HW1 9935   3.413   0.700   0.545
 3123SOL    HW2 9936   3.494   0.691   0.403
 3124SOL     OW 9937   2.216   1.510   1.329
 3124SOL    HW1 9938   2.195   1.466   1.242
 3124SOL    HW2 9939   2.313   1.536   1.332
 3125SOL     OW 9940   2.264   0.751   1.598
 3125SOL    HW1 9941   2.332   0.806   1.551
 3125SOL    HW2 9942   2.304   0.663   1.625
 3126SOL     OW 9943   3.449   0.779   1.670
 3126SOL    HW1 9944   3.357   0.817   1.665
 3126SOL    HW2 9945   3.509   0.826   1.605
 3127SOL     OW 9946   2.875   0.105   1.770
 3127SOL    HW1 9947   2.881   0.190   1.718
 3127SOL    HW2 9948   2.907   0.029   1.713
 3128SOL     OW 9949   2.366   0.050   1.740
 3128SOL    HW1 9950   2.324  -0.007   1.670
 3128SOL    HW2 9951   2.300   0.119   1.772
 3129SOL     OW 9952   2.435   0.870   1.029
 3129SOL    HW1 9953   2.479   0.959   1.020
 3129SOL    HW2 9954   2.372   0.870   1.106
 3130SOL     OW 9955   3.222   0.862   1.045
 3130SOL    HW1 9956   3.147   0.862   0.979
 3130SOL    HW2 9957   3.259   0.770   1.054
 3131SOL     OW 9958   3.071   0.525   0.275
 3131SOL    HW1 9959   3.084   0.441   0.329
 3131SOL    HW2 9960   3.042   0.599   0.335
 3132SOL     OW 9961   2.169   0.213   1.231
 3132SOL    HW1 9962   2.146   0.250   1.321
 3132SOL    HW2 9963   2.139   0.118   1.225
 3133SOL     OW 9964   1.899   1.310   1.282
 3133SOL    HW1 9965   1.952   1.261   1.350
 3133SOL    HW2 9966   1.921   1.408   1.287
 3134SOL     OW 9967   2.594   0.634   1.064
 3134SOL    HW1 9968   2.653   0.608   0.988
 3134SOL    HW2 9969   2.566   0.730   1.053
 3135SOL     OW 9970   3.590   0.935   1.854
 3135SOL    HW1 9971   3.544   0.928   1.765
 3135SOL    HW2 9972   3.528   0.979   1.920
 3136SOL     OW 9973   2.169   0.063   0.618
 3136SOL    HW1 9974   2.158   0.157   0.651
 3136SOL    HW2 9975   2.164   0.000   0.695
 3137SOL     OW 9976   3.484   0.367   0.374
 3137SOL    HW1 9977   3.486   0.291   0.438
 3137SOL    HW2 9978   3.436   0.444   0.414
 3138SOL     OW 9979   2.885   0.766   0.966
 3138SOL    HW1 9980   2.900   0.787   1.062
 3138SOL    HW2 9981   2.855   0.671   0.957
 3139SOL     OW 9982   2.842   1.573   1.700
 3139SOL    HW1 9983   2.822   1.617   1.612
 3139SOL    HW2 9984   2.881   1.482   1.684
 3140SOL     OW 9985   3.721   1.518   1.605
 3140SOL    HW1 9986   3.735   1.545   1.510
 3140SOL    HW2 9987   3.804   1.540   1.658
 3141SOL     OW 9988   2.212   0.898   1.804
 3141SOL    HW1 9989   2.288   0.942   1.852
 3141SOL    HW2 9990   2.247   0.851   1.722
 3142SOL     OW 9991   3.402   0.274   0.125
 3142SOL    HW1 9992   3.341   0.199   0.148
 3142SOL    HW2 9993   3.424   0.326   0.208
 3143SOL     OW 9994   3.165   0.838   0.042
 3143SOL    HW1 9995   3.199   0.745   0.057
 3143SOL    HW2 9996   3.183   0.865  -0.053
 3144SOL     OW 9997   2.930   1.333   0.849
 3144SOL    HW1 9998   2.937   1.249   0.794
 3144SOL    HW2 9999   2.992   1.402   0.813
 3145SOL     OW10000   2.181   0.810   0.949
 3145SOL    HW110001   2.274   0.846   0.954
 3145SOL    HW210002   2.175   0.725   1.001
 3146SOL     OW10003   2.201   0.509   1.006
 3146SOL    HW110004   2.149   0.426   0.989
 3146SOL    HW210005   2.278   0.514   0.942
 3147SOL     OW10006   3.000   0.380   1.678
 3147SOL    HW110007   2.955   0.443   1.742
 3147SOL    HW210008   3.093   0.411   1.661
 3148SOL     OW10009   3.022   0.207   1.477
 3148SOL    HW110010   3.022   0.271   1.554
 3148SOL    HW210011   3.050   0.255   1.394
 3149SOL     OW10012   1.870   1.326   0.200
 3149SOL    HW110013   1.777   1.347   0.169
 3149SOL    HW210014   1.880   1.227   0.213
 3150SOL     OW10015   1.950   1.801   0.927
 3150SOL    HW110016   1.908   1.715   0.900
 3150SOL    HW210017   2.044   1.804   0.893
 3151SOL     OW10018   2.366   1.568   0.910
 3151SOL    HW110019   2.432   1.642   0.919
 3151SOL    HW210020   2.410   1.489   0.868
 3152SOL     OW10021   2.864   0.796   1.238
 3152SOL    HW110022   2.905   0.764   1.324
 3152SOL    HW210023   2.768   0.769   1.235
 3153SOL     OW10024   1.902   0.544   1.114
 3153SOL    HW110025   1.987   0.511   1.073
 3153SOL    HW210026   1.915   0.559   1.212
 3154SOL     OW10027   2.051   0.520   1.722
 3154SOL    HW110028   2.110   0.480   1.652
 3154SOL    HW210029   1.993   0.591   1.681
 3155SOL     OW10030   3.231   0.950   1.660
 3155SOL    HW110031   3.270   1.039   1.680
 3155SOL    HW210032   3.241   0.930   1.563
 3156SOL     OW10033   2.677   0.572   0.325
 3156SOL    HW110034   2.684   0.483   0.279
 3156SOL    HW210035   2.583   0.606   0.317
 3157SOL     OW10036   3.519   0.604   1.206
 3157SOL    HW110037   3.481   0.535   1.268
 3157SOL    HW210038   3.601   0.568   1.162
 3158SOL     OW10039   2.114   1.564   1.744
 3158SOL    HW110040   2.084   1.621   1.820
 3158SOL    HW210041   2.107   1.467   1.770
 3159SOL     OW10042   2.533   0.464   1.269
 3159SOL    HW110043   2.499   0.375   1.239
 3159SOL    HW210044   2.559   0.518   1.189
 3160SOL     OW10045   2.792   1.678   1.465
 3160SOL    HW110046   2.768   1.660   1.370
 3160SOL    HW210047   2.822   1.772   1.475
 3161SOL     OW10048   2.335   0.500   0.191
 3161SOL    HW110049   2.396   0.580   0.195
 3161SOL    HW210050   2.240   0.531   0.198
 3162SOL     OW10051   2.021   1.137   1.466
 3162SOL    HW110052   2.043   1.076   1.542
 3162SOL    HW210053   2.031   1.088   1.380
 3163SOL     OW10054   3.209   1.059   1.234
 3163SOL    HW110055   3.233   0.996   1.160
 3163SOL    HW210056   3.119   1.099   1.216
 3164SOL     OW10057   3.164   0.855   0.309
 3164SOL    HW110058   3.078   0.824   0.351
 3164SOL    HW210059   3.160   0.841   0.210
 3165SOL     OW10060   3.621   1.747   1.154
 3165SOL    HW110061   3.682   1.777   1.081
 3165SOL    HW210062   3.583   1.658   1.132
 3166SOL     OW10063   3.114   1.731   1.128
 3166SOL    HW110064   3.198   1.736   1.074
 3166SOL    HW210065   3.091   1.635   1.146
 3167SOL     OW10066   1.945   1.258   1.022
 3167SOL    HW110067   1.940   1.257   1.122
 3167SOL    HW210068   1.862   1.217   0.984
 3168SOL     OW10069   2.550   1.662   1.716
 3168SOL    HW110070   2.494   1.743   1.725
 3168SOL    HW210071   2.602   1.666   1.630
 3169SOL     OW10072   2.765   0.086   0.133
 3169SOL    HW110073   2.816   0.087   0.047
 3169SOL    HW210074   2.821   0.044   0.204
 3170SOL     OW10075   3.588   0.135   0.523
 3170SOL    HW110076   3.661   0.118   0.456
 3170SOL    HW210077   3.557   0.048   0.561
 3171SOL     OW10078   3.250   1.573   0.477
 3171SOL    HW110079   3.317   1.585   0.403
 3171SOL    HW210080   3.210   1.662   0.500
 3172SOL     OW10081   1.992   1.794   1.851
 3172SOL    HW110082   1.951   1.720   1.904
 3172SOL    HW210083   2.056   1.845   1.909
 3173SOL     OW10084   3.142   0.927   0.672
 3173SOL    HW110085   3.202   0.846   0.674
 3173SOL    HW210086   3.182   0.996   0.612
 3174SOL     OW10087   2.692   1.273   1.422
 3174SOL    HW110088   2.687   1.306   1.517
 3174SOL    HW210089   2.606   1.292   1.376
 3175SOL     OW10090   2.534   1.616   0.154
 3175SOL    HW110091   2.543   1.626   0.055
 3175SOL    HW210092   2.494   1.527   0.175
 3176SOL     OW10093   3.512   1.720   1.394
 3176SOL    HW110094   3.565   1.730   1.310
 3176SOL    HW210095   3.485   1.810   1.428
 3177SOL     OW10096   3.703   0.175   0.963
 3177SOL    HW110097   3.742   0.090   0.927
 3177SOL    HW210098   3.605   0.177   0.944
 3178SOL     OW10099   2.125   0.326   0.720
 3178SOL    HW110100   2.046   0.377   0.686
 3178SOL    HW210101   2.116   0.311   0.818
 3179SOL     OW10102   3.056   1.612   0.031
 3179SOL    HW110103   3.062   1.519   0.068
 3179SOL    HW210104   2.997   1.612  -0.049
 3180SOL     OW10105   2.684   1.002   1.372
 3180SOL    HW110106   2.724   1.001   1.280
 3180SOL    HW210107   2.694   1.094   1.412
 3181SOL     OW10108   2.778   0.910   0.291
 3181SOL    HW110109   2.841   0.948   0.223
 3181SOL    HW210110   2.818   0.827   0.330
 3182SOL     OW10111   3.366   1.607   0.044
 3182SOL    HW110112   3.274   1.644   0.051
 3182SOL    HW210113   3.404   1.627  -0.046
 3183SOL     OW10114   2.234   1.288   1.490
 3183SOL    HW110115   2.221   1.381   1.456
 3183SOL    HW210116   2.150   1.236   1.477
 3184SOL     OW10117   3.476   1.292   1.289
 3184SOL    HW110118   3.536   1.295   1.369
 3184SOL    HW210119   3.401   1.356   1.302
 3185SOL     OW10120   2.901   1.098   0.696
 3185SOL    HW110121   2.831   1.051   0.750
 3185SOL    HW210122   2.960   1.030   0.653
 3186SOL     OW10123   2.876   0.236   0.971
 3186SOL    HW110124   2.868   0.200   0.878
 3186SOL    HW210125   2.874   0.160   1.036
 3187SOL     OW10126   2.452   1.487   0.491
 3187SOL    HW110127   2.494   1.429   0.421
 3187SOL    HW210128   2.408   1.566   0.447
 3188SOL     OW10129   3.571   0.385   1.381
 3188SOL    HW110130   3.644   0.454   1.385
 3188SOL    HW210131   3.599   0.310   1.322
 3189SOL     OW10132   2.117   1.348   0.290
 3189SOL    HW110133   2.021   1.349   0.263
 3189SOL    HW210134   2.129   1.401   0.374
 3190SOL     OW10135   1.967   1.013   1.726
 3190SOL    HW110136   1.890   0.980   1.780
 3190SOL    HW210137   2.052   0.983   1.768
 3191SOL     OW10138   2.534   0.203   1.489
 3191SOL    HW110139   2.624   0.187   1.449
 3191SOL    HW210140   2.542   0.208   1.588
 3192SOL     OW10141   1.937   0.345   0.033
 3192SOL    HW110142   1.845   0.317   0.004
 3192SOL    HW210143   1.968   0.422  -0.023
 3193SOL     OW10144   3.302   0.856   1.398
 3193SOL    HW110145   3.245   0.908   1.335
 3193SOL    HW210146   3.398   0.868   1.374
 3194SOL     OW10147   1.934   0.166   0.318
 3194SOL    HW110148   1.917   0.249   0.264
 3194SOL    HW210149   2.024   0.129   0.296
 3195SOL     OW10150   3.045   1.335   0.119
 3195SOL    HW110151   2.946   1.324   0.121
 3195SOL    HW210152   3.079   1.350   0.212
 3196SOL     OW10153   2.475   0.842   1.431
 3196SOL    HW110154   2.531   0.923   1.414
 3196SOL    HW210155   2.534   0.762   1.434
 3197SOL     OW10156   3.355   1.767   0.959
 3197SOL    HW110157   3.388   1.831   0.890
 3197SOL    HW210158   3.421   1.761   1.034
 3198SOL     OW10159   2.578   0.565   1.708
 3198SOL    HW110160   2.597   0.630   1.782
 3198SOL    HW210161   2.638   0.485   1.717
 3199SOL     OW10162   3.312   1.220   1.633
 3199SOL    HW110163   3.303   1.210   1.732
 3199SOL    HW210164   3.408   1.213   1.607
 3200SOL     OW10165   2.252   1.741   1.560
 3200SOL    HW110166   2.161   1.782   1.558
 3200SOL    HW210167   2.245   1.647   1.592
 3201SOL     OW10168   3.536   0.883   1.254
 3201SOL    HW110169   3.509   0.794   1.217
 3201SOL    HW210170   3.537   0.951   1.181
 3202SOL     OW10171   3.087   0.325   0.449
 3202SOL    HW110172   3.152   0.251   0.438
 3202SOL    HW210173   3.107   0.375   0.533
 3203SOL     OW10174   2.456   0.745   0.652
 3203SOL    HW110175   2.506   0.830   0.633
 3203SOL    HW210176   2.368   0.747   0.604
 3204SOL     OW10177   3.639   0.342   1.642
 3204SOL    HW110178   3.622   0.373   1.548
 3204SOL    HW210179   3.555   0.305   1.680
 3205SOL     OW10180   3.592   0.934   1.517
 3205SOL    HW110181   3.630   1.025   1.532
 3205SOL    HW210182   3.584   0.917   1.418
 3206SOL     OW10183   2.721   1.374   0.016
 3206SOL    HW110184   2.675   1.389   0.104
 3206SOL    HW210185   2.765   1.459  -0.014
 3207SOL     OW10186   2.523   1.790   0.953
 3207SOL    HW110187   2.477   1.878   0.940
 3207SOL    HW210188   2.622   1.802   0.946
 3208SOL     OW10189   2.721   0.956   0.861
 3208SOL    HW110190   2.775   0.887   0.909
 3208SOL    HW210191   2.689   1.025   0.927
 3209SOL     OW10192   2.945   0.984   0.087
 3209SOL    HW110193   2.922   1.037   0.005
 3209SOL    HW210194   3.026   0.928   0.068
 3210SOL     OW10195   3.723   1.569   0.851
 3210SOL    HW110196   3.652   1.557   0.781
 3210SOL    HW210197   3.724   1.490   0.911
 3211SOL     OW10198   2.083   1.314   1.844
 3211SOL    HW110199   2.018   1.241   1.823
 3211SOL    HW210200   2.087   1.328   1.942
 3212SOL     OW10201   1.941   1.240   0.653
 3212SOL    HW110202   1.940   1.193   0.741
 3212SOL    HW210203   2.023   1.212   0.602
 3213SOL     OW10204   2.534   1.391   1.624
 3213SOL    HW110205   2.456   1.341   1.662
 3213SOL    HW210206   2.531   1.486   1.655
 3214SOL     OW10207   3.686   0.192   1.227
 3214SOL    HW110208   3.682   0.102   1.271
 3214SOL    HW210209   3.689   0.181   1.128
 3215SOL     OW10210   2.290   0.424   0.520
 3215SOL    HW110211   2.320   0.352   0.458
 3215SOL    HW210212   2.251   0.384   0.603
 3216SOL     OW10213   3.567   1.487   1.104
 3216SOL    HW110214   3.474   1.462   1.077
 3216SOL    HW210215   3.593   1.437   1.186
 3217SOL     OW10216   2.179   0.547   1.280
 3217SOL    HW110217   2.217   0.488   1.352
 3217SOL    HW210218   2.219   0.521   1.192
 3218SOL     OW10219   2.674   1.586   0.687
 3218SOL    HW110220   2.706   1.596   0.593
 3218SOL    HW210221   2.595   1.524   0.689
 3219SOL     OW10222   3.286   0.214   1.112
 3219SOL    HW110223   3.338   0.149   1.167
 3219SOL    HW210224   3.237   0.277   1.173
 3220SOL     OW10225   2.863   0.034   1.154
 3220SOL    HW110226   2.800  -0.038   1.123
 3220SOL    HW210227   2.956  -0.002   1.154
 3221SOL     OW10228   2.632   1.330   0.301
 3221SOL    HW110229   2.586   1.243   0.318
 3221SOL    HW210230   2.723   1.327   0.342
 3222SOL     OW10231   2.480   1.567   1.284
 3222SOL    HW110232   2.475   1.649   1.341
 3222SOL    HW210233   2.569   1.564   1.239
 3223SOL     OW10234   3.214   0.052   0.168
 3223SOL    HW110235   3.249   0.011   0.084
 3223SOL    HW210236   3.124   0.014   0.188
 3224SOL     OW10237   3.162   0.453   0.691
 3224SOL    HW110238   3.103   0.533   0.695
 3224SOL    HW210239   3.177   0.418   0.784
 3225SOL     OW10240   3.455   0.221   0.882
 3225SOL    HW110241   3.371   0.220   0.936
 3225SOL    HW210242   3.457   0.304   0.826
 3226SOL     OW10243   1.901   1.077   0.300
 3226SOL    HW110244   2.000   1.066   0.291
 3226SOL    HW210245   1.861   0.991   0.332
 3227SOL     OW10246   2.737   1.646   0.337
 3227SOL    HW110247   2.660   1.611   0.283
 3227SOL    HW210248   2.705   1.717   0.399
 3228SOL     OW10249   2.092   0.628   1.975
 3228SOL    HW110250   1.999   0.626   2.012
 3228SOL    HW210251   2.093   0.589   1.883
 3229SOL     OW10252   2.087   0.275   2.858
 3229SOL    HW110253   2.122   0.258   2.950
 3229SOL    HW210254   1.999   0.230   2.846
 3230SOL     OW10255   1.881   0.368   2.509
 3230SOL    HW110256   1.799   0.411   2.548
 3230SOL    HW210257   1.853   0.295   2.446
 3231SOL     OW10258   2.431   1.275   3.027
 3231SOL    HW110259   2.338   1.268   2.990
 3231SOL    HW210260   2.442   1.364   3.071
 3232SOL     OW10261   3.417   1.511   2.565
 3232SOL    HW110262   3.360   1.495   2.646
 3232SOL    HW210263   3.358   1.521   2.485
 3233SOL     OW10264   2.997   0.703   2.579
 3233SOL    HW110265   3.054   0.781   2.554
 3233SOL    HW210266   2.937   0.729   2.655
 3234SOL     OW10267   3.617   0.607   2.093
 3234SOL    HW110268   3.605   0.594   1.994
 3234SOL    HW210269   3.587   0.526   2.142
 3235SOL     OW10270   2.630   1.144   2.885
 3235SOL    HW110271   2.552   1.161   2.945
 3235SOL    HW210272   2.664   1.231   2.849
 3236SOL     OW10273   2.712   0.798   3.685
 3236SOL    HW110274   2.708   0.874   3.750
 3236SOL    HW210275   2.734   0.834   3.594
 3237SOL     OW10276   2.547   1.012   2.527
 3237SOL    HW110277   2.616   0.996   2.597
 3237SOL    HW210278   2.474   1.069   2.565
 3238SOL     OW10279   2.548   1.161   3.665
 3238SOL    HW110280   2.608   1.240   3.679
 3238SOL    HW210281   2.462   1.192   3.624
 3239SOL     OW10282   2.197   1.435   2.923
 3239SOL    HW110283   2.119   1.404   2.870
 3239SOL    HW210284   2.255   1.493   2.866
 3240SOL     OW10285   3.322   1.505   3.201
 3240SOL    HW110286   3.346   1.599   3.227
 3240SOL    HW210287   3.306   1.451   3.283
 3241SOL     OW10288   2.300   0.392   3.361
 3241SOL    HW110289   2.382   0.336   3.370
 3241SOL    HW210290   2.219   0.334   3.365
 3242SOL     OW10291   3.465   0.447   2.599
 3242SOL    HW110292   3.391   0.493   2.549
 3242SOL    HW210293   3.516   0.515   2.652
 3243SOL     OW10294   2.093   1.713   2.345
 3243SOL    HW110295   2.127   1.790   2.399
 3243SOL    HW210296   2.137   1.713   2.255
 3244SOL     OW10297   2.989   1.341   3.552
 3244SOL    HW110298   3.036   1.341   3.640
 3244SOL    HW210299   2.941   1.254   3.541
 3245SOL     OW10300   2.092   1.434   2.400
 3245SOL    HW110301   2.066   1.530   2.400
 3245SOL    HW210302   2.021   1.380   2.445
 3246SOL     OW10303   2.102   1.091   2.748
 3246SOL    HW110304   2.116   1.007   2.800
 3246SOL    HW210305   2.047   1.155   2.803
 3247SOL     OW10306   2.482   1.786   3.301
 3247SOL    HW110307   2.390   1.769   3.336
 3247SOL    HW210308   2.510   1.878   3.327
 3248SOL     OW10309   2.468   0.964   1.985
 3248SOL    HW110310   2.475   1.048   1.931
 3248SOL    HW210311   2.514   0.977   2.073
 3249SOL     OW10312   3.456   0.114   3.342
 3249SOL    HW110313   3.438   0.181   3.270
 3249SOL    HW210314   3.453   0.160   3.431
 3250SOL     OW10315   1.984   0.643   2.425
 3250SOL    HW110316   1.939   0.555   2.442
 3250SOL    HW210317   1.983   0.697   2.509
 3251SOL     OW10318   3.704   1.767   2.221
 3251SOL    HW110319   3.758   1.738   2.301
 3251SOL    HW210320   3.734   1.857   2.192
 3252SOL     OW10321   1.889   1.596   1.979
 3252SOL    HW110322   1.870   1.500   2.000
 3252SOL    HW210323   1.856   1.654   2.054
 3253SOL     OW10324   3.551   0.922   2.474
 3253SOL    HW110325   3.646   0.893   2.482
 3253SOL    HW210326   3.543   0.987   2.399
 3254SOL     OW10327   3.503   1.108   2.294
 3254SOL    HW110328   3.589   1.110   2.242
 3254SOL    HW210329   3.517   1.155   2.382
 3255SOL     OW10330   1.975   0.737   3.459
 3255SOL    HW110331   2.063   0.724   3.504
 3255SOL    HW210332   1.962   0.834   3.437
 3256SOL     OW10333   2.475   1.365   2.588
 3256SOL    HW110334   2.426   1.278   2.597
 3256SOL    HW210335   2.452   1.408   2.501
 3257SOL     OW10336   3.155   1.228   3.285
 3257SOL    HW110337   3.192   1.155   3.227
 3257SOL    HW210338   3.207   1.233   3.370
 3258SOL     OW10339   2.671   0.004   2.364
 3258SOL    HW110340   2.711   0.095   2.355
 3258SOL    HW210341   2.571   0.012   2.370
 3259SOL     OW10342   2.059   0.976   3.126
 3259SOL    HW110343   2.148   0.931   3.112
 3259SOL    HW210344   1.986   0.911   3.107
 3260SOL     OW10345   3.387   0.999   2.052
 3260SOL    HW110346   3.324   0.923   2.065
 3260SOL    HW210347   3.435   1.017   2.138
 3261SOL     OW10348   3.049   1.792   3.478
 3261SOL    HW110349   3.073   1.852   3.402
 3261SOL    HW210350   3.056   1.697   3.448
 3262SOL     OW10351   2.179   0.251   3.663
 3262SOL    HW110352   2.250   0.322   3.669
 3262SOL    HW210353   2.091   0.290   3.691
 3263SOL     OW10354   3.328   1.417   2.815
 3263SOL    HW110355   3.269   1.423   2.895
 3263SOL    HW210356   3.313   1.329   2.769
 3264SOL     OW10357   3.529   1.714   2.434
 3264SOL    HW110358   3.488   1.691   2.346
 3264SOL    HW210359   3.511   1.640   2.499
 3265SOL     OW10360   2.460   0.729   2.132
 3265SOL    HW110361   2.484   0.798   2.064
 3265SOL    HW210362   2.382   0.762   2.186
 3266SOL     OW10363   3.143   0.345   2.806
 3266SOL    HW110364   3.057   0.295   2.793
 3266SOL    HW210365   3.205   0.291   2.862
 3267SOL     OW10366   3.438   1.662   2.169
 3267SOL    HW110367   3.527   1.708   2.172
 3267SOL    HW210368   3.417   1.638   2.074
 3268SOL     OW10369   2.669   0.605   3.327
 3268SOL    HW110370   2.622   0.602   3.416
 3268SOL    HW210371   2.618   0.550   3.261
 3269SOL     OW10372   3.256   0.469   3.536
 3269SOL    HW110373   3.236   0.512   3.624
 3269SOL    HW210374   3.334   0.407   3.545
 3270SOL     OW10375   2.835   0.890   3.434
 3270SOL    HW110376   2.881   0.806   3.405
 3270SOL    HW210377   2.779   0.924   3.359
 3271SOL     OW10378   2.853   0.410   3.104
 3271SOL    HW110379   2.776   0.444   3.158
 3271SOL    HW210380   2.819   0.359   3.025
 3272SOL     OW10381   2.903   0.701   2.291
 3272SOL    HW110382   2.929   0.697   2.387
 3272SOL    HW210383   2.818   0.650   2.277
 3273SOL     OW10384   1.938   0.811   2.651
 3273SOL    HW110385   2.037   0.799   2.660
 3273SOL    HW210386   1.914   0.906   2.672
 3274SOL     OW10387   1.992   1.821   3.433
 3274SOL    HW110388   1.982   1.806   3.532
 3274SOL    HW210389   1.906   1.857   3.397
 3275SOL     OW10390   2.727   0.348   2.057
 3275SOL    HW110391   2.786   0.411   2.008
 3275SOL    HW210392   2.746   0.254   2.028
 3276SOL     OW10393   3.581   0.585   3.693
 3276SOL    HW110394   3.555   0.674   3.657
 3276SOL    HW210395   3.579   0.517   3.620
 3277SOL     OW10396   3.224   1.144   2.407
 3277SOL    HW110397   3.307   1.115   2.359
 3277SOL    HW210398   3.175   1.211   2.351
 3278SOL     OW10399   2.412   0.196   2.747
 3278SOL    HW110400   2.407   0.191   2.847
 3278SOL    HW210401   2.414   0.292   2.718
 3279SOL     OW10402   2.870   1.456   2.339
 3279SOL    HW110403   2.824   1.528   2.287
 3279SOL    HW210404   2.866   1.476   2.437
 3280SOL     OW10405   2.213   1.801   2.715
 3280SOL    HW110406   2.263   1.715   2.721
 3280SOL    HW210407   2.278   1.878   2.712
 3281SOL     OW10408   3.657   1.066   2.735
 3281SOL    HW110409   3.595   1.051   2.659
 3281SOL    HW210410   3.605   1.077   2.820
 3282SOL     OW10411   3.089   1.550   3.368
 3282SOL    HW110412   3.095   1.473   3.432
 3282SOL    HW210413   3.037   1.524   3.288
 3283SOL     OW10414   2.183   0.943   2.104
 3283SOL    HW110415   2.265   0.982   2.062
 3283SOL    HW210416   2.156   0.861   2.055
 3284SOL     OW10417   3.320   0.735   2.590
 3284SOL    HW110418   3.315   0.670   2.665
 3284SOL    HW210419   3.400   0.794   2.603
 3285SOL     OW10420   2.323   1.266   3.589
 3285SOL    HW110421   2.273   1.267   3.503
 3285SOL    HW210422   2.260   1.248   3.665
 3286SOL     OW10423   2.973   1.776   2.099
 3286SOL    HW110424   2.913   1.714   2.149
 3286SOL    HW210425   3.004   1.732   2.014
 3287SOL     OW10426   2.064   0.285   3.360
 3287SOL    HW110427   1.984   0.345   3.347
 3287SOL    HW210428   2.054   0.236   3.446
 3288SOL     OW10429   3.494   1.377   1.943
 3288SOL    HW110430   3.462   1.471   1.933
 3288SOL    HW210431   3.418   1.314   1.931
 3289SOL     OW10432   2.326   1.743   2.185
 3289SOL    HW110433   2.359   1.782   2.271
 3289SOL    HW210434   2.402   1.736   2.120
 3290SOL     OW10435   3.262   0.107   2.288
 3290SOL    HW110436   3.238   0.070   2.198
 3290SOL    HW210437   3.361   0.123   2.292
 3291SOL     OW10438   2.111   1.785   3.103
 3291SOL    HW110439   2.168   1.720   3.153
 3291SOL    HW210440   2.095   1.752   3.010
 3292SOL     OW10441   2.802   1.698   2.766
 3292SOL    HW110442   2.882   1.641   2.787
 3292SOL    HW210443   2.753   1.658   2.689
 3293SOL     OW10444   2.244   0.700   2.342
 3293SOL    HW110445   2.289   0.610   2.339
 3293SOL    HW210446   2.150   0.689   2.375
 3294SOL     OW10447   3.409   0.222   3.591
 3294SOL    HW110448   3.404   0.259   3.683
 3294SOL    HW210449   3.337   0.153   3.579
 3295SOL     OW10450   2.476   0.122   1.979
 3295SOL    HW110451   2.574   0.100   1.986
 3295SOL    HW210452   2.445   0.105   1.886
 3296SOL     OW10453   2.643   0.264   3.611
 3296SOL    HW110454   2.710   0.203   3.654
 3296SOL    HW210455   2.570   0.283   3.676
 3297SOL     OW10456   2.750   1.514   3.057
 3297SOL    HW110457   2.727   1.489   2.963
 3297SOL    HW210458   2.811   1.445   3.096
 3298SOL     OW10459   3.213   0.590   3.295
 3298SOL    HW110460   3.241   0.547   3.380
 3298SOL    HW210461   3.238   0.686   3.296
 3299SOL     OW10462   2.665   1.402   2.786
 3299SOL    HW110463   2.755   1.416   2.744
 3299SOL    HW210464   2.594   1.404   2.715
 3300SOL     OW10465   2.784   0.503   2.761
 3300SOL    HW110466   2.759   0.494   2.665
 3300SOL    HW210467   2.832   0.421   2.792
 3301SOL     OW10468   2.401   0.064   2.374
 3301SOL    HW110469   2.320   0.065   2.432
 3301SOL    HW210470   2.404   0.147   2.319
 3302SOL     OW10471   3.296   1.188   1.903
 3302SOL    HW110472   3.328   1.112   1.960
 3302SOL    HW210473   3.204   1.215   1.933
 3303SOL     OW10474   2.159   0.035   2.033
 3303SOL    HW110475   2.208   0.119   2.012
 3303SOL    HW210476   2.221  -0.030   2.078
 3304SOL     OW10477   2.797   0.236   2.342
 3304SOL    HW110478   2.749   0.277   2.264
 3304SOL    HW210479   2.896   0.234   2.323
 3305SOL     OW10480   2.938   0.683   3.326
 3305SOL    HW110481   2.858   0.622   3.329
 3305SOL    HW210482   3.019   0.630   3.302
 3306SOL     OW10483   3.089   1.570   2.655
 3306SOL    HW110484   3.110   1.644   2.590
 3306SOL    HW210485   3.157   1.570   2.728
 3307SOL     OW10486   2.321   1.152   2.603
 3307SOL    HW110487   2.250   1.125   2.668
 3307SOL    HW210488   2.295   1.124   2.510
 3308SOL     OW10489   3.133   1.797   2.453
 3308SOL    HW110490   3.177   1.861   2.389
 3308SOL    HW210491   3.083   1.849   2.523
 3309SOL     OW10492   2.894   0.549   1.878
 3309SOL    HW110493   2.853   0.631   1.839
 3309SOL    HW210494   2.958   0.575   1.951
 3310SOL     OW10495   1.940   0.556   3.248
 3310SOL    HW110496   2.032   0.555   3.207
 3310SOL    HW210497   1.934   0.630   3.315
 3311SOL     OW10498   2.423   0.222   3.009
 3311SOL    HW110499   2.461   0.138   3.046
 3311SOL    HW210500   2.335   0.241   3.053
 3312SOL     OW10501   2.728   0.454   2.504
 3312SOL    HW110502   2.696   0.526   2.442
 3312SOL    HW210503   2.752   0.373   2.451
 3313SOL     OW10504   2.879   0.039   2.615
 3313SOL    HW110505   2.807   0.044   2.546
 3313SOL    HW210506   2.855  -0.030   2.684
 3314SOL     OW10507   3.291   1.173   2.729
 3314SOL    HW110508   3.236   1.089   2.722
 3314SOL    HW210509   3.317   1.202   2.637
 3315SOL     OW10510   3.328   0.590   2.854
 3315SOL    HW110511   3.298   0.495   2.861
 3315SOL    HW210512   3.401   0.606   2.920
 3316SOL     OW10513   3.719   0.833   2.239
 3316SOL    HW110514   3.761   0.769   2.303
 3316SOL    HW210515   3.681   0.782   2.161
 3317SOL     OW10516   2.350   1.385   2.036
 3317SOL    HW110517   2.263   1.370   2.083
 3317SOL    HW210518   2.333   1.411   1.941
 3318SOL     OW10519   3.526   1.280   2.519
 3318SOL    HW110520   3.625   1.288   2.533
 3318SOL    HW210521   3.481   1.364   2.550
 3319SOL     OW10522   3.252   0.575   1.940
 3319SOL    HW110523   3.198   0.554   2.021
 3319SOL    HW210524   3.343   0.534   1.949
 3320SOL     OW10525   2.389   0.256   2.190
 3320SOL    HW110526   2.416   0.197   2.115
 3320SOL    HW210527   2.389   0.351   2.159
 3321SOL     OW10528   3.616   1.223   3.450
 3321SOL    HW110529   3.707   1.184   3.437
 3321SOL    HW210530   3.624   1.319   3.474
 3322SOL     OW10531   2.926   1.347   3.202
 3322SOL    HW110532   2.846   1.324   3.257
 3322SOL    HW210533   3.009   1.321   3.251
 3323SOL     OW10534   3.454   1.629   3.487
 3323SOL    HW110535   3.481   1.663   3.397
 3323SOL    HW210536   3.533   1.591   3.533
 3324SOL     OW10537   2.973   1.195   2.962
 3324SOL    HW110538   2.933   1.239   3.043
 3324SOL    HW210539   2.932   1.232   2.879
 3325SOL     OW10540   3.500   1.099   2.941
 3325SOL    HW110541   3.505   1.180   3.000
 3325SOL    HW210542   3.414   1.101   2.890
 3326SOL     OW10543   2.777   0.089   3.264
 3326SOL    HW110544   2.802   0.069   3.169
 3326SOL    HW210545   2.849   0.145   3.306
 3327SOL     OW10546   2.842   1.116   3.581
 3327SOL    HW110547   2.743   1.122   3.591
 3327SOL    HW210548   2.865   1.036   3.525
 3328SOL     OW10549   2.567   1.050   2.230
 3328SOL    HW110550   2.553   1.057   2.329
 3328SOL    HW210551   2.651   0.999   2.212
 3329SOL     OW10552   2.272   0.813   3.113
 3329SOL    HW110553   2.358   0.825   3.163
 3329SOL    HW210554   2.230   0.726   3.140
 3330SOL     OW10555   3.136   0.386   3.124
 3330SOL    HW110556   3.157   0.460   3.188
 3330SOL    HW210557   3.047   0.403   3.081
 3331SOL     OW10558   1.926   1.564   3.193
 3331SOL    HW110559   1.880   1.646   3.159
 3331SOL    HW210560   2.024   1.583   3.202
 3332SOL     OW10561   2.229   1.100   2.363
 3332SOL    HW110562   2.222   1.183   2.307
 3332SOL    HW210563   2.233   1.020   2.303
 3333SOL     OW10564   2.428   0.537   2.727
 3333SOL    HW110565   2.440   0.603   2.653
 3333SOL    HW210566   2.474   0.571   2.810
 3334SOL     OW10567   3.114   1.348   2.250
 3334SOL    HW110568   3.164   1.425   2.290
 3334SOL    HW210569   3.019   1.350   2.282
 3335SOL     OW10570   3.134   1.445   3.004
 3335SOL    HW110571   3.181   1.458   3.091
 3335SOL    HW210572   3.068   1.371   3.013
 3336SOL     OW10573   3.444   0.639   2.334
 3336SOL    HW110574   3.413   0.700   2.407
 3336SOL    HW210575   3.494   0.691   2.265
 3337SOL     OW10576   2.216   1.510   3.191
 3337SOL    HW110577   2.195   1.466   3.104
 3337SOL    HW210578   2.313   1.536   3.194
 3338SOL     OW10579   2.264   0.751   3.460
 3338SOL    HW110580   2.332   0.806   3.413
 3338SOL    HW210581   2.304   0.663   3.487
 3339SOL     OW10582   3.449   0.779   3.532
 3339SOL    HW110583   3.357   0.817   3.527
 3339SOL    HW210584   3.509   0.826   3.467
 3340SOL     OW10585   2.875   0.105   3.632
 3340SOL    HW110586   2.881   0.190   3.580
 3340SOL    HW210587   2.907   0.029   3.575
 3341SOL     OW10588   2.366   0.050   3.602
 3341SOL    HW110589   2.324  -0.007   3.532
 3341SOL    HW210590   2.300   0.119   3.634
 3342SOL     OW10591   2.435   0.870   2.891
 3342SOL    HW110592   2.479   0.959   2.882
 3342SOL    HW210593   2.372   0.870   2.968
 3343SOL     OW10594   3.222   0.862   2.907
 3343SOL    HW110595   3.147   0.862   2.841
 3343SOL    HW210596   3.259   0.770   2.916
 3344SOL     OW10597   3.071   0.525   2.137
 3344SOL    HW110598   3.084   0.441   2.191
 3344SOL    HW210599   3.042   0.599   2.197
 3345SOL     OW10600   2.169   0.213   3.093
 3345SOL    HW110601   2.146   0.250   3.183
 3345SOL    HW210602   2.139   0.118   3.087
 3346SOL     OW10603   1.899   1.310   3.144
 3346SOL    HW110604   1.952   1.261   3.212
 3346SOL    HW210605   1.921   1.408   3.149
 3347SOL     OW10606   2.594   0.634   2.926
 3347SOL    HW110607   2.653   0.608   2.850
 3347SOL    HW210608   2.566   0.730   2.915
 3348SOL     OW10609   3.590   0.935   3.716
 3348SOL    HW110610   3.544   0.928   3.627
 3348SOL    HW210611   3.528   0.979   3.782
 3349SOL     OW10612   2.169   0.063   2.480
 3349SOL    HW110613   2.158   0.157   2.513
 3349SOL    HW210614   2.164   0.000   2.557
 3350SOL     OW10615   3.484   0.367   2.236
 3350SOL    HW110616   3.486   0.291   2.300
 3350SOL    HW210617   3.436   0.444   2.276
 3351SOL     OW10618   2.885   0.766   2.828
 3351SOL    HW110619   2.900   0.787   2.924
 3351SOL    HW210620   2.855   0.671   2.819
 3352SOL     OW10621   2.842   1.573   3.562
 3352SOL    HW110622   2.822   1.617   3.474
 3352SOL    HW210623   2.881   1.482   3.546
 3353SOL     OW10624   3.721   1.518   3.467
 3353SOL    HW110625   3.735   1.545   3.372
 3353SOL    HW210626   3.804   1.540   3.520
 3354SOL     OW10627   2.212   0.898   3.666
 3354SOL    HW110628   2.288   0.942   3.714
 3354SOL    HW210629   2.247   0.851   3.584
 3355SOL     OW10630   3.402   0.274   1.987
 3355SOL    HW110631   3.341   0.199   2.010
 3355SOL    HW210632   3.424   0.326   2.070
 3356SOL     OW10633   3.165   0.838   1.904
 3356SOL    HW110634   3.199   0.745   1.919
 3356SOL    HW210635   3.183   0.865   1.809
 3357SOL     OW10636   2.930   1.333   2.711
 3357SOL    HW110637   2.937   1.249   2.656
 3357SOL    HW210638   2.992   1.402   2.675
 3358SOL     OW10639   2.181   0.810   2.811
 3358SOL    HW110640   2.274   0.846   2.816
 3358SOL    HW210641   2.175   0.725   2.863
 3359SOL     OW10642   2.201   0.509   2.868
 3359SOL    HW110643   2.149   0.426   2.851
 3359SOL    HW210644   2.278   0.514   2.804
 3360SOL     OW10645   3.000   0.380   3.540
 3360SOL    HW110646   2.955   0.443   3.604
 3360SOL    HW210647   3.093   0.411   3.523
 3361SOL     OW10648   3.022   0.207   3.339
 3361SOL    HW110649   3.022   0.271   3.416
 3361SOL    HW210650   3.050   0.255   3.256
 3362SOL     OW10651   1.870   1.326   2.062
 3362SOL    HW110652   1.777   1.347   2.031
 3362SOL    HW210653   1.880   1.227   2.075
 3363SOL     OW10654   1.950   1.801   2.789
 3363SOL    HW110655   1.908   1.715   2.762
 3363SOL    HW210656   2.044   1.804   2.755
 3364SOL     OW10657   2.366   1.568   2.772
 3364SOL    HW110658   2.432   1.642   2.781
 3364SOL    HW210659   2.410   1.489   2.730
 3365SOL     OW10660   2.864   0.796   3.100
 3365SOL    HW110661   2.905   0.764   3.186
 3365SOL    HW210662   2.768   0.769   3.097
 3366SOL     OW10663   1.902   0.544   2.976
 3366SOL    HW110664   1.987   0.511   2.935
 3366SOL    HW210665   1.915   0.559   3.074
 3367SOL     OW10666   2.051   0.520   3.584
 3367SOL    HW110667   2.110   0.480   3.514
 3367SOL    HW210668   1.993   0.591   3.543
 3368SOL     OW10669   3.231   0.950   3.522
 3368SOL    HW110670   3.270   1.039   3.542
 3368SOL    HW210671   3.241   0.930   3.425
 3369SOL     OW10672   2.677   0.572   2.187
 3369SOL    HW110673   2.684   0.483   2.141
 3369SOL    HW210674   2.583   0.606   2.179
 3370SOL     OW10675   3.519   0.604   3.068
 3370SOL    HW110676   3.481   0.535   3.130
 3370SOL    HW210677   3.601   0.568   3.024
 3371SOL     OW10678   2.114   1.564   3.606
 3371SOL    HW110679   2.084   1.621   3.682
 3371SOL    HW210680   2.107   1.467   3.632
 3372SOL     OW10681   2.533   0.464   3.131
 3372SOL    HW110682   2.499   0.375   3.101
 3372SOL    HW210683   2.559   0.518   3.051
 3373SOL     OW10684   2.792   1.678   3.327
 3373SOL    HW110685   2.768   1.660   3.232
 3373SOL    HW210686   2.822   1.772   3.337
 3374SOL     OW10687   2.335   0.500   2.053
 3374SOL    HW110688   2.396   0.580   2.057
 3374SOL    HW210689   2.240   0.531   2.060
 3375SOL     OW10690   2.021   1.137   3.328
 3375SOL    HW110691   2.043   1.076   3.404
 3375SOL    HW210692   2.031   1.088   3.242
 3376SOL     OW10693   3.209   1.059   3.096
 3376SOL    HW110694   3.233   0.996   3.022
 3376SOL    HW210695   3.119   1.099   3.078
 3377SOL     OW10696   3.164   0.855   2.171
 3377SOL    HW110697   3.078   0.824   2.213
 3377SOL    HW210698   3.160   0.841   2.072
 3378SOL     OW10699   3.621   1.747   3.016
 3378SOL    HW110700   3.682   1.777   2.943
 3378SOL    HW210701   3.583   1.658   2.994
 3379SOL     OW10702   3.114   1.731   2.990
 3379SOL    HW110703   3.198   1.736   2.936
 3379SOL    HW210704   3.091   1.635   3.008
 3380SOL     OW10705   1.945   1.258   2.884
 3380SOL    HW110706   1.940   1.257   2.984
 3380SOL    HW210707   1.862   1.217   2.846
 3381SOL     OW10708   2.550   1.662   3.578
 3381SOL    HW110709   2.494   1.743   3.587
 3381SOL    HW210710   2.602   1.666   3.492
 3382SOL     OW10711   3.588   0.135   2.385
 3382SOL    HW110712   3.661   0.118   2.318
 3382SOL    HW210713   3.557   0.048   2.423
 3383SOL     OW10714   3.250   1.573   2.339
 3383SOL    HW110715   3.317   1.585   2.265
 3383SOL    HW210716   3.210   1.662   2.362
 3384SOL     OW10717   1.992   1.794   3.713
 3384SOL    HW110718   1.951   1.720   3.766
 3384SOL    HW210719   2.056   1.845   3.771
 3385SOL     OW10720   3.142   0.927   2.534
 3385SOL    HW110721   3.202   0.846   2.536
 3385SOL    HW210722   3.182   0.996   2.474
 3386SOL     OW10723   2.692   1.273   3.284
 3386SOL    HW110724   2.687   1.306   3.379
 3386SOL    HW210725   2.606   1.292   3.238
 3387SOL     OW10726   2.534   1.616   2.016
 3387SOL    HW110727   2.543   1.626   1.917
 3387SOL    HW210728   2.494   1.527   2.037
 3388SOL     OW10729   3.512   1.720   3.256
 3388SOL    HW110730   3.565   1.730   3.172
 3388SOL    HW210731   3.485   1.810   3.290
 3389SOL     OW10732   3.703   0.175   2.825
 3389SOL    HW110733   3.742   0.090   2.789
 3389SOL    HW210734   3.605   0.177   2.806
 3390SOL     OW10735   2.125   0.326   2.582
 3390SOL    HW110736   2.046   0.377   2.548
 3390SOL    HW210737   2.116   0.311   2.680
 3391SOL     OW10738   3.056   1.612   1.893
 3391SOL    HW110739   3.062   1.519   1.930
 3391SOL    HW210740   2.997   1.612   1.813
 3392SOL     OW10741   2.684   1.002   3.234
 3392SOL    HW110742   2.724   1.001   3.142
 3392SOL    HW210743   2.694   1.094   3.274
 3393SOL     OW10744   2.778   0.910   2.153
 3393SOL    HW110745   2.841   0.948   2.085
 3393SOL    HW210746   2.818   0.827   2.192
 3394SOL     OW10747   3.366   1.607   1.906
 3394SOL    HW110748   3.274   1.644   1.913
 3394SOL    HW210749   3.404   1.627   1.816
 3395SOL     OW10750   2.234   1.288   3.352
 3395SOL    HW110751   2.221   1.381   3.318
 3395SOL    HW210752   2.150   1.236   3.339
 3396SOL     OW10753   3.476   1.292   3.151
 3396SOL    HW110754   3.536   1.295   3.231
 3396SOL    HW210755   3.401   1.356   3.164
 3397SOL     OW10756   2.901   1.098   2.558
 3397SOL    HW110757   2.831   1.051   2.612
 3397SOL    HW210758   2.960   1.030   2.515
 3398SOL     OW10759   2.876   0.236   2.833
 3398SOL    HW110760   2.868   0.200   2.740
 3398SOL    HW210761   2.874   0.160   2.898
 3399SOL     OW10762   2.452   1.487   2.353
 3399SOL    HW110763   2.494   1.429   2.283
 3399SOL    HW210764   2.408   1.566   2.309
 3400SOL     OW10765   3.571   0.385   3.243
 3400SOL    HW110766   3.644   0.454   3.247
 3400SOL    HW210767   3.599   0.310   3.184
 3401SOL     OW10768   2.117   1.348   2.152
 3401SOL    HW110769   2.021   1.349   2.125
 3401SOL    HW210770   2.129   1.401   2.236
 3402SOL     OW10771   1.967   1.013   3.588
 3402SOL    HW110772   1.890   0.980   3.642
 3402SOL    HW210773   2.052   0.983   3.630
 3403SOL     OW10774   2.534   0.203   3.351
 3403SOL    HW110775   2.624   0.187   3.311
 3403SOL    HW210776   2.542   0.208   3.450
 3404SOL     OW10777   1.937   0.345   1.895
 3404SOL    HW110778   1.845   0.317   1.866
 3404SOL    HW210779   1.968   0.422   1.839
 3405SOL     OW10780   3.302   0.856   3.260
 3405SOL    HW110781   3.245   0.908   3.197
 3405SOL    HW210782   3.398   0.868   3.236
 3406SOL     OW10783   1.934   0.166   2.180
 3406SOL    HW110784   1.917   0.249   2.126
 3406SOL    HW210785   2.024   0.129   2.158
 3407SOL     OW10786   3.045   1.335   1.981
 3407SOL    HW110787   2.946   1.324   1.983
 3407SOL    HW210788   3.079   1.350   2.074
 3408SOL     OW10789   2.475   0.842   3.293
 3408SOL    HW110790   2.531   0.923   3.276
 3408SOL    HW210791   2.534   0.762   3.296
 3409SOL     OW10792   3.355   1.767   2.821
 3409SOL    HW110793   3.388   1.831   2.752
 3409SOL    HW210794   3.421   1.761   2.896
 3410SOL     OW10795   2.578   0.565   3.570
 3410SOL    HW110796   2.597   0.630   3.644
 3410SOL    HW210797   2.638   0.485   3.579
 3411SOL     OW10798   3.312   1.220   3.495
 3411SOL    HW110799   3.303   1.210   3.594
 3411SOL    HW210800   3.408   1.213   3.469
 3412SOL     OW10801   2.252   1.741   3.422
 3412SOL    HW110802   2.161   1.782   3.420
 3412SOL    HW210803   2.245   1.647   3.454
 3413SOL     OW10804   3.536   0.883   3.116
 3413SOL    HW110805   3.509   0.794   3.079
 3413SOL    HW210806   3.537   0.951   3.043
 3414SOL     OW10807   3.087   0.325   2.311
 3414SOL    HW110808   3.152   0.251   2.300
 3414SOL    HW210809   3.107   0.375   2.395
 3415SOL     OW10810   2.456   0.745   2.514
 3415SOL    HW110811   2.506   0.830   2.495
 3415SOL    HW210812   2.368   0.747   2.466
 3416SOL     OW10813   3.639   0.342   3.504
 3416SOL    HW110814   3.622   0.373   3.410
 3416SOL    HW210815   3.555   0.305   3.542
 3417SOL     OW10816   3.592   0.934   3.379
 3417SOL    HW110817   3.630   1.025   3.394
 3417SOL    HW210818   3.584   0.917   3.280
 3418SOL     OW10819   2.721   1.374   1.878
 3418SOL    HW110820   2.675   1.389   1.966
 3418SOL    HW210821   2.765   1.459   1.848
 3419SOL     OW10822   2.523   1.790   2.815
 3419SOL    HW110823   2.477   1.878   2.802
 3419SOL    HW210824   2.622   1.802   2.808
 3420SOL     OW10825   2.721   0.956   2.723
 3420SOL    HW110826   2.775   0.887   2.771
 3420SOL    HW210827   2.689   1.025   2.789
 3421SOL     OW10828   2.945   0.984   1.949
 3421SOL    HW110829   2.922   1.037   1.867
 3421SOL    HW210830   3.026   0.928   1.930
 3422SOL     OW10831   3.723   1.569   2.713
 3422SOL    HW110832   3.652   1.557   2.643
 3422SOL    HW210833   3.724   1.490   2.773
 3423SOL     OW10834   2.083   1.314   3.706
 3423SOL    HW110835   2.018   1.241   3.685
 3423SOL    HW210836   2.087   1.328   3.804
 3424SOL     OW10837   1.941   1.240   2.515
 3424SOL    HW110838   1.940   1.193   2.603
 3424SOL    HW210839   2.023   1.212   2.464
 3425SOL     OW10840   2.534   1.391   3.486
 3425SOL    HW110841   2.456   1.341   3.524
 3425SOL    HW210842   2.531   1.486   3.517
 3426SOL     OW10843   3.686   0.192   3.089
 3426SOL    HW110844   3.682   0.102   3.133
 3426SOL    HW210845   3.689   0.181   2.990
 3427SOL     OW10846   2.290   0.424   2.382
 3427SOL    HW110847   2.320   0.352   2.320
 3427SOL    HW210848   2.251   0.384   2.465
 3428SOL     OW10849   3.567   1.487   2.966
 3428SOL    HW110850   3.474   1.462   2.939
 3428SOL    HW210851   3.593   1.437   3.048
 3429SOL     OW10852   2.179   0.547   3.142
 3429SOL    HW110853   2.217   0.488   3.214
 3429SOL    HW210854   2.219   0.521   3.054
 3430SOL     OW10855   2.674   1.586   2.549
 3430SOL    HW110856   2.706   1.596   2.455
 3430SOL    HW210857   2.595   1.524   2.551
 3431SOL     OW10858   3.286   0.214   2.974
 3431SOL    HW110859   3.338   0.149   3.029
 3431SOL    HW210860   3.237   0.277   3.035
 3432SOL     OW10861   2.863   0.034   3.016
 3432SOL    HW110862   2.800  -0.038   2.985
 3432SOL    HW210863   2.956  -0.002   3.016
 3433SOL     OW10864   2.632   1.330   2.163
 3433SOL    HW110865   2.586   1.243   2.180
 3433SOL    HW210866   2.723   1.327   2.204
 3434SOL     OW10867   2.480   1.567   3.146
 3434SOL    HW110868   2.475   1.649   3.203
 3434SOL    HW210869   2.569   1.564   3.101
 3435SOL     OW10870   3.214   0.052   2.030
 3435SOL    HW110871   3.249   0.011   1.946
 3435SOL    HW210872   3.124   0.014   2.050
 3436SOL     OW10873   3.162   0.453   2.553
 3436SOL    HW110874   3.103   0.533   2.557
 3436SOL    HW210875   3.177   0.418   2.646
 3437SOL     OW10876   3.455   0.221   2.744
 3437SOL    HW110877   3.371   0.220   2.798
 3437SOL    HW210878   3.457   0.304   2.688
 3438SOL     OW10879   1.901   1.077   2.162
 3438SOL    HW110880   2.000   1.066   2.153
 3438SOL    HW210881   1.861   0.991   2.194
 3439SOL     OW10882   2.737   1.646   2.199
 3439SOL    HW110883   2.660   1.611   2.145
 3439SOL    HW210884   2.705   1.717   2.261
 3440SOL     OW10885   2.092   0.628   3.837
 3440SOL    HW110886   1.999   0.626   3.874
 3440SOL    HW210887   2.093   0.589   3.745
 3441SOL     OW10888   2.087   0.275   4.720
 3441SOL    HW110889   2.122   0.258   4.812
 3441SOL    HW210890   1.999   0.230   4.708
 3442SOL     OW10891   1.881   0.368   4.371
 3442SOL    HW110892   1.799   0.411   4.410
 3442SOL    HW210893   1.853   0.295   4.308
 3443SOL     OW10894   2.431   1.275   4.889
 3443SOL    HW110895   2.338   1.268   4.852
 3443SOL    HW210896   2.442   1.364   4.933
 3444SOL     OW10897   3.417   1.511   4.427
 3444SOL    HW110898   3.360   1.495   4.508
 3444SOL    HW210899   3.358   1.521   4.347
 3445SOL     OW10900   2.997   0.703   4.441
 3445SOL    HW110901   3.054   0.781   4.416
 3445SOL    HW210902   2.937   0.729   4.517
 3446SOL     OW10903   3.617   0.607   3.955
 3446SOL    HW110904   3.605   0.594   3.856
 3446SOL    HW210905   3.587   0.526   4.004
 3447SOL     OW10906   2.630   1.144   4.747
 3447SOL    HW110907   2.552   1.161   4.807
 3447SOL    HW210908   2.664   1.231   4.711
 3448SOL     OW10909   2.712   0.798   5.547
 3448SOL    HW110910   2.708   0.874   5.612
 3448SOL    HW210911   2.734   0.834   5.456
 3449SOL     OW10912   2.547   1.012   4.389
 3449SOL    HW110913   2.616   0.996   4.459
 3449SOL    HW210914   2.474   1.069   4.427
 3450SOL     OW10915   2.548   1.161   5.527
 3450SOL    HW110916   2.608   1.240   5.541
 3450SOL    HW210917   2.462   1.192   5.486
 3451SOL     OW10918   2.197   1.435   4.785
 3451SOL    HW110919   2.119   1.404   4.732
 3451SOL    HW210920   2.255   1.493   4.728
 3452SOL     OW10921   3.322   1.505   5.063
 3452SOL    HW110922   3.346   1.599   5.089
 3452SOL    HW210923   3.306   1.451   5.145
 3453SOL     OW10924   2.300   0.392   5.223
 3453SOL    HW110925   2.382   0.336   5.232
 3453SOL    HW210926   2.219   0.334   5.227
 3454SOL     OW10927   3.465   0.447   4.461
 3454SOL    HW110928   3.391   0.493   4.411
 3454SOL    HW210929   3.516   0.515   4.514
 3455SOL     OW10930   2.093   1.713   4.207
 3455SOL    HW110931   2.127   1.790   4.261
 3455SOL    HW210932   2.137   1.713   4.117
 3456SOL     OW10933   2.989   1.341   5.414
 3456SOL    HW110934   3.036   1.341   5.502
 3456SOL    HW210935   2.941   1.254   5.403
 3457SOL     OW10936   2.092   1.434   4.262
 3457SOL    HW110937   2.066   1.530   4.262
 3457SOL    HW210938   2.021   1.380   4.307
 3458SOL     OW10939   2.102   1.091   4.610
 3458SOL    HW110940   2.116   1.007   4.662
 3458SOL    HW210941   2.047   1.155   4.665
 3459SOL     OW10942   2.468   0.964   3.847
 3459SOL    HW110943   2.475   1.048   3.793
 3459SOL    HW210944   2.514   0.977   3.935
 3460SOL     OW10945   3.456   0.114   5.204
 3460SOL    HW110946   3.438   0.181   5.132
 3460SOL    HW210947   3.453   0.160   5.293
 3461SOL     OW10948   1.984   0.643   4.287
 3461SOL    HW110949   1.939   0.555   4.304
 3461SOL    HW210950   1.983   0.697   4.371
 3462SOL     OW10951   3.704   1.767   4.083
 3462SOL    HW110952   3.758   1.738   4.163
 3462SOL    HW210953   3.734   1.857   4.054
 3463SOL     OW10954   1.889   1.596   3.841
 3463SOL    HW110955   1.870   1.500   3.862
 3463SOL    HW210956   1.856   1.654   3.916
 3464SOL     OW10957   3.551   0.922   4.336
 3464SOL    HW110958   3.646   0.893   4.344
 3464SOL    HW210959   3.543   0.987   4.261
 3465SOL     OW10960   3.503   1.108   4.156
 3465SOL    HW110961   3.589   1.110   4.104
 3465SOL    HW210962   3.517   1.155   4.244
 3466SOL     OW10963   1.975   0.737   5.321
 3466SOL    HW110964   2.063   0.724   5.366
 3466SOL    HW210965   1.962   0.834   5.299
 3467SOL     OW10966   2.475   1.365   4.450
 3467SOL    HW110967   2.426   1.278   4.459
 3467SOL    HW210968   2.452   1.408   4.363
 3468SOL     OW10969   3.155   1.228   5.147
 3468SOL    HW110970   3.192   1.155   5.089
 3468SOL    HW210971   3.207   1.233   5.232
 3469SOL     OW10972   2.671   0.004   4.226
 3469SOL    HW110973   2.711   0.095   4.217
 3469SOL    HW210974   2.571   0.012   4.232
 3470SOL     OW10975   2.059   0.976   4.988
 3470SOL    HW110976   2.148   0.931   4.974
 3470SOL    HW210977   1.986   0.911   4.969
 3471SOL     OW10978   3.387   0.999   3.914
 3471SOL    HW110979   3.324   0.923   3.927
 3471SOL    HW210980   3.435   1.017   4.000
 3472SOL     OW10981   3.049   1.792   5.340
 3472SOL    HW110982   3.073   1.852   5.264
 3472SOL    HW210983   3.056   1.697   5.310
 3473SOL     OW10984   2.179   0.251   5.525
 3473SOL    HW110985   2.250   0.322   5.531
 3473SOL    HW210986   2.091   0.290   5.553
 3474SOL     OW10987   3.328   1.417   4.677
 3474SOL    HW110988   3.269   1.423   4.757
 3474SOL    HW210989   3.313   1.329   4.631
 3475SOL     OW10990   3.529   1.714   4.296
 3475SOL    HW110991   3.488   1.691   4.208
 3475SOL    HW210992   3.511   1.640   4.361
 3476SOL     OW10993   2.460   0.729   3.994
 3476SOL    HW110994   2.484   0.798   3.926
 3476SOL    HW210995   2.382   0.762   4.048
 3477SOL     OW10996   3.143   0.345   4.668
 3477SOL    HW110997   3.057   0.295   4.655
 3477SOL    HW210998   3.205   0.291   4.724
 3478SOL     OW10999   3.438   1.662   4.031
 3478SOL    HW111000   3.527   1.708   4.034
 3478SOL    HW211001   3.417   1.638   3.936
 3479SOL     OW11002   2.669   0.605   5.189
 3479SOL    HW111003   2.622   0.602   5.278
 3479SOL    HW211004   2.618   0.550   5.123
 3480SOL     OW11005   3.256   0.469   5.398
 3480SOL    HW111006   3.236   0.512   5.486
 3480SOL    HW211007   3.334   0.407   5.407
 3481SOL     OW11008   2.835   0.890   5.296
 3481SOL    HW111009   2.881   0.806   5.267
 3481SOL    HW211010   2.779   0.924   5.221
 3482SOL     OW11011   2.853   0.410   4.966
 3482SOL    HW111012   2.776   0.444   5.020
 3482SOL    HW211013   2.819   0.359   4.887
 3483SOL     OW11014   2.903   0.701   4.153
 3483SOL    HW111015   2.929   0.697   4.249
 3483SOL    HW211016   2.818   0.650   4.139
 3484SOL     OW11017   1.938   0.811   4.513
 3484SOL    HW111018   2.037   0.799   4.522
 3484SOL    HW211019   1.914   0.906   4.534
 3485SOL     OW11020   2.727   0.348   3.919
 3485SOL    HW111021   2.786   0.411   3.870
 3485SOL    HW211022   2.746   0.254   3.890
 3486SOL     OW11023   3.581   0.585   5.555
 3486SOL    HW111024   3.555   0.674   5.519
 3486SOL    HW211025   3.579   0.517   5.482
 3487SOL     OW11026   3.224   1.144   4.269
 3487SOL    HW111027   3.307   1.115   4.221
 3487SOL    HW211028   3.175   1.211   4.213
 3488SOL     OW11029   2.412   0.196   4.609
 3488SOL    HW111030   2.407   0.191   4.709
 3488SOL    HW211031   2.414   0.292   4.580
 3489SOL     OW11032   2.870   1.456   4.201
 3489SOL    HW111033   2.824   1.528   4.149
 3489SOL    HW211034   2.866   1.476   4.299
 3490SOL     OW11035   3.657   1.066   4.597
 3490SOL    HW111036   3.595   1.051   4.521
 3490SOL    HW211037   3.605   1.077   4.682
 3491SOL     OW11038   3.089   1.550   5.230
 3491SOL    HW111039   3.095   1.473   5.294
 3491SOL    HW211040   3.037   1.524   5.150
 3492SOL     OW11041   2.183   0.943   3.966
 3492SOL    HW111042   2.265   0.982   3.924
 3492SOL    HW211043   2.156   0.861   3.917
 3493SOL     OW11044   3.320   0.735   4.452
 3493SOL    HW111045   3.315   0.670   4.527
 3493SOL    HW211046   3.400   0.794   4.465
 3494SOL     OW11047   2.323   1.266   5.451
 3494SOL    HW111048   2.273   1.267   5.365
 3494SOL    HW211049   2.260   1.248   5.527
 3495SOL     OW11050   2.973   1.776   3.961
 3495SOL    HW111051   2.913   1.714   4.011
 3495SOL    HW211052   3.004   1.732   3.876
 3496SOL     OW11053   2.064   0.285   5.222
 3496SOL    HW111054   1.984   0.345   5.209
 3496SOL    HW211055   2.054   0.236   5.308
 3497SOL     OW11056   3.494   1.377   3.805
 3497SOL    HW111057   3.462   1.471   3.795
 3497SOL    HW211058   3.418   1.314   3.793
 3498SOL     OW11059   2.326   1.743   4.047
 3498SOL    HW111060   2.359   1.782   4.133
 3498SOL    HW211061   2.402   1.736   3.982
 3499SOL     OW11062   3.262   0.107   4.150
 3499SOL    HW111063   3.238   0.070   4.060
 3499SOL    HW211064   3.361   0.123   4.154
 3500SOL     OW11065   2.802   1.698   4.628
 3500SOL    HW111066   2.882   1.641   4.649
 3500SOL    HW211067   2.753   1.658   4.551
 3501SOL     OW11068   2.244   0.700   4.204
 3501SOL    HW111069   2.289   0.610   4.201
 3501SOL    HW211070   2.150   0.689   4.237
 3502SOL     OW11071   3.409   0.222   5.453
 3502SOL    HW111072   3.404   0.259   5.545
 3502SOL    HW211073   3.337   0.153   5.441
 3503SOL     OW11074   2.476   0.122   3.841
 3503SOL    HW111075   2.574   0.100   3.848
 3503SOL    HW211076   2.445   0.105   3.748
 3504SOL     OW11077   2.643   0.264   5.473
 3504SOL    HW111078   2.710   0.203   5.516
 3504SOL    HW211079   2.570   0.283   5.538
 3505SOL     OW11080   2.750   1.514   4.919
 3505SOL    HW111081   2.727   1.489   4.825
 3505SOL    HW211082   2.811   1.445   4.958
 3506SOL     OW11083   3.213   0.590   5.157
 3506SOL    HW111084   3.241   0.547   5.242
 3506SOL    HW211085   3.238   0.686   5.158
 3507SOL     OW11086   2.665   1.402   4.648
 3507SOL    HW111087   2.755   1.416   4.606
 3507SOL    HW211088   2.594   1.404   4.577
 3508SOL     OW11089   2.784   0.503   4.623
 3508SOL    HW111090   2.759   0.494   4.527
 3508SOL    HW211091   2.832   0.421   4.654
 3509SOL     OW11092   2.401   0.064   4.236
 3509SOL    HW111093   2.320   0.065   4.294
 3509SOL    HW211094   2.404   0.147   4.181
 3510SOL     OW11095   3.296   1.188   3.765
 3510SOL    HW111096   3.328   1.112   3.822
 3510SOL    HW211097   3.204   1.215   3.795
 3511SOL     OW11098   2.159   0.035   3.895
 3511SOL    HW111099   2.208   0.119   3.874
 3511SOL    HW211100   2.221  -0.030   3.940
 3512SOL     OW11101   2.797   0.236   4.204
 3512SOL    HW111102   2.749   0.277   4.126
 3512SOL    HW211103   2.896   0.234   4.185
 3513SOL     OW11104   2.938   0.683   5.188
 3513SOL    HW111105   2.858   0.622   5.191
 3513SOL    HW211106   3.019   0.630   5.164
 3514SOL     OW11107   3.089   1.570   4.517
 3514SOL    HW111108   3.110   1.644   4.452
 3514SOL    HW211109   3.157   1.570   4.590
 3515SOL     OW11110   2.321   1.152   4.465
 3515SOL    HW111111   2.250   1.125   4.530
 3515SOL    HW211112   2.295   1.124   4.372
 3516SOL     OW11113   3.133   1.797   4.315
 3516SOL    HW111114   3.177   1.861   4.251
 3516SOL    HW211115   3.083   1.849   4.385
 3517SOL     OW11116   2.894   0.549   3.740
 3517SOL    HW111117   2.853   0.631   3.701
 3517SOL    HW211118   2.958   0.575   3.813
 3518SOL     OW11119   1.940   0.556   5.110
 3518SOL    HW111120   2.032   0.555   5.069
 3518SOL    HW211121   1.934   0.630   5.177
 3519SOL     OW11122   2.423   0.222   4.871
 3519SOL    HW111123   2.461   0.138   4.908
 3519SOL    HW211124   2.335   0.241   4.915
 3520SOL     OW11125   2.728   0.454   4.366
 3520SOL    HW111126   2.696   0.526   4.304
 3520SOL    HW211127   2.752   0.373   4.313
 3521SOL     OW11128   2.879   0.039   4.477
 3521SOL    HW111129   2.807   0.044   4.408
 3521SOL    HW211130   2.855  -0.030   4.546
 3522SOL     OW11131   3.291   1.173   4.591
 3522SOL    HW111132   3.236   1.089   4.584
 3522SOL    HW211133   3.317   1.202   4.499
 3523SOL     OW11134   3.328   0.590   4.716
 3523SOL    HW111135   3.298   0.495   4.723
 3523SOL    HW211136   3.401   0.606   4.782
 3524SOL     OW11137   3.719   0.833   4.101
 3524SOL    HW111138   3.761   0.769   4.165
 3524SOL    HW211139   3.681   0.782   4.023
 3525SOL     OW11140   2.350   1.385   3.898
 3525SOL    HW111141   2.263   1.370   3.945
 3525SOL    HW211142   2.333   1.411   3.803
 3526SOL     OW11143   3.526   1.280   4.381
 3526SOL    HW111144   3.625   1.288   4.395
 3526SOL    HW211145   3.481   1.364   4.412
 3527SOL     OW11146   3.252   0.575   3.802
 3527SOL    HW111147   3.198   0.554   3.883
 3527SOL    HW211148   3.343   0.534   3.811
 3528SOL     OW11149   2.389   0.256   4.052
 3528SOL    HW111150   2.416   0.197   3.977
 3528SOL    HW211151   2.389   0.351   4.021
 3529SOL     OW11152   3.616   1.223   5.312
 3529SOL    HW111153   3.707   1.184   5.299
 3529SOL    HW211154   3.624   1.319   5.336
 3530SOL     OW11155   2.926   1.347   5.064
 3530SOL    HW111156   2.846   1.324   5.119
 3530SOL    HW211157   3.009   1.321   5.113
 3531SOL     OW11158   3.454   1.629   5.349
 3531SOL    HW111159   3.481   1.663   5.259
 3531SOL    HW211160   3.533   1.591   5.395
 3532SOL     OW11161   2.973   1.195   4.824
 3532SOL    HW111162   2.933   1.239   4.905
 3532SOL    HW211163   2.932   1.232   4.741
 3533SOL     OW11164   3.500   1.099   4.803
 3533SOL    HW111165   3.505   1.180   4.862
 3533SOL    HW211166   3.414   1.101   4.752
 3534SOL     OW11167   2.777   0.089   5.126
 3534SOL    HW111168   2.802   0.069   5.031
 3534SOL    HW211169   2.849   0.145   5.168
 3535SOL     OW11170   2.842   1.116   5.443
 3535SOL    HW111171   2.743   1.122   5.453
 3535SOL    HW211172   2.865   1.036   5.387
 3536SOL     OW11173   2.567   1.050   4.092
 3536SOL    HW111174   2.553   1.057   4.191
 3536SOL    HW211175   2.651   0.999   4.074
 3537SOL     OW11176   2.272   0.813   4.975
 3537SOL    HW111177   2.358   0.825   5.025
 3537SOL    HW211178   2.230   0.726   5.002
 3538SOL     OW11179   3.136   0.386   4.986
 3538SOL    HW111180   3.157   0.460   5.050
 3538SOL    HW211181   3.047   0.403   4.943
 3539SOL     OW11182   2.229   1.100   4.225
 3539SOL    HW111183   2.222   1.183   4.169
 3539SOL    HW211184   2.233   1.020   4.165
 3540SOL     OW11185   2.428   0.537   4.589
 3540SOL    HW111186   2.440   0.603   4.515
 3540SOL    HW211187   2.474   0.571   4.672
 3541SOL     OW11188   3.114   1.348   4.112
 3541SOL    HW111189   3.164   1.425   4.152
 3541SOL    HW211190   3.019   1.350   4.144
 3542SOL     OW11191   3.134   1.445   4.866
 3542SOL    HW111192   3.181   1.458   4.953
 3542SOL    HW211193   3.068   1.371   4.875
 3543SOL     OW11194   3.444   0.639   4.196
 3543SOL    HW111195   3.413   0.700   4.269
 3543SOL    HW211196   3.494   0.691   4.127
 3544SOL     OW11197   2.264   0.751   5.322
 3544SOL    HW111198   2.332   0.806   5.275
 3544SOL    HW211199   2.304   0.663   5.349
 3545SOL     OW11200   3.449   0.779   5.394
 3545SOL    HW111201   3.357   0.817   5.389
 3545SOL    HW211202   3.509   0.826   5.329
 3546SOL     OW11203   2.875   0.105   5.494
 3546SOL    HW111204   2.881   0.190   5.442
 3546SOL    HW211205   2.907   0.029   5.437
 3547SOL     OW11206   2.366   0.050   5.464
 3547SOL    HW111207   2.324  -0.007   5.394
 3547SOL    HW211208   2.300   0.119   5.496
 3548SOL     OW11209   2.435   0.870   4.753
 3548SOL    HW111210   2.479   0.959   4.744
 3548SOL    HW211211   2.372   0.870   4.830
 3549SOL     OW11212   3.222   0.862   4.769
 3549SOL    HW111213   3.147   0.862   4.703
 3549SOL    HW211214   3.259   0.770   4.778
 3550SOL     OW11215   3.071   0.525   3.999
 3550SOL    HW111216   3.084   0.441   4.053
 3550SOL    HW211217   3.042   0.599   4.059
 3551SOL     OW11218   2.169   0.213   4.955
 3551SOL    HW111219   2.146   0.250   5.045
 3551SOL    HW211220   2.139   0.118   4.949
 3552SOL     OW11221   1.899   1.310   5.006
 3552SOL    HW111222   1.952   1.261   5.074
 3552SOL    HW211223   1.921   1.408   5.011
 3553SOL     OW11224   2.594   0.634   4.788
 3553SOL    HW111225   2.653   0.608   4.712
 3553SOL    HW211226   2.566   0.730   4.777
 3554SOL     OW11227   3.590   0.935   5.578
 3554SOL    HW111228   3.544   0.928   5.489
 3554SOL    HW211229   3.528   0.979   5.644
 3555SOL     OW11230   2.169   0.063   4.342
 3555SOL    HW111231   2.158   0.157   4.375
 3555SOL    HW211232   2.164   0.000   4.419
 3556SOL     OW11233   3.484   0.367   4.098
 3556SOL    HW111234   3.486   0.291   4.162
 3556SOL    HW211235   3.436   0.444   4.138
 3557SOL     OW11236   2.885   0.766   4.690
 3557SOL    HW111237   2.900   0.787   4.786
 3557SOL    HW211238   2.855   0.671   4.681
 3558SOL     OW11239   3.721   1.518   5.329
 3558SOL    HW111240   3.735   1.545   5.234
 3558SOL    HW211241   3.804   1.540   5.382
 3559SOL     OW11242   2.212   0.898   5.528
 3559SOL    HW111243   2.288   0.942   5.576
 3559SOL    HW211244   2.247   0.851   5.446
 3560SOL     OW11245   3.402   0.274   3.849
 3560SOL    HW111246   3.341   0.199   3.872
 3560SOL    HW211247   3.424   0.326   3.932
 3561SOL     OW11248   3.165   0.838   3.766
 3561SOL    HW111249   3.199   0.745   3.781
 3561SOL    HW211250   3.183   0.865   3.671
 3562SOL     OW11251   2.930   1.333   4.573
 3562SOL    HW111252   2.937   1.249   4.518
 3562SOL    HW211253   2.992   1.402   4.537
 3563SOL     OW11254   2.181   0.810   4.673
 3563SOL    HW111255   2.274   0.846   4.678
 3563SOL    HW211256   2.175   0.725   4.725
 3564SOL     OW11257   2.201   0.509   4.730
 3564SOL    HW111258   2.149   0.426   4.713
 3564SOL    HW211259   2.278   0.514   4.666
 3565SOL     OW11260   3.000   0.380   5.402
 3565SOL    HW111261   2.955   0.443   5.466
 3565SOL    HW211262   3.093   0.411   5.385
 3566SOL     OW11263   3.022   0.207   5.201
 3566SOL    HW111264   3.022   0.271   5.278
 3566SOL    HW211265   3.050   0.255   5.118
 3567SOL     OW11266   1.870   1.326   3.924
 3567SOL    HW111267   1.777   1.347   3.893
 3567SOL    HW211268   1.880   1.227   3.937
 3568SOL     OW11269   2.366   1.568   4.634
 3568SOL    HW111270   2.432   1.642   4.643
 3568SOL    HW211271   2.410   1.489   4.592
 3569SOL     OW11272   2.864   0.796   4.962
 3569SOL    HW111273   2.905   0.764   5.048
 3569SOL    HW211274   2.768   0.769   4.959
 3570SOL     OW11275   1.902   0.544   4.838
 3570SOL    HW111276   1.987   0.511   4.797
 3570SOL    HW211277   1.915   0.559   4.936
 3571SOL     OW11278   2.051   0.520   5.446
 3571SOL    HW111279   2.110   0.480   5.376
 3571SOL    HW211280   1.993   0.591   5.405
 3572SOL     OW11281   3.231   0.950   5.384
 3572SOL    HW111282   3.270   1.039   5.404
 3572SOL    HW211283   3.241   0.930   5.287
 3573SOL     OW11284   2.677   0.572   4.049
 3573SOL    HW111285   2.684   0.483   4.003
 3573SOL    HW211286   2.583   0.606   4.041
 3574SOL     OW11287   3.519   0.604   4.930
 3574SOL    HW111288   3.481   0.535   4.992
 3574SOL    HW211289   3.601   0.568   4.886
 3575SOL     OW11290   2.533   0.464   4.993
 3575SOL    HW111291   2.499   0.375   4.963
 3575SOL    HW211292   2.559   0.518   4.913
 3576SOL     OW11293   2.335   0.500   3.915
 3576SOL    HW111294   2.396   0.580   3.919
 3576SOL    HW211295   2.240   0.531   3.922
 3577SOL     OW11296   2.021   1.137   5.190
 3577SOL    HW111297   2.043   1.076   5.266
 3577SOL    HW211298   2.031   1.088   5.104
 3578SOL     OW11299   3.209   1.059   4.958
 3578SOL    HW111300   3.233   0.996   4.884
 3578SOL    HW211301   3.119   1.099   4.940
 3579SOL     OW11302   3.164   0.855   4.033
 3579SOL    HW111303   3.078   0.824   4.075
 3579SOL    HW211304   3.160   0.841   3.934
 3580SOL     OW11305   3.621   1.747   4.878
 3580SOL    HW111306   3.682   1.777   4.805
 3580SOL    HW211307   3.583   1.658   4.856
 3581SOL     OW11308   3.114   1.731   4.852
 3581SOL    HW111309   3.198   1.736   4.798
 3581SOL    HW211310   3.091   1.635   4.870
 3582SOL     OW11311   1.945   1.258   4.746
 3582SOL    HW111312   1.940   1.257   4.846
 3582SOL    HW211313   1.862   1.217   4.708
 3583SOL     OW11314   3.588   0.135   4.247
 3583SOL    HW111315   3.661   0.118   4.180
 3583SOL    HW211316   3.557   0.048   4.285
 3584SOL     OW11317   3.250   1.573   4.201
 3584SOL    HW111318   3.317   1.585   4.127
 3584SOL    HW211319   3.210   1.662   4.224
 3585SOL     OW11320   3.142   0.927   4.396
 3585SOL    HW111321   3.202   0.846   4.398
 3585SOL    HW211322   3.182   0.996   4.336
 3586SOL     OW11323   2.692   1.273   5.146
 3586SOL    HW111324   2.687   1.306   5.241
 3586SOL    HW211325   2.606   1.292   5.100
 3587SOL     OW11326   2.534   1.616   3.878
 3587SOL    HW111327   2.543   1.626   3.779
 3587SOL    HW211328   2.494   1.527   3.899
 3588SOL     OW11329   3.512   1.720   5.118
 3588SOL    HW111330   3.565   1.730   5.034
 3588SOL    HW211331   3.485   1.810   5.152
 3589SOL     OW11332   3.703   0.175   4.687
 3589SOL    HW111333   3.742   0.090   4.651
 3589SOL    HW211334   3.605   0.177   4.668
 3590SOL     OW11335   2.125   0.326   4.444
 3590SOL    HW111336   2.046   0.377   4.410
 3590SOL    HW211337   2.116   0.311   4.542
 3591SOL     OW11338   3.056   1.612   3.755
 3591SOL    HW111339   3.062   1.519   3.792
 3591SOL    HW211340   2.997   1.612   3.675
 3592SOL     OW11341   2.684   1.002   5.096
 3592SOL    HW111342   2.724   1.001   5.004
 3592SOL    HW211343   2.694   1.094   5.136
 3593SOL     OW11344   2.778   0.910   4.015
 3593SOL    HW111345   2.841   0.948   3.947
 3593SOL    HW211346   2.818   0.827   4.054
 3594SOL     OW11347   3.366   1.607   3.768
 3594SOL    HW111348   3.274   1.644   3.775
 3594SOL    HW211349   3.404   1.627   3.678
 3595SOL     OW11350   2.234   1.288   5.214
 3595SOL    HW111351   2.221   1.381   5.180
 3595SOL    HW211352   2.150   1.236   5.201
 3596SOL     OW11353   3.476   1.292   5.013
 3596SOL    HW111354   3.536   1.295   5.093
 3596SOL    HW211355   3.401   1.356   5.026
 3597SOL     OW11356   2.901   1.098   4.420
 3597SOL    HW111357   2.831   1.051   4.474
 3597SOL    HW211358   2.960   1.030   4.377
 3598SOL     OW11359   2.876   0.236   4.695
 3598SOL    HW111360   2.868   0.200   4.602
 3598SOL    HW211361   2.874   0.160   4.760
 3599SOL     OW11362   2.452   1.487   4.215
 3599SOL    HW111363   2.494   1.429   4.145
 3599SOL    HW211364   2.408   1.566   4.171
 3600SOL     OW11365   3.571   0.385   5.105
 3600SOL    HW111366   3.644   0.454   5.109
 3600SOL    HW211367   3.599   0.310   5.046
 3601SOL     OW11368   2.117   1.348   4.014
 3601SOL    HW111369   2.021   1.349   3.987
 3601SOL    HW211370   2.129   1.401   4.098
 3602SOL     OW11371   1.967   1.013   5.450
 3602SOL    HW111372   1.890   0.980   5.504
 3602SOL    HW211373   2.052   0.983   5.492
 3603SOL     OW11374   2.534   0.203   5.213
 3603SOL    HW111375   2.624   0.187   5.173
 3603SOL    HW211376   2.542   0.208   5.312
 3604SOL     OW11377   1.937   0.345   3.757
 3604SOL    HW111378   1.845   0.317   3.728
 3604SOL    HW211379   1.968   0.422   3.701
 3605SOL     OW11380   3.302   0.856   5.122
 3605SOL    HW111381   3.245   0.908   5.059
 3605SOL    HW211382   3.398   0.868   5.098
 3606SOL     OW11383   1.934   0.166   4.042
 3606SOL    HW111384   1.917   0.249   3.988
 3606SOL    HW211385   2.024   0.129   4.020
 3607SOL     OW11386   3.045   1.335   3.843
 3607SOL    HW111387   2.946   1.324   3.845
 3607SOL    HW211388   3.079   1.350   3.936
 3608SOL     OW11389   2.475   0.842   5.155
 3608SOL    HW111390   2.531   0.923   5.138
 3608SOL    HW211391   2.534   0.762   5.158
 3609SOL     OW11392   3.355   1.767   4.683
 3609SOL    HW111393   3.388   1.831   4.614
 3609SOL    HW211394   3.421   1.761   4.758
 3610SOL     OW11395   2.578   0.565   5.432
 3610SOL    HW111396   2.597   0.630   5.506
 3610SOL    HW211397   2.638   0.485   5.441
 3611SOL     OW11398   3.312   1.220   5.357
 3611SOL    HW111399   3.303   1.210   5.456
 3611SOL    HW211400   3.408   1.213   5.331
 3612SOL     OW11401   3.536   0.883   4.978
 3612SOL    HW111402   3.509   0.794   4.941
 3612SOL    HW211403   3.537   0.951   4.905
 3613SOL     OW11404   3.087   0.325   4.173
 3613SOL    HW111405   3.152   0.251   4.162
 3613SOL    HW211406   3.107   0.375   4.257
 3614SOL     OW11407   2.456   0.745   4.376
 3614SOL    HW111408   2.506   0.830   4.357
 3614SOL    HW211409   2.368   0.747   4.328
 3615SOL     OW11410   3.639   0.342   5.366
 3615SOL    HW111411   3.622   0.373   5.272
 3615SOL    HW211412   3.555   0.305   5.404
 3616SOL     OW11413   3.592   0.934   5.241
 3616SOL    HW111414   3.630   1.025   5.256
 3616SOL    HW211415   3.584   0.917   5.142
 3617SOL     OW11416   2.721   1.374   3.740
 3617SOL    HW111417   2.675   1.389   3.828
 3617SOL    HW211418   2.765   1.459   3.710
 3618SOL     OW11419   2.721   0.956   4.585
 3618SOL    HW111420   2.775   0.887   4.633
 3618SOL    HW211421   2.689   1.025   4.651
 3619SOL     OW11422   2.945   0.984   3.811
 3619SOL    HW111423   2.922   1.037   3.729
 3619SOL    HW211424   3.026   0.928   3.792
 3620SOL     OW11425   3.723   1.569   4.575
 3620SOL    HW111426   3.652   1.557   4.505
 3620SOL    HW211427   3.724   1.490   4.635
 3621SOL     OW11428   2.083   1.314   5.568
 3621SOL    HW111429   2.018   1.241   5.547
 3621SOL    HW211430   2.087   1.328   5.666
 3622SOL     OW11431   1.941   1.240   4.377
 3622SOL    HW111432   1.940   1.193   4.465
 3622SOL    HW211433   2.023   1.212   4.326
 3623SOL     OW11434   2.534   1.391   5.348
 3623SOL    HW111435   2.456   1.341   5.386
 3623SOL    HW211436   2.531   1.486   5.379
 3624SOL     OW11437   3.686   0.192   4.951
 3624SOL    HW111438   3.682   0.102   4.995
 3624SOL    HW211439   3.689   0.181   4.852
 3625SOL     OW11440   2.290   0.424   4.244
 3625SOL    HW111441   2.320   0.352   4.182
 3625SOL    HW211442   2.251   0.384   4.327
 3626SOL     OW11443   3.567   1.487   4.828
 3626SOL    HW111444   3.474   1.462   4.801
 3626SOL    HW211445   3.593   1.437   4.910
 3627SOL     OW11446   2.179   0.547   5.004
 3627SOL    HW111447   2.217   0.488   5.076
 3627SOL    HW211448   2.219   0.521   4.916
 3628SOL     OW11449   2.674   1.586   4.411
 3628SOL    HW111450   2.706   1.596   4.317
 3628SOL    HW211451   2.595   1.524   4.413
 3629SOL     OW11452   3.286   0.214   4.836
 3629SOL    HW111453   3.338   0.149   4.891
 3629SOL    HW211454   3.237   0.277   4.897
 3630SOL     OW11455   2.863   0.034   4.878
 3630SOL    HW111456   2.800  -0.038   4.847
 3630SOL    HW211457   2.956  -0.002   4.878
 3631SOL     OW11458   2.632   1.330   4.025
 3631SOL    HW111459   2.586   1.243   4.042
 3631SOL    HW211460   2.723   1.327   4.066
 3632SOL     OW11461   3.214   0.052   3.892
 3632SOL    HW111462   3.249   0.011   3.808
 3632SOL    HW211463   3.124   0.014   3.912
 3633SOL     OW11464   3.162   0.453   4.415
 3633SOL    HW111465   3.103   0.533   4.419
 3633SOL    HW211466   3.177   0.418   4.508
 3634SOL     OW11467   3.455   0.221   4.606
 3634SOL    HW111468   3.371   0.220   4.660
 3634SOL    HW211469   3.457   0.304   4.550
 3635SOL     OW11470   1.901   1.077   4.024
 3635SOL    HW111471   2.000   1.066   4.015
 3635SOL    HW211472   1.861   0.991   4.056
 3636SOL     OW11473   2.737   1.646   4.061
 3636SOL    HW111474   2.660   1.611   4.007
 3636SOL    HW211475   2.705   1.717   4.123
 3637SOL     OW11476   2.092   0.628   5.699
 3637SOL    HW111477   1.999   0.626   5.736
 3637SOL    HW211478   2.093   0.589   5.607
 3638SOL     OW11479   2.087   0.275   6.582
 3638SOL    HW111480   2.122   0.258   6.674
 3638SOL    HW211481   1.999   0.230   6.570
 3639SOL     OW11482   1.881   0.368   6.233
 3639SOL    HW111483   1.799   0.411   6.272
 3639SOL    HW211484   1.853   0.295   6.170
 3640SOL     OW11485   2.431   1.275   6.751
 3640SOL    HW111486   2.338   1.268   6.714
 3640SOL    HW211487   2.442   1.364   6.795
 3641SOL     OW11488   3.417   1.511   6.289
 3641SOL    HW111489   3.360   1.495   6.370
 3641SOL    HW211490   3.358   1.521   6.209
 3642SOL     OW11491   2.997   0.703   6.303
 3642SOL    HW111492   3.054   0.781   6.278
 3642SOL    HW211493   2.937   0.729   6.379
 3643SOL     OW11494   3.617   0.607   5.817
 3643SOL    HW111495   3.605   0.594   5.718
 3643SOL    HW211496   3.587   0.526   5.866
 3644SOL     OW11497   2.630   1.144   6.609
 3644SOL    HW111498   2.552   1.161   6.669
 3644SOL    HW211499   2.664   1.231   6.573
 3645SOL     OW11500   2.712   0.798   7.409
 3645SOL    HW111501   2.708   0.874   7.474
 3645SOL    HW211502   2.734   0.834   7.318
 3646SOL     OW11503   2.547   1.012   6.251
 3646SOL    HW111504   2.616   0.996   6.321
 3646SOL    HW211505   2.474   1.069   6.289
 3647SOL     OW11506   2.548   1.161   7.389
 3647SOL    HW111507   2.608   1.240   7.403
 3647SOL    HW211508   2.462   1.192   7.348
 3648SOL     OW11509   2.197   1.435   6.647
 3648SOL    HW111510   2.119   1.404   6.594
 3648SOL    HW211511   2.255   1.493   6.590
 3649SOL     OW11512   3.322   1.505   6.925
 3649SOL    HW111513   3.346   1.599   6.951
 3649SOL    HW211514   3.306   1.451   7.007
 3650SOL     OW11515   2.300   0.392   7.085
 3650SOL    HW111516   2.382   0.336   7.094
 3650SOL    HW211517   2.219   0.334   7.089
 3651SOL     OW11518   3.465   0.447   6.323
 3651SOL    HW111519   3.391   0.493   6.273
 3651SOL    HW211520   3.516   0.515   6.376
 3652SOL     OW11521   2.989   1.341   7.276
 3652SOL    HW111522   3.036   1.341   7.364
 3652SOL    HW211523   2.941   1.254   7.265
 3653SOL     OW11524   2.092   1.434   6.124
 3653SOL    HW111525   2.066   1.530   6.124
 3653SOL    HW211526   2.021   1.380   6.169
 3654SOL     OW11527   2.102   1.091   6.472
 3654SOL    HW111528   2.116   1.007   6.524
 3654SOL    HW211529   2.047   1.155   6.527
 3655SOL     OW11530   2.482   1.786   7.025
 3655SOL    HW111531   2.390   1.769   7.060
 3655SOL    HW211532   2.510   1.878   7.051
 3656SOL     OW11533   2.468   0.964   5.709
 3656SOL    HW111534   2.475   1.048   5.655
 3656SOL    HW211535   2.514   0.977   5.797
 3657SOL     OW11536   3.456   0.114   7.066
 3657SOL    HW111537   3.438   0.181   6.994
 3657SOL    HW211538   3.453   0.160   7.155
 3658SOL     OW11539   1.984   0.643   6.149
 3658SOL    HW111540   1.939   0.555   6.166
 3658SOL    HW211541   1.983   0.697   6.233
 3659SOL     OW11542   3.704   1.767   5.945
 3659SOL    HW111543   3.758   1.738   6.025
 3659SOL    HW211544   3.734   1.857   5.916
 3660SOL     OW11545   3.551   0.922   6.198
 3660SOL    HW111546   3.646   0.893   6.206
 3660SOL    HW211547   3.543   0.987   6.123
 3661SOL     OW11548   3.503   1.108   6.018
 3661SOL    HW111549   3.589   1.110   5.966
 3661SOL    HW211550   3.517   1.155   6.106
 3662SOL     OW11551   1.975   0.737   7.183
 3662SOL    HW111552   2.063   0.724   7.228
 3662SOL    HW211553   1.962   0.834   7.161
 3663SOL     OW11554   2.475   1.365   6.312
 3663SOL    HW111555   2.426   1.278   6.321
 3663SOL    HW211556   2.452   1.408   6.225
 3664SOL     OW11557   3.155   1.228   7.009
 3664SOL    HW111558   3.192   1.155   6.951
 3664SOL    HW211559   3.207   1.233   7.094
 3665SOL     OW11560   2.671   0.004   6.088
 3665SOL    HW111561   2.711   0.095   6.079
 3665SOL    HW211562   2.571   0.012   6.094
 3666SOL     OW11563   2.059   0.976   6.850
 3666SOL    HW111564   2.148   0.931   6.836
 3666SOL    HW211565   1.986   0.911   6.831
 3667SOL     OW11566   3.387   0.999   5.776
 3667SOL    HW111567   3.324   0.923   5.789
 3667SOL    HW211568   3.435   1.017   5.862
 3668SOL     OW11569   3.049   1.792   7.202
 3668SOL    HW111570   3.073   1.852   7.126
 3668SOL    HW211571   3.056   1.697   7.172
 3669SOL     OW11572   2.179   0.251   7.387
 3669SOL    HW111573   2.250   0.322   7.393
 3669SOL    HW211574   2.091   0.290   7.415
 3670SOL     OW11575   3.328   1.417   6.539
 3670SOL    HW111576   3.269   1.423   6.619
 3670SOL    HW211577   3.313   1.329   6.493
 3671SOL     OW11578   3.529   1.714   6.158
 3671SOL    HW111579   3.488   1.691   6.070
 3671SOL    HW211580   3.511   1.640   6.223
 3672SOL     OW11581   2.460   0.729   5.856
 3672SOL    HW111582   2.484   0.798   5.788
 3672SOL    HW211583   2.382   0.762   5.910
 3673SOL     OW11584   3.143   0.345   6.530
 3673SOL    HW111585   3.057   0.295   6.517
 3673SOL    HW211586   3.205   0.291   6.586
 3674SOL     OW11587   3.438   1.662   5.893
 3674SOL    HW111588   3.527   1.708   5.896
 3674SOL    HW211589   3.417   1.638   5.798
 3675SOL     OW11590   2.669   0.605   7.051
 3675SOL    HW111591   2.622   0.602   7.140
 3675SOL    HW211592   2.618   0.550   6.985
 3676SOL     OW11593   3.256   0.469   7.260
 3676SOL    HW111594   3.236   0.512   7.348
 3676SOL    HW211595   3.334   0.407   7.269
 3677SOL     OW11596   2.835   0.890   7.158
 3677SOL    HW111597   2.881   0.806   7.129
 3677SOL    HW211598   2.779   0.924   7.083
 3678SOL     OW11599   2.853   0.410   6.828
 3678SOL    HW111600   2.776   0.444   6.882
 3678SOL    HW211601   2.819   0.359   6.749
 3679SOL     OW11602   2.903   0.701   6.015
 3679SOL    HW111603   2.929   0.697   6.111
 3679SOL    HW211604   2.818   0.650   6.001
 3680SOL     OW11605   1.938   0.811   6.375
 3680SOL    HW111606   2.037   0.799   6.384
 3680SOL    HW211607   1.914   0.906   6.396
 3681SOL     OW11608   1.992   1.821   7.157
 3681SOL    HW111609   1.982   1.806   7.256
 3681SOL    HW211610   1.906   1.857   7.121
 3682SOL     OW11611   2.727   0.348   5.781
 3682SOL    HW111612   2.786   0.411   5.732
 3682SOL    HW211613   2.746   0.254   5.752
 3683SOL     OW11614   3.581   0.585   7.417
 3683SOL    HW111615   3.555   0.674   7.381
 3683SOL    HW211616   3.579   0.517   7.344
 3684SOL     OW11617   3.224   1.144   6.131
 3684SOL    HW111618   3.307   1.115   6.083
 3684SOL    HW211619   3.175   1.211   6.075
 3685SOL     OW11620   2.412   0.196   6.471
 3685SOL    HW111621   2.407   0.191   6.571
 3685SOL    HW211622   2.414   0.292   6.442
 3686SOL     OW11623   2.870   1.456   6.063
 3686SOL    HW111624   2.824   1.528   6.011
 3686SOL    HW211625   2.866   1.476   6.161
 3687SOL     OW11626   3.657   1.066   6.459
 3687SOL    HW111627   3.595   1.051   6.383
 3687SOL    HW211628   3.605   1.077   6.544
 3688SOL     OW11629   3.089   1.550   7.092
 3688SOL    HW111630   3.095   1.473   7.156
 3688SOL    HW211631   3.037   1.524   7.012
 3689SOL     OW11632   2.183   0.943   5.828
 3689SOL    HW111633   2.265   0.982   5.786
 3689SOL    HW211634   2.156   0.861   5.779
 3690SOL     OW11635   3.320   0.735   6.314
 3690SOL    HW111636   3.315   0.670   6.389
 3690SOL    HW211637   3.400   0.794   6.327
 3691SOL     OW11638   2.323   1.266   7.313
 3691SOL    HW111639   2.273   1.267   7.227
 3691SOL    HW211640   2.260   1.248   7.389
 3692SOL     OW11641   2.973   1.776   5.823
 3692SOL    HW111642   2.913   1.714   5.873
 3692SOL    HW211643   3.004   1.732   5.738
 3693SOL     OW11644   2.064   0.285   7.084
 3693SOL    HW111645   1.984   0.345   7.071
 3693SOL    HW211646   2.054   0.236   7.170
 3694SOL     OW11647   3.494   1.377   5.667
 3694SOL    HW111648   3.462   1.471   5.657
 3694SOL    HW211649   3.418   1.314   5.655
 3695SOL     OW11650   3.262   0.107   6.012
 3695SOL    HW111651   3.238   0.070   5.922
 3695SOL    HW211652   3.361   0.123   6.016
 3696SOL     OW11653   2.111   1.785   6.827
 3696SOL    HW111654   2.168   1.720   6.877
 3696SOL    HW211655   2.095   1.752   6.734
 3697SOL     OW11656   2.244   0.700   6.066
 3697SOL    HW111657   2.289   0.610   6.063
 3697SOL    HW211658   2.150   0.689   6.099
 3698SOL     OW11659   3.409   0.222   7.315
 3698SOL    HW111660   3.404   0.259   7.407
 3698SOL    HW211661   3.337   0.153   7.303
 3699SOL     OW11662   2.476   0.122   5.703
 3699SOL    HW111663   2.574   0.100   5.710
 3699SOL    HW211664   2.445   0.105   5.610
 3700SOL     OW11665   2.643   0.264   7.335
 3700SOL    HW111666   2.710   0.203   7.378
 3700SOL    HW211667   2.570   0.283   7.400
 3701SOL     OW11668   2.750   1.514   6.781
 3701SOL    HW111669   2.727   1.489   6.687
 3701SOL    HW211670   2.811   1.445   6.820
 3702SOL     OW11671   3.213   0.590   7.019
 3702SOL    HW111672   3.241   0.547   7.104
 3702SOL    HW211673   3.238   0.686   7.020
 3703SOL     OW11674   2.665   1.402   6.510
 3703SOL    HW111675   2.755   1.416   6.468
 3703SOL    HW211676   2.594   1.404   6.439
 3704SOL     OW11677   2.784   0.503   6.485
 3704SOL    HW111678   2.759   0.494   6.389
 3704SOL    HW211679   2.832   0.421   6.516
 3705SOL     OW11680   2.401   0.064   6.098
 3705SOL    HW111681   2.320   0.065   6.156
 3705SOL    HW211682   2.404   0.147   6.043
 3706SOL     OW11683   3.296   1.188   5.627
 3706SOL    HW111684   3.328   1.112   5.684
 3706SOL    HW211685   3.204   1.215   5.657
 3707SOL     OW11686   2.159   0.035   5.757
 3707SOL    HW111687   2.208   0.119   5.736
 3707SOL    HW211688   2.221  -0.030   5.802
 3708SOL     OW11689   2.797   0.236   6.066
 3708SOL    HW111690   2.749   0.277   5.988
 3708SOL    HW211691   2.896   0.234   6.047
 3709SOL     OW11692   2.938   0.683   7.050
 3709SOL    HW111693   2.858   0.622   7.053
 3709SOL    HW211694   3.019   0.630   7.026
 3710SOL     OW11695   3.089   1.570   6.379
 3710SOL    HW111696   3.110   1.644   6.314
 3710SOL    HW211697   3.157   1.570   6.452
 3711SOL     OW11698   2.321   1.152   6.327
 3711SOL    HW111699   2.250   1.125   6.392
 3711SOL    HW211700   2.295   1.124   6.234
 3712SOL     OW11701   3.133   1.797   6.177
 3712SOL    HW111702   3.177   1.861   6.113
 3712SOL    HW211703   3.083   1.849   6.247
 3713SOL     OW11704   2.894   0.549   5.602
 3713SOL    HW111705   2.853   0.631   5.563
 3713SOL    HW211706   2.958   0.575   5.675
 3714SOL     OW11707   1.940   0.556   6.972
 3714SOL    HW111708   2.032   0.555   6.931
 3714SOL    HW211709   1.934   0.630   7.039
 3715SOL     OW11710   2.423   0.222   6.733
 3715SOL    HW111711   2.461   0.138   6.770
 3715SOL    HW211712   2.335   0.241   6.777
 3716SOL     OW11713   2.728   0.454   6.228
 3716SOL    HW111714   2.696   0.526   6.166
 3716SOL    HW211715   2.752   0.373   6.175
 3717SOL     OW11716   2.879   0.039   6.339
 3717SOL    HW111717   2.807   0.044   6.270
 3717SOL    HW211718   2.855  -0.030   6.408
 3718SOL     OW11719   3.291   1.173   6.453
 3718SOL    HW111720   3.236   1.089   6.446
 3718SOL    HW211721   3.317   1.202   6.361
 3719SOL     OW11722   3.328   0.590   6.578
 3719SOL    HW111723   3.298   0.495   6.585
 3719SOL    HW211724   3.401   0.606   6.644
 3720SOL     OW11725   3.719   0.833   5.963
 3720SOL    HW111726   3.761   0.769   6.027
 3720SOL    HW211727   3.681   0.782   5.885
 3721SOL     OW11728   2.350   1.385   5.760
 3721SOL    HW111729   2.263   1.370   5.807
 3721SOL    HW211730   2.333   1.411   5.665
 3722SOL     OW11731   3.526   1.280   6.243
 3722SOL    HW111732   3.625   1.288   6.257
 3722SOL    HW211733   3.481   1.364   6.274
 3723SOL     OW11734   3.252   0.575   5.664
 3723SOL    HW111735   3.198   0.554   5.745
 3723SOL    HW211736   3.343   0.534   5.673
 3724SOL     OW11737   2.389   0.256   5.914
 3724SOL    HW111738   2.416   0.197   5.839
 3724SOL    HW211739   2.389   0.351   5.883
 3725SOL     OW11740   3.616   1.223   7.174
 3725SOL    HW111741   3.707   1.184   7.161
 3725SOL    HW211742   3.624   1.319   7.198
 3726SOL     OW11743   2.926   1.347   6.926
 3726SOL    HW111744   2.846   1.324   6.981
 3726SOL    HW211745   3.009   1.321   6.975
 3727SOL     OW11746   3.454   1.629   7.211
 3727SOL    HW111747   3.481   1.663   7.121
 3727SOL    HW211748   3.533   1.591   7.257
 3728SOL     OW11749   2.973   1.195   6.686
 3728SOL    HW111750   2.933   1.239   6.767
 3728SOL    HW211751   2.932   1.232   6.603
 3729SOL     OW11752   3.500   1.099   6.665
 3729SOL    HW111753   3.505   1.180   6.724
 3729SOL    HW211754   3.414   1.101   6.614
 3730SOL     OW11755   2.777   0.089   6.988
 3730SOL    HW111756   2.802   0.069   6.893
 3730SOL    HW211757   2.849   0.145   7.030
 3731SOL     OW11758   2.842   1.116   7.305
 3731SOL    HW111759   2.743   1.122   7.315
 3731SOL    HW211760   2.865   1.036   7.249
 3732SOL     OW11761   2.567   1.050   5.954
 3732SOL    HW111762   2.553   1.057   6.053
 3732SOL    HW211763   2.651   0.999   5.936
 3733SOL     OW11764   2.272   0.813   6.837
 3733SOL    HW111765   2.358   0.825   6.887
 3733SOL    HW211766   2.230   0.726   6.864
 3734SOL     OW11767   3.136   0.386   6.848
 3734SOL    HW111768   3.157   0.460   6.912
 3734SOL    HW211769   3.047   0.403   6.805
 3735SOL     OW11770   1.926   1.564   6.917
 3735SOL    HW111771   1.880   1.646   6.883
 3735SOL    HW211772   2.024   1.583   6.926
 3736SOL     OW11773   2.229   1.100   6.087
 3736SOL    HW111774   2.222   1.183   6.031
 3736SOL    HW211775   2.233   1.020   6.027
 3737SOL     OW11776   2.428   0.537   6.451
 3737SOL    HW111777   2.440   0.603   6.377
 3737SOL    HW211778   2.474   0.571   6.534
 3738SOL     OW11779   3.114   1.348   5.974
 3738SOL    HW111780   3.164   1.425   6.014
 3738SOL    HW211781   3.019   1.350   6.006
 3739SOL     OW11782   3.134   1.445   6.728
 3739SOL    HW111783   3.181   1.458   6.815
 3739SOL    HW211784   3.068   1.371   6.737
 3740SOL     OW11785   3.444   0.639   6.058
 3740SOL    HW111786   3.413   0.700   6.131
 3740SOL    HW211787   3.494   0.691   5.989
 3741SOL     OW11788   2.216   1.510   6.915
 3741SOL    HW111789   2.195   1.466   6.828
 3741SOL    HW211790   2.313   1.536   6.918
 3742SOL     OW11791   2.264   0.751   7.184
 3742SOL    HW111792   2.332   0.806   7.137
 3742SOL    HW211793   2.304   0.663   7.211
 3743SOL     OW11794   3.449   0.779   7.256
 3743SOL    HW111795   3.357   0.817   7.251
 3743SOL    HW211796   3.509   0.826   7.191
 3744SOL     OW11797   2.875   0.105   7.356
 3744SOL    HW111798   2.881   0.190   7.304
 3744SOL    HW211799   2.907   0.029   7.299
 3745SOL     OW11800   2.366   0.050   7.326
 3745SOL    HW111801   2.324  -0.007   7.256
 3745SOL    HW211802   2.300   0.119   7.358
 3746SOL     OW11803   2.435   0.870   6.615
 3746SOL    HW111804   2.479   0.959   6.606
 3746SOL    HW211805   2.372   0.870   6.692
 3747SOL     OW11806   3.222   0.862   6.631
 3747SOL    HW111807   3.147   0.862   6.565
 3747SOL    HW211808   3.259   0.770   6.640
 3748SOL     OW11809   3.071   0.525   5.861
 3748SOL    HW111810   3.084   0.441   5.915
 3748SOL    HW211811   3.042   0.599   5.921
 3749SOL     OW11812   2.169   0.213   6.817
 3749SOL    HW111813   2.146   0.250   6.907
 3749SOL    HW211814   2.139   0.118   6.811
 3750SOL     OW11815   1.899   1.310   6.868
 3750SOL    HW111816   1.952   1.261   6.936
 3750SOL    HW211817   1.921   1.408   6.873
 3751SOL     OW11818   2.594   0.634   6.650
 3751SOL    HW111819   2.653   0.608   6.574
 3751SOL    HW211820   2.566   0.730   6.639
 3752SOL     OW11821   3.590   0.935   7.440
 3752SOL    HW111822   3.544   0.928   7.351
 3752SOL    HW211823   3.528   0.979   7.506
 3753SOL     OW11824   2.169   0.063   6.204
 3753SOL    HW111825   2.158   0.157   6.237
 3753SOL    HW211826   2.164   0.000   6.281
 3754SOL     OW11827   3.484   0.367   5.960
 3754SOL    HW111828   3.486   0.291   6.024
 3754SOL    HW211829   3.436   0.444   6.000
 3755SOL     OW11830   2.885   0.766   6.552
 3755SOL    HW111831   2.900   0.787   6.648
 3755SOL    HW211832   2.855   0.671   6.543
 3756SOL     OW11833   2.842   1.573   7.286
 3756SOL    HW111834   2.822   1.617   7.198
 3756SOL    HW211835   2.881   1.482   7.270
 3757SOL     OW11836   3.721   1.518   7.191
 3757SOL    HW111837   3.735   1.545   7.096
 3757SOL    HW211838   3.804   1.540   7.244
 3758SOL     OW11839   2.212   0.898   7.390
 3758SOL    HW111840   2.288   0.942   7.438
 3758SOL    HW211841   2.247   0.851   7.308
 3759SOL     OW11842   3.402   0.274   5.711
 3759SOL    HW111843   3.341   0.199   5.734
 3759SOL    HW211844   3.424   0.326   5.794
 3760SOL     OW11845   3.165   0.838   5.628
 3760SOL    HW111846   3.199   0.745   5.643
 3760SOL    HW211847   3.183   0.865   5.533
 3761SOL     OW11848   2.930   1.333   6.435
 3761SOL    HW111849   2.937   1.249   6.380
 3761SOL    HW211850   2.992   1.402   6.399
 3762SOL     OW11851   2.181   0.810   6.535
 3762SOL    HW111852   2.274   0.846   6.540
 3762SOL    HW211853   2.175   0.725   6.587
 3763SOL     OW11854   2.201   0.509   6.592
 3763SOL    HW111855   2.149   0.426   6.575
 3763SOL    HW211856   2.278   0.514   6.528
 3764SOL     OW11857   3.000   0.380   7.264
 3764SOL    HW111858   2.955   0.443   7.328
 3764SOL    HW211859   3.093   0.411   7.247
 3765SOL     OW11860   3.022   0.207   7.063
 3765SOL    HW111861   3.022   0.271   7.140
 3765SOL    HW211862   3.050   0.255   6.980
 3766SOL     OW11863   1.870   1.326   5.786
 3766SOL    HW111864   1.777   1.347   5.755
 3766SOL    HW211865   1.880   1.227   5.799
 3767SOL     OW11866   1.950   1.801   6.513
 3767SOL    HW111867   1.908   1.715   6.486
 3767SOL    HW211868   2.044   1.804   6.479
 3768SOL     OW11869   2.366   1.568   6.496
 3768SOL    HW111870   2.432   1.642   6.505
 3768SOL    HW211871   2.410   1.489   6.454
 3769SOL     OW11872   2.864   0.796   6.824
 3769SOL    HW111873   2.905   0.764   6.910
 3769SOL    HW211874   2.768   0.769   6.821
 3770SOL     OW11875   1.902   0.544   6.700
 3770SOL    HW111876   1.987   0.511   6.659
 3770SOL    HW211877   1.915   0.559   6.798
 3771SOL     OW11878   2.051   0.520   7.308
 3771SOL    HW111879   2.110   0.480   7.238
 3771SOL    HW211880   1.993   0.591   7.267
 3772SOL     OW11881   3.231   0.950   7.246
 3772SOL    HW111882   3.270   1.039   7.266
 3772SOL    HW211883   3.241   0.930   7.149
 3773SOL     OW11884   2.677   0.572   5.911
 3773SOL    HW111885   2.684   0.483   5.865
 3773SOL    HW211886   2.583   0.606   5.903
 3774SOL     OW11887   3.519   0.604   6.792
 3774SOL    HW111888   3.481   0.535   6.854
 3774SOL    HW211889   3.601   0.568   6.748
 3775SOL     OW11890   2.114   1.564   7.330
 3775SOL    HW111891   2.084   1.621   7.406
 3775SOL    HW211892   2.107   1.467   7.356
 3776SOL     OW11893   2.533   0.464   6.855
 3776SOL    HW111894   2.499   0.375   6.825
 3776SOL    HW211895   2.559   0.518   6.775
 3777SOL     OW11896   2.792   1.678   7.051
 3777SOL    HW111897   2.768   1.660   6.956
 3777SOL    HW211898   2.822   1.772   7.061
 3778SOL     OW11899   2.335   0.500   5.777
 3778SOL    HW111900   2.396   0.580   5.781
 3778SOL    HW211901   2.240   0.531   5.784
 3779SOL     OW11902   2.021   1.137   7.052
 3779SOL    HW111903   2.043   1.076   7.128
 3779SOL    HW211904   2.031   1.088   6.966
 3780SOL     OW11905   3.209   1.059   6.820
 3780SOL    HW111906   3.233   0.996   6.746
 3780SOL    HW211907   3.119   1.099   6.802
 3781SOL     OW11908   3.164   0.855   5.895
 3781SOL    HW111909   3.078   0.824   5.937
 3781SOL    HW211910   3.160   0.841   5.796
 3782SOL     OW11911   3.621   1.747   6.740
 3782SOL    HW111912   3.682   1.777   6.667
 3782SOL    HW211913   3.583   1.658   6.718
 3783SOL     OW11914   3.114   1.731   6.714
 3783SOL    HW111915   3.198   1.736   6.660
 3783SOL    HW211916   3.091   1.635   6.732
 3784SOL     OW11917   1.945   1.258   6.608
 3784SOL    HW111918   1.940   1.257   6.708
 3784SOL    HW211919   1.862   1.217   6.570
 3785SOL     OW11920   2.550   1.662   7.302
 3785SOL    HW111921   2.494   1.743   7.311
 3785SOL    HW211922   2.602   1.666   7.216
 3786SOL     OW11923   3.588   0.135   6.109
 3786SOL    HW111924   3.661   0.118   6.042
 3786SOL    HW211925   3.557   0.048   6.147
 3787SOL     OW11926   3.250   1.573   6.063
 3787SOL    HW111927   3.317   1.585   5.989
 3787SOL    HW211928   3.210   1.662   6.086
 3788SOL     OW11929   1.992   1.794   7.437
 3788SOL    HW111930   1.951   1.720   7.490
 3788SOL    HW211931   2.056   1.845   7.495
 3789SOL     OW11932   3.142   0.927   6.258
 3789SOL    HW111933   3.202   0.846   6.260
 3789SOL    HW211934   3.182   0.996   6.198
 3790SOL     OW11935   2.692   1.273   7.008
 3790SOL    HW111936   2.687   1.306   7.103
 3790SOL    HW211937   2.606   1.292   6.962
 3791SOL     OW11938   3.512   1.720   6.980
 3791SOL    HW111939   3.565   1.730   6.896
 3791SOL    HW211940   3.485   1.810   7.014
 3792SOL     OW11941   3.703   0.175   6.549
 3792SOL    HW111942   3.742   0.090   6.513
 3792SOL    HW211943   3.605   0.177   6.530
 3793SOL     OW11944   2.125   0.326   6.306
 3793SOL    HW111945   2.046   0.377   6.272
 3793SOL    HW211946   2.116   0.311   6.404
 3794SOL     OW11947   3.056   1.612   5.617
 3794SOL    HW111948   3.062   1.519   5.654
 3794SOL    HW211949   2.997   1.612   5.537
 3795SOL     OW11950   2.684   1.002   6.958
 3795SOL    HW111951   2.724   1.001   6.866
 3795SOL    HW211952   2.694   1.094   6.998
 3796SOL     OW11953   2.778   0.910   5.877
 3796SOL    HW111954   2.841   0.948   5.809
 3796SOL    HW211955   2.818   0.827   5.916
 3797SOL     OW11956   3.366   1.607   5.630
 3797SOL    HW111957   3.274   1.644   5.637
 3797SOL    HW211958   3.404   1.627   5.540
 3798SOL     OW11959   2.234   1.288   7.076
 3798SOL    HW111960   2.221   1.381   7.042
 3798SOL    HW211961   2.150   1.236   7.063
 3799SOL     OW11962   3.476   1.292   6.875
 3799SOL    HW111963   3.536   1.295   6.955
 3799SOL    HW211964   3.401   1.356   6.888
 3800SOL     OW11965   2.901   1.098   6.282
 3800SOL    HW111966   2.831   1.051   6.336
 3800SOL    HW211967   2.960   1.030   6.239
 3801SOL     OW11968   2.876   0.236   6.557
 3801SOL    HW111969   2.868   0.200   6.464
 3801SOL    HW211970   2.874   0.160   6.622
 3802SOL     OW11971   3.571   0.385   6.967
 3802SOL    HW111972   3.644   0.454   6.971
 3802SOL    HW211973   3.599   0.310   6.908
 3803SOL     OW11974   2.117   1.348   5.876
 3803SOL    HW111975   2.021   1.349   5.849
 3803SOL    HW211976   2.129   1.401   5.960
 3804SOL     OW11977   1.967   1.013   7.312
 3804SOL    HW111978   1.890   0.980   7.366
 3804SOL    HW211979   2.052   0.983   7.354
 3805SOL     OW11980   2.534   0.203   7.075
 3805SOL    HW111981   2.624   0.187   7.035
 3805SOL    HW211982   2.542   0.208   7.174
 3806SOL     OW11983   1.937   0.345   5.619
 3806SOL    HW111984   1.845   0.317   5.590
 3806SOL    HW211985   1.968   0.422   5.563
 3807SOL     OW11986   3.302   0.856   6.984
 3807SOL    HW111987   3.245   0.908   6.921
 3807SOL    HW211988   3.398   0.868   6.960
 3808SOL     OW11989   1.934   0.166   5.904
 3808SOL    HW111990   1.917   0.249   5.850
 3808SOL    HW211991   2.024   0.129   5.882
 3809SOL     OW11992   3.045   1.335   5.705
 3809SOL    HW111993   2.946   1.324   5.707
 3809SOL    HW211994   3.079   1.350   5.798
 3810SOL     OW11995   2.475   0.842   7.017
 3810SOL    HW111996   2.531   0.923   7.000
 3810SOL    HW211997   2.534   0.762   7.020
 3811SOL     OW11998   3.355   1.767   6.545
 3811SOL    HW111999   3.388   1.831   6.476
 3811SOL    HW212000   3.421   1.761   6.620
 3812SOL     OW12001   2.578   0.565   7.294
 3812SOL    HW112002   2.597   0.630   7.368
 3812SOL    HW212003   2.638   0.485   7.303
 3813SOL     OW12004   3.312   1.220   7.219
 3813SOL    HW112005   3.303   1.210   7.318
 3813SOL    HW212006   3.408   1.213   7.193
 3814SOL     OW12007   2.252   1.741   7.146
 3814SOL    HW112008   2.161   1.782   7.144
 3814SOL    HW212009   2.245   1.647   7.178
 3815SOL     OW12010   3.536   0.883   6.840
 3815SOL    HW112011   3.509   0.794   6.803
 3815SOL    HW212012   3.537   0.951   6.767
 3816SOL     OW12013   3.087   0.325   6.035
 3816SOL    HW112014   3.152   0.251   6.024
 3816SOL    HW212015   3.107   0.375   6.119
 3817SOL     OW12016   2.456   0.745   6.238
 3817SOL    HW112017   2.506   0.830   6.219
 3817SOL    HW212018   2.368   0.747   6.190
 3818SOL     OW12019   3.639   0.342   7.228
 3818SOL    HW112020   3.622   0.373   7.134
 3818SOL    HW212021   3.555   0.305   7.266
 3819SOL     OW12022   3.592   0.934   7.103
 3819SOL    HW112023   3.630   1.025   7.118
 3819SOL    HW212024   3.584   0.917   7.004
 3820SOL     OW12025   2.721   1.374   5.602
 3820SOL    HW112026   2.675   1.389   5.690
 3820SOL    HW212027   2.765   1.459   5.572
 3821SOL     OW12028   2.721   0.956   6.447
 3821SOL    HW112029   2.775   0.887   6.495
 3821SOL    HW212030   2.689   1.025   6.513
 3822SOL     OW12031   2.945   0.984   5.673
 3822SOL    HW112032   2.922   1.037   5.591
 3822SOL    HW212033   3.026   0.928   5.654
 3823SOL     OW12034   3.723   1.569   6.437
 3823SOL    HW112035   3.652   1.557   6.367
 3823SOL    HW212036   3.724   1.490   6.497
 3824SOL     OW12037   2.083   1.314   7.430
 3824SOL    HW112038   2.018   1.241   7.409
 3824SOL    HW212039   2.087   1.328   7.528
 3825SOL     OW12040   1.941   1.240   6.239
 3825SOL    HW112041   1.940   1.193   6.327
 3825SOL    HW212042   2.023   1.212   6.188
 3826SOL     OW12043   2.534   1.391   7.210
 3826SOL    HW112044   2.456   1.341   7.248
 3826SOL    HW212045   2.531   1.486   7.241
 3827SOL     OW12046   3.686   0.192   6.813
 3827SOL    HW112047   3.682   0.102   6.857
 3827SOL    HW212048   3.689   0.181   6.714
 3828SOL     OW12049   2.290   0.424   6.106
 3828SOL    HW112050   2.320   0.352   6.044
 3828SOL    HW212051   2.251   0.384   6.189
 3829SOL     OW12052   3.567   1.487   6.690
 3829SOL    HW112053   3.474   1.462   6.663
 3829SOL    HW212054   3.593   1.437   6.772
 3830SOL     OW12055   2.179   0.547   6.866
 3830SOL    HW112056   2.217   0.488   6.938
 3830SOL    HW212057   2.219   0.521   6.778
 3831SOL     OW12058   2.674   1.586   6.273
 3831SOL    HW112059   2.706   1.596   6.179
 3831SOL    HW212060   2.595   1.524   6.275
 3832SOL     OW12061   3.286   0.214   6.698
 3832SOL    HW112062   3.338   0.149   6.753
 3832SOL    HW212063   3.237   0.277   6.759
 3833SOL     OW12064   2.863   0.034   6.740
 3833SOL    HW112065   2.800  -0.038   6.709
 3833SOL    HW212066   2.956  -0.002   6.740
 3834SOL     OW12067   2.632   1.330   5.887
 3834SOL    HW112068   2.586   1.243   5.904
 3834SOL    HW212069   2.723   1.327   5.928
 3835SOL     OW12070   2.480   1.567   6.870
 3835SOL    HW112071   2.475   1.649   6.927
 3835SOL    HW212072   2.569   1.564   6.825
 3836SOL     OW12073   3.214   0.052   5.754
 3836SOL    HW112074   3.249   0.011   5.670
 3836SOL    HW212075   3.124   0.014   5.774
 3837SOL     OW12076   3.162   0.453   6.277
 3837SOL    HW112077   3.103   0.533   6.281
 3837SOL    HW212078   3.177   0.418   6.370
 3838SOL     OW12079   3.455   0.221   6.468
 3838SOL    HW112080   3.371   0.220   6.522
 3838SOL    HW212081   3.457   0.304   6.412
 3839SOL     OW12082   1.901   1.077   5.886
 3839SOL    HW112083   2.000   1.066   5.877
 3839SOL    HW212084   1.861   0.991   5.918
 3840SOL     OW12085   2.092   0.628   7.561
 3840SOL    HW112086   1.999   0.626   7.598
 3840SOL    HW212087   2.093   0.589   7.469
 3841SOL     OW12088   2.087   0.275   8.444
 3841SOL    HW112089   2.122   0.258   8.536
 3841SOL    HW212090   1.999   0.230   8.432
 3842SOL     OW12091   1.881   0.368   8.095
 3842SOL    HW112092   1.799   0.411   8.134
 3842SOL    HW212093   1.853   0.295   8.032
 3843SOL     OW12094   2.431   1.275   8.613
 3843SOL    HW112095   2.338   1.268   8.576
 3843SOL    HW212096   2.442   1.364   8.657
 3844SOL     OW12097   3.417   1.511   8.151
 3844SOL    HW112098   3.360   1.495   8.232
 3844SOL    HW212099   3.358   1.521   8.071
 3845SOL     OW12100   2.997   0.703   8.165
 3845SOL    HW112101   3.054   0.781   8.140
 3845SOL    HW212102   2.937   0.729   8.241
 3846SOL     OW12103   3.617   0.607   7.679
 3846SOL    HW112104   3.605   0.594   7.580
 3846SOL    HW212105   3.587   0.526   7.728
 3847SOL     OW12106   2.630   1.144   8.471
 3847SOL    HW112107   2.552   1.161   8.531
 3847SOL    HW212108   2.664   1.231   8.435
 3848SOL     OW12109   2.712   0.798   9.271
 3848SOL    HW112110   2.708   0.874   9.336
 3848SOL    HW212111   2.734   0.834   9.180
 3849SOL     OW12112   2.547   1.012   8.113
 3849SOL    HW112113   2.616   0.996   8.183
 3849SOL    HW212114   2.474   1.069   8.151
 3850SOL     OW12115   2.548   1.161   9.251
 3850SOL    HW112116   2.608   1.240   9.265
 3850SOL    HW212117   2.462   1.192   9.210
 3851SOL     OW12118   2.197   1.435   8.509
 3851SOL    HW112119   2.119   1.404   8.456
 3851SOL    HW212120   2.255   1.493   8.452
 3852SOL     OW12121   3.322   1.505   8.787
 3852SOL    HW112122   3.346   1.599   8.813
 3852SOL    HW212123   3.306   1.451   8.869
 3853SOL     OW12124   2.300   0.392   8.947
 3853SOL    HW112125   2.382   0.336   8.956
 3853SOL    HW212126   2.219   0.334   8.951
 3854SOL     OW12127   3.465   0.447   8.185
 3854SOL    HW112128   3.391   0.493   8.135
 3854SOL    HW212129   3.516   0.515   8.238
 3855SOL     OW12130   2.093   1.713   7.931
 3855SOL    HW112131   2.127   1.790   7.985
 3855SOL    HW212132   2.137   1.713   7.841
 3856SOL     OW12133   2.989   1.341   9.138
 3856SOL    HW112134   3.036   1.341   9.226
 3856SOL    HW212135   2.941   1.254   9.127
 3857SOL     OW12136   2.092   1.434   7.986
 3857SOL    HW112137   2.066   1.530   7.986
 3857SOL    HW212138   2.021   1.380   8.031
 3858SOL     OW12139   2.102   1.091   8.334
 3858SOL    HW112140   2.116   1.007   8.386
 3858SOL    HW212141   2.047   1.155   8.389
 3859SOL     OW12142   2.482   1.786   8.887
 3859SOL    HW112143   2.390   1.769   8.922
 3859SOL    HW212144   2.510   1.878   8.913
 3860SOL     OW12145   2.468   0.964   7.571
 3860SOL    HW112146   2.475   1.048   7.517
 3860SOL    HW212147   2.514   0.977   7.659
 3861SOL     OW12148   3.456   0.114   8.928
 3861SOL    HW112149   3.438   0.181   8.856
 3861SOL    HW212150   3.453   0.160   9.017
 3862SOL     OW12151   1.984   0.643   8.011
 3862SOL    HW112152   1.939   0.555   8.028
 3862SOL    HW212153   1.983   0.697   8.095
 3863SOL     OW12154   3.704   1.767   7.807
 3863SOL    HW112155   3.758   1.738   7.887
 3863SOL    HW212156   3.734   1.857   7.778
 3864SOL     OW12157   1.889   1.596   7.565
 3864SOL    HW112158   1.870   1.500   7.586
 3864SOL    HW212159   1.856   1.654   7.640
 3865SOL     OW12160   3.551   0.922   8.060
 3865SOL    HW112161   3.646   0.893   8.068
 3865SOL    HW212162   3.543   0.987   7.985
 3866SOL     OW12163   3.503   1.108   7.880
 3866SOL    HW112164   3.589   1.110   7.828
 3866SOL    HW212165   3.517   1.155   7.968
 3867SOL     OW12166   1.975   0.737   9.045
 3867SOL    HW112167   2.063   0.724   9.090
 3867SOL    HW212168   1.962   0.834   9.023
 3868SOL     OW12169   2.475   1.365   8.174
 3868SOL    HW112170   2.426   1.278   8.183
 3868SOL    HW212171   2.452   1.408   8.087
 3869SOL     OW12172   3.155   1.228   8.871
 3869SOL    HW112173   3.192   1.155   8.813
 3869SOL    HW212174   3.207   1.233   8.956
 3870SOL     OW12175   2.671   0.004   7.950
 3870SOL    HW112176   2.711   0.095   7.941
 3870SOL    HW212177   2.571   0.012   7.956
 3871SOL     OW12178   2.059   0.976   8.712
 3871SOL    HW112179   2.148   0.931   8.698
 3871SOL    HW212180   1.986   0.911   8.693
 3872SOL     OW12181   3.387   0.999   7.638
 3872SOL    HW112182   3.324   0.923   7.651
 3872SOL    HW212183   3.435   1.017   7.724
 3873SOL     OW12184   3.049   1.792   9.064
 3873SOL    HW112185   3.073   1.852   8.988
 3873SOL    HW212186   3.056   1.697   9.034
 3874SOL     OW12187   2.179   0.251   9.249
 3874SOL    HW112188   2.250   0.322   9.255
 3874SOL    HW212189   2.091   0.290   9.277
 3875SOL     OW12190   3.328   1.417   8.401
 3875SOL    HW112191   3.269   1.423   8.481
 3875SOL    HW212192   3.313   1.329   8.355
 3876SOL     OW12193   3.529   1.714   8.020
 3876SOL    HW112194   3.488   1.691   7.932
 3876SOL    HW212195   3.511   1.640   8.085
 3877SOL     OW12196   2.460   0.729   7.718
 3877SOL    HW112197   2.484   0.798   7.650
 3877SOL    HW212198   2.382   0.762   7.772
 3878SOL     OW12199   3.143   0.345   8.392
 3878SOL    HW112200   3.057   0.295   8.379
 3878SOL    HW212201   3.205   0.291   8.448
 3879SOL     OW12202   3.438   1.662   7.755
 3879SOL    HW112203   3.527   1.708   7.758
 3879SOL    HW212204   3.417   1.638   7.660
 3880SOL     OW12205   2.669   0.605   8.913
 3880SOL    HW112206   2.622   0.602   9.002
 3880SOL    HW212207   2.618   0.550   8.847
 3881SOL     OW12208   3.256   0.469   9.122
 3881SOL    HW112209   3.236   0.512   9.210
 3881SOL    HW212210   3.334   0.407   9.131
 3882SOL     OW12211   2.835   0.890   9.020
 3882SOL    HW112212   2.881   0.806   8.991
 3882SOL    HW212213   2.779   0.924   8.945
 3883SOL     OW12214   2.853   0.410   8.690
 3883SOL    HW112215   2.776   0.444   8.744
 3883SOL    HW212216   2.819   0.359   8.611
 3884SOL     OW12217   2.903   0.701   7.877
 3884SOL    HW112218   2.929   0.697   7.973
 3884SOL    HW212219   2.818   0.650   7.863
 3885SOL     OW12220   1.938   0.811   8.237
 3885SOL    HW112221   2.037   0.799   8.246
 3885SOL    HW212222   1.914   0.906   8.258
 3886SOL     OW12223   1.992   1.821   9.019
 3886SOL    HW112224   1.982   1.806   9.118
 3886SOL    HW212225   1.906   1.857   8.983
 3887SOL     OW12226   2.727   0.348   7.643
 3887SOL    HW112227   2.786   0.411   7.594
 3887SOL    HW212228   2.746   0.254   7.614
 3888SOL     OW12229   3.581   0.585   9.279
 3888SOL    HW112230   3.555   0.674   9.243
 3888SOL    HW212231   3.579   0.517   9.206
 3889SOL     OW12232   3.224   1.144   7.993
 3889SOL    HW112233   3.307   1.115   7.945
 3889SOL    HW212234   3.175   1.211   7.937
 3890SOL     OW12235   2.412   0.196   8.333
 3890SOL    HW112236   2.407   0.191   8.433
 3890SOL    HW212237   2.414   0.292   8.304
 3891SOL     OW12238   2.870   1.456   7.925
 3891SOL    HW112239   2.824   1.528   7.873
 3891SOL    HW212240   2.866   1.476   8.023
 3892SOL     OW12241   2.213   1.801   8.301
 3892SOL    HW112242   2.263   1.715   8.307
 3892SOL    HW212243   2.278   1.878   8.298
 3893SOL     OW12244   3.657   1.066   8.321
 3893SOL    HW112245   3.595   1.051   8.245
 3893SOL    HW212246   3.605   1.077   8.406
 3894SOL     OW12247   3.089   1.550   8.954
 3894SOL    HW112248   3.095   1.473   9.018
 3894SOL    HW212249   3.037   1.524   8.874
 3895SOL     OW12250   2.183   0.943   7.690
 3895SOL    HW112251   2.265   0.982   7.648
 3895SOL    HW212252   2.156   0.861   7.641
 3896SOL     OW12253   3.320   0.735   8.176
 3896SOL    HW112254   3.315   0.670   8.251
 3896SOL    HW212255   3.400   0.794   8.189
 3897SOL     OW12256   2.323   1.266   9.175
 3897SOL    HW112257   2.273   1.267   9.089
 3897SOL    HW212258   2.260   1.248   9.251
 3898SOL     OW12259   2.973   1.776   7.685
 3898SOL    HW112260   2.913   1.714   7.735
 3898SOL    HW212261   3.004   1.732   7.600
 3899SOL     OW12262   2.064   0.285   8.946
 3899SOL    HW112263   1.984   0.345   8.933
 3899SOL    HW212264   2.054   0.236   9.032
 3900SOL     OW12265   3.494   1.377   7.529
 3900SOL    HW112266   3.462   1.471   7.519
 3900SOL    HW212267   3.418   1.314   7.517
 3901SOL     OW12268   2.326   1.743   7.771
 3901SOL    HW112269   2.359   1.782   7.857
 3901SOL    HW212270   2.402   1.736   7.706
 3902SOL     OW12271   3.262   0.107   7.874
 3902SOL    HW112272   3.238   0.070   7.784
 3902SOL    HW212273   3.361   0.123   7.878
 3903SOL     OW12274   2.111   1.785   8.689
 3903SOL    HW112275   2.168   1.720   8.739
 3903SOL    HW212276   2.095   1.752   8.596
 3904SOL     OW12277   2.802   1.698   8.352
 3904SOL    HW112278   2.882   1.641   8.373
 3904SOL    HW212279   2.753   1.658   8.275
 3905SOL     OW12280   2.244   0.700   7.928
 3905SOL    HW112281   2.289   0.610   7.925
 3905SOL    HW212282   2.150   0.689   7.961
 3906SOL     OW12283   3.409   0.222   9.177
 3906SOL    HW112284   3.404   0.259   9.269
 3906SOL    HW212285   3.337   0.153   9.165
 3907SOL     OW12286   2.476   0.122   7.565
 3907SOL    HW112287   2.574   0.100   7.572
 3907SOL    HW212288   2.445   0.105   7.472
 3908SOL     OW12289   2.643   0.264   9.197
 3908SOL    HW112290   2.710   0.203   9.240
 3908SOL    HW212291   2.570   0.283   9.262
 3909SOL     OW12292   2.750   1.514   8.643
 3909SOL    HW112293   2.727   1.489   8.549
 3909SOL    HW212294   2.811   1.445   8.682
 3910SOL     OW12295   3.213   0.590   8.881
 3910SOL    HW112296   3.241   0.547   8.966
 3910SOL    HW212297   3.238   0.686   8.882
 3911SOL     OW12298   2.665   1.402   8.372
 3911SOL    HW112299   2.755   1.416   8.330
 3911SOL    HW212300   2.594   1.404   8.301
 3912SOL     OW12301   2.784   0.503   8.347
 3912SOL    HW112302   2.759   0.494   8.251
 3912SOL    HW212303   2.832   0.421   8.378
 3913SOL     OW12304   2.401   0.064   7.960
 3913SOL    HW112305   2.320   0.065   8.018
 3913SOL    HW212306   2.404   0.147   7.905
 3914SOL     OW12307   3.296   1.188   7.489
 3914SOL    HW112308   3.328   1.112   7.546
 3914SOL    HW212309   3.204   1.215   7.519
 3915SOL     OW12310   2.159   0.035   7.619
 3915SOL    HW112311   2.208   0.119   7.598
 3915SOL    HW212312   2.221  -0.030   7.664
 3916SOL     OW12313   2.797   0.236   7.928
 3916SOL    HW112314   2.749   0.277   7.850
 3916SOL    HW212315   2.896   0.234   7.909
 3917SOL     OW12316   2.938   0.683   8.912
 3917SOL    HW112317   2.858   0.622   8.915
 3917SOL    HW212318   3.019   0.630   8.888
 3918SOL     OW12319   3.089   1.570   8.241
 3918SOL    HW112320   3.110   1.644   8.176
 3918SOL    HW212321   3.157   1.570   8.314
 3919SOL     OW12322   2.321   1.152   8.189
 3919SOL    HW112323   2.250   1.125   8.254
 3919SOL    HW212324   2.295   1.124   8.096
 3920SOL     OW12325   3.133   1.797   8.039
 3920SOL    HW112326   3.177   1.861   7.975
 3920SOL    HW212327   3.083   1.849   8.109
 3921SOL     OW12328   2.894   0.549   7.464
 3921SOL    HW112329   2.853   0.631   7.425
 3921SOL    HW212330   2.958   0.575   7.537
 3922SOL     OW12331   1.940   0.556   8.834
 3922SOL    HW112332   2.032   0.555   8.793
 3922SOL    HW212333   1.934   0.630   8.901
 3923SOL     OW12334   2.423   0.222   8.595
 3923SOL    HW112335   2.461   0.138   8.632
 3923SOL    HW212336   2.335   0.241   8.639
 3924SOL     OW12337   2.728   0.454   8.090
 3924SOL    HW112338   2.696   0.526   8.028
 3924SOL    HW212339   2.752   0.373   8.037
 3925SOL     OW12340   2.879   0.039   8.201
 3925SOL    HW112341   2.807   0.044   8.132
 3925SOL    HW212342   2.855  -0.030   8.270
 3926SOL     OW12343   3.291   1.173   8.315
 3926SOL    HW112344   3.236   1.089   8.308
 3926SOL    HW212345   3.317   1.202   8.223
 3927SOL     OW12346   3.328   0.590   8.440
 3927SOL    HW112347   3.298   0.495   8.447
 3927SOL    HW212348   3.401   0.606   8.506
 3928SOL     OW12349   3.719   0.833   7.825
 3928SOL    HW112350   3.761   0.769   7.889
 3928SOL    HW212351   3.681   0.782   7.747
 3929SOL     OW12352   2.350   1.385   7.622
 3929SOL    HW112353   2.263   1.370   7.669
 3929SOL    HW212354   2.333   1.411   7.527
 3930SOL     OW12355   3.526   1.280   8.105
 3930SOL    HW112356   3.625   1.288   8.119
 3930SOL    HW212357   3.481   1.364   8.136
 3931SOL     OW12358   3.252   0.575   7.526
 3931SOL    HW112359   3.198   0.554   7.607
 3931SOL    HW212360   3.343   0.534   7.535
 3932SOL     OW12361   2.389   0.256   7.776
 3932SOL    HW112362   2.416   0.197   7.701
 3932SOL    HW212363   2.389   0.351   7.745
 3933SOL     OW12364   3.616   1.223   9.036
 3933SOL    HW112365   3.707   1.184   9.023
 3933SOL    HW212366   3.624   1.319   9.060
 3934SOL     OW12367   2.926   1.347   8.788
 3934SOL    HW112368   2.846   1.324   8.843
 3934SOL    HW212369   3.009   1.321   8.837
 3935SOL     OW12370   3.454   1.629   9.073
 3935SOL    HW112371   3.481   1.663   8.983
 3935SOL    HW212372   3.533   1.591   9.119
 3936SOL     OW12373   2.973   1.195   8.548
 3936SOL    HW112374   2.933   1.239   8.629
 3936SOL    HW212375   2.932   1.232   8.465
 3937SOL     OW12376   3.500   1.099   8.527
 3937SOL    HW112377   3.505   1.180   8.586
 3937SOL    HW212378   3.414   1.101   8.476
 3938SOL     OW12379   2.777   0.089   8.850
 3938SOL    HW112380   2.802   0.069   8.755
 3938SOL    HW212381   2.849   0.145   8.892
 3939SOL     OW12382   2.842   1.116   9.167
 3939SOL    HW112383   2.743   1.122   9.177
 3939SOL    HW212384   2.865   1.036   9.111
 3940SOL     OW12385   2.567   1.050   7.816
 3940SOL    HW112386   2.553   1.057   7.915
 3940SOL    HW212387   2.651   0.999   7.798
 3941SOL     OW12388   2.272   0.813   8.699
 3941SOL    HW112389   2.358   0.825   8.749
 3941SOL    HW212390   2.230   0.726   8.726
 3942SOL     OW12391   3.136   0.386   8.710
 3942SOL    HW112392   3.157   0.460   8.774
 3942SOL    HW212393   3.047   0.403   8.667
 3943SOL     OW12394   1.926   1.564   8.779
 3943SOL    HW112395   1.880   1.646   8.745
 3943SOL    HW212396   2.024   1.583   8.788
 3944SOL     OW12397   2.229   1.100   7.949
 3944SOL    HW112398   2.222   1.183   7.893
 3944SOL    HW212399   2.233   1.020   7.889
 3945SOL     OW12400   2.428   0.537   8.313
 3945SOL    HW112401   2.440   0.603   8.239
 3945SOL    HW212402   2.474   0.571   8.396
 3946SOL     OW12403   3.114   1.348   7.836
 3946SOL    HW112404   3.164   1.425   7.876
 3946SOL    HW212405   3.019   1.350   7.868
 3947SOL     OW12406   3.134   1.445   8.590
 3947SOL    HW112407   3.181   1.458   8.677
 3947SOL    HW212408   3.068   1.371   8.599
 3948SOL     OW12409   3.444   0.639   7.920
 3948SOL    HW112410   3.413   0.700   7.993
 3948SOL    HW212411   3.494   0.691   7.851
 3949SOL     OW12412   2.216   1.510   8.777
 3949SOL    HW112413   2.195   1.466   8.690
 3949SOL    HW212414   2.313   1.536   8.780
 3950SOL     OW12415   2.264   0.751   9.046
 3950SOL    HW112416   2.332   0.806   8.999
 3950SOL    HW212417   2.304   0.663   9.073
 3951SOL     OW12418   3.449   0.779   9.118
 3951SOL    HW112419   3.357   0.817   9.113
 3951SOL    HW212420   3.509   0.826   9.053
 3952SOL     OW12421   2.875   0.105   9.218
 3952SOL    HW112422   2.881   0.190   9.166
 3952SOL    HW212423   2.907   0.029   9.161
 3953SOL     OW12424   2.366   0.050   9.188
 3953SOL    HW112425   2.324  -0.007   9.118
 3953SOL    HW212426   2.300   0.119   9.220
 3954SOL     OW12427   2.435   0.870   8.477
 3954SOL    HW112428   2.479   0.959   8.468
 3954SOL    HW212429   2.372   0.870   8.554
 3955SOL     OW12430   3.222   0.862   8.493
 3955SOL    HW112431   3.147   0.862   8.427
 3955SOL    HW212432   3.259   0.770   8.502
 3956SOL     OW12433   3.071   0.525   7.723
 3956SOL    HW112434   3.084   0.441   7.777
 3956SOL    HW212435   3.042   0.599   7.783
 3957SOL     OW12436   2.169   0.213   8.679
 3957SOL    HW112437   2.146   0.250   8.769
 3957SOL    HW212438   2.139   0.118   8.673
 3958SOL     OW12439   1.899   1.310   8.730
 3958SOL    HW112440   1.952   1.261   8.798
 3958SOL    HW212441   1.921   1.408   8.735
 3959SOL     OW12442   2.594   0.634   8.512
 3959SOL    HW112443   2.653   0.608   8.436
 3959SOL    HW212444   2.566   0.730   8.501
 3960SOL     OW12445   3.590   0.935   9.302
 3960SOL    HW112446   3.544   0.928   9.213
 3960SOL    HW212447   3.528   0.979   9.368
 3961SOL     OW12448   2.169   0.063   8.066
 3961SOL    HW112449   2.158   0.157   8.099
 3961SOL    HW212450   2.164   0.000   8.143
 3962SOL     OW12451   3.484   0.367   7.822
 3962SOL    HW112452   3.486   0.291   7.886
 3962SOL    HW212453   3.436   0.444   7.862
 3963SOL     OW12454   2.885   0.766   8.414
 3963SOL    HW112455   2.900   0.787   8.510
 3963SOL    HW212456   2.855   0.671   8.405
 3964SOL     OW12457   2.842   1.573   9.148
 3964SOL    HW112458   2.822   1.617   9.060
 3964SOL    HW212459   2.881   1.482   9.132
 3965SOL     OW12460   3.721   1.518   9.053
 3965SOL    HW112461   3.735   1.545   8.958
 3965SOL    HW212462   3.804   1.540   9.106
 3966SOL     OW12463   2.212   0.898   9.252
 3966SOL    HW112464   2.288   0.942   9.300
 3966SOL    HW212465   2.247   0.851   9.170
 3967SOL     OW12466   3.402   0.274   7.573
 3967SOL    HW112467   3.341   0.199   7.596
 3967SOL    HW212468   3.424   0.326   7.656
 3968SOL     OW12469   3.165   0.838   7.490
 3968SOL    HW112470   3.199   0.745   7.505
 3968SOL    HW212471   3.183   0.865   7.395
 3969SOL     OW12472   2.930   1.333   8.297
 3969SOL    HW112473   2.937   1.249   8.242
 3969SOL    HW212474   2.992   1.402   8.261
 3970SOL     OW12475   2.181   0.810   8.397
 3970SOL    HW112476   2.274   0.846   8.402
 3970SOL    HW212477   2.175   0.725   8.449
 3971SOL     OW12478   2.201   0.509   8.454
 3971SOL    HW112479   2.149   0.426   8.437
 3971SOL    HW212480   2.278   0.514   8.390
 3972SOL     OW12481   3.000   0.380   9.126
 3972SOL    HW112482   2.955   0.443   9.190
 3972SOL    HW212483   3.093   0.411   9.109
 3973SOL     OW12484   3.022   0.207   8.925
 3973SOL    HW112485   3.022   0.271   9.002
 3973SOL    HW212486   3.050   0.255   8.842
 3974SOL     OW12487   1.870   1.326   7.648
 3974SOL    HW112488   1.777   1.347   7.617
 3974SOL    HW212489   1.880   1.227   7.661
 3975SOL     OW12490   1.950   1.801   8.375
 3975SOL    HW112491   1.908   1.715   8.348
 3975SOL    HW212492   2.044   1.804   8.341
 3976SOL     OW12493   2.366   1.568   8.358
 3976SOL    HW112494   2.432   1.642   8.367
 3976SOL    HW212495   2.410   1.489   8.316
 3977SOL     OW12496   2.864   0.796   8.686
 3977SOL    HW112497   2.905   0.764   8.772
 3977SOL    HW212498   2.768   0.769   8.683
 3978SOL     OW12499   1.902   0.544   8.562
 3978SOL    HW112500   1.987   0.511   8.521
 3978SOL    HW212501   1.915   0.559   8.660
 3979SOL     OW12502   2.051   0.520   9.170
 3979SOL    HW112503   2.110   0.480   9.100
 3979SOL    HW212504   1.993   0.591   9.129
 3980SOL     OW12505   3.231   0.950   9.108
 3980SOL    HW112506   3.270   1.039   9.128
 3980SOL    HW212507   3.241   0.930   9.011
 3981SOL     OW12508   2.677   0.572   7.773
 3981SOL    HW112509   2.684   0.483   7.727
 3981SOL    HW212510   2.583   0.606   7.765
 3982SOL     OW12511   3.519   0.604   8.654
 3982SOL    HW112512   3.481   0.535   8.716
 3982SOL    HW212513   3.601   0.568   8.610
 3983SOL     OW12514   2.114   1.564   9.192
 3983SOL    HW112515   2.084   1.621   9.268
 3983SOL    HW212516   2.107   1.467   9.218
 3984SOL     OW12517   2.533   0.464   8.717
 3984SOL    HW112518   2.499   0.375   8.687
 3984SOL    HW212519   2.559   0.518   8.637
 3985SOL     OW12520   2.792   1.678   8.913
 3985SOL    HW112521   2.768   1.660   8.818
 3985SOL    HW212522   2.822   1.772   8.923
 3986SOL     OW12523   2.335   0.500   7.639
 3986SOL    HW112524   2.396   0.580   7.643
 3986SOL    HW212525   2.240   0.531   7.646
 3987SOL     OW12526   2.021   1.137   8.914
 3987SOL    HW112527   2.043   1.076   8.990
 3987SOL    HW212528   2.031   1.088   8.828
 3988SOL     OW12529   3.209   1.059   8.682
 3988SOL    HW112530   3.233   0.996   8.608
 3988SOL    HW212531   3.119   1.099   8.664
 3989SOL     OW12532   3.164   0.855   7.757
 3989SOL    HW112533   3.078   0.824   7.799
 3989SOL    HW212534   3.160   0.841   7.658
 3990SOL     OW12535   3.621   1.747   8.602
 3990SOL    HW112536   3.682   1.777   8.529
 3990SOL    HW212537   3.583   1.658   8.580
 3991SOL     OW12538   3.114   1.731   8.576
 3991SOL    HW112539   3.198   1.736   8.522
 3991SOL    HW212540   3.091   1.635   8.594
 3992SOL     OW12541   1.945   1.258   8.470
 3992SOL    HW112542   1.940   1.257   8.570
 3992SOL    HW212543   1.862   1.217   8.432
 3993SOL     OW12544   2.550   1.662   9.164
 3993SOL    HW112545   2.494   1.743   9.173
 3993SOL    HW212546   2.602   1.666   9.078
 3994SOL     OW12547   3.588   0.135   7.971
 3994SOL    HW112548   3.661   0.118   7.904
 3994SOL    HW212549   3.557   0.048   8.009
 3995SOL     OW12550   3.250   1.573   7.925
 3995SOL    HW112551   3.317   1.585   7.851
 3995SOL    HW212552   3.210   1.662   7.948
 3996SOL     OW12553   1.992   1.794   9.299
 3996SOL    HW112554   1.951   1.720   9.352
 3996SOL    HW212555   2.056   1.845   9.357
 3997SOL     OW12556   3.142   0.927   8.120
 3997SOL    HW112557   3.202   0.846   8.122
 3997SOL    HW212558   3.182   0.996   8.060
 3998SOL     OW12559   2.692   1.273   8.870
 3998SOL    HW112560   2.687   1.306   8.965
 3998SOL    HW212561   2.606   1.292   8.824
 3999SOL     OW12562   2.534   1.616   7.602
 3999SOL    HW112563   2.543   1.626   7.503
 3999SOL    HW212564   2.494   1.527   7.623
 4000SOL     OW12565   3.512   1.720   8.842
 4000SOL    HW112566   3.565   1.730   8.758
 4000SOL    HW212567   3.485   1.810   8.876
 4001SOL     OW12568   3.703   0.175   8.411
 4001SOL    HW112569   3.742   0.090   8.375
 4001SOL    HW212570   3.605   0.177   8.392
 4002SOL     OW12571   2.125   0.326   8.168
 4002SOL    HW112572   2.046   0.377   8.134
 4002SOL    HW212573   2.116   0.311   8.266
 4003SOL     OW12574   3.056   1.612   7.479
 4003SOL    HW112575   3.062   1.519   7.516
 4003SOL    HW212576   2.997   1.612   7.399
 4004SOL     OW12577   2.684   1.002   8.820
 4004SOL    HW112578   2.724   1.001   8.728
 4004SOL    HW212579   2.694   1.094   8.860
 4005SOL     OW12580   2.778   0.910   7.739
 4005SOL    HW112581   2.841   0.948   7.671
 4005SOL    HW212582   2.818   0.827   7.778
 4006SOL     OW12583   3.366   1.607   7.492
 4006SOL    HW112584   3.274   1.644   7.499
 4006SOL    HW212585   3.404   1.627   7.402
 4007SOL     OW12586   2.234   1.288   8.938
 4007SOL    HW112587   2.221   1.381   8.904
 4007SOL    HW212588   2.150   1.236   8.925
 4008SOL     OW12589   3.476   1.292   8.737
 4008SOL    HW112590   3.536   1.295   8.817
 4008SOL    HW212591   3.401   1.356   8.750
 4009SOL     OW12592   2.901   1.098   8.144
 4009SOL    HW112593   2.831   1.051   8.198
 4009SOL    HW212594   2.960   1.030   8.101
 4010SOL     OW12595   2.876   0.236   8.419
 4010SOL    HW112596   2.868   0.200   8.326
 4010SOL    HW212597   2.874   0.160   8.484
 4011SOL     OW12598   2.452   1.487   7.939
 4011SOL    HW112599   2.494   1.429   7.869
 4011SOL    HW212600   2.408   1.566   7.895
 4012SOL     OW12601   3.571   0.385   8.829
 4012SOL    HW112602   3.644   0.454   8.833
 4012SOL    HW212603   3.599   0.310   8.770
 4013SOL     OW12604   2.117   1.348   7.738
 4013SOL    HW112605   2.021   1.349   7.711
 4013SOL    HW212606   2.129   1.401   7.822
 4014SOL     OW12607   1.967   1.013   9.174
 4014SOL    HW112608   1.890   0.980   9.228
 4014SOL    HW212609   2.052   0.983   9.216
 4015SOL     OW12610   2.534   0.203   8.937
 4015SOL    HW112611   2.624   0.187   8.897
 4015SOL    HW212612   2.542   0.208   9.036
 4016SOL     OW12613   1.937   0.345   7.481
 4016SOL    HW112614   1.845   0.317   7.452
 4016SOL    HW212615   1.968   0.422   7.425
 4017SOL     OW12616   3.302   0.856   8.846
 4017SOL    HW112617   3.245   0.908   8.783
 4017SOL    HW212618   3.398   0.868   8.822
 4018SOL     OW12619   1.934   0.166   7.766
 4018SOL    HW112620   1.917   0.249   7.712
 4018SOL    HW212621   2.024   0.129   7.744
 4019SOL     OW12622   3.045   1.335   7.567
 4019SOL    HW112623   2.946   1.324   7.569
 4019SOL    HW212624   3.079   1.350   7.660
 4020SOL     OW12625   2.475   0.842   8.879
 4020SOL    HW112626   2.531   0.923   8.862
 4020SOL    HW212627   2.534   0.762   8.882
 4021SOL     OW12628   3.355   1.767   8.407
 4021SOL    HW112629   3.388   1.831   8.338
 4021SOL    HW212630   3.421   1.761   8.482
 4022SOL     OW12631   2.578   0.565   9.156
 4022SOL    HW112632   2.597   0.630   9.230
 4022SOL    HW212633   2.638   0.485   9.165
 4023SOL     OW12634   3.312   1.220   9.081
 4023SOL    HW112635   3.303   1.210   9.180
 4023SOL    HW212636   3.408   1.213   9.055
 4024SOL     OW12637   2.252   1.741   9.008
 4024SOL    HW112638   2.161   1.782   9.006
 4024SOL    HW212639   2.245   1.647   9.040
 4025SOL     OW12640   3.536   0.883   8.702
 4025SOL    HW112641   3.509   0.794   8.665
 4025SOL    HW212642   3.537   0.951   8.629
 4026SOL     OW12643   3.087   0.325   7.897
 4026SOL    HW112644   3.152   0.251   7.886
 4026SOL    HW212645   3.107   0.375   7.981
 4027SOL     OW12646   2.456   0.745   8.100
 4027SOL    HW112647   2.506   0.830   8.081
 4027SOL    HW212648   2.368   0.747   8.052
 4028SOL     OW12649   3.639   0.342   9.090
 4028SOL    HW112650   3.622   0.373   8.996
 4028SOL    HW212651   3.555   0.305   9.128
 4029SOL     OW12652   3.592   0.934   8.965
 4029SOL    HW112653   3.630   1.025   8.980
 4029SOL    HW212654   3.584   0.917   8.866
 4030SOL     OW12655   2.721   1.374   7.464
 4030SOL    HW112656   2.675   1.389   7.552
 4030SOL    HW212657   2.765   1.459   7.434
 4031SOL     OW12658   2.523   1.790   8.401
 4031SOL    HW112659   2.477   1.878   8.388
 4031SOL    HW212660   2.622   1.802   8.394
 4032SOL     OW12661   2.721   0.956   8.309
 4032SOL    HW112662   2.775   0.887   8.357
 4032SOL    HW212663   2.689   1.025   8.375
 4033SOL     OW12664   2.945   0.984   7.535
 4033SOL    HW112665   2.922   1.037   7.453
 4033SOL    HW212666   3.026   0.928   7.516
 4034SOL     OW12667   3.723   1.569   8.299
 4034SOL    HW112668   3.652   1.557   8.229
 4034SOL    HW212669   3.724   1.490   8.359
 4035SOL     OW12670   2.083   1.314   9.292
 4035SOL    HW112671   2.018   1.241   9.271
 4035SOL    HW212672   2.087   1.328   9.390
 4036SOL     OW12673   1.941   1.240   8.101
 4036SOL    HW112674   1.940   1.193   8.189
 4036SOL    HW212675   2.023   1.212   8.050
 4037SOL     OW12676   2.534   1.391   9.072
 4037SOL    HW112677   2.456   1.341   9.110
 4037SOL    HW212678   2.531   1.486   9.103
 4038SOL     OW12679   3.686   0.192   8.675
 4038SOL    HW112680   3.682   0.102   8.719
 4038SOL    HW212681   3.689   0.181   8.576
 4039SOL     OW12682   2.290   0.424   7.968
 4039SOL    HW112683   2.320   0.352   7.906
 4039SOL    HW212684   2.251   0.384   8.051
 4040SOL     OW12685   3.567   1.487   8.552
 4040SOL    HW112686   3.474   1.462   8.525
 4040SOL    HW212687   3.593   1.437   8.634
 4041SOL     OW12688   2.179   0.547   8.728
 4041SOL    HW112689   2.217   0.488   8.800
 4041SOL    HW212690   2.219   0.521   8.640
 4042SOL     OW12691   2.674   1.586   8.135
 4042SOL    HW112692   2.706   1.596   8.041
 4042SOL    HW212693   2.595   1.524   8.137
 4043SOL     OW12694   3.286   0.214   8.560
 4043SOL    HW112695   3.338   0.149   8.615
 4043SOL    HW212696   3.237   0.277   8.621
 4044SOL     OW12697   2.863   0.034   8.602
 4044SOL    HW112698   2.800  -0.038   8.571
 4044SOL    HW212699   2.956  -0.002   8.602
 4045SOL     OW12700   2.632   1.330   7.749
 4045SOL    HW112701   2.586   1.243   7.766
 4045SOL    HW212702   2.723   1.327   7.790
 4046SOL     OW12703   2.480   1.567   8.732
 4046SOL    HW112704   2.475   1.649   8.789
 4046SOL    HW212705   2.569   1.564   8.687
 4047SOL     OW12706   3.214   0.052   7.616
 4047SOL    HW112707   3.249   0.011   7.532
 4047SOL    HW212708   3.124   0.014   7.636
 4048SOL     OW12709   3.162   0.453   8.139
 4048SOL    HW112710   3.103   0.533   8.143
 4048SOL    HW212711   3.177   0.418   8.232
 4049SOL     OW12712   3.455   0.221   8.330
 4049SOL    HW112713   3.371   0.220   8.384
 4049SOL    HW212714   3.457   0.304   8.274
 4050SOL     OW12715   1.901   1.077   7.748
 4050SOL    HW112716   2.000   1.066   7.739
 4050SOL    HW212717   1.861   0.991   7.780
 4051SOL     OW12718   2.737   1.646   7.785
 4051SOL    HW112719   2.660   1.611   7.731
 4051SOL    HW212720   2.705   1.717   7.847
 4052SOL     OW12721   2.092   0.628   9.423
 4052SOL    HW112722   1.999   0.626   9.460
 4052SOL    HW212723   2.093   0.589   9.331
 4053SOL     OW12724   2.087   0.275  10.306
 4053SOL    HW112725   2.122   0.258  10.398
 4053SOL    HW212726   1.999   0.230  10.294
 4054SOL     OW12727   1.881   0.368   9.957
 4054SOL    HW112728   1.799   0.411   9.996
 4054SOL    HW212729   1.853   0.295   9.894
 4055SOL     OW12730   2.431   1.275  10.475
 4055SOL    HW112731   2.338   1.268  10.438
 4055SOL    HW212732   2.442   1.364  10.519
 4056SOL     OW12733   3.417   1.511  10.013
 4056SOL    HW112734   3.360   1.495  10.094
 4056SOL    HW212735   3.358   1.521   9.933
 4057SOL     OW12736   2.997   0.703  10.027
 4057SOL    HW112737   3.054   0.781  10.002
 4057SOL    HW212738   2.937   0.729  10.103
 4058SOL     OW12739   3.617   0.607   9.541
 4058SOL    HW112740   3.605   0.594   9.442
 4058SOL    HW212741   3.587   0.526   9.590
 4059SOL     OW12742   2.630   1.144  10.333
 4059SOL    HW112743   2.552   1.161  10.393
 4059SOL    HW212744   2.664   1.231  10.297
 4060SOL     OW12745   2.712   0.798  11.133
 4060SOL    HW112746   2.708   0.874  11.198
 4060SOL    HW212747   2.734   0.834  11.042
 4061SOL     OW12748   2.547   1.012   9.975
 4061SOL    HW112749   2.616   0.996  10.045
 4061SOL    HW212750   2.474   1.069  10.013
 4062SOL     OW12751   2.197   1.435  10.371
 4062SOL    HW112752   2.119   1.404  10.318
 4062SOL    HW212753   2.255   1.493  10.314
 4063SOL     OW12754   3.322   1.505  10.649
 4063SOL    HW112755   3.346   1.599  10.675
 4063SOL    HW212756   3.306   1.451  10.731
 4064SOL     OW12757   2.300   0.392  10.809
 4064SOL    HW112758   2.382   0.336  10.818
 4064SOL    HW212759   2.219   0.334  10.813
 4065SOL     OW12760   3.465   0.447  10.047
 4065SOL    HW112761   3.391   0.493   9.997
 4065SOL    HW212762   3.516   0.515  10.100
 4066SOL     OW12763   2.093   1.713   9.793
 4066SOL    HW112764   2.127   1.790   9.847
 4066SOL    HW212765   2.137   1.713   9.703
 4067SOL     OW12766   2.092   1.434   9.848
 4067SOL    HW112767   2.066   1.530   9.848
 4067SOL    HW212768   2.021   1.380   9.893
 4068SOL     OW12769   2.102   1.091  10.196
 4068SOL    HW112770   2.116   1.007  10.248
 4068SOL    HW212771   2.047   1.155  10.251
 4069SOL     OW12772   2.482   1.786  10.749
 4069SOL    HW112773   2.390   1.769  10.784
 4069SOL    HW212774   2.510   1.878  10.775
 4070SOL     OW12775   2.468   0.964   9.433
 4070SOL    HW112776   2.475   1.048   9.379
 4070SOL    HW212777   2.514   0.977   9.521
 4071SOL     OW12778   3.456   0.114  10.790
 4071SOL    HW112779   3.438   0.181  10.718
 4071SOL    HW212780   3.453   0.160  10.879
 4072SOL     OW12781   1.984   0.643   9.873
 4072SOL    HW112782   1.939   0.555   9.890
 4072SOL    HW212783   1.983   0.697   9.957
 4073SOL     OW12784   3.704   1.767   9.669
 4073SOL    HW112785   3.758   1.738   9.749
 4073SOL    HW212786   3.734   1.857   9.640
 4074SOL     OW12787   1.889   1.596   9.427
 4074SOL    HW112788   1.870   1.500   9.448
 4074SOL    HW212789   1.856   1.654   9.502
 4075SOL     OW12790   3.551   0.922   9.922
 4075SOL    HW112791   3.646   0.893   9.930
 4075SOL    HW212792   3.543   0.987   9.847
 4076SOL     OW12793   3.503   1.108   9.742
 4076SOL    HW112794   3.589   1.110   9.690
 4076SOL    HW212795   3.517   1.155   9.830
 4077SOL     OW12796   1.975   0.737  10.907
 4077SOL    HW112797   2.063   0.724  10.952
 4077SOL    HW212798   1.962   0.834  10.885
 4078SOL     OW12799   2.475   1.365  10.036
 4078SOL    HW112800   2.426   1.278  10.045
 4078SOL    HW212801   2.452   1.408   9.949
 4079SOL     OW12802   3.155   1.228  10.733
 4079SOL    HW112803   3.192   1.155  10.675
 4079SOL    HW212804   3.207   1.233  10.818
 4080SOL     OW12805   2.671   0.004   9.812
 4080SOL    HW112806   2.711   0.095   9.803
 4080SOL    HW212807   2.571   0.012   9.818
 4081SOL     OW12808   2.059   0.976  10.574
 4081SOL    HW112809   2.148   0.931  10.560
 4081SOL    HW212810   1.986   0.911  10.555
 4082SOL     OW12811   3.387   0.999   9.500
 4082SOL    HW112812   3.324   0.923   9.513
 4082SOL    HW212813   3.435   1.017   9.586
 4083SOL     OW12814   3.049   1.792  10.926
 4083SOL    HW112815   3.073   1.852  10.850
 4083SOL    HW212816   3.056   1.697  10.896
 4084SOL     OW12817   2.179   0.251  11.111
 4084SOL    HW112818   2.250   0.322  11.117
 4084SOL    HW212819   2.091   0.290  11.139
 4085SOL     OW12820   3.328   1.417  10.263
 4085SOL    HW112821   3.269   1.423  10.343
 4085SOL    HW212822   3.313   1.329  10.217
 4086SOL     OW12823   3.529   1.714   9.882
 4086SOL    HW112824   3.488   1.691   9.794
 4086SOL    HW212825   3.511   1.640   9.947
 4087SOL     OW12826   2.460   0.729   9.580
 4087SOL    HW112827   2.484   0.798   9.512
 4087SOL    HW212828   2.382   0.762   9.634
 4088SOL     OW12829   3.143   0.345  10.254
 4088SOL    HW112830   3.057   0.295  10.241
 4088SOL    HW212831   3.205   0.291  10.310
 4089SOL     OW12832   3.438   1.662   9.617
 4089SOL    HW112833   3.527   1.708   9.620
 4089SOL    HW212834   3.417   1.638   9.522
 4090SOL     OW12835   2.669   0.605  10.775
 4090SOL    HW112836   2.622   0.602  10.864
 4090SOL    HW212837   2.618   0.550  10.709
 4091SOL     OW12838   2.835   0.890  10.882
 4091SOL    HW112839   2.881   0.806  10.853
 4091SOL    HW212840   2.779   0.924  10.807
 4092SOL     OW12841   2.853   0.410  10.552
 4092SOL    HW112842   2.776   0.444  10.606
 4092SOL    HW212843   2.819   0.359  10.473
 4093SOL     OW12844   2.903   0.701   9.739
 4093SOL    HW112845   2.929   0.697   9.835
 4093SOL    HW212846   2.818   0.650   9.725
 4094SOL     OW12847   1.938   0.811  10.099
 4094SOL    HW112848   2.037   0.799  10.108
 4094SOL    HW212849   1.914   0.906  10.120
 4095SOL     OW12850   1.992   1.821  10.881
 4095SOL    HW112851   1.982   1.806  10.980
 4095SOL    HW212852   1.906   1.857  10.845
 4096SOL     OW12853   2.727   0.348   9.505
 4096SOL    HW112854   2.786   0.411   9.456
 4096SOL    HW212855   2.746   0.254   9.476
 4097SOL     OW12856   3.224   1.144   9.855
 4097SOL    HW112857   3.307   1.115   9.807
 4097SOL    HW212858   3.175   1.211   9.799
 4098SOL     OW12859   2.412   0.196  10.195
 4098SOL    HW112860   2.407   0.191  10.295
 4098SOL    HW212861   2.414   0.292  10.166
 4099SOL     OW12862   2.870   1.456   9.787
 4099SOL    HW112863   2.824   1.528   9.735
 4099SOL    HW212864   2.866   1.476   9.885
 4100SOL     OW12865   2.213   1.801  10.163
 4100SOL    HW112866   2.263   1.715  10.169
 4100SOL    HW212867   2.278   1.878  10.160
 4101SOL     OW12868   3.657   1.066  10.183
 4101SOL    HW112869   3.595   1.051  10.107
 4101SOL    HW212870   3.605   1.077  10.268
 4102SOL     OW12871   3.089   1.550  10.816
 4102SOL    HW112872   3.095   1.473  10.880
 4102SOL    HW212873   3.037   1.524  10.736
 4103SOL     OW12874   2.183   0.943   9.552
 4103SOL    HW112875   2.265   0.982   9.510
 4103SOL    HW212876   2.156   0.861   9.503
 4104SOL     OW12877   3.320   0.735  10.038
 4104SOL    HW112878   3.315   0.670  10.113
 4104SOL    HW212879   3.400   0.794  10.051
 4105SOL     OW12880   2.323   1.266  11.037
 4105SOL    HW112881   2.273   1.267  10.951
 4105SOL    HW212882   2.260   1.248  11.113
 4106SOL     OW12883   2.973   1.776   9.547
 4106SOL    HW112884   2.913   1.714   9.597
 4106SOL    HW212885   3.004   1.732   9.462
 4107SOL     OW12886   2.064   0.285  10.808
 4107SOL    HW112887   1.984   0.345  10.795
 4107SOL    HW212888   2.054   0.236  10.894
 4108SOL     OW12889   3.494   1.377   9.391
 4108SOL    HW112890   3.462   1.471   9.381
 4108SOL    HW212891   3.418   1.314   9.379
 4109SOL     OW12892   2.326   1.743   9.633
 4109SOL    HW112893   2.359   1.782   9.719
 4109SOL    HW212894   2.402   1.736   9.568
 4110SOL     OW12895   3.262   0.107   9.736
 4110SOL    HW112896   3.238   0.070   9.646
 4110SOL    HW212897   3.361   0.123   9.740
 4111SOL     OW12898   2.111   1.785  10.551
 4111SOL    HW112899   2.168   1.720  10.601
 4111SOL    HW212900   2.095   1.752  10.458
 4112SOL     OW12901   2.802   1.698  10.214
 4112SOL    HW112902   2.882   1.641  10.235
 4112SOL    HW212903   2.753   1.658  10.137
 4113SOL     OW12904   2.244   0.700   9.790
 4113SOL    HW112905   2.289   0.610   9.787
 4113SOL    HW212906   2.150   0.689   9.823
 4114SOL     OW12907   2.476   0.122   9.427
 4114SOL    HW112908   2.574   0.100   9.434
 4114SOL    HW212909   2.445   0.105   9.334
 4115SOL     OW12910   2.643   0.264  11.059
 4115SOL    HW112911   2.710   0.203  11.102
 4115SOL    HW212912   2.570   0.283  11.124
 4116SOL     OW12913   2.750   1.514  10.505
 4116SOL    HW112914   2.727   1.489  10.411
 4116SOL    HW212915   2.811   1.445  10.544
 4117SOL     OW12916   3.213   0.590  10.743
 4117SOL    HW112917   3.241   0.547  10.828
 4117SOL    HW212918   3.238   0.686  10.744
 4118SOL     OW12919   2.665   1.402  10.234
 4118SOL    HW112920   2.755   1.416  10.192
 4118SOL    HW212921   2.594   1.404  10.163
 4119SOL     OW12922   2.784   0.503  10.209
 4119SOL    HW112923   2.759   0.494  10.113
 4119SOL    HW212924   2.832   0.421  10.240
 4120SOL     OW12925   2.401   0.064   9.822
 4120SOL    HW112926   2.320   0.065   9.880
 4120SOL    HW212927   2.404   0.147   9.767
 4121SOL     OW12928   3.296   1.188   9.351
 4121SOL    HW112929   3.328   1.112   9.408
 4121SOL    HW212930   3.204   1.215   9.381
 4122SOL     OW12931   2.159   0.035   9.481
 4122SOL    HW112932   2.208   0.119   9.460
 4122SOL    HW212933   2.221  -0.030   9.526
 4123SOL     OW12934   2.797   0.236   9.790
 4123SOL    HW112935   2.749   0.277   9.712
 4123SOL    HW212936   2.896   0.234   9.771
 4124SOL     OW12937   2.938   0.683  10.774
 4124SOL    HW112938   2.858   0.622  10.777
 4124SOL    HW212939   3.019   0.630  10.750
 4125SOL     OW12940   3.089   1.570  10.103
 4125SOL    HW112941   3.110   1.644  10.038
 4125SOL    HW212942   3.157   1.570  10.176
 4126SOL     OW12943   2.321   1.152  10.051
 4126SOL    HW112944   2.250   1.125  10.116
 4126SOL    HW212945   2.295   1.124   9.958
 4127SOL     OW12946   3.133   1.797   9.901
 4127SOL    HW112947   3.177   1.861   9.837
 4127SOL    HW212948   3.083   1.849   9.971
 4128SOL     OW12949   2.894   0.549   9.326
 4128SOL    HW112950   2.853   0.631   9.287
 4128SOL    HW212951   2.958   0.575   9.399
 4129SOL     OW12952   1.940   0.556  10.696
 4129SOL    HW112953   2.032   0.555  10.655
 4129SOL    HW212954   1.934   0.630  10.763
 4130SOL     OW12955   2.423   0.222  10.457
 4130SOL    HW112956   2.461   0.138  10.494
 4130SOL    HW212957   2.335   0.241  10.501
 4131SOL     OW12958   2.728   0.454   9.952
 4131SOL    HW112959   2.696   0.526   9.890
 4131SOL    HW212960   2.752   0.373   9.899
 4132SOL     OW12961   2.879   0.039  10.063
 4132SOL    HW112962   2.807   0.044   9.994
 4132SOL    HW212963   2.855  -0.030  10.132
 4133SOL     OW12964   3.291   1.173  10.177
 4133SOL    HW112965   3.236   1.089  10.170
 4133SOL    HW212966   3.317   1.202  10.085
 4134SOL     OW12967   3.328   0.590  10.302
 4134SOL    HW112968   3.298   0.495  10.309
 4134SOL    HW212969   3.401   0.606  10.368
 4135SOL     OW12970   3.719   0.833   9.687
 4135SOL    HW112971   3.761   0.769   9.751
 4135SOL    HW212972   3.681   0.782   9.609
 4136SOL     OW12973   2.350   1.385   9.484
 4136SOL    HW112974   2.263   1.370   9.531
 4136SOL    HW212975   2.333   1.411   9.389
 4137SOL     OW12976   3.526   1.280   9.967
 4137SOL    HW112977   3.625   1.288   9.981
 4137SOL    HW212978   3.481   1.364   9.998
 4138SOL     OW12979   3.252   0.575   9.388
 4138SOL    HW112980   3.198   0.554   9.469
 4138SOL    HW212981   3.343   0.534   9.397
 4139SOL     OW12982   2.389   0.256   9.638
 4139SOL    HW112983   2.416   0.197   9.563
 4139SOL    HW212984   2.389   0.351   9.607
 4140SOL     OW12985   3.616   1.223  10.898
 4140SOL    HW112986   3.707   1.184  10.885
 4140SOL    HW212987   3.624   1.319  10.922
 4141SOL     OW12988   2.926   1.347  10.650
 4141SOL    HW112989   2.846   1.324  10.705
 4141SOL    HW212990   3.009   1.321  10.699
 4142SOL     OW12991   2.973   1.195  10.410
 4142SOL    HW112992   2.933   1.239  10.491
 4142SOL    HW212993   2.932   1.232  10.327
 4143SOL     OW12994   3.500   1.099  10.389
 4143SOL    HW112995   3.505   1.180  10.448
 4143SOL    HW212996   3.414   1.101  10.338
 4144SOL     OW12997   2.777   0.089  10.712
 4144SOL    HW112998   2.802   0.069  10.617
 4144SOL    HW212999   2.849   0.145  10.754
 4145SOL     OW13000   2.567   1.050   9.678
 4145SOL    HW113001   2.553   1.057   9.777
 4145SOL    HW213002   2.651   0.999   9.660
 4146SOL     OW13003   2.272   0.813  10.561
 4146SOL    HW113004   2.358   0.825  10.611
 4146SOL    HW213005   2.230   0.726  10.588
 4147SOL     OW13006   3.136   0.386  10.572
 4147SOL    HW113007   3.157   0.460  10.636
 4147SOL    HW213008   3.047   0.403  10.529
 4148SOL     OW13009   1.926   1.564  10.641
 4148SOL    HW113010   1.880   1.646  10.607
 4148SOL    HW213011   2.024   1.583  10.650
 4149SOL     OW13012   2.229   1.100   9.811
 4149SOL    HW113013   2.222   1.183   9.755
 4149SOL    HW213014   2.233   1.020   9.751
 4150SOL     OW13015   2.428   0.537  10.175
 4150SOL    HW113016   2.440   0.603  10.101
 4150SOL    HW213017   2.474   0.571  10.258
 4151SOL     OW13018   3.114   1.348   9.698
 4151SOL    HW113019   3.164   1.425   9.738
 4151SOL    HW213020   3.019   1.350   9.730
 4152SOL     OW13021   3.134   1.445  10.452
 4152SOL    HW113022   3.181   1.458  10.539
 4152SOL    HW213023   3.068   1.371  10.461
 4153SOL     OW13024   3.444   0.639   9.782
 4153SOL    HW113025   3.413   0.700   9.855
 4153SOL    HW213026   3.494   0.691   9.713
 4154SOL     OW13027   2.216   1.510  10.639
 4154SOL    HW113028   2.195   1.466  10.552
 4154SOL    HW213029   2.313   1.536  10.642
 4155SOL     OW13030   2.264   0.751  10.908
 4155SOL    HW113031   2.332   0.806  10.861
 4155SOL    HW213032   2.304   0.663  10.935
 4156SOL     OW13033   3.449   0.779  10.980
 4156SOL    HW113034   3.357   0.817  10.975
 4156SOL    HW213035   3.509   0.826  10.915
 4157SOL     OW13036   2.435   0.870  10.339
 4157SOL    HW113037   2.479   0.959  10.330
 4157SOL    HW213038   2.372   0.870  10.416
 4158SOL     OW13039   3.222   0.862  10.355
 4158SOL    HW113040   3.147   0.862  10.289
 4158SOL    HW213041   3.259   0.770  10.364
 4159SOL     OW13042   3.071   0.525   9.585
 4159SOL    HW113043   3.084   0.441   9.639
 4159SOL    HW213044   3.042   0.599   9.645
 4160SOL     OW13045   2.169   0.213  10.541
 4160SOL    HW113046   2.146   0.250  10.631
 4160SOL    HW213047   2.139   0.118  10.535
 4161SOL     OW13048   1.899   1.310  10.592
 4161SOL    HW113049   1.952   1.261  10.660
 4161SOL    HW213050   1.921   1.408  10.597
 4162SOL     OW13051   2.594   0.634  10.374
 4162SOL    HW113052   2.653   0.608  10.298
 4162SOL    HW213053   2.566   0.730  10.363
 4163SOL     OW13054   2.169   0.063   9.928
 4163SOL    HW113055   2.158   0.157   9.961
 4163SOL    HW213056   2.164   0.000  10.005
 4164SOL     OW13057   3.484   0.367   9.684
 4164SOL    HW113058   3.486   0.291   9.748
 4164SOL    HW213059   3.436   0.444   9.724
 4165SOL     OW13060   2.885   0.766  10.276
 4165SOL    HW113061   2.900   0.787  10.372
 4165SOL    HW213062   2.855   0.671  10.267
 4166SOL     OW13063   2.842   1.573  11.010
 4166SOL    HW113064   2.822   1.617  10.922
 4166SOL    HW213065   2.881   1.482  10.994
 4167SOL     OW13066   3.721   1.518  10.915
 4167SOL    HW113067   3.735   1.545  10.820
 4167SOL    HW213068   3.804   1.540  10.968
 4168SOL     OW13069   2.212   0.898  11.114
 4168SOL    HW113070   2.288   0.942  11.162
 4168SOL    HW213071   2.247   0.851  11.032
 4169SOL     OW13072   3.402   0.274   9.435
 4169SOL    HW113073   3.341   0.199   9.458
 4169SOL    HW213074   3.424   0.326   9.518
 4170SOL     OW13075   3.165   0.838   9.352
 4170SOL    HW113076   3.199   0.745   9.367
 4170SOL    HW213077   3.183   0.865   9.257
 4171SOL     OW13078   2.930   1.333  10.159
 4171SOL    HW113079   2.937   1.249  10.104
 4171SOL    HW213080   2.992   1.402  10.123
 4172SOL     OW13081   2.181   0.810  10.259
 4172SOL    HW113082   2.274   0.846  10.264
 4172SOL    HW213083   2.175   0.725  10.311
 4173SOL     OW13084   2.201   0.509  10.316
 4173SOL    HW113085   2.149   0.426  10.299
 4173SOL    HW213086   2.278   0.514  10.252
 4174SOL     OW13087   3.022   0.207  10.787
 4174SOL    HW113088   3.022   0.271  10.864
 4174SOL    HW213089   3.050   0.255  10.704
 4175SOL     OW13090   1.870   1.326   9.510
 4175SOL    HW113091   1.777   1.347   9.479
 4175SOL    HW213092   1.880   1.227   9.523
 4176SOL     OW13093   1.950   1.801  10.237
 4176SOL    HW113094   1.908   1.715  10.210
 4176SOL    HW213095   2.044   1.804  10.203
 4177SOL     OW13096   2.366   1.568  10.220
 4177SOL    HW113097   2.432   1.642  10.229
 4177SOL    HW213098   2.410   1.489  10.178
 4178SOL     OW13099   2.864   0.796  10.548
 4178SOL    HW113100   2.905   0.764  10.634
 4178SOL    HW213101   2.768   0.769  10.545
 4179SOL     OW13102   1.902   0.544  10.424
 4179SOL    HW113103   1.987   0.511  10.383
 4179SOL    HW213104   1.915   0.559  10.522
 4180SOL     OW13105   2.677   0.572   9.635
 4180SOL    HW113106   2.684   0.483   9.589
 4180SOL    HW213107   2.583   0.606   9.627
 4181SOL     OW13108   3.519   0.604  10.516
 4181SOL    HW113109   3.481   0.535  10.578
 4181SOL    HW213110   3.601   0.568  10.472
 4182SOL     OW13111   2.114   1.564  11.054
 4182SOL    HW113112   2.084   1.621  11.130
 4182SOL    HW213113   2.107   1.467  11.080
 4183SOL     OW13114   2.533   0.464  10.579
 4183SOL    HW113115   2.499   0.375  10.549
 4183SOL    HW213116   2.559   0.518  10.499
 4184SOL     OW13117   2.792   1.678  10.775
 4184SOL    HW113118   2.768   1.660  10.680
 4184SOL    HW213119   2.822   1.772  10.785
 4185SOL     OW13120   2.335   0.500   9.501
 4185SOL    HW113121   2.396   0.580   9.505
 4185SOL    HW213122   2.240   0.531   9.508
 4186SOL     OW13123   2.021   1.137  10.776
 4186SOL    HW113124   2.043   1.076  10.852
 4186SOL    HW213125   2.031   1.088  10.690
 4187SOL     OW13126   3.209   1.059  10.544
 4187SOL    HW113127   3.233   0.996  10.470
 4187SOL    HW213128   3.119   1.099  10.526
 4188SOL     OW13129   3.164   0.855   9.619
 4188SOL    HW113130   3.078   0.824   9.661
 4188SOL    HW213131   3.160   0.841   9.520
 4189SOL     OW13132   3.621   1.747  10.464
 4189SOL    HW113133   3.682   1.777  10.391
 4189SOL    HW213134   3.583   1.658  10.442
 4190SOL     OW13135   3.114   1.731  10.438
 4190SOL    HW113136   3.198   1.736  10.384
 4190SOL    HW213137   3.091   1.635  10.456
 4191SOL     OW13138   1.945   1.258  10.332
 4191SOL    HW113139   1.940   1.257  10.432
 4191SOL    HW213140   1.862   1.217  10.294
 4192SOL     OW13141   3.588   0.135   9.833
 4192SOL    HW113142   3.661   0.118   9.766
 4192SOL    HW213143   3.557   0.048   9.871
 4193SOL     OW13144   3.250   1.573   9.787
 4193SOL    HW113145   3.317   1.585   9.713
 4193SOL    HW213146   3.210   1.662   9.810
 4194SOL     OW13147   3.142   0.927   9.982
 4194SOL    HW113148   3.202   0.846   9.984
 4194SOL    HW213149   3.182   0.996   9.922
 4195SOL     OW13150   2.692   1.273  10.732
 4195SOL    HW113151   2.687   1.306  10.827
 4195SOL    HW213152   2.606   1.292  10.686
 4196SOL     OW13153   2.534   1.616   9.464
 4196SOL    HW113154   2.543   1.626   9.365
 4196SOL    HW213155   2.494   1.527   9.485
 4197SOL     OW13156   3.512   1.720  10.704
 4197SOL    HW113157   3.565   1.730  10.620
 4197SOL    HW213158   3.485   1.810  10.738
 4198SOL     OW13159   3.703   0.175  10.273
 4198SOL    HW113160   3.742   0.090  10.237
 4198SOL    HW213161   3.605   0.177  10.254
 4199SOL     OW13162   2.125   0.326  10.030
 4199SOL    HW113163   2.046   0.377   9.996
 4199SOL    HW213164   2.116   0.311  10.128
 4200SOL     OW13165   3.056   1.612   9.341
 4200SOL    HW113166   3.062   1.519   9.378
 4200SOL    HW213167   2.997   1.612   9.261
 4201SOL     OW13168   2.684   1.002  10.682
 4201SOL    HW113169   2.724   1.001  10.590
 4201SOL    HW213170   2.694   1.094  10.722
 4202SOL     OW13171   2.778   0.910   9.601
 4202SOL    HW113172   2.841   0.948   9.533
 4202SOL    HW213173   2.818   0.827   9.640
 4203SOL     OW13174   3.366   1.607   9.354
 4203SOL    HW113175   3.274   1.644   9.361
 4203SOL    HW213176   3.404   1.627   9.264
 4204SOL     OW13177   2.234   1.288  10.800
 4204SOL    HW113178   2.221   1.381  10.766
 4204SOL    HW213179   2.150   1.236  10.787
 4205SOL     OW13180   3.476   1.292  10.599
 4205SOL    HW113181   3.536   1.295  10.679
 4205SOL    HW213182   3.401   1.356  10.612
 4206SOL     OW13183   2.901   1.098  10.006
 4206SOL    HW113184   2.831   1.051  10.060
 4206SOL    HW213185   2.960   1.030   9.963
 4207SOL     OW13186   2.876   0.236  10.281
 4207SOL    HW113187   2.868   0.200  10.188
 4207SOL    HW213188   2.874   0.160  10.346
 4208SOL     OW13189   2.452   1.487   9.801
 4208SOL    HW113190   2.494   1.429   9.731
 4208SOL    HW213191   2.408   1.566   9.757
 4209SOL     OW13192   3.571   0.385  10.691
 4209SOL    HW113193   3.644   0.454  10.695
 4209SOL    HW213194   3.599   0.310  10.632
 4210SOL     OW13195   2.117   1.348   9.600
 4210SOL    HW113196   2.021   1.349   9.573
 4210SOL    HW213197   2.129   1.401   9.684
 4211SOL     OW13198   1.967   1.013  11.036
 4211SOL    HW113199   1.890   0.980  11.090
 4211SOL    HW213200   2.052   0.983  11.078
 4212SOL     OW13201   2.534   0.203  10.799
 4212SOL    HW113202   2.624   0.187  10.759
 4212SOL    HW213203   2.542   0.208  10.898
 4213SOL     OW13204   1.937   0.345   9.343
 4213SOL    HW113205   1.845   0.317   9.314
 4213SOL    HW213206   1.968   0.422   9.287
 4214SOL     OW13207   3.302   0.856  10.708
 4214SOL    HW113208   3.245   0.908  10.645
 4214SOL    HW213209   3.398   0.868  10.684
 4215SOL     OW13210   1.934   0.166   9.628
 4215SOL    HW113211   1.917   0.249   9.574
 4215SOL    HW213212   2.024   0.129   9.606
 4216SOL     OW13213   3.045   1.335   9.429
 4216SOL    HW113214   2.946   1.324   9.431
 4216SOL    HW213215   3.079   1.350   9.522
 4217SOL     OW13216   2.475   0.842  10.741
 4217SOL    HW113217   2.531   0.923  10.724
 4217SOL    HW213218   2.534   0.762  10.744
 4218SOL     OW13219   3.355   1.767  10.269
 4218SOL    HW113220   3.388   1.831  10.200
 4218SOL    HW213221   3.421   1.761  10.344
 4219SOL     OW13222   2.578   0.565  11.018
 4219SOL    HW113223   2.597   0.630  11.092
 4219SOL    HW213224   2.638   0.485  11.027
 4220SOL     OW13225   2.252   1.741  10.870
 4220SOL    HW113226   2.161   1.782  10.868
 4220SOL    HW213227   2.245   1.647  10.902
 4221SOL     OW13228   3.536   0.883  10.564
 4221SOL    HW113229   3.509   0.794  10.527
 4221SOL    HW213230   3.537   0.951  10.491
 4222SOL     OW13231   3.087   0.325   9.759
 4222SOL    HW113232   3.152   0.251   9.748
 4222SOL    HW213233   3.107   0.375   9.843
 4223SOL     OW13234   2.456   0.745   9.962
 4223SOL    HW113235   2.506   0.830   9.943
 4223SOL    HW213236   2.368   0.747   9.914
 4224SOL     OW13237   3.639   0.342  10.952
 4224SOL    HW113238   3.622   0.373  10.858
 4224SOL    HW213239   3.555   0.305  10.990
 4225SOL     OW13240   3.592   0.934  10.827
 4225SOL    HW113241   3.630   1.025  10.842
 4225SOL    HW213242   3.584   0.917  10.728
 4226SOL     OW13243   2.721   1.374   9.326
 4226SOL    HW113244   2.675   1.389   9.414
 4226SOL    HW213245   2.765   1.459   9.296
 4227SOL     OW13246   2.523   1.790  10.263
 4227SOL    HW113247   2.477   1.878  10.250
 4227SOL    HW213248   2.622   1.802  10.256
 4228SOL     OW13249   2.721   0.956  10.171
 4228SOL    HW113250   2.775   0.887  10.219
 4228SOL    HW213251   2.689   1.025  10.237
 4229SOL     OW13252   2.945   0.984   9.397
 4229SOL    HW113253   2.922   1.037   9.315
 4229SOL    HW213254   3.026   0.928   9.378
 4230SOL     OW13255   3.723   1.569  10.161
 4230SOL    HW113256   3.652   1.557  10.091
 4230SOL    HW213257   3.724   1.490  10.221
 4231SOL     OW13258   1.941   1.240   9.963
 4231SOL    HW113259   1.940   1.193  10.051
 4231SOL    HW213260   2.023   1.212   9.912
 4232SOL     OW13261   2.534   1.391  10.934
 4232SOL    HW113262   2.456   1.341  10.972
 4232SOL    HW213263   2.531   1.486  10.965
 4233SOL     OW13264   3.686   0.192  10.537
 4233SOL    HW113265   3.682   0.102  10.581
 4233SOL    HW213266   3.689   0.181  10.438
 4234SOL     OW13267   2.290   0.424   9.830
 4234SOL    HW113268   2.320   0.352   9.768
 4234SOL    HW213269   2.251   0.384   9.913
 4235SOL     OW13270   3.567   1.487  10.414
 4235SOL    HW113271   3.474   1.462  10.387
 4235SOL    HW213272   3.593   1.437  10.496
 4236SOL     OW13273   2.179   0.547  10.590
 4236SOL    HW113274   2.217   0.488  10.662
 4236SOL    HW213275   2.219   0.521  10.502
 4237SOL     OW13276   2.674   1.586   9.997
 4237SOL    HW113277   2.706   1.596   9.903
 4237SOL    HW213278   2.595   1.524   9.999
 4238SOL     OW13279   3.286   0.214  10.422
 4238SOL    HW113280   3.338   0.149  10.477
 4238SOL    HW213281   3.237   0.277  10.483
 4239SOL     OW13282   2.863   0.034  10.464
 4239SOL    HW113283   2.800  -0.038  10.433
 4239SOL    HW213284   2.956  -0.002  10.464
 4240SOL     OW13285   2.632   1.330   9.611
 4240SOL    HW113286   2.586   1.243   9.628
 4240SOL    HW213287   2.723   1.327   9.652
 4241SOL     OW13288   2.480   1.567  10.594
 4241SOL    HW113289   2.475   1.649  10.651
 4241SOL    HW213290   2.569   1.564  10.549
 4242SOL     OW13291   3.214   0.052   9.478
 4242SOL    HW113292   3.249   0.011   9.394
 4242SOL    HW213293   3.124   0.014   9.498
 4243SOL     OW13294   3.162   0.453  10.001
 4243SOL    HW113295   3.103   0.533  10.005
 4243SOL    HW213296   3.177   0.418  10.094
 4244SOL     OW13297   3.455   0.221  10.192
 4244SOL    HW113298   3.371   0.220  10.246
 4244SOL    HW213299   3.457   0.304  10.136
 4245SOL     OW13300   1.901   1.077   9.610
 4245SOL    HW113301   2.000   1.066   9.601
 4245SOL    HW213302   1.861   0.991   9.642
 4246SOL     OW13303   2.737   1.646   9.647
 4246SOL    HW113304   2.660   1.611   9.593
 4246SOL    HW213305   2.705   1.717   9.709
 4247SOL     OW13306   2.092   2.490   0.113
 4247SOL    HW113307   1.999   2.488   0.150
 4247SOL    HW213308   2.093   2.451   0.021
 4248SOL     OW13309   1.881   2.230   0.647
 4248SOL    HW113310   1.799   2.273   0.686
 4248SOL    HW213311   1.853   2.157   0.584
 4249SOL     OW13312   2.431   3.137   1.165
 4249SOL    HW113313   2.338   3.130   1.128
 4249SOL    HW213314   2.442   3.226   1.209
 4250SOL     OW13315   3.417   3.373   0.703
 4250SOL    HW113316   3.360   3.357   0.784
 4250SOL    HW213317   3.358   3.383   0.623
 4251SOL     OW13318   2.997   2.565   0.717
 4251SOL    HW113319   3.054   2.643   0.692
 4251SOL    HW213320   2.937   2.591   0.793
 4252SOL     OW13321   3.617   2.469   0.231
 4252SOL    HW113322   3.605   2.456   0.132
 4252SOL    HW213323   3.587   2.388   0.280
 4253SOL     OW13324   2.630   3.006   1.023
 4253SOL    HW113325   2.552   3.023   1.083
 4253SOL    HW213326   2.664   3.093   0.987
 4254SOL     OW13327   2.712   2.660   1.823
 4254SOL    HW113328   2.708   2.736   1.888
 4254SOL    HW213329   2.734   2.696   1.732
 4255SOL     OW13330   2.547   2.874   0.665
 4255SOL    HW113331   2.616   2.858   0.735
 4255SOL    HW213332   2.474   2.931   0.703
 4256SOL     OW13333   2.548   3.023   1.803
 4256SOL    HW113334   2.608   3.102   1.817
 4256SOL    HW213335   2.462   3.054   1.762
 4257SOL     OW13336   2.197   3.297   1.061
 4257SOL    HW113337   2.119   3.266   1.008
 4257SOL    HW213338   2.255   3.355   1.004
 4258SOL     OW13339   3.322   3.367   1.339
 4258SOL    HW113340   3.346   3.461   1.365
 4258SOL    HW213341   3.306   3.313   1.421
 4259SOL     OW13342   3.465   2.309   0.737
 4259SOL    HW113343   3.391   2.355   0.687
 4259SOL    HW213344   3.516   2.377   0.790
 4260SOL     OW13345   2.093   3.575   0.483
 4260SOL    HW113346   2.127   3.652   0.537
 4260SOL    HW213347   2.137   3.575   0.393
 4261SOL     OW13348   2.989   3.203   1.690
 4261SOL    HW113349   3.036   3.203   1.778
 4261SOL    HW213350   2.941   3.116   1.679
 4262SOL     OW13351   2.092   3.296   0.538
 4262SOL    HW113352   2.066   3.392   0.538
 4262SOL    HW213353   2.021   3.242   0.583
 4263SOL     OW13354   2.102   2.953   0.886
 4263SOL    HW113355   2.116   2.869   0.938
 4263SOL    HW213356   2.047   3.017   0.941
 4264SOL     OW13357   2.482   3.648   1.439
 4264SOL    HW113358   2.390   3.631   1.474
 4264SOL    HW213359   2.510   3.740   1.465
 4265SOL     OW13360   2.468   2.826   0.123
 4265SOL    HW113361   2.475   2.910   0.069
 4265SOL    HW213362   2.514   2.839   0.211
 4266SOL     OW13363   3.456   1.976   1.480
 4266SOL    HW113364   3.438   2.043   1.408
 4266SOL    HW213365   3.453   2.022   1.569
 4267SOL     OW13366   1.984   2.505   0.563
 4267SOL    HW113367   1.939   2.417   0.580
 4267SOL    HW213368   1.983   2.559   0.647
 4268SOL     OW13369   3.704   3.629   0.359
 4268SOL    HW113370   3.758   3.600   0.439
 4268SOL    HW213371   3.734   3.719   0.330
 4269SOL     OW13372   1.889   3.458   0.117
 4269SOL    HW113373   1.870   3.362   0.138
 4269SOL    HW213374   1.856   3.516   0.192
 4270SOL     OW13375   3.551   2.784   0.612
 4270SOL    HW113376   3.646   2.755   0.620
 4270SOL    HW213377   3.543   2.849   0.537
 4271SOL     OW13378   3.503   2.970   0.432
 4271SOL    HW113379   3.589   2.972   0.380
 4271SOL    HW213380   3.517   3.017   0.520
 4272SOL     OW13381   1.975   2.599   1.597
 4272SOL    HW113382   2.063   2.586   1.642
 4272SOL    HW213383   1.962   2.696   1.575
 4273SOL     OW13384   2.475   3.227   0.726
 4273SOL    HW113385   2.426   3.140   0.735
 4273SOL    HW213386   2.452   3.270   0.639
 4274SOL     OW13387   3.155   3.090   1.423
 4274SOL    HW113388   3.192   3.017   1.365
 4274SOL    HW213389   3.207   3.095   1.508
 4275SOL     OW13390   2.671   1.866   0.502
 4275SOL    HW113391   2.711   1.957   0.493
 4275SOL    HW213392   2.571   1.874   0.508
 4276SOL     OW13393   2.059   2.838   1.264
 4276SOL    HW113394   2.148   2.793   1.250
 4276SOL    HW213395   1.986   2.773   1.245
 4277SOL     OW13396   3.387   2.861   0.190
 4277SOL    HW113397   3.324   2.785   0.203
 4277SOL    HW213398   3.435   2.879   0.276
 4278SOL     OW13399   3.049   3.654   1.616
 4278SOL    HW113400   3.073   3.714   1.540
 4278SOL    HW213401   3.056   3.559   1.586
 4279SOL     OW13402   3.328   3.279   0.953
 4279SOL    HW113403   3.269   3.285   1.033
 4279SOL    HW213404   3.313   3.191   0.907
 4280SOL     OW13405   3.529   3.576   0.572
 4280SOL    HW113406   3.488   3.553   0.484
 4280SOL    HW213407   3.511   3.502   0.637
 4281SOL     OW13408   2.460   2.591   0.270
 4281SOL    HW113409   2.484   2.660   0.202
 4281SOL    HW213410   2.382   2.624   0.324
 4282SOL     OW13411   3.143   2.207   0.944
 4282SOL    HW113412   3.057   2.157   0.931
 4282SOL    HW213413   3.205   2.153   1.000
 4283SOL     OW13414   3.438   3.524   0.307
 4283SOL    HW113415   3.527   3.570   0.310
 4283SOL    HW213416   3.417   3.500   0.212
 4284SOL     OW13417   2.669   2.467   1.465
 4284SOL    HW113418   2.622   2.464   1.554
 4284SOL    HW213419   2.618   2.412   1.399
 4285SOL     OW13420   3.256   2.331   1.674
 4285SOL    HW113421   3.236   2.374   1.762
 4285SOL    HW213422   3.334   2.269   1.683
 4286SOL     OW13423   2.835   2.752   1.572
 4286SOL    HW113424   2.881   2.668   1.543
 4286SOL    HW213425   2.779   2.786   1.497
 4287SOL     OW13426   2.853   2.272   1.242
 4287SOL    HW113427   2.776   2.306   1.296
 4287SOL    HW213428   2.819   2.221   1.163
 4288SOL     OW13429   2.903   2.563   0.429
 4288SOL    HW113430   2.929   2.559   0.525
 4288SOL    HW213431   2.818   2.512   0.415
 4289SOL     OW13432   1.938   2.673   0.789
 4289SOL    HW113433   2.037   2.661   0.798
 4289SOL    HW213434   1.914   2.768   0.810
 4290SOL     OW13435   1.992   3.683   1.571
 4290SOL    HW113436   1.982   3.668   1.670
 4290SOL    HW213437   1.906   3.719   1.535
 4291SOL     OW13438   2.727   2.210   0.195
 4291SOL    HW113439   2.786   2.273   0.146
 4291SOL    HW213440   2.746   2.116   0.166
 4292SOL     OW13441   3.581   2.447   1.831
 4292SOL    HW113442   3.555   2.536   1.795
 4292SOL    HW213443   3.579   2.379   1.758
 4293SOL     OW13444   3.224   3.006   0.545
 4293SOL    HW113445   3.307   2.977   0.497
 4293SOL    HW213446   3.175   3.073   0.489
 4294SOL     OW13447   2.870   3.318   0.477
 4294SOL    HW113448   2.824   3.390   0.425
 4294SOL    HW213449   2.866   3.338   0.575
 4295SOL     OW13450   2.213   3.663   0.853
 4295SOL    HW113451   2.263   3.577   0.859
 4295SOL    HW213452   2.278   3.740   0.850
 4296SOL     OW13453   3.657   2.928   0.873
 4296SOL    HW113454   3.595   2.913   0.797
 4296SOL    HW213455   3.605   2.939   0.958
 4297SOL     OW13456   3.089   3.412   1.506
 4297SOL    HW113457   3.095   3.335   1.570
 4297SOL    HW213458   3.037   3.386   1.426
 4298SOL     OW13459   2.183   2.805   0.242
 4298SOL    HW113460   2.265   2.844   0.200
 4298SOL    HW213461   2.156   2.723   0.193
 4299SOL     OW13462   3.320   2.597   0.728
 4299SOL    HW113463   3.315   2.532   0.803
 4299SOL    HW213464   3.400   2.656   0.741
 4300SOL     OW13465   2.323   3.128   1.727
 4300SOL    HW113466   2.273   3.129   1.641
 4300SOL    HW213467   2.260   3.110   1.803
 4301SOL     OW13468   2.973   3.638   0.237
 4301SOL    HW113469   2.913   3.576   0.287
 4301SOL    HW213470   3.004   3.594   0.152
 4302SOL     OW13471   2.064   2.147   1.498
 4302SOL    HW113472   1.984   2.207   1.485
 4302SOL    HW213473   2.054   2.098   1.584
 4303SOL     OW13474   3.494   3.239   0.081
 4303SOL    HW113475   3.462   3.333   0.071
 4303SOL    HW213476   3.418   3.176   0.069
 4304SOL     OW13477   2.326   3.605   0.323
 4304SOL    HW113478   2.359   3.644   0.409
 4304SOL    HW213479   2.402   3.598   0.258
 4305SOL     OW13480   3.262   1.969   0.426
 4305SOL    HW113481   3.238   1.932   0.336
 4305SOL    HW213482   3.361   1.985   0.430
 4306SOL     OW13483   2.111   3.647   1.241
 4306SOL    HW113484   2.168   3.582   1.291
 4306SOL    HW213485   2.095   3.614   1.148
 4307SOL     OW13486   2.802   3.560   0.904
 4307SOL    HW113487   2.882   3.503   0.925
 4307SOL    HW213488   2.753   3.520   0.827
 4308SOL     OW13489   2.244   2.562   0.480
 4308SOL    HW113490   2.289   2.472   0.477
 4308SOL    HW213491   2.150   2.551   0.513
 4309SOL     OW13492   3.409   2.084   1.729
 4309SOL    HW113493   3.404   2.121   1.821
 4309SOL    HW213494   3.337   2.015   1.717
 4310SOL     OW13495   2.476   1.984   0.117
 4310SOL    HW113496   2.574   1.962   0.124
 4310SOL    HW213497   2.445   1.967   0.024
 4311SOL     OW13498   2.643   2.126   1.749
 4311SOL    HW113499   2.710   2.065   1.792
 4311SOL    HW213500   2.570   2.145   1.814
 4312SOL     OW13501   2.750   3.376   1.195
 4312SOL    HW113502   2.727   3.351   1.101
 4312SOL    HW213503   2.811   3.307   1.234
 4313SOL     OW13504   3.213   2.452   1.433
 4313SOL    HW113505   3.241   2.409   1.518
 4313SOL    HW213506   3.238   2.548   1.434
 4314SOL     OW13507   2.665   3.264   0.924
 4314SOL    HW113508   2.755   3.278   0.882
 4314SOL    HW213509   2.594   3.266   0.853
 4315SOL     OW13510   2.784   2.365   0.899
 4315SOL    HW113511   2.759   2.356   0.803
 4315SOL    HW213512   2.832   2.283   0.930
 4316SOL     OW13513   2.401   1.926   0.512
 4316SOL    HW113514   2.320   1.927   0.570
 4316SOL    HW213515   2.404   2.009   0.457
 4317SOL     OW13516   3.296   3.050   0.041
 4317SOL    HW113517   3.328   2.974   0.098
 4317SOL    HW213518   3.204   3.077   0.071
 4318SOL     OW13519   2.159   1.897   0.171
 4318SOL    HW113520   2.208   1.981   0.150
 4318SOL    HW213521   2.221   1.832   0.216
 4319SOL     OW13522   2.797   2.098   0.480
 4319SOL    HW113523   2.749   2.139   0.402
 4319SOL    HW213524   2.896   2.096   0.461
 4320SOL     OW13525   2.938   2.545   1.464
 4320SOL    HW113526   2.858   2.484   1.467
 4320SOL    HW213527   3.019   2.492   1.440
 4321SOL     OW13528   3.089   3.432   0.793
 4321SOL    HW113529   3.110   3.506   0.728
 4321SOL    HW213530   3.157   3.432   0.866
 4322SOL     OW13531   2.321   3.014   0.741
 4322SOL    HW113532   2.250   2.987   0.806
 4322SOL    HW213533   2.295   2.986   0.648
 4323SOL     OW13534   3.133   3.659   0.591
 4323SOL    HW113535   3.177   3.723   0.527
 4323SOL    HW213536   3.083   3.711   0.661
 4324SOL     OW13537   2.894   2.411   0.016
 4324SOL    HW113538   2.853   2.493  -0.023
 4324SOL    HW213539   2.958   2.437   0.089
 4325SOL     OW13540   1.940   2.418   1.386
 4325SOL    HW113541   2.032   2.417   1.345
 4325SOL    HW213542   1.934   2.492   1.453
 4326SOL     OW13543   2.423   2.084   1.147
 4326SOL    HW113544   2.461   2.000   1.184
 4326SOL    HW213545   2.335   2.103   1.191
 4327SOL     OW13546   2.728   2.316   0.642
 4327SOL    HW113547   2.696   2.388   0.580
 4327SOL    HW213548   2.752   2.235   0.589
 4328SOL     OW13549   2.879   1.901   0.753
 4328SOL    HW113550   2.807   1.906   0.684
 4328SOL    HW213551   2.855   1.832   0.822
 4329SOL     OW13552   3.291   3.035   0.867
 4329SOL    HW113553   3.236   2.951   0.860
 4329SOL    HW213554   3.317   3.064   0.775
 4330SOL     OW13555   3.328   2.452   0.992
 4330SOL    HW113556   3.298   2.357   0.999
 4330SOL    HW213557   3.401   2.468   1.058
 4331SOL     OW13558   3.719   2.695   0.377
 4331SOL    HW113559   3.761   2.631   0.441
 4331SOL    HW213560   3.681   2.644   0.299
 4332SOL     OW13561   2.350   3.247   0.174
 4332SOL    HW113562   2.263   3.232   0.221
 4332SOL    HW213563   2.333   3.273   0.079
 4333SOL     OW13564   3.526   3.142   0.657
 4333SOL    HW113565   3.625   3.150   0.671
 4333SOL    HW213566   3.481   3.226   0.688
 4334SOL     OW13567   3.252   2.437   0.078
 4334SOL    HW113568   3.198   2.416   0.159
 4334SOL    HW213569   3.343   2.396   0.087
 4335SOL     OW13570   3.616   3.085   1.588
 4335SOL    HW113571   3.707   3.046   1.575
 4335SOL    HW213572   3.624   3.181   1.612
 4336SOL     OW13573   2.926   3.209   1.340
 4336SOL    HW113574   2.846   3.186   1.395
 4336SOL    HW213575   3.009   3.183   1.389
 4337SOL     OW13576   3.454   3.491   1.625
 4337SOL    HW113577   3.481   3.525   1.535
 4337SOL    HW213578   3.533   3.453   1.671
 4338SOL     OW13579   2.973   3.057   1.100
 4338SOL    HW113580   2.933   3.101   1.181
 4338SOL    HW213581   2.932   3.094   1.017
 4339SOL     OW13582   3.500   2.961   1.079
 4339SOL    HW113583   3.505   3.042   1.138
 4339SOL    HW213584   3.414   2.963   1.028
 4340SOL     OW13585   2.777   1.951   1.402
 4340SOL    HW113586   2.802   1.931   1.307
 4340SOL    HW213587   2.849   2.007   1.444
 4341SOL     OW13588   2.842   2.978   1.719
 4341SOL    HW113589   2.743   2.984   1.729
 4341SOL    HW213590   2.865   2.898   1.663
 4342SOL     OW13591   2.567   2.912   0.368
 4342SOL    HW113592   2.553   2.919   0.467
 4342SOL    HW213593   2.651   2.861   0.350
 4343SOL     OW13594   2.272   2.675   1.251
 4343SOL    HW113595   2.358   2.687   1.301
 4343SOL    HW213596   2.230   2.588   1.278
 4344SOL     OW13597   3.136   2.248   1.262
 4344SOL    HW113598   3.157   2.322   1.326
 4344SOL    HW213599   3.047   2.265   1.219
 4345SOL     OW13600   1.926   3.426   1.331
 4345SOL    HW113601   1.880   3.508   1.297
 4345SOL    HW213602   2.024   3.445   1.340
 4346SOL     OW13603   2.229   2.962   0.501
 4346SOL    HW113604   2.222   3.045   0.445
 4346SOL    HW213605   2.233   2.882   0.441
 4347SOL     OW13606   3.114   3.210   0.388
 4347SOL    HW113607   3.164   3.287   0.428
 4347SOL    HW213608   3.019   3.212   0.420
 4348SOL     OW13609   3.134   3.307   1.142
 4348SOL    HW113610   3.181   3.320   1.229
 4348SOL    HW213611   3.068   3.233   1.151
 4349SOL     OW13612   3.444   2.501   0.472
 4349SOL    HW113613   3.413   2.562   0.545
 4349SOL    HW213614   3.494   2.553   0.403
 4350SOL     OW13615   2.216   3.372   1.329
 4350SOL    HW113616   2.195   3.328   1.242
 4350SOL    HW213617   2.313   3.398   1.332
 4351SOL     OW13618   2.264   2.613   1.598
 4351SOL    HW113619   2.332   2.668   1.551
 4351SOL    HW213620   2.304   2.525   1.625
 4352SOL     OW13621   3.449   2.641   1.670
 4352SOL    HW113622   3.357   2.679   1.665
 4352SOL    HW213623   3.509   2.688   1.605
 4353SOL     OW13624   2.875   1.967   1.770
 4353SOL    HW113625   2.881   2.052   1.718
 4353SOL    HW213626   2.907   1.891   1.713
 4354SOL     OW13627   2.366   1.912   1.740
 4354SOL    HW113628   2.324   1.855   1.670
 4354SOL    HW213629   2.300   1.981   1.772
 4355SOL     OW13630   2.435   2.732   1.029
 4355SOL    HW113631   2.479   2.821   1.020
 4355SOL    HW213632   2.372   2.732   1.106
 4356SOL     OW13633   3.222   2.724   1.045
 4356SOL    HW113634   3.147   2.724   0.979
 4356SOL    HW213635   3.259   2.632   1.054
 4357SOL     OW13636   3.071   2.387   0.275
 4357SOL    HW113637   3.084   2.303   0.329
 4357SOL    HW213638   3.042   2.461   0.335
 4358SOL     OW13639   1.899   3.172   1.282
 4358SOL    HW113640   1.952   3.123   1.350
 4358SOL    HW213641   1.921   3.270   1.287
 4359SOL     OW13642   2.594   2.496   1.064
 4359SOL    HW113643   2.653   2.470   0.988
 4359SOL    HW213644   2.566   2.592   1.053
 4360SOL     OW13645   3.590   2.797   1.854
 4360SOL    HW113646   3.544   2.790   1.765
 4360SOL    HW213647   3.528   2.841   1.920
 4361SOL     OW13648   2.169   1.925   0.618
 4361SOL    HW113649   2.158   2.019   0.651
 4361SOL    HW213650   2.164   1.862   0.695
 4362SOL     OW13651   3.484   2.229   0.374
 4362SOL    HW113652   3.486   2.153   0.438
 4362SOL    HW213653   3.436   2.306   0.414
 4363SOL     OW13654   2.885   2.628   0.966
 4363SOL    HW113655   2.900   2.649   1.062
 4363SOL    HW213656   2.855   2.533   0.957
 4364SOL     OW13657   2.842   3.435   1.700
 4364SOL    HW113658   2.822   3.479   1.612
 4364SOL    HW213659   2.881   3.344   1.684
 4365SOL     OW13660   3.721   3.380   1.605
 4365SOL    HW113661   3.735   3.407   1.510
 4365SOL    HW213662   3.804   3.402   1.658
 4366SOL     OW13663   2.212   2.760   1.804
 4366SOL    HW113664   2.288   2.804   1.852
 4366SOL    HW213665   2.247   2.713   1.722
 4367SOL     OW13666   3.402   2.136   0.125
 4367SOL    HW113667   3.341   2.061   0.148
 4367SOL    HW213668   3.424   2.188   0.208
 4368SOL     OW13669   3.165   2.700   0.042
 4368SOL    HW113670   3.199   2.607   0.057
 4368SOL    HW213671   3.183   2.727  -0.053
 4369SOL     OW13672   2.930   3.195   0.849
 4369SOL    HW113673   2.937   3.111   0.794
 4369SOL    HW213674   2.992   3.264   0.813
 4370SOL     OW13675   2.181   2.672   0.949
 4370SOL    HW113676   2.274   2.708   0.954
 4370SOL    HW213677   2.175   2.587   1.001
 4371SOL     OW13678   3.000   2.242   1.678
 4371SOL    HW113679   2.955   2.305   1.742
 4371SOL    HW213680   3.093   2.273   1.661
 4372SOL     OW13681   3.022   2.069   1.477
 4372SOL    HW113682   3.022   2.133   1.554
 4372SOL    HW213683   3.050   2.117   1.394
 4373SOL     OW13684   1.870   3.188   0.200
 4373SOL    HW113685   1.777   3.209   0.169
 4373SOL    HW213686   1.880   3.089   0.213
 4374SOL     OW13687   1.950   3.663   0.927
 4374SOL    HW113688   1.908   3.577   0.900
 4374SOL    HW213689   2.044   3.666   0.893
 4375SOL     OW13690   2.366   3.430   0.910
 4375SOL    HW113691   2.432   3.504   0.919
 4375SOL    HW213692   2.410   3.351   0.868
 4376SOL     OW13693   2.864   2.658   1.238
 4376SOL    HW113694   2.905   2.626   1.324
 4376SOL    HW213695   2.768   2.631   1.235
 4377SOL     OW13696   1.902   2.406   1.114
 4377SOL    HW113697   1.987   2.373   1.073
 4377SOL    HW213698   1.915   2.421   1.212
 4378SOL     OW13699   3.231   2.812   1.660
 4378SOL    HW113700   3.270   2.901   1.680
 4378SOL    HW213701   3.241   2.792   1.563
 4379SOL     OW13702   2.677   2.434   0.325
 4379SOL    HW113703   2.684   2.345   0.279
 4379SOL    HW213704   2.583   2.468   0.317
 4380SOL     OW13705   3.519   2.466   1.206
 4380SOL    HW113706   3.481   2.397   1.268
 4380SOL    HW213707   3.601   2.430   1.162
 4381SOL     OW13708   2.114   3.426   1.744
 4381SOL    HW113709   2.084   3.483   1.820
 4381SOL    HW213710   2.107   3.329   1.770
 4382SOL     OW13711   2.533   2.326   1.269
 4382SOL    HW113712   2.499   2.237   1.239
 4382SOL    HW213713   2.559   2.380   1.189
 4383SOL     OW13714   2.792   3.540   1.465
 4383SOL    HW113715   2.768   3.522   1.370
 4383SOL    HW213716   2.822   3.634   1.475
 4384SOL     OW13717   2.021   2.999   1.466
 4384SOL    HW113718   2.043   2.938   1.542
 4384SOL    HW213719   2.031   2.950   1.380
 4385SOL     OW13720   3.209   2.921   1.234
 4385SOL    HW113721   3.233   2.858   1.160
 4385SOL    HW213722   3.119   2.961   1.216
 4386SOL     OW13723   3.164   2.717   0.309
 4386SOL    HW113724   3.078   2.686   0.351
 4386SOL    HW213725   3.160   2.703   0.210
 4387SOL     OW13726   3.621   3.609   1.154
 4387SOL    HW113727   3.682   3.639   1.081
 4387SOL    HW213728   3.583   3.520   1.132
 4388SOL     OW13729   3.114   3.593   1.128
 4388SOL    HW113730   3.198   3.598   1.074
 4388SOL    HW213731   3.091   3.497   1.146
 4389SOL     OW13732   1.945   3.120   1.022
 4389SOL    HW113733   1.940   3.119   1.122
 4389SOL    HW213734   1.862   3.079   0.984
 4390SOL     OW13735   2.550   3.524   1.716
 4390SOL    HW113736   2.494   3.605   1.725
 4390SOL    HW213737   2.602   3.528   1.630
 4391SOL     OW13738   2.765   1.948   0.133
 4391SOL    HW113739   2.816   1.949   0.047
 4391SOL    HW213740   2.821   1.906   0.204
 4392SOL     OW13741   3.588   1.997   0.523
 4392SOL    HW113742   3.661   1.980   0.456
 4392SOL    HW213743   3.557   1.910   0.561
 4393SOL     OW13744   3.250   3.435   0.477
 4393SOL    HW113745   3.317   3.447   0.403
 4393SOL    HW213746   3.210   3.524   0.500
 4394SOL     OW13747   1.992   3.656   1.851
 4394SOL    HW113748   1.951   3.582   1.904
 4394SOL    HW213749   2.056   3.707   1.909
 4395SOL     OW13750   3.142   2.789   0.672
 4395SOL    HW113751   3.202   2.708   0.674
 4395SOL    HW213752   3.182   2.858   0.612
 4396SOL     OW13753   2.692   3.135   1.422
 4396SOL    HW113754   2.687   3.168   1.517
 4396SOL    HW213755   2.606   3.154   1.376
 4397SOL     OW13756   2.534   3.478   0.154
 4397SOL    HW113757   2.543   3.488   0.055
 4397SOL    HW213758   2.494   3.389   0.175
 4398SOL     OW13759   3.512   3.582   1.394
 4398SOL    HW113760   3.565   3.592   1.310
 4398SOL    HW213761   3.485   3.672   1.428
 4399SOL     OW13762   3.703   2.037   0.963
 4399SOL    HW113763   3.742   1.952   0.927
 4399SOL    HW213764   3.605   2.039   0.944
 4400SOL     OW13765   3.056   3.474   0.031
 4400SOL    HW113766   3.062   3.381   0.068
 4400SOL    HW213767   2.997   3.474  -0.049
 4401SOL     OW13768   2.684   2.864   1.372
 4401SOL    HW113769   2.724   2.863   1.280
 4401SOL    HW213770   2.694   2.956   1.412
 4402SOL     OW13771   2.778   2.772   0.291
 4402SOL    HW113772   2.841   2.810   0.223
 4402SOL    HW213773   2.818   2.689   0.330
 4403SOL     OW13774   3.366   3.469   0.044
 4403SOL    HW113775   3.274   3.506   0.051
 4403SOL    HW213776   3.404   3.489  -0.046
 4404SOL     OW13777   2.234   3.150   1.490
 4404SOL    HW113778   2.221   3.243   1.456
 4404SOL    HW213779   2.150   3.098   1.477
 4405SOL     OW13780   3.476   3.154   1.289
 4405SOL    HW113781   3.536   3.157   1.369
 4405SOL    HW213782   3.401   3.218   1.302
 4406SOL     OW13783   2.901   2.960   0.696
 4406SOL    HW113784   2.831   2.913   0.750
 4406SOL    HW213785   2.960   2.892   0.653
 4407SOL     OW13786   2.876   2.098   0.971
 4407SOL    HW113787   2.868   2.062   0.878
 4407SOL    HW213788   2.874   2.022   1.036
 4408SOL     OW13789   2.452   3.349   0.491
 4408SOL    HW113790   2.494   3.291   0.421
 4408SOL    HW213791   2.408   3.428   0.447
 4409SOL     OW13792   3.571   2.247   1.381
 4409SOL    HW113793   3.644   2.316   1.385
 4409SOL    HW213794   3.599   2.172   1.322
 4410SOL     OW13795   2.117   3.210   0.290
 4410SOL    HW113796   2.021   3.211   0.263
 4410SOL    HW213797   2.129   3.263   0.374
 4411SOL     OW13798   1.967   2.875   1.726
 4411SOL    HW113799   1.890   2.842   1.780
 4411SOL    HW213800   2.052   2.845   1.768
 4412SOL     OW13801   2.534   2.065   1.489
 4412SOL    HW113802   2.624   2.049   1.449
 4412SOL    HW213803   2.542   2.070   1.588
 4413SOL     OW13804   1.937   2.207   0.033
 4413SOL    HW113805   1.845   2.179   0.004
 4413SOL    HW213806   1.968   2.284  -0.023
 4414SOL     OW13807   3.302   2.718   1.398
 4414SOL    HW113808   3.245   2.770   1.335
 4414SOL    HW213809   3.398   2.730   1.374
 4415SOL     OW13810   1.934   2.028   0.318
 4415SOL    HW113811   1.917   2.111   0.264
 4415SOL    HW213812   2.024   1.991   0.296
 4416SOL     OW13813   3.045   3.197   0.119
 4416SOL    HW113814   2.946   3.186   0.121
 4416SOL    HW213815   3.079   3.212   0.212
 4417SOL     OW13816   2.475   2.704   1.431
 4417SOL    HW113817   2.531   2.785   1.414
 4417SOL    HW213818   2.534   2.624   1.434
 4418SOL     OW13819   3.355   3.629   0.959
 4418SOL    HW113820   3.388   3.693   0.890
 4418SOL    HW213821   3.421   3.623   1.034
 4419SOL     OW13822   2.578   2.427   1.708
 4419SOL    HW113823   2.597   2.492   1.782
 4419SOL    HW213824   2.638   2.347   1.717
 4420SOL     OW13825   3.312   3.082   1.633
 4420SOL    HW113826   3.303   3.072   1.732
 4420SOL    HW213827   3.408   3.075   1.607
 4421SOL     OW13828   2.252   3.603   1.560
 4421SOL    HW113829   2.161   3.644   1.558
 4421SOL    HW213830   2.245   3.509   1.592
 4422SOL     OW13831   3.536   2.745   1.254
 4422SOL    HW113832   3.509   2.656   1.217
 4422SOL    HW213833   3.537   2.813   1.181
 4423SOL     OW13834   3.087   2.187   0.449
 4423SOL    HW113835   3.152   2.113   0.438
 4423SOL    HW213836   3.107   2.237   0.533
 4424SOL     OW13837   2.456   2.607   0.652
 4424SOL    HW113838   2.506   2.692   0.633
 4424SOL    HW213839   2.368   2.609   0.604
 4425SOL     OW13840   3.639   2.204   1.642
 4425SOL    HW113841   3.622   2.235   1.548
 4425SOL    HW213842   3.555   2.167   1.680
 4426SOL     OW13843   3.592   2.796   1.517
 4426SOL    HW113844   3.630   2.887   1.532
 4426SOL    HW213845   3.584   2.779   1.418
 4427SOL     OW13846   2.721   3.236   0.016
 4427SOL    HW113847   2.675   3.251   0.104
 4427SOL    HW213848   2.765   3.321  -0.014
 4428SOL     OW13849   2.523   3.652   0.953
 4428SOL    HW113850   2.477   3.740   0.940
 4428SOL    HW213851   2.622   3.664   0.946
 4429SOL     OW13852   2.721   2.818   0.861
 4429SOL    HW113853   2.775   2.749   0.909
 4429SOL    HW213854   2.689   2.887   0.927
 4430SOL     OW13855   2.945   2.846   0.087
 4430SOL    HW113856   2.922   2.899   0.005
 4430SOL    HW213857   3.026   2.790   0.068
 4431SOL     OW13858   3.723   3.431   0.851
 4431SOL    HW113859   3.652   3.419   0.781
 4431SOL    HW213860   3.724   3.352   0.911
 4432SOL     OW13861   2.083   3.176   1.844
 4432SOL    HW113862   2.018   3.103   1.823
 4432SOL    HW213863   2.087   3.190   1.942
 4433SOL     OW13864   1.941   3.102   0.653
 4433SOL    HW113865   1.940   3.055   0.741
 4433SOL    HW213866   2.023   3.074   0.602
 4434SOL     OW13867   2.534   3.253   1.624
 4434SOL    HW113868   2.456   3.203   1.662
 4434SOL    HW213869   2.531   3.348   1.655
 4435SOL     OW13870   3.686   2.054   1.227
 4435SOL    HW113871   3.682   1.964   1.271
 4435SOL    HW213872   3.689   2.043   1.128
 4436SOL     OW13873   3.567   3.349   1.104
 4436SOL    HW113874   3.474   3.324   1.077
 4436SOL    HW213875   3.593   3.299   1.186
 4437SOL     OW13876   2.674   3.448   0.687
 4437SOL    HW113877   2.706   3.458   0.593
 4437SOL    HW213878   2.595   3.386   0.689
 4438SOL     OW13879   3.286   2.076   1.112
 4438SOL    HW113880   3.338   2.011   1.167
 4438SOL    HW213881   3.237   2.139   1.173
 4439SOL     OW13882   2.863   1.896   1.154
 4439SOL    HW113883   2.800   1.824   1.123
 4439SOL    HW213884   2.956   1.860   1.154
 4440SOL     OW13885   2.632   3.192   0.301
 4440SOL    HW113886   2.586   3.105   0.318
 4440SOL    HW213887   2.723   3.189   0.342
 4441SOL     OW13888   2.480   3.429   1.284
 4441SOL    HW113889   2.475   3.511   1.341
 4441SOL    HW213890   2.569   3.426   1.239
 4442SOL     OW13891   3.214   1.914   0.168
 4442SOL    HW113892   3.249   1.873   0.084
 4442SOL    HW213893   3.124   1.876   0.188
 4443SOL     OW13894   3.162   2.315   0.691
 4443SOL    HW113895   3.103   2.395   0.695
 4443SOL    HW213896   3.177   2.280   0.784
 4444SOL     OW13897   3.455   2.083   0.882
 4444SOL    HW113898   3.371   2.082   0.936
 4444SOL    HW213899   3.457   2.166   0.826
 4445SOL     OW13900   1.901   2.939   0.300
 4445SOL    HW113901   2.000   2.928   0.291
 4445SOL    HW213902   1.861   2.853   0.332
 4446SOL     OW13903   2.737   3.508   0.337
 4446SOL    HW113904   2.660   3.473   0.283
 4446SOL    HW213905   2.705   3.579   0.399
 4447SOL     OW13906   2.092   2.490   1.975
 4447SOL    HW113907   1.999   2.488   2.012
 4447SOL    HW213908   2.093   2.451   1.883
 4448SOL     OW13909   2.087   2.137   2.858
 4448SOL    HW113910   2.122   2.120   2.950
 4448SOL    HW213911   1.999   2.092   2.846
 4449SOL     OW13912   1.881   2.230   2.509
 4449SOL    HW113913   1.799   2.273   2.548
 4449SOL    HW213914   1.853   2.157   2.446
 4450SOL     OW13915   2.431   3.137   3.027
 4450SOL    HW113916   2.338   3.130   2.990
 4450SOL    HW213917   2.442   3.226   3.071
 4451SOL     OW13918   3.417   3.373   2.565
 4451SOL    HW113919   3.360   3.357   2.646
 4451SOL    HW213920   3.358   3.383   2.485
 4452SOL     OW13921   2.997   2.565   2.579
 4452SOL    HW113922   3.054   2.643   2.554
 4452SOL    HW213923   2.937   2.591   2.655
 4453SOL     OW13924   3.617   2.469   2.093
 4453SOL    HW113925   3.605   2.456   1.994
 4453SOL    HW213926   3.587   2.388   2.142
 4454SOL     OW13927   2.630   3.006   2.885
 4454SOL    HW113928   2.552   3.023   2.945
 4454SOL    HW213929   2.664   3.093   2.849
 4455SOL     OW13930   2.712   2.660   3.685
 4455SOL    HW113931   2.708   2.736   3.750
 4455SOL    HW213932   2.734   2.696   3.594
 4456SOL     OW13933   2.547   2.874   2.527
 4456SOL    HW113934   2.616   2.858   2.597
 4456SOL    HW213935   2.474   2.931   2.565
 4457SOL     OW13936   2.548   3.023   3.665
 4457SOL    HW113937   2.608   3.102   3.679
 4457SOL    HW213938   2.462   3.054   3.624
 4458SOL     OW13939   2.197   3.297   2.923
 4458SOL    HW113940   2.119   3.266   2.870
 4458SOL    HW213941   2.255   3.355   2.866
 4459SOL     OW13942   3.322   3.367   3.201
 4459SOL    HW113943   3.346   3.461   3.227
 4459SOL    HW213944   3.306   3.313   3.283
 4460SOL     OW13945   3.465   2.309   2.599
 4460SOL    HW113946   3.391   2.355   2.549
 4460SOL    HW213947   3.516   2.377   2.652
 4461SOL     OW13948   2.093   3.575   2.345
 4461SOL    HW113949   2.127   3.652   2.399
 4461SOL    HW213950   2.137   3.575   2.255
 4462SOL     OW13951   2.989   3.203   3.552
 4462SOL    HW113952   3.036   3.203   3.640
 4462SOL    HW213953   2.941   3.116   3.541
 4463SOL     OW13954   2.092   3.296   2.400
 4463SOL    HW113955   2.066   3.392   2.400
 4463SOL    HW213956   2.021   3.242   2.445
 4464SOL     OW13957   2.102   2.953   2.748
 4464SOL    HW113958   2.116   2.869   2.800
 4464SOL    HW213959   2.047   3.017   2.803
 4465SOL     OW13960   2.482   3.648   3.301
 4465SOL    HW113961   2.390   3.631   3.336
 4465SOL    HW213962   2.510   3.740   3.327
 4466SOL     OW13963   2.468   2.826   1.985
 4466SOL    HW113964   2.475   2.910   1.931
 4466SOL    HW213965   2.514   2.839   2.073
 4467SOL     OW13966   3.456   1.976   3.342
 4467SOL    HW113967   3.438   2.043   3.270
 4467SOL    HW213968   3.453   2.022   3.431
 4468SOL     OW13969   1.984   2.505   2.425
 4468SOL    HW113970   1.939   2.417   2.442
 4468SOL    HW213971   1.983   2.559   2.509
 4469SOL     OW13972   3.704   3.629   2.221
 4469SOL    HW113973   3.758   3.600   2.301
 4469SOL    HW213974   3.734   3.719   2.192
 4470SOL     OW13975   1.889   3.458   1.979
 4470SOL    HW113976   1.870   3.362   2.000
 4470SOL    HW213977   1.856   3.516   2.054
 4471SOL     OW13978   3.551   2.784   2.474
 4471SOL    HW113979   3.646   2.755   2.482
 4471SOL    HW213980   3.543   2.849   2.399
 4472SOL     OW13981   3.503   2.970   2.294
 4472SOL    HW113982   3.589   2.972   2.242
 4472SOL    HW213983   3.517   3.017   2.382
 4473SOL     OW13984   1.975   2.599   3.459
 4473SOL    HW113985   2.063   2.586   3.504
 4473SOL    HW213986   1.962   2.696   3.437
 4474SOL     OW13987   2.475   3.227   2.588
 4474SOL    HW113988   2.426   3.140   2.597
 4474SOL    HW213989   2.452   3.270   2.501
 4475SOL     OW13990   3.155   3.090   3.285
 4475SOL    HW113991   3.192   3.017   3.227
 4475SOL    HW213992   3.207   3.095   3.370
 4476SOL     OW13993   2.671   1.866   2.364
 4476SOL    HW113994   2.711   1.957   2.355
 4476SOL    HW213995   2.571   1.874   2.370
 4477SOL     OW13996   2.059   2.838   3.126
 4477SOL    HW113997   2.148   2.793   3.112
 4477SOL    HW213998   1.986   2.773   3.107
 4478SOL     OW13999   3.387   2.861   2.052
 4478SOL    HW114000   3.324   2.785   2.065
 4478SOL    HW214001   3.435   2.879   2.138
 4479SOL     OW14002   3.049   3.654   3.478
 4479SOL    HW114003   3.073   3.714   3.402
 4479SOL    HW214004   3.056   3.559   3.448
 4480SOL     OW14005   3.328   3.279   2.815
 4480SOL    HW114006   3.269   3.285   2.895
 4480SOL    HW214007   3.313   3.191   2.769
 4481SOL     OW14008   3.529   3.576   2.434
 4481SOL    HW114009   3.488   3.553   2.346
 4481SOL    HW214010   3.511   3.502   2.499
 4482SOL     OW14011   2.460   2.591   2.132
 4482SOL    HW114012   2.484   2.660   2.064
 4482SOL    HW214013   2.382   2.624   2.186
 4483SOL     OW14014   3.143   2.207   2.806
 4483SOL    HW114015   3.057   2.157   2.793
 4483SOL    HW214016   3.205   2.153   2.862
 4484SOL     OW14017   3.438   3.524   2.169
 4484SOL    HW114018   3.527   3.570   2.172
 4484SOL    HW214019   3.417   3.500   2.074
 4485SOL     OW14020   2.669   2.467   3.327
 4485SOL    HW114021   2.622   2.464   3.416
 4485SOL    HW214022   2.618   2.412   3.261
 4486SOL     OW14023   3.256   2.331   3.536
 4486SOL    HW114024   3.236   2.374   3.624
 4486SOL    HW214025   3.334   2.269   3.545
 4487SOL     OW14026   2.835   2.752   3.434
 4487SOL    HW114027   2.881   2.668   3.405
 4487SOL    HW214028   2.779   2.786   3.359
 4488SOL     OW14029   2.853   2.272   3.104
 4488SOL    HW114030   2.776   2.306   3.158
 4488SOL    HW214031   2.819   2.221   3.025
 4489SOL     OW14032   2.903   2.563   2.291
 4489SOL    HW114033   2.929   2.559   2.387
 4489SOL    HW214034   2.818   2.512   2.277
 4490SOL     OW14035   1.938   2.673   2.651
 4490SOL    HW114036   2.037   2.661   2.660
 4490SOL    HW214037   1.914   2.768   2.672
 4491SOL     OW14038   1.992   3.683   3.433
 4491SOL    HW114039   1.982   3.668   3.532
 4491SOL    HW214040   1.906   3.719   3.397
 4492SOL     OW14041   2.727   2.210   2.057
 4492SOL    HW114042   2.786   2.273   2.008
 4492SOL    HW214043   2.746   2.116   2.028
 4493SOL     OW14044   3.581   2.447   3.693
 4493SOL    HW114045   3.555   2.536   3.657
 4493SOL    HW214046   3.579   2.379   3.620
 4494SOL     OW14047   3.224   3.006   2.407
 4494SOL    HW114048   3.307   2.977   2.359
 4494SOL    HW214049   3.175   3.073   2.351
 4495SOL     OW14050   2.412   2.058   2.747
 4495SOL    HW114051   2.407   2.053   2.847
 4495SOL    HW214052   2.414   2.154   2.718
 4496SOL     OW14053   2.870   3.318   2.339
 4496SOL    HW114054   2.824   3.390   2.287
 4496SOL    HW214055   2.866   3.338   2.437
 4497SOL     OW14056   2.213   3.663   2.715
 4497SOL    HW114057   2.263   3.577   2.721
 4497SOL    HW214058   2.278   3.740   2.712
 4498SOL     OW14059   3.657   2.928   2.735
 4498SOL    HW114060   3.595   2.913   2.659
 4498SOL    HW214061   3.605   2.939   2.820
 4499SOL     OW14062   3.089   3.412   3.368
 4499SOL    HW114063   3.095   3.335   3.432
 4499SOL    HW214064   3.037   3.386   3.288
 4500SOL     OW14065   2.183   2.805   2.104
 4500SOL    HW114066   2.265   2.844   2.062
 4500SOL    HW214067   2.156   2.723   2.055
 4501SOL     OW14068   3.320   2.597   2.590
 4501SOL    HW114069   3.315   2.532   2.665
 4501SOL    HW214070   3.400   2.656   2.603
 4502SOL     OW14071   2.323   3.128   3.589
 4502SOL    HW114072   2.273   3.129   3.503
 4502SOL    HW214073   2.260   3.110   3.665
 4503SOL     OW14074   2.973   3.638   2.099
 4503SOL    HW114075   2.913   3.576   2.149
 4503SOL    HW214076   3.004   3.594   2.014
 4504SOL     OW14077   2.064   2.147   3.360
 4504SOL    HW114078   1.984   2.207   3.347
 4504SOL    HW214079   2.054   2.098   3.446
 4505SOL     OW14080   3.494   3.239   1.943
 4505SOL    HW114081   3.462   3.333   1.933
 4505SOL    HW214082   3.418   3.176   1.931
 4506SOL     OW14083   2.326   3.605   2.185
 4506SOL    HW114084   2.359   3.644   2.271
 4506SOL    HW214085   2.402   3.598   2.120
 4507SOL     OW14086   3.262   1.969   2.288
 4507SOL    HW114087   3.238   1.932   2.198
 4507SOL    HW214088   3.361   1.985   2.292
 4508SOL     OW14089   2.111   3.647   3.103
 4508SOL    HW114090   2.168   3.582   3.153
 4508SOL    HW214091   2.095   3.614   3.010
 4509SOL     OW14092   2.802   3.560   2.766
 4509SOL    HW114093   2.882   3.503   2.787
 4509SOL    HW214094   2.753   3.520   2.689
 4510SOL     OW14095   3.409   2.084   3.591
 4510SOL    HW114096   3.404   2.121   3.683
 4510SOL    HW214097   3.337   2.015   3.579
 4511SOL     OW14098   2.476   1.984   1.979
 4511SOL    HW114099   2.574   1.962   1.986
 4511SOL    HW214100   2.445   1.967   1.886
 4512SOL     OW14101   2.643   2.126   3.611
 4512SOL    HW114102   2.710   2.065   3.654
 4512SOL    HW214103   2.570   2.145   3.676
 4513SOL     OW14104   2.750   3.376   3.057
 4513SOL    HW114105   2.727   3.351   2.963
 4513SOL    HW214106   2.811   3.307   3.096
 4514SOL     OW14107   3.213   2.452   3.295
 4514SOL    HW114108   3.241   2.409   3.380
 4514SOL    HW214109   3.238   2.548   3.296
 4515SOL     OW14110   2.665   3.264   2.786
 4515SOL    HW114111   2.755   3.278   2.744
 4515SOL    HW214112   2.594   3.266   2.715
 4516SOL     OW14113   2.784   2.365   2.761
 4516SOL    HW114114   2.759   2.356   2.665
 4516SOL    HW214115   2.832   2.283   2.792
 4517SOL     OW14116   2.401   1.926   2.374
 4517SOL    HW114117   2.320   1.927   2.432
 4517SOL    HW214118   2.404   2.009   2.319
 4518SOL     OW14119   3.296   3.050   1.903
 4518SOL    HW114120   3.328   2.974   1.960
 4518SOL    HW214121   3.204   3.077   1.933
 4519SOL     OW14122   2.797   2.098   2.342
 4519SOL    HW114123   2.749   2.139   2.264
 4519SOL    HW214124   2.896   2.096   2.323
 4520SOL     OW14125   2.938   2.545   3.326
 4520SOL    HW114126   2.858   2.484   3.329
 4520SOL    HW214127   3.019   2.492   3.302
 4521SOL     OW14128   3.089   3.432   2.655
 4521SOL    HW114129   3.110   3.506   2.590
 4521SOL    HW214130   3.157   3.432   2.728
 4522SOL     OW14131   2.321   3.014   2.603
 4522SOL    HW114132   2.250   2.987   2.668
 4522SOL    HW214133   2.295   2.986   2.510
 4523SOL     OW14134   3.133   3.659   2.453
 4523SOL    HW114135   3.177   3.723   2.389
 4523SOL    HW214136   3.083   3.711   2.523
 4524SOL     OW14137   2.894   2.411   1.878
 4524SOL    HW114138   2.853   2.493   1.839
 4524SOL    HW214139   2.958   2.437   1.951
 4525SOL     OW14140   1.940   2.418   3.248
 4525SOL    HW114141   2.032   2.417   3.207
 4525SOL    HW214142   1.934   2.492   3.315
 4526SOL     OW14143   2.423   2.084   3.009
 4526SOL    HW114144   2.461   2.000   3.046
 4526SOL    HW214145   2.335   2.103   3.053
 4527SOL     OW14146   2.728   2.316   2.504
 4527SOL    HW114147   2.696   2.388   2.442
 4527SOL    HW214148   2.752   2.235   2.451
 4528SOL     OW14149   2.879   1.901   2.615
 4528SOL    HW114150   2.807   1.906   2.546
 4528SOL    HW214151   2.855   1.832   2.684
 4529SOL     OW14152   3.291   3.035   2.729
 4529SOL    HW114153   3.236   2.951   2.722
 4529SOL    HW214154   3.317   3.064   2.637
 4530SOL     OW14155   3.328   2.452   2.854
 4530SOL    HW114156   3.298   2.357   2.861
 4530SOL    HW214157   3.401   2.468   2.920
 4531SOL     OW14158   3.719   2.695   2.239
 4531SOL    HW114159   3.761   2.631   2.303
 4531SOL    HW214160   3.681   2.644   2.161
 4532SOL     OW14161   2.350   3.247   2.036
 4532SOL    HW114162   2.263   3.232   2.083
 4532SOL    HW214163   2.333   3.273   1.941
 4533SOL     OW14164   3.526   3.142   2.519
 4533SOL    HW114165   3.625   3.150   2.533
 4533SOL    HW214166   3.481   3.226   2.550
 4534SOL     OW14167   3.252   2.437   1.940
 4534SOL    HW114168   3.198   2.416   2.021
 4534SOL    HW214169   3.343   2.396   1.949
 4535SOL     OW14170   3.616   3.085   3.450
 4535SOL    HW114171   3.707   3.046   3.437
 4535SOL    HW214172   3.624   3.181   3.474
 4536SOL     OW14173   2.926   3.209   3.202
 4536SOL    HW114174   2.846   3.186   3.257
 4536SOL    HW214175   3.009   3.183   3.251
 4537SOL     OW14176   3.454   3.491   3.487
 4537SOL    HW114177   3.481   3.525   3.397
 4537SOL    HW214178   3.533   3.453   3.533
 4538SOL     OW14179   2.973   3.057   2.962
 4538SOL    HW114180   2.933   3.101   3.043
 4538SOL    HW214181   2.932   3.094   2.879
 4539SOL     OW14182   3.500   2.961   2.941
 4539SOL    HW114183   3.505   3.042   3.000
 4539SOL    HW214184   3.414   2.963   2.890
 4540SOL     OW14185   2.777   1.951   3.264
 4540SOL    HW114186   2.802   1.931   3.169
 4540SOL    HW214187   2.849   2.007   3.306
 4541SOL     OW14188   2.842   2.978   3.581
 4541SOL    HW114189   2.743   2.984   3.591
 4541SOL    HW214190   2.865   2.898   3.525
 4542SOL     OW14191   2.567   2.912   2.230
 4542SOL    HW114192   2.553   2.919   2.329
 4542SOL    HW214193   2.651   2.861   2.212
 4543SOL     OW14194   2.272   2.675   3.113
 4543SOL    HW114195   2.358   2.687   3.163
 4543SOL    HW214196   2.230   2.588   3.140
 4544SOL     OW14197   3.136   2.248   3.124
 4544SOL    HW114198   3.157   2.322   3.188
 4544SOL    HW214199   3.047   2.265   3.081
 4545SOL     OW14200   1.926   3.426   3.193
 4545SOL    HW114201   1.880   3.508   3.159
 4545SOL    HW214202   2.024   3.445   3.202
 4546SOL     OW14203   2.229   2.962   2.363
 4546SOL    HW114204   2.222   3.045   2.307
 4546SOL    HW214205   2.233   2.882   2.303
 4547SOL     OW14206   2.428   2.399   2.727
 4547SOL    HW114207   2.440   2.465   2.653
 4547SOL    HW214208   2.474   2.433   2.810
 4548SOL     OW14209   3.114   3.210   2.250
 4548SOL    HW114210   3.164   3.287   2.290
 4548SOL    HW214211   3.019   3.212   2.282
 4549SOL     OW14212   3.134   3.307   3.004
 4549SOL    HW114213   3.181   3.320   3.091
 4549SOL    HW214214   3.068   3.233   3.013
 4550SOL     OW14215   3.444   2.501   2.334
 4550SOL    HW114216   3.413   2.562   2.407
 4550SOL    HW214217   3.494   2.553   2.265
 4551SOL     OW14218   2.216   3.372   3.191
 4551SOL    HW114219   2.195   3.328   3.104
 4551SOL    HW214220   2.313   3.398   3.194
 4552SOL     OW14221   2.264   2.613   3.460
 4552SOL    HW114222   2.332   2.668   3.413
 4552SOL    HW214223   2.304   2.525   3.487
 4553SOL     OW14224   3.449   2.641   3.532
 4553SOL    HW114225   3.357   2.679   3.527
 4553SOL    HW214226   3.509   2.688   3.467
 4554SOL     OW14227   2.875   1.967   3.632
 4554SOL    HW114228   2.881   2.052   3.580
 4554SOL    HW214229   2.907   1.891   3.575
 4555SOL     OW14230   2.366   1.912   3.602
 4555SOL    HW114231   2.324   1.855   3.532
 4555SOL    HW214232   2.300   1.981   3.634
 4556SOL     OW14233   2.435   2.732   2.891
 4556SOL    HW114234   2.479   2.821   2.882
 4556SOL    HW214235   2.372   2.732   2.968
 4557SOL     OW14236   3.222   2.724   2.907
 4557SOL    HW114237   3.147   2.724   2.841
 4557SOL    HW214238   3.259   2.632   2.916
 4558SOL     OW14239   3.071   2.387   2.137
 4558SOL    HW114240   3.084   2.303   2.191
 4558SOL    HW214241   3.042   2.461   2.197
 4559SOL     OW14242   1.899   3.172   3.144
 4559SOL    HW114243   1.952   3.123   3.212
 4559SOL    HW214244   1.921   3.270   3.149
 4560SOL     OW14245   2.594   2.496   2.926
 4560SOL    HW114246   2.653   2.470   2.850
 4560SOL    HW214247   2.566   2.592   2.915
 4561SOL     OW14248   3.590   2.797   3.716
 4561SOL    HW114249   3.544   2.790   3.627
 4561SOL    HW214250   3.528   2.841   3.782
 4562SOL     OW14251   3.484   2.229   2.236
 4562SOL    HW114252   3.486   2.153   2.300
 4562SOL    HW214253   3.436   2.306   2.276
 4563SOL     OW14254   2.885   2.628   2.828
 4563SOL    HW114255   2.900   2.649   2.924
 4563SOL    HW214256   2.855   2.533   2.819
 4564SOL     OW14257   2.842   3.435   3.562
 4564SOL    HW114258   2.822   3.479   3.474
 4564SOL    HW214259   2.881   3.344   3.546
 4565SOL     OW14260   3.721   3.380   3.467
 4565SOL    HW114261   3.735   3.407   3.372
 4565SOL    HW214262   3.804   3.402   3.520
 4566SOL     OW14263   2.212   2.760   3.666
 4566SOL    HW114264   2.288   2.804   3.714
 4566SOL    HW214265   2.247   2.713   3.584
 4567SOL     OW14266   3.402   2.136   1.987
 4567SOL    HW114267   3.341   2.061   2.010
 4567SOL    HW214268   3.424   2.188   2.070
 4568SOL     OW14269   3.165   2.700   1.904
 4568SOL    HW114270   3.199   2.607   1.919
 4568SOL    HW214271   3.183   2.727   1.809
 4569SOL     OW14272   2.930   3.195   2.711
 4569SOL    HW114273   2.937   3.111   2.656
 4569SOL    HW214274   2.992   3.264   2.675
 4570SOL     OW14275   2.181   2.672   2.811
 4570SOL    HW114276   2.274   2.708   2.816
 4570SOL    HW214277   2.175   2.587   2.863
 4571SOL     OW14278   3.000   2.242   3.540
 4571SOL    HW114279   2.955   2.305   3.604
 4571SOL    HW214280   3.093   2.273   3.523
 4572SOL     OW14281   3.022   2.069   3.339
 4572SOL    HW114282   3.022   2.133   3.416
 4572SOL    HW214283   3.050   2.117   3.256
 4573SOL     OW14284   1.870   3.188   2.062
 4573SOL    HW114285   1.777   3.209   2.031
 4573SOL    HW214286   1.880   3.089   2.075
 4574SOL     OW14287   1.950   3.663   2.789
 4574SOL    HW114288   1.908   3.577   2.762
 4574SOL    HW214289   2.044   3.666   2.755
 4575SOL     OW14290   2.366   3.430   2.772
 4575SOL    HW114291   2.432   3.504   2.781
 4575SOL    HW214292   2.410   3.351   2.730
 4576SOL     OW14293   2.864   2.658   3.100
 4576SOL    HW114294   2.905   2.626   3.186
 4576SOL    HW214295   2.768   2.631   3.097
 4577SOL     OW14296   1.902   2.406   2.976
 4577SOL    HW114297   1.987   2.373   2.935
 4577SOL    HW214298   1.915   2.421   3.074
 4578SOL     OW14299   3.231   2.812   3.522
 4578SOL    HW114300   3.270   2.901   3.542
 4578SOL    HW214301   3.241   2.792   3.425
 4579SOL     OW14302   2.677   2.434   2.187
 4579SOL    HW114303   2.684   2.345   2.141
 4579SOL    HW214304   2.583   2.468   2.179
 4580SOL     OW14305   3.519   2.466   3.068
 4580SOL    HW114306   3.481   2.397   3.130
 4580SOL    HW214307   3.601   2.430   3.024
 4581SOL     OW14308   2.114   3.426   3.606
 4581SOL    HW114309   2.084   3.483   3.682
 4581SOL    HW214310   2.107   3.329   3.632
 4582SOL     OW14311   2.792   3.540   3.327
 4582SOL    HW114312   2.768   3.522   3.232
 4582SOL    HW214313   2.822   3.634   3.337
 4583SOL     OW14314   2.021   2.999   3.328
 4583SOL    HW114315   2.043   2.938   3.404
 4583SOL    HW214316   2.031   2.950   3.242
 4584SOL     OW14317   3.209   2.921   3.096
 4584SOL    HW114318   3.233   2.858   3.022
 4584SOL    HW214319   3.119   2.961   3.078
 4585SOL     OW14320   3.164   2.717   2.171
 4585SOL    HW114321   3.078   2.686   2.213
 4585SOL    HW214322   3.160   2.703   2.072
 4586SOL     OW14323   3.621   3.609   3.016
 4586SOL    HW114324   3.682   3.639   2.943
 4586SOL    HW214325   3.583   3.520   2.994
 4587SOL     OW14326   3.114   3.593   2.990
 4587SOL    HW114327   3.198   3.598   2.936
 4587SOL    HW214328   3.091   3.497   3.008
 4588SOL     OW14329   1.945   3.120   2.884
 4588SOL    HW114330   1.940   3.119   2.984
 4588SOL    HW214331   1.862   3.079   2.846
 4589SOL     OW14332   2.550   3.524   3.578
 4589SOL    HW114333   2.494   3.605   3.587
 4589SOL    HW214334   2.602   3.528   3.492
 4590SOL     OW14335   3.588   1.997   2.385
 4590SOL    HW114336   3.661   1.980   2.318
 4590SOL    HW214337   3.557   1.910   2.423
 4591SOL     OW14338   3.250   3.435   2.339
 4591SOL    HW114339   3.317   3.447   2.265
 4591SOL    HW214340   3.210   3.524   2.362
 4592SOL     OW14341   1.992   3.656   3.713
 4592SOL    HW114342   1.951   3.582   3.766
 4592SOL    HW214343   2.056   3.707   3.771
 4593SOL     OW14344   3.142   2.789   2.534
 4593SOL    HW114345   3.202   2.708   2.536
 4593SOL    HW214346   3.182   2.858   2.474
 4594SOL     OW14347   2.692   3.135   3.284
 4594SOL    HW114348   2.687   3.168   3.379
 4594SOL    HW214349   2.606   3.154   3.238
 4595SOL     OW14350   2.534   3.478   2.016
 4595SOL    HW114351   2.543   3.488   1.917
 4595SOL    HW214352   2.494   3.389   2.037
 4596SOL     OW14353   3.512   3.582   3.256
 4596SOL    HW114354   3.565   3.592   3.172
 4596SOL    HW214355   3.485   3.672   3.290
 4597SOL     OW14356   3.703   2.037   2.825
 4597SOL    HW114357   3.742   1.952   2.789
 4597SOL    HW214358   3.605   2.039   2.806
 4598SOL     OW14359   3.056   3.474   1.893
 4598SOL    HW114360   3.062   3.381   1.930
 4598SOL    HW214361   2.997   3.474   1.813
 4599SOL     OW14362   2.684   2.864   3.234
 4599SOL    HW114363   2.724   2.863   3.142
 4599SOL    HW214364   2.694   2.956   3.274
 4600SOL     OW14365   2.778   2.772   2.153
 4600SOL    HW114366   2.841   2.810   2.085
 4600SOL    HW214367   2.818   2.689   2.192
 4601SOL     OW14368   3.366   3.469   1.906
 4601SOL    HW114369   3.274   3.506   1.913
 4601SOL    HW214370   3.404   3.489   1.816
 4602SOL     OW14371   2.234   3.150   3.352
 4602SOL    HW114372   2.221   3.243   3.318
 4602SOL    HW214373   2.150   3.098   3.339
 4603SOL     OW14374   3.476   3.154   3.151
 4603SOL    HW114375   3.536   3.157   3.231
 4603SOL    HW214376   3.401   3.218   3.164
 4604SOL     OW14377   2.901   2.960   2.558
 4604SOL    HW114378   2.831   2.913   2.612
 4604SOL    HW214379   2.960   2.892   2.515
 4605SOL     OW14380   2.876   2.098   2.833
 4605SOL    HW114381   2.868   2.062   2.740
 4605SOL    HW214382   2.874   2.022   2.898
 4606SOL     OW14383   2.452   3.349   2.353
 4606SOL    HW114384   2.494   3.291   2.283
 4606SOL    HW214385   2.408   3.428   2.309
 4607SOL     OW14386   3.571   2.247   3.243
 4607SOL    HW114387   3.644   2.316   3.247
 4607SOL    HW214388   3.599   2.172   3.184
 4608SOL     OW14389   2.117   3.210   2.152
 4608SOL    HW114390   2.021   3.211   2.125
 4608SOL    HW214391   2.129   3.263   2.236
 4609SOL     OW14392   1.967   2.875   3.588
 4609SOL    HW114393   1.890   2.842   3.642
 4609SOL    HW214394   2.052   2.845   3.630
 4610SOL     OW14395   2.534   2.065   3.351
 4610SOL    HW114396   2.624   2.049   3.311
 4610SOL    HW214397   2.542   2.070   3.450
 4611SOL     OW14398   1.937   2.207   1.895
 4611SOL    HW114399   1.845   2.179   1.866
 4611SOL    HW214400   1.968   2.284   1.839
 4612SOL     OW14401   3.302   2.718   3.260
 4612SOL    HW114402   3.245   2.770   3.197
 4612SOL    HW214403   3.398   2.730   3.236
 4613SOL     OW14404   1.934   2.028   2.180
 4613SOL    HW114405   1.917   2.111   2.126
 4613SOL    HW214406   2.024   1.991   2.158
 4614SOL     OW14407   3.045   3.197   1.981
 4614SOL    HW114408   2.946   3.186   1.983
 4614SOL    HW214409   3.079   3.212   2.074
 4615SOL     OW14410   2.475   2.704   3.293
 4615SOL    HW114411   2.531   2.785   3.276
 4615SOL    HW214412   2.534   2.624   3.296
 4616SOL     OW14413   3.355   3.629   2.821
 4616SOL    HW114414   3.388   3.693   2.752
 4616SOL    HW214415   3.421   3.623   2.896
 4617SOL     OW14416   2.578   2.427   3.570
 4617SOL    HW114417   2.597   2.492   3.644
 4617SOL    HW214418   2.638   2.347   3.579
 4618SOL     OW14419   3.312   3.082   3.495
 4618SOL    HW114420   3.303   3.072   3.594
 4618SOL    HW214421   3.408   3.075   3.469
 4619SOL     OW14422   2.252   3.603   3.422
 4619SOL    HW114423   2.161   3.644   3.420
 4619SOL    HW214424   2.245   3.509   3.454
 4620SOL     OW14425   3.536   2.745   3.116
 4620SOL    HW114426   3.509   2.656   3.079
 4620SOL    HW214427   3.537   2.813   3.043
 4621SOL     OW14428   3.087   2.187   2.311
 4621SOL    HW114429   3.152   2.113   2.300
 4621SOL    HW214430   3.107   2.237   2.395
 4622SOL     OW14431   2.456   2.607   2.514
 4622SOL    HW114432   2.506   2.692   2.495
 4622SOL    HW214433   2.368   2.609   2.466
 4623SOL     OW14434   3.639   2.204   3.504
 4623SOL    HW114435   3.622   2.235   3.410
 4623SOL    HW214436   3.555   2.167   3.542
 4624SOL     OW14437   3.592   2.796   3.379
 4624SOL    HW114438   3.630   2.887   3.394
 4624SOL    HW214439   3.584   2.779   3.280
 4625SOL     OW14440   2.721   3.236   1.878
 4625SOL    HW114441   2.675   3.251   1.966
 4625SOL    HW214442   2.765   3.321   1.848
 4626SOL     OW14443   2.523   3.652   2.815
 4626SOL    HW114444   2.477   3.740   2.802
 4626SOL    HW214445   2.622   3.664   2.808
 4627SOL     OW14446   2.721   2.818   2.723
 4627SOL    HW114447   2.775   2.749   2.771
 4627SOL    HW214448   2.689   2.887   2.789
 4628SOL     OW14449   2.945   2.846   1.949
 4628SOL    HW114450   2.922   2.899   1.867
 4628SOL    HW214451   3.026   2.790   1.930
 4629SOL     OW14452   3.723   3.431   2.713
 4629SOL    HW114453   3.652   3.419   2.643
 4629SOL    HW214454   3.724   3.352   2.773
 4630SOL     OW14455   2.083   3.176   3.706
 4630SOL    HW114456   2.018   3.103   3.685
 4630SOL    HW214457   2.087   3.190   3.804
 4631SOL     OW14458   1.941   3.102   2.515
 4631SOL    HW114459   1.940   3.055   2.603
 4631SOL    HW214460   2.023   3.074   2.464
 4632SOL     OW14461   2.534   3.253   3.486
 4632SOL    HW114462   2.456   3.203   3.524
 4632SOL    HW214463   2.531   3.348   3.517
 4633SOL     OW14464   3.686   2.054   3.089
 4633SOL    HW114465   3.682   1.964   3.133
 4633SOL    HW214466   3.689   2.043   2.990
 4634SOL     OW14467   3.567   3.349   2.966
 4634SOL    HW114468   3.474   3.324   2.939
 4634SOL    HW214469   3.593   3.299   3.048
 4635SOL     OW14470   2.674   3.448   2.549
 4635SOL    HW114471   2.706   3.458   2.455
 4635SOL    HW214472   2.595   3.386   2.551
 4636SOL     OW14473   3.286   2.076   2.974
 4636SOL    HW114474   3.338   2.011   3.029
 4636SOL    HW214475   3.237   2.139   3.035
 4637SOL     OW14476   2.863   1.896   3.016
 4637SOL    HW114477   2.800   1.824   2.985
 4637SOL    HW214478   2.956   1.860   3.016
 4638SOL     OW14479   2.632   3.192   2.163
 4638SOL    HW114480   2.586   3.105   2.180
 4638SOL    HW214481   2.723   3.189   2.204
 4639SOL     OW14482   2.480   3.429   3.146
 4639SOL    HW114483   2.475   3.511   3.203
 4639SOL    HW214484   2.569   3.426   3.101
 4640SOL     OW14485   3.214   1.914   2.030
 4640SOL    HW114486   3.249   1.873   1.946
 4640SOL    HW214487   3.124   1.876   2.050
 4641SOL     OW14488   3.162   2.315   2.553
 4641SOL    HW114489   3.103   2.395   2.557
 4641SOL    HW214490   3.177   2.280   2.646
 4642SOL     OW14491   3.455   2.083   2.744
 4642SOL    HW114492   3.371   2.082   2.798
 4642SOL    HW214493   3.457   2.166   2.688
 4643SOL     OW14494   1.901   2.939   2.162
 4643SOL    HW114495   2.000   2.928   2.153
 4643SOL    HW214496   1.861   2.853   2.194
 4644SOL     OW14497   2.737   3.508   2.199
 4644SOL    HW114498   2.660   3.473   2.145
 4644SOL    HW214499   2.705   3.579   2.261
 4645SOL     OW14500   2.092   2.490   3.837
 4645SOL    HW114501   1.999   2.488   3.874
 4645SOL    HW214502   2.093   2.451   3.745
 4646SOL     OW14503   1.881   2.230   4.371
 4646SOL    HW114504   1.799   2.273   4.410
 4646SOL    HW214505   1.853   2.157   4.308
 4647SOL     OW14506   2.431   3.137   4.889
 4647SOL    HW114507   2.338   3.130   4.852
 4647SOL    HW214508   2.442   3.226   4.933
 4648SOL     OW14509   3.417   3.373   4.427
 4648SOL    HW114510   3.360   3.357   4.508
 4648SOL    HW214511   3.358   3.383   4.347
 4649SOL     OW14512   2.997   2.565   4.441
 4649SOL    HW114513   3.054   2.643   4.416
 4649SOL    HW214514   2.937   2.591   4.517
 4650SOL     OW14515   3.617   2.469   3.955
 4650SOL    HW114516   3.605   2.456   3.856
 4650SOL    HW214517   3.587   2.388   4.004
 4651SOL     OW14518   2.630   3.006   4.747
 4651SOL    HW114519   2.552   3.023   4.807
 4651SOL    HW214520   2.664   3.093   4.711
 4652SOL     OW14521   2.547   2.874   4.389
 4652SOL    HW114522   2.616   2.858   4.459
 4652SOL    HW214523   2.474   2.931   4.427
 4653SOL     OW14524   2.548   3.023   5.527
 4653SOL    HW114525   2.608   3.102   5.541
 4653SOL    HW214526   2.462   3.054   5.486
 4654SOL     OW14527   2.197   3.297   4.785
 4654SOL    HW114528   2.119   3.266   4.732
 4654SOL    HW214529   2.255   3.355   4.728
 4655SOL     OW14530   3.322   3.367   5.063
 4655SOL    HW114531   3.346   3.461   5.089
 4655SOL    HW214532   3.306   3.313   5.145
 4656SOL     OW14533   3.465   2.309   4.461
 4656SOL    HW114534   3.391   2.355   4.411
 4656SOL    HW214535   3.516   2.377   4.514
 4657SOL     OW14536   2.093   3.575   4.207
 4657SOL    HW114537   2.127   3.652   4.261
 4657SOL    HW214538   2.137   3.575   4.117
 4658SOL     OW14539   2.989   3.203   5.414
 4658SOL    HW114540   3.036   3.203   5.502
 4658SOL    HW214541   2.941   3.116   5.403
 4659SOL     OW14542   2.092   3.296   4.262
 4659SOL    HW114543   2.066   3.392   4.262
 4659SOL    HW214544   2.021   3.242   4.307
 4660SOL     OW14545   2.482   3.648   5.163
 4660SOL    HW114546   2.390   3.631   5.198
 4660SOL    HW214547   2.510   3.740   5.189
 4661SOL     OW14548   2.468   2.826   3.847
 4661SOL    HW114549   2.475   2.910   3.793
 4661SOL    HW214550   2.514   2.839   3.935
 4662SOL     OW14551   3.456   1.976   5.204
 4662SOL    HW114552   3.438   2.043   5.132
 4662SOL    HW214553   3.453   2.022   5.293
 4663SOL     OW14554   1.984   2.505   4.287
 4663SOL    HW114555   1.939   2.417   4.304
 4663SOL    HW214556   1.983   2.559   4.371
 4664SOL     OW14557   3.704   3.629   4.083
 4664SOL    HW114558   3.758   3.600   4.163
 4664SOL    HW214559   3.734   3.719   4.054
 4665SOL     OW14560   1.889   3.458   3.841
 4665SOL    HW114561   1.870   3.362   3.862
 4665SOL    HW214562   1.856   3.516   3.916
 4666SOL     OW14563   3.551   2.784   4.336
 4666SOL    HW114564   3.646   2.755   4.344
 4666SOL    HW214565   3.543   2.849   4.261
 4667SOL     OW14566   3.503   2.970   4.156
 4667SOL    HW114567   3.589   2.972   4.104
 4667SOL    HW214568   3.517   3.017   4.244
 4668SOL     OW14569   2.475   3.227   4.450
 4668SOL    HW114570   2.426   3.140   4.459
 4668SOL    HW214571   2.452   3.270   4.363
 4669SOL     OW14572   3.155   3.090   5.147
 4669SOL    HW114573   3.192   3.017   5.089
 4669SOL    HW214574   3.207   3.095   5.232
 4670SOL     OW14575   2.671   1.866   4.226
 4670SOL    HW114576   2.711   1.957   4.217
 4670SOL    HW214577   2.571   1.874   4.232
 4671SOL     OW14578   3.387   2.861   3.914
 4671SOL    HW114579   3.324   2.785   3.927
 4671SOL    HW214580   3.435   2.879   4.000
 4672SOL     OW14581   3.049   3.654   5.340
 4672SOL    HW114582   3.073   3.714   5.264
 4672SOL    HW214583   3.056   3.559   5.310
 4673SOL     OW14584   3.328   3.279   4.677
 4673SOL    HW114585   3.269   3.285   4.757
 4673SOL    HW214586   3.313   3.191   4.631
 4674SOL     OW14587   3.529   3.576   4.296
 4674SOL    HW114588   3.488   3.553   4.208
 4674SOL    HW214589   3.511   3.502   4.361
 4675SOL     OW14590   2.460   2.591   3.994
 4675SOL    HW114591   2.484   2.660   3.926
 4675SOL    HW214592   2.382   2.624   4.048
 4676SOL     OW14593   3.143   2.207   4.668
 4676SOL    HW114594   3.057   2.157   4.655
 4676SOL    HW214595   3.205   2.153   4.724
 4677SOL     OW14596   3.438   3.524   4.031
 4677SOL    HW114597   3.527   3.570   4.034
 4677SOL    HW214598   3.417   3.500   3.936
 4678SOL     OW14599   3.256   2.331   5.398
 4678SOL    HW114600   3.236   2.374   5.486
 4678SOL    HW214601   3.334   2.269   5.407
 4679SOL     OW14602   2.835   2.752   5.296
 4679SOL    HW114603   2.881   2.668   5.267
 4679SOL    HW214604   2.779   2.786   5.221
 4680SOL     OW14605   2.903   2.563   4.153
 4680SOL    HW114606   2.929   2.559   4.249
 4680SOL    HW214607   2.818   2.512   4.139
 4681SOL     OW14608   1.992   3.683   5.295
 4681SOL    HW114609   1.982   3.668   5.394
 4681SOL    HW214610   1.906   3.719   5.259
 4682SOL     OW14611   2.727   2.210   3.919
 4682SOL    HW114612   2.786   2.273   3.870
 4682SOL    HW214613   2.746   2.116   3.890
 4683SOL     OW14614   3.581   2.447   5.555
 4683SOL    HW114615   3.555   2.536   5.519
 4683SOL    HW214616   3.579   2.379   5.482
 4684SOL     OW14617   3.224   3.006   4.269
 4684SOL    HW114618   3.307   2.977   4.221
 4684SOL    HW214619   3.175   3.073   4.213
 4685SOL     OW14620   2.870   3.318   4.201
 4685SOL    HW114621   2.824   3.390   4.149
 4685SOL    HW214622   2.866   3.338   4.299
 4686SOL     OW14623   2.213   3.663   4.577
 4686SOL    HW114624   2.263   3.577   4.583
 4686SOL    HW214625   2.278   3.740   4.574
 4687SOL     OW14626   3.657   2.928   4.597
 4687SOL    HW114627   3.595   2.913   4.521
 4687SOL    HW214628   3.605   2.939   4.682
 4688SOL     OW14629   3.089   3.412   5.230
 4688SOL    HW114630   3.095   3.335   5.294
 4688SOL    HW214631   3.037   3.386   5.150
 4689SOL     OW14632   2.183   2.805   3.966
 4689SOL    HW114633   2.265   2.844   3.924
 4689SOL    HW214634   2.156   2.723   3.917
 4690SOL     OW14635   3.320   2.597   4.452
 4690SOL    HW114636   3.315   2.532   4.527
 4690SOL    HW214637   3.400   2.656   4.465
 4691SOL     OW14638   2.323   3.128   5.451
 4691SOL    HW114639   2.273   3.129   5.365
 4691SOL    HW214640   2.260   3.110   5.527
 4692SOL     OW14641   2.973   3.638   3.961
 4692SOL    HW114642   2.913   3.576   4.011
 4692SOL    HW214643   3.004   3.594   3.876
 4693SOL     OW14644   2.064   2.147   5.222
 4693SOL    HW114645   1.984   2.207   5.209
 4693SOL    HW214646   2.054   2.098   5.308
 4694SOL     OW14647   3.494   3.239   3.805
 4694SOL    HW114648   3.462   3.333   3.795
 4694SOL    HW214649   3.418   3.176   3.793
 4695SOL     OW14650   2.326   3.605   4.047
 4695SOL    HW114651   2.359   3.644   4.133
 4695SOL    HW214652   2.402   3.598   3.982
 4696SOL     OW14653   3.262   1.969   4.150
 4696SOL    HW114654   3.238   1.932   4.060
 4696SOL    HW214655   3.361   1.985   4.154
 4697SOL     OW14656   2.111   3.647   4.965
 4697SOL    HW114657   2.168   3.582   5.015
 4697SOL    HW214658   2.095   3.614   4.872
 4698SOL     OW14659   2.802   3.560   4.628
 4698SOL    HW114660   2.882   3.503   4.649
 4698SOL    HW214661   2.753   3.520   4.551
 4699SOL     OW14662   2.244   2.562   4.204
 4699SOL    HW114663   2.289   2.472   4.201
 4699SOL    HW214664   2.150   2.551   4.237
 4700SOL     OW14665   3.409   2.084   5.453
 4700SOL    HW114666   3.404   2.121   5.545
 4700SOL    HW214667   3.337   2.015   5.441
 4701SOL     OW14668   2.476   1.984   3.841
 4701SOL    HW114669   2.574   1.962   3.848
 4701SOL    HW214670   2.445   1.967   3.748
 4702SOL     OW14671   2.750   3.376   4.919
 4702SOL    HW114672   2.727   3.351   4.825
 4702SOL    HW214673   2.811   3.307   4.958
 4703SOL     OW14674   3.213   2.452   5.157
 4703SOL    HW114675   3.241   2.409   5.242
 4703SOL    HW214676   3.238   2.548   5.158
 4704SOL     OW14677   2.665   3.264   4.648
 4704SOL    HW114678   2.755   3.278   4.606
 4704SOL    HW214679   2.594   3.266   4.577
 4705SOL     OW14680   2.784   2.365   4.623
 4705SOL    HW114681   2.759   2.356   4.527
 4705SOL    HW214682   2.832   2.283   4.654
 4706SOL     OW14683   2.401   1.926   4.236
 4706SOL    HW114684   2.320   1.927   4.294
 4706SOL    HW214685   2.404   2.009   4.181
 4707SOL     OW14686   3.296   3.050   3.765
 4707SOL    HW114687   3.328   2.974   3.822
 4707SOL    HW214688   3.204   3.077   3.795
 4708SOL     OW14689   2.159   1.897   3.895
 4708SOL    HW114690   2.208   1.981   3.874
 4708SOL    HW214691   2.221   1.832   3.940
 4709SOL     OW14692   2.797   2.098   4.204
 4709SOL    HW114693   2.749   2.139   4.126
 4709SOL    HW214694   2.896   2.096   4.185
 4710SOL     OW14695   3.089   3.432   4.517
 4710SOL    HW114696   3.110   3.506   4.452
 4710SOL    HW214697   3.157   3.432   4.590
 4711SOL     OW14698   2.321   3.014   4.465
 4711SOL    HW114699   2.250   2.987   4.530
 4711SOL    HW214700   2.295   2.986   4.372
 4712SOL     OW14701   3.133   3.659   4.315
 4712SOL    HW114702   3.177   3.723   4.251
 4712SOL    HW214703   3.083   3.711   4.385
 4713SOL     OW14704   2.894   2.411   3.740
 4713SOL    HW114705   2.853   2.493   3.701
 4713SOL    HW214706   2.958   2.437   3.813
 4714SOL     OW14707   2.728   2.316   4.366
 4714SOL    HW114708   2.696   2.388   4.304
 4714SOL    HW214709   2.752   2.235   4.313
 4715SOL     OW14710   2.879   1.901   4.477
 4715SOL    HW114711   2.807   1.906   4.408
 4715SOL    HW214712   2.855   1.832   4.546
 4716SOL     OW14713   3.291   3.035   4.591
 4716SOL    HW114714   3.236   2.951   4.584
 4716SOL    HW214715   3.317   3.064   4.499
 4717SOL     OW14716   3.328   2.452   4.716
 4717SOL    HW114717   3.298   2.357   4.723
 4717SOL    HW214718   3.401   2.468   4.782
 4718SOL     OW14719   3.719   2.695   4.101
 4718SOL    HW114720   3.761   2.631   4.165
 4718SOL    HW214721   3.681   2.644   4.023
 4719SOL     OW14722   2.350   3.247   3.898
 4719SOL    HW114723   2.263   3.232   3.945
 4719SOL    HW214724   2.333   3.273   3.803
 4720SOL     OW14725   3.526   3.142   4.381
 4720SOL    HW114726   3.625   3.150   4.395
 4720SOL    HW214727   3.481   3.226   4.412
 4721SOL     OW14728   3.252   2.437   3.802
 4721SOL    HW114729   3.198   2.416   3.883
 4721SOL    HW214730   3.343   2.396   3.811
 4722SOL     OW14731   3.616   3.085   5.312
 4722SOL    HW114732   3.707   3.046   5.299
 4722SOL    HW214733   3.624   3.181   5.336
 4723SOL     OW14734   2.926   3.209   5.064
 4723SOL    HW114735   2.846   3.186   5.119
 4723SOL    HW214736   3.009   3.183   5.113
 4724SOL     OW14737   3.454   3.491   5.349
 4724SOL    HW114738   3.481   3.525   5.259
 4724SOL    HW214739   3.533   3.453   5.395
 4725SOL     OW14740   2.973   3.057   4.824
 4725SOL    HW114741   2.933   3.101   4.905
 4725SOL    HW214742   2.932   3.094   4.741
 4726SOL     OW14743   3.500   2.961   4.803
 4726SOL    HW114744   3.505   3.042   4.862
 4726SOL    HW214745   3.414   2.963   4.752
 4727SOL     OW14746   2.842   2.978   5.443
 4727SOL    HW114747   2.743   2.984   5.453
 4727SOL    HW214748   2.865   2.898   5.387
 4728SOL     OW14749   2.567   2.912   4.092
 4728SOL    HW114750   2.553   2.919   4.191
 4728SOL    HW214751   2.651   2.861   4.074
 4729SOL     OW14752   3.136   2.248   4.986
 4729SOL    HW114753   3.157   2.322   5.050
 4729SOL    HW214754   3.047   2.265   4.943
 4730SOL     OW14755   1.926   3.426   5.055
 4730SOL    HW114756   1.880   3.508   5.021
 4730SOL    HW214757   2.024   3.445   5.064
 4731SOL     OW14758   2.229   2.962   4.225
 4731SOL    HW114759   2.222   3.045   4.169
 4731SOL    HW214760   2.233   2.882   4.165
 4732SOL     OW14761   3.114   3.210   4.112
 4732SOL    HW114762   3.164   3.287   4.152
 4732SOL    HW214763   3.019   3.212   4.144
 4733SOL     OW14764   3.134   3.307   4.866
 4733SOL    HW114765   3.181   3.320   4.953
 4733SOL    HW214766   3.068   3.233   4.875
 4734SOL     OW14767   3.444   2.501   4.196
 4734SOL    HW114768   3.413   2.562   4.269
 4734SOL    HW214769   3.494   2.553   4.127
 4735SOL     OW14770   2.216   3.372   5.053
 4735SOL    HW114771   2.195   3.328   4.966
 4735SOL    HW214772   2.313   3.398   5.056
 4736SOL     OW14773   3.449   2.641   5.394
 4736SOL    HW114774   3.357   2.679   5.389
 4736SOL    HW214775   3.509   2.688   5.329
 4737SOL     OW14776   3.222   2.724   4.769
 4737SOL    HW114777   3.147   2.724   4.703
 4737SOL    HW214778   3.259   2.632   4.778
 4738SOL     OW14779   3.071   2.387   3.999
 4738SOL    HW114780   3.084   2.303   4.053
 4738SOL    HW214781   3.042   2.461   4.059
 4739SOL     OW14782   1.899   3.172   5.006
 4739SOL    HW114783   1.952   3.123   5.074
 4739SOL    HW214784   1.921   3.270   5.011
 4740SOL     OW14785   3.590   2.797   5.578
 4740SOL    HW114786   3.544   2.790   5.489
 4740SOL    HW214787   3.528   2.841   5.644
 4741SOL     OW14788   2.169   1.925   4.342
 4741SOL    HW114789   2.158   2.019   4.375
 4741SOL    HW214790   2.164   1.862   4.419
 4742SOL     OW14791   3.484   2.229   4.098
 4742SOL    HW114792   3.486   2.153   4.162
 4742SOL    HW214793   3.436   2.306   4.138
 4743SOL     OW14794   2.885   2.628   4.690
 4743SOL    HW114795   2.900   2.649   4.786
 4743SOL    HW214796   2.855   2.533   4.681
 4744SOL     OW14797   2.842   3.435   5.424
 4744SOL    HW114798   2.822   3.479   5.336
 4744SOL    HW214799   2.881   3.344   5.408
 4745SOL     OW14800   3.721   3.380   5.329
 4745SOL    HW114801   3.735   3.407   5.234
 4745SOL    HW214802   3.804   3.402   5.382
 4746SOL     OW14803   3.402   2.136   3.849
 4746SOL    HW114804   3.341   2.061   3.872
 4746SOL    HW214805   3.424   2.188   3.932
 4747SOL     OW14806   3.165   2.700   3.766
 4747SOL    HW114807   3.199   2.607   3.781
 4747SOL    HW214808   3.183   2.727   3.671
 4748SOL     OW14809   2.930   3.195   4.573
 4748SOL    HW114810   2.937   3.111   4.518
 4748SOL    HW214811   2.992   3.264   4.537
 4749SOL     OW14812   1.870   3.188   3.924
 4749SOL    HW114813   1.777   3.209   3.893
 4749SOL    HW214814   1.880   3.089   3.937
 4750SOL     OW14815   1.950   3.663   4.651
 4750SOL    HW114816   1.908   3.577   4.624
 4750SOL    HW214817   2.044   3.666   4.617
 4751SOL     OW14818   2.366   3.430   4.634
 4751SOL    HW114819   2.432   3.504   4.643
 4751SOL    HW214820   2.410   3.351   4.592
 4752SOL     OW14821   3.231   2.812   5.384
 4752SOL    HW114822   3.270   2.901   5.404
 4752SOL    HW214823   3.241   2.792   5.287
 4753SOL     OW14824   2.677   2.434   4.049
 4753SOL    HW114825   2.684   2.345   4.003
 4753SOL    HW214826   2.583   2.468   4.041
 4754SOL     OW14827   3.519   2.466   4.930
 4754SOL    HW114828   3.481   2.397   4.992
 4754SOL    HW214829   3.601   2.430   4.886
 4755SOL     OW14830   2.114   3.426   5.468
 4755SOL    HW114831   2.084   3.483   5.544
 4755SOL    HW214832   2.107   3.329   5.494
 4756SOL     OW14833   2.792   3.540   5.189
 4756SOL    HW114834   2.768   3.522   5.094
 4756SOL    HW214835   2.822   3.634   5.199
 4757SOL     OW14836   3.209   2.921   4.958
 4757SOL    HW114837   3.233   2.858   4.884
 4757SOL    HW214838   3.119   2.961   4.940
 4758SOL     OW14839   3.164   2.717   4.033
 4758SOL    HW114840   3.078   2.686   4.075
 4758SOL    HW214841   3.160   2.703   3.934
 4759SOL     OW14842   3.621   3.609   4.878
 4759SOL    HW114843   3.682   3.639   4.805
 4759SOL    HW214844   3.583   3.520   4.856
 4760SOL     OW14845   3.114   3.593   4.852
 4760SOL    HW114846   3.198   3.598   4.798
 4760SOL    HW214847   3.091   3.497   4.870
 4761SOL     OW14848   1.945   3.120   4.746
 4761SOL    HW114849   1.940   3.119   4.846
 4761SOL    HW214850   1.862   3.079   4.708
 4762SOL     OW14851   2.550   3.524   5.440
 4762SOL    HW114852   2.494   3.605   5.449
 4762SOL    HW214853   2.602   3.528   5.354
 4763SOL     OW14854   3.588   1.997   4.247
 4763SOL    HW114855   3.661   1.980   4.180
 4763SOL    HW214856   3.557   1.910   4.285
 4764SOL     OW14857   3.250   3.435   4.201
 4764SOL    HW114858   3.317   3.447   4.127
 4764SOL    HW214859   3.210   3.524   4.224
 4765SOL     OW14860   1.992   3.656   5.575
 4765SOL    HW114861   1.951   3.582   5.628
 4765SOL    HW214862   2.056   3.707   5.633
 4766SOL     OW14863   3.142   2.789   4.396
 4766SOL    HW114864   3.202   2.708   4.398
 4766SOL    HW214865   3.182   2.858   4.336
 4767SOL     OW14866   2.692   3.135   5.146
 4767SOL    HW114867   2.687   3.168   5.241
 4767SOL    HW214868   2.606   3.154   5.100
 4768SOL     OW14869   2.534   3.478   3.878
 4768SOL    HW114870   2.543   3.488   3.779
 4768SOL    HW214871   2.494   3.389   3.899
 4769SOL     OW14872   3.512   3.582   5.118
 4769SOL    HW114873   3.565   3.592   5.034
 4769SOL    HW214874   3.485   3.672   5.152
 4770SOL     OW14875   3.703   2.037   4.687
 4770SOL    HW114876   3.742   1.952   4.651
 4770SOL    HW214877   3.605   2.039   4.668
 4771SOL     OW14878   3.056   3.474   3.755
 4771SOL    HW114879   3.062   3.381   3.792
 4771SOL    HW214880   2.997   3.474   3.675
 4772SOL     OW14881   2.778   2.772   4.015
 4772SOL    HW114882   2.841   2.810   3.947
 4772SOL    HW214883   2.818   2.689   4.054
 4773SOL     OW14884   3.366   3.469   3.768
 4773SOL    HW114885   3.274   3.506   3.775
 4773SOL    HW214886   3.404   3.489   3.678
 4774SOL     OW14887   2.234   3.150   5.214
 4774SOL    HW114888   2.221   3.243   5.180
 4774SOL    HW214889   2.150   3.098   5.201
 4775SOL     OW14890   3.476   3.154   5.013
 4775SOL    HW114891   3.536   3.157   5.093
 4775SOL    HW214892   3.401   3.218   5.026
 4776SOL     OW14893   2.901   2.960   4.420
 4776SOL    HW114894   2.831   2.913   4.474
 4776SOL    HW214895   2.960   2.892   4.377
 4777SOL     OW14896   2.452   3.349   4.215
 4777SOL    HW114897   2.494   3.291   4.145
 4777SOL    HW214898   2.408   3.428   4.171
 4778SOL     OW14899   3.571   2.247   5.105
 4778SOL    HW114900   3.644   2.316   5.109
 4778SOL    HW214901   3.599   2.172   5.046
 4779SOL     OW14902   2.117   3.210   4.014
 4779SOL    HW114903   2.021   3.211   3.987
 4779SOL    HW214904   2.129   3.263   4.098
 4780SOL     OW14905   1.937   2.207   3.757
 4780SOL    HW114906   1.845   2.179   3.728
 4780SOL    HW214907   1.968   2.284   3.701
 4781SOL     OW14908   3.302   2.718   5.122
 4781SOL    HW114909   3.245   2.770   5.059
 4781SOL    HW214910   3.398   2.730   5.098
 4782SOL     OW14911   1.934   2.028   4.042
 4782SOL    HW114912   1.917   2.111   3.988
 4782SOL    HW214913   2.024   1.991   4.020
 4783SOL     OW14914   3.045   3.197   3.843
 4783SOL    HW114915   2.946   3.186   3.845
 4783SOL    HW214916   3.079   3.212   3.936
 4784SOL     OW14917   3.355   3.629   4.683
 4784SOL    HW114918   3.388   3.693   4.614
 4784SOL    HW214919   3.421   3.623   4.758
 4785SOL     OW14920   3.312   3.082   5.357
 4785SOL    HW114921   3.303   3.072   5.456
 4785SOL    HW214922   3.408   3.075   5.331
 4786SOL     OW14923   2.252   3.603   5.284
 4786SOL    HW114924   2.161   3.644   5.282
 4786SOL    HW214925   2.245   3.509   5.316
 4787SOL     OW14926   3.536   2.745   4.978
 4787SOL    HW114927   3.509   2.656   4.941
 4787SOL    HW214928   3.537   2.813   4.905
 4788SOL     OW14929   3.087   2.187   4.173
 4788SOL    HW114930   3.152   2.113   4.162
 4788SOL    HW214931   3.107   2.237   4.257
 4789SOL     OW14932   2.456   2.607   4.376
 4789SOL    HW114933   2.506   2.692   4.357
 4789SOL    HW214934   2.368   2.609   4.328
 4790SOL     OW14935   3.639   2.204   5.366
 4790SOL    HW114936   3.622   2.235   5.272
 4790SOL    HW214937   3.555   2.167   5.404
 4791SOL     OW14938   3.592   2.796   5.241
 4791SOL    HW114939   3.630   2.887   5.256
 4791SOL    HW214940   3.584   2.779   5.142
 4792SOL     OW14941   2.721   3.236   3.740
 4792SOL    HW114942   2.675   3.251   3.828
 4792SOL    HW214943   2.765   3.321   3.710
 4793SOL     OW14944   2.523   3.652   4.677
 4793SOL    HW114945   2.477   3.740   4.664
 4793SOL    HW214946   2.622   3.664   4.670
 4794SOL     OW14947   2.721   2.818   4.585
 4794SOL    HW114948   2.775   2.749   4.633
 4794SOL    HW214949   2.689   2.887   4.651
 4795SOL     OW14950   2.945   2.846   3.811
 4795SOL    HW114951   2.922   2.899   3.729
 4795SOL    HW214952   3.026   2.790   3.792
 4796SOL     OW14953   3.723   3.431   4.575
 4796SOL    HW114954   3.652   3.419   4.505
 4796SOL    HW214955   3.724   3.352   4.635
 4797SOL     OW14956   2.083   3.176   5.568
 4797SOL    HW114957   2.018   3.103   5.547
 4797SOL    HW214958   2.087   3.190   5.666
 4798SOL     OW14959   1.941   3.102   4.377
 4798SOL    HW114960   1.940   3.055   4.465
 4798SOL    HW214961   2.023   3.074   4.326
 4799SOL     OW14962   2.534   3.253   5.348
 4799SOL    HW114963   2.456   3.203   5.386
 4799SOL    HW214964   2.531   3.348   5.379
 4800SOL     OW14965   3.686   2.054   4.951
 4800SOL    HW114966   3.682   1.964   4.995
 4800SOL    HW214967   3.689   2.043   4.852
 4801SOL     OW14968   3.567   3.349   4.828
 4801SOL    HW114969   3.474   3.324   4.801
 4801SOL    HW214970   3.593   3.299   4.910
 4802SOL     OW14971   2.674   3.448   4.411
 4802SOL    HW114972   2.706   3.458   4.317
 4802SOL    HW214973   2.595   3.386   4.413
 4803SOL     OW14974   3.286   2.076   4.836
 4803SOL    HW114975   3.338   2.011   4.891
 4803SOL    HW214976   3.237   2.139   4.897
 4804SOL     OW14977   2.863   1.896   4.878
 4804SOL    HW114978   2.800   1.824   4.847
 4804SOL    HW214979   2.956   1.860   4.878
 4805SOL     OW14980   2.632   3.192   4.025
 4805SOL    HW114981   2.586   3.105   4.042
 4805SOL    HW214982   2.723   3.189   4.066
 4806SOL     OW14983   2.480   3.429   5.008
 4806SOL    HW114984   2.475   3.511   5.065
 4806SOL    HW214985   2.569   3.426   4.963
 4807SOL     OW14986   3.214   1.914   3.892
 4807SOL    HW114987   3.249   1.873   3.808
 4807SOL    HW214988   3.124   1.876   3.912
 4808SOL     OW14989   3.162   2.315   4.415
 4808SOL    HW114990   3.103   2.395   4.419
 4808SOL    HW214991   3.177   2.280   4.508
 4809SOL     OW14992   3.455   2.083   4.606
 4809SOL    HW114993   3.371   2.082   4.660
 4809SOL    HW214994   3.457   2.166   4.550
 4810SOL     OW14995   1.901   2.939   4.024
 4810SOL    HW114996   2.000   2.928   4.015
 4810SOL    HW214997   1.861   2.853   4.056
 4811SOL     OW14998   2.737   3.508   4.061
 4811SOL    HW114999   2.660   3.473   4.007
 4811SOL    HW215000   2.705   3.579   4.123
 4812SOL     OW15001   2.431   3.137   6.751
 4812SOL    HW115002   2.338   3.130   6.714
 4812SOL    HW215003   2.442   3.226   6.795
 4813SOL     OW15004   3.417   3.373   6.289
 4813SOL    HW115005   3.360   3.357   6.370
 4813SOL    HW215006   3.358   3.383   6.209
 4814SOL     OW15007   2.997   2.565   6.303
 4814SOL    HW115008   3.054   2.643   6.278
 4814SOL    HW215009   2.937   2.591   6.379
 4815SOL     OW15010   3.617   2.469   5.817
 4815SOL    HW115011   3.605   2.456   5.718
 4815SOL    HW215012   3.587   2.388   5.866
 4816SOL     OW15013   2.630   3.006   6.609
 4816SOL    HW115014   2.552   3.023   6.669
 4816SOL    HW215015   2.664   3.093   6.573
 4817SOL     OW15016   2.712   2.660   7.409
 4817SOL    HW115017   2.708   2.736   7.474
 4817SOL    HW215018   2.734   2.696   7.318
 4818SOL     OW15019   2.547   2.874   6.251
 4818SOL    HW115020   2.616   2.858   6.321
 4818SOL    HW215021   2.474   2.931   6.289
 4819SOL     OW15022   2.548   3.023   7.389
 4819SOL    HW115023   2.608   3.102   7.403
 4819SOL    HW215024   2.462   3.054   7.348
 4820SOL     OW15025   2.197   3.297   6.647
 4820SOL    HW115026   2.119   3.266   6.594
 4820SOL    HW215027   2.255   3.355   6.590
 4821SOL     OW15028   3.322   3.367   6.925
 4821SOL    HW115029   3.346   3.461   6.951
 4821SOL    HW215030   3.306   3.313   7.007
 4822SOL     OW15031   3.465   2.309   6.323
 4822SOL    HW115032   3.391   2.355   6.273
 4822SOL    HW215033   3.516   2.377   6.376
 4823SOL     OW15034   2.093   3.575   6.069
 4823SOL    HW115035   2.127   3.652   6.123
 4823SOL    HW215036   2.137   3.575   5.979
 4824SOL     OW15037   2.989   3.203   7.276
 4824SOL    HW115038   3.036   3.203   7.364
 4824SOL    HW215039   2.941   3.116   7.265
 4825SOL     OW15040   2.092   3.296   6.124
 4825SOL    HW115041   2.066   3.392   6.124
 4825SOL    HW215042   2.021   3.242   6.169
 4826SOL     OW15043   2.102   2.953   6.472
 4826SOL    HW115044   2.116   2.869   6.524
 4826SOL    HW215045   2.047   3.017   6.527
 4827SOL     OW15046   2.482   3.648   7.025
 4827SOL    HW115047   2.390   3.631   7.060
 4827SOL    HW215048   2.510   3.740   7.051
 4828SOL     OW15049   3.456   1.976   7.066
 4828SOL    HW115050   3.438   2.043   6.994
 4828SOL    HW215051   3.453   2.022   7.155
 4829SOL     OW15052   3.704   3.629   5.945
 4829SOL    HW115053   3.758   3.600   6.025
 4829SOL    HW215054   3.734   3.719   5.916
 4830SOL     OW15055   1.889   3.458   5.703
 4830SOL    HW115056   1.870   3.362   5.724
 4830SOL    HW215057   1.856   3.516   5.778
 4831SOL     OW15058   3.551   2.784   6.198
 4831SOL    HW115059   3.646   2.755   6.206
 4831SOL    HW215060   3.543   2.849   6.123
 4832SOL     OW15061   3.503   2.970   6.018
 4832SOL    HW115062   3.589   2.972   5.966
 4832SOL    HW215063   3.517   3.017   6.106
 4833SOL     OW15064   1.975   2.599   7.183
 4833SOL    HW115065   2.063   2.586   7.228
 4833SOL    HW215066   1.962   2.696   7.161
 4834SOL     OW15067   2.475   3.227   6.312
 4834SOL    HW115068   2.426   3.140   6.321
 4834SOL    HW215069   2.452   3.270   6.225
 4835SOL     OW15070   3.155   3.090   7.009
 4835SOL    HW115071   3.192   3.017   6.951
 4835SOL    HW215072   3.207   3.095   7.094
 4836SOL     OW15073   2.059   2.838   6.850
 4836SOL    HW115074   2.148   2.793   6.836
 4836SOL    HW215075   1.986   2.773   6.831
 4837SOL     OW15076   3.387   2.861   5.776
 4837SOL    HW115077   3.324   2.785   5.789
 4837SOL    HW215078   3.435   2.879   5.862
 4838SOL     OW15079   3.049   3.654   7.202
 4838SOL    HW115080   3.073   3.714   7.126
 4838SOL    HW215081   3.056   3.559   7.172
 4839SOL     OW15082   3.328   3.279   6.539
 4839SOL    HW115083   3.269   3.285   6.619
 4839SOL    HW215084   3.313   3.191   6.493
 4840SOL     OW15085   3.529   3.576   6.158
 4840SOL    HW115086   3.488   3.553   6.070
 4840SOL    HW215087   3.511   3.502   6.223
 4841SOL     OW15088   3.143   2.207   6.530
 4841SOL    HW115089   3.057   2.157   6.517
 4841SOL    HW215090   3.205   2.153   6.586
 4842SOL     OW15091   3.438   3.524   5.893
 4842SOL    HW115092   3.527   3.570   5.896
 4842SOL    HW215093   3.417   3.500   5.798
 4843SOL     OW15094   2.669   2.467   7.051
 4843SOL    HW115095   2.622   2.464   7.140
 4843SOL    HW215096   2.618   2.412   6.985
 4844SOL     OW15097   3.256   2.331   7.260
 4844SOL    HW115098   3.236   2.374   7.348
 4844SOL    HW215099   3.334   2.269   7.269
 4845SOL     OW15100   2.835   2.752   7.158
 4845SOL    HW115101   2.881   2.668   7.129
 4845SOL    HW215102   2.779   2.786   7.083
 4846SOL     OW15103   2.853   2.272   6.828
 4846SOL    HW115104   2.776   2.306   6.882
 4846SOL    HW215105   2.819   2.221   6.749
 4847SOL     OW15106   1.992   3.683   7.157
 4847SOL    HW115107   1.982   3.668   7.256
 4847SOL    HW215108   1.906   3.719   7.121
 4848SOL     OW15109   3.581   2.447   7.417
 4848SOL    HW115110   3.555   2.536   7.381
 4848SOL    HW215111   3.579   2.379   7.344
 4849SOL     OW15112   3.224   3.006   6.131
 4849SOL    HW115113   3.307   2.977   6.083
 4849SOL    HW215114   3.175   3.073   6.075
 4850SOL     OW15115   2.412   2.058   6.471
 4850SOL    HW115116   2.407   2.053   6.571
 4850SOL    HW215117   2.414   2.154   6.442
 4851SOL     OW15118   2.870   3.318   6.063
 4851SOL    HW115119   2.824   3.390   6.011
 4851SOL    HW215120   2.866   3.338   6.161
 4852SOL     OW15121   2.213   3.663   6.439
 4852SOL    HW115122   2.263   3.577   6.445
 4852SOL    HW215123   2.278   3.740   6.436
 4853SOL     OW15124   3.657   2.928   6.459
 4853SOL    HW115125   3.595   2.913   6.383
 4853SOL    HW215126   3.605   2.939   6.544
 4854SOL     OW15127   3.089   3.412   7.092
 4854SOL    HW115128   3.095   3.335   7.156
 4854SOL    HW215129   3.037   3.386   7.012
 4855SOL     OW15130   3.320   2.597   6.314
 4855SOL    HW115131   3.315   2.532   6.389
 4855SOL    HW215132   3.400   2.656   6.327
 4856SOL     OW15133   2.323   3.128   7.313
 4856SOL    HW115134   2.273   3.129   7.227
 4856SOL    HW215135   2.260   3.110   7.389
 4857SOL     OW15136   2.973   3.638   5.823
 4857SOL    HW115137   2.913   3.576   5.873
 4857SOL    HW215138   3.004   3.594   5.738
 4858SOL     OW15139   3.494   3.239   5.667
 4858SOL    HW115140   3.462   3.333   5.657
 4858SOL    HW215141   3.418   3.176   5.655
 4859SOL     OW15142   2.326   3.605   5.909
 4859SOL    HW115143   2.359   3.644   5.995
 4859SOL    HW215144   2.402   3.598   5.844
 4860SOL     OW15145   3.262   1.969   6.012
 4860SOL    HW115146   3.238   1.932   5.922
 4860SOL    HW215147   3.361   1.985   6.016
 4861SOL     OW15148   2.111   3.647   6.827
 4861SOL    HW115149   2.168   3.582   6.877
 4861SOL    HW215150   2.095   3.614   6.734
 4862SOL     OW15151   2.802   3.560   6.490
 4862SOL    HW115152   2.882   3.503   6.511
 4862SOL    HW215153   2.753   3.520   6.413
 4863SOL     OW15154   3.409   2.084   7.315
 4863SOL    HW115155   3.404   2.121   7.407
 4863SOL    HW215156   3.337   2.015   7.303
 4864SOL     OW15157   2.643   2.126   7.335
 4864SOL    HW115158   2.710   2.065   7.378
 4864SOL    HW215159   2.570   2.145   7.400
 4865SOL     OW15160   2.750   3.376   6.781
 4865SOL    HW115161   2.727   3.351   6.687
 4865SOL    HW215162   2.811   3.307   6.820
 4866SOL     OW15163   3.213   2.452   7.019
 4866SOL    HW115164   3.241   2.409   7.104
 4866SOL    HW215165   3.238   2.548   7.020
 4867SOL     OW15166   2.665   3.264   6.510
 4867SOL    HW115167   2.755   3.278   6.468
 4867SOL    HW215168   2.594   3.266   6.439
 4868SOL     OW15169   3.296   3.050   5.627
 4868SOL    HW115170   3.328   2.974   5.684
 4868SOL    HW215171   3.204   3.077   5.657
 4869SOL     OW15172   2.938   2.545   7.050
 4869SOL    HW115173   2.858   2.484   7.053
 4869SOL    HW215174   3.019   2.492   7.026
 4870SOL     OW15175   3.089   3.432   6.379
 4870SOL    HW115176   3.110   3.506   6.314
 4870SOL    HW215177   3.157   3.432   6.452
 4871SOL     OW15178   2.321   3.014   6.327
 4871SOL    HW115179   2.250   2.987   6.392
 4871SOL    HW215180   2.295   2.986   6.234
 4872SOL     OW15181   3.133   3.659   6.177
 4872SOL    HW115182   3.177   3.723   6.113
 4872SOL    HW215183   3.083   3.711   6.247
 4873SOL     OW15184   1.940   2.418   6.972
 4873SOL    HW115185   2.032   2.417   6.931
 4873SOL    HW215186   1.934   2.492   7.039
 4874SOL     OW15187   2.423   2.084   6.733
 4874SOL    HW115188   2.461   2.000   6.770
 4874SOL    HW215189   2.335   2.103   6.777
 4875SOL     OW15190   2.879   1.901   6.339
 4875SOL    HW115191   2.807   1.906   6.270
 4875SOL    HW215192   2.855   1.832   6.408
 4876SOL     OW15193   3.291   3.035   6.453
 4876SOL    HW115194   3.236   2.951   6.446
 4876SOL    HW215195   3.317   3.064   6.361
 4877SOL     OW15196   3.328   2.452   6.578
 4877SOL    HW115197   3.298   2.357   6.585
 4877SOL    HW215198   3.401   2.468   6.644
 4878SOL     OW15199   3.719   2.695   5.963
 4878SOL    HW115200   3.761   2.631   6.027
 4878SOL    HW215201   3.681   2.644   5.885
 4879SOL     OW15202   2.350   3.247   5.760
 4879SOL    HW115203   2.263   3.232   5.807
 4879SOL    HW215204   2.333   3.273   5.665
 4880SOL     OW15205   3.526   3.142   6.243
 4880SOL    HW115206   3.625   3.150   6.257
 4880SOL    HW215207   3.481   3.226   6.274
 4881SOL     OW15208   3.252   2.437   5.664
 4881SOL    HW115209   3.198   2.416   5.745
 4881SOL    HW215210   3.343   2.396   5.673
 4882SOL     OW15211   3.616   3.085   7.174
 4882SOL    HW115212   3.707   3.046   7.161
 4882SOL    HW215213   3.624   3.181   7.198
 4883SOL     OW15214   2.926   3.209   6.926
 4883SOL    HW115215   2.846   3.186   6.981
 4883SOL    HW215216   3.009   3.183   6.975
 4884SOL     OW15217   3.454   3.491   7.211
 4884SOL    HW115218   3.481   3.525   7.121
 4884SOL    HW215219   3.533   3.453   7.257
 4885SOL     OW15220   2.973   3.057   6.686
 4885SOL    HW115221   2.933   3.101   6.767
 4885SOL    HW215222   2.932   3.094   6.603
 4886SOL     OW15223   3.500   2.961   6.665
 4886SOL    HW115224   3.505   3.042   6.724
 4886SOL    HW215225   3.414   2.963   6.614
 4887SOL     OW15226   2.777   1.951   6.988
 4887SOL    HW115227   2.802   1.931   6.893
 4887SOL    HW215228   2.849   2.007   7.030
 4888SOL     OW15229   2.842   2.978   7.305
 4888SOL    HW115230   2.743   2.984   7.315
 4888SOL    HW215231   2.865   2.898   7.249
 4889SOL     OW15232   2.272   2.675   6.837
 4889SOL    HW115233   2.358   2.687   6.887
 4889SOL    HW215234   2.230   2.588   6.864
 4890SOL     OW15235   3.136   2.248   6.848
 4890SOL    HW115236   3.157   2.322   6.912
 4890SOL    HW215237   3.047   2.265   6.805
 4891SOL     OW15238   1.926   3.426   6.917
 4891SOL    HW115239   1.880   3.508   6.883
 4891SOL    HW215240   2.024   3.445   6.926
 4892SOL     OW15241   2.428   2.399   6.451
 4892SOL    HW115242   2.440   2.465   6.377
 4892SOL    HW215243   2.474   2.433   6.534
 4893SOL     OW15244   3.114   3.210   5.974
 4893SOL    HW115245   3.164   3.287   6.014
 4893SOL    HW215246   3.019   3.212   6.006
 4894SOL     OW15247   3.134   3.307   6.728
 4894SOL    HW115248   3.181   3.320   6.815
 4894SOL    HW215249   3.068   3.233   6.737
 4895SOL     OW15250   3.444   2.501   6.058
 4895SOL    HW115251   3.413   2.562   6.131
 4895SOL    HW215252   3.494   2.553   5.989
 4896SOL     OW15253   2.216   3.372   6.915
 4896SOL    HW115254   2.195   3.328   6.828
 4896SOL    HW215255   2.313   3.398   6.918
 4897SOL     OW15256   2.264   2.613   7.184
 4897SOL    HW115257   2.332   2.668   7.137
 4897SOL    HW215258   2.304   2.525   7.211
 4898SOL     OW15259   3.449   2.641   7.256
 4898SOL    HW115260   3.357   2.679   7.251
 4898SOL    HW215261   3.509   2.688   7.191
 4899SOL     OW15262   2.875   1.967   7.356
 4899SOL    HW115263   2.881   2.052   7.304
 4899SOL    HW215264   2.907   1.891   7.299
 4900SOL     OW15265   2.366   1.912   7.326
 4900SOL    HW115266   2.324   1.855   7.256
 4900SOL    HW215267   2.300   1.981   7.358
 4901SOL     OW15268   3.222   2.724   6.631
 4901SOL    HW115269   3.147   2.724   6.565
 4901SOL    HW215270   3.259   2.632   6.640
 4902SOL     OW15271   1.899   3.172   6.868
 4902SOL    HW115272   1.952   3.123   6.936
 4902SOL    HW215273   1.921   3.270   6.873
 4903SOL     OW15274   2.594   2.496   6.650
 4903SOL    HW115275   2.653   2.470   6.574
 4903SOL    HW215276   2.566   2.592   6.639
 4904SOL     OW15277   3.590   2.797   7.440
 4904SOL    HW115278   3.544   2.790   7.351
 4904SOL    HW215279   3.528   2.841   7.506
 4905SOL     OW15280   3.484   2.229   5.960
 4905SOL    HW115281   3.486   2.153   6.024
 4905SOL    HW215282   3.436   2.306   6.000
 4906SOL     OW15283   2.885   2.628   6.552
 4906SOL    HW115284   2.900   2.649   6.648
 4906SOL    HW215285   2.855   2.533   6.543
 4907SOL     OW15286   2.842   3.435   7.286
 4907SOL    HW115287   2.822   3.479   7.198
 4907SOL    HW215288   2.881   3.344   7.270
 4908SOL     OW15289   3.721   3.380   7.191
 4908SOL    HW115290   3.735   3.407   7.096
 4908SOL    HW215291   3.804   3.402   7.244
 4909SOL     OW15292   2.212   2.760   7.390
 4909SOL    HW115293   2.288   2.804   7.438
 4909SOL    HW215294   2.247   2.713   7.308
 4910SOL     OW15295   3.402   2.136   5.711
 4910SOL    HW115296   3.341   2.061   5.734
 4910SOL    HW215297   3.424   2.188   5.794
 4911SOL     OW15298   3.165   2.700   5.628
 4911SOL    HW115299   3.199   2.607   5.643
 4911SOL    HW215300   3.183   2.727   5.533
 4912SOL     OW15301   2.930   3.195   6.435
 4912SOL    HW115302   2.937   3.111   6.380
 4912SOL    HW215303   2.992   3.264   6.399
 4913SOL     OW15304   3.000   2.242   7.264
 4913SOL    HW115305   2.955   2.305   7.328
 4913SOL    HW215306   3.093   2.273   7.247
 4914SOL     OW15307   3.022   2.069   7.063
 4914SOL    HW115308   3.022   2.133   7.140
 4914SOL    HW215309   3.050   2.117   6.980
 4915SOL     OW15310   1.870   3.188   5.786
 4915SOL    HW115311   1.777   3.209   5.755
 4915SOL    HW215312   1.880   3.089   5.799
 4916SOL     OW15313   1.950   3.663   6.513
 4916SOL    HW115314   1.908   3.577   6.486
 4916SOL    HW215315   2.044   3.666   6.479
 4917SOL     OW15316   2.366   3.430   6.496
 4917SOL    HW115317   2.432   3.504   6.505
 4917SOL    HW215318   2.410   3.351   6.454
 4918SOL     OW15319   2.864   2.658   6.824
 4918SOL    HW115320   2.905   2.626   6.910
 4918SOL    HW215321   2.768   2.631   6.821
 4919SOL     OW15322   3.231   2.812   7.246
 4919SOL    HW115323   3.270   2.901   7.266
 4919SOL    HW215324   3.241   2.792   7.149
 4920SOL     OW15325   3.519   2.466   6.792
 4920SOL    HW115326   3.481   2.397   6.854
 4920SOL    HW215327   3.601   2.430   6.748
 4921SOL     OW15328   2.114   3.426   7.330
 4921SOL    HW115329   2.084   3.483   7.406
 4921SOL    HW215330   2.107   3.329   7.356
 4922SOL     OW15331   2.792   3.540   7.051
 4922SOL    HW115332   2.768   3.522   6.956
 4922SOL    HW215333   2.822   3.634   7.061
 4923SOL     OW15334   2.021   2.999   7.052
 4923SOL    HW115335   2.043   2.938   7.128
 4923SOL    HW215336   2.031   2.950   6.966
 4924SOL     OW15337   3.209   2.921   6.820
 4924SOL    HW115338   3.233   2.858   6.746
 4924SOL    HW215339   3.119   2.961   6.802
 4925SOL     OW15340   3.164   2.717   5.895
 4925SOL    HW115341   3.078   2.686   5.937
 4925SOL    HW215342   3.160   2.703   5.796
 4926SOL     OW15343   3.621   3.609   6.740
 4926SOL    HW115344   3.682   3.639   6.667
 4926SOL    HW215345   3.583   3.520   6.718
 4927SOL     OW15346   3.114   3.593   6.714
 4927SOL    HW115347   3.198   3.598   6.660
 4927SOL    HW215348   3.091   3.497   6.732
 4928SOL     OW15349   1.945   3.120   6.608
 4928SOL    HW115350   1.940   3.119   6.708
 4928SOL    HW215351   1.862   3.079   6.570
 4929SOL     OW15352   2.550   3.524   7.302
 4929SOL    HW115353   2.494   3.605   7.311
 4929SOL    HW215354   2.602   3.528   7.216
 4930SOL     OW15355   3.588   1.997   6.109
 4930SOL    HW115356   3.661   1.980   6.042
 4930SOL    HW215357   3.557   1.910   6.147
 4931SOL     OW15358   3.250   3.435   6.063
 4931SOL    HW115359   3.317   3.447   5.989
 4931SOL    HW215360   3.210   3.524   6.086
 4932SOL     OW15361   1.992   3.656   7.437
 4932SOL    HW115362   1.951   3.582   7.490
 4932SOL    HW215363   2.056   3.707   7.495
 4933SOL     OW15364   3.142   2.789   6.258
 4933SOL    HW115365   3.202   2.708   6.260
 4933SOL    HW215366   3.182   2.858   6.198
 4934SOL     OW15367   2.692   3.135   7.008
 4934SOL    HW115368   2.687   3.168   7.103
 4934SOL    HW215369   2.606   3.154   6.962
 4935SOL     OW15370   2.534   3.478   5.740
 4935SOL    HW115371   2.543   3.488   5.641
 4935SOL    HW215372   2.494   3.389   5.761
 4936SOL     OW15373   3.512   3.582   6.980
 4936SOL    HW115374   3.565   3.592   6.896
 4936SOL    HW215375   3.485   3.672   7.014
 4937SOL     OW15376   3.703   2.037   6.549
 4937SOL    HW115377   3.742   1.952   6.513
 4937SOL    HW215378   3.605   2.039   6.530
 4938SOL     OW15379   3.056   3.474   5.617
 4938SOL    HW115380   3.062   3.381   5.654
 4938SOL    HW215381   2.997   3.474   5.537
 4939SOL     OW15382   2.684   2.864   6.958
 4939SOL    HW115383   2.724   2.863   6.866
 4939SOL    HW215384   2.694   2.956   6.998
 4940SOL     OW15385   3.366   3.469   5.630
 4940SOL    HW115386   3.274   3.506   5.637
 4940SOL    HW215387   3.404   3.489   5.540
 4941SOL     OW15388   2.234   3.150   7.076
 4941SOL    HW115389   2.221   3.243   7.042
 4941SOL    HW215390   2.150   3.098   7.063
 4942SOL     OW15391   3.476   3.154   6.875
 4942SOL    HW115392   3.536   3.157   6.955
 4942SOL    HW215393   3.401   3.218   6.888
 4943SOL     OW15394   2.901   2.960   6.282
 4943SOL    HW115395   2.831   2.913   6.336
 4943SOL    HW215396   2.960   2.892   6.239
 4944SOL     OW15397   2.876   2.098   6.557
 4944SOL    HW115398   2.868   2.062   6.464
 4944SOL    HW215399   2.874   2.022   6.622
 4945SOL     OW15400   2.452   3.349   6.077
 4945SOL    HW115401   2.494   3.291   6.007
 4945SOL    HW215402   2.408   3.428   6.033
 4946SOL     OW15403   3.571   2.247   6.967
 4946SOL    HW115404   3.644   2.316   6.971
 4946SOL    HW215405   3.599   2.172   6.908
 4947SOL     OW15406   2.117   3.210   5.876
 4947SOL    HW115407   2.021   3.211   5.849
 4947SOL    HW215408   2.129   3.263   5.960
 4948SOL     OW15409   1.967   2.875   7.312
 4948SOL    HW115410   1.890   2.842   7.366
 4948SOL    HW215411   2.052   2.845   7.354
 4949SOL     OW15412   2.534   2.065   7.075
 4949SOL    HW115413   2.624   2.049   7.035
 4949SOL    HW215414   2.542   2.070   7.174
 4950SOL     OW15415   3.302   2.718   6.984
 4950SOL    HW115416   3.245   2.770   6.921
 4950SOL    HW215417   3.398   2.730   6.960
 4951SOL     OW15418   3.045   3.197   5.705
 4951SOL    HW115419   2.946   3.186   5.707
 4951SOL    HW215420   3.079   3.212   5.798
 4952SOL     OW15421   2.475   2.704   7.017
 4952SOL    HW115422   2.531   2.785   7.000
 4952SOL    HW215423   2.534   2.624   7.020
 4953SOL     OW15424   3.355   3.629   6.545
 4953SOL    HW115425   3.388   3.693   6.476
 4953SOL    HW215426   3.421   3.623   6.620
 4954SOL     OW15427   2.578   2.427   7.294
 4954SOL    HW115428   2.597   2.492   7.368
 4954SOL    HW215429   2.638   2.347   7.303
 4955SOL     OW15430   3.312   3.082   7.219
 4955SOL    HW115431   3.303   3.072   7.318
 4955SOL    HW215432   3.408   3.075   7.193
 4956SOL     OW15433   2.252   3.603   7.146
 4956SOL    HW115434   2.161   3.644   7.144
 4956SOL    HW215435   2.245   3.509   7.178
 4957SOL     OW15436   3.536   2.745   6.840
 4957SOL    HW115437   3.509   2.656   6.803
 4957SOL    HW215438   3.537   2.813   6.767
 4958SOL     OW15439   3.087   2.187   6.035
 4958SOL    HW115440   3.152   2.113   6.024
 4958SOL    HW215441   3.107   2.237   6.119
 4959SOL     OW15442   3.639   2.204   7.228
 4959SOL    HW115443   3.622   2.235   7.134
 4959SOL    HW215444   3.555   2.167   7.266
 4960SOL     OW15445   3.592   2.796   7.103
 4960SOL    HW115446   3.630   2.887   7.118
 4960SOL    HW215447   3.584   2.779   7.004
 4961SOL     OW15448   2.721   3.236   5.602
 4961SOL    HW115449   2.675   3.251   5.690
 4961SOL    HW215450   2.765   3.321   5.572
 4962SOL     OW15451   2.523   3.652   6.539
 4962SOL    HW115452   2.477   3.740   6.526
 4962SOL    HW215453   2.622   3.664   6.532
 4963SOL     OW15454   2.721   2.818   6.447
 4963SOL    HW115455   2.775   2.749   6.495
 4963SOL    HW215456   2.689   2.887   6.513
 4964SOL     OW15457   2.945   2.846   5.673
 4964SOL    HW115458   2.922   2.899   5.591
 4964SOL    HW215459   3.026   2.790   5.654
 4965SOL     OW15460   3.723   3.431   6.437
 4965SOL    HW115461   3.652   3.419   6.367
 4965SOL    HW215462   3.724   3.352   6.497
 4966SOL     OW15463   2.083   3.176   7.430
 4966SOL    HW115464   2.018   3.103   7.409
 4966SOL    HW215465   2.087   3.190   7.528
 4967SOL     OW15466   1.941   3.102   6.239
 4967SOL    HW115467   1.940   3.055   6.327
 4967SOL    HW215468   2.023   3.074   6.188
 4968SOL     OW15469   2.534   3.253   7.210
 4968SOL    HW115470   2.456   3.203   7.248
 4968SOL    HW215471   2.531   3.348   7.241
 4969SOL     OW15472   3.686   2.054   6.813
 4969SOL    HW115473   3.682   1.964   6.857
 4969SOL    HW215474   3.689   2.043   6.714
 4970SOL     OW15475   3.567   3.349   6.690
 4970SOL    HW115476   3.474   3.324   6.663
 4970SOL    HW215477   3.593   3.299   6.772
 4971SOL     OW15478   2.674   3.448   6.273
 4971SOL    HW115479   2.706   3.458   6.179
 4971SOL    HW215480   2.595   3.386   6.275
 4972SOL     OW15481   3.286   2.076   6.698
 4972SOL    HW115482   3.338   2.011   6.753
 4972SOL    HW215483   3.237   2.139   6.759
 4973SOL     OW15484   2.863   1.896   6.740
 4973SOL    HW115485   2.800   1.824   6.709
 4973SOL    HW215486   2.956   1.860   6.740
 4974SOL     OW15487   2.632   3.192   5.887
 4974SOL    HW115488   2.586   3.105   5.904
 4974SOL    HW215489   2.723   3.189   5.928
 4975SOL     OW15490   2.480   3.429   6.870
 4975SOL    HW115491   2.475   3.511   6.927
 4975SOL    HW215492   2.569   3.426   6.825
 4976SOL     OW15493   3.214   1.914   5.754
 4976SOL    HW115494   3.249   1.873   5.670
 4976SOL    HW215495   3.124   1.876   5.774
 4977SOL     OW15496   3.162   2.315   6.277
 4977SOL    HW115497   3.103   2.395   6.281
 4977SOL    HW215498   3.177   2.280   6.370
 4978SOL     OW15499   3.455   2.083   6.468
 4978SOL    HW115500   3.371   2.082   6.522
 4978SOL    HW215501   3.457   2.166   6.412
 4979SOL     OW15502   2.737   3.508   5.923
 4979SOL    HW115503   2.660   3.473   5.869
 4979SOL    HW215504   2.705   3.579   5.985
 4980SOL     OW15505   2.092   2.490   7.561
 4980SOL    HW115506   1.999   2.488   7.598
 4980SOL    HW215507   2.093   2.451   7.469
 4981SOL     OW15508   1.881   2.230   8.095
 4981SOL    HW115509   1.799   2.273   8.134
 4981SOL    HW215510   1.853   2.157   8.032
 4982SOL     OW15511   2.431   3.137   8.613
 4982SOL    HW115512   2.338   3.130   8.576
 4982SOL    HW215513   2.442   3.226   8.657
 4983SOL     OW15514   3.417   3.373   8.151
 4983SOL    HW115515   3.360   3.357   8.232
 4983SOL    HW215516   3.358   3.383   8.071
 4984SOL     OW15517   2.997   2.565   8.165
 4984SOL    HW115518   3.054   2.643   8.140
 4984SOL    HW215519   2.937   2.591   8.241
 4985SOL     OW15520   3.617   2.469   7.679
 4985SOL    HW115521   3.605   2.456   7.580
 4985SOL    HW215522   3.587   2.388   7.728
 4986SOL     OW15523   2.630   3.006   8.471
 4986SOL    HW115524   2.552   3.023   8.531
 4986SOL    HW215525   2.664   3.093   8.435
 4987SOL     OW15526   2.712   2.660   9.271
 4987SOL    HW115527   2.708   2.736   9.336
 4987SOL    HW215528   2.734   2.696   9.180
 4988SOL     OW15529   2.547   2.874   8.113
 4988SOL    HW115530   2.616   2.858   8.183
 4988SOL    HW215531   2.474   2.931   8.151
 4989SOL     OW15532   2.548   3.023   9.251
 4989SOL    HW115533   2.608   3.102   9.265
 4989SOL    HW215534   2.462   3.054   9.210
 4990SOL     OW15535   2.197   3.297   8.509
 4990SOL    HW115536   2.119   3.266   8.456
 4990SOL    HW215537   2.255   3.355   8.452
 4991SOL     OW15538   3.322   3.367   8.787
 4991SOL    HW115539   3.346   3.461   8.813
 4991SOL    HW215540   3.306   3.313   8.869
 4992SOL     OW15541   3.465   2.309   8.185
 4992SOL    HW115542   3.391   2.355   8.135
 4992SOL    HW215543   3.516   2.377   8.238
 4993SOL     OW15544   2.093   3.575   7.931
 4993SOL    HW115545   2.127   3.652   7.985
 4993SOL    HW215546   2.137   3.575   7.841
 4994SOL     OW15547   2.989   3.203   9.138
 4994SOL    HW115548   3.036   3.203   9.226
 4994SOL    HW215549   2.941   3.116   9.127
 4995SOL     OW15550   2.092   3.296   7.986
 4995SOL    HW115551   2.066   3.392   7.986
 4995SOL    HW215552   2.021   3.242   8.031
 4996SOL     OW15553   2.102   2.953   8.334
 4996SOL    HW115554   2.116   2.869   8.386
 4996SOL    HW215555   2.047   3.017   8.389
 4997SOL     OW15556   2.482   3.648   8.887
 4997SOL    HW115557   2.390   3.631   8.922
 4997SOL    HW215558   2.510   3.740   8.913
 4998SOL     OW15559   2.468   2.826   7.571
 4998SOL    HW115560   2.475   2.910   7.517
 4998SOL    HW215561   2.514   2.839   7.659
 4999SOL     OW15562   3.456   1.976   8.928
 4999SOL    HW115563   3.438   2.043   8.856
 4999SOL    HW215564   3.453   2.022   9.017
 5000SOL     OW15565   1.984   2.505   8.011
 5000SOL    HW115566   1.939   2.417   8.028
 5000SOL    HW215567   1.983   2.559   8.095
 5001SOL     OW15568   3.704   3.629   7.807
 5001SOL    HW115569   3.758   3.600   7.887
 5001SOL    HW215570   3.734   3.719   7.778
 5002SOL     OW15571   1.889   3.458   7.565
 5002SOL    HW115572   1.870   3.362   7.586
 5002SOL    HW215573   1.856   3.516   7.640
 5003SOL     OW15574   3.551   2.784   8.060
 5003SOL    HW115575   3.646   2.755   8.068
 5003SOL    HW215576   3.543   2.849   7.985
 5004SOL     OW15577   3.503   2.970   7.880
 5004SOL    HW115578   3.589   2.972   7.828
 5004SOL    HW215579   3.517   3.017   7.968
 5005SOL     OW15580   1.975   2.599   9.045
 5005SOL    HW115581   2.063   2.586   9.090
 5005SOL    HW215582   1.962   2.696   9.023
 5006SOL     OW15583   2.475   3.227   8.174
 5006SOL    HW115584   2.426   3.140   8.183
 5006SOL    HW215585   2.452   3.270   8.087
 5007SOL     OW15586   3.155   3.090   8.871
 5007SOL    HW115587   3.192   3.017   8.813
 5007SOL    HW215588   3.207   3.095   8.956
 5008SOL     OW15589   2.671   1.866   7.950
 5008SOL    HW115590   2.711   1.957   7.941
 5008SOL    HW215591   2.571   1.874   7.956
 5009SOL     OW15592   2.059   2.838   8.712
 5009SOL    HW115593   2.148   2.793   8.698
 5009SOL    HW215594   1.986   2.773   8.693
 5010SOL     OW15595   3.387   2.861   7.638
 5010SOL    HW115596   3.324   2.785   7.651
 5010SOL    HW215597   3.435   2.879   7.724
 5011SOL     OW15598   3.049   3.654   9.064
 5011SOL    HW115599   3.073   3.714   8.988
 5011SOL    HW215600   3.056   3.559   9.034
 5012SOL     OW15601   3.328   3.279   8.401
 5012SOL    HW115602   3.269   3.285   8.481
 5012SOL    HW215603   3.313   3.191   8.355
 5013SOL     OW15604   3.529   3.576   8.020
 5013SOL    HW115605   3.488   3.553   7.932
 5013SOL    HW215606   3.511   3.502   8.085
 5014SOL     OW15607   2.460   2.591   7.718
 5014SOL    HW115608   2.484   2.660   7.650
 5014SOL    HW215609   2.382   2.624   7.772
 5015SOL     OW15610   3.143   2.207   8.392
 5015SOL    HW115611   3.057   2.157   8.379
 5015SOL    HW215612   3.205   2.153   8.448
 5016SOL     OW15613   3.438   3.524   7.755
 5016SOL    HW115614   3.527   3.570   7.758
 5016SOL    HW215615   3.417   3.500   7.660
 5017SOL     OW15616   2.669   2.467   8.913
 5017SOL    HW115617   2.622   2.464   9.002
 5017SOL    HW215618   2.618   2.412   8.847
 5018SOL     OW15619   3.256   2.331   9.122
 5018SOL    HW115620   3.236   2.374   9.210
 5018SOL    HW215621   3.334   2.269   9.131
 5019SOL     OW15622   2.835   2.752   9.020
 5019SOL    HW115623   2.881   2.668   8.991
 5019SOL    HW215624   2.779   2.786   8.945
 5020SOL     OW15625   2.853   2.272   8.690
 5020SOL    HW115626   2.776   2.306   8.744
 5020SOL    HW215627   2.819   2.221   8.611
 5021SOL     OW15628   2.903   2.563   7.877
 5021SOL    HW115629   2.929   2.559   7.973
 5021SOL    HW215630   2.818   2.512   7.863
 5022SOL     OW15631   1.938   2.673   8.237
 5022SOL    HW115632   2.037   2.661   8.246
 5022SOL    HW215633   1.914   2.768   8.258
 5023SOL     OW15634   1.992   3.683   9.019
 5023SOL    HW115635   1.982   3.668   9.118
 5023SOL    HW215636   1.906   3.719   8.983
 5024SOL     OW15637   2.727   2.210   7.643
 5024SOL    HW115638   2.786   2.273   7.594
 5024SOL    HW215639   2.746   2.116   7.614
 5025SOL     OW15640   3.581   2.447   9.279
 5025SOL    HW115641   3.555   2.536   9.243
 5025SOL    HW215642   3.579   2.379   9.206
 5026SOL     OW15643   3.224   3.006   7.993
 5026SOL    HW115644   3.307   2.977   7.945
 5026SOL    HW215645   3.175   3.073   7.937
 5027SOL     OW15646   2.870   3.318   7.925
 5027SOL    HW115647   2.824   3.390   7.873
 5027SOL    HW215648   2.866   3.338   8.023
 5028SOL     OW15649   2.213   3.663   8.301
 5028SOL    HW115650   2.263   3.577   8.307
 5028SOL    HW215651   2.278   3.740   8.298
 5029SOL     OW15652   3.657   2.928   8.321
 5029SOL    HW115653   3.595   2.913   8.245
 5029SOL    HW215654   3.605   2.939   8.406
 5030SOL     OW15655   3.089   3.412   8.954
 5030SOL    HW115656   3.095   3.335   9.018
 5030SOL    HW215657   3.037   3.386   8.874
 5031SOL     OW15658   2.183   2.805   7.690
 5031SOL    HW115659   2.265   2.844   7.648
 5031SOL    HW215660   2.156   2.723   7.641
 5032SOL     OW15661   3.320   2.597   8.176
 5032SOL    HW115662   3.315   2.532   8.251
 5032SOL    HW215663   3.400   2.656   8.189
 5033SOL     OW15664   2.323   3.128   9.175
 5033SOL    HW115665   2.273   3.129   9.089
 5033SOL    HW215666   2.260   3.110   9.251
 5034SOL     OW15667   2.973   3.638   7.685
 5034SOL    HW115668   2.913   3.576   7.735
 5034SOL    HW215669   3.004   3.594   7.600
 5035SOL     OW15670   2.064   2.147   8.946
 5035SOL    HW115671   1.984   2.207   8.933
 5035SOL    HW215672   2.054   2.098   9.032
 5036SOL     OW15673   3.494   3.239   7.529
 5036SOL    HW115674   3.462   3.333   7.519
 5036SOL    HW215675   3.418   3.176   7.517
 5037SOL     OW15676   2.326   3.605   7.771
 5037SOL    HW115677   2.359   3.644   7.857
 5037SOL    HW215678   2.402   3.598   7.706
 5038SOL     OW15679   3.262   1.969   7.874
 5038SOL    HW115680   3.238   1.932   7.784
 5038SOL    HW215681   3.361   1.985   7.878
 5039SOL     OW15682   2.111   3.647   8.689
 5039SOL    HW115683   2.168   3.582   8.739
 5039SOL    HW215684   2.095   3.614   8.596
 5040SOL     OW15685   2.802   3.560   8.352
 5040SOL    HW115686   2.882   3.503   8.373
 5040SOL    HW215687   2.753   3.520   8.275
 5041SOL     OW15688   3.409   2.084   9.177
 5041SOL    HW115689   3.404   2.121   9.269
 5041SOL    HW215690   3.337   2.015   9.165
 5042SOL     OW15691   2.476   1.984   7.565
 5042SOL    HW115692   2.574   1.962   7.572
 5042SOL    HW215693   2.445   1.967   7.472
 5043SOL     OW15694   2.643   2.126   9.197
 5043SOL    HW115695   2.710   2.065   9.240
 5043SOL    HW215696   2.570   2.145   9.262
 5044SOL     OW15697   2.750   3.376   8.643
 5044SOL    HW115698   2.727   3.351   8.549
 5044SOL    HW215699   2.811   3.307   8.682
 5045SOL     OW15700   3.213   2.452   8.881
 5045SOL    HW115701   3.241   2.409   8.966
 5045SOL    HW215702   3.238   2.548   8.882
 5046SOL     OW15703   2.665   3.264   8.372
 5046SOL    HW115704   2.755   3.278   8.330
 5046SOL    HW215705   2.594   3.266   8.301
 5047SOL     OW15706   2.784   2.365   8.347
 5047SOL    HW115707   2.759   2.356   8.251
 5047SOL    HW215708   2.832   2.283   8.378
 5048SOL     OW15709   2.401   1.926   7.960
 5048SOL    HW115710   2.320   1.927   8.018
 5048SOL    HW215711   2.404   2.009   7.905
 5049SOL     OW15712   3.296   3.050   7.489
 5049SOL    HW115713   3.328   2.974   7.546
 5049SOL    HW215714   3.204   3.077   7.519
 5050SOL     OW15715   2.159   1.897   7.619
 5050SOL    HW115716   2.208   1.981   7.598
 5050SOL    HW215717   2.221   1.832   7.664
 5051SOL     OW15718   2.797   2.098   7.928
 5051SOL    HW115719   2.749   2.139   7.850
 5051SOL    HW215720   2.896   2.096   7.909
 5052SOL     OW15721   2.938   2.545   8.912
 5052SOL    HW115722   2.858   2.484   8.915
 5052SOL    HW215723   3.019   2.492   8.888
 5053SOL     OW15724   3.089   3.432   8.241
 5053SOL    HW115725   3.110   3.506   8.176
 5053SOL    HW215726   3.157   3.432   8.314
 5054SOL     OW15727   2.321   3.014   8.189
 5054SOL    HW115728   2.250   2.987   8.254
 5054SOL    HW215729   2.295   2.986   8.096
 5055SOL     OW15730   3.133   3.659   8.039
 5055SOL    HW115731   3.177   3.723   7.975
 5055SOL    HW215732   3.083   3.711   8.109
 5056SOL     OW15733   2.894   2.411   7.464
 5056SOL    HW115734   2.853   2.493   7.425
 5056SOL    HW215735   2.958   2.437   7.537
 5057SOL     OW15736   1.940   2.418   8.834
 5057SOL    HW115737   2.032   2.417   8.793
 5057SOL    HW215738   1.934   2.492   8.901
 5058SOL     OW15739   2.728   2.316   8.090
 5058SOL    HW115740   2.696   2.388   8.028
 5058SOL    HW215741   2.752   2.235   8.037
 5059SOL     OW15742   2.879   1.901   8.201
 5059SOL    HW115743   2.807   1.906   8.132
 5059SOL    HW215744   2.855   1.832   8.270
 5060SOL     OW15745   3.291   3.035   8.315
 5060SOL    HW115746   3.236   2.951   8.308
 5060SOL    HW215747   3.317   3.064   8.223
 5061SOL     OW15748   3.328   2.452   8.440
 5061SOL    HW115749   3.298   2.357   8.447
 5061SOL    HW215750   3.401   2.468   8.506
 5062SOL     OW15751   3.719   2.695   7.825
 5062SOL    HW115752   3.761   2.631   7.889
 5062SOL    HW215753   3.681   2.644   7.747
 5063SOL     OW15754   2.350   3.247   7.622
 5063SOL    HW115755   2.263   3.232   7.669
 5063SOL    HW215756   2.333   3.273   7.527
 5064SOL     OW15757   3.526   3.142   8.105
 5064SOL    HW115758   3.625   3.150   8.119
 5064SOL    HW215759   3.481   3.226   8.136
 5065SOL     OW15760   3.252   2.437   7.526
 5065SOL    HW115761   3.198   2.416   7.607
 5065SOL    HW215762   3.343   2.396   7.535
 5066SOL     OW15763   3.616   3.085   9.036
 5066SOL    HW115764   3.707   3.046   9.023
 5066SOL    HW215765   3.624   3.181   9.060
 5067SOL     OW15766   2.926   3.209   8.788
 5067SOL    HW115767   2.846   3.186   8.843
 5067SOL    HW215768   3.009   3.183   8.837
 5068SOL     OW15769   3.454   3.491   9.073
 5068SOL    HW115770   3.481   3.525   8.983
 5068SOL    HW215771   3.533   3.453   9.119
 5069SOL     OW15772   2.973   3.057   8.548
 5069SOL    HW115773   2.933   3.101   8.629
 5069SOL    HW215774   2.932   3.094   8.465
 5070SOL     OW15775   3.500   2.961   8.527
 5070SOL    HW115776   3.505   3.042   8.586
 5070SOL    HW215777   3.414   2.963   8.476
 5071SOL     OW15778   2.777   1.951   8.850
 5071SOL    HW115779   2.802   1.931   8.755
 5071SOL    HW215780   2.849   2.007   8.892
 5072SOL     OW15781   2.842   2.978   9.167
 5072SOL    HW115782   2.743   2.984   9.177
 5072SOL    HW215783   2.865   2.898   9.111
 5073SOL     OW15784   2.567   2.912   7.816
 5073SOL    HW115785   2.553   2.919   7.915
 5073SOL    HW215786   2.651   2.861   7.798
 5074SOL     OW15787   2.272   2.675   8.699
 5074SOL    HW115788   2.358   2.687   8.749
 5074SOL    HW215789   2.230   2.588   8.726
 5075SOL     OW15790   3.136   2.248   8.710
 5075SOL    HW115791   3.157   2.322   8.774
 5075SOL    HW215792   3.047   2.265   8.667
 5076SOL     OW15793   1.926   3.426   8.779
 5076SOL    HW115794   1.880   3.508   8.745
 5076SOL    HW215795   2.024   3.445   8.788
 5077SOL     OW15796   2.229   2.962   7.949
 5077SOL    HW115797   2.222   3.045   7.893
 5077SOL    HW215798   2.233   2.882   7.889
 5078SOL     OW15799   3.114   3.210   7.836
 5078SOL    HW115800   3.164   3.287   7.876
 5078SOL    HW215801   3.019   3.212   7.868
 5079SOL     OW15802   3.134   3.307   8.590
 5079SOL    HW115803   3.181   3.320   8.677
 5079SOL    HW215804   3.068   3.233   8.599
 5080SOL     OW15805   3.444   2.501   7.920
 5080SOL    HW115806   3.413   2.562   7.993
 5080SOL    HW215807   3.494   2.553   7.851
 5081SOL     OW15808   2.216   3.372   8.777
 5081SOL    HW115809   2.195   3.328   8.690
 5081SOL    HW215810   2.313   3.398   8.780
 5082SOL     OW15811   2.264   2.613   9.046
 5082SOL    HW115812   2.332   2.668   8.999
 5082SOL    HW215813   2.304   2.525   9.073
 5083SOL     OW15814   3.449   2.641   9.118
 5083SOL    HW115815   3.357   2.679   9.113
 5083SOL    HW215816   3.509   2.688   9.053
 5084SOL     OW15817   2.875   1.967   9.218
 5084SOL    HW115818   2.881   2.052   9.166
 5084SOL    HW215819   2.907   1.891   9.161
 5085SOL     OW15820   2.366   1.912   9.188
 5085SOL    HW115821   2.324   1.855   9.118
 5085SOL    HW215822   2.300   1.981   9.220
 5086SOL     OW15823   2.435   2.732   8.477
 5086SOL    HW115824   2.479   2.821   8.468
 5086SOL    HW215825   2.372   2.732   8.554
 5087SOL     OW15826   3.222   2.724   8.493
 5087SOL    HW115827   3.147   2.724   8.427
 5087SOL    HW215828   3.259   2.632   8.502
 5088SOL     OW15829   3.071   2.387   7.723
 5088SOL    HW115830   3.084   2.303   7.777
 5088SOL    HW215831   3.042   2.461   7.783
 5089SOL     OW15832   1.899   3.172   8.730
 5089SOL    HW115833   1.952   3.123   8.798
 5089SOL    HW215834   1.921   3.270   8.735
 5090SOL     OW15835   2.594   2.496   8.512
 5090SOL    HW115836   2.653   2.470   8.436
 5090SOL    HW215837   2.566   2.592   8.501
 5091SOL     OW15838   3.590   2.797   9.302
 5091SOL    HW115839   3.544   2.790   9.213
 5091SOL    HW215840   3.528   2.841   9.368
 5092SOL     OW15841   2.169   1.925   8.066
 5092SOL    HW115842   2.158   2.019   8.099
 5092SOL    HW215843   2.164   1.862   8.143
 5093SOL     OW15844   3.484   2.229   7.822
 5093SOL    HW115845   3.486   2.153   7.886
 5093SOL    HW215846   3.436   2.306   7.862
 5094SOL     OW15847   2.885   2.628   8.414
 5094SOL    HW115848   2.900   2.649   8.510
 5094SOL    HW215849   2.855   2.533   8.405
 5095SOL     OW15850   2.842   3.435   9.148
 5095SOL    HW115851   2.822   3.479   9.060
 5095SOL    HW215852   2.881   3.344   9.132
 5096SOL     OW15853   3.721   3.380   9.053
 5096SOL    HW115854   3.735   3.407   8.958
 5096SOL    HW215855   3.804   3.402   9.106
 5097SOL     OW15856   2.212   2.760   9.252
 5097SOL    HW115857   2.288   2.804   9.300
 5097SOL    HW215858   2.247   2.713   9.170
 5098SOL     OW15859   3.402   2.136   7.573
 5098SOL    HW115860   3.341   2.061   7.596
 5098SOL    HW215861   3.424   2.188   7.656
 5099SOL     OW15862   3.165   2.700   7.490
 5099SOL    HW115863   3.199   2.607   7.505
 5099SOL    HW215864   3.183   2.727   7.395
 5100SOL     OW15865   2.930   3.195   8.297
 5100SOL    HW115866   2.937   3.111   8.242
 5100SOL    HW215867   2.992   3.264   8.261
 5101SOL     OW15868   2.181   2.672   8.397
 5101SOL    HW115869   2.274   2.708   8.402
 5101SOL    HW215870   2.175   2.587   8.449
 5102SOL     OW15871   3.000   2.242   9.126
 5102SOL    HW115872   2.955   2.305   9.190
 5102SOL    HW215873   3.093   2.273   9.109
 5103SOL     OW15874   3.022   2.069   8.925
 5103SOL    HW115875   3.022   2.133   9.002
 5103SOL    HW215876   3.050   2.117   8.842
 5104SOL     OW15877   1.870   3.188   7.648
 5104SOL    HW115878   1.777   3.209   7.617
 5104SOL    HW215879   1.880   3.089   7.661
 5105SOL     OW15880   1.950   3.663   8.375
 5105SOL    HW115881   1.908   3.577   8.348
 5105SOL    HW215882   2.044   3.666   8.341
 5106SOL     OW15883   2.366   3.430   8.358
 5106SOL    HW115884   2.432   3.504   8.367
 5106SOL    HW215885   2.410   3.351   8.316
 5107SOL     OW15886   2.864   2.658   8.686
 5107SOL    HW115887   2.905   2.626   8.772
 5107SOL    HW215888   2.768   2.631   8.683
 5108SOL     OW15889   1.902   2.406   8.562
 5108SOL    HW115890   1.987   2.373   8.521
 5108SOL    HW215891   1.915   2.421   8.660
 5109SOL     OW15892   3.231   2.812   9.108
 5109SOL    HW115893   3.270   2.901   9.128
 5109SOL    HW215894   3.241   2.792   9.011
 5110SOL     OW15895   2.677   2.434   7.773
 5110SOL    HW115896   2.684   2.345   7.727
 5110SOL    HW215897   2.583   2.468   7.765
 5111SOL     OW15898   3.519   2.466   8.654
 5111SOL    HW115899   3.481   2.397   8.716
 5111SOL    HW215900   3.601   2.430   8.610
 5112SOL     OW15901   2.114   3.426   9.192
 5112SOL    HW115902   2.084   3.483   9.268
 5112SOL    HW215903   2.107   3.329   9.218
 5113SOL     OW15904   2.792   3.540   8.913
 5113SOL    HW115905   2.768   3.522   8.818
 5113SOL    HW215906   2.822   3.634   8.923
 5114SOL     OW15907   2.021   2.999   8.914
 5114SOL    HW115908   2.043   2.938   8.990
 5114SOL    HW215909   2.031   2.950   8.828
 5115SOL     OW15910   3.209   2.921   8.682
 5115SOL    HW115911   3.233   2.858   8.608
 5115SOL    HW215912   3.119   2.961   8.664
 5116SOL     OW15913   3.164   2.717   7.757
 5116SOL    HW115914   3.078   2.686   7.799
 5116SOL    HW215915   3.160   2.703   7.658
 5117SOL     OW15916   3.621   3.609   8.602
 5117SOL    HW115917   3.682   3.639   8.529
 5117SOL    HW215918   3.583   3.520   8.580
 5118SOL     OW15919   3.114   3.593   8.576
 5118SOL    HW115920   3.198   3.598   8.522
 5118SOL    HW215921   3.091   3.497   8.594
 5119SOL     OW15922   1.945   3.120   8.470
 5119SOL    HW115923   1.940   3.119   8.570
 5119SOL    HW215924   1.862   3.079   8.432
 5120SOL     OW15925   2.550   3.524   9.164
 5120SOL    HW115926   2.494   3.605   9.173
 5120SOL    HW215927   2.602   3.528   9.078
 5121SOL     OW15928   3.588   1.997   7.971
 5121SOL    HW115929   3.661   1.980   7.904
 5121SOL    HW215930   3.557   1.910   8.009
 5122SOL     OW15931   3.250   3.435   7.925
 5122SOL    HW115932   3.317   3.447   7.851
 5122SOL    HW215933   3.210   3.524   7.948
 5123SOL     OW15934   1.992   3.656   9.299
 5123SOL    HW115935   1.951   3.582   9.352
 5123SOL    HW215936   2.056   3.707   9.357
 5124SOL     OW15937   3.142   2.789   8.120
 5124SOL    HW115938   3.202   2.708   8.122
 5124SOL    HW215939   3.182   2.858   8.060
 5125SOL     OW15940   2.692   3.135   8.870
 5125SOL    HW115941   2.687   3.168   8.965
 5125SOL    HW215942   2.606   3.154   8.824
 5126SOL     OW15943   2.534   3.478   7.602
 5126SOL    HW115944   2.543   3.488   7.503
 5126SOL    HW215945   2.494   3.389   7.623
 5127SOL     OW15946   3.512   3.582   8.842
 5127SOL    HW115947   3.565   3.592   8.758
 5127SOL    HW215948   3.485   3.672   8.876
 5128SOL     OW15949   3.703   2.037   8.411
 5128SOL    HW115950   3.742   1.952   8.375
 5128SOL    HW215951   3.605   2.039   8.392
 5129SOL     OW15952   3.056   3.474   7.479
 5129SOL    HW115953   3.062   3.381   7.516
 5129SOL    HW215954   2.997   3.474   7.399
 5130SOL     OW15955   2.684   2.864   8.820
 5130SOL    HW115956   2.724   2.863   8.728
 5130SOL    HW215957   2.694   2.956   8.860
 5131SOL     OW15958   2.778   2.772   7.739
 5131SOL    HW115959   2.841   2.810   7.671
 5131SOL    HW215960   2.818   2.689   7.778
 5132SOL     OW15961   3.366   3.469   7.492
 5132SOL    HW115962   3.274   3.506   7.499
 5132SOL    HW215963   3.404   3.489   7.402
 5133SOL     OW15964   2.234   3.150   8.938
 5133SOL    HW115965   2.221   3.243   8.904
 5133SOL    HW215966   2.150   3.098   8.925
 5134SOL     OW15967   3.476   3.154   8.737
 5134SOL    HW115968   3.536   3.157   8.817
 5134SOL    HW215969   3.401   3.218   8.750
 5135SOL     OW15970   2.901   2.960   8.144
 5135SOL    HW115971   2.831   2.913   8.198
 5135SOL    HW215972   2.960   2.892   8.101
 5136SOL     OW15973   2.876   2.098   8.419
 5136SOL    HW115974   2.868   2.062   8.326
 5136SOL    HW215975   2.874   2.022   8.484
 5137SOL     OW15976   2.452   3.349   7.939
 5137SOL    HW115977   2.494   3.291   7.869
 5137SOL    HW215978   2.408   3.428   7.895
 5138SOL     OW15979   3.571   2.247   8.829
 5138SOL    HW115980   3.644   2.316   8.833
 5138SOL    HW215981   3.599   2.172   8.770
 5139SOL     OW15982   2.117   3.210   7.738
 5139SOL    HW115983   2.021   3.211   7.711
 5139SOL    HW215984   2.129   3.263   7.822
 5140SOL     OW15985   1.967   2.875   9.174
 5140SOL    HW115986   1.890   2.842   9.228
 5140SOL    HW215987   2.052   2.845   9.216
 5141SOL     OW15988   2.534   2.065   8.937
 5141SOL    HW115989   2.624   2.049   8.897
 5141SOL    HW215990   2.542   2.070   9.036
 5142SOL     OW15991   1.937   2.207   7.481
 5142SOL    HW115992   1.845   2.179   7.452
 5142SOL    HW215993   1.968   2.284   7.425
 5143SOL     OW15994   3.302   2.718   8.846
 5143SOL    HW115995   3.245   2.770   8.783
 5143SOL    HW215996   3.398   2.730   8.822
 5144SOL     OW15997   1.934   2.028   7.766
 5144SOL    HW115998   1.917   2.111   7.712
 5144SOL    HW215999   2.024   1.991   7.744
 5145SOL     OW16000   3.045   3.197   7.567
 5145SOL    HW116001   2.946   3.186   7.569
 5145SOL    HW216002   3.079   3.212   7.660
 5146SOL     OW16003   2.475   2.704   8.879
 5146SOL    HW116004   2.531   2.785   8.862
 5146SOL    HW216005   2.534   2.624   8.882
 5147SOL     OW16006   3.355   3.629   8.407
 5147SOL    HW116007   3.388   3.693   8.338
 5147SOL    HW216008   3.421   3.623   8.482
 5148SOL     OW16009   2.578   2.427   9.156
 5148SOL    HW116010   2.597   2.492   9.230
 5148SOL    HW216011   2.638   2.347   9.165
 5149SOL     OW16012   3.312   3.082   9.081
 5149SOL    HW116013   3.303   3.072   9.180
 5149SOL    HW216014   3.408   3.075   9.055
 5150SOL     OW16015   2.252   3.603   9.008
 5150SOL    HW116016   2.161   3.644   9.006
 5150SOL    HW216017   2.245   3.509   9.040
 5151SOL     OW16018   3.536   2.745   8.702
 5151SOL    HW116019   3.509   2.656   8.665
 5151SOL    HW216020   3.537   2.813   8.629
 5152SOL     OW16021   3.087   2.187   7.897
 5152SOL    HW116022   3.152   2.113   7.886
 5152SOL    HW216023   3.107   2.237   7.981
 5153SOL     OW16024   2.456   2.607   8.100
 5153SOL    HW116025   2.506   2.692   8.081
 5153SOL    HW216026   2.368   2.609   8.052
 5154SOL     OW16027   3.639   2.204   9.090
 5154SOL    HW116028   3.622   2.235   8.996
 5154SOL    HW216029   3.555   2.167   9.128
 5155SOL     OW16030   3.592   2.796   8.965
 5155SOL    HW116031   3.630   2.887   8.980
 5155SOL    HW216032   3.584   2.779   8.866
 5156SOL     OW16033   2.721   3.236   7.464
 5156SOL    HW116034   2.675   3.251   7.552
 5156SOL    HW216035   2.765   3.321   7.434
 5157SOL     OW16036   2.523   3.652   8.401
 5157SOL    HW116037   2.477   3.740   8.388
 5157SOL    HW216038   2.622   3.664   8.394
 5158SOL     OW16039   2.721   2.818   8.309
 5158SOL    HW116040   2.775   2.749   8.357
 5158SOL    HW216041   2.689   2.887   8.375
 5159SOL     OW16042   2.945   2.846   7.535
 5159SOL    HW116043   2.922   2.899   7.453
 5159SOL    HW216044   3.026   2.790   7.516
 5160SOL     OW16045   3.723   3.431   8.299
 5160SOL    HW116046   3.652   3.419   8.229
 5160SOL    HW216047   3.724   3.352   8.359
 5161SOL     OW16048   2.083   3.176   9.292
 5161SOL    HW116049   2.018   3.103   9.271
 5161SOL    HW216050   2.087   3.190   9.390
 5162SOL     OW16051   1.941   3.102   8.101
 5162SOL    HW116052   1.940   3.055   8.189
 5162SOL    HW216053   2.023   3.074   8.050
 5163SOL     OW16054   2.534   3.253   9.072
 5163SOL    HW116055   2.456   3.203   9.110
 5163SOL    HW216056   2.531   3.348   9.103
 5164SOL     OW16057   3.686   2.054   8.675
 5164SOL    HW116058   3.682   1.964   8.719
 5164SOL    HW216059   3.689   2.043   8.576
 5165SOL     OW16060   3.567   3.349   8.552
 5165SOL    HW116061   3.474   3.324   8.525
 5165SOL    HW216062   3.593   3.299   8.634
 5166SOL     OW16063   2.674   3.448   8.135
 5166SOL    HW116064   2.706   3.458   8.041
 5166SOL    HW216065   2.595   3.386   8.137
 5167SOL     OW16066   3.286   2.076   8.560
 5167SOL    HW116067   3.338   2.011   8.615
 5167SOL    HW216068   3.237   2.139   8.621
 5168SOL     OW16069   2.863   1.896   8.602
 5168SOL    HW116070   2.800   1.824   8.571
 5168SOL    HW216071   2.956   1.860   8.602
 5169SOL     OW16072   2.632   3.192   7.749
 5169SOL    HW116073   2.586   3.105   7.766
 5169SOL    HW216074   2.723   3.189   7.790
 5170SOL     OW16075   2.480   3.429   8.732
 5170SOL    HW116076   2.475   3.511   8.789
 5170SOL    HW216077   2.569   3.426   8.687
 5171SOL     OW16078   3.214   1.914   7.616
 5171SOL    HW116079   3.249   1.873   7.532
 5171SOL    HW216080   3.124   1.876   7.636
 5172SOL     OW16081   3.162   2.315   8.139
 5172SOL    HW116082   3.103   2.395   8.143
 5172SOL    HW216083   3.177   2.280   8.232
 5173SOL     OW16084   3.455   2.083   8.330
 5173SOL    HW116085   3.371   2.082   8.384
 5173SOL    HW216086   3.457   2.166   8.274
 5174SOL     OW16087   1.901   2.939   7.748
 5174SOL    HW116088   2.000   2.928   7.739
 5174SOL    HW216089   1.861   2.853   7.780
 5175SOL     OW16090   2.737   3.508   7.785
 5175SOL    HW116091   2.660   3.473   7.731
 5175SOL    HW216092   2.705   3.579   7.847
 5176SOL     OW16093   2.092   2.490   9.423
 5176SOL    HW116094   1.999   2.488   9.460
 5176SOL    HW216095   2.093   2.451   9.331
 5177SOL     OW16096   1.881   2.230   9.957
 5177SOL    HW116097   1.799   2.273   9.996
 5177SOL    HW216098   1.853   2.157   9.894
 5178SOL     OW16099   2.431   3.137  10.475
 5178SOL    HW116100   2.338   3.130  10.438
 5178SOL    HW216101   2.442   3.226  10.519
 5179SOL     OW16102   3.417   3.373  10.013
 5179SOL    HW116103   3.360   3.357  10.094
 5179SOL    HW216104   3.358   3.383   9.933
 5180SOL     OW16105   2.997   2.565  10.027
 5180SOL    HW116106   3.054   2.643  10.002
 5180SOL    HW216107   2.937   2.591  10.103
 5181SOL     OW16108   3.617   2.469   9.541
 5181SOL    HW116109   3.605   2.456   9.442
 5181SOL    HW216110   3.587   2.388   9.590
 5182SOL     OW16111   2.630   3.006  10.333
 5182SOL    HW116112   2.552   3.023  10.393
 5182SOL    HW216113   2.664   3.093  10.297
 5183SOL     OW16114   2.712   2.660  11.133
 5183SOL    HW116115   2.708   2.736  11.198
 5183SOL    HW216116   2.734   2.696  11.042
 5184SOL     OW16117   2.547   2.874   9.975
 5184SOL    HW116118   2.616   2.858  10.045
 5184SOL    HW216119   2.474   2.931  10.013
 5185SOL     OW16120   2.197   3.297  10.371
 5185SOL    HW116121   2.119   3.266  10.318
 5185SOL    HW216122   2.255   3.355  10.314
 5186SOL     OW16123   3.322   3.367  10.649
 5186SOL    HW116124   3.346   3.461  10.675
 5186SOL    HW216125   3.306   3.313  10.731
 5187SOL     OW16126   3.465   2.309  10.047
 5187SOL    HW116127   3.391   2.355   9.997
 5187SOL    HW216128   3.516   2.377  10.100
 5188SOL     OW16129   2.093   3.575   9.793
 5188SOL    HW116130   2.127   3.652   9.847
 5188SOL    HW216131   2.137   3.575   9.703
 5189SOL     OW16132   2.092   3.296   9.848
 5189SOL    HW116133   2.066   3.392   9.848
 5189SOL    HW216134   2.021   3.242   9.893
 5190SOL     OW16135   2.102   2.953  10.196
 5190SOL    HW116136   2.116   2.869  10.248
 5190SOL    HW216137   2.047   3.017  10.251
 5191SOL     OW16138   2.482   3.648  10.749
 5191SOL    HW116139   2.390   3.631  10.784
 5191SOL    HW216140   2.510   3.740  10.775
 5192SOL     OW16141   2.468   2.826   9.433
 5192SOL    HW116142   2.475   2.910   9.379
 5192SOL    HW216143   2.514   2.839   9.521
 5193SOL     OW16144   3.456   1.976  10.790
 5193SOL    HW116145   3.438   2.043  10.718
 5193SOL    HW216146   3.453   2.022  10.879
 5194SOL     OW16147   1.984   2.505   9.873
 5194SOL    HW116148   1.939   2.417   9.890
 5194SOL    HW216149   1.983   2.559   9.957
 5195SOL     OW16150   3.704   3.629   9.669
 5195SOL    HW116151   3.758   3.600   9.749
 5195SOL    HW216152   3.734   3.719   9.640
 5196SOL     OW16153   1.889   3.458   9.427
 5196SOL    HW116154   1.870   3.362   9.448
 5196SOL    HW216155   1.856   3.516   9.502
 5197SOL     OW16156   3.551   2.784   9.922
 5197SOL    HW116157   3.646   2.755   9.930
 5197SOL    HW216158   3.543   2.849   9.847
 5198SOL     OW16159   3.503   2.970   9.742
 5198SOL    HW116160   3.589   2.972   9.690
 5198SOL    HW216161   3.517   3.017   9.830
 5199SOL     OW16162   1.975   2.599  10.907
 5199SOL    HW116163   2.063   2.586  10.952
 5199SOL    HW216164   1.962   2.696  10.885
 5200SOL     OW16165   2.475   3.227  10.036
 5200SOL    HW116166   2.426   3.140  10.045
 5200SOL    HW216167   2.452   3.270   9.949
 5201SOL     OW16168   3.155   3.090  10.733
 5201SOL    HW116169   3.192   3.017  10.675
 5201SOL    HW216170   3.207   3.095  10.818
 5202SOL     OW16171   2.671   1.866   9.812
 5202SOL    HW116172   2.711   1.957   9.803
 5202SOL    HW216173   2.571   1.874   9.818
 5203SOL     OW16174   2.059   2.838  10.574
 5203SOL    HW116175   2.148   2.793  10.560
 5203SOL    HW216176   1.986   2.773  10.555
 5204SOL     OW16177   3.387   2.861   9.500
 5204SOL    HW116178   3.324   2.785   9.513
 5204SOL    HW216179   3.435   2.879   9.586
 5205SOL     OW16180   3.049   3.654  10.926
 5205SOL    HW116181   3.073   3.714  10.850
 5205SOL    HW216182   3.056   3.559  10.896
 5206SOL     OW16183   3.328   3.279  10.263
 5206SOL    HW116184   3.269   3.285  10.343
 5206SOL    HW216185   3.313   3.191  10.217
 5207SOL     OW16186   3.529   3.576   9.882
 5207SOL    HW116187   3.488   3.553   9.794
 5207SOL    HW216188   3.511   3.502   9.947
 5208SOL     OW16189   2.460   2.591   9.580
 5208SOL    HW116190   2.484   2.660   9.512
 5208SOL    HW216191   2.382   2.624   9.634
 5209SOL     OW16192   3.143   2.207  10.254
 5209SOL    HW116193   3.057   2.157  10.241
 5209SOL    HW216194   3.205   2.153  10.310
 5210SOL     OW16195   3.438   3.524   9.617
 5210SOL    HW116196   3.527   3.570   9.620
 5210SOL    HW216197   3.417   3.500   9.522
 5211SOL     OW16198   2.669   2.467  10.775
 5211SOL    HW116199   2.622   2.464  10.864
 5211SOL    HW216200   2.618   2.412  10.709
 5212SOL     OW16201   2.835   2.752  10.882
 5212SOL    HW116202   2.881   2.668  10.853
 5212SOL    HW216203   2.779   2.786  10.807
 5213SOL     OW16204   2.853   2.272  10.552
 5213SOL    HW116205   2.776   2.306  10.606
 5213SOL    HW216206   2.819   2.221  10.473
 5214SOL     OW16207   2.903   2.563   9.739
 5214SOL    HW116208   2.929   2.559   9.835
 5214SOL    HW216209   2.818   2.512   9.725
 5215SOL     OW16210   1.938   2.673  10.099
 5215SOL    HW116211   2.037   2.661  10.108
 5215SOL    HW216212   1.914   2.768  10.120
 5216SOL     OW16213   1.992   3.683  10.881
 5216SOL    HW116214   1.982   3.668  10.980
 5216SOL    HW216215   1.906   3.719  10.845
 5217SOL     OW16216   2.727   2.210   9.505
 5217SOL    HW116217   2.786   2.273   9.456
 5217SOL    HW216218   2.746   2.116   9.476
 5218SOL     OW16219   3.224   3.006   9.855
 5218SOL    HW116220   3.307   2.977   9.807
 5218SOL    HW216221   3.175   3.073   9.799
 5219SOL     OW16222   2.870   3.318   9.787
 5219SOL    HW116223   2.824   3.390   9.735
 5219SOL    HW216224   2.866   3.338   9.885
 5220SOL     OW16225   2.213   3.663  10.163
 5220SOL    HW116226   2.263   3.577  10.169
 5220SOL    HW216227   2.278   3.740  10.160
 5221SOL     OW16228   3.657   2.928  10.183
 5221SOL    HW116229   3.595   2.913  10.107
 5221SOL    HW216230   3.605   2.939  10.268
 5222SOL     OW16231   3.089   3.412  10.816
 5222SOL    HW116232   3.095   3.335  10.880
 5222SOL    HW216233   3.037   3.386  10.736
 5223SOL     OW16234   2.183   2.805   9.552
 5223SOL    HW116235   2.265   2.844   9.510
 5223SOL    HW216236   2.156   2.723   9.503
 5224SOL     OW16237   3.320   2.597  10.038
 5224SOL    HW116238   3.315   2.532  10.113
 5224SOL    HW216239   3.400   2.656  10.051
 5225SOL     OW16240   2.323   3.128  11.037
 5225SOL    HW116241   2.273   3.129  10.951
 5225SOL    HW216242   2.260   3.110  11.113
 5226SOL     OW16243   2.973   3.638   9.547
 5226SOL    HW116244   2.913   3.576   9.597
 5226SOL    HW216245   3.004   3.594   9.462
 5227SOL     OW16246   3.494   3.239   9.391
 5227SOL    HW116247   3.462   3.333   9.381
 5227SOL    HW216248   3.418   3.176   9.379
 5228SOL     OW16249   2.326   3.605   9.633
 5228SOL    HW116250   2.359   3.644   9.719
 5228SOL    HW216251   2.402   3.598   9.568
 5229SOL     OW16252   3.262   1.969   9.736
 5229SOL    HW116253   3.238   1.932   9.646
 5229SOL    HW216254   3.361   1.985   9.740
 5230SOL     OW16255   2.111   3.647  10.551
 5230SOL    HW116256   2.168   3.582  10.601
 5230SOL    HW216257   2.095   3.614  10.458
 5231SOL     OW16258   2.802   3.560  10.214
 5231SOL    HW116259   2.882   3.503  10.235
 5231SOL    HW216260   2.753   3.520  10.137
 5232SOL     OW16261   2.476   1.984   9.427
 5232SOL    HW116262   2.574   1.962   9.434
 5232SOL    HW216263   2.445   1.967   9.334
 5233SOL     OW16264   2.643   2.126  11.059
 5233SOL    HW116265   2.710   2.065  11.102
 5233SOL    HW216266   2.570   2.145  11.124
 5234SOL     OW16267   2.750   3.376  10.505
 5234SOL    HW116268   2.727   3.351  10.411
 5234SOL    HW216269   2.811   3.307  10.544
 5235SOL     OW16270   3.213   2.452  10.743
 5235SOL    HW116271   3.241   2.409  10.828
 5235SOL    HW216272   3.238   2.548  10.744
 5236SOL     OW16273   2.665   3.264  10.234
 5236SOL    HW116274   2.755   3.278  10.192
 5236SOL    HW216275   2.594   3.266  10.163
 5237SOL     OW16276   2.784   2.365  10.209
 5237SOL    HW116277   2.759   2.356  10.113
 5237SOL    HW216278   2.832   2.283  10.240
 5238SOL     OW16279   2.401   1.926   9.822
 5238SOL    HW116280   2.320   1.927   9.880
 5238SOL    HW216281   2.404   2.009   9.767
 5239SOL     OW16282   3.296   3.050   9.351
 5239SOL    HW116283   3.328   2.974   9.408
 5239SOL    HW216284   3.204   3.077   9.381
 5240SOL     OW16285   2.159   1.897   9.481
 5240SOL    HW116286   2.208   1.981   9.460
 5240SOL    HW216287   2.221   1.832   9.526
 5241SOL     OW16288   2.797   2.098   9.790
 5241SOL    HW116289   2.749   2.139   9.712
 5241SOL    HW216290   2.896   2.096   9.771
 5242SOL     OW16291   2.938   2.545  10.774
 5242SOL    HW116292   2.858   2.484  10.777
 5242SOL    HW216293   3.019   2.492  10.750
 5243SOL     OW16294   3.089   3.432  10.103
 5243SOL    HW116295   3.110   3.506  10.038
 5243SOL    HW216296   3.157   3.432  10.176
 5244SOL     OW16297   2.321   3.014  10.051
 5244SOL    HW116298   2.250   2.987  10.116
 5244SOL    HW216299   2.295   2.986   9.958
 5245SOL     OW16300   3.133   3.659   9.901
 5245SOL    HW116301   3.177   3.723   9.837
 5245SOL    HW216302   3.083   3.711   9.971
 5246SOL     OW16303   2.894   2.411   9.326
 5246SOL    HW116304   2.853   2.493   9.287
 5246SOL    HW216305   2.958   2.437   9.399
 5247SOL     OW16306   1.940   2.418  10.696
 5247SOL    HW116307   2.032   2.417  10.655
 5247SOL    HW216308   1.934   2.492  10.763
 5248SOL     OW16309   2.423   2.084  10.457
 5248SOL    HW116310   2.461   2.000  10.494
 5248SOL    HW216311   2.335   2.103  10.501
 5249SOL     OW16312   2.728   2.316   9.952
 5249SOL    HW116313   2.696   2.388   9.890
 5249SOL    HW216314   2.752   2.235   9.899
 5250SOL     OW16315   2.879   1.901  10.063
 5250SOL    HW116316   2.807   1.906   9.994
 5250SOL    HW216317   2.855   1.832  10.132
 5251SOL     OW16318   3.291   3.035  10.177
 5251SOL    HW116319   3.236   2.951  10.170
 5251SOL    HW216320   3.317   3.064  10.085
 5252SOL     OW16321   3.328   2.452  10.302
 5252SOL    HW116322   3.298   2.357  10.309
 5252SOL    HW216323   3.401   2.468  10.368
 5253SOL     OW16324   3.719   2.695   9.687
 5253SOL    HW116325   3.761   2.631   9.751
 5253SOL    HW216326   3.681   2.644   9.609
 5254SOL     OW16327   2.350   3.247   9.484
 5254SOL    HW116328   2.263   3.232   9.531
 5254SOL    HW216329   2.333   3.273   9.389
 5255SOL     OW16330   3.526   3.142   9.967
 5255SOL    HW116331   3.625   3.150   9.981
 5255SOL    HW216332   3.481   3.226   9.998
 5256SOL     OW16333   3.252   2.437   9.388
 5256SOL    HW116334   3.198   2.416   9.469
 5256SOL    HW216335   3.343   2.396   9.397
 5257SOL     OW16336   3.616   3.085  10.898
 5257SOL    HW116337   3.707   3.046  10.885
 5257SOL    HW216338   3.624   3.181  10.922
 5258SOL     OW16339   2.926   3.209  10.650
 5258SOL    HW116340   2.846   3.186  10.705
 5258SOL    HW216341   3.009   3.183  10.699
 5259SOL     OW16342   2.973   3.057  10.410
 5259SOL    HW116343   2.933   3.101  10.491
 5259SOL    HW216344   2.932   3.094  10.327
 5260SOL     OW16345   3.500   2.961  10.389
 5260SOL    HW116346   3.505   3.042  10.448
 5260SOL    HW216347   3.414   2.963  10.338
 5261SOL     OW16348   2.777   1.951  10.712
 5261SOL    HW116349   2.802   1.931  10.617
 5261SOL    HW216350   2.849   2.007  10.754
 5262SOL     OW16351   2.567   2.912   9.678
 5262SOL    HW116352   2.553   2.919   9.777
 5262SOL    HW216353   2.651   2.861   9.660
 5263SOL     OW16354   2.272   2.675  10.561
 5263SOL    HW116355   2.358   2.687  10.611
 5263SOL    HW216356   2.230   2.588  10.588
 5264SOL     OW16357   3.136   2.248  10.572
 5264SOL    HW116358   3.157   2.322  10.636
 5264SOL    HW216359   3.047   2.265  10.529
 5265SOL     OW16360   1.926   3.426  10.641
 5265SOL    HW116361   1.880   3.508  10.607
 5265SOL    HW216362   2.024   3.445  10.650
 5266SOL     OW16363   2.229   2.962   9.811
 5266SOL    HW116364   2.222   3.045   9.755
 5266SOL    HW216365   2.233   2.882   9.751
 5267SOL     OW16366   2.428   2.399  10.175
 5267SOL    HW116367   2.440   2.465  10.101
 5267SOL    HW216368   2.474   2.433  10.258
 5268SOL     OW16369   3.114   3.210   9.698
 5268SOL    HW116370   3.164   3.287   9.738
 5268SOL    HW216371   3.019   3.212   9.730
 5269SOL     OW16372   3.134   3.307  10.452
 5269SOL    HW116373   3.181   3.320  10.539
 5269SOL    HW216374   3.068   3.233  10.461
 5270SOL     OW16375   3.444   2.501   9.782
 5270SOL    HW116376   3.413   2.562   9.855
 5270SOL    HW216377   3.494   2.553   9.713
 5271SOL     OW16378   2.216   3.372  10.639
 5271SOL    HW116379   2.195   3.328  10.552
 5271SOL    HW216380   2.313   3.398  10.642
 5272SOL     OW16381   2.264   2.613  10.908
 5272SOL    HW116382   2.332   2.668  10.861
 5272SOL    HW216383   2.304   2.525  10.935
 5273SOL     OW16384   3.449   2.641  10.980
 5273SOL    HW116385   3.357   2.679  10.975
 5273SOL    HW216386   3.509   2.688  10.915
 5274SOL     OW16387   2.435   2.732  10.339
 5274SOL    HW116388   2.479   2.821  10.330
 5274SOL    HW216389   2.372   2.732  10.416
 5275SOL     OW16390   3.222   2.724  10.355
 5275SOL    HW116391   3.147   2.724  10.289
 5275SOL    HW216392   3.259   2.632  10.364
 5276SOL     OW16393   3.071   2.387   9.585
 5276SOL    HW116394   3.084   2.303   9.639
 5276SOL    HW216395   3.042   2.461   9.645
 5277SOL     OW16396   1.899   3.172  10.592
 5277SOL    HW116397   1.952   3.123  10.660
 5277SOL    HW216398   1.921   3.270  10.597
 5278SOL     OW16399   2.594   2.496  10.374
 5278SOL    HW116400   2.653   2.470  10.298
 5278SOL    HW216401   2.566   2.592  10.363
 5279SOL     OW16402   2.169   1.925   9.928
 5279SOL    HW116403   2.158   2.019   9.961
 5279SOL    HW216404   2.164   1.862  10.005
 5280SOL     OW16405   3.484   2.229   9.684
 5280SOL    HW116406   3.486   2.153   9.748
 5280SOL    HW216407   3.436   2.306   9.724
 5281SOL     OW16408   2.885   2.628  10.276
 5281SOL    HW116409   2.900   2.649  10.372
 5281SOL    HW216410   2.855   2.533  10.267
 5282SOL     OW16411   2.842   3.435  11.010
 5282SOL    HW116412   2.822   3.479  10.922
 5282SOL    HW216413   2.881   3.344  10.994
 5283SOL     OW16414   3.721   3.380  10.915
 5283SOL    HW116415   3.735   3.407  10.820
 5283SOL    HW216416   3.804   3.402  10.968
 5284SOL     OW16417   2.212   2.760  11.114
 5284SOL    HW116418   2.288   2.804  11.162
 5284SOL    HW216419   2.247   2.713  11.032
 5285SOL     OW16420   3.402   2.136   9.435
 5285SOL    HW116421   3.341   2.061   9.458
 5285SOL    HW216422   3.424   2.188   9.518
 5286SOL     OW16423   3.165   2.700   9.352
 5286SOL    HW116424   3.199   2.607   9.367
 5286SOL    HW216425   3.183   2.727   9.257
 5287SOL     OW16426   2.930   3.195  10.159
 5287SOL    HW116427   2.937   3.111  10.104
 5287SOL    HW216428   2.992   3.264  10.123
 5288SOL     OW16429   2.181   2.672  10.259
 5288SOL    HW116430   2.274   2.708  10.264
 5288SOL    HW216431   2.175   2.587  10.311
 5289SOL     OW16432   3.022   2.069  10.787
 5289SOL    HW116433   3.022   2.133  10.864
 5289SOL    HW216434   3.050   2.117  10.704
 5290SOL     OW16435   1.870   3.188   9.510
 5290SOL    HW116436   1.777   3.209   9.479
 5290SOL    HW216437   1.880   3.089   9.523
 5291SOL     OW16438   1.950   3.663  10.237
 5291SOL    HW116439   1.908   3.577  10.210
 5291SOL    HW216440   2.044   3.666  10.203
 5292SOL     OW16441   2.366   3.430  10.220
 5292SOL    HW116442   2.432   3.504  10.229
 5292SOL    HW216443   2.410   3.351  10.178
 5293SOL     OW16444   2.864   2.658  10.548
 5293SOL    HW116445   2.905   2.626  10.634
 5293SOL    HW216446   2.768   2.631  10.545
 5294SOL     OW16447   1.902   2.406  10.424
 5294SOL    HW116448   1.987   2.373  10.383
 5294SOL    HW216449   1.915   2.421  10.522
 5295SOL     OW16450   2.677   2.434   9.635
 5295SOL    HW116451   2.684   2.345   9.589
 5295SOL    HW216452   2.583   2.468   9.627
 5296SOL     OW16453   3.519   2.466  10.516
 5296SOL    HW116454   3.481   2.397  10.578
 5296SOL    HW216455   3.601   2.430  10.472
 5297SOL     OW16456   2.114   3.426  11.054
 5297SOL    HW116457   2.084   3.483  11.130
 5297SOL    HW216458   2.107   3.329  11.080
 5298SOL     OW16459   2.792   3.540  10.775
 5298SOL    HW116460   2.768   3.522  10.680
 5298SOL    HW216461   2.822   3.634  10.785
 5299SOL     OW16462   2.021   2.999  10.776
 5299SOL    HW116463   2.043   2.938  10.852
 5299SOL    HW216464   2.031   2.950  10.690
 5300SOL     OW16465   3.209   2.921  10.544
 5300SOL    HW116466   3.233   2.858  10.470
 5300SOL    HW216467   3.119   2.961  10.526
 5301SOL     OW16468   3.164   2.717   9.619
 5301SOL    HW116469   3.078   2.686   9.661
 5301SOL    HW216470   3.160   2.703   9.520
 5302SOL     OW16471   3.621   3.609  10.464
 5302SOL    HW116472   3.682   3.639  10.391
 5302SOL    HW216473   3.583   3.520  10.442
 5303SOL     OW16474   3.114   3.593  10.438
 5303SOL    HW116475   3.198   3.598  10.384
 5303SOL    HW216476   3.091   3.497  10.456
 5304SOL     OW16477   1.945   3.120  10.332
 5304SOL    HW116478   1.940   3.119  10.432
 5304SOL    HW216479   1.862   3.079  10.294
 5305SOL     OW16480   3.588   1.997   9.833
 5305SOL    HW116481   3.661   1.980   9.766
 5305SOL    HW216482   3.557   1.910   9.871
 5306SOL     OW16483   3.250   3.435   9.787
 5306SOL    HW116484   3.317   3.447   9.713
 5306SOL    HW216485   3.210   3.524   9.810
 5307SOL     OW16486   3.142   2.789   9.982
 5307SOL    HW116487   3.202   2.708   9.984
 5307SOL    HW216488   3.182   2.858   9.922
 5308SOL     OW16489   2.692   3.135  10.732
 5308SOL    HW116490   2.687   3.168  10.827
 5308SOL    HW216491   2.606   3.154  10.686
 5309SOL     OW16492   2.534   3.478   9.464
 5309SOL    HW116493   2.543   3.488   9.365
 5309SOL    HW216494   2.494   3.389   9.485
 5310SOL     OW16495   3.512   3.582  10.704
 5310SOL    HW116496   3.565   3.592  10.620
 5310SOL    HW216497   3.485   3.672  10.738
 5311SOL     OW16498   3.703   2.037  10.273
 5311SOL    HW116499   3.742   1.952  10.237
 5311SOL    HW216500   3.605   2.039  10.254
 5312SOL     OW16501   3.056   3.474   9.341
 5312SOL    HW116502   3.062   3.381   9.378
 5312SOL    HW216503   2.997   3.474   9.261
 5313SOL     OW16504   2.684   2.864  10.682
 5313SOL    HW116505   2.724   2.863  10.590
 5313SOL    HW216506   2.694   2.956  10.722
 5314SOL     OW16507   2.778   2.772   9.601
 5314SOL    HW116508   2.841   2.810   9.533
 5314SOL    HW216509   2.818   2.689   9.640
 5315SOL     OW16510   3.366   3.469   9.354
 5315SOL    HW116511   3.274   3.506   9.361
 5315SOL    HW216512   3.404   3.489   9.264
 5316SOL     OW16513   2.234   3.150  10.800
 5316SOL    HW116514   2.221   3.243  10.766
 5316SOL    HW216515   2.150   3.098  10.787
 5317SOL     OW16516   3.476   3.154  10.599
 5317SOL    HW116517   3.536   3.157  10.679
 5317SOL    HW216518   3.401   3.218  10.612
 5318SOL     OW16519   2.901   2.960  10.006
 5318SOL    HW116520   2.831   2.913  10.060
 5318SOL    HW216521   2.960   2.892   9.963
 5319SOL     OW16522   2.876   2.098  10.281
 5319SOL    HW116523   2.868   2.062  10.188
 5319SOL    HW216524   2.874   2.022  10.346
 5320SOL     OW16525   2.452   3.349   9.801
 5320SOL    HW116526   2.494   3.291   9.731
 5320SOL    HW216527   2.408   3.428   9.757
 5321SOL     OW16528   3.571   2.247  10.691
 5321SOL    HW116529   3.644   2.316  10.695
 5321SOL    HW216530   3.599   2.172  10.632
 5322SOL     OW16531   2.117   3.210   9.600
 5322SOL    HW116532   2.021   3.211   9.573
 5322SOL    HW216533   2.129   3.263   9.684
 5323SOL     OW16534   1.967   2.875  11.036
 5323SOL    HW116535   1.890   2.842  11.090
 5323SOL    HW216536   2.052   2.845  11.078
 5324SOL     OW16537   2.534   2.065  10.799
 5324SOL    HW116538   2.624   2.049  10.759
 5324SOL    HW216539   2.542   2.070  10.898
 5325SOL     OW16540   1.937   2.207   9.343
 5325SOL    HW116541   1.845   2.179   9.314
 5325SOL    HW216542   1.968   2.284   9.287
 5326SOL     OW16543   3.302   2.718  10.708
 5326SOL    HW116544   3.245   2.770  10.645
 5326SOL    HW216545   3.398   2.730  10.684
 5327SOL     OW16546   1.934   2.028   9.628
 5327SOL    HW116547   1.917   2.111   9.574
 5327SOL    HW216548   2.024   1.991   9.606
 5328SOL     OW16549   3.045   3.197   9.429
 5328SOL    HW116550   2.946   3.186   9.431
 5328SOL    HW216551   3.079   3.212   9.522
 5329SOL     OW16552   2.475   2.704  10.741
 5329SOL    HW116553   2.531   2.785  10.724
 5329SOL    HW216554   2.534   2.624  10.744
 5330SOL     OW16555   3.355   3.629  10.269
 5330SOL    HW116556   3.388   3.693  10.200
 5330SOL    HW216557   3.421   3.623  10.344
 5331SOL     OW16558   2.578   2.427  11.018
 5331SOL    HW116559   2.597   2.492  11.092
 5331SOL    HW216560   2.638   2.347  11.027
 5332SOL     OW16561   2.252   3.603  10.870
 5332SOL    HW116562   2.161   3.644  10.868
 5332SOL    HW216563   2.245   3.509  10.902
 5333SOL     OW16564   3.536   2.745  10.564
 5333SOL    HW116565   3.509   2.656  10.527
 5333SOL    HW216566   3.537   2.813  10.491
 5334SOL     OW16567   3.087   2.187   9.759
 5334SOL    HW116568   3.152   2.113   9.748
 5334SOL    HW216569   3.107   2.237   9.843
 5335SOL     OW16570   2.456   2.607   9.962
 5335SOL    HW116571   2.506   2.692   9.943
 5335SOL    HW216572   2.368   2.609   9.914
 5336SOL     OW16573   3.639   2.204  10.952
 5336SOL    HW116574   3.622   2.235  10.858
 5336SOL    HW216575   3.555   2.167  10.990
 5337SOL     OW16576   3.592   2.796  10.827
 5337SOL    HW116577   3.630   2.887  10.842
 5337SOL    HW216578   3.584   2.779  10.728
 5338SOL     OW16579   2.721   3.236   9.326
 5338SOL    HW116580   2.675   3.251   9.414
 5338SOL    HW216581   2.765   3.321   9.296
 5339SOL     OW16582   2.523   3.652  10.263
 5339SOL    HW116583   2.477   3.740  10.250
 5339SOL    HW216584   2.622   3.664  10.256
 5340SOL     OW16585   2.721   2.818  10.171
 5340SOL    HW116586   2.775   2.749  10.219
 5340SOL    HW216587   2.689   2.887  10.237
 5341SOL     OW16588   2.945   2.846   9.397
 5341SOL    HW116589   2.922   2.899   9.315
 5341SOL    HW216590   3.026   2.790   9.378
 5342SOL     OW16591   3.723   3.431  10.161
 5342SOL    HW116592   3.652   3.419  10.091
 5342SOL    HW216593   3.724   3.352  10.221
 5343SOL     OW16594   1.941   3.102   9.963
 5343SOL    HW116595   1.940   3.055  10.051
 5343SOL    HW216596   2.023   3.074   9.912
 5344SOL     OW16597   2.534   3.253  10.934
 5344SOL    HW116598   2.456   3.203  10.972
 5344SOL    HW216599   2.531   3.348  10.965
 5345SOL     OW16600   3.686   2.054  10.537
 5345SOL    HW116601   3.682   1.964  10.581
 5345SOL    HW216602   3.689   2.043  10.438
 5346SOL     OW16603   3.567   3.349  10.414
 5346SOL    HW116604   3.474   3.324  10.387
 5346SOL    HW216605   3.593   3.299  10.496
 5347SOL     OW16606   2.674   3.448   9.997
 5347SOL    HW116607   2.706   3.458   9.903
 5347SOL    HW216608   2.595   3.386   9.999
 5348SOL     OW16609   3.286   2.076  10.422
 5348SOL    HW116610   3.338   2.011  10.477
 5348SOL    HW216611   3.237   2.139  10.483
 5349SOL     OW16612   2.863   1.896  10.464
 5349SOL    HW116613   2.800   1.824  10.433
 5349SOL    HW216614   2.956   1.860  10.464
 5350SOL     OW16615   2.632   3.192   9.611
 5350SOL    HW116616   2.586   3.105   9.628
 5350SOL    HW216617   2.723   3.189   9.652
 5351SOL     OW16618   2.480   3.429  10.594
 5351SOL    HW116619   2.475   3.511  10.651
 5351SOL    HW216620   2.569   3.426  10.549
 5352SOL     OW16621   3.214   1.914   9.478
 5352SOL    HW116622   3.249   1.873   9.394
 5352SOL    HW216623   3.124   1.876   9.498
 5353SOL     OW16624   3.162   2.315  10.001
 5353SOL    HW116625   3.103   2.395  10.005
 5353SOL    HW216626   3.177   2.280  10.094
 5354SOL     OW16627   3.455   2.083  10.192
 5354SOL    HW116628   3.371   2.082  10.246
 5354SOL    HW216629   3.457   2.166  10.136
 5355SOL     OW16630   1.901   2.939   9.610
 5355SOL    HW116631   2.000   2.928   9.601
 5355SOL    HW216632   1.861   2.853   9.642
 5356SOL     OW16633   2.737   3.508   9.647
 5356SOL    HW116634   2.660   3.473   9.593
 5356SOL    HW216635   2.705   3.579   9.709
 5357SOL     OW16636   2.092   4.352   0.113
 5357SOL    HW116637   1.999   4.350   0.150
 5357SOL    HW216638   2.093   4.313   0.021
 5358SOL     OW16639   2.087   3.999   0.996
 5358SOL    HW116640   2.122   3.982   1.088
 5358SOL    HW216641   1.999   3.954   0.984
 5359SOL     OW16642   1.881   4.092   0.647
 5359SOL    HW116643   1.799   4.135   0.686
 5359SOL    HW216644   1.853   4.019   0.584
 5360SOL     OW16645   3.617   4.331   0.231
 5360SOL    HW116646   3.605   4.318   0.132
 5360SOL    HW216647   3.587   4.250   0.280
 5361SOL     OW16648   2.547   4.736   0.665
 5361SOL    HW116649   2.616   4.720   0.735
 5361SOL    HW216650   2.474   4.793   0.703
 5362SOL     OW16651   2.300   4.116   1.499
 5362SOL    HW116652   2.382   4.060   1.508
 5362SOL    HW216653   2.219   4.058   1.503
 5363SOL     OW16654   3.465   4.171   0.737
 5363SOL    HW116655   3.391   4.217   0.687
 5363SOL    HW216656   3.516   4.239   0.790
 5364SOL     OW16657   3.456   3.838   1.480
 5364SOL    HW116658   3.438   3.905   1.408
 5364SOL    HW216659   3.453   3.884   1.569
 5365SOL     OW16660   1.984   4.367   0.563
 5365SOL    HW116661   1.939   4.279   0.580
 5365SOL    HW216662   1.983   4.421   0.647
 5366SOL     OW16663   1.975   4.461   1.597
 5366SOL    HW116664   2.063   4.448   1.642
 5366SOL    HW216665   1.962   4.558   1.575
 5367SOL     OW16666   2.671   3.728   0.502
 5367SOL    HW116667   2.711   3.819   0.493
 5367SOL    HW216668   2.571   3.736   0.508
 5368SOL     OW16669   2.179   3.975   1.801
 5368SOL    HW116670   2.250   4.046   1.807
 5368SOL    HW216671   2.091   4.014   1.829
 5369SOL     OW16672   3.143   4.069   0.944
 5369SOL    HW116673   3.057   4.019   0.931
 5369SOL    HW216674   3.205   4.015   1.000
 5370SOL     OW16675   2.669   4.329   1.465
 5370SOL    HW116676   2.622   4.326   1.554
 5370SOL    HW216677   2.618   4.274   1.399
 5371SOL     OW16678   3.256   4.193   1.674
 5371SOL    HW116679   3.236   4.236   1.762
 5371SOL    HW216680   3.334   4.131   1.683
 5372SOL     OW16681   2.853   4.134   1.242
 5372SOL    HW116682   2.776   4.168   1.296
 5372SOL    HW216683   2.819   4.083   1.163
 5373SOL     OW16684   2.903   4.425   0.429
 5373SOL    HW116685   2.929   4.421   0.525
 5373SOL    HW216686   2.818   4.374   0.415
 5374SOL     OW16687   2.727   4.072   0.195
 5374SOL    HW116688   2.786   4.135   0.146
 5374SOL    HW216689   2.746   3.978   0.166
 5375SOL     OW16690   3.581   4.309   1.831
 5375SOL    HW116691   3.555   4.398   1.795
 5375SOL    HW216692   3.579   4.241   1.758
 5376SOL     OW16693   2.412   3.920   0.885
 5376SOL    HW116694   2.407   3.915   0.985
 5376SOL    HW216695   2.414   4.016   0.856
 5377SOL     OW16696   3.320   4.459   0.728
 5377SOL    HW116697   3.315   4.394   0.803
 5377SOL    HW216698   3.400   4.518   0.741
 5378SOL     OW16699   2.064   4.009   1.498
 5378SOL    HW116700   1.984   4.069   1.485
 5378SOL    HW216701   2.054   3.960   1.584
 5379SOL     OW16702   3.262   3.831   0.426
 5379SOL    HW116703   3.238   3.794   0.336
 5379SOL    HW216704   3.361   3.847   0.430
 5380SOL     OW16705   2.244   4.424   0.480
 5380SOL    HW116706   2.289   4.334   0.477
 5380SOL    HW216707   2.150   4.413   0.513
 5381SOL     OW16708   3.409   3.946   1.729
 5381SOL    HW116709   3.404   3.983   1.821
 5381SOL    HW216710   3.337   3.877   1.717
 5382SOL     OW16711   2.476   3.846   0.117
 5382SOL    HW116712   2.574   3.824   0.124
 5382SOL    HW216713   2.445   3.829   0.024
 5383SOL     OW16714   2.643   3.988   1.749
 5383SOL    HW116715   2.710   3.927   1.792
 5383SOL    HW216716   2.570   4.007   1.814
 5384SOL     OW16717   3.213   4.314   1.433
 5384SOL    HW116718   3.241   4.271   1.518
 5384SOL    HW216719   3.238   4.410   1.434
 5385SOL     OW16720   2.784   4.227   0.899
 5385SOL    HW116721   2.759   4.218   0.803
 5385SOL    HW216722   2.832   4.145   0.930
 5386SOL     OW16723   2.401   3.788   0.512
 5386SOL    HW116724   2.320   3.789   0.570
 5386SOL    HW216725   2.404   3.871   0.457
 5387SOL     OW16726   2.159   3.759   0.171
 5387SOL    HW116727   2.208   3.843   0.150
 5387SOL    HW216728   2.221   3.694   0.216
 5388SOL     OW16729   2.797   3.960   0.480
 5388SOL    HW116730   2.749   4.001   0.402
 5388SOL    HW216731   2.896   3.958   0.461
 5389SOL     OW16732   2.938   4.407   1.464
 5389SOL    HW116733   2.858   4.346   1.467
 5389SOL    HW216734   3.019   4.354   1.440
 5390SOL     OW16735   2.894   4.273   0.016
 5390SOL    HW116736   2.853   4.355  -0.023
 5390SOL    HW216737   2.958   4.299   0.089
 5391SOL     OW16738   1.940   4.280   1.386
 5391SOL    HW116739   2.032   4.279   1.345
 5391SOL    HW216740   1.934   4.354   1.453
 5392SOL     OW16741   2.423   3.946   1.147
 5392SOL    HW116742   2.461   3.862   1.184
 5392SOL    HW216743   2.335   3.965   1.191
 5393SOL     OW16744   2.728   4.178   0.642
 5393SOL    HW116745   2.696   4.250   0.580
 5393SOL    HW216746   2.752   4.097   0.589
 5394SOL     OW16747   2.879   3.763   0.753
 5394SOL    HW116748   2.807   3.768   0.684
 5394SOL    HW216749   2.855   3.694   0.822
 5395SOL     OW16750   3.328   4.314   0.992
 5395SOL    HW116751   3.298   4.219   0.999
 5395SOL    HW216752   3.401   4.330   1.058
 5396SOL     OW16753   3.252   4.299   0.078
 5396SOL    HW116754   3.198   4.278   0.159
 5396SOL    HW216755   3.343   4.258   0.087
 5397SOL     OW16756   2.389   3.980   0.328
 5397SOL    HW116757   2.416   3.921   0.253
 5397SOL    HW216758   2.389   4.075   0.297
 5398SOL     OW16759   2.777   3.813   1.402
 5398SOL    HW116760   2.802   3.793   1.307
 5398SOL    HW216761   2.849   3.869   1.444
 5399SOL     OW16762   2.272   4.537   1.251
 5399SOL    HW116763   2.358   4.549   1.301
 5399SOL    HW216764   2.230   4.450   1.278
 5400SOL     OW16765   3.136   4.110   1.262
 5400SOL    HW116766   3.157   4.184   1.326
 5400SOL    HW216767   3.047   4.127   1.219
 5401SOL     OW16768   2.428   4.261   0.865
 5401SOL    HW116769   2.440   4.327   0.791
 5401SOL    HW216770   2.474   4.295   0.948
 5402SOL     OW16771   3.444   4.363   0.472
 5402SOL    HW116772   3.413   4.424   0.545
 5402SOL    HW216773   3.494   4.415   0.403
 5403SOL     OW16774   2.875   3.829   1.770
 5403SOL    HW116775   2.881   3.914   1.718
 5403SOL    HW216776   2.907   3.753   1.713
 5404SOL     OW16777   2.366   3.774   1.740
 5404SOL    HW116778   2.324   3.717   1.670
 5404SOL    HW216779   2.300   3.843   1.772
 5405SOL     OW16780   3.071   4.249   0.275
 5405SOL    HW116781   3.084   4.165   0.329
 5405SOL    HW216782   3.042   4.323   0.335
 5406SOL     OW16783   2.169   3.937   1.231
 5406SOL    HW116784   2.146   3.974   1.321
 5406SOL    HW216785   2.139   3.842   1.225
 5407SOL     OW16786   2.594   4.358   1.064
 5407SOL    HW116787   2.653   4.332   0.988
 5407SOL    HW216788   2.566   4.454   1.053
 5408SOL     OW16789   3.590   4.659   1.854
 5408SOL    HW116790   3.544   4.652   1.765
 5408SOL    HW216791   3.528   4.703   1.920
 5409SOL     OW16792   2.169   3.787   0.618
 5409SOL    HW116793   2.158   3.881   0.651
 5409SOL    HW216794   2.164   3.724   0.695
 5410SOL     OW16795   3.484   4.091   0.374
 5410SOL    HW116796   3.486   4.015   0.438
 5410SOL    HW216797   3.436   4.168   0.414
 5411SOL     OW16798   3.402   3.998   0.125
 5411SOL    HW116799   3.341   3.923   0.148
 5411SOL    HW216800   3.424   4.050   0.208
 5412SOL     OW16801   2.181   4.534   0.949
 5412SOL    HW116802   2.274   4.570   0.954
 5412SOL    HW216803   2.175   4.449   1.001
 5413SOL     OW16804   2.201   4.233   1.006
 5413SOL    HW116805   2.149   4.150   0.989
 5413SOL    HW216806   2.278   4.238   0.942
 5414SOL     OW16807   3.000   4.104   1.678
 5414SOL    HW116808   2.955   4.167   1.742
 5414SOL    HW216809   3.093   4.135   1.661
 5415SOL     OW16810   3.022   3.931   1.477
 5415SOL    HW116811   3.022   3.995   1.554
 5415SOL    HW216812   3.050   3.979   1.394
 5416SOL     OW16813   1.902   4.268   1.114
 5416SOL    HW116814   1.987   4.235   1.073
 5416SOL    HW216815   1.915   4.283   1.212
 5417SOL     OW16816   2.051   4.244   1.722
 5417SOL    HW116817   2.110   4.204   1.652
 5417SOL    HW216818   1.993   4.315   1.681
 5418SOL     OW16819   2.677   4.296   0.325
 5418SOL    HW116820   2.684   4.207   0.279
 5418SOL    HW216821   2.583   4.330   0.317
 5419SOL     OW16822   3.519   4.328   1.206
 5419SOL    HW116823   3.481   4.259   1.268
 5419SOL    HW216824   3.601   4.292   1.162
 5420SOL     OW16825   2.533   4.188   1.269
 5420SOL    HW116826   2.499   4.099   1.239
 5420SOL    HW216827   2.559   4.242   1.189
 5421SOL     OW16828   2.335   4.224   0.191
 5421SOL    HW116829   2.396   4.304   0.195
 5421SOL    HW216830   2.240   4.255   0.198
 5422SOL     OW16831   2.765   3.810   0.133
 5422SOL    HW116832   2.816   3.811   0.047
 5422SOL    HW216833   2.821   3.768   0.204
 5423SOL     OW16834   3.588   3.859   0.523
 5423SOL    HW116835   3.661   3.842   0.456
 5423SOL    HW216836   3.557   3.772   0.561
 5424SOL     OW16837   3.142   4.651   0.672
 5424SOL    HW116838   3.202   4.570   0.674
 5424SOL    HW216839   3.182   4.720   0.612
 5425SOL     OW16840   3.703   3.899   0.963
 5425SOL    HW116841   3.742   3.814   0.927
 5425SOL    HW216842   3.605   3.901   0.944
 5426SOL     OW16843   2.125   4.050   0.720
 5426SOL    HW116844   2.046   4.101   0.686
 5426SOL    HW216845   2.116   4.035   0.818
 5427SOL     OW16846   2.901   4.822   0.696
 5427SOL    HW116847   2.831   4.775   0.750
 5427SOL    HW216848   2.960   4.754   0.653
 5428SOL     OW16849   2.876   3.960   0.971
 5428SOL    HW116850   2.868   3.924   0.878
 5428SOL    HW216851   2.874   3.884   1.036
 5429SOL     OW16852   3.571   4.109   1.381
 5429SOL    HW116853   3.644   4.178   1.385
 5429SOL    HW216854   3.599   4.034   1.322
 5430SOL     OW16855   2.534   3.927   1.489
 5430SOL    HW116856   2.624   3.911   1.449
 5430SOL    HW216857   2.542   3.932   1.588
 5431SOL     OW16858   1.937   4.069   0.033
 5431SOL    HW116859   1.845   4.041   0.004
 5431SOL    HW216860   1.968   4.146  -0.023
 5432SOL     OW16861   1.934   3.890   0.318
 5432SOL    HW116862   1.917   3.973   0.264
 5432SOL    HW216863   2.024   3.853   0.296
 5433SOL     OW16864   2.578   4.289   1.708
 5433SOL    HW116865   2.597   4.354   1.782
 5433SOL    HW216866   2.638   4.209   1.717
 5434SOL     OW16867   3.087   4.049   0.449
 5434SOL    HW116868   3.152   3.975   0.438
 5434SOL    HW216869   3.107   4.099   0.533
 5435SOL     OW16870   3.639   4.066   1.642
 5435SOL    HW116871   3.622   4.097   1.548
 5435SOL    HW216872   3.555   4.029   1.680
 5436SOL     OW16873   2.945   4.708   0.087
 5436SOL    HW116874   2.922   4.761   0.005
 5436SOL    HW216875   3.026   4.652   0.068
 5437SOL     OW16876   3.686   3.916   1.227
 5437SOL    HW116877   3.682   3.826   1.271
 5437SOL    HW216878   3.689   3.905   1.128
 5438SOL     OW16879   2.290   4.148   0.520
 5438SOL    HW116880   2.320   4.076   0.458
 5438SOL    HW216881   2.251   4.108   0.603
 5439SOL     OW16882   2.179   4.271   1.280
 5439SOL    HW116883   2.217   4.212   1.352
 5439SOL    HW216884   2.219   4.245   1.192
 5440SOL     OW16885   3.286   3.938   1.112
 5440SOL    HW116886   3.338   3.873   1.167
 5440SOL    HW216887   3.237   4.001   1.173
 5441SOL     OW16888   2.863   3.758   1.154
 5441SOL    HW116889   2.800   3.686   1.123
 5441SOL    HW216890   2.956   3.722   1.154
 5442SOL     OW16891   3.214   3.776   0.168
 5442SOL    HW116892   3.249   3.735   0.084
 5442SOL    HW216893   3.124   3.738   0.188
 5443SOL     OW16894   3.162   4.177   0.691
 5443SOL    HW116895   3.103   4.257   0.695
 5443SOL    HW216896   3.177   4.142   0.784
 5444SOL     OW16897   3.455   3.945   0.882
 5444SOL    HW116898   3.371   3.944   0.936
 5444SOL    HW216899   3.457   4.028   0.826
 5445SOL     OW16900   2.092   4.352   1.975
 5445SOL    HW116901   1.999   4.350   2.012
 5445SOL    HW216902   2.093   4.313   1.883
 5446SOL     OW16903   2.087   3.999   2.858
 5446SOL    HW116904   2.122   3.982   2.950
 5446SOL    HW216905   1.999   3.954   2.846
 5447SOL     OW16906   1.881   4.092   2.509
 5447SOL    HW116907   1.799   4.135   2.548
 5447SOL    HW216908   1.853   4.019   2.446
 5448SOL     OW16909   3.617   4.331   2.093
 5448SOL    HW116910   3.605   4.318   1.994
 5448SOL    HW216911   3.587   4.250   2.142
 5449SOL     OW16912   2.547   4.736   2.527
 5449SOL    HW116913   2.616   4.720   2.597
 5449SOL    HW216914   2.474   4.793   2.565
 5450SOL     OW16915   2.300   4.116   3.361
 5450SOL    HW116916   2.382   4.060   3.370
 5450SOL    HW216917   2.219   4.058   3.365
 5451SOL     OW16918   3.465   4.171   2.599
 5451SOL    HW116919   3.391   4.217   2.549
 5451SOL    HW216920   3.516   4.239   2.652
 5452SOL     OW16921   3.456   3.838   3.342
 5452SOL    HW116922   3.438   3.905   3.270
 5452SOL    HW216923   3.453   3.884   3.431
 5453SOL     OW16924   1.984   4.367   2.425
 5453SOL    HW116925   1.939   4.279   2.442
 5453SOL    HW216926   1.983   4.421   2.509
 5454SOL     OW16927   1.975   4.461   3.459
 5454SOL    HW116928   2.063   4.448   3.504
 5454SOL    HW216929   1.962   4.558   3.437
 5455SOL     OW16930   2.671   3.728   2.364
 5455SOL    HW116931   2.711   3.819   2.355
 5455SOL    HW216932   2.571   3.736   2.370
 5456SOL     OW16933   2.179   3.975   3.663
 5456SOL    HW116934   2.250   4.046   3.669
 5456SOL    HW216935   2.091   4.014   3.691
 5457SOL     OW16936   3.143   4.069   2.806
 5457SOL    HW116937   3.057   4.019   2.793
 5457SOL    HW216938   3.205   4.015   2.862
 5458SOL     OW16939   2.669   4.329   3.327
 5458SOL    HW116940   2.622   4.326   3.416
 5458SOL    HW216941   2.618   4.274   3.261
 5459SOL     OW16942   3.256   4.193   3.536
 5459SOL    HW116943   3.236   4.236   3.624
 5459SOL    HW216944   3.334   4.131   3.545
 5460SOL     OW16945   2.853   4.134   3.104
 5460SOL    HW116946   2.776   4.168   3.158
 5460SOL    HW216947   2.819   4.083   3.025
 5461SOL     OW16948   2.903   4.425   2.291
 5461SOL    HW116949   2.929   4.421   2.387
 5461SOL    HW216950   2.818   4.374   2.277
 5462SOL     OW16951   2.727   4.072   2.057
 5462SOL    HW116952   2.786   4.135   2.008
 5462SOL    HW216953   2.746   3.978   2.028
 5463SOL     OW16954   3.581   4.309   3.693
 5463SOL    HW116955   3.555   4.398   3.657
 5463SOL    HW216956   3.579   4.241   3.620
 5464SOL     OW16957   2.412   3.920   2.747
 5464SOL    HW116958   2.407   3.915   2.847
 5464SOL    HW216959   2.414   4.016   2.718
 5465SOL     OW16960   3.320   4.459   2.590
 5465SOL    HW116961   3.315   4.394   2.665
 5465SOL    HW216962   3.400   4.518   2.603
 5466SOL     OW16963   2.064   4.009   3.360
 5466SOL    HW116964   1.984   4.069   3.347
 5466SOL    HW216965   2.054   3.960   3.446
 5467SOL     OW16966   3.262   3.831   2.288
 5467SOL    HW116967   3.238   3.794   2.198
 5467SOL    HW216968   3.361   3.847   2.292
 5468SOL     OW16969   2.244   4.424   2.342
 5468SOL    HW116970   2.289   4.334   2.339
 5468SOL    HW216971   2.150   4.413   2.375
 5469SOL     OW16972   3.409   3.946   3.591
 5469SOL    HW116973   3.404   3.983   3.683
 5469SOL    HW216974   3.337   3.877   3.579
 5470SOL     OW16975   2.476   3.846   1.979
 5470SOL    HW116976   2.574   3.824   1.986
 5470SOL    HW216977   2.445   3.829   1.886
 5471SOL     OW16978   2.643   3.988   3.611
 5471SOL    HW116979   2.710   3.927   3.654
 5471SOL    HW216980   2.570   4.007   3.676
 5472SOL     OW16981   3.213   4.314   3.295
 5472SOL    HW116982   3.241   4.271   3.380
 5472SOL    HW216983   3.238   4.410   3.296
 5473SOL     OW16984   2.784   4.227   2.761
 5473SOL    HW116985   2.759   4.218   2.665
 5473SOL    HW216986   2.832   4.145   2.792
 5474SOL     OW16987   2.401   3.788   2.374
 5474SOL    HW116988   2.320   3.789   2.432
 5474SOL    HW216989   2.404   3.871   2.319
 5475SOL     OW16990   2.159   3.759   2.033
 5475SOL    HW116991   2.208   3.843   2.012
 5475SOL    HW216992   2.221   3.694   2.078
 5476SOL     OW16993   2.797   3.960   2.342
 5476SOL    HW116994   2.749   4.001   2.264
 5476SOL    HW216995   2.896   3.958   2.323
 5477SOL     OW16996   2.938   4.407   3.326
 5477SOL    HW116997   2.858   4.346   3.329
 5477SOL    HW216998   3.019   4.354   3.302
 5478SOL     OW16999   2.894   4.273   1.878
 5478SOL    HW117000   2.853   4.355   1.839
 5478SOL    HW217001   2.958   4.299   1.951
 5479SOL     OW17002   1.940   4.280   3.248
 5479SOL    HW117003   2.032   4.279   3.207
 5479SOL    HW217004   1.934   4.354   3.315
 5480SOL     OW17005   2.423   3.946   3.009
 5480SOL    HW117006   2.461   3.862   3.046
 5480SOL    HW217007   2.335   3.965   3.053
 5481SOL     OW17008   2.728   4.178   2.504
 5481SOL    HW117009   2.696   4.250   2.442
 5481SOL    HW217010   2.752   4.097   2.451
 5482SOL     OW17011   2.879   3.763   2.615
 5482SOL    HW117012   2.807   3.768   2.546
 5482SOL    HW217013   2.855   3.694   2.684
 5483SOL     OW17014   3.328   4.314   2.854
 5483SOL    HW117015   3.298   4.219   2.861
 5483SOL    HW217016   3.401   4.330   2.920
 5484SOL     OW17017   3.252   4.299   1.940
 5484SOL    HW117018   3.198   4.278   2.021
 5484SOL    HW217019   3.343   4.258   1.949
 5485SOL     OW17020   2.389   3.980   2.190
 5485SOL    HW117021   2.416   3.921   2.115
 5485SOL    HW217022   2.389   4.075   2.159
 5486SOL     OW17023   2.777   3.813   3.264
 5486SOL    HW117024   2.802   3.793   3.169
 5486SOL    HW217025   2.849   3.869   3.306
 5487SOL     OW17026   2.272   4.537   3.113
 5487SOL    HW117027   2.358   4.549   3.163
 5487SOL    HW217028   2.230   4.450   3.140
 5488SOL     OW17029   3.136   4.110   3.124
 5488SOL    HW117030   3.157   4.184   3.188
 5488SOL    HW217031   3.047   4.127   3.081
 5489SOL     OW17032   2.428   4.261   2.727
 5489SOL    HW117033   2.440   4.327   2.653
 5489SOL    HW217034   2.474   4.295   2.810
 5490SOL     OW17035   3.444   4.363   2.334
 5490SOL    HW117036   3.413   4.424   2.407
 5490SOL    HW217037   3.494   4.415   2.265
 5491SOL     OW17038   2.875   3.829   3.632
 5491SOL    HW117039   2.881   3.914   3.580
 5491SOL    HW217040   2.907   3.753   3.575
 5492SOL     OW17041   2.366   3.774   3.602
 5492SOL    HW117042   2.324   3.717   3.532
 5492SOL    HW217043   2.300   3.843   3.634
 5493SOL     OW17044   3.071   4.249   2.137
 5493SOL    HW117045   3.084   4.165   2.191
 5493SOL    HW217046   3.042   4.323   2.197
 5494SOL     OW17047   2.169   3.937   3.093
 5494SOL    HW117048   2.146   3.974   3.183
 5494SOL    HW217049   2.139   3.842   3.087
 5495SOL     OW17050   2.594   4.358   2.926
 5495SOL    HW117051   2.653   4.332   2.850
 5495SOL    HW217052   2.566   4.454   2.915
 5496SOL     OW17053   3.590   4.659   3.716
 5496SOL    HW117054   3.544   4.652   3.627
 5496SOL    HW217055   3.528   4.703   3.782
 5497SOL     OW17056   2.169   3.787   2.480
 5497SOL    HW117057   2.158   3.881   2.513
 5497SOL    HW217058   2.164   3.724   2.557
 5498SOL     OW17059   3.484   4.091   2.236
 5498SOL    HW117060   3.486   4.015   2.300
 5498SOL    HW217061   3.436   4.168   2.276
 5499SOL     OW17062   3.402   3.998   1.987
 5499SOL    HW117063   3.341   3.923   2.010
 5499SOL    HW217064   3.424   4.050   2.070
 5500SOL     OW17065   2.181   4.534   2.811
 5500SOL    HW117066   2.274   4.570   2.816
 5500SOL    HW217067   2.175   4.449   2.863
 5501SOL     OW17068   2.201   4.233   2.868
 5501SOL    HW117069   2.149   4.150   2.851
 5501SOL    HW217070   2.278   4.238   2.804
 5502SOL     OW17071   3.000   4.104   3.540
 5502SOL    HW117072   2.955   4.167   3.604
 5502SOL    HW217073   3.093   4.135   3.523
 5503SOL     OW17074   3.022   3.931   3.339
 5503SOL    HW117075   3.022   3.995   3.416
 5503SOL    HW217076   3.050   3.979   3.256
 5504SOL     OW17077   1.902   4.268   2.976
 5504SOL    HW117078   1.987   4.235   2.935
 5504SOL    HW217079   1.915   4.283   3.074
 5505SOL     OW17080   2.051   4.244   3.584
 5505SOL    HW117081   2.110   4.204   3.514
 5505SOL    HW217082   1.993   4.315   3.543
 5506SOL     OW17083   2.677   4.296   2.187
 5506SOL    HW117084   2.684   4.207   2.141
 5506SOL    HW217085   2.583   4.330   2.179
 5507SOL     OW17086   3.519   4.328   3.068
 5507SOL    HW117087   3.481   4.259   3.130
 5507SOL    HW217088   3.601   4.292   3.024
 5508SOL     OW17089   2.533   4.188   3.131
 5508SOL    HW117090   2.499   4.099   3.101
 5508SOL    HW217091   2.559   4.242   3.051
 5509SOL     OW17092   2.335   4.224   2.053
 5509SOL    HW117093   2.396   4.304   2.057
 5509SOL    HW217094   2.240   4.255   2.060
 5510SOL     OW17095   3.588   3.859   2.385
 5510SOL    HW117096   3.661   3.842   2.318
 5510SOL    HW217097   3.557   3.772   2.423
 5511SOL     OW17098   3.142   4.651   2.534
 5511SOL    HW117099   3.202   4.570   2.536
 5511SOL    HW217100   3.182   4.720   2.474
 5512SOL     OW17101   3.703   3.899   2.825
 5512SOL    HW117102   3.742   3.814   2.789
 5512SOL    HW217103   3.605   3.901   2.806
 5513SOL     OW17104   2.125   4.050   2.582
 5513SOL    HW117105   2.046   4.101   2.548
 5513SOL    HW217106   2.116   4.035   2.680
 5514SOL     OW17107   2.778   4.634   2.153
 5514SOL    HW117108   2.841   4.672   2.085
 5514SOL    HW217109   2.818   4.551   2.192
 5515SOL     OW17110   2.901   4.822   2.558
 5515SOL    HW117111   2.831   4.775   2.612
 5515SOL    HW217112   2.960   4.754   2.515
 5516SOL     OW17113   2.876   3.960   2.833
 5516SOL    HW117114   2.868   3.924   2.740
 5516SOL    HW217115   2.874   3.884   2.898
 5517SOL     OW17116   3.571   4.109   3.243
 5517SOL    HW117117   3.644   4.178   3.247
 5517SOL    HW217118   3.599   4.034   3.184
 5518SOL     OW17119   2.534   3.927   3.351
 5518SOL    HW117120   2.624   3.911   3.311
 5518SOL    HW217121   2.542   3.932   3.450
 5519SOL     OW17122   1.937   4.069   1.895
 5519SOL    HW117123   1.845   4.041   1.866
 5519SOL    HW217124   1.968   4.146   1.839
 5520SOL     OW17125   1.934   3.890   2.180
 5520SOL    HW117126   1.917   3.973   2.126
 5520SOL    HW217127   2.024   3.853   2.158
 5521SOL     OW17128   2.578   4.289   3.570
 5521SOL    HW117129   2.597   4.354   3.644
 5521SOL    HW217130   2.638   4.209   3.579
 5522SOL     OW17131   3.087   4.049   2.311
 5522SOL    HW117132   3.152   3.975   2.300
 5522SOL    HW217133   3.107   4.099   2.395
 5523SOL     OW17134   3.639   4.066   3.504
 5523SOL    HW117135   3.622   4.097   3.410
 5523SOL    HW217136   3.555   4.029   3.542
 5524SOL     OW17137   2.945   4.708   1.949
 5524SOL    HW117138   2.922   4.761   1.867
 5524SOL    HW217139   3.026   4.652   1.930
 5525SOL     OW17140   3.686   3.916   3.089
 5525SOL    HW117141   3.682   3.826   3.133
 5525SOL    HW217142   3.689   3.905   2.990
 5526SOL     OW17143   2.290   4.148   2.382
 5526SOL    HW117144   2.320   4.076   2.320
 5526SOL    HW217145   2.251   4.108   2.465
 5527SOL     OW17146   2.179   4.271   3.142
 5527SOL    HW117147   2.217   4.212   3.214
 5527SOL    HW217148   2.219   4.245   3.054
 5528SOL     OW17149   3.286   3.938   2.974
 5528SOL    HW117150   3.338   3.873   3.029
 5528SOL    HW217151   3.237   4.001   3.035
 5529SOL     OW17152   2.863   3.758   3.016
 5529SOL    HW117153   2.800   3.686   2.985
 5529SOL    HW217154   2.956   3.722   3.016
 5530SOL     OW17155   3.214   3.776   2.030
 5530SOL    HW117156   3.249   3.735   1.946
 5530SOL    HW217157   3.124   3.738   2.050
 5531SOL     OW17158   3.162   4.177   2.553
 5531SOL    HW117159   3.103   4.257   2.557
 5531SOL    HW217160   3.177   4.142   2.646
 5532SOL     OW17161   3.455   3.945   2.744
 5532SOL    HW117162   3.371   3.944   2.798
 5532SOL    HW217163   3.457   4.028   2.688
 5533SOL     OW17164   2.092   4.352   3.837
 5533SOL    HW117165   1.999   4.350   3.874
 5533SOL    HW217166   2.093   4.313   3.745
 5534SOL     OW17167   2.087   3.999   4.720
 5534SOL    HW117168   2.122   3.982   4.812
 5534SOL    HW217169   1.999   3.954   4.708
 5535SOL     OW17170   1.881   4.092   4.371
 5535SOL    HW117171   1.799   4.135   4.410
 5535SOL    HW217172   1.853   4.019   4.308
 5536SOL     OW17173   3.617   4.331   3.955
 5536SOL    HW117174   3.605   4.318   3.856
 5536SOL    HW217175   3.587   4.250   4.004
 5537SOL     OW17176   2.547   4.736   4.389
 5537SOL    HW117177   2.616   4.720   4.459
 5537SOL    HW217178   2.474   4.793   4.427
 5538SOL     OW17179   2.300   4.116   5.223
 5538SOL    HW117180   2.382   4.060   5.232
 5538SOL    HW217181   2.219   4.058   5.227
 5539SOL     OW17182   3.465   4.171   4.461
 5539SOL    HW117183   3.391   4.217   4.411
 5539SOL    HW217184   3.516   4.239   4.514
 5540SOL     OW17185   3.456   3.838   5.204
 5540SOL    HW117186   3.438   3.905   5.132
 5540SOL    HW217187   3.453   3.884   5.293
 5541SOL     OW17188   1.984   4.367   4.287
 5541SOL    HW117189   1.939   4.279   4.304
 5541SOL    HW217190   1.983   4.421   4.371
 5542SOL     OW17191   1.975   4.461   5.321
 5542SOL    HW117192   2.063   4.448   5.366
 5542SOL    HW217193   1.962   4.558   5.299
 5543SOL     OW17194   2.671   3.728   4.226
 5543SOL    HW117195   2.711   3.819   4.217
 5543SOL    HW217196   2.571   3.736   4.232
 5544SOL     OW17197   2.179   3.975   5.525
 5544SOL    HW117198   2.250   4.046   5.531
 5544SOL    HW217199   2.091   4.014   5.553
 5545SOL     OW17200   3.143   4.069   4.668
 5545SOL    HW117201   3.057   4.019   4.655
 5545SOL    HW217202   3.205   4.015   4.724
 5546SOL     OW17203   2.669   4.329   5.189
 5546SOL    HW117204   2.622   4.326   5.278
 5546SOL    HW217205   2.618   4.274   5.123
 5547SOL     OW17206   3.256   4.193   5.398
 5547SOL    HW117207   3.236   4.236   5.486
 5547SOL    HW217208   3.334   4.131   5.407
 5548SOL     OW17209   2.853   4.134   4.966
 5548SOL    HW117210   2.776   4.168   5.020
 5548SOL    HW217211   2.819   4.083   4.887
 5549SOL     OW17212   2.903   4.425   4.153
 5549SOL    HW117213   2.929   4.421   4.249
 5549SOL    HW217214   2.818   4.374   4.139
 5550SOL     OW17215   2.727   4.072   3.919
 5550SOL    HW117216   2.786   4.135   3.870
 5550SOL    HW217217   2.746   3.978   3.890
 5551SOL     OW17218   3.581   4.309   5.555
 5551SOL    HW117219   3.555   4.398   5.519
 5551SOL    HW217220   3.579   4.241   5.482
 5552SOL     OW17221   2.412   3.920   4.609
 5552SOL    HW117222   2.407   3.915   4.709
 5552SOL    HW217223   2.414   4.016   4.580
 5553SOL     OW17224   3.320   4.459   4.452
 5553SOL    HW117225   3.315   4.394   4.527
 5553SOL    HW217226   3.400   4.518   4.465
 5554SOL     OW17227   2.064   4.009   5.222
 5554SOL    HW117228   1.984   4.069   5.209
 5554SOL    HW217229   2.054   3.960   5.308
 5555SOL     OW17230   3.262   3.831   4.150
 5555SOL    HW117231   3.238   3.794   4.060
 5555SOL    HW217232   3.361   3.847   4.154
 5556SOL     OW17233   2.244   4.424   4.204
 5556SOL    HW117234   2.289   4.334   4.201
 5556SOL    HW217235   2.150   4.413   4.237
 5557SOL     OW17236   3.409   3.946   5.453
 5557SOL    HW117237   3.404   3.983   5.545
 5557SOL    HW217238   3.337   3.877   5.441
 5558SOL     OW17239   2.476   3.846   3.841
 5558SOL    HW117240   2.574   3.824   3.848
 5558SOL    HW217241   2.445   3.829   3.748
 5559SOL     OW17242   2.643   3.988   5.473
 5559SOL    HW117243   2.710   3.927   5.516
 5559SOL    HW217244   2.570   4.007   5.538
 5560SOL     OW17245   3.213   4.314   5.157
 5560SOL    HW117246   3.241   4.271   5.242
 5560SOL    HW217247   3.238   4.410   5.158
 5561SOL     OW17248   2.784   4.227   4.623
 5561SOL    HW117249   2.759   4.218   4.527
 5561SOL    HW217250   2.832   4.145   4.654
 5562SOL     OW17251   2.401   3.788   4.236
 5562SOL    HW117252   2.320   3.789   4.294
 5562SOL    HW217253   2.404   3.871   4.181
 5563SOL     OW17254   2.159   3.759   3.895
 5563SOL    HW117255   2.208   3.843   3.874
 5563SOL    HW217256   2.221   3.694   3.940
 5564SOL     OW17257   2.797   3.960   4.204
 5564SOL    HW117258   2.749   4.001   4.126
 5564SOL    HW217259   2.896   3.958   4.185
 5565SOL     OW17260   2.938   4.407   5.188
 5565SOL    HW117261   2.858   4.346   5.191
 5565SOL    HW217262   3.019   4.354   5.164
 5566SOL     OW17263   2.894   4.273   3.740
 5566SOL    HW117264   2.853   4.355   3.701
 5566SOL    HW217265   2.958   4.299   3.813
 5567SOL     OW17266   1.940   4.280   5.110
 5567SOL    HW117267   2.032   4.279   5.069
 5567SOL    HW217268   1.934   4.354   5.177
 5568SOL     OW17269   2.423   3.946   4.871
 5568SOL    HW117270   2.461   3.862   4.908
 5568SOL    HW217271   2.335   3.965   4.915
 5569SOL     OW17272   2.728   4.178   4.366
 5569SOL    HW117273   2.696   4.250   4.304
 5569SOL    HW217274   2.752   4.097   4.313
 5570SOL     OW17275   2.879   3.763   4.477
 5570SOL    HW117276   2.807   3.768   4.408
 5570SOL    HW217277   2.855   3.694   4.546
 5571SOL     OW17278   3.328   4.314   4.716
 5571SOL    HW117279   3.298   4.219   4.723
 5571SOL    HW217280   3.401   4.330   4.782
 5572SOL     OW17281   3.252   4.299   3.802
 5572SOL    HW117282   3.198   4.278   3.883
 5572SOL    HW217283   3.343   4.258   3.811
 5573SOL     OW17284   2.389   3.980   4.052
 5573SOL    HW117285   2.416   3.921   3.977
 5573SOL    HW217286   2.389   4.075   4.021
 5574SOL     OW17287   2.777   3.813   5.126
 5574SOL    HW117288   2.802   3.793   5.031
 5574SOL    HW217289   2.849   3.869   5.168
 5575SOL     OW17290   2.272   4.537   4.975
 5575SOL    HW117291   2.358   4.549   5.025
 5575SOL    HW217292   2.230   4.450   5.002
 5576SOL     OW17293   3.136   4.110   4.986
 5576SOL    HW117294   3.157   4.184   5.050
 5576SOL    HW217295   3.047   4.127   4.943
 5577SOL     OW17296   2.428   4.261   4.589
 5577SOL    HW117297   2.440   4.327   4.515
 5577SOL    HW217298   2.474   4.295   4.672
 5578SOL     OW17299   3.444   4.363   4.196
 5578SOL    HW117300   3.413   4.424   4.269
 5578SOL    HW217301   3.494   4.415   4.127
 5579SOL     OW17302   2.875   3.829   5.494
 5579SOL    HW117303   2.881   3.914   5.442
 5579SOL    HW217304   2.907   3.753   5.437
 5580SOL     OW17305   2.366   3.774   5.464
 5580SOL    HW117306   2.324   3.717   5.394
 5580SOL    HW217307   2.300   3.843   5.496
 5581SOL     OW17308   3.071   4.249   3.999
 5581SOL    HW117309   3.084   4.165   4.053
 5581SOL    HW217310   3.042   4.323   4.059
 5582SOL     OW17311   2.169   3.937   4.955
 5582SOL    HW117312   2.146   3.974   5.045
 5582SOL    HW217313   2.139   3.842   4.949
 5583SOL     OW17314   2.594   4.358   4.788
 5583SOL    HW117315   2.653   4.332   4.712
 5583SOL    HW217316   2.566   4.454   4.777
 5584SOL     OW17317   3.590   4.659   5.578
 5584SOL    HW117318   3.544   4.652   5.489
 5584SOL    HW217319   3.528   4.703   5.644
 5585SOL     OW17320   2.169   3.787   4.342
 5585SOL    HW117321   2.158   3.881   4.375
 5585SOL    HW217322   2.164   3.724   4.419
 5586SOL     OW17323   3.484   4.091   4.098
 5586SOL    HW117324   3.486   4.015   4.162
 5586SOL    HW217325   3.436   4.168   4.138
 5587SOL     OW17326   3.402   3.998   3.849
 5587SOL    HW117327   3.341   3.923   3.872
 5587SOL    HW217328   3.424   4.050   3.932
 5588SOL     OW17329   2.181   4.534   4.673
 5588SOL    HW117330   2.274   4.570   4.678
 5588SOL    HW217331   2.175   4.449   4.725
 5589SOL     OW17332   2.201   4.233   4.730
 5589SOL    HW117333   2.149   4.150   4.713
 5589SOL    HW217334   2.278   4.238   4.666
 5590SOL     OW17335   3.000   4.104   5.402
 5590SOL    HW117336   2.955   4.167   5.466
 5590SOL    HW217337   3.093   4.135   5.385
 5591SOL     OW17338   3.022   3.931   5.201
 5591SOL    HW117339   3.022   3.995   5.278
 5591SOL    HW217340   3.050   3.979   5.118
 5592SOL     OW17341   1.902   4.268   4.838
 5592SOL    HW117342   1.987   4.235   4.797
 5592SOL    HW217343   1.915   4.283   4.936
 5593SOL     OW17344   2.051   4.244   5.446
 5593SOL    HW117345   2.110   4.204   5.376
 5593SOL    HW217346   1.993   4.315   5.405
 5594SOL     OW17347   2.677   4.296   4.049
 5594SOL    HW117348   2.684   4.207   4.003
 5594SOL    HW217349   2.583   4.330   4.041
 5595SOL     OW17350   3.519   4.328   4.930
 5595SOL    HW117351   3.481   4.259   4.992
 5595SOL    HW217352   3.601   4.292   4.886
 5596SOL     OW17353   2.533   4.188   4.993
 5596SOL    HW117354   2.499   4.099   4.963
 5596SOL    HW217355   2.559   4.242   4.913
 5597SOL     OW17356   2.335   4.224   3.915
 5597SOL    HW117357   2.396   4.304   3.919
 5597SOL    HW217358   2.240   4.255   3.922
 5598SOL     OW17359   3.588   3.859   4.247
 5598SOL    HW117360   3.661   3.842   4.180
 5598SOL    HW217361   3.557   3.772   4.285
 5599SOL     OW17362   3.142   4.651   4.396
 5599SOL    HW117363   3.202   4.570   4.398
 5599SOL    HW217364   3.182   4.720   4.336
 5600SOL     OW17365   3.703   3.899   4.687
 5600SOL    HW117366   3.742   3.814   4.651
 5600SOL    HW217367   3.605   3.901   4.668
 5601SOL     OW17368   2.125   4.050   4.444
 5601SOL    HW117369   2.046   4.101   4.410
 5601SOL    HW217370   2.116   4.035   4.542
 5602SOL     OW17371   2.778   4.634   4.015
 5602SOL    HW117372   2.841   4.672   3.947
 5602SOL    HW217373   2.818   4.551   4.054
 5603SOL     OW17374   2.901   4.822   4.420
 5603SOL    HW117375   2.831   4.775   4.474
 5603SOL    HW217376   2.960   4.754   4.377
 5604SOL     OW17377   2.876   3.960   4.695
 5604SOL    HW117378   2.868   3.924   4.602
 5604SOL    HW217379   2.874   3.884   4.760
 5605SOL     OW17380   3.571   4.109   5.105
 5605SOL    HW117381   3.644   4.178   5.109
 5605SOL    HW217382   3.599   4.034   5.046
 5606SOL     OW17383   2.534   3.927   5.213
 5606SOL    HW117384   2.624   3.911   5.173
 5606SOL    HW217385   2.542   3.932   5.312
 5607SOL     OW17386   1.937   4.069   3.757
 5607SOL    HW117387   1.845   4.041   3.728
 5607SOL    HW217388   1.968   4.146   3.701
 5608SOL     OW17389   1.934   3.890   4.042
 5608SOL    HW117390   1.917   3.973   3.988
 5608SOL    HW217391   2.024   3.853   4.020
 5609SOL     OW17392   2.578   4.289   5.432
 5609SOL    HW117393   2.597   4.354   5.506
 5609SOL    HW217394   2.638   4.209   5.441
 5610SOL     OW17395   3.087   4.049   4.173
 5610SOL    HW117396   3.152   3.975   4.162
 5610SOL    HW217397   3.107   4.099   4.257
 5611SOL     OW17398   3.639   4.066   5.366
 5611SOL    HW117399   3.622   4.097   5.272
 5611SOL    HW217400   3.555   4.029   5.404
 5612SOL     OW17401   2.945   4.708   3.811
 5612SOL    HW117402   2.922   4.761   3.729
 5612SOL    HW217403   3.026   4.652   3.792
 5613SOL     OW17404   3.686   3.916   4.951
 5613SOL    HW117405   3.682   3.826   4.995
 5613SOL    HW217406   3.689   3.905   4.852
 5614SOL     OW17407   2.290   4.148   4.244
 5614SOL    HW117408   2.320   4.076   4.182
 5614SOL    HW217409   2.251   4.108   4.327
 5615SOL     OW17410   2.179   4.271   5.004
 5615SOL    HW117411   2.217   4.212   5.076
 5615SOL    HW217412   2.219   4.245   4.916
 5616SOL     OW17413   3.286   3.938   4.836
 5616SOL    HW117414   3.338   3.873   4.891
 5616SOL    HW217415   3.237   4.001   4.897
 5617SOL     OW17416   2.863   3.758   4.878
 5617SOL    HW117417   2.800   3.686   4.847
 5617SOL    HW217418   2.956   3.722   4.878
 5618SOL     OW17419   3.214   3.776   3.892
 5618SOL    HW117420   3.249   3.735   3.808
 5618SOL    HW217421   3.124   3.738   3.912
 5619SOL     OW17422   3.162   4.177   4.415
 5619SOL    HW117423   3.103   4.257   4.419
 5619SOL    HW217424   3.177   4.142   4.508
 5620SOL     OW17425   3.455   3.945   4.606
 5620SOL    HW117426   3.371   3.944   4.660
 5620SOL    HW217427   3.457   4.028   4.550
 5621SOL     OW17428   2.092   4.352   5.699
 5621SOL    HW117429   1.999   4.350   5.736
 5621SOL    HW217430   2.093   4.313   5.607
 5622SOL     OW17431   2.087   3.999   6.582
 5622SOL    HW117432   2.122   3.982   6.674
 5622SOL    HW217433   1.999   3.954   6.570
 5623SOL     OW17434   1.881   4.092   6.233
 5623SOL    HW117435   1.799   4.135   6.272
 5623SOL    HW217436   1.853   4.019   6.170
 5624SOL     OW17437   3.617   4.331   5.817
 5624SOL    HW117438   3.605   4.318   5.718
 5624SOL    HW217439   3.587   4.250   5.866
 5625SOL     OW17440   2.547   4.736   6.251
 5625SOL    HW117441   2.616   4.720   6.321
 5625SOL    HW217442   2.474   4.793   6.289
 5626SOL     OW17443   2.300   4.116   7.085
 5626SOL    HW117444   2.382   4.060   7.094
 5626SOL    HW217445   2.219   4.058   7.089
 5627SOL     OW17446   3.465   4.171   6.323
 5627SOL    HW117447   3.391   4.217   6.273
 5627SOL    HW217448   3.516   4.239   6.376
 5628SOL     OW17449   3.456   3.838   7.066
 5628SOL    HW117450   3.438   3.905   6.994
 5628SOL    HW217451   3.453   3.884   7.155
 5629SOL     OW17452   1.984   4.367   6.149
 5629SOL    HW117453   1.939   4.279   6.166
 5629SOL    HW217454   1.983   4.421   6.233
 5630SOL     OW17455   1.975   4.461   7.183
 5630SOL    HW117456   2.063   4.448   7.228
 5630SOL    HW217457   1.962   4.558   7.161
 5631SOL     OW17458   2.671   3.728   6.088
 5631SOL    HW117459   2.711   3.819   6.079
 5631SOL    HW217460   2.571   3.736   6.094
 5632SOL     OW17461   2.179   3.975   7.387
 5632SOL    HW117462   2.250   4.046   7.393
 5632SOL    HW217463   2.091   4.014   7.415
 5633SOL     OW17464   3.143   4.069   6.530
 5633SOL    HW117465   3.057   4.019   6.517
 5633SOL    HW217466   3.205   4.015   6.586
 5634SOL     OW17467   2.669   4.329   7.051
 5634SOL    HW117468   2.622   4.326   7.140
 5634SOL    HW217469   2.618   4.274   6.985
 5635SOL     OW17470   3.256   4.193   7.260
 5635SOL    HW117471   3.236   4.236   7.348
 5635SOL    HW217472   3.334   4.131   7.269
 5636SOL     OW17473   2.853   4.134   6.828
 5636SOL    HW117474   2.776   4.168   6.882
 5636SOL    HW217475   2.819   4.083   6.749
 5637SOL     OW17476   2.903   4.425   6.015
 5637SOL    HW117477   2.929   4.421   6.111
 5637SOL    HW217478   2.818   4.374   6.001
 5638SOL     OW17479   2.727   4.072   5.781
 5638SOL    HW117480   2.786   4.135   5.732
 5638SOL    HW217481   2.746   3.978   5.752
 5639SOL     OW17482   3.581   4.309   7.417
 5639SOL    HW117483   3.555   4.398   7.381
 5639SOL    HW217484   3.579   4.241   7.344
 5640SOL     OW17485   2.412   3.920   6.471
 5640SOL    HW117486   2.407   3.915   6.571
 5640SOL    HW217487   2.414   4.016   6.442
 5641SOL     OW17488   3.320   4.459   6.314
 5641SOL    HW117489   3.315   4.394   6.389
 5641SOL    HW217490   3.400   4.518   6.327
 5642SOL     OW17491   2.064   4.009   7.084
 5642SOL    HW117492   1.984   4.069   7.071
 5642SOL    HW217493   2.054   3.960   7.170
 5643SOL     OW17494   3.262   3.831   6.012
 5643SOL    HW117495   3.238   3.794   5.922
 5643SOL    HW217496   3.361   3.847   6.016
 5644SOL     OW17497   2.244   4.424   6.066
 5644SOL    HW117498   2.289   4.334   6.063
 5644SOL    HW217499   2.150   4.413   6.099
 5645SOL     OW17500   3.409   3.946   7.315
 5645SOL    HW117501   3.404   3.983   7.407
 5645SOL    HW217502   3.337   3.877   7.303
 5646SOL     OW17503   2.476   3.846   5.703
 5646SOL    HW117504   2.574   3.824   5.710
 5646SOL    HW217505   2.445   3.829   5.610
 5647SOL     OW17506   2.643   3.988   7.335
 5647SOL    HW117507   2.710   3.927   7.378
 5647SOL    HW217508   2.570   4.007   7.400
 5648SOL     OW17509   3.213   4.314   7.019
 5648SOL    HW117510   3.241   4.271   7.104
 5648SOL    HW217511   3.238   4.410   7.020
 5649SOL     OW17512   2.784   4.227   6.485
 5649SOL    HW117513   2.759   4.218   6.389
 5649SOL    HW217514   2.832   4.145   6.516
 5650SOL     OW17515   2.401   3.788   6.098
 5650SOL    HW117516   2.320   3.789   6.156
 5650SOL    HW217517   2.404   3.871   6.043
 5651SOL     OW17518   2.159   3.759   5.757
 5651SOL    HW117519   2.208   3.843   5.736
 5651SOL    HW217520   2.221   3.694   5.802
 5652SOL     OW17521   2.797   3.960   6.066
 5652SOL    HW117522   2.749   4.001   5.988
 5652SOL    HW217523   2.896   3.958   6.047
 5653SOL     OW17524   2.938   4.407   7.050
 5653SOL    HW117525   2.858   4.346   7.053
 5653SOL    HW217526   3.019   4.354   7.026
 5654SOL     OW17527   2.894   4.273   5.602
 5654SOL    HW117528   2.853   4.355   5.563
 5654SOL    HW217529   2.958   4.299   5.675
 5655SOL     OW17530   1.940   4.280   6.972
 5655SOL    HW117531   2.032   4.279   6.931
 5655SOL    HW217532   1.934   4.354   7.039
 5656SOL     OW17533   2.423   3.946   6.733
 5656SOL    HW117534   2.461   3.862   6.770
 5656SOL    HW217535   2.335   3.965   6.777
 5657SOL     OW17536   2.728   4.178   6.228
 5657SOL    HW117537   2.696   4.250   6.166
 5657SOL    HW217538   2.752   4.097   6.175
 5658SOL     OW17539   2.879   3.763   6.339
 5658SOL    HW117540   2.807   3.768   6.270
 5658SOL    HW217541   2.855   3.694   6.408
 5659SOL     OW17542   3.328   4.314   6.578
 5659SOL    HW117543   3.298   4.219   6.585
 5659SOL    HW217544   3.401   4.330   6.644
 5660SOL     OW17545   3.252   4.299   5.664
 5660SOL    HW117546   3.198   4.278   5.745
 5660SOL    HW217547   3.343   4.258   5.673
 5661SOL     OW17548   2.389   3.980   5.914
 5661SOL    HW117549   2.416   3.921   5.839
 5661SOL    HW217550   2.389   4.075   5.883
 5662SOL     OW17551   2.777   3.813   6.988
 5662SOL    HW117552   2.802   3.793   6.893
 5662SOL    HW217553   2.849   3.869   7.030
 5663SOL     OW17554   2.272   4.537   6.837
 5663SOL    HW117555   2.358   4.549   6.887
 5663SOL    HW217556   2.230   4.450   6.864
 5664SOL     OW17557   3.136   4.110   6.848
 5664SOL    HW117558   3.157   4.184   6.912
 5664SOL    HW217559   3.047   4.127   6.805
 5665SOL     OW17560   2.428   4.261   6.451
 5665SOL    HW117561   2.440   4.327   6.377
 5665SOL    HW217562   2.474   4.295   6.534
 5666SOL     OW17563   3.444   4.363   6.058
 5666SOL    HW117564   3.413   4.424   6.131
 5666SOL    HW217565   3.494   4.415   5.989
 5667SOL     OW17566   2.875   3.829   7.356
 5667SOL    HW117567   2.881   3.914   7.304
 5667SOL    HW217568   2.907   3.753   7.299
 5668SOL     OW17569   2.366   3.774   7.326
 5668SOL    HW117570   2.324   3.717   7.256
 5668SOL    HW217571   2.300   3.843   7.358
 5669SOL     OW17572   3.071   4.249   5.861
 5669SOL    HW117573   3.084   4.165   5.915
 5669SOL    HW217574   3.042   4.323   5.921
 5670SOL     OW17575   2.169   3.937   6.817
 5670SOL    HW117576   2.146   3.974   6.907
 5670SOL    HW217577   2.139   3.842   6.811
 5671SOL     OW17578   2.594   4.358   6.650
 5671SOL    HW117579   2.653   4.332   6.574
 5671SOL    HW217580   2.566   4.454   6.639
 5672SOL     OW17581   3.590   4.659   7.440
 5672SOL    HW117582   3.544   4.652   7.351
 5672SOL    HW217583   3.528   4.703   7.506
 5673SOL     OW17584   2.169   3.787   6.204
 5673SOL    HW117585   2.158   3.881   6.237
 5673SOL    HW217586   2.164   3.724   6.281
 5674SOL     OW17587   3.484   4.091   5.960
 5674SOL    HW117588   3.486   4.015   6.024
 5674SOL    HW217589   3.436   4.168   6.000
 5675SOL     OW17590   3.402   3.998   5.711
 5675SOL    HW117591   3.341   3.923   5.734
 5675SOL    HW217592   3.424   4.050   5.794
 5676SOL     OW17593   2.181   4.534   6.535
 5676SOL    HW117594   2.274   4.570   6.540
 5676SOL    HW217595   2.175   4.449   6.587
 5677SOL     OW17596   2.201   4.233   6.592
 5677SOL    HW117597   2.149   4.150   6.575
 5677SOL    HW217598   2.278   4.238   6.528
 5678SOL     OW17599   3.000   4.104   7.264
 5678SOL    HW117600   2.955   4.167   7.328
 5678SOL    HW217601   3.093   4.135   7.247
 5679SOL     OW17602   3.022   3.931   7.063
 5679SOL    HW117603   3.022   3.995   7.140
 5679SOL    HW217604   3.050   3.979   6.980
 5680SOL     OW17605   1.902   4.268   6.700
 5680SOL    HW117606   1.987   4.235   6.659
 5680SOL    HW217607   1.915   4.283   6.798
 5681SOL     OW17608   2.051   4.244   7.308
 5681SOL    HW117609   2.110   4.204   7.238
 5681SOL    HW217610   1.993   4.315   7.267
 5682SOL     OW17611   2.677   4.296   5.911
 5682SOL    HW117612   2.684   4.207   5.865
 5682SOL    HW217613   2.583   4.330   5.903
 5683SOL     OW17614   3.519   4.328   6.792
 5683SOL    HW117615   3.481   4.259   6.854
 5683SOL    HW217616   3.601   4.292   6.748
 5684SOL     OW17617   2.533   4.188   6.855
 5684SOL    HW117618   2.499   4.099   6.825
 5684SOL    HW217619   2.559   4.242   6.775
 5685SOL     OW17620   2.335   4.224   5.777
 5685SOL    HW117621   2.396   4.304   5.781
 5685SOL    HW217622   2.240   4.255   5.784
 5686SOL     OW17623   3.588   3.859   6.109
 5686SOL    HW117624   3.661   3.842   6.042
 5686SOL    HW217625   3.557   3.772   6.147
 5687SOL     OW17626   3.142   4.651   6.258
 5687SOL    HW117627   3.202   4.570   6.260
 5687SOL    HW217628   3.182   4.720   6.198
 5688SOL     OW17629   3.703   3.899   6.549
 5688SOL    HW117630   3.742   3.814   6.513
 5688SOL    HW217631   3.605   3.901   6.530
 5689SOL     OW17632   2.125   4.050   6.306
 5689SOL    HW117633   2.046   4.101   6.272
 5689SOL    HW217634   2.116   4.035   6.404
 5690SOL     OW17635   2.778   4.634   5.877
 5690SOL    HW117636   2.841   4.672   5.809
 5690SOL    HW217637   2.818   4.551   5.916
 5691SOL     OW17638   2.901   4.822   6.282
 5691SOL    HW117639   2.831   4.775   6.336
 5691SOL    HW217640   2.960   4.754   6.239
 5692SOL     OW17641   2.876   3.960   6.557
 5692SOL    HW117642   2.868   3.924   6.464
 5692SOL    HW217643   2.874   3.884   6.622
 5693SOL     OW17644   3.571   4.109   6.967
 5693SOL    HW117645   3.644   4.178   6.971
 5693SOL    HW217646   3.599   4.034   6.908
 5694SOL     OW17647   2.534   3.927   7.075
 5694SOL    HW117648   2.624   3.911   7.035
 5694SOL    HW217649   2.542   3.932   7.174
 5695SOL     OW17650   1.937   4.069   5.619
 5695SOL    HW117651   1.845   4.041   5.590
 5695SOL    HW217652   1.968   4.146   5.563
 5696SOL     OW17653   1.934   3.890   5.904
 5696SOL    HW117654   1.917   3.973   5.850
 5696SOL    HW217655   2.024   3.853   5.882
 5697SOL     OW17656   2.578   4.289   7.294
 5697SOL    HW117657   2.597   4.354   7.368
 5697SOL    HW217658   2.638   4.209   7.303
 5698SOL     OW17659   3.087   4.049   6.035
 5698SOL    HW117660   3.152   3.975   6.024
 5698SOL    HW217661   3.107   4.099   6.119
 5699SOL     OW17662   3.639   4.066   7.228
 5699SOL    HW117663   3.622   4.097   7.134
 5699SOL    HW217664   3.555   4.029   7.266
 5700SOL     OW17665   2.945   4.708   5.673
 5700SOL    HW117666   2.922   4.761   5.591
 5700SOL    HW217667   3.026   4.652   5.654
 5701SOL     OW17668   3.686   3.916   6.813
 5701SOL    HW117669   3.682   3.826   6.857
 5701SOL    HW217670   3.689   3.905   6.714
 5702SOL     OW17671   2.290   4.148   6.106
 5702SOL    HW117672   2.320   4.076   6.044
 5702SOL    HW217673   2.251   4.108   6.189
 5703SOL     OW17674   2.179   4.271   6.866
 5703SOL    HW117675   2.217   4.212   6.938
 5703SOL    HW217676   2.219   4.245   6.778
 5704SOL     OW17677   3.286   3.938   6.698
 5704SOL    HW117678   3.338   3.873   6.753
 5704SOL    HW217679   3.237   4.001   6.759
 5705SOL     OW17680   2.863   3.758   6.740
 5705SOL    HW117681   2.800   3.686   6.709
 5705SOL    HW217682   2.956   3.722   6.740
 5706SOL     OW17683   3.214   3.776   5.754
 5706SOL    HW117684   3.249   3.735   5.670
 5706SOL    HW217685   3.124   3.738   5.774
 5707SOL     OW17686   3.162   4.177   6.277
 5707SOL    HW117687   3.103   4.257   6.281
 5707SOL    HW217688   3.177   4.142   6.370
 5708SOL     OW17689   3.455   3.945   6.468
 5708SOL    HW117690   3.371   3.944   6.522
 5708SOL    HW217691   3.457   4.028   6.412
 5709SOL     OW17692   2.092   4.352   7.561
 5709SOL    HW117693   1.999   4.350   7.598
 5709SOL    HW217694   2.093   4.313   7.469
 5710SOL     OW17695   2.087   3.999   8.444
 5710SOL    HW117696   2.122   3.982   8.536
 5710SOL    HW217697   1.999   3.954   8.432
 5711SOL     OW17698   1.881   4.092   8.095
 5711SOL    HW117699   1.799   4.135   8.134
 5711SOL    HW217700   1.853   4.019   8.032
 5712SOL     OW17701   3.617   4.331   7.679
 5712SOL    HW117702   3.605   4.318   7.580
 5712SOL    HW217703   3.587   4.250   7.728
 5713SOL     OW17704   2.547   4.736   8.113
 5713SOL    HW117705   2.616   4.720   8.183
 5713SOL    HW217706   2.474   4.793   8.151
 5714SOL     OW17707   2.300   4.116   8.947
 5714SOL    HW117708   2.382   4.060   8.956
 5714SOL    HW217709   2.219   4.058   8.951
 5715SOL     OW17710   3.465   4.171   8.185
 5715SOL    HW117711   3.391   4.217   8.135
 5715SOL    HW217712   3.516   4.239   8.238
 5716SOL     OW17713   3.456   3.838   8.928
 5716SOL    HW117714   3.438   3.905   8.856
 5716SOL    HW217715   3.453   3.884   9.017
 5717SOL     OW17716   1.984   4.367   8.011
 5717SOL    HW117717   1.939   4.279   8.028
 5717SOL    HW217718   1.983   4.421   8.095
 5718SOL     OW17719   1.975   4.461   9.045
 5718SOL    HW117720   2.063   4.448   9.090
 5718SOL    HW217721   1.962   4.558   9.023
 5719SOL     OW17722   2.671   3.728   7.950
 5719SOL    HW117723   2.711   3.819   7.941
 5719SOL    HW217724   2.571   3.736   7.956
 5720SOL     OW17725   2.179   3.975   9.249
 5720SOL    HW117726   2.250   4.046   9.255
 5720SOL    HW217727   2.091   4.014   9.277
 5721SOL     OW17728   3.143   4.069   8.392
 5721SOL    HW117729   3.057   4.019   8.379
 5721SOL    HW217730   3.205   4.015   8.448
 5722SOL     OW17731   2.669   4.329   8.913
 5722SOL    HW117732   2.622   4.326   9.002
 5722SOL    HW217733   2.618   4.274   8.847
 5723SOL     OW17734   3.256   4.193   9.122
 5723SOL    HW117735   3.236   4.236   9.210
 5723SOL    HW217736   3.334   4.131   9.131
 5724SOL     OW17737   2.853   4.134   8.690
 5724SOL    HW117738   2.776   4.168   8.744
 5724SOL    HW217739   2.819   4.083   8.611
 5725SOL     OW17740   2.903   4.425   7.877
 5725SOL    HW117741   2.929   4.421   7.973
 5725SOL    HW217742   2.818   4.374   7.863
 5726SOL     OW17743   2.727   4.072   7.643
 5726SOL    HW117744   2.786   4.135   7.594
 5726SOL    HW217745   2.746   3.978   7.614
 5727SOL     OW17746   3.581   4.309   9.279
 5727SOL    HW117747   3.555   4.398   9.243
 5727SOL    HW217748   3.579   4.241   9.206
 5728SOL     OW17749   2.412   3.920   8.333
 5728SOL    HW117750   2.407   3.915   8.433
 5728SOL    HW217751   2.414   4.016   8.304
 5729SOL     OW17752   3.320   4.459   8.176
 5729SOL    HW117753   3.315   4.394   8.251
 5729SOL    HW217754   3.400   4.518   8.189
 5730SOL     OW17755   2.064   4.009   8.946
 5730SOL    HW117756   1.984   4.069   8.933
 5730SOL    HW217757   2.054   3.960   9.032
 5731SOL     OW17758   3.262   3.831   7.874
 5731SOL    HW117759   3.238   3.794   7.784
 5731SOL    HW217760   3.361   3.847   7.878
 5732SOL     OW17761   2.244   4.424   7.928
 5732SOL    HW117762   2.289   4.334   7.925
 5732SOL    HW217763   2.150   4.413   7.961
 5733SOL     OW17764   3.409   3.946   9.177
 5733SOL    HW117765   3.404   3.983   9.269
 5733SOL    HW217766   3.337   3.877   9.165
 5734SOL     OW17767   2.476   3.846   7.565
 5734SOL    HW117768   2.574   3.824   7.572
 5734SOL    HW217769   2.445   3.829   7.472
 5735SOL     OW17770   2.643   3.988   9.197
 5735SOL    HW117771   2.710   3.927   9.240
 5735SOL    HW217772   2.570   4.007   9.262
 5736SOL     OW17773   3.213   4.314   8.881
 5736SOL    HW117774   3.241   4.271   8.966
 5736SOL    HW217775   3.238   4.410   8.882
 5737SOL     OW17776   2.784   4.227   8.347
 5737SOL    HW117777   2.759   4.218   8.251
 5737SOL    HW217778   2.832   4.145   8.378
 5738SOL     OW17779   2.401   3.788   7.960
 5738SOL    HW117780   2.320   3.789   8.018
 5738SOL    HW217781   2.404   3.871   7.905
 5739SOL     OW17782   2.159   3.759   7.619
 5739SOL    HW117783   2.208   3.843   7.598
 5739SOL    HW217784   2.221   3.694   7.664
 5740SOL     OW17785   2.797   3.960   7.928
 5740SOL    HW117786   2.749   4.001   7.850
 5740SOL    HW217787   2.896   3.958   7.909
 5741SOL     OW17788   2.938   4.407   8.912
 5741SOL    HW117789   2.858   4.346   8.915
 5741SOL    HW217790   3.019   4.354   8.888
 5742SOL     OW17791   2.894   4.273   7.464
 5742SOL    HW117792   2.853   4.355   7.425
 5742SOL    HW217793   2.958   4.299   7.537
 5743SOL     OW17794   1.940   4.280   8.834
 5743SOL    HW117795   2.032   4.279   8.793
 5743SOL    HW217796   1.934   4.354   8.901
 5744SOL     OW17797   2.423   3.946   8.595
 5744SOL    HW117798   2.461   3.862   8.632
 5744SOL    HW217799   2.335   3.965   8.639
 5745SOL     OW17800   2.728   4.178   8.090
 5745SOL    HW117801   2.696   4.250   8.028
 5745SOL    HW217802   2.752   4.097   8.037
 5746SOL     OW17803   2.879   3.763   8.201
 5746SOL    HW117804   2.807   3.768   8.132
 5746SOL    HW217805   2.855   3.694   8.270
 5747SOL     OW17806   3.328   4.314   8.440
 5747SOL    HW117807   3.298   4.219   8.447
 5747SOL    HW217808   3.401   4.330   8.506
 5748SOL     OW17809   3.252   4.299   7.526
 5748SOL    HW117810   3.198   4.278   7.607
 5748SOL    HW217811   3.343   4.258   7.535
 5749SOL     OW17812   2.389   3.980   7.776
 5749SOL    HW117813   2.416   3.921   7.701
 5749SOL    HW217814   2.389   4.075   7.745
 5750SOL     OW17815   2.777   3.813   8.850
 5750SOL    HW117816   2.802   3.793   8.755
 5750SOL    HW217817   2.849   3.869   8.892
 5751SOL     OW17818   2.272   4.537   8.699
 5751SOL    HW117819   2.358   4.549   8.749
 5751SOL    HW217820   2.230   4.450   8.726
 5752SOL     OW17821   3.136   4.110   8.710
 5752SOL    HW117822   3.157   4.184   8.774
 5752SOL    HW217823   3.047   4.127   8.667
 5753SOL     OW17824   2.428   4.261   8.313
 5753SOL    HW117825   2.440   4.327   8.239
 5753SOL    HW217826   2.474   4.295   8.396
 5754SOL     OW17827   3.444   4.363   7.920
 5754SOL    HW117828   3.413   4.424   7.993
 5754SOL    HW217829   3.494   4.415   7.851
 5755SOL     OW17830   2.875   3.829   9.218
 5755SOL    HW117831   2.881   3.914   9.166
 5755SOL    HW217832   2.907   3.753   9.161
 5756SOL     OW17833   2.366   3.774   9.188
 5756SOL    HW117834   2.324   3.717   9.118
 5756SOL    HW217835   2.300   3.843   9.220
 5757SOL     OW17836   3.071   4.249   7.723
 5757SOL    HW117837   3.084   4.165   7.777
 5757SOL    HW217838   3.042   4.323   7.783
 5758SOL     OW17839   2.169   3.937   8.679
 5758SOL    HW117840   2.146   3.974   8.769
 5758SOL    HW217841   2.139   3.842   8.673
 5759SOL     OW17842   2.594   4.358   8.512
 5759SOL    HW117843   2.653   4.332   8.436
 5759SOL    HW217844   2.566   4.454   8.501
 5760SOL     OW17845   3.590   4.659   9.302
 5760SOL    HW117846   3.544   4.652   9.213
 5760SOL    HW217847   3.528   4.703   9.368
 5761SOL     OW17848   2.169   3.787   8.066
 5761SOL    HW117849   2.158   3.881   8.099
 5761SOL    HW217850   2.164   3.724   8.143
 5762SOL     OW17851   3.484   4.091   7.822
 5762SOL    HW117852   3.486   4.015   7.886
 5762SOL    HW217853   3.436   4.168   7.862
 5763SOL     OW17854   3.402   3.998   7.573
 5763SOL    HW117855   3.341   3.923   7.596
 5763SOL    HW217856   3.424   4.050   7.656
 5764SOL     OW17857   2.181   4.534   8.397
 5764SOL    HW117858   2.274   4.570   8.402
 5764SOL    HW217859   2.175   4.449   8.449
 5765SOL     OW17860   2.201   4.233   8.454
 5765SOL    HW117861   2.149   4.150   8.437
 5765SOL    HW217862   2.278   4.238   8.390
 5766SOL     OW17863   3.000   4.104   9.126
 5766SOL    HW117864   2.955   4.167   9.190
 5766SOL    HW217865   3.093   4.135   9.109
 5767SOL     OW17866   3.022   3.931   8.925
 5767SOL    HW117867   3.022   3.995   9.002
 5767SOL    HW217868   3.050   3.979   8.842
 5768SOL     OW17869   1.902   4.268   8.562
 5768SOL    HW117870   1.987   4.235   8.521
 5768SOL    HW217871   1.915   4.283   8.660
 5769SOL     OW17872   2.051   4.244   9.170
 5769SOL    HW117873   2.110   4.204   9.100
 5769SOL    HW217874   1.993   4.315   9.129
 5770SOL     OW17875   2.677   4.296   7.773
 5770SOL    HW117876   2.684   4.207   7.727
 5770SOL    HW217877   2.583   4.330   7.765
 5771SOL     OW17878   3.519   4.328   8.654
 5771SOL    HW117879   3.481   4.259   8.716
 5771SOL    HW217880   3.601   4.292   8.610
 5772SOL     OW17881   2.533   4.188   8.717
 5772SOL    HW117882   2.499   4.099   8.687
 5772SOL    HW217883   2.559   4.242   8.637
 5773SOL     OW17884   2.335   4.224   7.639
 5773SOL    HW117885   2.396   4.304   7.643
 5773SOL    HW217886   2.240   4.255   7.646
 5774SOL     OW17887   3.588   3.859   7.971
 5774SOL    HW117888   3.661   3.842   7.904
 5774SOL    HW217889   3.557   3.772   8.009
 5775SOL     OW17890   3.142   4.651   8.120
 5775SOL    HW117891   3.202   4.570   8.122
 5775SOL    HW217892   3.182   4.720   8.060
 5776SOL     OW17893   3.703   3.899   8.411
 5776SOL    HW117894   3.742   3.814   8.375
 5776SOL    HW217895   3.605   3.901   8.392
 5777SOL     OW17896   2.125   4.050   8.168
 5777SOL    HW117897   2.046   4.101   8.134
 5777SOL    HW217898   2.116   4.035   8.266
 5778SOL     OW17899   2.778   4.634   7.739
 5778SOL    HW117900   2.841   4.672   7.671
 5778SOL    HW217901   2.818   4.551   7.778
 5779SOL     OW17902   2.901   4.822   8.144
 5779SOL    HW117903   2.831   4.775   8.198
 5779SOL    HW217904   2.960   4.754   8.101
 5780SOL     OW17905   2.876   3.960   8.419
 5780SOL    HW117906   2.868   3.924   8.326
 5780SOL    HW217907   2.874   3.884   8.484
 5781SOL     OW17908   3.571   4.109   8.829
 5781SOL    HW117909   3.644   4.178   8.833
 5781SOL    HW217910   3.599   4.034   8.770
 5782SOL     OW17911   2.534   3.927   8.937
 5782SOL    HW117912   2.624   3.911   8.897
 5782SOL    HW217913   2.542   3.932   9.036
 5783SOL     OW17914   1.937   4.069   7.481
 5783SOL    HW117915   1.845   4.041   7.452
 5783SOL    HW217916   1.968   4.146   7.425
 5784SOL     OW17917   1.934   3.890   7.766
 5784SOL    HW117918   1.917   3.973   7.712
 5784SOL    HW217919   2.024   3.853   7.744
 5785SOL     OW17920   2.578   4.289   9.156
 5785SOL    HW117921   2.597   4.354   9.230
 5785SOL    HW217922   2.638   4.209   9.165
 5786SOL     OW17923   3.087   4.049   7.897
 5786SOL    HW117924   3.152   3.975   7.886
 5786SOL    HW217925   3.107   4.099   7.981
 5787SOL     OW17926   3.639   4.066   9.090
 5787SOL    HW117927   3.622   4.097   8.996
 5787SOL    HW217928   3.555   4.029   9.128
 5788SOL     OW17929   2.945   4.708   7.535
 5788SOL    HW117930   2.922   4.761   7.453
 5788SOL    HW217931   3.026   4.652   7.516
 5789SOL     OW17932   3.686   3.916   8.675
 5789SOL    HW117933   3.682   3.826   8.719
 5789SOL    HW217934   3.689   3.905   8.576
 5790SOL     OW17935   2.290   4.148   7.968
 5790SOL    HW117936   2.320   4.076   7.906
 5790SOL    HW217937   2.251   4.108   8.051
 5791SOL     OW17938   2.179   4.271   8.728
 5791SOL    HW117939   2.217   4.212   8.800
 5791SOL    HW217940   2.219   4.245   8.640
 5792SOL     OW17941   3.286   3.938   8.560
 5792SOL    HW117942   3.338   3.873   8.615
 5792SOL    HW217943   3.237   4.001   8.621
 5793SOL     OW17944   2.863   3.758   8.602
 5793SOL    HW117945   2.800   3.686   8.571
 5793SOL    HW217946   2.956   3.722   8.602
 5794SOL     OW17947   3.214   3.776   7.616
 5794SOL    HW117948   3.249   3.735   7.532
 5794SOL    HW217949   3.124   3.738   7.636
 5795SOL     OW17950   3.162   4.177   8.139
 5795SOL    HW117951   3.103   4.257   8.143
 5795SOL    HW217952   3.177   4.142   8.232
 5796SOL     OW17953   3.455   3.945   8.330
 5796SOL    HW117954   3.371   3.944   8.384
 5796SOL    HW217955   3.457   4.028   8.274
 5797SOL     OW17956   2.092   4.352   9.423
 5797SOL    HW117957   1.999   4.350   9.460
 5797SOL    HW217958   2.093   4.313   9.331
 5798SOL     OW17959   2.087   3.999  10.306
 5798SOL    HW117960   2.122   3.982  10.398
 5798SOL    HW217961   1.999   3.954  10.294
 5799SOL     OW17962   1.881   4.092   9.957
 5799SOL    HW117963   1.799   4.135   9.996
 5799SOL    HW217964   1.853   4.019   9.894
 5800SOL     OW17965   3.617   4.331   9.541
 5800SOL    HW117966   3.605   4.318   9.442
 5800SOL    HW217967   3.587   4.250   9.590
 5801SOL     OW17968   2.547   4.736   9.975
 5801SOL    HW117969   2.616   4.720  10.045
 5801SOL    HW217970   2.474   4.793  10.013
 5802SOL     OW17971   2.300   4.116  10.809
 5802SOL    HW117972   2.382   4.060  10.818
 5802SOL    HW217973   2.219   4.058  10.813
 5803SOL     OW17974   3.465   4.171  10.047
 5803SOL    HW117975   3.391   4.217   9.997
 5803SOL    HW217976   3.516   4.239  10.100
 5804SOL     OW17977   3.456   3.838  10.790
 5804SOL    HW117978   3.438   3.905  10.718
 5804SOL    HW217979   3.453   3.884  10.879
 5805SOL     OW17980   1.984   4.367   9.873
 5805SOL    HW117981   1.939   4.279   9.890
 5805SOL    HW217982   1.983   4.421   9.957
 5806SOL     OW17983   1.975   4.461  10.907
 5806SOL    HW117984   2.063   4.448  10.952
 5806SOL    HW217985   1.962   4.558  10.885
 5807SOL     OW17986   2.671   3.728   9.812
 5807SOL    HW117987   2.711   3.819   9.803
 5807SOL    HW217988   2.571   3.736   9.818
 5808SOL     OW17989   2.179   3.975  11.111
 5808SOL    HW117990   2.250   4.046  11.117
 5808SOL    HW217991   2.091   4.014  11.139
 5809SOL     OW17992   3.143   4.069  10.254
 5809SOL    HW117993   3.057   4.019  10.241
 5809SOL    HW217994   3.205   4.015  10.310
 5810SOL     OW17995   2.669   4.329  10.775
 5810SOL    HW117996   2.622   4.326  10.864
 5810SOL    HW217997   2.618   4.274  10.709
 5811SOL     OW17998   2.853   4.134  10.552
 5811SOL    HW117999   2.776   4.168  10.606
 5811SOL    HW218000   2.819   4.083  10.473
 5812SOL     OW18001   2.903   4.425   9.739
 5812SOL    HW118002   2.929   4.421   9.835
 5812SOL    HW218003   2.818   4.374   9.725
 5813SOL     OW18004   2.727   4.072   9.505
 5813SOL    HW118005   2.786   4.135   9.456
 5813SOL    HW218006   2.746   3.978   9.476
 5814SOL     OW18007   2.412   3.920  10.195
 5814SOL    HW118008   2.407   3.915  10.295
 5814SOL    HW218009   2.414   4.016  10.166
 5815SOL     OW18010   3.320   4.459  10.038
 5815SOL    HW118011   3.315   4.394  10.113
 5815SOL    HW218012   3.400   4.518  10.051
 5816SOL     OW18013   2.064   4.009  10.808
 5816SOL    HW118014   1.984   4.069  10.795
 5816SOL    HW218015   2.054   3.960  10.894
 5817SOL     OW18016   3.262   3.831   9.736
 5817SOL    HW118017   3.238   3.794   9.646
 5817SOL    HW218018   3.361   3.847   9.740
 5818SOL     OW18019   2.244   4.424   9.790
 5818SOL    HW118020   2.289   4.334   9.787
 5818SOL    HW218021   2.150   4.413   9.823
 5819SOL     OW18022   2.476   3.846   9.427
 5819SOL    HW118023   2.574   3.824   9.434
 5819SOL    HW218024   2.445   3.829   9.334
 5820SOL     OW18025   2.643   3.988  11.059
 5820SOL    HW118026   2.710   3.927  11.102
 5820SOL    HW218027   2.570   4.007  11.124
 5821SOL     OW18028   3.213   4.314  10.743
 5821SOL    HW118029   3.241   4.271  10.828
 5821SOL    HW218030   3.238   4.410  10.744
 5822SOL     OW18031   2.784   4.227  10.209
 5822SOL    HW118032   2.759   4.218  10.113
 5822SOL    HW218033   2.832   4.145  10.240
 5823SOL     OW18034   2.401   3.788   9.822
 5823SOL    HW118035   2.320   3.789   9.880
 5823SOL    HW218036   2.404   3.871   9.767
 5824SOL     OW18037   2.159   3.759   9.481
 5824SOL    HW118038   2.208   3.843   9.460
 5824SOL    HW218039   2.221   3.694   9.526
 5825SOL     OW18040   2.797   3.960   9.790
 5825SOL    HW118041   2.749   4.001   9.712
 5825SOL    HW218042   2.896   3.958   9.771
 5826SOL     OW18043   2.938   4.407  10.774
 5826SOL    HW118044   2.858   4.346  10.777
 5826SOL    HW218045   3.019   4.354  10.750
 5827SOL     OW18046   2.894   4.273   9.326
 5827SOL    HW118047   2.853   4.355   9.287
 5827SOL    HW218048   2.958   4.299   9.399
 5828SOL     OW18049   1.940   4.280  10.696
 5828SOL    HW118050   2.032   4.279  10.655
 5828SOL    HW218051   1.934   4.354  10.763
 5829SOL     OW18052   2.423   3.946  10.457
 5829SOL    HW118053   2.461   3.862  10.494
 5829SOL    HW218054   2.335   3.965  10.501
 5830SOL     OW18055   2.728   4.178   9.952
 5830SOL    HW118056   2.696   4.250   9.890
 5830SOL    HW218057   2.752   4.097   9.899
 5831SOL     OW18058   2.879   3.763  10.063
 5831SOL    HW118059   2.807   3.768   9.994
 5831SOL    HW218060   2.855   3.694  10.132
 5832SOL     OW18061   3.328   4.314  10.302
 5832SOL    HW118062   3.298   4.219  10.309
 5832SOL    HW218063   3.401   4.330  10.368
 5833SOL     OW18064   3.252   4.299   9.388
 5833SOL    HW118065   3.198   4.278   9.469
 5833SOL    HW218066   3.343   4.258   9.397
 5834SOL     OW18067   2.389   3.980   9.638
 5834SOL    HW118068   2.416   3.921   9.563
 5834SOL    HW218069   2.389   4.075   9.607
 5835SOL     OW18070   2.777   3.813  10.712
 5835SOL    HW118071   2.802   3.793  10.617
 5835SOL    HW218072   2.849   3.869  10.754
 5836SOL     OW18073   2.272   4.537  10.561
 5836SOL    HW118074   2.358   4.549  10.611
 5836SOL    HW218075   2.230   4.450  10.588
 5837SOL     OW18076   3.136   4.110  10.572
 5837SOL    HW118077   3.157   4.184  10.636
 5837SOL    HW218078   3.047   4.127  10.529
 5838SOL     OW18079   2.428   4.261  10.175
 5838SOL    HW118080   2.440   4.327  10.101
 5838SOL    HW218081   2.474   4.295  10.258
 5839SOL     OW18082   3.444   4.363   9.782
 5839SOL    HW118083   3.413   4.424   9.855
 5839SOL    HW218084   3.494   4.415   9.713
 5840SOL     OW18085   2.264   4.475  10.908
 5840SOL    HW118086   2.332   4.530  10.861
 5840SOL    HW218087   2.304   4.387  10.935
 5841SOL     OW18088   3.071   4.249   9.585
 5841SOL    HW118089   3.084   4.165   9.639
 5841SOL    HW218090   3.042   4.323   9.645
 5842SOL     OW18091   2.169   3.937  10.541
 5842SOL    HW118092   2.146   3.974  10.631
 5842SOL    HW218093   2.139   3.842  10.535
 5843SOL     OW18094   2.594   4.358  10.374
 5843SOL    HW118095   2.653   4.332  10.298
 5843SOL    HW218096   2.566   4.454  10.363
 5844SOL     OW18097   2.169   3.787   9.928
 5844SOL    HW118098   2.158   3.881   9.961
 5844SOL    HW218099   2.164   3.724  10.005
 5845SOL     OW18100   3.484   4.091   9.684
 5845SOL    HW118101   3.486   4.015   9.748
 5845SOL    HW218102   3.436   4.168   9.724
 5846SOL     OW18103   3.402   3.998   9.435
 5846SOL    HW118104   3.341   3.923   9.458
 5846SOL    HW218105   3.424   4.050   9.518
 5847SOL     OW18106   2.181   4.534  10.259
 5847SOL    HW118107   2.274   4.570  10.264
 5847SOL    HW218108   2.175   4.449  10.311
 5848SOL     OW18109   2.201   4.233  10.316
 5848SOL    HW118110   2.149   4.150  10.299
 5848SOL    HW218111   2.278   4.238  10.252
 5849SOL     OW18112   3.022   3.931  10.787
 5849SOL    HW118113   3.022   3.995  10.864
 5849SOL    HW218114   3.050   3.979  10.704
 5850SOL     OW18115   1.902   4.268  10.424
 5850SOL    HW118116   1.987   4.235  10.383
 5850SOL    HW218117   1.915   4.283  10.522
 5851SOL     OW18118   3.231   4.674  10.970
 5851SOL    HW118119   3.270   4.763  10.990
 5851SOL    HW218120   3.241   4.654  10.873
 5852SOL     OW18121   2.677   4.296   9.635
 5852SOL    HW118122   2.684   4.207   9.589
 5852SOL    HW218123   2.583   4.330   9.627
 5853SOL     OW18124   3.519   4.328  10.516
 5853SOL    HW118125   3.481   4.259  10.578
 5853SOL    HW218126   3.601   4.292  10.472
 5854SOL     OW18127   2.533   4.188  10.579
 5854SOL    HW118128   2.499   4.099  10.549
 5854SOL    HW218129   2.559   4.242  10.499
 5855SOL     OW18130   2.335   4.224   9.501
 5855SOL    HW118131   2.396   4.304   9.505
 5855SOL    HW218132   2.240   4.255   9.508
 5856SOL     OW18133   3.588   3.859   9.833
 5856SOL    HW118134   3.661   3.842   9.766
 5856SOL    HW218135   3.557   3.772   9.871
 5857SOL     OW18136   3.142   4.651   9.982
 5857SOL    HW118137   3.202   4.570   9.984
 5857SOL    HW218138   3.182   4.720   9.922
 5858SOL     OW18139   3.703   3.899  10.273
 5858SOL    HW118140   3.742   3.814  10.237
 5858SOL    HW218141   3.605   3.901  10.254
 5859SOL     OW18142   2.125   4.050  10.030
 5859SOL    HW118143   2.046   4.101   9.996
 5859SOL    HW218144   2.116   4.035  10.128
 5860SOL     OW18145   2.778   4.634   9.601
 5860SOL    HW118146   2.841   4.672   9.533
 5860SOL    HW218147   2.818   4.551   9.640
 5861SOL     OW18148   2.901   4.822  10.006
 5861SOL    HW118149   2.831   4.775  10.060
 5861SOL    HW218150   2.960   4.754   9.963
 5862SOL     OW18151   2.876   3.960  10.281
 5862SOL    HW118152   2.868   3.924  10.188
 5862SOL    HW218153   2.874   3.884  10.346
 5863SOL     OW18154   3.571   4.109  10.691
 5863SOL    HW118155   3.644   4.178  10.695
 5863SOL    HW218156   3.599   4.034  10.632
 5864SOL     OW18157   2.534   3.927  10.799
 5864SOL    HW118158   2.624   3.911  10.759
 5864SOL    HW218159   2.542   3.932  10.898
 5865SOL     OW18160   1.937   4.069   9.343
 5865SOL    HW118161   1.845   4.041   9.314
 5865SOL    HW218162   1.968   4.146   9.287
 5866SOL     OW18163   1.934   3.890   9.628
 5866SOL    HW118164   1.917   3.973   9.574
 5866SOL    HW218165   2.024   3.853   9.606
 5867SOL     OW18166   2.578   4.289  11.018
 5867SOL    HW118167   2.597   4.354  11.092
 5867SOL    HW218168   2.638   4.209  11.027
 5868SOL     OW18169   3.087   4.049   9.759
 5868SOL    HW118170   3.152   3.975   9.748
 5868SOL    HW218171   3.107   4.099   9.843
 5869SOL     OW18172   3.639   4.066  10.952
 5869SOL    HW118173   3.622   4.097  10.858
 5869SOL    HW218174   3.555   4.029  10.990
 5870SOL     OW18175   2.945   4.708   9.397
 5870SOL    HW118176   2.922   4.761   9.315
 5870SOL    HW218177   3.026   4.652   9.378
 5871SOL     OW18178   3.686   3.916  10.537
 5871SOL    HW118179   3.682   3.826  10.581
 5871SOL    HW218180   3.689   3.905  10.438
 5872SOL     OW18181   2.290   4.148   9.830
 5872SOL    HW118182   2.320   4.076   9.768
 5872SOL    HW218183   2.251   4.108   9.913
 5873SOL     OW18184   2.179   4.271  10.590
 5873SOL    HW118185   2.217   4.212  10.662
 5873SOL    HW218186   2.219   4.245  10.502
 5874SOL     OW18187   3.286   3.938  10.422
 5874SOL    HW118188   3.338   3.873  10.477
 5874SOL    HW218189   3.237   4.001  10.483
 5875SOL     OW18190   2.863   3.758  10.464
 5875SOL    HW118191   2.800   3.686  10.433
 5875SOL    HW218192   2.956   3.722  10.464
 5876SOL     OW18193   3.214   3.776   9.478
 5876SOL    HW118194   3.249   3.735   9.394
 5876SOL    HW218195   3.124   3.738   9.498
 5877SOL     OW18196   3.162   4.177  10.001
 5877SOL    HW118197   3.103   4.257  10.005
 5877SOL    HW218198   3.177   4.142  10.094
 5878SOL     OW18199   3.455   3.945  10.192
 5878SOL    HW118200   3.371   3.944  10.246
 5878SOL    HW218201   3.457   4.028  10.136
 5879SOL     OW18202   3.954   0.628   0.113
 5879SOL    HW118203   3.861   0.626   0.150
 5879SOL    HW218204   3.955   0.589   0.021
 5880SOL     OW18205   3.949   0.275   0.996
 5880SOL    HW118206   3.984   0.258   1.088
 5880SOL    HW218207   3.861   0.230   0.984
 5881SOL     OW18208   3.743   0.368   0.647
 5881SOL    HW118209   3.661   0.411   0.686
 5881SOL    HW218210   3.715   0.295   0.584
 5882SOL     OW18211   4.293   1.275   1.165
 5882SOL    HW118212   4.200   1.268   1.128
 5882SOL    HW218213   4.304   1.364   1.209
 5883SOL     OW18214   4.574   0.798   1.823
 5883SOL    HW118215   4.570   0.874   1.888
 5883SOL    HW218216   4.596   0.834   1.732
 5884SOL     OW18217   4.409   1.012   0.665
 5884SOL    HW118218   4.478   0.996   0.735
 5884SOL    HW218219   4.336   1.069   0.703
 5885SOL     OW18220   4.410   1.161   1.803
 5885SOL    HW118221   4.470   1.240   1.817
 5885SOL    HW218222   4.324   1.192   1.762
 5886SOL     OW18223   4.059   1.435   1.061
 5886SOL    HW118224   3.981   1.404   1.008
 5886SOL    HW218225   4.117   1.493   1.004
 5887SOL     OW18226   4.162   0.392   1.499
 5887SOL    HW118227   4.244   0.336   1.508
 5887SOL    HW218228   4.081   0.334   1.503
 5888SOL     OW18229   3.955   1.713   0.483
 5888SOL    HW118230   3.989   1.790   0.537
 5888SOL    HW218231   3.999   1.713   0.393
 5889SOL     OW18232   3.954   1.434   0.538
 5889SOL    HW118233   3.928   1.530   0.538
 5889SOL    HW218234   3.883   1.380   0.583
 5890SOL     OW18235   3.964   1.091   0.886
 5890SOL    HW118236   3.978   1.007   0.938
 5890SOL    HW218237   3.909   1.155   0.941
 5891SOL     OW18238   4.344   1.786   1.439
 5891SOL    HW118239   4.252   1.769   1.474
 5891SOL    HW218240   4.372   1.878   1.465
 5892SOL     OW18241   4.330   0.964   0.123
 5892SOL    HW118242   4.337   1.048   0.069
 5892SOL    HW218243   4.376   0.977   0.211
 5893SOL     OW18244   3.846   0.643   0.563
 5893SOL    HW118245   3.801   0.555   0.580
 5893SOL    HW218246   3.845   0.697   0.647
 5894SOL     OW18247   3.751   1.596   0.117
 5894SOL    HW118248   3.732   1.500   0.138
 5894SOL    HW218249   3.718   1.654   0.192
 5895SOL     OW18250   3.837   0.737   1.597
 5895SOL    HW118251   3.925   0.724   1.642
 5895SOL    HW218252   3.824   0.834   1.575
 5896SOL     OW18253   4.337   1.365   0.726
 5896SOL    HW118254   4.288   1.278   0.735
 5896SOL    HW218255   4.314   1.408   0.639
 5897SOL     OW18256   4.533   0.004   0.502
 5897SOL    HW118257   4.573   0.095   0.493
 5897SOL    HW218258   4.433   0.012   0.508
 5898SOL     OW18259   3.921   0.976   1.264
 5898SOL    HW118260   4.010   0.931   1.250
 5898SOL    HW218261   3.848   0.911   1.245
 5899SOL     OW18262   4.041   0.251   1.801
 5899SOL    HW118263   4.112   0.322   1.807
 5899SOL    HW218264   3.953   0.290   1.829
 5900SOL     OW18265   4.322   0.729   0.270
 5900SOL    HW118266   4.346   0.798   0.202
 5900SOL    HW218267   4.244   0.762   0.324
 5901SOL     OW18268   3.800   0.811   0.789
 5901SOL    HW118269   3.899   0.799   0.798
 5901SOL    HW218270   3.776   0.906   0.810
 5902SOL     OW18271   3.854   1.821   1.571
 5902SOL    HW118272   3.844   1.806   1.670
 5902SOL    HW218273   3.768   1.857   1.535
 5903SOL     OW18274   4.274   0.196   0.885
 5903SOL    HW118275   4.269   0.191   0.985
 5903SOL    HW218276   4.276   0.292   0.856
 5904SOL     OW18277   4.075   1.801   0.853
 5904SOL    HW118278   4.125   1.715   0.859
 5904SOL    HW218279   4.140   1.878   0.850
 5905SOL     OW18280   4.045   0.943   0.242
 5905SOL    HW118281   4.127   0.982   0.200
 5905SOL    HW218282   4.018   0.861   0.193
 5906SOL     OW18283   4.185   1.266   1.727
 5906SOL    HW118284   4.135   1.267   1.641
 5906SOL    HW218285   4.122   1.248   1.803
 5907SOL     OW18286   3.926   0.285   1.498
 5907SOL    HW118287   3.846   0.345   1.485
 5907SOL    HW218288   3.916   0.236   1.584
 5908SOL     OW18289   4.188   1.743   0.323
 5908SOL    HW118290   4.221   1.782   0.409
 5908SOL    HW218291   4.264   1.736   0.258
 5909SOL     OW18292   3.973   1.785   1.241
 5909SOL    HW118293   4.030   1.720   1.291
 5909SOL    HW218294   3.957   1.752   1.148
 5910SOL     OW18295   4.106   0.700   0.480
 5910SOL    HW118296   4.151   0.610   0.477
 5910SOL    HW218297   4.012   0.689   0.513
 5911SOL     OW18298   4.338   0.122   0.117
 5911SOL    HW118299   4.436   0.100   0.124
 5911SOL    HW218300   4.307   0.105   0.024
 5912SOL     OW18301   4.527   1.402   0.924
 5912SOL    HW118302   4.617   1.416   0.882
 5912SOL    HW218303   4.456   1.404   0.853
 5913SOL     OW18304   4.263   0.064   0.512
 5913SOL    HW118305   4.182   0.065   0.570
 5913SOL    HW218306   4.266   0.147   0.457
 5914SOL     OW18307   4.021   0.035   0.171
 5914SOL    HW118308   4.070   0.119   0.150
 5914SOL    HW218309   4.083  -0.030   0.216
 5915SOL     OW18310   4.800   0.683   1.464
 5915SOL    HW118311   4.720   0.622   1.467
 5915SOL    HW218312   4.881   0.630   1.440
 5916SOL     OW18313   4.183   1.152   0.741
 5916SOL    HW118314   4.112   1.125   0.806
 5916SOL    HW218315   4.157   1.124   0.648
 5917SOL     OW18316   3.802   0.556   1.386
 5917SOL    HW118317   3.894   0.555   1.345
 5917SOL    HW218318   3.796   0.630   1.453
 5918SOL     OW18319   4.285   0.222   1.147
 5918SOL    HW118320   4.323   0.138   1.184
 5918SOL    HW218321   4.197   0.241   1.191
 5919SOL     OW18322   4.212   1.385   0.174
 5919SOL    HW118323   4.125   1.370   0.221
 5919SOL    HW218324   4.195   1.411   0.079
 5920SOL     OW18325   4.251   0.256   0.328
 5920SOL    HW118326   4.278   0.197   0.253
 5920SOL    HW218327   4.251   0.351   0.297
 5921SOL     OW18328   4.134   0.813   1.251
 5921SOL    HW118329   4.220   0.825   1.301
 5921SOL    HW218330   4.092   0.726   1.278
 5922SOL     OW18331   3.788   1.564   1.331
 5922SOL    HW118332   3.742   1.646   1.297
 5922SOL    HW218333   3.886   1.583   1.340
 5923SOL     OW18334   4.091   1.100   0.501
 5923SOL    HW118335   4.084   1.183   0.445
 5923SOL    HW218336   4.095   1.020   0.441
 5924SOL     OW18337   4.290   0.537   0.865
 5924SOL    HW118338   4.302   0.603   0.791
 5924SOL    HW218339   4.336   0.571   0.948
 5925SOL     OW18340   4.078   1.510   1.329
 5925SOL    HW118341   4.057   1.466   1.242
 5925SOL    HW218342   4.175   1.536   1.332
 5926SOL     OW18343   4.126   0.751   1.598
 5926SOL    HW118344   4.194   0.806   1.551
 5926SOL    HW218345   4.166   0.663   1.625
 5927SOL     OW18346   4.228   0.050   1.740
 5927SOL    HW118347   4.186  -0.007   1.670
 5927SOL    HW218348   4.162   0.119   1.772
 5928SOL     OW18349   4.297   0.870   1.029
 5928SOL    HW118350   4.341   0.959   1.020
 5928SOL    HW218351   4.234   0.870   1.106
 5929SOL     OW18352   4.031   0.213   1.231
 5929SOL    HW118353   4.008   0.250   1.321
 5929SOL    HW218354   4.001   0.118   1.225
 5930SOL     OW18355   3.761   1.310   1.282
 5930SOL    HW118356   3.814   1.261   1.350
 5930SOL    HW218357   3.783   1.408   1.287
 5931SOL     OW18358   4.031   0.063   0.618
 5931SOL    HW118359   4.020   0.157   0.651
 5931SOL    HW218360   4.026   0.000   0.695
 5932SOL     OW18361   4.074   0.898   1.804
 5932SOL    HW118362   4.150   0.942   1.852
 5932SOL    HW218363   4.109   0.851   1.722
 5933SOL     OW18364   4.043   0.810   0.949
 5933SOL    HW118365   4.136   0.846   0.954
 5933SOL    HW218366   4.037   0.725   1.001
 5934SOL     OW18367   4.063   0.509   1.006
 5934SOL    HW118368   4.011   0.426   0.989
 5934SOL    HW218369   4.140   0.514   0.942
 5935SOL     OW18370   3.732   1.326   0.200
 5935SOL    HW118371   3.639   1.347   0.169
 5935SOL    HW218372   3.742   1.227   0.213
 5936SOL     OW18373   3.812   1.801   0.927
 5936SOL    HW118374   3.770   1.715   0.900
 5936SOL    HW218375   3.906   1.804   0.893
 5937SOL     OW18376   4.228   1.568   0.910
 5937SOL    HW118377   4.294   1.642   0.919
 5937SOL    HW218378   4.272   1.489   0.868
 5938SOL     OW18379   3.764   0.544   1.114
 5938SOL    HW118380   3.849   0.511   1.073
 5938SOL    HW218381   3.777   0.559   1.212
 5939SOL     OW18382   3.913   0.520   1.722
 5939SOL    HW118383   3.972   0.480   1.652
 5939SOL    HW218384   3.855   0.591   1.681
 5940SOL     OW18385   4.539   0.572   0.325
 5940SOL    HW118386   4.546   0.483   0.279
 5940SOL    HW218387   4.445   0.606   0.317
 5941SOL     OW18388   3.976   1.564   1.744
 5941SOL    HW118389   3.946   1.621   1.820
 5941SOL    HW218390   3.969   1.467   1.770
 5942SOL     OW18391   4.197   0.500   0.191
 5942SOL    HW118392   4.258   0.580   0.195
 5942SOL    HW218393   4.102   0.531   0.198
 5943SOL     OW18394   3.883   1.137   1.466
 5943SOL    HW118395   3.905   1.076   1.542
 5943SOL    HW218396   3.893   1.088   1.380
 5944SOL     OW18397   3.807   1.258   1.022
 5944SOL    HW118398   3.802   1.257   1.122
 5944SOL    HW218399   3.724   1.217   0.984
 5945SOL     OW18400   4.412   1.662   1.716
 5945SOL    HW118401   4.356   1.743   1.725
 5945SOL    HW218402   4.464   1.666   1.630
 5946SOL     OW18403   3.854   1.794   1.851
 5946SOL    HW118404   3.813   1.720   1.904
 5946SOL    HW218405   3.918   1.845   1.909
 5947SOL     OW18406   3.987   0.326   0.720
 5947SOL    HW118407   3.908   0.377   0.686
 5947SOL    HW218408   3.978   0.311   0.818
 5948SOL     OW18409   4.096   1.288   1.490
 5948SOL    HW118410   4.083   1.381   1.456
 5948SOL    HW218411   4.012   1.236   1.477
 5949SOL     OW18412   4.314   1.487   0.491
 5949SOL    HW118413   4.356   1.429   0.421
 5949SOL    HW218414   4.270   1.566   0.447
 5950SOL     OW18415   3.979   1.348   0.290
 5950SOL    HW118416   3.883   1.349   0.263
 5950SOL    HW218417   3.991   1.401   0.374
 5951SOL     OW18418   3.829   1.013   1.726
 5951SOL    HW118419   3.752   0.980   1.780
 5951SOL    HW218420   3.914   0.983   1.768
 5952SOL     OW18421   4.396   0.203   1.489
 5952SOL    HW118422   4.486   0.187   1.449
 5952SOL    HW218423   4.404   0.208   1.588
 5953SOL     OW18424   3.799   0.345   0.033
 5953SOL    HW118425   3.707   0.317   0.004
 5953SOL    HW218426   3.830   0.422  -0.023
 5954SOL     OW18427   3.796   0.166   0.318
 5954SOL    HW118428   3.779   0.249   0.264
 5954SOL    HW218429   3.886   0.129   0.296
 5955SOL     OW18430   4.337   0.842   1.431
 5955SOL    HW118431   4.393   0.923   1.414
 5955SOL    HW218432   4.396   0.762   1.434
 5956SOL     OW18433   4.440   0.565   1.708
 5956SOL    HW118434   4.459   0.630   1.782
 5956SOL    HW218435   4.500   0.485   1.717
 5957SOL     OW18436   4.114   1.741   1.560
 5957SOL    HW118437   4.023   1.782   1.558
 5957SOL    HW218438   4.107   1.647   1.592
 5958SOL     OW18439   4.318   0.745   0.652
 5958SOL    HW118440   4.368   0.830   0.633
 5958SOL    HW218441   4.230   0.747   0.604
 5959SOL     OW18442   3.945   1.314   1.844
 5959SOL    HW118443   3.880   1.241   1.823
 5959SOL    HW218444   3.949   1.328   1.942
 5960SOL     OW18445   3.803   1.240   0.653
 5960SOL    HW118446   3.802   1.193   0.741
 5960SOL    HW218447   3.885   1.212   0.602
 5961SOL     OW18448   4.396   1.391   1.624
 5961SOL    HW118449   4.318   1.341   1.662
 5961SOL    HW218450   4.393   1.486   1.655
 5962SOL     OW18451   4.152   0.424   0.520
 5962SOL    HW118452   4.182   0.352   0.458
 5962SOL    HW218453   4.113   0.384   0.603
 5963SOL     OW18454   4.041   0.547   1.280
 5963SOL    HW118455   4.079   0.488   1.352
 5963SOL    HW218456   4.081   0.521   1.192
 5964SOL     OW18457   4.536   1.586   0.687
 5964SOL    HW118458   4.568   1.596   0.593
 5964SOL    HW218459   4.457   1.524   0.689
 5965SOL     OW18460   3.763   1.077   0.300
 5965SOL    HW118461   3.862   1.066   0.291
 5965SOL    HW218462   3.723   0.991   0.332
 5966SOL     OW18463   3.954   0.628   1.975
 5966SOL    HW118464   3.861   0.626   2.012
 5966SOL    HW218465   3.955   0.589   1.883
 5967SOL     OW18466   3.949   0.275   2.858
 5967SOL    HW118467   3.984   0.258   2.950
 5967SOL    HW218468   3.861   0.230   2.846
 5968SOL     OW18469   3.743   0.368   2.509
 5968SOL    HW118470   3.661   0.411   2.548
 5968SOL    HW218471   3.715   0.295   2.446
 5969SOL     OW18472   4.293   1.275   3.027
 5969SOL    HW118473   4.200   1.268   2.990
 5969SOL    HW218474   4.304   1.364   3.071
 5970SOL     OW18475   4.574   0.798   3.685
 5970SOL    HW118476   4.570   0.874   3.750
 5970SOL    HW218477   4.596   0.834   3.594
 5971SOL     OW18478   4.409   1.012   2.527
 5971SOL    HW118479   4.478   0.996   2.597
 5971SOL    HW218480   4.336   1.069   2.565
 5972SOL     OW18481   4.410   1.161   3.665
 5972SOL    HW118482   4.470   1.240   3.679
 5972SOL    HW218483   4.324   1.192   3.624
 5973SOL     OW18484   4.059   1.435   2.923
 5973SOL    HW118485   3.981   1.404   2.870
 5973SOL    HW218486   4.117   1.493   2.866
 5974SOL     OW18487   4.162   0.392   3.361
 5974SOL    HW118488   4.244   0.336   3.370
 5974SOL    HW218489   4.081   0.334   3.365
 5975SOL     OW18490   3.955   1.713   2.345
 5975SOL    HW118491   3.989   1.790   2.399
 5975SOL    HW218492   3.999   1.713   2.255
 5976SOL     OW18493   3.954   1.434   2.400
 5976SOL    HW118494   3.928   1.530   2.400
 5976SOL    HW218495   3.883   1.380   2.445
 5977SOL     OW18496   3.964   1.091   2.748
 5977SOL    HW118497   3.978   1.007   2.800
 5977SOL    HW218498   3.909   1.155   2.803
 5978SOL     OW18499   4.344   1.786   3.301
 5978SOL    HW118500   4.252   1.769   3.336
 5978SOL    HW218501   4.372   1.878   3.327
 5979SOL     OW18502   4.330   0.964   1.985
 5979SOL    HW118503   4.337   1.048   1.931
 5979SOL    HW218504   4.376   0.977   2.073
 5980SOL     OW18505   3.846   0.643   2.425
 5980SOL    HW118506   3.801   0.555   2.442
 5980SOL    HW218507   3.845   0.697   2.509
 5981SOL     OW18508   3.751   1.596   1.979
 5981SOL    HW118509   3.732   1.500   2.000
 5981SOL    HW218510   3.718   1.654   2.054
 5982SOL     OW18511   3.837   0.737   3.459
 5982SOL    HW118512   3.925   0.724   3.504
 5982SOL    HW218513   3.824   0.834   3.437
 5983SOL     OW18514   4.337   1.365   2.588
 5983SOL    HW118515   4.288   1.278   2.597
 5983SOL    HW218516   4.314   1.408   2.501
 5984SOL     OW18517   4.533   0.004   2.364
 5984SOL    HW118518   4.573   0.095   2.355
 5984SOL    HW218519   4.433   0.012   2.370
 5985SOL     OW18520   3.921   0.976   3.126
 5985SOL    HW118521   4.010   0.931   3.112
 5985SOL    HW218522   3.848   0.911   3.107
 5986SOL     OW18523   4.041   0.251   3.663
 5986SOL    HW118524   4.112   0.322   3.669
 5986SOL    HW218525   3.953   0.290   3.691
 5987SOL     OW18526   4.322   0.729   2.132
 5987SOL    HW118527   4.346   0.798   2.064
 5987SOL    HW218528   4.244   0.762   2.186
 5988SOL     OW18529   3.800   0.811   2.651
 5988SOL    HW118530   3.899   0.799   2.660
 5988SOL    HW218531   3.776   0.906   2.672
 5989SOL     OW18532   3.854   1.821   3.433
 5989SOL    HW118533   3.844   1.806   3.532
 5989SOL    HW218534   3.768   1.857   3.397
 5990SOL     OW18535   4.274   0.196   2.747
 5990SOL    HW118536   4.269   0.191   2.847
 5990SOL    HW218537   4.276   0.292   2.718
 5991SOL     OW18538   4.075   1.801   2.715
 5991SOL    HW118539   4.125   1.715   2.721
 5991SOL    HW218540   4.140   1.878   2.712
 5992SOL     OW18541   4.045   0.943   2.104
 5992SOL    HW118542   4.127   0.982   2.062
 5992SOL    HW218543   4.018   0.861   2.055
 5993SOL     OW18544   4.185   1.266   3.589
 5993SOL    HW118545   4.135   1.267   3.503
 5993SOL    HW218546   4.122   1.248   3.665
 5994SOL     OW18547   3.926   0.285   3.360
 5994SOL    HW118548   3.846   0.345   3.347
 5994SOL    HW218549   3.916   0.236   3.446
 5995SOL     OW18550   4.188   1.743   2.185
 5995SOL    HW118551   4.221   1.782   2.271
 5995SOL    HW218552   4.264   1.736   2.120
 5996SOL     OW18553   3.973   1.785   3.103
 5996SOL    HW118554   4.030   1.720   3.153
 5996SOL    HW218555   3.957   1.752   3.010
 5997SOL     OW18556   4.106   0.700   2.342
 5997SOL    HW118557   4.151   0.610   2.339
 5997SOL    HW218558   4.012   0.689   2.375
 5998SOL     OW18559   4.338   0.122   1.979
 5998SOL    HW118560   4.436   0.100   1.986
 5998SOL    HW218561   4.307   0.105   1.886
 5999SOL     OW18562   4.527   1.402   2.786
 5999SOL    HW118563   4.617   1.416   2.744
 5999SOL    HW218564   4.456   1.404   2.715
 6000SOL     OW18565   4.263   0.064   2.374
 6000SOL    HW118566   4.182   0.065   2.432
 6000SOL    HW218567   4.266   0.147   2.319
 6001SOL     OW18568   4.021   0.035   2.033
 6001SOL    HW118569   4.070   0.119   2.012
 6001SOL    HW218570   4.083  -0.030   2.078
 6002SOL     OW18571   4.800   0.683   3.326
 6002SOL    HW118572   4.720   0.622   3.329
 6002SOL    HW218573   4.881   0.630   3.302
 6003SOL     OW18574   4.183   1.152   2.603
 6003SOL    HW118575   4.112   1.125   2.668
 6003SOL    HW218576   4.157   1.124   2.510
 6004SOL     OW18577   3.802   0.556   3.248
 6004SOL    HW118578   3.894   0.555   3.207
 6004SOL    HW218579   3.796   0.630   3.315
 6005SOL     OW18580   4.285   0.222   3.009
 6005SOL    HW118581   4.323   0.138   3.046
 6005SOL    HW218582   4.197   0.241   3.053
 6006SOL     OW18583   4.212   1.385   2.036
 6006SOL    HW118584   4.125   1.370   2.083
 6006SOL    HW218585   4.195   1.411   1.941
 6007SOL     OW18586   4.251   0.256   2.190
 6007SOL    HW118587   4.278   0.197   2.115
 6007SOL    HW218588   4.251   0.351   2.159
 6008SOL     OW18589   4.134   0.813   3.113
 6008SOL    HW118590   4.220   0.825   3.163
 6008SOL    HW218591   4.092   0.726   3.140
 6009SOL     OW18592   3.788   1.564   3.193
 6009SOL    HW118593   3.742   1.646   3.159
 6009SOL    HW218594   3.886   1.583   3.202
 6010SOL     OW18595   4.091   1.100   2.363
 6010SOL    HW118596   4.084   1.183   2.307
 6010SOL    HW218597   4.095   1.020   2.303
 6011SOL     OW18598   4.290   0.537   2.727
 6011SOL    HW118599   4.302   0.603   2.653
 6011SOL    HW218600   4.336   0.571   2.810
 6012SOL     OW18601   4.078   1.510   3.191
 6012SOL    HW118602   4.057   1.466   3.104
 6012SOL    HW218603   4.175   1.536   3.194
 6013SOL     OW18604   4.126   0.751   3.460
 6013SOL    HW118605   4.194   0.806   3.413
 6013SOL    HW218606   4.166   0.663   3.487
 6014SOL     OW18607   4.228   0.050   3.602
 6014SOL    HW118608   4.186  -0.007   3.532
 6014SOL    HW218609   4.162   0.119   3.634
 6015SOL     OW18610   4.297   0.870   2.891
 6015SOL    HW118611   4.341   0.959   2.882
 6015SOL    HW218612   4.234   0.870   2.968
 6016SOL     OW18613   4.031   0.213   3.093
 6016SOL    HW118614   4.008   0.250   3.183
 6016SOL    HW218615   4.001   0.118   3.087
 6017SOL     OW18616   3.761   1.310   3.144
 6017SOL    HW118617   3.814   1.261   3.212
 6017SOL    HW218618   3.783   1.408   3.149
 6018SOL     OW18619   4.031   0.063   2.480
 6018SOL    HW118620   4.020   0.157   2.513
 6018SOL    HW218621   4.026   0.000   2.557
 6019SOL     OW18622   4.074   0.898   3.666
 6019SOL    HW118623   4.150   0.942   3.714
 6019SOL    HW218624   4.109   0.851   3.584
 6020SOL     OW18625   4.043   0.810   2.811
 6020SOL    HW118626   4.136   0.846   2.816
 6020SOL    HW218627   4.037   0.725   2.863
 6021SOL     OW18628   4.063   0.509   2.868
 6021SOL    HW118629   4.011   0.426   2.851
 6021SOL    HW218630   4.140   0.514   2.804
 6022SOL     OW18631   3.732   1.326   2.062
 6022SOL    HW118632   3.639   1.347   2.031
 6022SOL    HW218633   3.742   1.227   2.075
 6023SOL     OW18634   3.812   1.801   2.789
 6023SOL    HW118635   3.770   1.715   2.762
 6023SOL    HW218636   3.906   1.804   2.755
 6024SOL     OW18637   4.228   1.568   2.772
 6024SOL    HW118638   4.294   1.642   2.781
 6024SOL    HW218639   4.272   1.489   2.730
 6025SOL     OW18640   3.764   0.544   2.976
 6025SOL    HW118641   3.849   0.511   2.935
 6025SOL    HW218642   3.777   0.559   3.074
 6026SOL     OW18643   3.913   0.520   3.584
 6026SOL    HW118644   3.972   0.480   3.514
 6026SOL    HW218645   3.855   0.591   3.543
 6027SOL     OW18646   4.539   0.572   2.187
 6027SOL    HW118647   4.546   0.483   2.141
 6027SOL    HW218648   4.445   0.606   2.179
 6028SOL     OW18649   3.976   1.564   3.606
 6028SOL    HW118650   3.946   1.621   3.682
 6028SOL    HW218651   3.969   1.467   3.632
 6029SOL     OW18652   4.197   0.500   2.053
 6029SOL    HW118653   4.258   0.580   2.057
 6029SOL    HW218654   4.102   0.531   2.060
 6030SOL     OW18655   3.883   1.137   3.328
 6030SOL    HW118656   3.905   1.076   3.404
 6030SOL    HW218657   3.893   1.088   3.242
 6031SOL     OW18658   3.807   1.258   2.884
 6031SOL    HW118659   3.802   1.257   2.984
 6031SOL    HW218660   3.724   1.217   2.846
 6032SOL     OW18661   4.412   1.662   3.578
 6032SOL    HW118662   4.356   1.743   3.587
 6032SOL    HW218663   4.464   1.666   3.492
 6033SOL     OW18664   3.854   1.794   3.713
 6033SOL    HW118665   3.813   1.720   3.766
 6033SOL    HW218666   3.918   1.845   3.771
 6034SOL     OW18667   3.987   0.326   2.582
 6034SOL    HW118668   3.908   0.377   2.548
 6034SOL    HW218669   3.978   0.311   2.680
 6035SOL     OW18670   4.096   1.288   3.352
 6035SOL    HW118671   4.083   1.381   3.318
 6035SOL    HW218672   4.012   1.236   3.339
 6036SOL     OW18673   4.314   1.487   2.353
 6036SOL    HW118674   4.356   1.429   2.283
 6036SOL    HW218675   4.270   1.566   2.309
 6037SOL     OW18676   3.979   1.348   2.152
 6037SOL    HW118677   3.883   1.349   2.125
 6037SOL    HW218678   3.991   1.401   2.236
 6038SOL     OW18679   3.829   1.013   3.588
 6038SOL    HW118680   3.752   0.980   3.642
 6038SOL    HW218681   3.914   0.983   3.630
 6039SOL     OW18682   4.396   0.203   3.351
 6039SOL    HW118683   4.486   0.187   3.311
 6039SOL    HW218684   4.404   0.208   3.450
 6040SOL     OW18685   3.799   0.345   1.895
 6040SOL    HW118686   3.707   0.317   1.866
 6040SOL    HW218687   3.830   0.422   1.839
 6041SOL     OW18688   3.796   0.166   2.180
 6041SOL    HW118689   3.779   0.249   2.126
 6041SOL    HW218690   3.886   0.129   2.158
 6042SOL     OW18691   4.337   0.842   3.293
 6042SOL    HW118692   4.393   0.923   3.276
 6042SOL    HW218693   4.396   0.762   3.296
 6043SOL     OW18694   4.440   0.565   3.570
 6043SOL    HW118695   4.459   0.630   3.644
 6043SOL    HW218696   4.500   0.485   3.579
 6044SOL     OW18697   4.114   1.741   3.422
 6044SOL    HW118698   4.023   1.782   3.420
 6044SOL    HW218699   4.107   1.647   3.454
 6045SOL     OW18700   4.318   0.745   2.514
 6045SOL    HW118701   4.368   0.830   2.495
 6045SOL    HW218702   4.230   0.747   2.466
 6046SOL     OW18703   3.945   1.314   3.706
 6046SOL    HW118704   3.880   1.241   3.685
 6046SOL    HW218705   3.949   1.328   3.804
 6047SOL     OW18706   3.803   1.240   2.515
 6047SOL    HW118707   3.802   1.193   2.603
 6047SOL    HW218708   3.885   1.212   2.464
 6048SOL     OW18709   4.396   1.391   3.486
 6048SOL    HW118710   4.318   1.341   3.524
 6048SOL    HW218711   4.393   1.486   3.517
 6049SOL     OW18712   4.152   0.424   2.382
 6049SOL    HW118713   4.182   0.352   2.320
 6049SOL    HW218714   4.113   0.384   2.465
 6050SOL     OW18715   4.041   0.547   3.142
 6050SOL    HW118716   4.079   0.488   3.214
 6050SOL    HW218717   4.081   0.521   3.054
 6051SOL     OW18718   4.536   1.586   2.549
 6051SOL    HW118719   4.568   1.596   2.455
 6051SOL    HW218720   4.457   1.524   2.551
 6052SOL     OW18721   3.763   1.077   2.162
 6052SOL    HW118722   3.862   1.066   2.153
 6052SOL    HW218723   3.723   0.991   2.194
 6053SOL     OW18724   3.954   0.628   3.837
 6053SOL    HW118725   3.861   0.626   3.874
 6053SOL    HW218726   3.955   0.589   3.745
 6054SOL     OW18727   3.949   0.275   4.720
 6054SOL    HW118728   3.984   0.258   4.812
 6054SOL    HW218729   3.861   0.230   4.708
 6055SOL     OW18730   3.743   0.368   4.371
 6055SOL    HW118731   3.661   0.411   4.410
 6055SOL    HW218732   3.715   0.295   4.308
 6056SOL     OW18733   4.293   1.275   4.889
 6056SOL    HW118734   4.200   1.268   4.852
 6056SOL    HW218735   4.304   1.364   4.933
 6057SOL     OW18736   4.574   0.798   5.547
 6057SOL    HW118737   4.570   0.874   5.612
 6057SOL    HW218738   4.596   0.834   5.456
 6058SOL     OW18739   4.409   1.012   4.389
 6058SOL    HW118740   4.478   0.996   4.459
 6058SOL    HW218741   4.336   1.069   4.427
 6059SOL     OW18742   4.410   1.161   5.527
 6059SOL    HW118743   4.470   1.240   5.541
 6059SOL    HW218744   4.324   1.192   5.486
 6060SOL     OW18745   4.059   1.435   4.785
 6060SOL    HW118746   3.981   1.404   4.732
 6060SOL    HW218747   4.117   1.493   4.728
 6061SOL     OW18748   4.162   0.392   5.223
 6061SOL    HW118749   4.244   0.336   5.232
 6061SOL    HW218750   4.081   0.334   5.227
 6062SOL     OW18751   3.955   1.713   4.207
 6062SOL    HW118752   3.989   1.790   4.261
 6062SOL    HW218753   3.999   1.713   4.117
 6063SOL     OW18754   3.954   1.434   4.262
 6063SOL    HW118755   3.928   1.530   4.262
 6063SOL    HW218756   3.883   1.380   4.307
 6064SOL     OW18757   3.964   1.091   4.610
 6064SOL    HW118758   3.978   1.007   4.662
 6064SOL    HW218759   3.909   1.155   4.665
 6065SOL     OW18760   4.344   1.786   5.163
 6065SOL    HW118761   4.252   1.769   5.198
 6065SOL    HW218762   4.372   1.878   5.189
 6066SOL     OW18763   4.330   0.964   3.847
 6066SOL    HW118764   4.337   1.048   3.793
 6066SOL    HW218765   4.376   0.977   3.935
 6067SOL     OW18766   3.846   0.643   4.287
 6067SOL    HW118767   3.801   0.555   4.304
 6067SOL    HW218768   3.845   0.697   4.371
 6068SOL     OW18769   3.751   1.596   3.841
 6068SOL    HW118770   3.732   1.500   3.862
 6068SOL    HW218771   3.718   1.654   3.916
 6069SOL     OW18772   3.837   0.737   5.321
 6069SOL    HW118773   3.925   0.724   5.366
 6069SOL    HW218774   3.824   0.834   5.299
 6070SOL     OW18775   4.337   1.365   4.450
 6070SOL    HW118776   4.288   1.278   4.459
 6070SOL    HW218777   4.314   1.408   4.363
 6071SOL     OW18778   4.533   0.004   4.226
 6071SOL    HW118779   4.573   0.095   4.217
 6071SOL    HW218780   4.433   0.012   4.232
 6072SOL     OW18781   3.921   0.976   4.988
 6072SOL    HW118782   4.010   0.931   4.974
 6072SOL    HW218783   3.848   0.911   4.969
 6073SOL     OW18784   4.041   0.251   5.525
 6073SOL    HW118785   4.112   0.322   5.531
 6073SOL    HW218786   3.953   0.290   5.553
 6074SOL     OW18787   4.322   0.729   3.994
 6074SOL    HW118788   4.346   0.798   3.926
 6074SOL    HW218789   4.244   0.762   4.048
 6075SOL     OW18790   3.800   0.811   4.513
 6075SOL    HW118791   3.899   0.799   4.522
 6075SOL    HW218792   3.776   0.906   4.534
 6076SOL     OW18793   3.854   1.821   5.295
 6076SOL    HW118794   3.844   1.806   5.394
 6076SOL    HW218795   3.768   1.857   5.259
 6077SOL     OW18796   4.274   0.196   4.609
 6077SOL    HW118797   4.269   0.191   4.709
 6077SOL    HW218798   4.276   0.292   4.580
 6078SOL     OW18799   4.075   1.801   4.577
 6078SOL    HW118800   4.125   1.715   4.583
 6078SOL    HW218801   4.140   1.878   4.574
 6079SOL     OW18802   4.045   0.943   3.966
 6079SOL    HW118803   4.127   0.982   3.924
 6079SOL    HW218804   4.018   0.861   3.917
 6080SOL     OW18805   4.185   1.266   5.451
 6080SOL    HW118806   4.135   1.267   5.365
 6080SOL    HW218807   4.122   1.248   5.527
 6081SOL     OW18808   3.926   0.285   5.222
 6081SOL    HW118809   3.846   0.345   5.209
 6081SOL    HW218810   3.916   0.236   5.308
 6082SOL     OW18811   4.188   1.743   4.047
 6082SOL    HW118812   4.221   1.782   4.133
 6082SOL    HW218813   4.264   1.736   3.982
 6083SOL     OW18814   3.973   1.785   4.965
 6083SOL    HW118815   4.030   1.720   5.015
 6083SOL    HW218816   3.957   1.752   4.872
 6084SOL     OW18817   4.106   0.700   4.204
 6084SOL    HW118818   4.151   0.610   4.201
 6084SOL    HW218819   4.012   0.689   4.237
 6085SOL     OW18820   4.338   0.122   3.841
 6085SOL    HW118821   4.436   0.100   3.848
 6085SOL    HW218822   4.307   0.105   3.748
 6086SOL     OW18823   4.527   1.402   4.648
 6086SOL    HW118824   4.617   1.416   4.606
 6086SOL    HW218825   4.456   1.404   4.577
 6087SOL     OW18826   4.263   0.064   4.236
 6087SOL    HW118827   4.182   0.065   4.294
 6087SOL    HW218828   4.266   0.147   4.181
 6088SOL     OW18829   4.021   0.035   3.895
 6088SOL    HW118830   4.070   0.119   3.874
 6088SOL    HW218831   4.083  -0.030   3.940
 6089SOL     OW18832   4.800   0.683   5.188
 6089SOL    HW118833   4.720   0.622   5.191
 6089SOL    HW218834   4.881   0.630   5.164
 6090SOL     OW18835   4.183   1.152   4.465
 6090SOL    HW118836   4.112   1.125   4.530
 6090SOL    HW218837   4.157   1.124   4.372
 6091SOL     OW18838   3.802   0.556   5.110
 6091SOL    HW118839   3.894   0.555   5.069
 6091SOL    HW218840   3.796   0.630   5.177
 6092SOL     OW18841   4.285   0.222   4.871
 6092SOL    HW118842   4.323   0.138   4.908
 6092SOL    HW218843   4.197   0.241   4.915
 6093SOL     OW18844   4.212   1.385   3.898
 6093SOL    HW118845   4.125   1.370   3.945
 6093SOL    HW218846   4.195   1.411   3.803
 6094SOL     OW18847   4.251   0.256   4.052
 6094SOL    HW118848   4.278   0.197   3.977
 6094SOL    HW218849   4.251   0.351   4.021
 6095SOL     OW18850   4.134   0.813   4.975
 6095SOL    HW118851   4.220   0.825   5.025
 6095SOL    HW218852   4.092   0.726   5.002
 6096SOL     OW18853   3.788   1.564   5.055
 6096SOL    HW118854   3.742   1.646   5.021
 6096SOL    HW218855   3.886   1.583   5.064
 6097SOL     OW18856   4.091   1.100   4.225
 6097SOL    HW118857   4.084   1.183   4.169
 6097SOL    HW218858   4.095   1.020   4.165
 6098SOL     OW18859   4.290   0.537   4.589
 6098SOL    HW118860   4.302   0.603   4.515
 6098SOL    HW218861   4.336   0.571   4.672
 6099SOL     OW18862   4.078   1.510   5.053
 6099SOL    HW118863   4.057   1.466   4.966
 6099SOL    HW218864   4.175   1.536   5.056
 6100SOL     OW18865   4.126   0.751   5.322
 6100SOL    HW118866   4.194   0.806   5.275
 6100SOL    HW218867   4.166   0.663   5.349
 6101SOL     OW18868   4.228   0.050   5.464
 6101SOL    HW118869   4.186  -0.007   5.394
 6101SOL    HW218870   4.162   0.119   5.496
 6102SOL     OW18871   4.297   0.870   4.753
 6102SOL    HW118872   4.341   0.959   4.744
 6102SOL    HW218873   4.234   0.870   4.830
 6103SOL     OW18874   4.031   0.213   4.955
 6103SOL    HW118875   4.008   0.250   5.045
 6103SOL    HW218876   4.001   0.118   4.949
 6104SOL     OW18877   3.761   1.310   5.006
 6104SOL    HW118878   3.814   1.261   5.074
 6104SOL    HW218879   3.783   1.408   5.011
 6105SOL     OW18880   4.031   0.063   4.342
 6105SOL    HW118881   4.020   0.157   4.375
 6105SOL    HW218882   4.026   0.000   4.419
 6106SOL     OW18883   4.074   0.898   5.528
 6106SOL    HW118884   4.150   0.942   5.576
 6106SOL    HW218885   4.109   0.851   5.446
 6107SOL     OW18886   4.043   0.810   4.673
 6107SOL    HW118887   4.136   0.846   4.678
 6107SOL    HW218888   4.037   0.725   4.725
 6108SOL     OW18889   4.063   0.509   4.730
 6108SOL    HW118890   4.011   0.426   4.713
 6108SOL    HW218891   4.140   0.514   4.666
 6109SOL     OW18892   3.732   1.326   3.924
 6109SOL    HW118893   3.639   1.347   3.893
 6109SOL    HW218894   3.742   1.227   3.937
 6110SOL     OW18895   3.812   1.801   4.651
 6110SOL    HW118896   3.770   1.715   4.624
 6110SOL    HW218897   3.906   1.804   4.617
 6111SOL     OW18898   4.228   1.568   4.634
 6111SOL    HW118899   4.294   1.642   4.643
 6111SOL    HW218900   4.272   1.489   4.592
 6112SOL     OW18901   3.764   0.544   4.838
 6112SOL    HW118902   3.849   0.511   4.797
 6112SOL    HW218903   3.777   0.559   4.936
 6113SOL     OW18904   3.913   0.520   5.446
 6113SOL    HW118905   3.972   0.480   5.376
 6113SOL    HW218906   3.855   0.591   5.405
 6114SOL     OW18907   4.539   0.572   4.049
 6114SOL    HW118908   4.546   0.483   4.003
 6114SOL    HW218909   4.445   0.606   4.041
 6115SOL     OW18910   3.976   1.564   5.468
 6115SOL    HW118911   3.946   1.621   5.544
 6115SOL    HW218912   3.969   1.467   5.494
 6116SOL     OW18913   4.197   0.500   3.915
 6116SOL    HW118914   4.258   0.580   3.919
 6116SOL    HW218915   4.102   0.531   3.922
 6117SOL     OW18916   3.883   1.137   5.190
 6117SOL    HW118917   3.905   1.076   5.266
 6117SOL    HW218918   3.893   1.088   5.104
 6118SOL     OW18919   3.807   1.258   4.746
 6118SOL    HW118920   3.802   1.257   4.846
 6118SOL    HW218921   3.724   1.217   4.708
 6119SOL     OW18922   4.412   1.662   5.440
 6119SOL    HW118923   4.356   1.743   5.449
 6119SOL    HW218924   4.464   1.666   5.354
 6120SOL     OW18925   3.854   1.794   5.575
 6120SOL    HW118926   3.813   1.720   5.628
 6120SOL    HW218927   3.918   1.845   5.633
 6121SOL     OW18928   3.987   0.326   4.444
 6121SOL    HW118929   3.908   0.377   4.410
 6121SOL    HW218930   3.978   0.311   4.542
 6122SOL     OW18931   4.096   1.288   5.214
 6122SOL    HW118932   4.083   1.381   5.180
 6122SOL    HW218933   4.012   1.236   5.201
 6123SOL     OW18934   4.314   1.487   4.215
 6123SOL    HW118935   4.356   1.429   4.145
 6123SOL    HW218936   4.270   1.566   4.171
 6124SOL     OW18937   3.979   1.348   4.014
 6124SOL    HW118938   3.883   1.349   3.987
 6124SOL    HW218939   3.991   1.401   4.098
 6125SOL     OW18940   3.829   1.013   5.450
 6125SOL    HW118941   3.752   0.980   5.504
 6125SOL    HW218942   3.914   0.983   5.492
 6126SOL     OW18943   4.396   0.203   5.213
 6126SOL    HW118944   4.486   0.187   5.173
 6126SOL    HW218945   4.404   0.208   5.312
 6127SOL     OW18946   3.799   0.345   3.757
 6127SOL    HW118947   3.707   0.317   3.728
 6127SOL    HW218948   3.830   0.422   3.701
 6128SOL     OW18949   3.796   0.166   4.042
 6128SOL    HW118950   3.779   0.249   3.988
 6128SOL    HW218951   3.886   0.129   4.020
 6129SOL     OW18952   4.337   0.842   5.155
 6129SOL    HW118953   4.393   0.923   5.138
 6129SOL    HW218954   4.396   0.762   5.158
 6130SOL     OW18955   4.440   0.565   5.432
 6130SOL    HW118956   4.459   0.630   5.506
 6130SOL    HW218957   4.500   0.485   5.441
 6131SOL     OW18958   4.114   1.741   5.284
 6131SOL    HW118959   4.023   1.782   5.282
 6131SOL    HW218960   4.107   1.647   5.316
 6132SOL     OW18961   4.318   0.745   4.376
 6132SOL    HW118962   4.368   0.830   4.357
 6132SOL    HW218963   4.230   0.747   4.328
 6133SOL     OW18964   3.945   1.314   5.568
 6133SOL    HW118965   3.880   1.241   5.547
 6133SOL    HW218966   3.949   1.328   5.666
 6134SOL     OW18967   3.803   1.240   4.377
 6134SOL    HW118968   3.802   1.193   4.465
 6134SOL    HW218969   3.885   1.212   4.326
 6135SOL     OW18970   4.396   1.391   5.348
 6135SOL    HW118971   4.318   1.341   5.386
 6135SOL    HW218972   4.393   1.486   5.379
 6136SOL     OW18973   4.152   0.424   4.244
 6136SOL    HW118974   4.182   0.352   4.182
 6136SOL    HW218975   4.113   0.384   4.327
 6137SOL     OW18976   4.041   0.547   5.004
 6137SOL    HW118977   4.079   0.488   5.076
 6137SOL    HW218978   4.081   0.521   4.916
 6138SOL     OW18979   4.536   1.586   4.411
 6138SOL    HW118980   4.568   1.596   4.317
 6138SOL    HW218981   4.457   1.524   4.413
 6139SOL     OW18982   3.763   1.077   4.024
 6139SOL    HW118983   3.862   1.066   4.015
 6139SOL    HW218984   3.723   0.991   4.056
 6140SOL     OW18985   3.954   0.628   5.699
 6140SOL    HW118986   3.861   0.626   5.736
 6140SOL    HW218987   3.955   0.589   5.607
 6141SOL     OW18988   3.949   0.275   6.582
 6141SOL    HW118989   3.984   0.258   6.674
 6141SOL    HW218990   3.861   0.230   6.570
 6142SOL     OW18991   3.743   0.368   6.233
 6142SOL    HW118992   3.661   0.411   6.272
 6142SOL    HW218993   3.715   0.295   6.170
 6143SOL     OW18994   4.293   1.275   6.751
 6143SOL    HW118995   4.200   1.268   6.714
 6143SOL    HW218996   4.304   1.364   6.795
 6144SOL     OW18997   4.574   0.798   7.409
 6144SOL    HW118998   4.570   0.874   7.474
 6144SOL    HW218999   4.596   0.834   7.318
 6145SOL     OW19000   4.409   1.012   6.251
 6145SOL    HW119001   4.478   0.996   6.321
 6145SOL    HW219002   4.336   1.069   6.289
 6146SOL     OW19003   4.410   1.161   7.389
 6146SOL    HW119004   4.470   1.240   7.403
 6146SOL    HW219005   4.324   1.192   7.348
 6147SOL     OW19006   4.059   1.435   6.647
 6147SOL    HW119007   3.981   1.404   6.594
 6147SOL    HW219008   4.117   1.493   6.590
 6148SOL     OW19009   4.162   0.392   7.085
 6148SOL    HW119010   4.244   0.336   7.094
 6148SOL    HW219011   4.081   0.334   7.089
 6149SOL     OW19012   3.955   1.713   6.069
 6149SOL    HW119013   3.989   1.790   6.123
 6149SOL    HW219014   3.999   1.713   5.979
 6150SOL     OW19015   3.954   1.434   6.124
 6150SOL    HW119016   3.928   1.530   6.124
 6150SOL    HW219017   3.883   1.380   6.169
 6151SOL     OW19018   3.964   1.091   6.472
 6151SOL    HW119019   3.978   1.007   6.524
 6151SOL    HW219020   3.909   1.155   6.527
 6152SOL     OW19021   4.344   1.786   7.025
 6152SOL    HW119022   4.252   1.769   7.060
 6152SOL    HW219023   4.372   1.878   7.051
 6153SOL     OW19024   4.330   0.964   5.709
 6153SOL    HW119025   4.337   1.048   5.655
 6153SOL    HW219026   4.376   0.977   5.797
 6154SOL     OW19027   3.846   0.643   6.149
 6154SOL    HW119028   3.801   0.555   6.166
 6154SOL    HW219029   3.845   0.697   6.233
 6155SOL     OW19030   3.751   1.596   5.703
 6155SOL    HW119031   3.732   1.500   5.724
 6155SOL    HW219032   3.718   1.654   5.778
 6156SOL     OW19033   3.837   0.737   7.183
 6156SOL    HW119034   3.925   0.724   7.228
 6156SOL    HW219035   3.824   0.834   7.161
 6157SOL     OW19036   4.337   1.365   6.312
 6157SOL    HW119037   4.288   1.278   6.321
 6157SOL    HW219038   4.314   1.408   6.225
 6158SOL     OW19039   4.533   0.004   6.088
 6158SOL    HW119040   4.573   0.095   6.079
 6158SOL    HW219041   4.433   0.012   6.094
 6159SOL     OW19042   3.921   0.976   6.850
 6159SOL    HW119043   4.010   0.931   6.836
 6159SOL    HW219044   3.848   0.911   6.831
 6160SOL     OW19045   4.041   0.251   7.387
 6160SOL    HW119046   4.112   0.322   7.393
 6160SOL    HW219047   3.953   0.290   7.415
 6161SOL     OW19048   4.322   0.729   5.856
 6161SOL    HW119049   4.346   0.798   5.788
 6161SOL    HW219050   4.244   0.762   5.910
 6162SOL     OW19051   3.800   0.811   6.375
 6162SOL    HW119052   3.899   0.799   6.384
 6162SOL    HW219053   3.776   0.906   6.396
 6163SOL     OW19054   3.854   1.821   7.157
 6163SOL    HW119055   3.844   1.806   7.256
 6163SOL    HW219056   3.768   1.857   7.121
 6164SOL     OW19057   4.274   0.196   6.471
 6164SOL    HW119058   4.269   0.191   6.571
 6164SOL    HW219059   4.276   0.292   6.442
 6165SOL     OW19060   4.075   1.801   6.439
 6165SOL    HW119061   4.125   1.715   6.445
 6165SOL    HW219062   4.140   1.878   6.436
 6166SOL     OW19063   4.045   0.943   5.828
 6166SOL    HW119064   4.127   0.982   5.786
 6166SOL    HW219065   4.018   0.861   5.779
 6167SOL     OW19066   4.185   1.266   7.313
 6167SOL    HW119067   4.135   1.267   7.227
 6167SOL    HW219068   4.122   1.248   7.389
 6168SOL     OW19069   3.926   0.285   7.084
 6168SOL    HW119070   3.846   0.345   7.071
 6168SOL    HW219071   3.916   0.236   7.170
 6169SOL     OW19072   4.188   1.743   5.909
 6169SOL    HW119073   4.221   1.782   5.995
 6169SOL    HW219074   4.264   1.736   5.844
 6170SOL     OW19075   3.973   1.785   6.827
 6170SOL    HW119076   4.030   1.720   6.877
 6170SOL    HW219077   3.957   1.752   6.734
 6171SOL     OW19078   4.106   0.700   6.066
 6171SOL    HW119079   4.151   0.610   6.063
 6171SOL    HW219080   4.012   0.689   6.099
 6172SOL     OW19081   4.338   0.122   5.703
 6172SOL    HW119082   4.436   0.100   5.710
 6172SOL    HW219083   4.307   0.105   5.610
 6173SOL     OW19084   4.527   1.402   6.510
 6173SOL    HW119085   4.617   1.416   6.468
 6173SOL    HW219086   4.456   1.404   6.439
 6174SOL     OW19087   4.263   0.064   6.098
 6174SOL    HW119088   4.182   0.065   6.156
 6174SOL    HW219089   4.266   0.147   6.043
 6175SOL     OW19090   4.021   0.035   5.757
 6175SOL    HW119091   4.070   0.119   5.736
 6175SOL    HW219092   4.083  -0.030   5.802
 6176SOL     OW19093   4.800   0.683   7.050
 6176SOL    HW119094   4.720   0.622   7.053
 6176SOL    HW219095   4.881   0.630   7.026
 6177SOL     OW19096   4.183   1.152   6.327
 6177SOL    HW119097   4.112   1.125   6.392
 6177SOL    HW219098   4.157   1.124   6.234
 6178SOL     OW19099   3.802   0.556   6.972
 6178SOL    HW119100   3.894   0.555   6.931
 6178SOL    HW219101   3.796   0.630   7.039
 6179SOL     OW19102   4.285   0.222   6.733
 6179SOL    HW119103   4.323   0.138   6.770
 6179SOL    HW219104   4.197   0.241   6.777
 6180SOL     OW19105   4.212   1.385   5.760
 6180SOL    HW119106   4.125   1.370   5.807
 6180SOL    HW219107   4.195   1.411   5.665
 6181SOL     OW19108   4.251   0.256   5.914
 6181SOL    HW119109   4.278   0.197   5.839
 6181SOL    HW219110   4.251   0.351   5.883
 6182SOL     OW19111   4.134   0.813   6.837
 6182SOL    HW119112   4.220   0.825   6.887
 6182SOL    HW219113   4.092   0.726   6.864
 6183SOL     OW19114   3.788   1.564   6.917
 6183SOL    HW119115   3.742   1.646   6.883
 6183SOL    HW219116   3.886   1.583   6.926
 6184SOL     OW19117   4.091   1.100   6.087
 6184SOL    HW119118   4.084   1.183   6.031
 6184SOL    HW219119   4.095   1.020   6.027
 6185SOL     OW19120   4.290   0.537   6.451
 6185SOL    HW119121   4.302   0.603   6.377
 6185SOL    HW219122   4.336   0.571   6.534
 6186SOL     OW19123   4.078   1.510   6.915
 6186SOL    HW119124   4.057   1.466   6.828
 6186SOL    HW219125   4.175   1.536   6.918
 6187SOL     OW19126   4.126   0.751   7.184
 6187SOL    HW119127   4.194   0.806   7.137
 6187SOL    HW219128   4.166   0.663   7.211
 6188SOL     OW19129   4.228   0.050   7.326
 6188SOL    HW119130   4.186  -0.007   7.256
 6188SOL    HW219131   4.162   0.119   7.358
 6189SOL     OW19132   4.297   0.870   6.615
 6189SOL    HW119133   4.341   0.959   6.606
 6189SOL    HW219134   4.234   0.870   6.692
 6190SOL     OW19135   4.031   0.213   6.817
 6190SOL    HW119136   4.008   0.250   6.907
 6190SOL    HW219137   4.001   0.118   6.811
 6191SOL     OW19138   3.761   1.310   6.868
 6191SOL    HW119139   3.814   1.261   6.936
 6191SOL    HW219140   3.783   1.408   6.873
 6192SOL     OW19141   4.031   0.063   6.204
 6192SOL    HW119142   4.020   0.157   6.237
 6192SOL    HW219143   4.026   0.000   6.281
 6193SOL     OW19144   4.074   0.898   7.390
 6193SOL    HW119145   4.150   0.942   7.438
 6193SOL    HW219146   4.109   0.851   7.308
 6194SOL     OW19147   4.043   0.810   6.535
 6194SOL    HW119148   4.136   0.846   6.540
 6194SOL    HW219149   4.037   0.725   6.587
 6195SOL     OW19150   4.063   0.509   6.592
 6195SOL    HW119151   4.011   0.426   6.575
 6195SOL    HW219152   4.140   0.514   6.528
 6196SOL     OW19153   3.732   1.326   5.786
 6196SOL    HW119154   3.639   1.347   5.755
 6196SOL    HW219155   3.742   1.227   5.799
 6197SOL     OW19156   3.812   1.801   6.513
 6197SOL    HW119157   3.770   1.715   6.486
 6197SOL    HW219158   3.906   1.804   6.479
 6198SOL     OW19159   4.228   1.568   6.496
 6198SOL    HW119160   4.294   1.642   6.505
 6198SOL    HW219161   4.272   1.489   6.454
 6199SOL     OW19162   3.764   0.544   6.700
 6199SOL    HW119163   3.849   0.511   6.659
 6199SOL    HW219164   3.777   0.559   6.798
 6200SOL     OW19165   3.913   0.520   7.308
 6200SOL    HW119166   3.972   0.480   7.238
 6200SOL    HW219167   3.855   0.591   7.267
 6201SOL     OW19168   4.539   0.572   5.911
 6201SOL    HW119169   4.546   0.483   5.865
 6201SOL    HW219170   4.445   0.606   5.903
 6202SOL     OW19171   3.976   1.564   7.330
 6202SOL    HW119172   3.946   1.621   7.406
 6202SOL    HW219173   3.969   1.467   7.356
 6203SOL     OW19174   4.197   0.500   5.777
 6203SOL    HW119175   4.258   0.580   5.781
 6203SOL    HW219176   4.102   0.531   5.784
 6204SOL     OW19177   3.883   1.137   7.052
 6204SOL    HW119178   3.905   1.076   7.128
 6204SOL    HW219179   3.893   1.088   6.966
 6205SOL     OW19180   3.807   1.258   6.608
 6205SOL    HW119181   3.802   1.257   6.708
 6205SOL    HW219182   3.724   1.217   6.570
 6206SOL     OW19183   4.412   1.662   7.302
 6206SOL    HW119184   4.356   1.743   7.311
 6206SOL    HW219185   4.464   1.666   7.216
 6207SOL     OW19186   3.854   1.794   7.437
 6207SOL    HW119187   3.813   1.720   7.490
 6207SOL    HW219188   3.918   1.845   7.495
 6208SOL     OW19189   3.987   0.326   6.306
 6208SOL    HW119190   3.908   0.377   6.272
 6208SOL    HW219191   3.978   0.311   6.404
 6209SOL     OW19192   4.096   1.288   7.076
 6209SOL    HW119193   4.083   1.381   7.042
 6209SOL    HW219194   4.012   1.236   7.063
 6210SOL     OW19195   4.314   1.487   6.077
 6210SOL    HW119196   4.356   1.429   6.007
 6210SOL    HW219197   4.270   1.566   6.033
 6211SOL     OW19198   3.979   1.348   5.876
 6211SOL    HW119199   3.883   1.349   5.849
 6211SOL    HW219200   3.991   1.401   5.960
 6212SOL     OW19201   3.829   1.013   7.312
 6212SOL    HW119202   3.752   0.980   7.366
 6212SOL    HW219203   3.914   0.983   7.354
 6213SOL     OW19204   4.396   0.203   7.075
 6213SOL    HW119205   4.486   0.187   7.035
 6213SOL    HW219206   4.404   0.208   7.174
 6214SOL     OW19207   3.799   0.345   5.619
 6214SOL    HW119208   3.707   0.317   5.590
 6214SOL    HW219209   3.830   0.422   5.563
 6215SOL     OW19210   3.796   0.166   5.904
 6215SOL    HW119211   3.779   0.249   5.850
 6215SOL    HW219212   3.886   0.129   5.882
 6216SOL     OW19213   4.337   0.842   7.017
 6216SOL    HW119214   4.393   0.923   7.000
 6216SOL    HW219215   4.396   0.762   7.020
 6217SOL     OW19216   4.440   0.565   7.294
 6217SOL    HW119217   4.459   0.630   7.368
 6217SOL    HW219218   4.500   0.485   7.303
 6218SOL     OW19219   4.114   1.741   7.146
 6218SOL    HW119220   4.023   1.782   7.144
 6218SOL    HW219221   4.107   1.647   7.178
 6219SOL     OW19222   4.318   0.745   6.238
 6219SOL    HW119223   4.368   0.830   6.219
 6219SOL    HW219224   4.230   0.747   6.190
 6220SOL     OW19225   3.945   1.314   7.430
 6220SOL    HW119226   3.880   1.241   7.409
 6220SOL    HW219227   3.949   1.328   7.528
 6221SOL     OW19228   3.803   1.240   6.239
 6221SOL    HW119229   3.802   1.193   6.327
 6221SOL    HW219230   3.885   1.212   6.188
 6222SOL     OW19231   4.396   1.391   7.210
 6222SOL    HW119232   4.318   1.341   7.248
 6222SOL    HW219233   4.393   1.486   7.241
 6223SOL     OW19234   4.152   0.424   6.106
 6223SOL    HW119235   4.182   0.352   6.044
 6223SOL    HW219236   4.113   0.384   6.189
 6224SOL     OW19237   4.041   0.547   6.866
 6224SOL    HW119238   4.079   0.488   6.938
 6224SOL    HW219239   4.081   0.521   6.778
 6225SOL     OW19240   4.536   1.586   6.273
 6225SOL    HW119241   4.568   1.596   6.179
 6225SOL    HW219242   4.457   1.524   6.275
 6226SOL     OW19243   3.763   1.077   5.886
 6226SOL    HW119244   3.862   1.066   5.877
 6226SOL    HW219245   3.723   0.991   5.918
 6227SOL     OW19246   3.954   0.628   7.561
 6227SOL    HW119247   3.861   0.626   7.598
 6227SOL    HW219248   3.955   0.589   7.469
 6228SOL     OW19249   3.949   0.275   8.444
 6228SOL    HW119250   3.984   0.258   8.536
 6228SOL    HW219251   3.861   0.230   8.432
 6229SOL     OW19252   3.743   0.368   8.095
 6229SOL    HW119253   3.661   0.411   8.134
 6229SOL    HW219254   3.715   0.295   8.032
 6230SOL     OW19255   4.293   1.275   8.613
 6230SOL    HW119256   4.200   1.268   8.576
 6230SOL    HW219257   4.304   1.364   8.657
 6231SOL     OW19258   4.574   0.798   9.271
 6231SOL    HW119259   4.570   0.874   9.336
 6231SOL    HW219260   4.596   0.834   9.180
 6232SOL     OW19261   4.409   1.012   8.113
 6232SOL    HW119262   4.478   0.996   8.183
 6232SOL    HW219263   4.336   1.069   8.151
 6233SOL     OW19264   4.410   1.161   9.251
 6233SOL    HW119265   4.470   1.240   9.265
 6233SOL    HW219266   4.324   1.192   9.210
 6234SOL     OW19267   4.059   1.435   8.509
 6234SOL    HW119268   3.981   1.404   8.456
 6234SOL    HW219269   4.117   1.493   8.452
 6235SOL     OW19270   4.162   0.392   8.947
 6235SOL    HW119271   4.244   0.336   8.956
 6235SOL    HW219272   4.081   0.334   8.951
 6236SOL     OW19273   3.955   1.713   7.931
 6236SOL    HW119274   3.989   1.790   7.985
 6236SOL    HW219275   3.999   1.713   7.841
 6237SOL     OW19276   3.954   1.434   7.986
 6237SOL    HW119277   3.928   1.530   7.986
 6237SOL    HW219278   3.883   1.380   8.031
 6238SOL     OW19279   3.964   1.091   8.334
 6238SOL    HW119280   3.978   1.007   8.386
 6238SOL    HW219281   3.909   1.155   8.389
 6239SOL     OW19282   4.344   1.786   8.887
 6239SOL    HW119283   4.252   1.769   8.922
 6239SOL    HW219284   4.372   1.878   8.913
 6240SOL     OW19285   4.330   0.964   7.571
 6240SOL    HW119286   4.337   1.048   7.517
 6240SOL    HW219287   4.376   0.977   7.659
 6241SOL     OW19288   3.846   0.643   8.011
 6241SOL    HW119289   3.801   0.555   8.028
 6241SOL    HW219290   3.845   0.697   8.095
 6242SOL     OW19291   3.751   1.596   7.565
 6242SOL    HW119292   3.732   1.500   7.586
 6242SOL    HW219293   3.718   1.654   7.640
 6243SOL     OW19294   3.837   0.737   9.045
 6243SOL    HW119295   3.925   0.724   9.090
 6243SOL    HW219296   3.824   0.834   9.023
 6244SOL     OW19297   4.337   1.365   8.174
 6244SOL    HW119298   4.288   1.278   8.183
 6244SOL    HW219299   4.314   1.408   8.087
 6245SOL     OW19300   4.533   0.004   7.950
 6245SOL    HW119301   4.573   0.095   7.941
 6245SOL    HW219302   4.433   0.012   7.956
 6246SOL     OW19303   3.921   0.976   8.712
 6246SOL    HW119304   4.010   0.931   8.698
 6246SOL    HW219305   3.848   0.911   8.693
 6247SOL     OW19306   4.041   0.251   9.249
 6247SOL    HW119307   4.112   0.322   9.255
 6247SOL    HW219308   3.953   0.290   9.277
 6248SOL     OW19309   4.322   0.729   7.718
 6248SOL    HW119310   4.346   0.798   7.650
 6248SOL    HW219311   4.244   0.762   7.772
 6249SOL     OW19312   3.800   0.811   8.237
 6249SOL    HW119313   3.899   0.799   8.246
 6249SOL    HW219314   3.776   0.906   8.258
 6250SOL     OW19315   3.854   1.821   9.019
 6250SOL    HW119316   3.844   1.806   9.118
 6250SOL    HW219317   3.768   1.857   8.983
 6251SOL     OW19318   4.274   0.196   8.333
 6251SOL    HW119319   4.269   0.191   8.433
 6251SOL    HW219320   4.276   0.292   8.304
 6252SOL     OW19321   4.075   1.801   8.301
 6252SOL    HW119322   4.125   1.715   8.307
 6252SOL    HW219323   4.140   1.878   8.298
 6253SOL     OW19324   4.045   0.943   7.690
 6253SOL    HW119325   4.127   0.982   7.648
 6253SOL    HW219326   4.018   0.861   7.641
 6254SOL     OW19327   4.185   1.266   9.175
 6254SOL    HW119328   4.135   1.267   9.089
 6254SOL    HW219329   4.122   1.248   9.251
 6255SOL     OW19330   3.926   0.285   8.946
 6255SOL    HW119331   3.846   0.345   8.933
 6255SOL    HW219332   3.916   0.236   9.032
 6256SOL     OW19333   4.188   1.743   7.771
 6256SOL    HW119334   4.221   1.782   7.857
 6256SOL    HW219335   4.264   1.736   7.706
 6257SOL     OW19336   3.973   1.785   8.689
 6257SOL    HW119337   4.030   1.720   8.739
 6257SOL    HW219338   3.957   1.752   8.596
 6258SOL     OW19339   4.106   0.700   7.928
 6258SOL    HW119340   4.151   0.610   7.925
 6258SOL    HW219341   4.012   0.689   7.961
 6259SOL     OW19342   4.338   0.122   7.565
 6259SOL    HW119343   4.436   0.100   7.572
 6259SOL    HW219344   4.307   0.105   7.472
 6260SOL     OW19345   4.527   1.402   8.372
 6260SOL    HW119346   4.617   1.416   8.330
 6260SOL    HW219347   4.456   1.404   8.301
 6261SOL     OW19348   4.263   0.064   7.960
 6261SOL    HW119349   4.182   0.065   8.018
 6261SOL    HW219350   4.266   0.147   7.905
 6262SOL     OW19351   4.021   0.035   7.619
 6262SOL    HW119352   4.070   0.119   7.598
 6262SOL    HW219353   4.083  -0.030   7.664
 6263SOL     OW19354   4.800   0.683   8.912
 6263SOL    HW119355   4.720   0.622   8.915
 6263SOL    HW219356   4.881   0.630   8.888
 6264SOL     OW19357   4.183   1.152   8.189
 6264SOL    HW119358   4.112   1.125   8.254
 6264SOL    HW219359   4.157   1.124   8.096
 6265SOL     OW19360   3.802   0.556   8.834
 6265SOL    HW119361   3.894   0.555   8.793
 6265SOL    HW219362   3.796   0.630   8.901
 6266SOL     OW19363   4.285   0.222   8.595
 6266SOL    HW119364   4.323   0.138   8.632
 6266SOL    HW219365   4.197   0.241   8.639
 6267SOL     OW19366   4.212   1.385   7.622
 6267SOL    HW119367   4.125   1.370   7.669
 6267SOL    HW219368   4.195   1.411   7.527
 6268SOL     OW19369   4.251   0.256   7.776
 6268SOL    HW119370   4.278   0.197   7.701
 6268SOL    HW219371   4.251   0.351   7.745
 6269SOL     OW19372   4.134   0.813   8.699
 6269SOL    HW119373   4.220   0.825   8.749
 6269SOL    HW219374   4.092   0.726   8.726
 6270SOL     OW19375   3.788   1.564   8.779
 6270SOL    HW119376   3.742   1.646   8.745
 6270SOL    HW219377   3.886   1.583   8.788
 6271SOL     OW19378   4.091   1.100   7.949
 6271SOL    HW119379   4.084   1.183   7.893
 6271SOL    HW219380   4.095   1.020   7.889
 6272SOL     OW19381   4.290   0.537   8.313
 6272SOL    HW119382   4.302   0.603   8.239
 6272SOL    HW219383   4.336   0.571   8.396
 6273SOL     OW19384   4.078   1.510   8.777
 6273SOL    HW119385   4.057   1.466   8.690
 6273SOL    HW219386   4.175   1.536   8.780
 6274SOL     OW19387   4.126   0.751   9.046
 6274SOL    HW119388   4.194   0.806   8.999
 6274SOL    HW219389   4.166   0.663   9.073
 6275SOL     OW19390   4.228   0.050   9.188
 6275SOL    HW119391   4.186  -0.007   9.118
 6275SOL    HW219392   4.162   0.119   9.220
 6276SOL     OW19393   4.297   0.870   8.477
 6276SOL    HW119394   4.341   0.959   8.468
 6276SOL    HW219395   4.234   0.870   8.554
 6277SOL     OW19396   4.031   0.213   8.679
 6277SOL    HW119397   4.008   0.250   8.769
 6277SOL    HW219398   4.001   0.118   8.673
 6278SOL     OW19399   3.761   1.310   8.730
 6278SOL    HW119400   3.814   1.261   8.798
 6278SOL    HW219401   3.783   1.408   8.735
 6279SOL     OW19402   4.031   0.063   8.066
 6279SOL    HW119403   4.020   0.157   8.099
 6279SOL    HW219404   4.026   0.000   8.143
 6280SOL     OW19405   4.074   0.898   9.252
 6280SOL    HW119406   4.150   0.942   9.300
 6280SOL    HW219407   4.109   0.851   9.170
 6281SOL     OW19408   4.043   0.810   8.397
 6281SOL    HW119409   4.136   0.846   8.402
 6281SOL    HW219410   4.037   0.725   8.449
 6282SOL     OW19411   4.063   0.509   8.454
 6282SOL    HW119412   4.011   0.426   8.437
 6282SOL    HW219413   4.140   0.514   8.390
 6283SOL     OW19414   3.732   1.326   7.648
 6283SOL    HW119415   3.639   1.347   7.617
 6283SOL    HW219416   3.742   1.227   7.661
 6284SOL     OW19417   3.812   1.801   8.375
 6284SOL    HW119418   3.770   1.715   8.348
 6284SOL    HW219419   3.906   1.804   8.341
 6285SOL     OW19420   4.228   1.568   8.358
 6285SOL    HW119421   4.294   1.642   8.367
 6285SOL    HW219422   4.272   1.489   8.316
 6286SOL     OW19423   3.764   0.544   8.562
 6286SOL    HW119424   3.849   0.511   8.521
 6286SOL    HW219425   3.777   0.559   8.660
 6287SOL     OW19426   3.913   0.520   9.170
 6287SOL    HW119427   3.972   0.480   9.100
 6287SOL    HW219428   3.855   0.591   9.129
 6288SOL     OW19429   4.539   0.572   7.773
 6288SOL    HW119430   4.546   0.483   7.727
 6288SOL    HW219431   4.445   0.606   7.765
 6289SOL     OW19432   3.976   1.564   9.192
 6289SOL    HW119433   3.946   1.621   9.268
 6289SOL    HW219434   3.969   1.467   9.218
 6290SOL     OW19435   4.197   0.500   7.639
 6290SOL    HW119436   4.258   0.580   7.643
 6290SOL    HW219437   4.102   0.531   7.646
 6291SOL     OW19438   3.883   1.137   8.914
 6291SOL    HW119439   3.905   1.076   8.990
 6291SOL    HW219440   3.893   1.088   8.828
 6292SOL     OW19441   3.807   1.258   8.470
 6292SOL    HW119442   3.802   1.257   8.570
 6292SOL    HW219443   3.724   1.217   8.432
 6293SOL     OW19444   4.412   1.662   9.164
 6293SOL    HW119445   4.356   1.743   9.173
 6293SOL    HW219446   4.464   1.666   9.078
 6294SOL     OW19447   3.854   1.794   9.299
 6294SOL    HW119448   3.813   1.720   9.352
 6294SOL    HW219449   3.918   1.845   9.357
 6295SOL     OW19450   3.987   0.326   8.168
 6295SOL    HW119451   3.908   0.377   8.134
 6295SOL    HW219452   3.978   0.311   8.266
 6296SOL     OW19453   4.096   1.288   8.938
 6296SOL    HW119454   4.083   1.381   8.904
 6296SOL    HW219455   4.012   1.236   8.925
 6297SOL     OW19456   4.314   1.487   7.939
 6297SOL    HW119457   4.356   1.429   7.869
 6297SOL    HW219458   4.270   1.566   7.895
 6298SOL     OW19459   3.979   1.348   7.738
 6298SOL    HW119460   3.883   1.349   7.711
 6298SOL    HW219461   3.991   1.401   7.822
 6299SOL     OW19462   3.829   1.013   9.174
 6299SOL    HW119463   3.752   0.980   9.228
 6299SOL    HW219464   3.914   0.983   9.216
 6300SOL     OW19465   4.396   0.203   8.937
 6300SOL    HW119466   4.486   0.187   8.897
 6300SOL    HW219467   4.404   0.208   9.036
 6301SOL     OW19468   3.799   0.345   7.481
 6301SOL    HW119469   3.707   0.317   7.452
 6301SOL    HW219470   3.830   0.422   7.425
 6302SOL     OW19471   3.796   0.166   7.766
 6302SOL    HW119472   3.779   0.249   7.712
 6302SOL    HW219473   3.886   0.129   7.744
 6303SOL     OW19474   4.337   0.842   8.879
 6303SOL    HW119475   4.393   0.923   8.862
 6303SOL    HW219476   4.396   0.762   8.882
 6304SOL     OW19477   4.440   0.565   9.156
 6304SOL    HW119478   4.459   0.630   9.230
 6304SOL    HW219479   4.500   0.485   9.165
 6305SOL     OW19480   4.114   1.741   9.008
 6305SOL    HW119481   4.023   1.782   9.006
 6305SOL    HW219482   4.107   1.647   9.040
 6306SOL     OW19483   4.318   0.745   8.100
 6306SOL    HW119484   4.368   0.830   8.081
 6306SOL    HW219485   4.230   0.747   8.052
 6307SOL     OW19486   3.945   1.314   9.292
 6307SOL    HW119487   3.880   1.241   9.271
 6307SOL    HW219488   3.949   1.328   9.390
 6308SOL     OW19489   3.803   1.240   8.101
 6308SOL    HW119490   3.802   1.193   8.189
 6308SOL    HW219491   3.885   1.212   8.050
 6309SOL     OW19492   4.396   1.391   9.072
 6309SOL    HW119493   4.318   1.341   9.110
 6309SOL    HW219494   4.393   1.486   9.103
 6310SOL     OW19495   4.152   0.424   7.968
 6310SOL    HW119496   4.182   0.352   7.906
 6310SOL    HW219497   4.113   0.384   8.051
 6311SOL     OW19498   4.041   0.547   8.728
 6311SOL    HW119499   4.079   0.488   8.800
 6311SOL    HW219500   4.081   0.521   8.640
 6312SOL     OW19501   4.536   1.586   8.135
 6312SOL    HW119502   4.568   1.596   8.041
 6312SOL    HW219503   4.457   1.524   8.137
 6313SOL     OW19504   3.763   1.077   7.748
 6313SOL    HW119505   3.862   1.066   7.739
 6313SOL    HW219506   3.723   0.991   7.780
 6314SOL     OW19507   3.954   0.628   9.423
 6314SOL    HW119508   3.861   0.626   9.460
 6314SOL    HW219509   3.955   0.589   9.331
 6315SOL     OW19510   3.949   0.275  10.306
 6315SOL    HW119511   3.984   0.258  10.398
 6315SOL    HW219512   3.861   0.230  10.294
 6316SOL     OW19513   3.743   0.368   9.957
 6316SOL    HW119514   3.661   0.411   9.996
 6316SOL    HW219515   3.715   0.295   9.894
 6317SOL     OW19516   4.293   1.275  10.475
 6317SOL    HW119517   4.200   1.268  10.438
 6317SOL    HW219518   4.304   1.364  10.519
 6318SOL     OW19519   4.574   0.798  11.133
 6318SOL    HW119520   4.570   0.874  11.198
 6318SOL    HW219521   4.596   0.834  11.042
 6319SOL     OW19522   4.409   1.012   9.975
 6319SOL    HW119523   4.478   0.996  10.045
 6319SOL    HW219524   4.336   1.069  10.013
 6320SOL     OW19525   4.059   1.435  10.371
 6320SOL    HW119526   3.981   1.404  10.318
 6320SOL    HW219527   4.117   1.493  10.314
 6321SOL     OW19528   4.162   0.392  10.809
 6321SOL    HW119529   4.244   0.336  10.818
 6321SOL    HW219530   4.081   0.334  10.813
 6322SOL     OW19531   3.955   1.713   9.793
 6322SOL    HW119532   3.989   1.790   9.847
 6322SOL    HW219533   3.999   1.713   9.703
 6323SOL     OW19534   3.954   1.434   9.848
 6323SOL    HW119535   3.928   1.530   9.848
 6323SOL    HW219536   3.883   1.380   9.893
 6324SOL     OW19537   3.964   1.091  10.196
 6324SOL    HW119538   3.978   1.007  10.248
 6324SOL    HW219539   3.909   1.155  10.251
 6325SOL     OW19540   4.344   1.786  10.749
 6325SOL    HW119541   4.252   1.769  10.784
 6325SOL    HW219542   4.372   1.878  10.775
 6326SOL     OW19543   4.330   0.964   9.433
 6326SOL    HW119544   4.337   1.048   9.379
 6326SOL    HW219545   4.376   0.977   9.521
 6327SOL     OW19546   3.846   0.643   9.873
 6327SOL    HW119547   3.801   0.555   9.890
 6327SOL    HW219548   3.845   0.697   9.957
 6328SOL     OW19549   3.751   1.596   9.427
 6328SOL    HW119550   3.732   1.500   9.448
 6328SOL    HW219551   3.718   1.654   9.502
 6329SOL     OW19552   3.837   0.737  10.907
 6329SOL    HW119553   3.925   0.724  10.952
 6329SOL    HW219554   3.824   0.834  10.885
 6330SOL     OW19555   4.337   1.365  10.036
 6330SOL    HW119556   4.288   1.278  10.045
 6330SOL    HW219557   4.314   1.408   9.949
 6331SOL     OW19558   4.533   0.004   9.812
 6331SOL    HW119559   4.573   0.095   9.803
 6331SOL    HW219560   4.433   0.012   9.818
 6332SOL     OW19561   3.921   0.976  10.574
 6332SOL    HW119562   4.010   0.931  10.560
 6332SOL    HW219563   3.848   0.911  10.555
 6333SOL     OW19564   4.041   0.251  11.111
 6333SOL    HW119565   4.112   0.322  11.117
 6333SOL    HW219566   3.953   0.290  11.139
 6334SOL     OW19567   4.322   0.729   9.580
 6334SOL    HW119568   4.346   0.798   9.512
 6334SOL    HW219569   4.244   0.762   9.634
 6335SOL     OW19570   3.800   0.811  10.099
 6335SOL    HW119571   3.899   0.799  10.108
 6335SOL    HW219572   3.776   0.906  10.120
 6336SOL     OW19573   3.854   1.821  10.881
 6336SOL    HW119574   3.844   1.806  10.980
 6336SOL    HW219575   3.768   1.857  10.845
 6337SOL     OW19576   4.274   0.196  10.195
 6337SOL    HW119577   4.269   0.191  10.295
 6337SOL    HW219578   4.276   0.292  10.166
 6338SOL     OW19579   4.075   1.801  10.163
 6338SOL    HW119580   4.125   1.715  10.169
 6338SOL    HW219581   4.140   1.878  10.160
 6339SOL     OW19582   4.045   0.943   9.552
 6339SOL    HW119583   4.127   0.982   9.510
 6339SOL    HW219584   4.018   0.861   9.503
 6340SOL     OW19585   4.185   1.266  11.037
 6340SOL    HW119586   4.135   1.267  10.951
 6340SOL    HW219587   4.122   1.248  11.113
 6341SOL     OW19588   3.926   0.285  10.808
 6341SOL    HW119589   3.846   0.345  10.795
 6341SOL    HW219590   3.916   0.236  10.894
 6342SOL     OW19591   4.188   1.743   9.633
 6342SOL    HW119592   4.221   1.782   9.719
 6342SOL    HW219593   4.264   1.736   9.568
 6343SOL     OW19594   3.973   1.785  10.551
 6343SOL    HW119595   4.030   1.720  10.601
 6343SOL    HW219596   3.957   1.752  10.458
 6344SOL     OW19597   4.106   0.700   9.790
 6344SOL    HW119598   4.151   0.610   9.787
 6344SOL    HW219599   4.012   0.689   9.823
 6345SOL     OW19600   4.338   0.122   9.427
 6345SOL    HW119601   4.436   0.100   9.434
 6345SOL    HW219602   4.307   0.105   9.334
 6346SOL     OW19603   4.527   1.402  10.234
 6346SOL    HW119604   4.617   1.416  10.192
 6346SOL    HW219605   4.456   1.404  10.163
 6347SOL     OW19606   4.263   0.064   9.822
 6347SOL    HW119607   4.182   0.065   9.880
 6347SOL    HW219608   4.266   0.147   9.767
 6348SOL     OW19609   4.021   0.035   9.481
 6348SOL    HW119610   4.070   0.119   9.460
 6348SOL    HW219611   4.083  -0.030   9.526
 6349SOL     OW19612   4.800   0.683  10.774
 6349SOL    HW119613   4.720   0.622  10.777
 6349SOL    HW219614   4.881   0.630  10.750
 6350SOL     OW19615   4.183   1.152  10.051
 6350SOL    HW119616   4.112   1.125  10.116
 6350SOL    HW219617   4.157   1.124   9.958
 6351SOL     OW19618   3.802   0.556  10.696
 6351SOL    HW119619   3.894   0.555  10.655
 6351SOL    HW219620   3.796   0.630  10.763
 6352SOL     OW19621   4.285   0.222  10.457
 6352SOL    HW119622   4.323   0.138  10.494
 6352SOL    HW219623   4.197   0.241  10.501
 6353SOL     OW19624   4.212   1.385   9.484
 6353SOL    HW119625   4.125   1.370   9.531
 6353SOL    HW219626   4.195   1.411   9.389
 6354SOL     OW19627   4.251   0.256   9.638
 6354SOL    HW119628   4.278   0.197   9.563
 6354SOL    HW219629   4.251   0.351   9.607
 6355SOL     OW19630   4.134   0.813  10.561
 6355SOL    HW119631   4.220   0.825  10.611
 6355SOL    HW219632   4.092   0.726  10.588
 6356SOL     OW19633   3.788   1.564  10.641
 6356SOL    HW119634   3.742   1.646  10.607
 6356SOL    HW219635   3.886   1.583  10.650
 6357SOL     OW19636   4.091   1.100   9.811
 6357SOL    HW119637   4.084   1.183   9.755
 6357SOL    HW219638   4.095   1.020   9.751
 6358SOL     OW19639   4.290   0.537  10.175
 6358SOL    HW119640   4.302   0.603  10.101
 6358SOL    HW219641   4.336   0.571  10.258
 6359SOL     OW19642   4.078   1.510  10.639
 6359SOL    HW119643   4.057   1.466  10.552
 6359SOL    HW219644   4.175   1.536  10.642
 6360SOL     OW19645   4.126   0.751  10.908
 6360SOL    HW119646   4.194   0.806  10.861
 6360SOL    HW219647   4.166   0.663  10.935
 6361SOL     OW19648   4.297   0.870  10.339
 6361SOL    HW119649   4.341   0.959  10.330
 6361SOL    HW219650   4.234   0.870  10.416
 6362SOL     OW19651   4.031   0.213  10.541
 6362SOL    HW119652   4.008   0.250  10.631
 6362SOL    HW219653   4.001   0.118  10.535
 6363SOL     OW19654   3.761   1.310  10.592
 6363SOL    HW119655   3.814   1.261  10.660
 6363SOL    HW219656   3.783   1.408  10.597
 6364SOL     OW19657   4.031   0.063   9.928
 6364SOL    HW119658   4.020   0.157   9.961
 6364SOL    HW219659   4.026   0.000  10.005
 6365SOL     OW19660   4.074   0.898  11.114
 6365SOL    HW119661   4.150   0.942  11.162
 6365SOL    HW219662   4.109   0.851  11.032
 6366SOL     OW19663   4.043   0.810  10.259
 6366SOL    HW119664   4.136   0.846  10.264
 6366SOL    HW219665   4.037   0.725  10.311
 6367SOL     OW19666   4.063   0.509  10.316
 6367SOL    HW119667   4.011   0.426  10.299
 6367SOL    HW219668   4.140   0.514  10.252
 6368SOL     OW19669   3.732   1.326   9.510
 6368SOL    HW119670   3.639   1.347   9.479
 6368SOL    HW219671   3.742   1.227   9.523
 6369SOL     OW19672   3.812   1.801  10.237
 6369SOL    HW119673   3.770   1.715  10.210
 6369SOL    HW219674   3.906   1.804  10.203
 6370SOL     OW19675   4.228   1.568  10.220
 6370SOL    HW119676   4.294   1.642  10.229
 6370SOL    HW219677   4.272   1.489  10.178
 6371SOL     OW19678   3.764   0.544  10.424
 6371SOL    HW119679   3.849   0.511  10.383
 6371SOL    HW219680   3.777   0.559  10.522
 6372SOL     OW19681   4.539   0.572   9.635
 6372SOL    HW119682   4.546   0.483   9.589
 6372SOL    HW219683   4.445   0.606   9.627
 6373SOL     OW19684   3.976   1.564  11.054
 6373SOL    HW119685   3.946   1.621  11.130
 6373SOL    HW219686   3.969   1.467  11.080
 6374SOL     OW19687   4.197   0.500   9.501
 6374SOL    HW119688   4.258   0.580   9.505
 6374SOL    HW219689   4.102   0.531   9.508
 6375SOL     OW19690   3.883   1.137  10.776
 6375SOL    HW119691   3.905   1.076  10.852
 6375SOL    HW219692   3.893   1.088  10.690
 6376SOL     OW19693   3.807   1.258  10.332
 6376SOL    HW119694   3.802   1.257  10.432
 6376SOL    HW219695   3.724   1.217  10.294
 6377SOL     OW19696   4.412   1.662  11.026
 6377SOL    HW119697   4.356   1.743  11.035
 6377SOL    HW219698   4.464   1.666  10.940
 6378SOL     OW19699   3.987   0.326  10.030
 6378SOL    HW119700   3.908   0.377   9.996
 6378SOL    HW219701   3.978   0.311  10.128
 6379SOL     OW19702   4.096   1.288  10.800
 6379SOL    HW119703   4.083   1.381  10.766
 6379SOL    HW219704   4.012   1.236  10.787
 6380SOL     OW19705   4.314   1.487   9.801
 6380SOL    HW119706   4.356   1.429   9.731
 6380SOL    HW219707   4.270   1.566   9.757
 6381SOL     OW19708   3.979   1.348   9.600
 6381SOL    HW119709   3.883   1.349   9.573
 6381SOL    HW219710   3.991   1.401   9.684
 6382SOL     OW19711   3.829   1.013  11.036
 6382SOL    HW119712   3.752   0.980  11.090
 6382SOL    HW219713   3.914   0.983  11.078
 6383SOL     OW19714   4.396   0.203  10.799
 6383SOL    HW119715   4.486   0.187  10.759
 6383SOL    HW219716   4.404   0.208  10.898
 6384SOL     OW19717   3.799   0.345   9.343
 6384SOL    HW119718   3.707   0.317   9.314
 6384SOL    HW219719   3.830   0.422   9.287
 6385SOL     OW19720   3.796   0.166   9.628
 6385SOL    HW119721   3.779   0.249   9.574
 6385SOL    HW219722   3.886   0.129   9.606
 6386SOL     OW19723   4.337   0.842  10.741
 6386SOL    HW119724   4.393   0.923  10.724
 6386SOL    HW219725   4.396   0.762  10.744
 6387SOL     OW19726   4.114   1.741  10.870
 6387SOL    HW119727   4.023   1.782  10.868
 6387SOL    HW219728   4.107   1.647  10.902
 6388SOL     OW19729   4.318   0.745   9.962
 6388SOL    HW119730   4.368   0.830   9.943
 6388SOL    HW219731   4.230   0.747   9.914
 6389SOL     OW19732   3.803   1.240   9.963
 6389SOL    HW119733   3.802   1.193  10.051
 6389SOL    HW219734   3.885   1.212   9.912
 6390SOL     OW19735   4.396   1.391  10.934
 6390SOL    HW119736   4.318   1.341  10.972
 6390SOL    HW219737   4.393   1.486  10.965
 6391SOL     OW19738   4.152   0.424   9.830
 6391SOL    HW119739   4.182   0.352   9.768
 6391SOL    HW219740   4.113   0.384   9.913
 6392SOL     OW19741   4.041   0.547  10.590
 6392SOL    HW119742   4.079   0.488  10.662
 6392SOL    HW219743   4.081   0.521  10.502
 6393SOL     OW19744   4.536   1.586   9.997
 6393SOL    HW119745   4.568   1.596   9.903
 6393SOL    HW219746   4.457   1.524   9.999
 6394SOL     OW19747   3.763   1.077   9.610
 6394SOL    HW119748   3.862   1.066   9.601
 6394SOL    HW219749   3.723   0.991   9.642
 6395SOL     OW19750   3.954   2.490   0.113
 6395SOL    HW119751   3.861   2.488   0.150
 6395SOL    HW219752   3.955   2.451   0.021
 6396SOL     OW19753   3.949   2.137   0.996
 6396SOL    HW119754   3.984   2.120   1.088
 6396SOL    HW219755   3.861   2.092   0.984
 6397SOL     OW19756   3.743   2.230   0.647
 6397SOL    HW119757   3.661   2.273   0.686
 6397SOL    HW219758   3.715   2.157   0.584
 6398SOL     OW19759   4.293   3.137   1.165
 6398SOL    HW119760   4.200   3.130   1.128
 6398SOL    HW219761   4.304   3.226   1.209
 6399SOL     OW19762   4.574   2.660   1.823
 6399SOL    HW119763   4.570   2.736   1.888
 6399SOL    HW219764   4.596   2.696   1.732
 6400SOL     OW19765   4.409   2.874   0.665
 6400SOL    HW119766   4.478   2.858   0.735
 6400SOL    HW219767   4.336   2.931   0.703
 6401SOL     OW19768   4.410   3.023   1.803
 6401SOL    HW119769   4.470   3.102   1.817
 6401SOL    HW219770   4.324   3.054   1.762
 6402SOL     OW19771   4.059   3.297   1.061
 6402SOL    HW119772   3.981   3.266   1.008
 6402SOL    HW219773   4.117   3.355   1.004
 6403SOL     OW19774   4.162   2.254   1.499
 6403SOL    HW119775   4.244   2.198   1.508
 6403SOL    HW219776   4.081   2.196   1.503
 6404SOL     OW19777   3.955   3.575   0.483
 6404SOL    HW119778   3.989   3.652   0.537
 6404SOL    HW219779   3.999   3.575   0.393
 6405SOL     OW19780   3.954   3.296   0.538
 6405SOL    HW119781   3.928   3.392   0.538
 6405SOL    HW219782   3.883   3.242   0.583
 6406SOL     OW19783   3.964   2.953   0.886
 6406SOL    HW119784   3.978   2.869   0.938
 6406SOL    HW219785   3.909   3.017   0.941
 6407SOL     OW19786   4.344   3.648   1.439
 6407SOL    HW119787   4.252   3.631   1.474
 6407SOL    HW219788   4.372   3.740   1.465
 6408SOL     OW19789   4.330   2.826   0.123
 6408SOL    HW119790   4.337   2.910   0.069
 6408SOL    HW219791   4.376   2.839   0.211
 6409SOL     OW19792   3.846   2.505   0.563
 6409SOL    HW119793   3.801   2.417   0.580
 6409SOL    HW219794   3.845   2.559   0.647
 6410SOL     OW19795   3.751   3.458   0.117
 6410SOL    HW119796   3.732   3.362   0.138
 6410SOL    HW219797   3.718   3.516   0.192
 6411SOL     OW19798   3.837   2.599   1.597
 6411SOL    HW119799   3.925   2.586   1.642
 6411SOL    HW219800   3.824   2.696   1.575
 6412SOL     OW19801   4.337   3.227   0.726
 6412SOL    HW119802   4.288   3.140   0.735
 6412SOL    HW219803   4.314   3.270   0.639
 6413SOL     OW19804   4.533   1.866   0.502
 6413SOL    HW119805   4.573   1.957   0.493
 6413SOL    HW219806   4.433   1.874   0.508
 6414SOL     OW19807   3.921   2.838   1.264
 6414SOL    HW119808   4.010   2.793   1.250
 6414SOL    HW219809   3.848   2.773   1.245
 6415SOL     OW19810   4.041   2.113   1.801
 6415SOL    HW119811   4.112   2.184   1.807
 6415SOL    HW219812   3.953   2.152   1.829
 6416SOL     OW19813   4.322   2.591   0.270
 6416SOL    HW119814   4.346   2.660   0.202
 6416SOL    HW219815   4.244   2.624   0.324
 6417SOL     OW19816   3.800   2.673   0.789
 6417SOL    HW119817   3.899   2.661   0.798
 6417SOL    HW219818   3.776   2.768   0.810
 6418SOL     OW19819   3.854   3.683   1.571
 6418SOL    HW119820   3.844   3.668   1.670
 6418SOL    HW219821   3.768   3.719   1.535
 6419SOL     OW19822   4.274   2.058   0.885
 6419SOL    HW119823   4.269   2.053   0.985
 6419SOL    HW219824   4.276   2.154   0.856
 6420SOL     OW19825   4.075   3.663   0.853
 6420SOL    HW119826   4.125   3.577   0.859
 6420SOL    HW219827   4.140   3.740   0.850
 6421SOL     OW19828   4.045   2.805   0.242
 6421SOL    HW119829   4.127   2.844   0.200
 6421SOL    HW219830   4.018   2.723   0.193
 6422SOL     OW19831   4.185   3.128   1.727
 6422SOL    HW119832   4.135   3.129   1.641
 6422SOL    HW219833   4.122   3.110   1.803
 6423SOL     OW19834   3.926   2.147   1.498
 6423SOL    HW119835   3.846   2.207   1.485
 6423SOL    HW219836   3.916   2.098   1.584
 6424SOL     OW19837   4.188   3.605   0.323
 6424SOL    HW119838   4.221   3.644   0.409
 6424SOL    HW219839   4.264   3.598   0.258
 6425SOL     OW19840   3.973   3.647   1.241
 6425SOL    HW119841   4.030   3.582   1.291
 6425SOL    HW219842   3.957   3.614   1.148
 6426SOL     OW19843   4.106   2.562   0.480
 6426SOL    HW119844   4.151   2.472   0.477
 6426SOL    HW219845   4.012   2.551   0.513
 6427SOL     OW19846   4.338   1.984   0.117
 6427SOL    HW119847   4.436   1.962   0.124
 6427SOL    HW219848   4.307   1.967   0.024
 6428SOL     OW19849   4.527   3.264   0.924
 6428SOL    HW119850   4.617   3.278   0.882
 6428SOL    HW219851   4.456   3.266   0.853
 6429SOL     OW19852   4.263   1.926   0.512
 6429SOL    HW119853   4.182   1.927   0.570
 6429SOL    HW219854   4.266   2.009   0.457
 6430SOL     OW19855   4.021   1.897   0.171
 6430SOL    HW119856   4.070   1.981   0.150
 6430SOL    HW219857   4.083   1.832   0.216
 6431SOL     OW19858   4.800   2.545   1.464
 6431SOL    HW119859   4.720   2.484   1.467
 6431SOL    HW219860   4.881   2.492   1.440
 6432SOL     OW19861   4.183   3.014   0.741
 6432SOL    HW119862   4.112   2.987   0.806
 6432SOL    HW219863   4.157   2.986   0.648
 6433SOL     OW19864   3.802   2.418   1.386
 6433SOL    HW119865   3.894   2.417   1.345
 6433SOL    HW219866   3.796   2.492   1.453
 6434SOL     OW19867   4.285   2.084   1.147
 6434SOL    HW119868   4.323   2.000   1.184
 6434SOL    HW219869   4.197   2.103   1.191
 6435SOL     OW19870   4.212   3.247   0.174
 6435SOL    HW119871   4.125   3.232   0.221
 6435SOL    HW219872   4.195   3.273   0.079
 6436SOL     OW19873   4.251   2.118   0.328
 6436SOL    HW119874   4.278   2.059   0.253
 6436SOL    HW219875   4.251   2.213   0.297
 6437SOL     OW19876   4.134   2.675   1.251
 6437SOL    HW119877   4.220   2.687   1.301
 6437SOL    HW219878   4.092   2.588   1.278
 6438SOL     OW19879   3.788   3.426   1.331
 6438SOL    HW119880   3.742   3.508   1.297
 6438SOL    HW219881   3.886   3.445   1.340
 6439SOL     OW19882   4.091   2.962   0.501
 6439SOL    HW119883   4.084   3.045   0.445
 6439SOL    HW219884   4.095   2.882   0.441
 6440SOL     OW19885   4.290   2.399   0.865
 6440SOL    HW119886   4.302   2.465   0.791
 6440SOL    HW219887   4.336   2.433   0.948
 6441SOL     OW19888   4.078   3.372   1.329
 6441SOL    HW119889   4.057   3.328   1.242
 6441SOL    HW219890   4.175   3.398   1.332
 6442SOL     OW19891   4.126   2.613   1.598
 6442SOL    HW119892   4.194   2.668   1.551
 6442SOL    HW219893   4.166   2.525   1.625
 6443SOL     OW19894   4.228   1.912   1.740
 6443SOL    HW119895   4.186   1.855   1.670
 6443SOL    HW219896   4.162   1.981   1.772
 6444SOL     OW19897   4.297   2.732   1.029
 6444SOL    HW119898   4.341   2.821   1.020
 6444SOL    HW219899   4.234   2.732   1.106
 6445SOL     OW19900   4.031   2.075   1.231
 6445SOL    HW119901   4.008   2.112   1.321
 6445SOL    HW219902   4.001   1.980   1.225
 6446SOL     OW19903   3.761   3.172   1.282
 6446SOL    HW119904   3.814   3.123   1.350
 6446SOL    HW219905   3.783   3.270   1.287
 6447SOL     OW19906   4.031   1.925   0.618
 6447SOL    HW119907   4.020   2.019   0.651
 6447SOL    HW219908   4.026   1.862   0.695
 6448SOL     OW19909   4.074   2.760   1.804
 6448SOL    HW119910   4.150   2.804   1.852
 6448SOL    HW219911   4.109   2.713   1.722
 6449SOL     OW19912   4.043   2.672   0.949
 6449SOL    HW119913   4.136   2.708   0.954
 6449SOL    HW219914   4.037   2.587   1.001
 6450SOL     OW19915   4.063   2.371   1.006
 6450SOL    HW119916   4.011   2.288   0.989
 6450SOL    HW219917   4.140   2.376   0.942
 6451SOL     OW19918   3.732   3.188   0.200
 6451SOL    HW119919   3.639   3.209   0.169
 6451SOL    HW219920   3.742   3.089   0.213
 6452SOL     OW19921   3.812   3.663   0.927
 6452SOL    HW119922   3.770   3.577   0.900
 6452SOL    HW219923   3.906   3.666   0.893
 6453SOL     OW19924   4.228   3.430   0.910
 6453SOL    HW119925   4.294   3.504   0.919
 6453SOL    HW219926   4.272   3.351   0.868
 6454SOL     OW19927   3.764   2.406   1.114
 6454SOL    HW119928   3.849   2.373   1.073
 6454SOL    HW219929   3.777   2.421   1.212
 6455SOL     OW19930   3.913   2.382   1.722
 6455SOL    HW119931   3.972   2.342   1.652
 6455SOL    HW219932   3.855   2.453   1.681
 6456SOL     OW19933   4.539   2.434   0.325
 6456SOL    HW119934   4.546   2.345   0.279
 6456SOL    HW219935   4.445   2.468   0.317
 6457SOL     OW19936   3.976   3.426   1.744
 6457SOL    HW119937   3.946   3.483   1.820
 6457SOL    HW219938   3.969   3.329   1.770
 6458SOL     OW19939   4.197   2.362   0.191
 6458SOL    HW119940   4.258   2.442   0.195
 6458SOL    HW219941   4.102   2.393   0.198
 6459SOL     OW19942   3.883   2.999   1.466
 6459SOL    HW119943   3.905   2.938   1.542
 6459SOL    HW219944   3.893   2.950   1.380
 6460SOL     OW19945   3.807   3.120   1.022
 6460SOL    HW119946   3.802   3.119   1.122
 6460SOL    HW219947   3.724   3.079   0.984
 6461SOL     OW19948   4.412   3.524   1.716
 6461SOL    HW119949   4.356   3.605   1.725
 6461SOL    HW219950   4.464   3.528   1.630
 6462SOL     OW19951   3.854   3.656   1.851
 6462SOL    HW119952   3.813   3.582   1.904
 6462SOL    HW219953   3.918   3.707   1.909
 6463SOL     OW19954   3.987   2.188   0.720
 6463SOL    HW119955   3.908   2.239   0.686
 6463SOL    HW219956   3.978   2.173   0.818
 6464SOL     OW19957   4.096   3.150   1.490
 6464SOL    HW119958   4.083   3.243   1.456
 6464SOL    HW219959   4.012   3.098   1.477
 6465SOL     OW19960   4.314   3.349   0.491
 6465SOL    HW119961   4.356   3.291   0.421
 6465SOL    HW219962   4.270   3.428   0.447
 6466SOL     OW19963   3.979   3.210   0.290
 6466SOL    HW119964   3.883   3.211   0.263
 6466SOL    HW219965   3.991   3.263   0.374
 6467SOL     OW19966   3.829   2.875   1.726
 6467SOL    HW119967   3.752   2.842   1.780
 6467SOL    HW219968   3.914   2.845   1.768
 6468SOL     OW19969   4.396   2.065   1.489
 6468SOL    HW119970   4.486   2.049   1.449
 6468SOL    HW219971   4.404   2.070   1.588
 6469SOL     OW19972   3.799   2.207   0.033
 6469SOL    HW119973   3.707   2.179   0.004
 6469SOL    HW219974   3.830   2.284  -0.023
 6470SOL     OW19975   3.796   2.028   0.318
 6470SOL    HW119976   3.779   2.111   0.264
 6470SOL    HW219977   3.886   1.991   0.296
 6471SOL     OW19978   4.337   2.704   1.431
 6471SOL    HW119979   4.393   2.785   1.414
 6471SOL    HW219980   4.396   2.624   1.434
 6472SOL     OW19981   4.440   2.427   1.708
 6472SOL    HW119982   4.459   2.492   1.782
 6472SOL    HW219983   4.500   2.347   1.717
 6473SOL     OW19984   4.114   3.603   1.560
 6473SOL    HW119985   4.023   3.644   1.558
 6473SOL    HW219986   4.107   3.509   1.592
 6474SOL     OW19987   4.318   2.607   0.652
 6474SOL    HW119988   4.368   2.692   0.633
 6474SOL    HW219989   4.230   2.609   0.604
 6475SOL     OW19990   3.945   3.176   1.844
 6475SOL    HW119991   3.880   3.103   1.823
 6475SOL    HW219992   3.949   3.190   1.942
 6476SOL     OW19993   3.803   3.102   0.653
 6476SOL    HW119994   3.802   3.055   0.741
 6476SOL    HW219995   3.885   3.074   0.602
 6477SOL     OW19996   4.396   3.253   1.624
 6477SOL    HW119997   4.318   3.203   1.662
 6477SOL    HW219998   4.393   3.348   1.655
 6478SOL     OW19999   4.152   2.286   0.520
 6478SOL    HW120000   4.182   2.214   0.458
 6478SOL    HW220001   4.113   2.246   0.603
 6479SOL     OW20002   4.041   2.409   1.280
 6479SOL    HW120003   4.079   2.350   1.352
 6479SOL    HW220004   4.081   2.383   1.192
 6480SOL     OW20005   4.536   3.448   0.687
 6480SOL    HW120006   4.568   3.458   0.593
 6480SOL    HW220007   4.457   3.386   0.689
 6481SOL     OW20008   3.763   2.939   0.300
 6481SOL    HW120009   3.862   2.928   0.291
 6481SOL    HW220010   3.723   2.853   0.332
 6482SOL     OW20011   3.954   2.490   1.975
 6482SOL    HW120012   3.861   2.488   2.012
 6482SOL    HW220013   3.955   2.451   1.883
 6483SOL     OW20014   3.949   2.137   2.858
 6483SOL    HW120015   3.984   2.120   2.950
 6483SOL    HW220016   3.861   2.092   2.846
 6484SOL     OW20017   3.743   2.230   2.509
 6484SOL    HW120018   3.661   2.273   2.548
 6484SOL    HW220019   3.715   2.157   2.446
 6485SOL     OW20020   4.293   3.137   3.027
 6485SOL    HW120021   4.200   3.130   2.990
 6485SOL    HW220022   4.304   3.226   3.071
 6486SOL     OW20023   4.574   2.660   3.685
 6486SOL    HW120024   4.570   2.736   3.750
 6486SOL    HW220025   4.596   2.696   3.594
 6487SOL     OW20026   4.409   2.874   2.527
 6487SOL    HW120027   4.478   2.858   2.597
 6487SOL    HW220028   4.336   2.931   2.565
 6488SOL     OW20029   4.410   3.023   3.665
 6488SOL    HW120030   4.470   3.102   3.679
 6488SOL    HW220031   4.324   3.054   3.624
 6489SOL     OW20032   4.059   3.297   2.923
 6489SOL    HW120033   3.981   3.266   2.870
 6489SOL    HW220034   4.117   3.355   2.866
 6490SOL     OW20035   4.162   2.254   3.361
 6490SOL    HW120036   4.244   2.198   3.370
 6490SOL    HW220037   4.081   2.196   3.365
 6491SOL     OW20038   3.955   3.575   2.345
 6491SOL    HW120039   3.989   3.652   2.399
 6491SOL    HW220040   3.999   3.575   2.255
 6492SOL     OW20041   3.954   3.296   2.400
 6492SOL    HW120042   3.928   3.392   2.400
 6492SOL    HW220043   3.883   3.242   2.445
 6493SOL     OW20044   3.964   2.953   2.748
 6493SOL    HW120045   3.978   2.869   2.800
 6493SOL    HW220046   3.909   3.017   2.803
 6494SOL     OW20047   4.344   3.648   3.301
 6494SOL    HW120048   4.252   3.631   3.336
 6494SOL    HW220049   4.372   3.740   3.327
 6495SOL     OW20050   4.330   2.826   1.985
 6495SOL    HW120051   4.337   2.910   1.931
 6495SOL    HW220052   4.376   2.839   2.073
 6496SOL     OW20053   3.846   2.505   2.425
 6496SOL    HW120054   3.801   2.417   2.442
 6496SOL    HW220055   3.845   2.559   2.509
 6497SOL     OW20056   3.751   3.458   1.979
 6497SOL    HW120057   3.732   3.362   2.000
 6497SOL    HW220058   3.718   3.516   2.054
 6498SOL     OW20059   3.837   2.599   3.459
 6498SOL    HW120060   3.925   2.586   3.504
 6498SOL    HW220061   3.824   2.696   3.437
 6499SOL     OW20062   4.337   3.227   2.588
 6499SOL    HW120063   4.288   3.140   2.597
 6499SOL    HW220064   4.314   3.270   2.501
 6500SOL     OW20065   4.533   1.866   2.364
 6500SOL    HW120066   4.573   1.957   2.355
 6500SOL    HW220067   4.433   1.874   2.370
 6501SOL     OW20068   3.921   2.838   3.126
 6501SOL    HW120069   4.010   2.793   3.112
 6501SOL    HW220070   3.848   2.773   3.107
 6502SOL     OW20071   4.041   2.113   3.663
 6502SOL    HW120072   4.112   2.184   3.669
 6502SOL    HW220073   3.953   2.152   3.691
 6503SOL     OW20074   4.322   2.591   2.132
 6503SOL    HW120075   4.346   2.660   2.064
 6503SOL    HW220076   4.244   2.624   2.186
 6504SOL     OW20077   3.800   2.673   2.651
 6504SOL    HW120078   3.899   2.661   2.660
 6504SOL    HW220079   3.776   2.768   2.672
 6505SOL     OW20080   3.854   3.683   3.433
 6505SOL    HW120081   3.844   3.668   3.532
 6505SOL    HW220082   3.768   3.719   3.397
 6506SOL     OW20083   4.274   2.058   2.747
 6506SOL    HW120084   4.269   2.053   2.847
 6506SOL    HW220085   4.276   2.154   2.718
 6507SOL     OW20086   4.075   3.663   2.715
 6507SOL    HW120087   4.125   3.577   2.721
 6507SOL    HW220088   4.140   3.740   2.712
 6508SOL     OW20089   4.045   2.805   2.104
 6508SOL    HW120090   4.127   2.844   2.062
 6508SOL    HW220091   4.018   2.723   2.055
 6509SOL     OW20092   4.185   3.128   3.589
 6509SOL    HW120093   4.135   3.129   3.503
 6509SOL    HW220094   4.122   3.110   3.665
 6510SOL     OW20095   3.926   2.147   3.360
 6510SOL    HW120096   3.846   2.207   3.347
 6510SOL    HW220097   3.916   2.098   3.446
 6511SOL     OW20098   4.188   3.605   2.185
 6511SOL    HW120099   4.221   3.644   2.271
 6511SOL    HW220100   4.264   3.598   2.120
 6512SOL     OW20101   3.973   3.647   3.103
 6512SOL    HW120102   4.030   3.582   3.153
 6512SOL    HW220103   3.957   3.614   3.010
 6513SOL     OW20104   4.106   2.562   2.342
 6513SOL    HW120105   4.151   2.472   2.339
 6513SOL    HW220106   4.012   2.551   2.375
 6514SOL     OW20107   4.338   1.984   1.979
 6514SOL    HW120108   4.436   1.962   1.986
 6514SOL    HW220109   4.307   1.967   1.886
 6515SOL     OW20110   4.527   3.264   2.786
 6515SOL    HW120111   4.617   3.278   2.744
 6515SOL    HW220112   4.456   3.266   2.715
 6516SOL     OW20113   4.263   1.926   2.374
 6516SOL    HW120114   4.182   1.927   2.432
 6516SOL    HW220115   4.266   2.009   2.319
 6517SOL     OW20116   4.021   1.897   2.033
 6517SOL    HW120117   4.070   1.981   2.012
 6517SOL    HW220118   4.083   1.832   2.078
 6518SOL     OW20119   4.800   2.545   3.326
 6518SOL    HW120120   4.720   2.484   3.329
 6518SOL    HW220121   4.881   2.492   3.302
 6519SOL     OW20122   4.183   3.014   2.603
 6519SOL    HW120123   4.112   2.987   2.668
 6519SOL    HW220124   4.157   2.986   2.510
 6520SOL     OW20125   3.802   2.418   3.248
 6520SOL    HW120126   3.894   2.417   3.207
 6520SOL    HW220127   3.796   2.492   3.315
 6521SOL     OW20128   4.285   2.084   3.009
 6521SOL    HW120129   4.323   2.000   3.046
 6521SOL    HW220130   4.197   2.103   3.053
 6522SOL     OW20131   4.212   3.247   2.036
 6522SOL    HW120132   4.125   3.232   2.083
 6522SOL    HW220133   4.195   3.273   1.941
 6523SOL     OW20134   4.251   2.118   2.190
 6523SOL    HW120135   4.278   2.059   2.115
 6523SOL    HW220136   4.251   2.213   2.159
 6524SOL     OW20137   4.134   2.675   3.113
 6524SOL    HW120138   4.220   2.687   3.163
 6524SOL    HW220139   4.092   2.588   3.140
 6525SOL     OW20140   3.788   3.426   3.193
 6525SOL    HW120141   3.742   3.508   3.159
 6525SOL    HW220142   3.886   3.445   3.202
 6526SOL     OW20143   4.091   2.962   2.363
 6526SOL    HW120144   4.084   3.045   2.307
 6526SOL    HW220145   4.095   2.882   2.303
 6527SOL     OW20146   4.290   2.399   2.727
 6527SOL    HW120147   4.302   2.465   2.653
 6527SOL    HW220148   4.336   2.433   2.810
 6528SOL     OW20149   4.078   3.372   3.191
 6528SOL    HW120150   4.057   3.328   3.104
 6528SOL    HW220151   4.175   3.398   3.194
 6529SOL     OW20152   4.126   2.613   3.460
 6529SOL    HW120153   4.194   2.668   3.413
 6529SOL    HW220154   4.166   2.525   3.487
 6530SOL     OW20155   4.228   1.912   3.602
 6530SOL    HW120156   4.186   1.855   3.532
 6530SOL    HW220157   4.162   1.981   3.634
 6531SOL     OW20158   4.297   2.732   2.891
 6531SOL    HW120159   4.341   2.821   2.882
 6531SOL    HW220160   4.234   2.732   2.968
 6532SOL     OW20161   4.031   2.075   3.093
 6532SOL    HW120162   4.008   2.112   3.183
 6532SOL    HW220163   4.001   1.980   3.087
 6533SOL     OW20164   3.761   3.172   3.144
 6533SOL    HW120165   3.814   3.123   3.212
 6533SOL    HW220166   3.783   3.270   3.149
 6534SOL     OW20167   4.031   1.925   2.480
 6534SOL    HW120168   4.020   2.019   2.513
 6534SOL    HW220169   4.026   1.862   2.557
 6535SOL     OW20170   4.074   2.760   3.666
 6535SOL    HW120171   4.150   2.804   3.714
 6535SOL    HW220172   4.109   2.713   3.584
 6536SOL     OW20173   4.043   2.672   2.811
 6536SOL    HW120174   4.136   2.708   2.816
 6536SOL    HW220175   4.037   2.587   2.863
 6537SOL     OW20176   4.063   2.371   2.868
 6537SOL    HW120177   4.011   2.288   2.851
 6537SOL    HW220178   4.140   2.376   2.804
 6538SOL     OW20179   3.732   3.188   2.062
 6538SOL    HW120180   3.639   3.209   2.031
 6538SOL    HW220181   3.742   3.089   2.075
 6539SOL     OW20182   3.812   3.663   2.789
 6539SOL    HW120183   3.770   3.577   2.762
 6539SOL    HW220184   3.906   3.666   2.755
 6540SOL     OW20185   4.228   3.430   2.772
 6540SOL    HW120186   4.294   3.504   2.781
 6540SOL    HW220187   4.272   3.351   2.730
 6541SOL     OW20188   3.764   2.406   2.976
 6541SOL    HW120189   3.849   2.373   2.935
 6541SOL    HW220190   3.777   2.421   3.074
 6542SOL     OW20191   3.913   2.382   3.584
 6542SOL    HW120192   3.972   2.342   3.514
 6542SOL    HW220193   3.855   2.453   3.543
 6543SOL     OW20194   4.539   2.434   2.187
 6543SOL    HW120195   4.546   2.345   2.141
 6543SOL    HW220196   4.445   2.468   2.179
 6544SOL     OW20197   3.976   3.426   3.606
 6544SOL    HW120198   3.946   3.483   3.682
 6544SOL    HW220199   3.969   3.329   3.632
 6545SOL     OW20200   4.197   2.362   2.053
 6545SOL    HW120201   4.258   2.442   2.057
 6545SOL    HW220202   4.102   2.393   2.060
 6546SOL     OW20203   3.883   2.999   3.328
 6546SOL    HW120204   3.905   2.938   3.404
 6546SOL    HW220205   3.893   2.950   3.242
 6547SOL     OW20206   3.807   3.120   2.884
 6547SOL    HW120207   3.802   3.119   2.984
 6547SOL    HW220208   3.724   3.079   2.846
 6548SOL     OW20209   4.412   3.524   3.578
 6548SOL    HW120210   4.356   3.605   3.587
 6548SOL    HW220211   4.464   3.528   3.492
 6549SOL     OW20212   3.854   3.656   3.713
 6549SOL    HW120213   3.813   3.582   3.766
 6549SOL    HW220214   3.918   3.707   3.771
 6550SOL     OW20215   3.987   2.188   2.582
 6550SOL    HW120216   3.908   2.239   2.548
 6550SOL    HW220217   3.978   2.173   2.680
 6551SOL     OW20218   4.096   3.150   3.352
 6551SOL    HW120219   4.083   3.243   3.318
 6551SOL    HW220220   4.012   3.098   3.339
 6552SOL     OW20221   4.314   3.349   2.353
 6552SOL    HW120222   4.356   3.291   2.283
 6552SOL    HW220223   4.270   3.428   2.309
 6553SOL     OW20224   3.979   3.210   2.152
 6553SOL    HW120225   3.883   3.211   2.125
 6553SOL    HW220226   3.991   3.263   2.236
 6554SOL     OW20227   3.829   2.875   3.588
 6554SOL    HW120228   3.752   2.842   3.642
 6554SOL    HW220229   3.914   2.845   3.630
 6555SOL     OW20230   4.396   2.065   3.351
 6555SOL    HW120231   4.486   2.049   3.311
 6555SOL    HW220232   4.404   2.070   3.450
 6556SOL     OW20233   3.799   2.207   1.895
 6556SOL    HW120234   3.707   2.179   1.866
 6556SOL    HW220235   3.830   2.284   1.839
 6557SOL     OW20236   3.796   2.028   2.180
 6557SOL    HW120237   3.779   2.111   2.126
 6557SOL    HW220238   3.886   1.991   2.158
 6558SOL     OW20239   4.337   2.704   3.293
 6558SOL    HW120240   4.393   2.785   3.276
 6558SOL    HW220241   4.396   2.624   3.296
 6559SOL     OW20242   4.440   2.427   3.570
 6559SOL    HW120243   4.459   2.492   3.644
 6559SOL    HW220244   4.500   2.347   3.579
 6560SOL     OW20245   4.114   3.603   3.422
 6560SOL    HW120246   4.023   3.644   3.420
 6560SOL    HW220247   4.107   3.509   3.454
 6561SOL     OW20248   4.318   2.607   2.514
 6561SOL    HW120249   4.368   2.692   2.495
 6561SOL    HW220250   4.230   2.609   2.466
 6562SOL     OW20251   3.945   3.176   3.706
 6562SOL    HW120252   3.880   3.103   3.685
 6562SOL    HW220253   3.949   3.190   3.804
 6563SOL     OW20254   3.803   3.102   2.515
 6563SOL    HW120255   3.802   3.055   2.603
 6563SOL    HW220256   3.885   3.074   2.464
 6564SOL     OW20257   4.396   3.253   3.486
 6564SOL    HW120258   4.318   3.203   3.524
 6564SOL    HW220259   4.393   3.348   3.517
 6565SOL     OW20260   4.152   2.286   2.382
 6565SOL    HW120261   4.182   2.214   2.320
 6565SOL    HW220262   4.113   2.246   2.465
 6566SOL     OW20263   4.041   2.409   3.142
 6566SOL    HW120264   4.079   2.350   3.214
 6566SOL    HW220265   4.081   2.383   3.054
 6567SOL     OW20266   4.536   3.448   2.549
 6567SOL    HW120267   4.568   3.458   2.455
 6567SOL    HW220268   4.457   3.386   2.551
 6568SOL     OW20269   3.763   2.939   2.162
 6568SOL    HW120270   3.862   2.928   2.153
 6568SOL    HW220271   3.723   2.853   2.194
 6569SOL     OW20272   3.954   2.490   3.837
 6569SOL    HW120273   3.861   2.488   3.874
 6569SOL    HW220274   3.955   2.451   3.745
 6570SOL     OW20275   3.949   2.137   4.720
 6570SOL    HW120276   3.984   2.120   4.812
 6570SOL    HW220277   3.861   2.092   4.708
 6571SOL     OW20278   3.743   2.230   4.371
 6571SOL    HW120279   3.661   2.273   4.410
 6571SOL    HW220280   3.715   2.157   4.308
 6572SOL     OW20281   4.293   3.137   4.889
 6572SOL    HW120282   4.200   3.130   4.852
 6572SOL    HW220283   4.304   3.226   4.933
 6573SOL     OW20284   4.574   2.660   5.547
 6573SOL    HW120285   4.570   2.736   5.612
 6573SOL    HW220286   4.596   2.696   5.456
 6574SOL     OW20287   4.409   2.874   4.389
 6574SOL    HW120288   4.478   2.858   4.459
 6574SOL    HW220289   4.336   2.931   4.427
 6575SOL     OW20290   4.410   3.023   5.527
 6575SOL    HW120291   4.470   3.102   5.541
 6575SOL    HW220292   4.324   3.054   5.486
 6576SOL     OW20293   4.059   3.297   4.785
 6576SOL    HW120294   3.981   3.266   4.732
 6576SOL    HW220295   4.117   3.355   4.728
 6577SOL     OW20296   4.162   2.254   5.223
 6577SOL    HW120297   4.244   2.198   5.232
 6577SOL    HW220298   4.081   2.196   5.227
 6578SOL     OW20299   3.955   3.575   4.207
 6578SOL    HW120300   3.989   3.652   4.261
 6578SOL    HW220301   3.999   3.575   4.117
 6579SOL     OW20302   3.954   3.296   4.262
 6579SOL    HW120303   3.928   3.392   4.262
 6579SOL    HW220304   3.883   3.242   4.307
 6580SOL     OW20305   3.964   2.953   4.610
 6580SOL    HW120306   3.978   2.869   4.662
 6580SOL    HW220307   3.909   3.017   4.665
 6581SOL     OW20308   4.344   3.648   5.163
 6581SOL    HW120309   4.252   3.631   5.198
 6581SOL    HW220310   4.372   3.740   5.189
 6582SOL     OW20311   4.330   2.826   3.847
 6582SOL    HW120312   4.337   2.910   3.793
 6582SOL    HW220313   4.376   2.839   3.935
 6583SOL     OW20314   3.846   2.505   4.287
 6583SOL    HW120315   3.801   2.417   4.304
 6583SOL    HW220316   3.845   2.559   4.371
 6584SOL     OW20317   3.751   3.458   3.841
 6584SOL    HW120318   3.732   3.362   3.862
 6584SOL    HW220319   3.718   3.516   3.916
 6585SOL     OW20320   3.837   2.599   5.321
 6585SOL    HW120321   3.925   2.586   5.366
 6585SOL    HW220322   3.824   2.696   5.299
 6586SOL     OW20323   4.337   3.227   4.450
 6586SOL    HW120324   4.288   3.140   4.459
 6586SOL    HW220325   4.314   3.270   4.363
 6587SOL     OW20326   4.533   1.866   4.226
 6587SOL    HW120327   4.573   1.957   4.217
 6587SOL    HW220328   4.433   1.874   4.232
 6588SOL     OW20329   3.921   2.838   4.988
 6588SOL    HW120330   4.010   2.793   4.974
 6588SOL    HW220331   3.848   2.773   4.969
 6589SOL     OW20332   4.041   2.113   5.525
 6589SOL    HW120333   4.112   2.184   5.531
 6589SOL    HW220334   3.953   2.152   5.553
 6590SOL     OW20335   4.322   2.591   3.994
 6590SOL    HW120336   4.346   2.660   3.926
 6590SOL    HW220337   4.244   2.624   4.048
 6591SOL     OW20338   3.800   2.673   4.513
 6591SOL    HW120339   3.899   2.661   4.522
 6591SOL    HW220340   3.776   2.768   4.534
 6592SOL     OW20341   3.854   3.683   5.295
 6592SOL    HW120342   3.844   3.668   5.394
 6592SOL    HW220343   3.768   3.719   5.259
 6593SOL     OW20344   4.274   2.058   4.609
 6593SOL    HW120345   4.269   2.053   4.709
 6593SOL    HW220346   4.276   2.154   4.580
 6594SOL     OW20347   4.075   3.663   4.577
 6594SOL    HW120348   4.125   3.577   4.583
 6594SOL    HW220349   4.140   3.740   4.574
 6595SOL     OW20350   4.045   2.805   3.966
 6595SOL    HW120351   4.127   2.844   3.924
 6595SOL    HW220352   4.018   2.723   3.917
 6596SOL     OW20353   4.185   3.128   5.451
 6596SOL    HW120354   4.135   3.129   5.365
 6596SOL    HW220355   4.122   3.110   5.527
 6597SOL     OW20356   3.926   2.147   5.222
 6597SOL    HW120357   3.846   2.207   5.209
 6597SOL    HW220358   3.916   2.098   5.308
 6598SOL     OW20359   4.188   3.605   4.047
 6598SOL    HW120360   4.221   3.644   4.133
 6598SOL    HW220361   4.264   3.598   3.982
 6599SOL     OW20362   3.973   3.647   4.965
 6599SOL    HW120363   4.030   3.582   5.015
 6599SOL    HW220364   3.957   3.614   4.872
 6600SOL     OW20365   4.106   2.562   4.204
 6600SOL    HW120366   4.151   2.472   4.201
 6600SOL    HW220367   4.012   2.551   4.237
 6601SOL     OW20368   4.338   1.984   3.841
 6601SOL    HW120369   4.436   1.962   3.848
 6601SOL    HW220370   4.307   1.967   3.748
 6602SOL     OW20371   4.527   3.264   4.648
 6602SOL    HW120372   4.617   3.278   4.606
 6602SOL    HW220373   4.456   3.266   4.577
 6603SOL     OW20374   4.263   1.926   4.236
 6603SOL    HW120375   4.182   1.927   4.294
 6603SOL    HW220376   4.266   2.009   4.181
 6604SOL     OW20377   4.021   1.897   3.895
 6604SOL    HW120378   4.070   1.981   3.874
 6604SOL    HW220379   4.083   1.832   3.940
 6605SOL     OW20380   4.800   2.545   5.188
 6605SOL    HW120381   4.720   2.484   5.191
 6605SOL    HW220382   4.881   2.492   5.164
 6606SOL     OW20383   4.183   3.014   4.465
 6606SOL    HW120384   4.112   2.987   4.530
 6606SOL    HW220385   4.157   2.986   4.372
 6607SOL     OW20386   3.802   2.418   5.110
 6607SOL    HW120387   3.894   2.417   5.069
 6607SOL    HW220388   3.796   2.492   5.177
 6608SOL     OW20389   4.285   2.084   4.871
 6608SOL    HW120390   4.323   2.000   4.908
 6608SOL    HW220391   4.197   2.103   4.915
 6609SOL     OW20392   4.212   3.247   3.898
 6609SOL    HW120393   4.125   3.232   3.945
 6609SOL    HW220394   4.195   3.273   3.803
 6610SOL     OW20395   4.251   2.118   4.052
 6610SOL    HW120396   4.278   2.059   3.977
 6610SOL    HW220397   4.251   2.213   4.021
 6611SOL     OW20398   4.134   2.675   4.975
 6611SOL    HW120399   4.220   2.687   5.025
 6611SOL    HW220400   4.092   2.588   5.002
 6612SOL     OW20401   3.788   3.426   5.055
 6612SOL    HW120402   3.742   3.508   5.021
 6612SOL    HW220403   3.886   3.445   5.064
 6613SOL     OW20404   4.091   2.962   4.225
 6613SOL    HW120405   4.084   3.045   4.169
 6613SOL    HW220406   4.095   2.882   4.165
 6614SOL     OW20407   4.290   2.399   4.589
 6614SOL    HW120408   4.302   2.465   4.515
 6614SOL    HW220409   4.336   2.433   4.672
 6615SOL     OW20410   4.078   3.372   5.053
 6615SOL    HW120411   4.057   3.328   4.966
 6615SOL    HW220412   4.175   3.398   5.056
 6616SOL     OW20413   4.126   2.613   5.322
 6616SOL    HW120414   4.194   2.668   5.275
 6616SOL    HW220415   4.166   2.525   5.349
 6617SOL     OW20416   4.228   1.912   5.464
 6617SOL    HW120417   4.186   1.855   5.394
 6617SOL    HW220418   4.162   1.981   5.496
 6618SOL     OW20419   4.297   2.732   4.753
 6618SOL    HW120420   4.341   2.821   4.744
 6618SOL    HW220421   4.234   2.732   4.830
 6619SOL     OW20422   4.031   2.075   4.955
 6619SOL    HW120423   4.008   2.112   5.045
 6619SOL    HW220424   4.001   1.980   4.949
 6620SOL     OW20425   3.761   3.172   5.006
 6620SOL    HW120426   3.814   3.123   5.074
 6620SOL    HW220427   3.783   3.270   5.011
 6621SOL     OW20428   4.031   1.925   4.342
 6621SOL    HW120429   4.020   2.019   4.375
 6621SOL    HW220430   4.026   1.862   4.419
 6622SOL     OW20431   4.074   2.760   5.528
 6622SOL    HW120432   4.150   2.804   5.576
 6622SOL    HW220433   4.109   2.713   5.446
 6623SOL     OW20434   4.043   2.672   4.673
 6623SOL    HW120435   4.136   2.708   4.678
 6623SOL    HW220436   4.037   2.587   4.725
 6624SOL     OW20437   4.063   2.371   4.730
 6624SOL    HW120438   4.011   2.288   4.713
 6624SOL    HW220439   4.140   2.376   4.666
 6625SOL     OW20440   3.732   3.188   3.924
 6625SOL    HW120441   3.639   3.209   3.893
 6625SOL    HW220442   3.742   3.089   3.937
 6626SOL     OW20443   3.812   3.663   4.651
 6626SOL    HW120444   3.770   3.577   4.624
 6626SOL    HW220445   3.906   3.666   4.617
 6627SOL     OW20446   4.228   3.430   4.634
 6627SOL    HW120447   4.294   3.504   4.643
 6627SOL    HW220448   4.272   3.351   4.592
 6628SOL     OW20449   3.764   2.406   4.838
 6628SOL    HW120450   3.849   2.373   4.797
 6628SOL    HW220451   3.777   2.421   4.936
 6629SOL     OW20452   3.913   2.382   5.446
 6629SOL    HW120453   3.972   2.342   5.376
 6629SOL    HW220454   3.855   2.453   5.405
 6630SOL     OW20455   4.539   2.434   4.049
 6630SOL    HW120456   4.546   2.345   4.003
 6630SOL    HW220457   4.445   2.468   4.041
 6631SOL     OW20458   3.976   3.426   5.468
 6631SOL    HW120459   3.946   3.483   5.544
 6631SOL    HW220460   3.969   3.329   5.494
 6632SOL     OW20461   4.197   2.362   3.915
 6632SOL    HW120462   4.258   2.442   3.919
 6632SOL    HW220463   4.102   2.393   3.922
 6633SOL     OW20464   3.883   2.999   5.190
 6633SOL    HW120465   3.905   2.938   5.266
 6633SOL    HW220466   3.893   2.950   5.104
 6634SOL     OW20467   3.807   3.120   4.746
 6634SOL    HW120468   3.802   3.119   4.846
 6634SOL    HW220469   3.724   3.079   4.708
 6635SOL     OW20470   4.412   3.524   5.440
 6635SOL    HW120471   4.356   3.605   5.449
 6635SOL    HW220472   4.464   3.528   5.354
 6636SOL     OW20473   3.854   3.656   5.575
 6636SOL    HW120474   3.813   3.582   5.628
 6636SOL    HW220475   3.918   3.707   5.633
 6637SOL     OW20476   3.987   2.188   4.444
 6637SOL    HW120477   3.908   2.239   4.410
 6637SOL    HW220478   3.978   2.173   4.542
 6638SOL     OW20479   4.096   3.150   5.214
 6638SOL    HW120480   4.083   3.243   5.180
 6638SOL    HW220481   4.012   3.098   5.201
 6639SOL     OW20482   4.314   3.349   4.215
 6639SOL    HW120483   4.356   3.291   4.145
 6639SOL    HW220484   4.270   3.428   4.171
 6640SOL     OW20485   3.979   3.210   4.014
 6640SOL    HW120486   3.883   3.211   3.987
 6640SOL    HW220487   3.991   3.263   4.098
 6641SOL     OW20488   3.829   2.875   5.450
 6641SOL    HW120489   3.752   2.842   5.504
 6641SOL    HW220490   3.914   2.845   5.492
 6642SOL     OW20491   4.396   2.065   5.213
 6642SOL    HW120492   4.486   2.049   5.173
 6642SOL    HW220493   4.404   2.070   5.312
 6643SOL     OW20494   3.799   2.207   3.757
 6643SOL    HW120495   3.707   2.179   3.728
 6643SOL    HW220496   3.830   2.284   3.701
 6644SOL     OW20497   3.796   2.028   4.042
 6644SOL    HW120498   3.779   2.111   3.988
 6644SOL    HW220499   3.886   1.991   4.020
 6645SOL     OW20500   4.337   2.704   5.155
 6645SOL    HW120501   4.393   2.785   5.138
 6645SOL    HW220502   4.396   2.624   5.158
 6646SOL     OW20503   4.440   2.427   5.432
 6646SOL    HW120504   4.459   2.492   5.506
 6646SOL    HW220505   4.500   2.347   5.441
 6647SOL     OW20506   4.114   3.603   5.284
 6647SOL    HW120507   4.023   3.644   5.282
 6647SOL    HW220508   4.107   3.509   5.316
 6648SOL     OW20509   4.318   2.607   4.376
 6648SOL    HW120510   4.368   2.692   4.357
 6648SOL    HW220511   4.230   2.609   4.328
 6649SOL     OW20512   3.945   3.176   5.568
 6649SOL    HW120513   3.880   3.103   5.547
 6649SOL    HW220514   3.949   3.190   5.666
 6650SOL     OW20515   3.803   3.102   4.377
 6650SOL    HW120516   3.802   3.055   4.465
 6650SOL    HW220517   3.885   3.074   4.326
 6651SOL     OW20518   4.396   3.253   5.348
 6651SOL    HW120519   4.318   3.203   5.386
 6651SOL    HW220520   4.393   3.348   5.379
 6652SOL     OW20521   4.152   2.286   4.244
 6652SOL    HW120522   4.182   2.214   4.182
 6652SOL    HW220523   4.113   2.246   4.327
 6653SOL     OW20524   4.041   2.409   5.004
 6653SOL    HW120525   4.079   2.350   5.076
 6653SOL    HW220526   4.081   2.383   4.916
 6654SOL     OW20527   4.536   3.448   4.411
 6654SOL    HW120528   4.568   3.458   4.317
 6654SOL    HW220529   4.457   3.386   4.413
 6655SOL     OW20530   3.763   2.939   4.024
 6655SOL    HW120531   3.862   2.928   4.015
 6655SOL    HW220532   3.723   2.853   4.056
 6656SOL     OW20533   3.954   2.490   5.699
 6656SOL    HW120534   3.861   2.488   5.736
 6656SOL    HW220535   3.955   2.451   5.607
 6657SOL     OW20536   3.949   2.137   6.582
 6657SOL    HW120537   3.984   2.120   6.674
 6657SOL    HW220538   3.861   2.092   6.570
 6658SOL     OW20539   3.743   2.230   6.233
 6658SOL    HW120540   3.661   2.273   6.272
 6658SOL    HW220541   3.715   2.157   6.170
 6659SOL     OW20542   4.293   3.137   6.751
 6659SOL    HW120543   4.200   3.130   6.714
 6659SOL    HW220544   4.304   3.226   6.795
 6660SOL     OW20545   4.574   2.660   7.409
 6660SOL    HW120546   4.570   2.736   7.474
 6660SOL    HW220547   4.596   2.696   7.318
 6661SOL     OW20548   4.409   2.874   6.251
 6661SOL    HW120549   4.478   2.858   6.321
 6661SOL    HW220550   4.336   2.931   6.289
 6662SOL     OW20551   4.410   3.023   7.389
 6662SOL    HW120552   4.470   3.102   7.403
 6662SOL    HW220553   4.324   3.054   7.348
 6663SOL     OW20554   4.059   3.297   6.647
 6663SOL    HW120555   3.981   3.266   6.594
 6663SOL    HW220556   4.117   3.355   6.590
 6664SOL     OW20557   4.162   2.254   7.085
 6664SOL    HW120558   4.244   2.198   7.094
 6664SOL    HW220559   4.081   2.196   7.089
 6665SOL     OW20560   3.955   3.575   6.069
 6665SOL    HW120561   3.989   3.652   6.123
 6665SOL    HW220562   3.999   3.575   5.979
 6666SOL     OW20563   3.954   3.296   6.124
 6666SOL    HW120564   3.928   3.392   6.124
 6666SOL    HW220565   3.883   3.242   6.169
 6667SOL     OW20566   3.964   2.953   6.472
 6667SOL    HW120567   3.978   2.869   6.524
 6667SOL    HW220568   3.909   3.017   6.527
 6668SOL     OW20569   4.344   3.648   7.025
 6668SOL    HW120570   4.252   3.631   7.060
 6668SOL    HW220571   4.372   3.740   7.051
 6669SOL     OW20572   4.330   2.826   5.709
 6669SOL    HW120573   4.337   2.910   5.655
 6669SOL    HW220574   4.376   2.839   5.797
 6670SOL     OW20575   3.846   2.505   6.149
 6670SOL    HW120576   3.801   2.417   6.166
 6670SOL    HW220577   3.845   2.559   6.233
 6671SOL     OW20578   3.751   3.458   5.703
 6671SOL    HW120579   3.732   3.362   5.724
 6671SOL    HW220580   3.718   3.516   5.778
 6672SOL     OW20581   3.837   2.599   7.183
 6672SOL    HW120582   3.925   2.586   7.228
 6672SOL    HW220583   3.824   2.696   7.161
 6673SOL     OW20584   4.337   3.227   6.312
 6673SOL    HW120585   4.288   3.140   6.321
 6673SOL    HW220586   4.314   3.270   6.225
 6674SOL     OW20587   4.533   1.866   6.088
 6674SOL    HW120588   4.573   1.957   6.079
 6674SOL    HW220589   4.433   1.874   6.094
 6675SOL     OW20590   3.921   2.838   6.850
 6675SOL    HW120591   4.010   2.793   6.836
 6675SOL    HW220592   3.848   2.773   6.831
 6676SOL     OW20593   4.041   2.113   7.387
 6676SOL    HW120594   4.112   2.184   7.393
 6676SOL    HW220595   3.953   2.152   7.415
 6677SOL     OW20596   4.322   2.591   5.856
 6677SOL    HW120597   4.346   2.660   5.788
 6677SOL    HW220598   4.244   2.624   5.910
 6678SOL     OW20599   3.800   2.673   6.375
 6678SOL    HW120600   3.899   2.661   6.384
 6678SOL    HW220601   3.776   2.768   6.396
 6679SOL     OW20602   3.854   3.683   7.157
 6679SOL    HW120603   3.844   3.668   7.256
 6679SOL    HW220604   3.768   3.719   7.121
 6680SOL     OW20605   4.274   2.058   6.471
 6680SOL    HW120606   4.269   2.053   6.571
 6680SOL    HW220607   4.276   2.154   6.442
 6681SOL     OW20608   4.075   3.663   6.439
 6681SOL    HW120609   4.125   3.577   6.445
 6681SOL    HW220610   4.140   3.740   6.436
 6682SOL     OW20611   4.045   2.805   5.828
 6682SOL    HW120612   4.127   2.844   5.786
 6682SOL    HW220613   4.018   2.723   5.779
 6683SOL     OW20614   4.185   3.128   7.313
 6683SOL    HW120615   4.135   3.129   7.227
 6683SOL    HW220616   4.122   3.110   7.389
 6684SOL     OW20617   3.926   2.147   7.084
 6684SOL    HW120618   3.846   2.207   7.071
 6684SOL    HW220619   3.916   2.098   7.170
 6685SOL     OW20620   4.188   3.605   5.909
 6685SOL    HW120621   4.221   3.644   5.995
 6685SOL    HW220622   4.264   3.598   5.844
 6686SOL     OW20623   3.973   3.647   6.827
 6686SOL    HW120624   4.030   3.582   6.877
 6686SOL    HW220625   3.957   3.614   6.734
 6687SOL     OW20626   4.106   2.562   6.066
 6687SOL    HW120627   4.151   2.472   6.063
 6687SOL    HW220628   4.012   2.551   6.099
 6688SOL     OW20629   4.338   1.984   5.703
 6688SOL    HW120630   4.436   1.962   5.710
 6688SOL    HW220631   4.307   1.967   5.610
 6689SOL     OW20632   4.527   3.264   6.510
 6689SOL    HW120633   4.617   3.278   6.468
 6689SOL    HW220634   4.456   3.266   6.439
 6690SOL     OW20635   4.263   1.926   6.098
 6690SOL    HW120636   4.182   1.927   6.156
 6690SOL    HW220637   4.266   2.009   6.043
 6691SOL     OW20638   4.021   1.897   5.757
 6691SOL    HW120639   4.070   1.981   5.736
 6691SOL    HW220640   4.083   1.832   5.802
 6692SOL     OW20641   4.800   2.545   7.050
 6692SOL    HW120642   4.720   2.484   7.053
 6692SOL    HW220643   4.881   2.492   7.026
 6693SOL     OW20644   4.183   3.014   6.327
 6693SOL    HW120645   4.112   2.987   6.392
 6693SOL    HW220646   4.157   2.986   6.234
 6694SOL     OW20647   3.802   2.418   6.972
 6694SOL    HW120648   3.894   2.417   6.931
 6694SOL    HW220649   3.796   2.492   7.039
 6695SOL     OW20650   4.285   2.084   6.733
 6695SOL    HW120651   4.323   2.000   6.770
 6695SOL    HW220652   4.197   2.103   6.777
 6696SOL     OW20653   4.212   3.247   5.760
 6696SOL    HW120654   4.125   3.232   5.807
 6696SOL    HW220655   4.195   3.273   5.665
 6697SOL     OW20656   4.251   2.118   5.914
 6697SOL    HW120657   4.278   2.059   5.839
 6697SOL    HW220658   4.251   2.213   5.883
 6698SOL     OW20659   4.134   2.675   6.837
 6698SOL    HW120660   4.220   2.687   6.887
 6698SOL    HW220661   4.092   2.588   6.864
 6699SOL     OW20662   3.788   3.426   6.917
 6699SOL    HW120663   3.742   3.508   6.883
 6699SOL    HW220664   3.886   3.445   6.926
 6700SOL     OW20665   4.091   2.962   6.087
 6700SOL    HW120666   4.084   3.045   6.031
 6700SOL    HW220667   4.095   2.882   6.027
 6701SOL     OW20668   4.290   2.399   6.451
 6701SOL    HW120669   4.302   2.465   6.377
 6701SOL    HW220670   4.336   2.433   6.534
 6702SOL     OW20671   4.078   3.372   6.915
 6702SOL    HW120672   4.057   3.328   6.828
 6702SOL    HW220673   4.175   3.398   6.918
 6703SOL     OW20674   4.126   2.613   7.184
 6703SOL    HW120675   4.194   2.668   7.137
 6703SOL    HW220676   4.166   2.525   7.211
 6704SOL     OW20677   4.228   1.912   7.326
 6704SOL    HW120678   4.186   1.855   7.256
 6704SOL    HW220679   4.162   1.981   7.358
 6705SOL     OW20680   4.297   2.732   6.615
 6705SOL    HW120681   4.341   2.821   6.606
 6705SOL    HW220682   4.234   2.732   6.692
 6706SOL     OW20683   4.031   2.075   6.817
 6706SOL    HW120684   4.008   2.112   6.907
 6706SOL    HW220685   4.001   1.980   6.811
 6707SOL     OW20686   3.761   3.172   6.868
 6707SOL    HW120687   3.814   3.123   6.936
 6707SOL    HW220688   3.783   3.270   6.873
 6708SOL     OW20689   4.031   1.925   6.204
 6708SOL    HW120690   4.020   2.019   6.237
 6708SOL    HW220691   4.026   1.862   6.281
 6709SOL     OW20692   4.074   2.760   7.390
 6709SOL    HW120693   4.150   2.804   7.438
 6709SOL    HW220694   4.109   2.713   7.308
 6710SOL     OW20695   4.043   2.672   6.535
 6710SOL    HW120696   4.136   2.708   6.540
 6710SOL    HW220697   4.037   2.587   6.587
 6711SOL     OW20698   4.063   2.371   6.592
 6711SOL    HW120699   4.011   2.288   6.575
 6711SOL    HW220700   4.140   2.376   6.528
 6712SOL     OW20701   3.732   3.188   5.786
 6712SOL    HW120702   3.639   3.209   5.755
 6712SOL    HW220703   3.742   3.089   5.799
 6713SOL     OW20704   3.812   3.663   6.513
 6713SOL    HW120705   3.770   3.577   6.486
 6713SOL    HW220706   3.906   3.666   6.479
 6714SOL     OW20707   4.228   3.430   6.496
 6714SOL    HW120708   4.294   3.504   6.505
 6714SOL    HW220709   4.272   3.351   6.454
 6715SOL     OW20710   3.764   2.406   6.700
 6715SOL    HW120711   3.849   2.373   6.659
 6715SOL    HW220712   3.777   2.421   6.798
 6716SOL     OW20713   3.913   2.382   7.308
 6716SOL    HW120714   3.972   2.342   7.238
 6716SOL    HW220715   3.855   2.453   7.267
 6717SOL     OW20716   4.539   2.434   5.911
 6717SOL    HW120717   4.546   2.345   5.865
 6717SOL    HW220718   4.445   2.468   5.903
 6718SOL     OW20719   3.976   3.426   7.330
 6718SOL    HW120720   3.946   3.483   7.406
 6718SOL    HW220721   3.969   3.329   7.356
 6719SOL     OW20722   4.197   2.362   5.777
 6719SOL    HW120723   4.258   2.442   5.781
 6719SOL    HW220724   4.102   2.393   5.784
 6720SOL     OW20725   3.883   2.999   7.052
 6720SOL    HW120726   3.905   2.938   7.128
 6720SOL    HW220727   3.893   2.950   6.966
 6721SOL     OW20728   3.807   3.120   6.608
 6721SOL    HW120729   3.802   3.119   6.708
 6721SOL    HW220730   3.724   3.079   6.570
 6722SOL     OW20731   4.412   3.524   7.302
 6722SOL    HW120732   4.356   3.605   7.311
 6722SOL    HW220733   4.464   3.528   7.216
 6723SOL     OW20734   3.854   3.656   7.437
 6723SOL    HW120735   3.813   3.582   7.490
 6723SOL    HW220736   3.918   3.707   7.495
 6724SOL     OW20737   3.987   2.188   6.306
 6724SOL    HW120738   3.908   2.239   6.272
 6724SOL    HW220739   3.978   2.173   6.404
 6725SOL     OW20740   4.096   3.150   7.076
 6725SOL    HW120741   4.083   3.243   7.042
 6725SOL    HW220742   4.012   3.098   7.063
 6726SOL     OW20743   4.314   3.349   6.077
 6726SOL    HW120744   4.356   3.291   6.007
 6726SOL    HW220745   4.270   3.428   6.033
 6727SOL     OW20746   3.979   3.210   5.876
 6727SOL    HW120747   3.883   3.211   5.849
 6727SOL    HW220748   3.991   3.263   5.960
 6728SOL     OW20749   3.829   2.875   7.312
 6728SOL    HW120750   3.752   2.842   7.366
 6728SOL    HW220751   3.914   2.845   7.354
 6729SOL     OW20752   4.396   2.065   7.075
 6729SOL    HW120753   4.486   2.049   7.035
 6729SOL    HW220754   4.404   2.070   7.174
 6730SOL     OW20755   3.799   2.207   5.619
 6730SOL    HW120756   3.707   2.179   5.590
 6730SOL    HW220757   3.830   2.284   5.563
 6731SOL     OW20758   3.796   2.028   5.904
 6731SOL    HW120759   3.779   2.111   5.850
 6731SOL    HW220760   3.886   1.991   5.882
 6732SOL     OW20761   4.337   2.704   7.017
 6732SOL    HW120762   4.393   2.785   7.000
 6732SOL    HW220763   4.396   2.624   7.020
 6733SOL     OW20764   4.440   2.427   7.294
 6733SOL    HW120765   4.459   2.492   7.368
 6733SOL    HW220766   4.500   2.347   7.303
 6734SOL     OW20767   4.114   3.603   7.146
 6734SOL    HW120768   4.023   3.644   7.144
 6734SOL    HW220769   4.107   3.509   7.178
 6735SOL     OW20770   4.318   2.607   6.238
 6735SOL    HW120771   4.368   2.692   6.219
 6735SOL    HW220772   4.230   2.609   6.190
 6736SOL     OW20773   3.945   3.176   7.430
 6736SOL    HW120774   3.880   3.103   7.409
 6736SOL    HW220775   3.949   3.190   7.528
 6737SOL     OW20776   3.803   3.102   6.239
 6737SOL    HW120777   3.802   3.055   6.327
 6737SOL    HW220778   3.885   3.074   6.188
 6738SOL     OW20779   4.396   3.253   7.210
 6738SOL    HW120780   4.318   3.203   7.248
 6738SOL    HW220781   4.393   3.348   7.241
 6739SOL     OW20782   4.152   2.286   6.106
 6739SOL    HW120783   4.182   2.214   6.044
 6739SOL    HW220784   4.113   2.246   6.189
 6740SOL     OW20785   4.041   2.409   6.866
 6740SOL    HW120786   4.079   2.350   6.938
 6740SOL    HW220787   4.081   2.383   6.778
 6741SOL     OW20788   4.536   3.448   6.273
 6741SOL    HW120789   4.568   3.458   6.179
 6741SOL    HW220790   4.457   3.386   6.275
 6742SOL     OW20791   3.763   2.939   5.886
 6742SOL    HW120792   3.862   2.928   5.877
 6742SOL    HW220793   3.723   2.853   5.918
 6743SOL     OW20794   3.954   2.490   7.561
 6743SOL    HW120795   3.861   2.488   7.598
 6743SOL    HW220796   3.955   2.451   7.469
 6744SOL     OW20797   3.949   2.137   8.444
 6744SOL    HW120798   3.984   2.120   8.536
 6744SOL    HW220799   3.861   2.092   8.432
 6745SOL     OW20800   3.743   2.230   8.095
 6745SOL    HW120801   3.661   2.273   8.134
 6745SOL    HW220802   3.715   2.157   8.032
 6746SOL     OW20803   4.293   3.137   8.613
 6746SOL    HW120804   4.200   3.130   8.576
 6746SOL    HW220805   4.304   3.226   8.657
 6747SOL     OW20806   4.574   2.660   9.271
 6747SOL    HW120807   4.570   2.736   9.336
 6747SOL    HW220808   4.596   2.696   9.180
 6748SOL     OW20809   4.409   2.874   8.113
 6748SOL    HW120810   4.478   2.858   8.183
 6748SOL    HW220811   4.336   2.931   8.151
 6749SOL     OW20812   4.410   3.023   9.251
 6749SOL    HW120813   4.470   3.102   9.265
 6749SOL    HW220814   4.324   3.054   9.210
 6750SOL     OW20815   4.059   3.297   8.509
 6750SOL    HW120816   3.981   3.266   8.456
 6750SOL    HW220817   4.117   3.355   8.452
 6751SOL     OW20818   4.162   2.254   8.947
 6751SOL    HW120819   4.244   2.198   8.956
 6751SOL    HW220820   4.081   2.196   8.951
 6752SOL     OW20821   3.955   3.575   7.931
 6752SOL    HW120822   3.989   3.652   7.985
 6752SOL    HW220823   3.999   3.575   7.841
 6753SOL     OW20824   3.954   3.296   7.986
 6753SOL    HW120825   3.928   3.392   7.986
 6753SOL    HW220826   3.883   3.242   8.031
 6754SOL     OW20827   3.964   2.953   8.334
 6754SOL    HW120828   3.978   2.869   8.386
 6754SOL    HW220829   3.909   3.017   8.389
 6755SOL     OW20830   4.344   3.648   8.887
 6755SOL    HW120831   4.252   3.631   8.922
 6755SOL    HW220832   4.372   3.740   8.913
 6756SOL     OW20833   4.330   2.826   7.571
 6756SOL    HW120834   4.337   2.910   7.517
 6756SOL    HW220835   4.376   2.839   7.659
 6757SOL     OW20836   3.846   2.505   8.011
 6757SOL    HW120837   3.801   2.417   8.028
 6757SOL    HW220838   3.845   2.559   8.095
 6758SOL     OW20839   3.751   3.458   7.565
 6758SOL    HW120840   3.732   3.362   7.586
 6758SOL    HW220841   3.718   3.516   7.640
 6759SOL     OW20842   3.837   2.599   9.045
 6759SOL    HW120843   3.925   2.586   9.090
 6759SOL    HW220844   3.824   2.696   9.023
 6760SOL     OW20845   4.337   3.227   8.174
 6760SOL    HW120846   4.288   3.140   8.183
 6760SOL    HW220847   4.314   3.270   8.087
 6761SOL     OW20848   4.533   1.866   7.950
 6761SOL    HW120849   4.573   1.957   7.941
 6761SOL    HW220850   4.433   1.874   7.956
 6762SOL     OW20851   3.921   2.838   8.712
 6762SOL    HW120852   4.010   2.793   8.698
 6762SOL    HW220853   3.848   2.773   8.693
 6763SOL     OW20854   4.041   2.113   9.249
 6763SOL    HW120855   4.112   2.184   9.255
 6763SOL    HW220856   3.953   2.152   9.277
 6764SOL     OW20857   4.322   2.591   7.718
 6764SOL    HW120858   4.346   2.660   7.650
 6764SOL    HW220859   4.244   2.624   7.772
 6765SOL     OW20860   3.800   2.673   8.237
 6765SOL    HW120861   3.899   2.661   8.246
 6765SOL    HW220862   3.776   2.768   8.258
 6766SOL     OW20863   3.854   3.683   9.019
 6766SOL    HW120864   3.844   3.668   9.118
 6766SOL    HW220865   3.768   3.719   8.983
 6767SOL     OW20866   4.274   2.058   8.333
 6767SOL    HW120867   4.269   2.053   8.433
 6767SOL    HW220868   4.276   2.154   8.304
 6768SOL     OW20869   4.075   3.663   8.301
 6768SOL    HW120870   4.125   3.577   8.307
 6768SOL    HW220871   4.140   3.740   8.298
 6769SOL     OW20872   4.045   2.805   7.690
 6769SOL    HW120873   4.127   2.844   7.648
 6769SOL    HW220874   4.018   2.723   7.641
 6770SOL     OW20875   4.185   3.128   9.175
 6770SOL    HW120876   4.135   3.129   9.089
 6770SOL    HW220877   4.122   3.110   9.251
 6771SOL     OW20878   3.926   2.147   8.946
 6771SOL    HW120879   3.846   2.207   8.933
 6771SOL    HW220880   3.916   2.098   9.032
 6772SOL     OW20881   4.188   3.605   7.771
 6772SOL    HW120882   4.221   3.644   7.857
 6772SOL    HW220883   4.264   3.598   7.706
 6773SOL     OW20884   3.973   3.647   8.689
 6773SOL    HW120885   4.030   3.582   8.739
 6773SOL    HW220886   3.957   3.614   8.596
 6774SOL     OW20887   4.106   2.562   7.928
 6774SOL    HW120888   4.151   2.472   7.925
 6774SOL    HW220889   4.012   2.551   7.961
 6775SOL     OW20890   4.338   1.984   7.565
 6775SOL    HW120891   4.436   1.962   7.572
 6775SOL    HW220892   4.307   1.967   7.472
 6776SOL     OW20893   4.527   3.264   8.372
 6776SOL    HW120894   4.617   3.278   8.330
 6776SOL    HW220895   4.456   3.266   8.301
 6777SOL     OW20896   4.263   1.926   7.960
 6777SOL    HW120897   4.182   1.927   8.018
 6777SOL    HW220898   4.266   2.009   7.905
 6778SOL     OW20899   4.021   1.897   7.619
 6778SOL    HW120900   4.070   1.981   7.598
 6778SOL    HW220901   4.083   1.832   7.664
 6779SOL     OW20902   4.800   2.545   8.912
 6779SOL    HW120903   4.720   2.484   8.915
 6779SOL    HW220904   4.881   2.492   8.888
 6780SOL     OW20905   4.183   3.014   8.189
 6780SOL    HW120906   4.112   2.987   8.254
 6780SOL    HW220907   4.157   2.986   8.096
 6781SOL     OW20908   3.802   2.418   8.834
 6781SOL    HW120909   3.894   2.417   8.793
 6781SOL    HW220910   3.796   2.492   8.901
 6782SOL     OW20911   4.285   2.084   8.595
 6782SOL    HW120912   4.323   2.000   8.632
 6782SOL    HW220913   4.197   2.103   8.639
 6783SOL     OW20914   4.212   3.247   7.622
 6783SOL    HW120915   4.125   3.232   7.669
 6783SOL    HW220916   4.195   3.273   7.527
 6784SOL     OW20917   4.251   2.118   7.776
 6784SOL    HW120918   4.278   2.059   7.701
 6784SOL    HW220919   4.251   2.213   7.745
 6785SOL     OW20920   4.134   2.675   8.699
 6785SOL    HW120921   4.220   2.687   8.749
 6785SOL    HW220922   4.092   2.588   8.726
 6786SOL     OW20923   3.788   3.426   8.779
 6786SOL    HW120924   3.742   3.508   8.745
 6786SOL    HW220925   3.886   3.445   8.788
 6787SOL     OW20926   4.091   2.962   7.949
 6787SOL    HW120927   4.084   3.045   7.893
 6787SOL    HW220928   4.095   2.882   7.889
 6788SOL     OW20929   4.290   2.399   8.313
 6788SOL    HW120930   4.302   2.465   8.239
 6788SOL    HW220931   4.336   2.433   8.396
 6789SOL     OW20932   4.078   3.372   8.777
 6789SOL    HW120933   4.057   3.328   8.690
 6789SOL    HW220934   4.175   3.398   8.780
 6790SOL     OW20935   4.126   2.613   9.046
 6790SOL    HW120936   4.194   2.668   8.999
 6790SOL    HW220937   4.166   2.525   9.073
 6791SOL     OW20938   4.228   1.912   9.188
 6791SOL    HW120939   4.186   1.855   9.118
 6791SOL    HW220940   4.162   1.981   9.220
 6792SOL     OW20941   4.297   2.732   8.477
 6792SOL    HW120942   4.341   2.821   8.468
 6792SOL    HW220943   4.234   2.732   8.554
 6793SOL     OW20944   4.031   2.075   8.679
 6793SOL    HW120945   4.008   2.112   8.769
 6793SOL    HW220946   4.001   1.980   8.673
 6794SOL     OW20947   3.761   3.172   8.730
 6794SOL    HW120948   3.814   3.123   8.798
 6794SOL    HW220949   3.783   3.270   8.735
 6795SOL     OW20950   4.031   1.925   8.066
 6795SOL    HW120951   4.020   2.019   8.099
 6795SOL    HW220952   4.026   1.862   8.143
 6796SOL     OW20953   4.074   2.760   9.252
 6796SOL    HW120954   4.150   2.804   9.300
 6796SOL    HW220955   4.109   2.713   9.170
 6797SOL     OW20956   4.043   2.672   8.397
 6797SOL    HW120957   4.136   2.708   8.402
 6797SOL    HW220958   4.037   2.587   8.449
 6798SOL     OW20959   4.063   2.371   8.454
 6798SOL    HW120960   4.011   2.288   8.437
 6798SOL    HW220961   4.140   2.376   8.390
 6799SOL     OW20962   3.732   3.188   7.648
 6799SOL    HW120963   3.639   3.209   7.617
 6799SOL    HW220964   3.742   3.089   7.661
 6800SOL     OW20965   3.812   3.663   8.375
 6800SOL    HW120966   3.770   3.577   8.348
 6800SOL    HW220967   3.906   3.666   8.341
 6801SOL     OW20968   4.228   3.430   8.358
 6801SOL    HW120969   4.294   3.504   8.367
 6801SOL    HW220970   4.272   3.351   8.316
 6802SOL     OW20971   3.764   2.406   8.562
 6802SOL    HW120972   3.849   2.373   8.521
 6802SOL    HW220973   3.777   2.421   8.660
 6803SOL     OW20974   3.913   2.382   9.170
 6803SOL    HW120975   3.972   2.342   9.100
 6803SOL    HW220976   3.855   2.453   9.129
 6804SOL     OW20977   4.539   2.434   7.773
 6804SOL    HW120978   4.546   2.345   7.727
 6804SOL    HW220979   4.445   2.468   7.765
 6805SOL     OW20980   3.976   3.426   9.192
 6805SOL    HW120981   3.946   3.483   9.268
 6805SOL    HW220982   3.969   3.329   9.218
 6806SOL     OW20983   4.197   2.362   7.639
 6806SOL    HW120984   4.258   2.442   7.643
 6806SOL    HW220985   4.102   2.393   7.646
 6807SOL     OW20986   3.883   2.999   8.914
 6807SOL    HW120987   3.905   2.938   8.990
 6807SOL    HW220988   3.893   2.950   8.828
 6808SOL     OW20989   3.807   3.120   8.470
 6808SOL    HW120990   3.802   3.119   8.570
 6808SOL    HW220991   3.724   3.079   8.432
 6809SOL     OW20992   4.412   3.524   9.164
 6809SOL    HW120993   4.356   3.605   9.173
 6809SOL    HW220994   4.464   3.528   9.078
 6810SOL     OW20995   3.854   3.656   9.299
 6810SOL    HW120996   3.813   3.582   9.352
 6810SOL    HW220997   3.918   3.707   9.357
 6811SOL     OW20998   3.987   2.188   8.168
 6811SOL    HW120999   3.908   2.239   8.134
 6811SOL    HW221000   3.978   2.173   8.266
 6812SOL     OW21001   4.096   3.150   8.938
 6812SOL    HW121002   4.083   3.243   8.904
 6812SOL    HW221003   4.012   3.098   8.925
 6813SOL     OW21004   4.314   3.349   7.939
 6813SOL    HW121005   4.356   3.291   7.869
 6813SOL    HW221006   4.270   3.428   7.895
 6814SOL     OW21007   3.979   3.210   7.738
 6814SOL    HW121008   3.883   3.211   7.711
 6814SOL    HW221009   3.991   3.263   7.822
 6815SOL     OW21010   3.829   2.875   9.174
 6815SOL    HW121011   3.752   2.842   9.228
 6815SOL    HW221012   3.914   2.845   9.216
 6816SOL     OW21013   4.396   2.065   8.937
 6816SOL    HW121014   4.486   2.049   8.897
 6816SOL    HW221015   4.404   2.070   9.036
 6817SOL     OW21016   3.799   2.207   7.481
 6817SOL    HW121017   3.707   2.179   7.452
 6817SOL    HW221018   3.830   2.284   7.425
 6818SOL     OW21019   3.796   2.028   7.766
 6818SOL    HW121020   3.779   2.111   7.712
 6818SOL    HW221021   3.886   1.991   7.744
 6819SOL     OW21022   4.337   2.704   8.879
 6819SOL    HW121023   4.393   2.785   8.862
 6819SOL    HW221024   4.396   2.624   8.882
 6820SOL     OW21025   4.440   2.427   9.156
 6820SOL    HW121026   4.459   2.492   9.230
 6820SOL    HW221027   4.500   2.347   9.165
 6821SOL     OW21028   4.114   3.603   9.008
 6821SOL    HW121029   4.023   3.644   9.006
 6821SOL    HW221030   4.107   3.509   9.040
 6822SOL     OW21031   4.318   2.607   8.100
 6822SOL    HW121032   4.368   2.692   8.081
 6822SOL    HW221033   4.230   2.609   8.052
 6823SOL     OW21034   3.945   3.176   9.292
 6823SOL    HW121035   3.880   3.103   9.271
 6823SOL    HW221036   3.949   3.190   9.390
 6824SOL     OW21037   3.803   3.102   8.101
 6824SOL    HW121038   3.802   3.055   8.189
 6824SOL    HW221039   3.885   3.074   8.050
 6825SOL     OW21040   4.396   3.253   9.072
 6825SOL    HW121041   4.318   3.203   9.110
 6825SOL    HW221042   4.393   3.348   9.103
 6826SOL     OW21043   4.152   2.286   7.968
 6826SOL    HW121044   4.182   2.214   7.906
 6826SOL    HW221045   4.113   2.246   8.051
 6827SOL     OW21046   4.041   2.409   8.728
 6827SOL    HW121047   4.079   2.350   8.800
 6827SOL    HW221048   4.081   2.383   8.640
 6828SOL     OW21049   4.536   3.448   8.135
 6828SOL    HW121050   4.568   3.458   8.041
 6828SOL    HW221051   4.457   3.386   8.137
 6829SOL     OW21052   3.763   2.939   7.748
 6829SOL    HW121053   3.862   2.928   7.739
 6829SOL    HW221054   3.723   2.853   7.780
 6830SOL     OW21055   3.954   2.490   9.423
 6830SOL    HW121056   3.861   2.488   9.460
 6830SOL    HW221057   3.955   2.451   9.331
 6831SOL     OW21058   3.949   2.137  10.306
 6831SOL    HW121059   3.984   2.120  10.398
 6831SOL    HW221060   3.861   2.092  10.294
 6832SOL     OW21061   3.743   2.230   9.957
 6832SOL    HW121062   3.661   2.273   9.996
 6832SOL    HW221063   3.715   2.157   9.894
 6833SOL     OW21064   4.293   3.137  10.475
 6833SOL    HW121065   4.200   3.130  10.438
 6833SOL    HW221066   4.304   3.226  10.519
 6834SOL     OW21067   4.574   2.660  11.133
 6834SOL    HW121068   4.570   2.736  11.198
 6834SOL    HW221069   4.596   2.696  11.042
 6835SOL     OW21070   4.409   2.874   9.975
 6835SOL    HW121071   4.478   2.858  10.045
 6835SOL    HW221072   4.336   2.931  10.013
 6836SOL     OW21073   4.059   3.297  10.371
 6836SOL    HW121074   3.981   3.266  10.318
 6836SOL    HW221075   4.117   3.355  10.314
 6837SOL     OW21076   4.162   2.254  10.809
 6837SOL    HW121077   4.244   2.198  10.818
 6837SOL    HW221078   4.081   2.196  10.813
 6838SOL     OW21079   3.955   3.575   9.793
 6838SOL    HW121080   3.989   3.652   9.847
 6838SOL    HW221081   3.999   3.575   9.703
 6839SOL     OW21082   3.954   3.296   9.848
 6839SOL    HW121083   3.928   3.392   9.848
 6839SOL    HW221084   3.883   3.242   9.893
 6840SOL     OW21085   3.964   2.953  10.196
 6840SOL    HW121086   3.978   2.869  10.248
 6840SOL    HW221087   3.909   3.017  10.251
 6841SOL     OW21088   4.344   3.648  10.749
 6841SOL    HW121089   4.252   3.631  10.784
 6841SOL    HW221090   4.372   3.740  10.775
 6842SOL     OW21091   4.330   2.826   9.433
 6842SOL    HW121092   4.337   2.910   9.379
 6842SOL    HW221093   4.376   2.839   9.521
 6843SOL     OW21094   3.846   2.505   9.873
 6843SOL    HW121095   3.801   2.417   9.890
 6843SOL    HW221096   3.845   2.559   9.957
 6844SOL     OW21097   3.751   3.458   9.427
 6844SOL    HW121098   3.732   3.362   9.448
 6844SOL    HW221099   3.718   3.516   9.502
 6845SOL     OW21100   3.837   2.599  10.907
 6845SOL    HW121101   3.925   2.586  10.952
 6845SOL    HW221102   3.824   2.696  10.885
 6846SOL     OW21103   4.337   3.227  10.036
 6846SOL    HW121104   4.288   3.140  10.045
 6846SOL    HW221105   4.314   3.270   9.949
 6847SOL     OW21106   4.533   1.866   9.812
 6847SOL    HW121107   4.573   1.957   9.803
 6847SOL    HW221108   4.433   1.874   9.818
 6848SOL     OW21109   3.921   2.838  10.574
 6848SOL    HW121110   4.010   2.793  10.560
 6848SOL    HW221111   3.848   2.773  10.555
 6849SOL     OW21112   4.041   2.113  11.111
 6849SOL    HW121113   4.112   2.184  11.117
 6849SOL    HW221114   3.953   2.152  11.139
 6850SOL     OW21115   4.322   2.591   9.580
 6850SOL    HW121116   4.346   2.660   9.512
 6850SOL    HW221117   4.244   2.624   9.634
 6851SOL     OW21118   3.800   2.673  10.099
 6851SOL    HW121119   3.899   2.661  10.108
 6851SOL    HW221120   3.776   2.768  10.120
 6852SOL     OW21121   3.854   3.683  10.881
 6852SOL    HW121122   3.844   3.668  10.980
 6852SOL    HW221123   3.768   3.719  10.845
 6853SOL     OW21124   4.274   2.058  10.195
 6853SOL    HW121125   4.269   2.053  10.295
 6853SOL    HW221126   4.276   2.154  10.166
 6854SOL     OW21127   4.075   3.663  10.163
 6854SOL    HW121128   4.125   3.577  10.169
 6854SOL    HW221129   4.140   3.740  10.160
 6855SOL     OW21130   4.045   2.805   9.552
 6855SOL    HW121131   4.127   2.844   9.510
 6855SOL    HW221132   4.018   2.723   9.503
 6856SOL     OW21133   4.185   3.128  11.037
 6856SOL    HW121134   4.135   3.129  10.951
 6856SOL    HW221135   4.122   3.110  11.113
 6857SOL     OW21136   3.926   2.147  10.808
 6857SOL    HW121137   3.846   2.207  10.795
 6857SOL    HW221138   3.916   2.098  10.894
 6858SOL     OW21139   4.188   3.605   9.633
 6858SOL    HW121140   4.221   3.644   9.719
 6858SOL    HW221141   4.264   3.598   9.568
 6859SOL     OW21142   3.973   3.647  10.551
 6859SOL    HW121143   4.030   3.582  10.601
 6859SOL    HW221144   3.957   3.614  10.458
 6860SOL     OW21145   4.106   2.562   9.790
 6860SOL    HW121146   4.151   2.472   9.787
 6860SOL    HW221147   4.012   2.551   9.823
 6861SOL     OW21148   4.338   1.984   9.427
 6861SOL    HW121149   4.436   1.962   9.434
 6861SOL    HW221150   4.307   1.967   9.334
 6862SOL     OW21151   4.527   3.264  10.234
 6862SOL    HW121152   4.617   3.278  10.192
 6862SOL    HW221153   4.456   3.266  10.163
 6863SOL     OW21154   4.263   1.926   9.822
 6863SOL    HW121155   4.182   1.927   9.880
 6863SOL    HW221156   4.266   2.009   9.767
 6864SOL     OW21157   4.021   1.897   9.481
 6864SOL    HW121158   4.070   1.981   9.460
 6864SOL    HW221159   4.083   1.832   9.526
 6865SOL     OW21160   4.800   2.545  10.774
 6865SOL    HW121161   4.720   2.484  10.777
 6865SOL    HW221162   4.881   2.492  10.750
 6866SOL     OW21163   4.183   3.014  10.051
 6866SOL    HW121164   4.112   2.987  10.116
 6866SOL    HW221165   4.157   2.986   9.958
 6867SOL     OW21166   3.802   2.418  10.696
 6867SOL    HW121167   3.894   2.417  10.655
 6867SOL    HW221168   3.796   2.492  10.763
 6868SOL     OW21169   4.285   2.084  10.457
 6868SOL    HW121170   4.323   2.000  10.494
 6868SOL    HW221171   4.197   2.103  10.501
 6869SOL     OW21172   4.212   3.247   9.484
 6869SOL    HW121173   4.125   3.232   9.531
 6869SOL    HW221174   4.195   3.273   9.389
 6870SOL     OW21175   4.251   2.118   9.638
 6870SOL    HW121176   4.278   2.059   9.563
 6870SOL    HW221177   4.251   2.213   9.607
 6871SOL     OW21178   4.134   2.675  10.561
 6871SOL    HW121179   4.220   2.687  10.611
 6871SOL    HW221180   4.092   2.588  10.588
 6872SOL     OW21181   3.788   3.426  10.641
 6872SOL    HW121182   3.742   3.508  10.607
 6872SOL    HW221183   3.886   3.445  10.650
 6873SOL     OW21184   4.091   2.962   9.811
 6873SOL    HW121185   4.084   3.045   9.755
 6873SOL    HW221186   4.095   2.882   9.751
 6874SOL     OW21187   4.290   2.399  10.175
 6874SOL    HW121188   4.302   2.465  10.101
 6874SOL    HW221189   4.336   2.433  10.258
 6875SOL     OW21190   4.078   3.372  10.639
 6875SOL    HW121191   4.057   3.328  10.552
 6875SOL    HW221192   4.175   3.398  10.642
 6876SOL     OW21193   4.126   2.613  10.908
 6876SOL    HW121194   4.194   2.668  10.861
 6876SOL    HW221195   4.166   2.525  10.935
 6877SOL     OW21196   4.297   2.732  10.339
 6877SOL    HW121197   4.341   2.821  10.330
 6877SOL    HW221198   4.234   2.732  10.416
 6878SOL     OW21199   4.031   2.075  10.541
 6878SOL    HW121200   4.008   2.112  10.631
 6878SOL    HW221201   4.001   1.980  10.535
 6879SOL     OW21202   3.761   3.172  10.592
 6879SOL    HW121203   3.814   3.123  10.660
 6879SOL    HW221204   3.783   3.270  10.597
 6880SOL     OW21205   4.031   1.925   9.928
 6880SOL    HW121206   4.020   2.019   9.961
 6880SOL    HW221207   4.026   1.862  10.005
 6881SOL     OW21208   4.074   2.760  11.114
 6881SOL    HW121209   4.150   2.804  11.162
 6881SOL    HW221210   4.109   2.713  11.032
 6882SOL     OW21211   4.043   2.672  10.259
 6882SOL    HW121212   4.136   2.708  10.264
 6882SOL    HW221213   4.037   2.587  10.311
 6883SOL     OW21214   4.063   2.371  10.316
 6883SOL    HW121215   4.011   2.288  10.299
 6883SOL    HW221216   4.140   2.376  10.252
 6884SOL     OW21217   3.732   3.188   9.510
 6884SOL    HW121218   3.639   3.209   9.479
 6884SOL    HW221219   3.742   3.089   9.523
 6885SOL     OW21220   3.812   3.663  10.237
 6885SOL    HW121221   3.770   3.577  10.210
 6885SOL    HW221222   3.906   3.666  10.203
 6886SOL     OW21223   4.228   3.430  10.220
 6886SOL    HW121224   4.294   3.504  10.229
 6886SOL    HW221225   4.272   3.351  10.178
 6887SOL     OW21226   3.764   2.406  10.424
 6887SOL    HW121227   3.849   2.373  10.383
 6887SOL    HW221228   3.777   2.421  10.522
 6888SOL     OW21229   4.539   2.434   9.635
 6888SOL    HW121230   4.546   2.345   9.589
 6888SOL    HW221231   4.445   2.468   9.627
 6889SOL     OW21232   3.976   3.426  11.054
 6889SOL    HW121233   3.946   3.483  11.130
 6889SOL    HW221234   3.969   3.329  11.080
 6890SOL     OW21235   4.197   2.362   9.501
 6890SOL    HW121236   4.258   2.442   9.505
 6890SOL    HW221237   4.102   2.393   9.508
 6891SOL     OW21238   3.883   2.999  10.776
 6891SOL    HW121239   3.905   2.938  10.852
 6891SOL    HW221240   3.893   2.950  10.690
 6892SOL     OW21241   3.807   3.120  10.332
 6892SOL    HW121242   3.802   3.119  10.432
 6892SOL    HW221243   3.724   3.079  10.294
 6893SOL     OW21244   4.412   3.524  11.026
 6893SOL    HW121245   4.356   3.605  11.035
 6893SOL    HW221246   4.464   3.528  10.940
 6894SOL     OW21247   3.987   2.188  10.030
 6894SOL    HW121248   3.908   2.239   9.996
 6894SOL    HW221249   3.978   2.173  10.128
 6895SOL     OW21250   4.096   3.150  10.800
 6895SOL    HW121251   4.083   3.243  10.766
 6895SOL    HW221252   4.012   3.098  10.787
 6896SOL     OW21253   4.314   3.349   9.801
 6896SOL    HW121254   4.356   3.291   9.731
 6896SOL    HW221255   4.270   3.428   9.757
 6897SOL     OW21256   3.979   3.210   9.600
 6897SOL    HW121257   3.883   3.211   9.573
 6897SOL    HW221258   3.991   3.263   9.684
 6898SOL     OW21259   3.829   2.875  11.036
 6898SOL    HW121260   3.752   2.842  11.090
 6898SOL    HW221261   3.914   2.845  11.078
 6899SOL     OW21262   4.396   2.065  10.799
 6899SOL    HW121263   4.486   2.049  10.759
 6899SOL    HW221264   4.404   2.070  10.898
 6900SOL     OW21265   3.799   2.207   9.343
 6900SOL    HW121266   3.707   2.179   9.314
 6900SOL    HW221267   3.830   2.284   9.287
 6901SOL     OW21268   3.796   2.028   9.628
 6901SOL    HW121269   3.779   2.111   9.574
 6901SOL    HW221270   3.886   1.991   9.606
 6902SOL     OW21271   4.337   2.704  10.741
 6902SOL    HW121272   4.393   2.785  10.724
 6902SOL    HW221273   4.396   2.624  10.744
 6903SOL     OW21274   4.114   3.603  10.870
 6903SOL    HW121275   4.023   3.644  10.868
 6903SOL    HW221276   4.107   3.509  10.902
 6904SOL     OW21277   4.318   2.607   9.962
 6904SOL    HW121278   4.368   2.692   9.943
 6904SOL    HW221279   4.230   2.609   9.914
 6905SOL     OW21280   3.803   3.102   9.963
 6905SOL    HW121281   3.802   3.055  10.051
 6905SOL    HW221282   3.885   3.074   9.912
 6906SOL     OW21283   4.396   3.253  10.934
 6906SOL    HW121284   4.318   3.203  10.972
 6906SOL    HW221285   4.393   3.348  10.965
 6907SOL     OW21286   4.152   2.286   9.830
 6907SOL    HW121287   4.182   2.214   9.768
 6907SOL    HW221288   4.113   2.246   9.913
 6908SOL     OW21289   4.041   2.409  10.590
 6908SOL    HW121290   4.079   2.350  10.662
 6908SOL    HW221291   4.081   2.383  10.502
 6909SOL     OW21292   4.536   3.448   9.997
 6909SOL    HW121293   4.568   3.458   9.903
 6909SOL    HW221294   4.457   3.386   9.999
 6910SOL     OW21295   3.763   2.939   9.610
 6910SOL    HW121296   3.862   2.928   9.601
 6910SOL    HW221297   3.723   2.853   9.642
 6911SOL     OW21298   3.954   4.352   0.113
 6911SOL    HW121299   3.861   4.350   0.150
 6911SOL    HW221300   3.955   4.313   0.021
 6912SOL     OW21301   3.949   3.999   0.996
 6912SOL    HW121302   3.984   3.982   1.088
 6912SOL    HW221303   3.861   3.954   0.984
 6913SOL     OW21304   3.743   4.092   0.647
 6913SOL    HW121305   3.661   4.135   0.686
 6913SOL    HW221306   3.715   4.019   0.584
 6914SOL     OW21307   4.574   4.522   1.823
 6914SOL    HW121308   4.570   4.598   1.888
 6914SOL    HW221309   4.596   4.558   1.732
 6915SOL     OW21310   4.162   4.116   1.499
 6915SOL    HW121311   4.244   4.060   1.508
 6915SOL    HW221312   4.081   4.058   1.503
 6916SOL     OW21313   3.846   4.367   0.563
 6916SOL    HW121314   3.801   4.279   0.580
 6916SOL    HW221315   3.845   4.421   0.647
 6917SOL     OW21316   3.837   4.461   1.597
 6917SOL    HW121317   3.925   4.448   1.642
 6917SOL    HW221318   3.824   4.558   1.575
 6918SOL     OW21319   4.533   3.728   0.502
 6918SOL    HW121320   4.573   3.819   0.493
 6918SOL    HW221321   4.433   3.736   0.508
 6919SOL     OW21322   4.041   3.975   1.801
 6919SOL    HW121323   4.112   4.046   1.807
 6919SOL    HW221324   3.953   4.014   1.829
 6920SOL     OW21325   4.274   3.920   0.885
 6920SOL    HW121326   4.269   3.915   0.985
 6920SOL    HW221327   4.276   4.016   0.856
 6921SOL     OW21328   3.926   4.009   1.498
 6921SOL    HW121329   3.846   4.069   1.485
 6921SOL    HW221330   3.916   3.960   1.584
 6922SOL     OW21331   4.106   4.424   0.480
 6922SOL    HW121332   4.151   4.334   0.477
 6922SOL    HW221333   4.012   4.413   0.513
 6923SOL     OW21334   4.338   3.846   0.117
 6923SOL    HW121335   4.436   3.824   0.124
 6923SOL    HW221336   4.307   3.829   0.024
 6924SOL     OW21337   4.263   3.788   0.512
 6924SOL    HW121338   4.182   3.789   0.570
 6924SOL    HW221339   4.266   3.871   0.457
 6925SOL     OW21340   4.021   3.759   0.171
 6925SOL    HW121341   4.070   3.843   0.150
 6925SOL    HW221342   4.083   3.694   0.216
 6926SOL     OW21343   4.800   4.407   1.464
 6926SOL    HW121344   4.720   4.346   1.467
 6926SOL    HW221345   4.881   4.354   1.440
 6927SOL     OW21346   3.802   4.280   1.386
 6927SOL    HW121347   3.894   4.279   1.345
 6927SOL    HW221348   3.796   4.354   1.453
 6928SOL     OW21349   4.285   3.946   1.147
 6928SOL    HW121350   4.323   3.862   1.184
 6928SOL    HW221351   4.197   3.965   1.191
 6929SOL     OW21352   4.251   3.980   0.328
 6929SOL    HW121353   4.278   3.921   0.253
 6929SOL    HW221354   4.251   4.075   0.297
 6930SOL     OW21355   4.134   4.537   1.251
 6930SOL    HW121356   4.220   4.549   1.301
 6930SOL    HW221357   4.092   4.450   1.278
 6931SOL     OW21358   4.290   4.261   0.865
 6931SOL    HW121359   4.302   4.327   0.791
 6931SOL    HW221360   4.336   4.295   0.948
 6932SOL     OW21361   4.228   3.774   1.740
 6932SOL    HW121362   4.186   3.717   1.670
 6932SOL    HW221363   4.162   3.843   1.772
 6933SOL     OW21364   4.031   3.937   1.231
 6933SOL    HW121365   4.008   3.974   1.321
 6933SOL    HW221366   4.001   3.842   1.225
 6934SOL     OW21367   4.031   3.787   0.618
 6934SOL    HW121368   4.020   3.881   0.651
 6934SOL    HW221369   4.026   3.724   0.695
 6935SOL     OW21370   4.043   4.534   0.949
 6935SOL    HW121371   4.136   4.570   0.954
 6935SOL    HW221372   4.037   4.449   1.001
 6936SOL     OW21373   4.063   4.233   1.006
 6936SOL    HW121374   4.011   4.150   0.989
 6936SOL    HW221375   4.140   4.238   0.942
 6937SOL     OW21376   3.764   4.268   1.114
 6937SOL    HW121377   3.849   4.235   1.073
 6937SOL    HW221378   3.777   4.283   1.212
 6938SOL     OW21379   3.913   4.244   1.722
 6938SOL    HW121380   3.972   4.204   1.652
 6938SOL    HW221381   3.855   4.315   1.681
 6939SOL     OW21382   4.539   4.296   0.325
 6939SOL    HW121383   4.546   4.207   0.279
 6939SOL    HW221384   4.445   4.330   0.317
 6940SOL     OW21385   4.197   4.224   0.191
 6940SOL    HW121386   4.258   4.304   0.195
 6940SOL    HW221387   4.102   4.255   0.198
 6941SOL     OW21388   3.987   4.050   0.720
 6941SOL    HW121389   3.908   4.101   0.686
 6941SOL    HW221390   3.978   4.035   0.818
 6942SOL     OW21391   4.396   3.927   1.489
 6942SOL    HW121392   4.486   3.911   1.449
 6942SOL    HW221393   4.404   3.932   1.588
 6943SOL     OW21394   3.799   4.069   0.033
 6943SOL    HW121395   3.707   4.041   0.004
 6943SOL    HW221396   3.830   4.146  -0.023
 6944SOL     OW21397   3.796   3.890   0.318
 6944SOL    HW121398   3.779   3.973   0.264
 6944SOL    HW221399   3.886   3.853   0.296
 6945SOL     OW21400   4.440   4.289   1.708
 6945SOL    HW121401   4.459   4.354   1.782
 6945SOL    HW221402   4.500   4.209   1.717
 6946SOL     OW21403   4.152   4.148   0.520
 6946SOL    HW121404   4.182   4.076   0.458
 6946SOL    HW221405   4.113   4.108   0.603
 6947SOL     OW21406   4.041   4.271   1.280
 6947SOL    HW121407   4.079   4.212   1.352
 6947SOL    HW221408   4.081   4.245   1.192
 6948SOL     OW21409   3.954   4.352   1.975
 6948SOL    HW121410   3.861   4.350   2.012
 6948SOL    HW221411   3.955   4.313   1.883
 6949SOL     OW21412   3.949   3.999   2.858
 6949SOL    HW121413   3.984   3.982   2.950
 6949SOL    HW221414   3.861   3.954   2.846
 6950SOL     OW21415   3.743   4.092   2.509
 6950SOL    HW121416   3.661   4.135   2.548
 6950SOL    HW221417   3.715   4.019   2.446
 6951SOL     OW21418   4.574   4.522   3.685
 6951SOL    HW121419   4.570   4.598   3.750
 6951SOL    HW221420   4.596   4.558   3.594
 6952SOL     OW21421   4.162   4.116   3.361
 6952SOL    HW121422   4.244   4.060   3.370
 6952SOL    HW221423   4.081   4.058   3.365
 6953SOL     OW21424   3.846   4.367   2.425
 6953SOL    HW121425   3.801   4.279   2.442
 6953SOL    HW221426   3.845   4.421   2.509
 6954SOL     OW21427   3.837   4.461   3.459
 6954SOL    HW121428   3.925   4.448   3.504
 6954SOL    HW221429   3.824   4.558   3.437
 6955SOL     OW21430   4.533   3.728   2.364
 6955SOL    HW121431   4.573   3.819   2.355
 6955SOL    HW221432   4.433   3.736   2.370
 6956SOL     OW21433   4.041   3.975   3.663
 6956SOL    HW121434   4.112   4.046   3.669
 6956SOL    HW221435   3.953   4.014   3.691
 6957SOL     OW21436   4.274   3.920   2.747
 6957SOL    HW121437   4.269   3.915   2.847
 6957SOL    HW221438   4.276   4.016   2.718
 6958SOL     OW21439   3.926   4.009   3.360
 6958SOL    HW121440   3.846   4.069   3.347
 6958SOL    HW221441   3.916   3.960   3.446
 6959SOL     OW21442   4.106   4.424   2.342
 6959SOL    HW121443   4.151   4.334   2.339
 6959SOL    HW221444   4.012   4.413   2.375
 6960SOL     OW21445   4.338   3.846   1.979
 6960SOL    HW121446   4.436   3.824   1.986
 6960SOL    HW221447   4.307   3.829   1.886
 6961SOL     OW21448   4.263   3.788   2.374
 6961SOL    HW121449   4.182   3.789   2.432
 6961SOL    HW221450   4.266   3.871   2.319
 6962SOL     OW21451   4.021   3.759   2.033
 6962SOL    HW121452   4.070   3.843   2.012
 6962SOL    HW221453   4.083   3.694   2.078
 6963SOL     OW21454   4.800   4.407   3.326
 6963SOL    HW121455   4.720   4.346   3.329
 6963SOL    HW221456   4.881   4.354   3.302
 6964SOL     OW21457   3.802   4.280   3.248
 6964SOL    HW121458   3.894   4.279   3.207
 6964SOL    HW221459   3.796   4.354   3.315
 6965SOL     OW21460   4.285   3.946   3.009
 6965SOL    HW121461   4.323   3.862   3.046
 6965SOL    HW221462   4.197   3.965   3.053
 6966SOL     OW21463   4.251   3.980   2.190
 6966SOL    HW121464   4.278   3.921   2.115
 6966SOL    HW221465   4.251   4.075   2.159
 6967SOL     OW21466   4.134   4.537   3.113
 6967SOL    HW121467   4.220   4.549   3.163
 6967SOL    HW221468   4.092   4.450   3.140
 6968SOL     OW21469   4.290   4.261   2.727
 6968SOL    HW121470   4.302   4.327   2.653
 6968SOL    HW221471   4.336   4.295   2.810
 6969SOL     OW21472   4.228   3.774   3.602
 6969SOL    HW121473   4.186   3.717   3.532
 6969SOL    HW221474   4.162   3.843   3.634
 6970SOL     OW21475   4.031   3.937   3.093
 6970SOL    HW121476   4.008   3.974   3.183
 6970SOL    HW221477   4.001   3.842   3.087
 6971SOL     OW21478   4.031   3.787   2.480
 6971SOL    HW121479   4.020   3.881   2.513
 6971SOL    HW221480   4.026   3.724   2.557
 6972SOL     OW21481   4.043   4.534   2.811
 6972SOL    HW121482   4.136   4.570   2.816
 6972SOL    HW221483   4.037   4.449   2.863
 6973SOL     OW21484   4.063   4.233   2.868
 6973SOL    HW121485   4.011   4.150   2.851
 6973SOL    HW221486   4.140   4.238   2.804
 6974SOL     OW21487   3.764   4.268   2.976
 6974SOL    HW121488   3.849   4.235   2.935
 6974SOL    HW221489   3.777   4.283   3.074
 6975SOL     OW21490   3.913   4.244   3.584
 6975SOL    HW121491   3.972   4.204   3.514
 6975SOL    HW221492   3.855   4.315   3.543
 6976SOL     OW21493   4.539   4.296   2.187
 6976SOL    HW121494   4.546   4.207   2.141
 6976SOL    HW221495   4.445   4.330   2.179
 6977SOL     OW21496   4.197   4.224   2.053
 6977SOL    HW121497   4.258   4.304   2.057
 6977SOL    HW221498   4.102   4.255   2.060
 6978SOL     OW21499   3.987   4.050   2.582
 6978SOL    HW121500   3.908   4.101   2.548
 6978SOL    HW221501   3.978   4.035   2.680
 6979SOL     OW21502   4.396   3.927   3.351
 6979SOL    HW121503   4.486   3.911   3.311
 6979SOL    HW221504   4.404   3.932   3.450
 6980SOL     OW21505   3.799   4.069   1.895
 6980SOL    HW121506   3.707   4.041   1.866
 6980SOL    HW221507   3.830   4.146   1.839
 6981SOL     OW21508   3.796   3.890   2.180
 6981SOL    HW121509   3.779   3.973   2.126
 6981SOL    HW221510   3.886   3.853   2.158
 6982SOL     OW21511   4.440   4.289   3.570
 6982SOL    HW121512   4.459   4.354   3.644
 6982SOL    HW221513   4.500   4.209   3.579
 6983SOL     OW21514   4.152   4.148   2.382
 6983SOL    HW121515   4.182   4.076   2.320
 6983SOL    HW221516   4.113   4.108   2.465
 6984SOL     OW21517   4.041   4.271   3.142
 6984SOL    HW121518   4.079   4.212   3.214
 6984SOL    HW221519   4.081   4.245   3.054
 6985SOL     OW21520   3.954   4.352   3.837
 6985SOL    HW121521   3.861   4.350   3.874
 6985SOL    HW221522   3.955   4.313   3.745
 6986SOL     OW21523   3.949   3.999   4.720
 6986SOL    HW121524   3.984   3.982   4.812
 6986SOL    HW221525   3.861   3.954   4.708
 6987SOL     OW21526   3.743   4.092   4.371
 6987SOL    HW121527   3.661   4.135   4.410
 6987SOL    HW221528   3.715   4.019   4.308
 6988SOL     OW21529   4.574   4.522   5.547
 6988SOL    HW121530   4.570   4.598   5.612
 6988SOL    HW221531   4.596   4.558   5.456
 6989SOL     OW21532   4.162   4.116   5.223
 6989SOL    HW121533   4.244   4.060   5.232
 6989SOL    HW221534   4.081   4.058   5.227
 6990SOL     OW21535   3.846   4.367   4.287
 6990SOL    HW121536   3.801   4.279   4.304
 6990SOL    HW221537   3.845   4.421   4.371
 6991SOL     OW21538   3.837   4.461   5.321
 6991SOL    HW121539   3.925   4.448   5.366
 6991SOL    HW221540   3.824   4.558   5.299
 6992SOL     OW21541   4.533   3.728   4.226
 6992SOL    HW121542   4.573   3.819   4.217
 6992SOL    HW221543   4.433   3.736   4.232
 6993SOL     OW21544   4.041   3.975   5.525
 6993SOL    HW121545   4.112   4.046   5.531
 6993SOL    HW221546   3.953   4.014   5.553
 6994SOL     OW21547   4.274   3.920   4.609
 6994SOL    HW121548   4.269   3.915   4.709
 6994SOL    HW221549   4.276   4.016   4.580
 6995SOL     OW21550   3.926   4.009   5.222
 6995SOL    HW121551   3.846   4.069   5.209
 6995SOL    HW221552   3.916   3.960   5.308
 6996SOL     OW21553   4.106   4.424   4.204
 6996SOL    HW121554   4.151   4.334   4.201
 6996SOL    HW221555   4.012   4.413   4.237
 6997SOL     OW21556   4.338   3.846   3.841
 6997SOL    HW121557   4.436   3.824   3.848
 6997SOL    HW221558   4.307   3.829   3.748
 6998SOL     OW21559   4.263   3.788   4.236
 6998SOL    HW121560   4.182   3.789   4.294
 6998SOL    HW221561   4.266   3.871   4.181
 6999SOL     OW21562   4.021   3.759   3.895
 6999SOL    HW121563   4.070   3.843   3.874
 6999SOL    HW221564   4.083   3.694   3.940
 7000SOL     OW21565   4.800   4.407   5.188
 7000SOL    HW121566   4.720   4.346   5.191
 7000SOL    HW221567   4.881   4.354   5.164
 7001SOL     OW21568   3.802   4.280   5.110
 7001SOL    HW121569   3.894   4.279   5.069
 7001SOL    HW221570   3.796   4.354   5.177
 7002SOL     OW21571   4.285   3.946   4.871
 7002SOL    HW121572   4.323   3.862   4.908
 7002SOL    HW221573   4.197   3.965   4.915
 7003SOL     OW21574   4.251   3.980   4.052
 7003SOL    HW121575   4.278   3.921   3.977
 7003SOL    HW221576   4.251   4.075   4.021
 7004SOL     OW21577   4.134   4.537   4.975
 7004SOL    HW121578   4.220   4.549   5.025
 7004SOL    HW221579   4.092   4.450   5.002
 7005SOL     OW21580   4.290   4.261   4.589
 7005SOL    HW121581   4.302   4.327   4.515
 7005SOL    HW221582   4.336   4.295   4.672
 7006SOL     OW21583   4.228   3.774   5.464
 7006SOL    HW121584   4.186   3.717   5.394
 7006SOL    HW221585   4.162   3.843   5.496
 7007SOL     OW21586   4.031   3.937   4.955
 7007SOL    HW121587   4.008   3.974   5.045
 7007SOL    HW221588   4.001   3.842   4.949
 7008SOL     OW21589   4.031   3.787   4.342
 7008SOL    HW121590   4.020   3.881   4.375
 7008SOL    HW221591   4.026   3.724   4.419
 7009SOL     OW21592   4.043   4.534   4.673
 7009SOL    HW121593   4.136   4.570   4.678
 7009SOL    HW221594   4.037   4.449   4.725
 7010SOL     OW21595   4.063   4.233   4.730
 7010SOL    HW121596   4.011   4.150   4.713
 7010SOL    HW221597   4.140   4.238   4.666
 7011SOL     OW21598   3.764   4.268   4.838
 7011SOL    HW121599   3.849   4.235   4.797
 7011SOL    HW221600   3.777   4.283   4.936
 7012SOL     OW21601   3.913   4.244   5.446
 7012SOL    HW121602   3.972   4.204   5.376
 7012SOL    HW221603   3.855   4.315   5.405
 7013SOL     OW21604   4.539   4.296   4.049
 7013SOL    HW121605   4.546   4.207   4.003
 7013SOL    HW221606   4.445   4.330   4.041
 7014SOL     OW21607   4.197   4.224   3.915
 7014SOL    HW121608   4.258   4.304   3.919
 7014SOL    HW221609   4.102   4.255   3.922
 7015SOL     OW21610   3.987   4.050   4.444
 7015SOL    HW121611   3.908   4.101   4.410
 7015SOL    HW221612   3.978   4.035   4.542
 7016SOL     OW21613   4.396   3.927   5.213
 7016SOL    HW121614   4.486   3.911   5.173
 7016SOL    HW221615   4.404   3.932   5.312
 7017SOL     OW21616   3.799   4.069   3.757
 7017SOL    HW121617   3.707   4.041   3.728
 7017SOL    HW221618   3.830   4.146   3.701
 7018SOL     OW21619   3.796   3.890   4.042
 7018SOL    HW121620   3.779   3.973   3.988
 7018SOL    HW221621   3.886   3.853   4.020
 7019SOL     OW21622   4.440   4.289   5.432
 7019SOL    HW121623   4.459   4.354   5.506
 7019SOL    HW221624   4.500   4.209   5.441
 7020SOL     OW21625   4.152   4.148   4.244
 7020SOL    HW121626   4.182   4.076   4.182
 7020SOL    HW221627   4.113   4.108   4.327
 7021SOL     OW21628   4.041   4.271   5.004
 7021SOL    HW121629   4.079   4.212   5.076
 7021SOL    HW221630   4.081   4.245   4.916
 7022SOL     OW21631   3.954   4.352   5.699
 7022SOL    HW121632   3.861   4.350   5.736
 7022SOL    HW221633   3.955   4.313   5.607
 7023SOL     OW21634   3.949   3.999   6.582
 7023SOL    HW121635   3.984   3.982   6.674
 7023SOL    HW221636   3.861   3.954   6.570
 7024SOL     OW21637   3.743   4.092   6.233
 7024SOL    HW121638   3.661   4.135   6.272
 7024SOL    HW221639   3.715   4.019   6.170
 7025SOL     OW21640   4.574   4.522   7.409
 7025SOL    HW121641   4.570   4.598   7.474
 7025SOL    HW221642   4.596   4.558   7.318
 7026SOL     OW21643   4.162   4.116   7.085
 7026SOL    HW121644   4.244   4.060   7.094
 7026SOL    HW221645   4.081   4.058   7.089
 7027SOL     OW21646   3.846   4.367   6.149
 7027SOL    HW121647   3.801   4.279   6.166
 7027SOL    HW221648   3.845   4.421   6.233
 7028SOL     OW21649   3.837   4.461   7.183
 7028SOL    HW121650   3.925   4.448   7.228
 7028SOL    HW221651   3.824   4.558   7.161
 7029SOL     OW21652   4.533   3.728   6.088
 7029SOL    HW121653   4.573   3.819   6.079
 7029SOL    HW221654   4.433   3.736   6.094
 7030SOL     OW21655   4.041   3.975   7.387
 7030SOL    HW121656   4.112   4.046   7.393
 7030SOL    HW221657   3.953   4.014   7.415
 7031SOL     OW21658   4.274   3.920   6.471
 7031SOL    HW121659   4.269   3.915   6.571
 7031SOL    HW221660   4.276   4.016   6.442
 7032SOL     OW21661   3.926   4.009   7.084
 7032SOL    HW121662   3.846   4.069   7.071
 7032SOL    HW221663   3.916   3.960   7.170
 7033SOL     OW21664   4.106   4.424   6.066
 7033SOL    HW121665   4.151   4.334   6.063
 7033SOL    HW221666   4.012   4.413   6.099
 7034SOL     OW21667   4.338   3.846   5.703
 7034SOL    HW121668   4.436   3.824   5.710
 7034SOL    HW221669   4.307   3.829   5.610
 7035SOL     OW21670   4.263   3.788   6.098
 7035SOL    HW121671   4.182   3.789   6.156
 7035SOL    HW221672   4.266   3.871   6.043
 7036SOL     OW21673   4.021   3.759   5.757
 7036SOL    HW121674   4.070   3.843   5.736
 7036SOL    HW221675   4.083   3.694   5.802
 7037SOL     OW21676   4.800   4.407   7.050
 7037SOL    HW121677   4.720   4.346   7.053
 7037SOL    HW221678   4.881   4.354   7.026
 7038SOL     OW21679   3.802   4.280   6.972
 7038SOL    HW121680   3.894   4.279   6.931
 7038SOL    HW221681   3.796   4.354   7.039
 7039SOL     OW21682   4.285   3.946   6.733
 7039SOL    HW121683   4.323   3.862   6.770
 7039SOL    HW221684   4.197   3.965   6.777
 7040SOL     OW21685   4.251   3.980   5.914
 7040SOL    HW121686   4.278   3.921   5.839
 7040SOL    HW221687   4.251   4.075   5.883
 7041SOL     OW21688   4.134   4.537   6.837
 7041SOL    HW121689   4.220   4.549   6.887
 7041SOL    HW221690   4.092   4.450   6.864
 7042SOL     OW21691   4.290   4.261   6.451
 7042SOL    HW121692   4.302   4.327   6.377
 7042SOL    HW221693   4.336   4.295   6.534
 7043SOL     OW21694   4.228   3.774   7.326
 7043SOL    HW121695   4.186   3.717   7.256
 7043SOL    HW221696   4.162   3.843   7.358
 7044SOL     OW21697   4.031   3.937   6.817
 7044SOL    HW121698   4.008   3.974   6.907
 7044SOL    HW221699   4.001   3.842   6.811
 7045SOL     OW21700   4.031   3.787   6.204
 7045SOL    HW121701   4.020   3.881   6.237
 7045SOL    HW221702   4.026   3.724   6.281
 7046SOL     OW21703   4.043   4.534   6.535
 7046SOL    HW121704   4.136   4.570   6.540
 7046SOL    HW221705   4.037   4.449   6.587
 7047SOL     OW21706   4.063   4.233   6.592
 7047SOL    HW121707   4.011   4.150   6.575
 7047SOL    HW221708   4.140   4.238   6.528
 7048SOL     OW21709   3.764   4.268   6.700
 7048SOL    HW121710   3.849   4.235   6.659
 7048SOL    HW221711   3.777   4.283   6.798
 7049SOL     OW21712   3.913   4.244   7.308
 7049SOL    HW121713   3.972   4.204   7.238
 7049SOL    HW221714   3.855   4.315   7.267
 7050SOL     OW21715   4.539   4.296   5.911
 7050SOL    HW121716   4.546   4.207   5.865
 7050SOL    HW221717   4.445   4.330   5.903
 7051SOL     OW21718   4.197   4.224   5.777
 7051SOL    HW121719   4.258   4.304   5.781
 7051SOL    HW221720   4.102   4.255   5.784
 7052SOL     OW21721   3.987   4.050   6.306
 7052SOL    HW121722   3.908   4.101   6.272
 7052SOL    HW221723   3.978   4.035   6.404
 7053SOL     OW21724   4.396   3.927   7.075
 7053SOL    HW121725   4.486   3.911   7.035
 7053SOL    HW221726   4.404   3.932   7.174
 7054SOL     OW21727   3.799   4.069   5.619
 7054SOL    HW121728   3.707   4.041   5.590
 7054SOL    HW221729   3.830   4.146   5.563
 7055SOL     OW21730   3.796   3.890   5.904
 7055SOL    HW121731   3.779   3.973   5.850
 7055SOL    HW221732   3.886   3.853   5.882
 7056SOL     OW21733   4.440   4.289   7.294
 7056SOL    HW121734   4.459   4.354   7.368
 7056SOL    HW221735   4.500   4.209   7.303
 7057SOL     OW21736   4.152   4.148   6.106
 7057SOL    HW121737   4.182   4.076   6.044
 7057SOL    HW221738   4.113   4.108   6.189
 7058SOL     OW21739   4.041   4.271   6.866
 7058SOL    HW121740   4.079   4.212   6.938
 7058SOL    HW221741   4.081   4.245   6.778
 7059SOL     OW21742   3.954   4.352   7.561
 7059SOL    HW121743   3.861   4.350   7.598
 7059SOL    HW221744   3.955   4.313   7.469
 7060SOL     OW21745   3.949   3.999   8.444
 7060SOL    HW121746   3.984   3.982   8.536
 7060SOL    HW221747   3.861   3.954   8.432
 7061SOL     OW21748   3.743   4.092   8.095
 7061SOL    HW121749   3.661   4.135   8.134
 7061SOL    HW221750   3.715   4.019   8.032
 7062SOL     OW21751   4.574   4.522   9.271
 7062SOL    HW121752   4.570   4.598   9.336
 7062SOL    HW221753   4.596   4.558   9.180
 7063SOL     OW21754   4.162   4.116   8.947
 7063SOL    HW121755   4.244   4.060   8.956
 7063SOL    HW221756   4.081   4.058   8.951
 7064SOL     OW21757   3.846   4.367   8.011
 7064SOL    HW121758   3.801   4.279   8.028
 7064SOL    HW221759   3.845   4.421   8.095
 7065SOL     OW21760   3.837   4.461   9.045
 7065SOL    HW121761   3.925   4.448   9.090
 7065SOL    HW221762   3.824   4.558   9.023
 7066SOL     OW21763   4.533   3.728   7.950
 7066SOL    HW121764   4.573   3.819   7.941
 7066SOL    HW221765   4.433   3.736   7.956
 7067SOL     OW21766   4.041   3.975   9.249
 7067SOL    HW121767   4.112   4.046   9.255
 7067SOL    HW221768   3.953   4.014   9.277
 7068SOL     OW21769   4.274   3.920   8.333
 7068SOL    HW121770   4.269   3.915   8.433
 7068SOL    HW221771   4.276   4.016   8.304
 7069SOL     OW21772   3.926   4.009   8.946
 7069SOL    HW121773   3.846   4.069   8.933
 7069SOL    HW221774   3.916   3.960   9.032
 7070SOL     OW21775   4.106   4.424   7.928
 7070SOL    HW121776   4.151   4.334   7.925
 7070SOL    HW221777   4.012   4.413   7.961
 7071SOL     OW21778   4.338   3.846   7.565
 7071SOL    HW121779   4.436   3.824   7.572
 7071SOL    HW221780   4.307   3.829   7.472
 7072SOL     OW21781   4.263   3.788   7.960
 7072SOL    HW121782   4.182   3.789   8.018
 7072SOL    HW221783   4.266   3.871   7.905
 7073SOL     OW21784   4.021   3.759   7.619
 7073SOL    HW121785   4.070   3.843   7.598
 7073SOL    HW221786   4.083   3.694   7.664
 7074SOL     OW21787   4.800   4.407   8.912
 7074SOL    HW121788   4.720   4.346   8.915
 7074SOL    HW221789   4.881   4.354   8.888
 7075SOL     OW21790   3.802   4.280   8.834
 7075SOL    HW121791   3.894   4.279   8.793
 7075SOL    HW221792   3.796   4.354   8.901
 7076SOL     OW21793   4.285   3.946   8.595
 7076SOL    HW121794   4.323   3.862   8.632
 7076SOL    HW221795   4.197   3.965   8.639
 7077SOL     OW21796   4.251   3.980   7.776
 7077SOL    HW121797   4.278   3.921   7.701
 7077SOL    HW221798   4.251   4.075   7.745
 7078SOL     OW21799   4.134   4.537   8.699
 7078SOL    HW121800   4.220   4.549   8.749
 7078SOL    HW221801   4.092   4.450   8.726
 7079SOL     OW21802   4.290   4.261   8.313
 7079SOL    HW121803   4.302   4.327   8.239
 7079SOL    HW221804   4.336   4.295   8.396
 7080SOL     OW21805   4.228   3.774   9.188
 7080SOL    HW121806   4.186   3.717   9.118
 7080SOL    HW221807   4.162   3.843   9.220
 7081SOL     OW21808   4.031   3.937   8.679
 7081SOL    HW121809   4.008   3.974   8.769
 7081SOL    HW221810   4.001   3.842   8.673
 7082SOL     OW21811   4.031   3.787   8.066
 7082SOL    HW121812   4.020   3.881   8.099
 7082SOL    HW221813   4.026   3.724   8.143
 7083SOL     OW21814   4.043   4.534   8.397
 7083SOL    HW121815   4.136   4.570   8.402
 7083SOL    HW221816   4.037   4.449   8.449
 7084SOL     OW21817   4.063   4.233   8.454
 7084SOL    HW121818   4.011   4.150   8.437
 7084SOL    HW221819   4.140   4.238   8.390
 7085SOL     OW21820   3.764   4.268   8.562
 7085SOL    HW121821   3.849   4.235   8.521
 7085SOL    HW221822   3.777   4.283   8.660
 7086SOL     OW21823   3.913   4.244   9.170
 7086SOL    HW121824   3.972   4.204   9.100
 7086SOL    HW221825   3.855   4.315   9.129
 7087SOL     OW21826   4.539   4.296   7.773
 7087SOL    HW121827   4.546   4.207   7.727
 7087SOL    HW221828   4.445   4.330   7.765
 7088SOL     OW21829   4.197   4.224   7.639
 7088SOL    HW121830   4.258   4.304   7.643
 7088SOL    HW221831   4.102   4.255   7.646
 7089SOL     OW21832   3.987   4.050   8.168
 7089SOL    HW121833   3.908   4.101   8.134
 7089SOL    HW221834   3.978   4.035   8.266
 7090SOL     OW21835   4.396   3.927   8.937
 7090SOL    HW121836   4.486   3.911   8.897
 7090SOL    HW221837   4.404   3.932   9.036
 7091SOL     OW21838   3.799   4.069   7.481
 7091SOL    HW121839   3.707   4.041   7.452
 7091SOL    HW221840   3.830   4.146   7.425
 7092SOL     OW21841   3.796   3.890   7.766
 7092SOL    HW121842   3.779   3.973   7.712
 7092SOL    HW221843   3.886   3.853   7.744
 7093SOL     OW21844   4.440   4.289   9.156
 7093SOL    HW121845   4.459   4.354   9.230
 7093SOL    HW221846   4.500   4.209   9.165
 7094SOL     OW21847   4.152   4.148   7.968
 7094SOL    HW121848   4.182   4.076   7.906
 7094SOL    HW221849   4.113   4.108   8.051
 7095SOL     OW21850   4.041   4.271   8.728
 7095SOL    HW121851   4.079   4.212   8.800
 7095SOL    HW221852   4.081   4.245   8.640
 7096SOL     OW21853   3.954   4.352   9.423
 7096SOL    HW121854   3.861   4.350   9.460
 7096SOL    HW221855   3.955   4.313   9.331
 7097SOL     OW21856   3.949   3.999  10.306
 7097SOL    HW121857   3.984   3.982  10.398
 7097SOL    HW221858   3.861   3.954  10.294
 7098SOL     OW21859   3.743   4.092   9.957
 7098SOL    HW121860   3.661   4.135   9.996
 7098SOL    HW221861   3.715   4.019   9.894
 7099SOL     OW21862   4.162   4.116  10.809
 7099SOL    HW121863   4.244   4.060  10.818
 7099SOL    HW221864   4.081   4.058  10.813
 7100SOL     OW21865   3.846   4.367   9.873
 7100SOL    HW121866   3.801   4.279   9.890
 7100SOL    HW221867   3.845   4.421   9.957
 7101SOL     OW21868   3.837   4.461  10.907
 7101SOL    HW121869   3.925   4.448  10.952
 7101SOL    HW221870   3.824   4.558  10.885
 7102SOL     OW21871   4.533   3.728   9.812
 7102SOL    HW121872   4.573   3.819   9.803
 7102SOL    HW221873   4.433   3.736   9.818
 7103SOL     OW21874   4.041   3.975  11.111
 7103SOL    HW121875   4.112   4.046  11.117
 7103SOL    HW221876   3.953   4.014  11.139
 7104SOL     OW21877   4.274   3.920  10.195
 7104SOL    HW121878   4.269   3.915  10.295
 7104SOL    HW221879   4.276   4.016  10.166
 7105SOL     OW21880   3.926   4.009  10.808
 7105SOL    HW121881   3.846   4.069  10.795
 7105SOL    HW221882   3.916   3.960  10.894
 7106SOL     OW21883   4.106   4.424   9.790
 7106SOL    HW121884   4.151   4.334   9.787
 7106SOL    HW221885   4.012   4.413   9.823
 7107SOL     OW21886   4.338   3.846   9.427
 7107SOL    HW121887   4.436   3.824   9.434
 7107SOL    HW221888   4.307   3.829   9.334
 7108SOL     OW21889   4.263   3.788   9.822
 7108SOL    HW121890   4.182   3.789   9.880
 7108SOL    HW221891   4.266   3.871   9.767
 7109SOL     OW21892   4.021   3.759   9.481
 7109SOL    HW121893   4.070   3.843   9.460
 7109SOL    HW221894   4.083   3.694   9.526
 7110SOL     OW21895   4.800   4.407  10.774
 7110SOL    HW121896   4.720   4.346  10.777
 7110SOL    HW221897   4.881   4.354  10.750
 7111SOL     OW21898   3.802   4.280  10.696
 7111SOL    HW121899   3.894   4.279  10.655
 7111SOL    HW221900   3.796   4.354  10.763
 7112SOL     OW21901   4.285   3.946  10.457
 7112SOL    HW121902   4.323   3.862  10.494
 7112SOL    HW221903   4.197   3.965  10.501
 7113SOL     OW21904   4.251   3.980   9.638
 7113SOL    HW121905   4.278   3.921   9.563
 7113SOL    HW221906   4.251   4.075   9.607
 7114SOL     OW21907   4.134   4.537  10.561
 7114SOL    HW121908   4.220   4.549  10.611
 7114SOL    HW221909   4.092   4.450  10.588
 7115SOL     OW21910   4.290   4.261  10.175
 7115SOL    HW121911   4.302   4.327  10.101
 7115SOL    HW221912   4.336   4.295  10.258
 7116SOL     OW21913   4.126   4.475  10.908
 7116SOL    HW121914   4.194   4.530  10.861
 7116SOL    HW221915   4.166   4.387  10.935
 7117SOL     OW21916   4.031   3.937  10.541
 7117SOL    HW121917   4.008   3.974  10.631
 7117SOL    HW221918   4.001   3.842  10.535
 7118SOL     OW21919   4.031   3.787   9.928
 7118SOL    HW121920   4.020   3.881   9.961
 7118SOL    HW221921   4.026   3.724  10.005
 7119SOL     OW21922   4.043   4.534  10.259
 7119SOL    HW121923   4.136   4.570  10.264
 7119SOL    HW221924   4.037   4.449  10.311
 7120SOL     OW21925   4.063   4.233  10.316
 7120SOL    HW121926   4.011   4.150  10.299
 7120SOL    HW221927   4.140   4.238  10.252
 7121SOL     OW21928   3.764   4.268  10.424
 7121SOL    HW121929   3.849   4.235  10.383
 7121SOL    HW221930   3.777   4.283  10.522
 7122SOL     OW21931   4.539   4.296   9.635
 7122SOL    HW121932   4.546   4.207   9.589
 7122SOL    HW221933   4.445   4.330   9.627
 7123SOL     OW21934   4.197   4.224   9.501
 7123SOL    HW121935   4.258   4.304   9.505
 7123SOL    HW221936   4.102   4.255   9.508
 7124SOL     OW21937   3.987   4.050  10.030
 7124SOL    HW121938   3.908   4.101   9.996
 7124SOL    HW221939   3.978   4.035  10.128
 7125SOL     OW21940   4.396   3.927  10.799
 7125SOL    HW121941   4.486   3.911  10.759
 7125SOL    HW221942   4.404   3.932  10.898
 7126SOL     OW21943   3.799   4.069   9.343
 7126SOL    HW121944   3.707   4.041   9.314
 7126SOL    HW221945   3.830   4.146   9.287
 7127SOL     OW21946   3.796   3.890   9.628
 7127SOL    HW121947   3.779   3.973   9.574
 7127SOL    HW221948   3.886   3.853   9.606
 7128SOL     OW21949   4.152   4.148   9.830
 7128SOL    HW121950   4.182   4.076   9.768
 7128SOL    HW221951   4.113   4.108   9.913
 7129SOL     OW21952   4.041   4.271  10.590
 7129SOL    HW121953   4.079   4.212  10.662
 7129SOL    HW221954   4.081   4.245  10.502
   4.50000   4.50000  11.10000
