Built with Packmol
22221
    1LIG      O    1   1.977   1.970   0.066
    1LIG      C    2   2.042   2.020   0.217
    1LIG     C1    3   1.971   1.967   0.377
    1LIG     O1    4   2.035   2.017   0.530
    1LIG     C2    5   1.970   1.968   0.681
    1LIG     C3    6   2.041   2.023   0.838
    1LIG     O2    7   1.977   1.975   0.990
    1LIG     C4    8   2.040   2.025   1.142
    1LIG     C5    9   1.968   1.971   1.300
    1LIG     O3   10   2.031   2.020   1.452
    1LIG     C6   11   1.966   1.971   1.603
    1LIG     C7   12   2.038   2.027   1.760
    1LIG     O4   13   1.974   1.979   1.913
    1LIG     C8   14   2.038   2.029   2.065
    1LIG     C9   15   1.965   1.973   2.221
    1LIG     O5   16   2.028   2.023   2.373
    1LIG    C10   17   1.964   1.974   2.525
    1LIG    C11   18   2.037   2.030   2.682
    1LIG     O6   19   1.973   1.981   2.833
    1LIG    C12   20   2.036   2.030   2.985
    1LIG    C13   21   1.963   1.975   3.142
    1LIG     O7   22   2.027   2.024   3.294
    1LIG    C14   23   1.963   1.975   3.446
    1LIG    C15   24   2.035   2.030   3.604
    1LIG     O8   25   1.971   1.982   3.757
    1LIG    C16   26   2.035   2.031   3.908
    1LIG    C17   27   1.964   1.976   4.066
    1LIG     O9   28   2.027   2.025   4.219
    1LIG    C18   29   1.962   1.976   4.369
    1LIG    C19   30   2.034   2.031   4.526
    1LIG    O10   31   1.970   1.982   4.678
    1LIG    C20   32   2.034   2.032   4.830
    1LIG    C21   33   1.962   1.976   4.986
    1LIG    O11   34   2.026   2.025   5.138
    1LIG    C22   35   1.962   1.976   5.290
    1LIG    C23   36   2.034   2.032   5.447
    1LIG    O12   37   1.970   1.983   5.598
    1LIG    C24   38   2.034   2.032   5.751
    1LIG    C25   39   1.962   1.977   5.909
    1LIG    O13   40   2.025   2.026   6.061
    1LIG    C26   41   1.961   1.977   6.212
    1LIG    C27   42   2.033   2.032   6.369
    1LIG    O14   43   1.969   1.983   6.521
    1LIG    C28   44   2.034   2.032   6.673
    1LIG    C29   45   1.962   1.976   6.831
    1LIG    O15   46   2.026   2.026   6.983
    1LIG    C30   47   1.962   1.976   7.134
    1LIG    C31   48   2.034   2.031   7.291
    1LIG    O16   49   1.970   1.982   7.442
    1LIG    C32   50   2.034   2.031   7.594
    1LIG    C33   51   1.962   1.976   7.752
    1LIG    O17   52   2.026   2.025   7.904
    1LIG    C34   53   1.962   1.975   8.056
    1LIG    C35   54   2.033   2.030   8.213
    1LIG    O18   55   1.970   1.981   8.365
    1LIG    C36   56   2.034   2.031   8.516
    1LIG    C37   57   1.963   1.975   8.674
    1LIG    O19   58   2.027   2.024   8.827
    1LIG    C38   59   1.963   1.974   8.978
    1LIG    C39   60   2.034   2.029   9.136
    1LIG    O20   61   1.971   1.980   9.288
    1LIG    C40   62   2.035   2.029   9.439
    1LIG    C41   63   1.964   1.974   9.597
    1LIG    O21   64   2.027   2.023   9.749
    1LIG    C42   65   1.963   1.973   9.900
    1LIG    C43   66   2.035   2.028  10.057
    1LIG    O22   67   1.972   1.979  10.209
    1LIG    C44   68   2.036   2.028  10.361
    1LIG    C45   69   1.964   1.972  10.518
    1LIG    O23   70   2.027   2.021  10.670
    1LIG    C46   71   1.964   1.972  10.822
    1LIG    C47   72   2.036   2.028  10.979
    1LIG    O24   73   1.973   1.978  11.130
    1LIG    C48   74   2.036   2.027  11.282
    1LIG    C49   75   1.964   1.971  11.439
    1LIG    O25   76   2.028   2.020  11.591
    1LIG    C50   77   1.965   1.971  11.743
    1LIG    C51   78   2.037   2.027  11.900
    1LIG    O26   79   1.973   1.977  12.051
    1LIG    C52   80   2.037   2.026  12.204
    1LIG    C53   81   1.965   1.970  12.360
    1LIG    O27   82   2.029   2.019  12.512
    1LIG    C54   83   1.966   1.969  12.664
    1LIG    C55   84   2.038   2.025  12.822
    1LIG    O28   85   1.974   1.975  12.974
    1LIG    C56   86   2.038   2.024  13.127
    1LIG    C57   87   1.967   1.968  13.285
    1LIG    O29   88   2.031   2.017  13.438
    1LIG    C58   89   1.967   1.967  13.589
    1LIG    C59   90   2.038   2.022  13.747
    1LIG      H   91   2.039   2.130   0.214
    1LIG     H1   92   2.147   1.989   0.215
    1LIG     H2   93   1.974   1.858   0.377
    1LIG     H3   94   1.866   1.998   0.375
    1LIG     H4   95   1.972   1.858   0.683
    1LIG     H5   96   1.865   1.999   0.682
    1LIG     H6   97   2.039   2.133   0.836
    1LIG     H7   98   2.146   1.992   0.837
    1LIG     H8   99   2.038   2.134   1.143
    1LIG     H9  100   2.145   1.994   1.145
    1LIG    H10  101   1.971   1.861   1.299
    1LIG    H11  102   1.863   2.001   1.297
    1LIG    H12  103   1.969   1.862   1.606
    1LIG    H13  104   1.861   2.002   1.604
    1LIG    H14  105   2.035   2.137   1.758
    1LIG    H15  106   2.143   1.997   1.759
    1LIG    H16  107   2.035   2.138   2.066
    1LIG    H17  108   2.143   1.998   2.067
    1LIG    H18  109   1.968   1.864   2.219
    1LIG    H19  110   1.860   2.005   2.219
    1LIG    H20  111   1.967   1.865   2.527
    1LIG    H21  112   1.859   2.005   2.527
    1LIG    H22  113   2.034   2.139   2.679
    1LIG    H23  114   2.142   1.999   2.680
    1LIG    H24  115   2.033   2.140   2.987
    1LIG    H25  116   2.141   1.999   2.988
    1LIG    H26  117   1.966   1.865   3.141
    1LIG    H27  118   1.858   2.006   3.140
    1LIG    H28  119   1.966   1.865   3.448
    1LIG    H29  120   1.858   2.006   3.448
    1LIG    H30  121   2.032   2.140   3.602
    1LIG    H31  122   2.140   1.999   3.603
    1LIG    H32  123   2.032   2.141   3.909
    1LIG    H33  124   2.140   2.000   3.910
    1LIG    H34  125   1.966   1.867   4.064
    1LIG    H35  126   1.858   2.007   4.064
    1LIG    H36  127   1.965   1.866   4.371
    1LIG    H37  128   1.857   2.007   4.371
    1LIG    H38  129   2.031   2.141   4.524
    1LIG    H39  130   2.139   2.000   4.524
    1LIG    H40  131   2.032   2.141   4.832
    1LIG    H41  132   2.140   2.001   4.832
    1LIG    H42  133   1.965   1.867   4.985
    1LIG    H43  134   1.857   2.007   4.984
    1LIG    H44  135   1.965   1.867   5.292
    1LIG    H45  136   1.857   2.007   5.292
    1LIG    H46  137   2.031   2.142   5.445
    1LIG    H47  138   2.139   2.001   5.445
    1LIG    H48  139   2.031   2.142   5.753
    1LIG    H49  140   2.139   2.001   5.753
    1LIG    H50  141   1.964   1.867   5.907
    1LIG    H51  142   1.857   2.008   5.907
    1LIG    H52  143   1.964   1.867   6.214
    1LIG    H53  144   1.856   2.008   6.214
    1LIG    H54  145   2.030   2.142   6.368
    1LIG    H55  146   2.138   2.001   6.367
    1LIG    H56  147   2.031   2.141   6.675
    1LIG    H57  148   2.139   2.001   6.675
    1LIG    H58  149   1.965   1.867   6.829
    1LIG    H59  150   1.857   2.007   6.830
    1LIG    H60  151   1.965   1.866   7.136
    1LIG    H61  152   1.857   2.007   7.136
    1LIG    H62  153   2.031   2.141   7.289
    1LIG    H63  154   2.139   2.001   7.289
    1LIG    H64  155   2.031   2.141   7.596
    1LIG    H65  156   2.139   2.000   7.596
    1LIG    H66  157   1.965   1.866   7.750
    1LIG    H67  158   1.857   2.007   7.751
    1LIG    H68  159   1.965   1.866   8.057
    1LIG    H69  160   1.857   2.006   8.057
    1LIG    H70  161   2.030   2.140   8.212
    1LIG    H71  162   2.139   2.000   8.211
    1LIG    H72  163   2.031   2.140   8.518
    1LIG    H73  164   2.139   2.000   8.518
    1LIG    H74  165   1.966   1.866   8.673
    1LIG    H75  166   1.858   2.006   8.673
    1LIG    H76  167   1.966   1.865   8.979
    1LIG    H77  168   1.857   2.005   8.979
    1LIG    H78  169   2.031   2.139   9.134
    1LIG    H79  170   2.139   1.998   9.134
    1LIG    H80  171   2.032   2.139   9.441
    1LIG    H81  172   2.140   1.999   9.440
    1LIG    H82  173   1.967   1.864   9.595
    1LIG    H83  174   1.858   2.004   9.595
    1LIG    H84  175   1.967   1.863   9.902
    1LIG    H85  176   1.858   2.004   9.902
    1LIG    H86  177   2.032   2.138  10.055
    1LIG    H87  178   2.141   1.998  10.055
    1LIG    H88  179   2.033   2.138  10.363
    1LIG    H89  180   2.141   1.998  10.363
    1LIG    H90  181   1.967   1.863  10.516
    1LIG    H91  182   1.859   2.003  10.516
    1LIG    H92  183   1.967   1.862  10.824
    1LIG    H93  184   1.859   2.002  10.824
    1LIG    H94  185   2.033   2.137  10.977
    1LIG    H95  186   2.142   1.997  10.977
    1LIG    H96  187   2.033   2.136  11.285
    1LIG    H97  188   2.141   1.996  11.284
    1LIG    H98  189   1.967   1.861  11.437
    1LIG    H99  190   1.859   2.001  11.438
    1LIG   H100  191   1.968   1.861  11.745
    1LIG   H101  192   1.860   2.001  11.746
    1LIG   H102  193   2.034   2.136  11.898
    1LIG   H103  194   2.142   1.996  11.898
    1LIG   H104  195   2.034   2.135  12.206
    1LIG   H105  196   2.142   1.995  12.206
    1LIG   H106  197   1.969   1.860  12.358
    1LIG   H107  198   1.860   2.000  12.359
    1LIG   H108  199   1.969   1.860  12.666
    1LIG   H109  200   1.861   2.000  12.666
    1LIG   H110  201   2.034   2.134  12.821
    1LIG   H111  202   2.143   1.994  12.820
    1LIG   H112  203   2.035   2.134  13.128
    1LIG   H113  204   2.144   1.994  13.128
    1LIG   H114  205   1.971   1.859  13.283
    1LIG   H115  206   1.862   1.999  13.284
    1LIG   H116  207   1.971   1.858  13.589
    1LIG   H117  208   1.862   1.999  13.590
    1LIG   H118  209   2.143   1.992  13.747
    1LIG   H119  210   1.991   1.985  13.866
    1MOL     C1  211   1.320   2.198   6.434
    1MOL     H1  212   1.215   2.168   6.442
    1MOL     O1  213   1.353   2.257   6.558
    1MOL     C2  214   1.486   2.310   6.567
    1MOL     H2  215   1.559   2.228   6.555
    1MOL     C3  216   1.504   2.367   6.707
    1MOL     H3  217   1.611   2.389   6.722
    1MOL     H4  218   1.473   2.290   6.780
    1MOL     O2  219   1.426   2.485   6.720
    1MOL     H5  220   1.449   2.527   6.804
    1MOL     C4  221   1.339   2.298   6.319
    1MOL     H6  222   1.270   2.382   6.338
    1MOL     O3  223   1.305   2.247   6.192
    1MOL     H7  224   1.337   2.155   6.183
    1MOL     C5  225   1.481   2.353   6.321
    1MOL     H8  226   1.552   2.271   6.302
    1MOL     O4  227   1.496   2.453   6.220
    1MOL     H9  228   1.448   2.419   6.142
    1MOL     C6  229   1.511   2.415   6.456
    1MOL    H10  230   1.443   2.500   6.472
    1MOL     O5  231   1.647   2.459   6.457
    1MOL     C7  232   1.676   2.586   6.513
    1MOL    H11  233   1.586   2.628   6.560
    1MOL     O6  234   1.770   2.574   6.617
    1MOL     C8  235   1.898   2.522   6.577
    1MOL    H12  236   1.884   2.423   6.531
    1MOL     C9  237   1.984   2.504   6.704
    1MOL    H13  238   2.056   2.423   6.684
    1MOL    H14  239   1.917   2.470   6.784
    1MOL     O7  240   2.049   2.621   6.749
    1MOL    H15  241   2.137   2.624   6.706
    1MOL    C10  242   1.728   2.678   6.402
    1MOL    H16  243   1.740   2.778   6.444
    1MOL     O8  244   1.640   2.692   6.292
    1MOL    H17  245   1.607   2.603   6.265
    1MOL    C11  246   1.866   2.630   6.355
    1MOL    H18  247   1.856   2.531   6.308
    1MOL     O9  248   1.923   2.722   6.262
    1MOL    H19  249   1.850   2.745   6.201
    1MOL    C12  250   1.959   2.619   6.475
    1MOL    H20  251   1.969   2.717   6.523
    1MOL    O10  252   2.087   2.574   6.429
    1MOL    C13  253   2.199   2.656   6.456
    1MOL    H21  254   2.167   2.755   6.488
    1MOL    O11  255   2.276   2.604   6.564
    1MOL    C14  256   2.330   2.472   6.540
    1MOL    H22  257   2.247   2.403   6.518
    1MOL    C15  258   2.399   2.424   6.669
    1MOL    H23  259   2.393   2.314   6.673
    1MOL    H24  260   2.341   2.463   6.754
    1MOL    O12  261   2.533   2.468   6.684
    1MOL    H25  262   2.590   2.397   6.649
    1MOL    C16  263   2.284   2.665   6.329
    1MOL    H26  264   2.366   2.735   6.348
    1MOL    O13  265   2.212   2.715   6.217
    1MOL    H27  266   2.117   2.693   6.227
    1MOL    C17  267   2.346   2.528   6.298
    1MOL    H28  268   2.266   2.456   6.275
    1MOL    O14  269   2.435   2.538   6.187
    1MOL    H29  270   2.387   2.588   6.118
    1MOL    C18  271   2.424   2.480   6.419
    1MOL    H30  272   2.504   2.550   6.442
    1MOL    O15  273   2.479   2.351   6.387
    1MOL    C19  274   2.618   2.333   6.402
    1MOL    H31  275   2.669   2.429   6.416
    1MOL    O16  276   2.648   2.257   6.518
    1MOL    C20  277   2.591   2.124   6.519
    1MOL    H32  278   2.482   2.133   6.508
    1MOL    C21  279   2.621   2.059   6.655
    1MOL    H33  280   2.538   1.990   6.678
    1MOL    H34  281   2.619   2.138   6.731
    1MOL    O17  282   2.746   1.993   6.663
    1MOL    H35  283   2.730   1.899   6.642
    1MOL    C22  284   2.670   2.262   6.276
    1MOL    H36  285   2.779   2.255   6.284
    1MOL    O18  286   2.642   2.333   6.157
    1MOL    H37  287   2.558   2.382   6.167
    1MOL    C23  288   2.614   2.120   6.270
    1MOL    H38  289   2.505   2.124   6.259
    1MOL    O19  290   2.671   2.048   6.161
    1MOL    H39  291   2.666   2.108   6.084
    1MOL    C24  292   2.648   2.046   6.399
    1MOL    H40  293   2.756   2.040   6.411
    1MOL    O20  294   2.591   1.915   6.392
    1MOL    C25  295   2.676   1.804   6.410
    1MOL    H41  296   2.781   1.835   6.408
    1MOL    O21  297   2.656   1.745   6.537
    1MOL    C26  298   2.523   1.693   6.559
    1MOL    H42  299   2.451   1.775   6.553
    1MOL    C27  300   2.517   1.636   6.700
    1MOL    H43  301   2.412   1.616   6.724
    1MOL    H44  302   2.555   1.712   6.770
    1MOL    O22  303   2.595   1.517   6.706
    1MOL    H45  304   2.586   1.480   6.795
    1MOL    C28  305   2.648   1.704   6.298
    1MOL    H46  306   2.718   1.620   6.310
    1MOL    O23  307   2.670   1.756   6.168
    1MOL    H47  308   2.647   1.852   6.167
    1MOL    C29  309   2.506   1.650   6.312
    1MOL    H48  310   2.434   1.732   6.299
    1MOL    O24  311   2.482   1.549   6.214
    1MOL    H49  312   2.520   1.583   6.131
    1MOL    C30  313   2.487   1.589   6.451
    1MOL    H50  314   2.551   1.501   6.461
    1MOL    O25  315   2.350   1.552   6.463
    1MOL    C31  316   2.319   1.427   6.525
    1MOL    H51  317   2.407   1.388   6.576
    1MOL    O26  318   2.221   1.446   6.625
    1MOL    C32  319   2.094   1.497   6.578
    1MOL    H52  320   2.111   1.593   6.527
    1MOL    C33  321   2.005   1.522   6.700
    1MOL    H53  322   1.929   1.596   6.672
    1MOL    H54  323   2.069   1.568   6.777
    1MOL    O27  324   1.945   1.405   6.751
    1MOL    H55  325   1.849   1.416   6.744
    1MOL    C34  326   2.269   1.329   6.417
    1MOL    H56  327   2.255   1.232   6.465
    1MOL    O28  328   2.361   1.308   6.312
    1MOL    H57  329   2.389   1.395   6.275
    1MOL    C35  330   2.134   1.376   6.363
    1MOL    H58  331   2.147   1.472   6.312
    1MOL    O29  332   2.080   1.280   6.272
    1MOL    H59  333   2.155   1.252   6.217
    1MOL    C36  334   2.036   1.396   6.478
    1MOL    H60  335   2.021   1.302   6.532
    1MOL    O30  336   1.911   1.441   6.424
    1MOL    C37  337   1.804   1.350   6.427
    1MOL    H61  338   1.840   1.249   6.446
    1MOL    O31  339   1.714   1.378   6.532
    1MOL    C38  340   1.653   1.508   6.527
    1MOL    H62  341   1.731   1.585   6.524
    1MOL    C39  342   1.576   1.524   6.656
    1MOL    H63  343   1.508   1.438   6.669
    1MOL    H64  344   1.518   1.616   6.655
    1MOL    O32  345   1.674   1.526   6.761
    1MOL    H65  346   1.630   1.548   6.844
    1MOL    C40  347   1.730   1.356   6.293
    1MOL    H66  348   1.652   1.279   6.296
    1MOL    O33  349   1.811   1.332   6.180
    1MOL    H67  350   1.905   1.331   6.206
    1MOL    C41  351   1.661   1.492   6.279
    1MOL    H68  352   1.738   1.570   6.275
    1MOL    O34  353   1.582   1.495   6.160
    1MOL    H69  354   1.640   1.461   6.089
    1MOL    C42  355   1.570   1.519   6.398
    1MOL    H70  356   1.489   1.444   6.400
    1MOL    O35  357   1.515   1.650   6.382
    1MOL    C43  358   1.375   1.667   6.386
    1MOL    H71  359   1.325   1.569   6.389
    1MOL    O36  360   1.334   1.733   6.504
    1MOL    C44  361   1.385   1.866   6.521
    1MOL    H72  362   1.495   1.863   6.523
    1MOL    C45  363   1.335   1.915   6.655
    1MOL    H73  364   1.227   1.895   6.662
    1MOL    H74  365   1.352   2.024   6.663
    1MOL    O37  366   1.408   1.845   6.757
    1MOL    H75  367   1.370   1.871   6.842
    1MOL    C46  368   1.331   1.746   6.263
    1MOL    H76  369   1.222   1.751   6.263
    1MOL    O38  370   1.368   1.687   6.140
    1MOL    H77  371   1.454   1.640   6.150
    1MOL    C47  372   1.385   1.889   6.272
    1MOL    H78  373   1.495   1.886   6.270
    1MOL    O39  374   1.337   1.966   6.162
    1MOL    H79  375   1.348   1.910   6.084
    1MOL    C48  376   1.341   1.955   6.402
    1MOL    H80  377   1.232   1.965   6.402
    1MOL    O40  378   1.402   2.084   6.409
    1MOL     C1  379   1.320   2.198   7.434
    1MOL     H1  380   1.215   2.168   7.442
    1MOL     O1  381   1.353   2.257   7.558
    1MOL     C2  382   1.486   2.310   7.567
    1MOL     H2  383   1.559   2.228   7.555
    1MOL     C3  384   1.504   2.367   7.707
    1MOL     H3  385   1.611   2.389   7.722
    1MOL     H4  386   1.473   2.290   7.780
    1MOL     O2  387   1.426   2.485   7.720
    1MOL     H5  388   1.449   2.527   7.804
    1MOL     C4  389   1.339   2.298   7.319
    1MOL     H6  390   1.270   2.382   7.338
    1MOL     O3  391   1.305   2.247   7.192
    1MOL     H7  392   1.337   2.155   7.183
    1MOL     C5  393   1.481   2.353   7.321
    1MOL     H8  394   1.552   2.271   7.302
    1MOL     O4  395   1.496   2.453   7.220
    1MOL     H9  396   1.448   2.419   7.142
    1MOL     C6  397   1.511   2.415   7.456
    1MOL    H10  398   1.443   2.500   7.472
    1MOL     O5  399   1.647   2.459   7.457
    1MOL     C7  400   1.676   2.586   7.513
    1MOL    H11  401   1.586   2.628   7.560
    1MOL     O6  402   1.770   2.574   7.617
    1MOL     C8  403   1.898   2.522   7.577
    1MOL    H12  404   1.884   2.423   7.531
    1MOL     C9  405   1.984   2.504   7.704
    1MOL    H13  406   2.056   2.423   7.684
    1MOL    H14  407   1.917   2.470   7.784
    1MOL     O7  408   2.049   2.621   7.749
    1MOL    H15  409   2.137   2.624   7.706
    1MOL    C10  410   1.728   2.678   7.402
    1MOL    H16  411   1.740   2.778   7.444
    1MOL     O8  412   1.640   2.692   7.292
    1MOL    H17  413   1.607   2.603   7.265
    1MOL    C11  414   1.866   2.630   7.355
    1MOL    H18  415   1.856   2.531   7.308
    1MOL     O9  416   1.923   2.722   7.262
    1MOL    H19  417   1.850   2.745   7.201
    1MOL    C12  418   1.959   2.619   7.475
    1MOL    H20  419   1.969   2.717   7.523
    1MOL    O10  420   2.087   2.574   7.429
    1MOL    C13  421   2.199   2.656   7.456
    1MOL    H21  422   2.167   2.755   7.488
    1MOL    O11  423   2.276   2.604   7.564
    1MOL    C14  424   2.330   2.472   7.540
    1MOL    H22  425   2.247   2.403   7.518
    1MOL    C15  426   2.399   2.424   7.669
    1MOL    H23  427   2.393   2.314   7.673
    1MOL    H24  428   2.341   2.463   7.754
    1MOL    O12  429   2.533   2.468   7.684
    1MOL    H25  430   2.590   2.397   7.649
    1MOL    C16  431   2.284   2.665   7.329
    1MOL    H26  432   2.366   2.735   7.348
    1MOL    O13  433   2.212   2.715   7.217
    1MOL    H27  434   2.117   2.693   7.227
    1MOL    C17  435   2.346   2.528   7.298
    1MOL    H28  436   2.266   2.456   7.275
    1MOL    O14  437   2.435   2.538   7.187
    1MOL    H29  438   2.387   2.588   7.118
    1MOL    C18  439   2.424   2.480   7.419
    1MOL    H30  440   2.504   2.550   7.442
    1MOL    O15  441   2.479   2.351   7.387
    1MOL    C19  442   2.618   2.333   7.402
    1MOL    H31  443   2.669   2.429   7.416
    1MOL    O16  444   2.648   2.257   7.518
    1MOL    C20  445   2.591   2.124   7.519
    1MOL    H32  446   2.482   2.133   7.508
    1MOL    C21  447   2.621   2.059   7.655
    1MOL    H33  448   2.538   1.990   7.678
    1MOL    H34  449   2.619   2.138   7.731
    1MOL    O17  450   2.746   1.993   7.663
    1MOL    H35  451   2.730   1.899   7.642
    1MOL    C22  452   2.670   2.262   7.276
    1MOL    H36  453   2.779   2.255   7.284
    1MOL    O18  454   2.642   2.333   7.157
    1MOL    H37  455   2.558   2.382   7.167
    1MOL    C23  456   2.614   2.120   7.270
    1MOL    H38  457   2.505   2.124   7.259
    1MOL    O19  458   2.671   2.048   7.161
    1MOL    H39  459   2.666   2.108   7.084
    1MOL    C24  460   2.648   2.046   7.399
    1MOL    H40  461   2.756   2.040   7.411
    1MOL    O20  462   2.591   1.915   7.392
    1MOL    C25  463   2.676   1.804   7.410
    1MOL    H41  464   2.781   1.835   7.408
    1MOL    O21  465   2.656   1.745   7.537
    1MOL    C26  466   2.523   1.693   7.559
    1MOL    H42  467   2.451   1.775   7.553
    1MOL    C27  468   2.517   1.636   7.700
    1MOL    H43  469   2.412   1.616   7.724
    1MOL    H44  470   2.555   1.712   7.770
    1MOL    O22  471   2.595   1.517   7.706
    1MOL    H45  472   2.586   1.480   7.795
    1MOL    C28  473   2.648   1.704   7.298
    1MOL    H46  474   2.718   1.620   7.310
    1MOL    O23  475   2.670   1.756   7.168
    1MOL    H47  476   2.647   1.852   7.167
    1MOL    C29  477   2.506   1.650   7.312
    1MOL    H48  478   2.434   1.732   7.299
    1MOL    O24  479   2.482   1.549   7.214
    1MOL    H49  480   2.520   1.583   7.131
    1MOL    C30  481   2.487   1.589   7.451
    1MOL    H50  482   2.551   1.501   7.461
    1MOL    O25  483   2.350   1.552   7.463
    1MOL    C31  484   2.319   1.427   7.525
    1MOL    H51  485   2.407   1.388   7.576
    1MOL    O26  486   2.221   1.446   7.625
    1MOL    C32  487   2.094   1.497   7.578
    1MOL    H52  488   2.111   1.593   7.527
    1MOL    C33  489   2.005   1.522   7.700
    1MOL    H53  490   1.929   1.596   7.672
    1MOL    H54  491   2.069   1.568   7.777
    1MOL    O27  492   1.945   1.405   7.751
    1MOL    H55  493   1.849   1.416   7.744
    1MOL    C34  494   2.269   1.329   7.417
    1MOL    H56  495   2.255   1.232   7.465
    1MOL    O28  496   2.361   1.308   7.312
    1MOL    H57  497   2.389   1.395   7.275
    1MOL    C35  498   2.134   1.376   7.363
    1MOL    H58  499   2.147   1.472   7.312
    1MOL    O29  500   2.080   1.280   7.272
    1MOL    H59  501   2.155   1.252   7.217
    1MOL    C36  502   2.036   1.396   7.478
    1MOL    H60  503   2.021   1.302   7.532
    1MOL    O30  504   1.911   1.441   7.424
    1MOL    C37  505   1.804   1.350   7.427
    1MOL    H61  506   1.840   1.249   7.446
    1MOL    O31  507   1.714   1.378   7.532
    1MOL    C38  508   1.653   1.508   7.527
    1MOL    H62  509   1.731   1.585   7.524
    1MOL    C39  510   1.576   1.524   7.656
    1MOL    H63  511   1.508   1.438   7.669
    1MOL    H64  512   1.518   1.616   7.655
    1MOL    O32  513   1.674   1.526   7.761
    1MOL    H65  514   1.630   1.548   7.844
    1MOL    C40  515   1.730   1.356   7.293
    1MOL    H66  516   1.652   1.279   7.296
    1MOL    O33  517   1.811   1.332   7.180
    1MOL    H67  518   1.905   1.331   7.206
    1MOL    C41  519   1.661   1.492   7.279
    1MOL    H68  520   1.738   1.570   7.275
    1MOL    O34  521   1.582   1.495   7.160
    1MOL    H69  522   1.640   1.461   7.089
    1MOL    C42  523   1.570   1.519   7.398
    1MOL    H70  524   1.489   1.444   7.400
    1MOL    O35  525   1.515   1.650   7.382
    1MOL    C43  526   1.375   1.667   7.386
    1MOL    H71  527   1.325   1.569   7.389
    1MOL    O36  528   1.334   1.733   7.504
    1MOL    C44  529   1.385   1.866   7.521
    1MOL    H72  530   1.495   1.863   7.523
    1MOL    C45  531   1.335   1.915   7.655
    1MOL    H73  532   1.227   1.895   7.662
    1MOL    H74  533   1.352   2.024   7.663
    1MOL    O37  534   1.408   1.845   7.757
    1MOL    H75  535   1.370   1.871   7.842
    1MOL    C46  536   1.331   1.746   7.263
    1MOL    H76  537   1.222   1.751   7.263
    1MOL    O38  538   1.368   1.687   7.140
    1MOL    H77  539   1.454   1.640   7.150
    1MOL    C47  540   1.385   1.889   7.272
    1MOL    H78  541   1.495   1.886   7.270
    1MOL    O39  542   1.337   1.966   7.162
    1MOL    H79  543   1.348   1.910   7.084
    1MOL    C48  544   1.341   1.955   7.402
    1MOL    H80  545   1.232   1.965   7.402
    1MOL    O40  546   1.402   2.084   7.409
    2SOL     OW  547   0.230   0.628   0.113
    2SOL    HW1  548   0.137   0.626   0.150
    2SOL    HW2  549   0.231   0.589   0.021
    3SOL     OW  550   0.225   0.275   0.996
    3SOL    HW1  551   0.260   0.258   1.088
    3SOL    HW2  552   0.137   0.230   0.984
    4SOL     OW  553   0.019   0.368   0.647
    4SOL    HW1  554  -0.063   0.411   0.686
    4SOL    HW2  555  -0.009   0.295   0.584
    5SOL     OW  556   0.569   1.275   1.165
    5SOL    HW1  557   0.476   1.268   1.128
    5SOL    HW2  558   0.580   1.364   1.209
    6SOL     OW  559   1.555   1.511   0.703
    6SOL    HW1  560   1.498   1.495   0.784
    6SOL    HW2  561   1.496   1.521   0.623
    7SOL     OW  562   1.135   0.703   0.717
    7SOL    HW1  563   1.192   0.781   0.692
    7SOL    HW2  564   1.075   0.729   0.793
    8SOL     OW  565   1.755   0.607   0.231
    8SOL    HW1  566   1.743   0.594   0.132
    8SOL    HW2  567   1.725   0.526   0.280
    9SOL     OW  568   0.768   1.144   1.023
    9SOL    HW1  569   0.690   1.161   1.083
    9SOL    HW2  570   0.802   1.231   0.987
   10SOL     OW  571   0.850   0.798   1.823
   10SOL    HW1  572   0.846   0.874   1.888
   10SOL    HW2  573   0.872   0.834   1.732
   11SOL     OW  574   0.685   1.012   0.665
   11SOL    HW1  575   0.754   0.996   0.735
   11SOL    HW2  576   0.612   1.069   0.703
   12SOL     OW  577   0.686   1.161   1.803
   12SOL    HW1  578   0.746   1.240   1.817
   12SOL    HW2  579   0.600   1.192   1.762
   13SOL     OW  580   0.335   1.435   1.061
   13SOL    HW1  581   0.257   1.404   1.008
   13SOL    HW2  582   0.393   1.493   1.004
   14SOL     OW  583   1.460   1.505   1.339
   14SOL    HW1  584   1.484   1.599   1.365
   14SOL    HW2  585   1.444   1.451   1.421
   15SOL     OW  586   0.438   0.392   1.499
   15SOL    HW1  587   0.520   0.336   1.508
   15SOL    HW2  588   0.357   0.334   1.503
   16SOL     OW  589   1.603   0.447   0.737
   16SOL    HW1  590   1.529   0.493   0.687
   16SOL    HW2  591   1.654   0.515   0.790
   17SOL     OW  592   0.231   1.713   0.483
   17SOL    HW1  593   0.265   1.790   0.537
   17SOL    HW2  594   0.275   1.713   0.393
   18SOL     OW  595   1.127   1.341   1.690
   18SOL    HW1  596   1.174   1.341   1.778
   18SOL    HW2  597   1.079   1.254   1.679
   19SOL     OW  598   0.230   1.434   0.538
   19SOL    HW1  599   0.204   1.530   0.538
   19SOL    HW2  600   0.159   1.380   0.583
   20SOL     OW  601   0.240   1.091   0.886
   20SOL    HW1  602   0.254   1.007   0.938
   20SOL    HW2  603   0.185   1.155   0.941
   21SOL     OW  604   0.620   1.786   1.439
   21SOL    HW1  605   0.528   1.769   1.474
   21SOL    HW2  606   0.648   1.878   1.465
   22SOL     OW  607   0.606   0.964   0.123
   22SOL    HW1  608   0.613   1.048   0.069
   22SOL    HW2  609   0.652   0.977   0.211
   23SOL     OW  610   1.594   0.114   1.480
   23SOL    HW1  611   1.576   0.181   1.408
   23SOL    HW2  612   1.591   0.160   1.569
   24SOL     OW  613   0.122   0.643   0.563
   24SOL    HW1  614   0.077   0.555   0.580
   24SOL    HW2  615   0.121   0.697   0.647
   25SOL     OW  616   0.027   1.596   0.117
   25SOL    HW1  617   0.008   1.500   0.138
   25SOL    HW2  618  -0.006   1.654   0.192
   26SOL     OW  619   1.689   0.922   0.612
   26SOL    HW1  620   1.784   0.893   0.620
   26SOL    HW2  621   1.681   0.987   0.537
   27SOL     OW  622   1.641   1.108   0.432
   27SOL    HW1  623   1.727   1.110   0.380
   27SOL    HW2  624   1.655   1.155   0.520
   28SOL     OW  625   0.113   0.737   1.597
   28SOL    HW1  626   0.201   0.724   1.642
   28SOL    HW2  627   0.100   0.834   1.575
   29SOL     OW  628   0.613   1.365   0.726
   29SOL    HW1  629   0.564   1.278   0.735
   29SOL    HW2  630   0.590   1.408   0.639
   30SOL     OW  631   1.293   1.228   1.423
   30SOL    HW1  632   1.330   1.155   1.365
   30SOL    HW2  633   1.345   1.233   1.508
   31SOL     OW  634   0.809   0.004   0.502
   31SOL    HW1  635   0.849   0.095   0.493
   31SOL    HW2  636   0.709   0.012   0.508
   32SOL     OW  637   0.197   0.976   1.264
   32SOL    HW1  638   0.286   0.931   1.250
   32SOL    HW2  639   0.124   0.911   1.245
   33SOL     OW  640   1.525   0.999   0.190
   33SOL    HW1  641   1.462   0.923   0.203
   33SOL    HW2  642   1.573   1.017   0.276
   34SOL     OW  643   1.187   1.792   1.616
   34SOL    HW1  644   1.211   1.852   1.540
   34SOL    HW2  645   1.194   1.697   1.586
   35SOL     OW  646   0.317   0.251   1.801
   35SOL    HW1  647   0.388   0.322   1.807
   35SOL    HW2  648   0.229   0.290   1.829
   36SOL     OW  649   1.466   1.417   0.953
   36SOL    HW1  650   1.407   1.423   1.033
   36SOL    HW2  651   1.451   1.329   0.907
   37SOL     OW  652   1.667   1.714   0.572
   37SOL    HW1  653   1.626   1.691   0.484
   37SOL    HW2  654   1.649   1.640   0.637
   38SOL     OW  655   0.598   0.729   0.270
   38SOL    HW1  656   0.622   0.798   0.202
   38SOL    HW2  657   0.520   0.762   0.324
   39SOL     OW  658   1.281   0.345   0.944
   39SOL    HW1  659   1.195   0.295   0.931
   39SOL    HW2  660   1.343   0.291   1.000
   40SOL     OW  661   1.576   1.662   0.307
   40SOL    HW1  662   1.665   1.708   0.310
   40SOL    HW2  663   1.555   1.638   0.212
   41SOL     OW  664   0.807   0.605   1.465
   41SOL    HW1  665   0.760   0.602   1.554
   41SOL    HW2  666   0.756   0.550   1.399
   42SOL     OW  667   1.394   0.469   1.674
   42SOL    HW1  668   1.374   0.512   1.762
   42SOL    HW2  669   1.472   0.407   1.683
   43SOL     OW  670   0.973   0.890   1.572
   43SOL    HW1  671   1.019   0.806   1.543
   43SOL    HW2  672   0.917   0.924   1.497
   44SOL     OW  673   0.991   0.410   1.242
   44SOL    HW1  674   0.914   0.444   1.296
   44SOL    HW2  675   0.957   0.359   1.163
   45SOL     OW  676   1.041   0.701   0.429
   45SOL    HW1  677   1.067   0.697   0.525
   45SOL    HW2  678   0.956   0.650   0.415
   46SOL     OW  679   0.076   0.811   0.789
   46SOL    HW1  680   0.175   0.799   0.798
   46SOL    HW2  681   0.052   0.906   0.810
   47SOL     OW  682   0.130   1.821   1.571
   47SOL    HW1  683   0.120   1.806   1.670
   47SOL    HW2  684   0.044   1.857   1.535
   48SOL     OW  685   0.865   0.348   0.195
   48SOL    HW1  686   0.924   0.411   0.146
   48SOL    HW2  687   0.884   0.254   0.166
   49SOL     OW  688   1.719   0.585   1.831
   49SOL    HW1  689   1.693   0.674   1.795
   49SOL    HW2  690   1.717   0.517   1.758
   50SOL     OW  691   1.362   1.144   0.545
   50SOL    HW1  692   1.445   1.115   0.497
   50SOL    HW2  693   1.313   1.211   0.489
   51SOL     OW  694   0.550   0.196   0.885
   51SOL    HW1  695   0.545   0.191   0.985
   51SOL    HW2  696   0.552   0.292   0.856
   52SOL     OW  697   1.008   1.456   0.477
   52SOL    HW1  698   0.962   1.528   0.425
   52SOL    HW2  699   1.004   1.476   0.575
   53SOL     OW  700   0.351   1.801   0.853
   53SOL    HW1  701   0.401   1.715   0.859
   53SOL    HW2  702   0.416   1.878   0.850
   54SOL     OW  703   1.795   1.066   0.873
   54SOL    HW1  704   1.733   1.051   0.797
   54SOL    HW2  705   1.743   1.077   0.958
   55SOL     OW  706   1.227   1.550   1.506
   55SOL    HW1  707   1.233   1.473   1.570
   55SOL    HW2  708   1.175   1.524   1.426
   56SOL     OW  709   0.321   0.943   0.242
   56SOL    HW1  710   0.403   0.982   0.200
   56SOL    HW2  711   0.294   0.861   0.193
   57SOL     OW  712   1.458   0.735   0.728
   57SOL    HW1  713   1.453   0.670   0.803
   57SOL    HW2  714   1.538   0.794   0.741
   58SOL     OW  715   0.461   1.266   1.727
   58SOL    HW1  716   0.411   1.267   1.641
   58SOL    HW2  717   0.398   1.248   1.803
   59SOL     OW  718   1.111   1.776   0.237
   59SOL    HW1  719   1.051   1.714   0.287
   59SOL    HW2  720   1.142   1.732   0.152
   60SOL     OW  721   0.202   0.285   1.498
   60SOL    HW1  722   0.122   0.345   1.485
   60SOL    HW2  723   0.192   0.236   1.584
   61SOL     OW  724   1.632   1.377   0.081
   61SOL    HW1  725   1.600   1.471   0.071
   61SOL    HW2  726   1.556   1.314   0.069
   62SOL     OW  727   0.464   1.743   0.323
   62SOL    HW1  728   0.497   1.782   0.409
   62SOL    HW2  729   0.540   1.736   0.258
   63SOL     OW  730   1.400   0.107   0.426
   63SOL    HW1  731   1.376   0.070   0.336
   63SOL    HW2  732   1.499   0.123   0.430
   64SOL     OW  733   0.249   1.785   1.241
   64SOL    HW1  734   0.306   1.720   1.291
   64SOL    HW2  735   0.233   1.752   1.148
   65SOL     OW  736   0.940   1.698   0.904
   65SOL    HW1  737   1.020   1.641   0.925
   65SOL    HW2  738   0.891   1.658   0.827
   66SOL     OW  739   0.382   0.700   0.480
   66SOL    HW1  740   0.427   0.610   0.477
   66SOL    HW2  741   0.288   0.689   0.513
   67SOL     OW  742   1.547   0.222   1.729
   67SOL    HW1  743   1.542   0.259   1.821
   67SOL    HW2  744   1.475   0.153   1.717
   68SOL     OW  745   0.614   0.122   0.117
   68SOL    HW1  746   0.712   0.100   0.124
   68SOL    HW2  747   0.583   0.105   0.024
   69SOL     OW  748   0.781   0.264   1.749
   69SOL    HW1  749   0.848   0.203   1.792
   69SOL    HW2  750   0.708   0.283   1.814
   70SOL     OW  751   0.888   1.514   1.195
   70SOL    HW1  752   0.865   1.489   1.101
   70SOL    HW2  753   0.949   1.445   1.234
   71SOL     OW  754   1.351   0.590   1.433
   71SOL    HW1  755   1.379   0.547   1.518
   71SOL    HW2  756   1.376   0.686   1.434
   72SOL     OW  757   0.803   1.402   0.924
   72SOL    HW1  758   0.893   1.416   0.882
   72SOL    HW2  759   0.732   1.404   0.853
   73SOL     OW  760   0.922   0.503   0.899
   73SOL    HW1  761   0.897   0.494   0.803
   73SOL    HW2  762   0.970   0.421   0.930
   74SOL     OW  763   0.539   0.064   0.512
   74SOL    HW1  764   0.458   0.065   0.570
   74SOL    HW2  765   0.542   0.147   0.457
   75SOL     OW  766   1.434   1.188   0.041
   75SOL    HW1  767   1.466   1.112   0.098
   75SOL    HW2  768   1.342   1.215   0.071
   76SOL     OW  769   0.297   0.035   0.171
   76SOL    HW1  770   0.346   0.119   0.150
   76SOL    HW2  771   0.359  -0.030   0.216
   77SOL     OW  772   0.935   0.236   0.480
   77SOL    HW1  773   0.887   0.277   0.402
   77SOL    HW2  774   1.034   0.234   0.461
   78SOL     OW  775   1.076   0.683   1.464
   78SOL    HW1  776   0.996   0.622   1.467
   78SOL    HW2  777   1.157   0.630   1.440
   79SOL     OW  778   1.227   1.570   0.793
   79SOL    HW1  779   1.248   1.644   0.728
   79SOL    HW2  780   1.295   1.570   0.866
   80SOL     OW  781   0.459   1.152   0.741
   80SOL    HW1  782   0.388   1.125   0.806
   80SOL    HW2  783   0.433   1.124   0.648
   81SOL     OW  784   1.271   1.797   0.591
   81SOL    HW1  785   1.315   1.861   0.527
   81SOL    HW2  786   1.221   1.849   0.661
   82SOL     OW  787   1.032   0.549   0.016
   82SOL    HW1  788   0.991   0.631  -0.023
   82SOL    HW2  789   1.096   0.575   0.089
   83SOL     OW  790   0.078   0.556   1.386
   83SOL    HW1  791   0.170   0.555   1.345
   83SOL    HW2  792   0.072   0.630   1.453
   84SOL     OW  793   0.561   0.222   1.147
   84SOL    HW1  794   0.599   0.138   1.184
   84SOL    HW2  795   0.473   0.241   1.191
   85SOL     OW  796   0.866   0.454   0.642
   85SOL    HW1  797   0.834   0.526   0.580
   85SOL    HW2  798   0.890   0.373   0.589
   86SOL     OW  799   1.017   0.039   0.753
   86SOL    HW1  800   0.945   0.044   0.684
   86SOL    HW2  801   0.993  -0.030   0.822
   87SOL     OW  802   1.429   1.173   0.867
   87SOL    HW1  803   1.374   1.089   0.860
   87SOL    HW2  804   1.455   1.202   0.775
   88SOL     OW  805   1.466   0.590   0.992
   88SOL    HW1  806   1.436   0.495   0.999
   88SOL    HW2  807   1.539   0.606   1.058
   89SOL     OW  808   1.857   0.833   0.377
   89SOL    HW1  809   1.899   0.769   0.441
   89SOL    HW2  810   1.819   0.782   0.299
   90SOL     OW  811   0.488   1.385   0.174
   90SOL    HW1  812   0.401   1.370   0.221
   90SOL    HW2  813   0.471   1.411   0.079
   91SOL     OW  814   1.664   1.280   0.657
   91SOL    HW1  815   1.763   1.288   0.671
   91SOL    HW2  816   1.619   1.364   0.688
   92SOL     OW  817   1.390   0.575   0.078
   92SOL    HW1  818   1.336   0.554   0.159
   92SOL    HW2  819   1.481   0.534   0.087
   93SOL     OW  820   0.527   0.256   0.328
   93SOL    HW1  821   0.554   0.197   0.253
   93SOL    HW2  822   0.527   0.351   0.297
   94SOL     OW  823   1.754   1.223   1.588
   94SOL    HW1  824   1.845   1.184   1.575
   94SOL    HW2  825   1.762   1.319   1.612
   95SOL     OW  826   1.064   1.347   1.340
   95SOL    HW1  827   0.984   1.324   1.395
   95SOL    HW2  828   1.147   1.321   1.389
   96SOL     OW  829   1.592   1.629   1.625
   96SOL    HW1  830   1.619   1.663   1.535
   96SOL    HW2  831   1.671   1.591   1.671
   97SOL     OW  832   1.111   1.195   1.100
   97SOL    HW1  833   1.071   1.239   1.181
   97SOL    HW2  834   1.070   1.232   1.017
   98SOL     OW  835   1.638   1.099   1.079
   98SOL    HW1  836   1.643   1.180   1.138
   98SOL    HW2  837   1.552   1.101   1.028
   99SOL     OW  838   0.915   0.089   1.402
   99SOL    HW1  839   0.940   0.069   1.307
   99SOL    HW2  840   0.987   0.145   1.444
  100SOL     OW  841   0.980   1.116   1.719
  100SOL    HW1  842   0.881   1.122   1.729
  100SOL    HW2  843   1.003   1.036   1.663
  101SOL     OW  844   0.705   1.050   0.368
  101SOL    HW1  845   0.691   1.057   0.467
  101SOL    HW2  846   0.789   0.999   0.350
  102SOL     OW  847   0.410   0.813   1.251
  102SOL    HW1  848   0.496   0.825   1.301
  102SOL    HW2  849   0.368   0.726   1.278
  103SOL     OW  850   1.274   0.386   1.262
  103SOL    HW1  851   1.295   0.460   1.326
  103SOL    HW2  852   1.185   0.403   1.219
  104SOL     OW  853   0.064   1.564   1.331
  104SOL    HW1  854   0.018   1.646   1.297
  104SOL    HW2  855   0.162   1.583   1.340
  105SOL     OW  856   0.367   1.100   0.501
  105SOL    HW1  857   0.360   1.183   0.445
  105SOL    HW2  858   0.371   1.020   0.441
  106SOL     OW  859   0.566   0.537   0.865
  106SOL    HW1  860   0.578   0.603   0.791
  106SOL    HW2  861   0.612   0.571   0.948
  107SOL     OW  862   1.252   1.348   0.388
  107SOL    HW1  863   1.302   1.425   0.428
  107SOL    HW2  864   1.157   1.350   0.420
  108SOL     OW  865   1.272   1.445   1.142
  108SOL    HW1  866   1.319   1.458   1.229
  108SOL    HW2  867   1.206   1.371   1.151
  109SOL     OW  868   1.582   0.639   0.472
  109SOL    HW1  869   1.551   0.700   0.545
  109SOL    HW2  870   1.632   0.691   0.403
  110SOL     OW  871   0.354   1.510   1.329
  110SOL    HW1  872   0.333   1.466   1.242
  110SOL    HW2  873   0.451   1.536   1.332
  111SOL     OW  874   0.402   0.751   1.598
  111SOL    HW1  875   0.470   0.806   1.551
  111SOL    HW2  876   0.442   0.663   1.625
  112SOL     OW  877   1.587   0.779   1.670
  112SOL    HW1  878   1.495   0.817   1.665
  112SOL    HW2  879   1.647   0.826   1.605
  113SOL     OW  880   1.013   0.105   1.770
  113SOL    HW1  881   1.019   0.190   1.718
  113SOL    HW2  882   1.045   0.029   1.713
  114SOL     OW  883   0.504   0.050   1.740
  114SOL    HW1  884   0.462  -0.007   1.670
  114SOL    HW2  885   0.438   0.119   1.772
  115SOL     OW  886   0.573   0.870   1.029
  115SOL    HW1  887   0.617   0.959   1.020
  115SOL    HW2  888   0.510   0.870   1.106
  116SOL     OW  889   1.360   0.862   1.045
  116SOL    HW1  890   1.285   0.862   0.979
  116SOL    HW2  891   1.397   0.770   1.054
  117SOL     OW  892   1.209   0.525   0.275
  117SOL    HW1  893   1.222   0.441   0.329
  117SOL    HW2  894   1.180   0.599   0.335
  118SOL     OW  895   0.307   0.213   1.231
  118SOL    HW1  896   0.284   0.250   1.321
  118SOL    HW2  897   0.277   0.118   1.225
  119SOL     OW  898   0.037   1.310   1.282
  119SOL    HW1  899   0.090   1.261   1.350
  119SOL    HW2  900   0.059   1.408   1.287
  120SOL     OW  901   0.732   0.634   1.064
  120SOL    HW1  902   0.791   0.608   0.988
  120SOL    HW2  903   0.704   0.730   1.053
  121SOL     OW  904   1.728   0.935   1.854
  121SOL    HW1  905   1.682   0.928   1.765
  121SOL    HW2  906   1.666   0.979   1.920
  122SOL     OW  907   0.307   0.063   0.618
  122SOL    HW1  908   0.296   0.157   0.651
  122SOL    HW2  909   0.302   0.000   0.695
  123SOL     OW  910   1.622   0.367   0.374
  123SOL    HW1  911   1.624   0.291   0.438
  123SOL    HW2  912   1.574   0.444   0.414
  124SOL     OW  913   1.023   0.766   0.966
  124SOL    HW1  914   1.038   0.787   1.062
  124SOL    HW2  915   0.993   0.671   0.957
  125SOL     OW  916   0.980   1.573   1.700
  125SOL    HW1  917   0.960   1.617   1.612
  125SOL    HW2  918   1.019   1.482   1.684
  126SOL     OW  919   1.859   1.518   1.605
  126SOL    HW1  920   1.873   1.545   1.510
  126SOL    HW2  921   1.942   1.540   1.658
  127SOL     OW  922   0.350   0.898   1.804
  127SOL    HW1  923   0.426   0.942   1.852
  127SOL    HW2  924   0.385   0.851   1.722
  128SOL     OW  925   1.540   0.274   0.125
  128SOL    HW1  926   1.479   0.199   0.148
  128SOL    HW2  927   1.562   0.326   0.208
  129SOL     OW  928   1.303   0.838   0.042
  129SOL    HW1  929   1.337   0.745   0.057
  129SOL    HW2  930   1.321   0.865  -0.053
  130SOL     OW  931   1.068   1.333   0.849
  130SOL    HW1  932   1.075   1.249   0.794
  130SOL    HW2  933   1.130   1.402   0.813
  131SOL     OW  934   0.319   0.810   0.949
  131SOL    HW1  935   0.412   0.846   0.954
  131SOL    HW2  936   0.313   0.725   1.001
  132SOL     OW  937   0.339   0.509   1.006
  132SOL    HW1  938   0.287   0.426   0.989
  132SOL    HW2  939   0.416   0.514   0.942
  133SOL     OW  940   1.138   0.380   1.678
  133SOL    HW1  941   1.093   0.443   1.742
  133SOL    HW2  942   1.231   0.411   1.661
  134SOL     OW  943   1.160   0.207   1.477
  134SOL    HW1  944   1.160   0.271   1.554
  134SOL    HW2  945   1.188   0.255   1.394
  135SOL     OW  946   0.008   1.326   0.200
  135SOL    HW1  947  -0.085   1.347   0.169
  135SOL    HW2  948   0.018   1.227   0.213
  136SOL     OW  949   0.088   1.801   0.927
  136SOL    HW1  950   0.046   1.715   0.900
  136SOL    HW2  951   0.182   1.804   0.893
  137SOL     OW  952   0.504   1.568   0.910
  137SOL    HW1  953   0.570   1.642   0.919
  137SOL    HW2  954   0.548   1.489   0.868
  138SOL     OW  955   1.002   0.796   1.238
  138SOL    HW1  956   1.043   0.764   1.324
  138SOL    HW2  957   0.906   0.769   1.235
  139SOL     OW  958   0.040   0.544   1.114
  139SOL    HW1  959   0.125   0.511   1.073
  139SOL    HW2  960   0.053   0.559   1.212
  140SOL     OW  961   0.189   0.520   1.722
  140SOL    HW1  962   0.248   0.480   1.652
  140SOL    HW2  963   0.131   0.591   1.681
  141SOL     OW  964   1.369   0.950   1.660
  141SOL    HW1  965   1.408   1.039   1.680
  141SOL    HW2  966   1.379   0.930   1.563
  142SOL     OW  967   0.815   0.572   0.325
  142SOL    HW1  968   0.822   0.483   0.279
  142SOL    HW2  969   0.721   0.606   0.317
  143SOL     OW  970   1.657   0.604   1.206
  143SOL    HW1  971   1.619   0.535   1.268
  143SOL    HW2  972   1.739   0.568   1.162
  144SOL     OW  973   0.252   1.564   1.744
  144SOL    HW1  974   0.222   1.621   1.820
  144SOL    HW2  975   0.245   1.467   1.770
  145SOL     OW  976   0.671   0.464   1.269
  145SOL    HW1  977   0.637   0.375   1.239
  145SOL    HW2  978   0.697   0.518   1.189
  146SOL     OW  979   0.930   1.678   1.465
  146SOL    HW1  980   0.906   1.660   1.370
  146SOL    HW2  981   0.960   1.772   1.475
  147SOL     OW  982   0.473   0.500   0.191
  147SOL    HW1  983   0.534   0.580   0.195
  147SOL    HW2  984   0.378   0.531   0.198
  148SOL     OW  985   0.159   1.137   1.466
  148SOL    HW1  986   0.181   1.076   1.542
  148SOL    HW2  987   0.169   1.088   1.380
  149SOL     OW  988   1.347   1.059   1.234
  149SOL    HW1  989   1.371   0.996   1.160
  149SOL    HW2  990   1.257   1.099   1.216
  150SOL     OW  991   1.302   0.855   0.309
  150SOL    HW1  992   1.216   0.824   0.351
  150SOL    HW2  993   1.298   0.841   0.210
  151SOL     OW  994   1.759   1.747   1.154
  151SOL    HW1  995   1.820   1.777   1.081
  151SOL    HW2  996   1.721   1.658   1.132
  152SOL     OW  997   1.252   1.731   1.128
  152SOL    HW1  998   1.336   1.736   1.074
  152SOL    HW2  999   1.229   1.635   1.146
  153SOL     OW 1000   0.083   1.258   1.022
  153SOL    HW1 1001   0.078   1.257   1.122
  153SOL    HW2 1002   0.000   1.217   0.984
  154SOL     OW 1003   0.688   1.662   1.716
  154SOL    HW1 1004   0.632   1.743   1.725
  154SOL    HW2 1005   0.740   1.666   1.630
  155SOL     OW 1006   0.903   0.086   0.133
  155SOL    HW1 1007   0.954   0.087   0.047
  155SOL    HW2 1008   0.959   0.044   0.204
  156SOL     OW 1009   1.726   0.135   0.523
  156SOL    HW1 1010   1.799   0.118   0.456
  156SOL    HW2 1011   1.695   0.048   0.561
  157SOL     OW 1012   1.388   1.573   0.477
  157SOL    HW1 1013   1.455   1.585   0.403
  157SOL    HW2 1014   1.348   1.662   0.500
  158SOL     OW 1015   0.130   1.794   1.851
  158SOL    HW1 1016   0.089   1.720   1.904
  158SOL    HW2 1017   0.194   1.845   1.909
  159SOL     OW 1018   1.280   0.927   0.672
  159SOL    HW1 1019   1.340   0.846   0.674
  159SOL    HW2 1020   1.320   0.996   0.612
  160SOL     OW 1021   0.830   1.273   1.422
  160SOL    HW1 1022   0.825   1.306   1.517
  160SOL    HW2 1023   0.744   1.292   1.376
  161SOL     OW 1024   0.672   1.616   0.154
  161SOL    HW1 1025   0.681   1.626   0.055
  161SOL    HW2 1026   0.632   1.527   0.175
  162SOL     OW 1027   1.650   1.720   1.394
  162SOL    HW1 1028   1.703   1.730   1.310
  162SOL    HW2 1029   1.623   1.810   1.428
  163SOL     OW 1030   1.841   0.175   0.963
  163SOL    HW1 1031   1.880   0.090   0.927
  163SOL    HW2 1032   1.743   0.177   0.944
  164SOL     OW 1033   0.263   0.326   0.720
  164SOL    HW1 1034   0.184   0.377   0.686
  164SOL    HW2 1035   0.254   0.311   0.818
  165SOL     OW 1036   1.194   1.612   0.031
  165SOL    HW1 1037   1.200   1.519   0.068
  165SOL    HW2 1038   1.135   1.612  -0.049
  166SOL     OW 1039   0.822   1.002   1.372
  166SOL    HW1 1040   0.862   1.001   1.280
  166SOL    HW2 1041   0.832   1.094   1.412
  167SOL     OW 1042   0.916   0.910   0.291
  167SOL    HW1 1043   0.979   0.948   0.223
  167SOL    HW2 1044   0.956   0.827   0.330
  168SOL     OW 1045   1.504   1.607   0.044
  168SOL    HW1 1046   1.412   1.644   0.051
  168SOL    HW2 1047   1.542   1.627  -0.046
  169SOL     OW 1048   0.372   1.288   1.490
  169SOL    HW1 1049   0.359   1.381   1.456
  169SOL    HW2 1050   0.288   1.236   1.477
  170SOL     OW 1051   1.614   1.292   1.289
  170SOL    HW1 1052   1.674   1.295   1.369
  170SOL    HW2 1053   1.539   1.356   1.302
  171SOL     OW 1054   1.039   1.098   0.696
  171SOL    HW1 1055   0.969   1.051   0.750
  171SOL    HW2 1056   1.098   1.030   0.653
  172SOL     OW 1057   1.014   0.236   0.971
  172SOL    HW1 1058   1.006   0.200   0.878
  172SOL    HW2 1059   1.012   0.160   1.036
  173SOL     OW 1060   0.590   1.487   0.491
  173SOL    HW1 1061   0.632   1.429   0.421
  173SOL    HW2 1062   0.546   1.566   0.447
  174SOL     OW 1063   1.709   0.385   1.381
  174SOL    HW1 1064   1.782   0.454   1.385
  174SOL    HW2 1065   1.737   0.310   1.322
  175SOL     OW 1066   0.255   1.348   0.290
  175SOL    HW1 1067   0.159   1.349   0.263
  175SOL    HW2 1068   0.267   1.401   0.374
  176SOL     OW 1069   0.105   1.013   1.726
  176SOL    HW1 1070   0.028   0.980   1.780
  176SOL    HW2 1071   0.190   0.983   1.768
  177SOL     OW 1072   0.672   0.203   1.489
  177SOL    HW1 1073   0.762   0.187   1.449
  177SOL    HW2 1074   0.680   0.208   1.588
  178SOL     OW 1075   0.075   0.345   0.033
  178SOL    HW1 1076  -0.017   0.317   0.004
  178SOL    HW2 1077   0.106   0.422  -0.023
  179SOL     OW 1078   1.440   0.856   1.398
  179SOL    HW1 1079   1.383   0.908   1.335
  179SOL    HW2 1080   1.536   0.868   1.374
  180SOL     OW 1081   0.072   0.166   0.318
  180SOL    HW1 1082   0.055   0.249   0.264
  180SOL    HW2 1083   0.162   0.129   0.296
  181SOL     OW 1084   1.183   1.335   0.119
  181SOL    HW1 1085   1.084   1.324   0.121
  181SOL    HW2 1086   1.217   1.350   0.212
  182SOL     OW 1087   0.613   0.842   1.431
  182SOL    HW1 1088   0.669   0.923   1.414
  182SOL    HW2 1089   0.672   0.762   1.434
  183SOL     OW 1090   1.493   1.767   0.959
  183SOL    HW1 1091   1.526   1.831   0.890
  183SOL    HW2 1092   1.559   1.761   1.034
  184SOL     OW 1093   0.716   0.565   1.708
  184SOL    HW1 1094   0.735   0.630   1.782
  184SOL    HW2 1095   0.776   0.485   1.717
  185SOL     OW 1096   1.450   1.220   1.633
  185SOL    HW1 1097   1.441   1.210   1.732
  185SOL    HW2 1098   1.546   1.213   1.607
  186SOL     OW 1099   0.390   1.741   1.560
  186SOL    HW1 1100   0.299   1.782   1.558
  186SOL    HW2 1101   0.383   1.647   1.592
  187SOL     OW 1102   1.674   0.883   1.254
  187SOL    HW1 1103   1.647   0.794   1.217
  187SOL    HW2 1104   1.675   0.951   1.181
  188SOL     OW 1105   1.225   0.325   0.449
  188SOL    HW1 1106   1.290   0.251   0.438
  188SOL    HW2 1107   1.245   0.375   0.533
  189SOL     OW 1108   0.594   0.745   0.652
  189SOL    HW1 1109   0.644   0.830   0.633
  189SOL    HW2 1110   0.506   0.747   0.604
  190SOL     OW 1111   1.777   0.342   1.642
  190SOL    HW1 1112   1.760   0.373   1.548
  190SOL    HW2 1113   1.693   0.305   1.680
  191SOL     OW 1114   1.730   0.934   1.517
  191SOL    HW1 1115   1.768   1.025   1.532
  191SOL    HW2 1116   1.722   0.917   1.418
  192SOL     OW 1117   0.859   1.374   0.016
  192SOL    HW1 1118   0.813   1.389   0.104
  192SOL    HW2 1119   0.903   1.459  -0.014
  193SOL     OW 1120   0.661   1.790   0.953
  193SOL    HW1 1121   0.615   1.878   0.940
  193SOL    HW2 1122   0.760   1.802   0.946
  194SOL     OW 1123   0.859   0.956   0.861
  194SOL    HW1 1124   0.913   0.887   0.909
  194SOL    HW2 1125   0.827   1.025   0.927
  195SOL     OW 1126   1.083   0.984   0.087
  195SOL    HW1 1127   1.060   1.037   0.005
  195SOL    HW2 1128   1.164   0.928   0.068
  196SOL     OW 1129   1.861   1.569   0.851
  196SOL    HW1 1130   1.790   1.557   0.781
  196SOL    HW2 1131   1.862   1.490   0.911
  197SOL     OW 1132   0.221   1.314   1.844
  197SOL    HW1 1133   0.156   1.241   1.823
  197SOL    HW2 1134   0.225   1.328   1.942
  198SOL     OW 1135   0.079   1.240   0.653
  198SOL    HW1 1136   0.078   1.193   0.741
  198SOL    HW2 1137   0.161   1.212   0.602
  199SOL     OW 1138   0.672   1.391   1.624
  199SOL    HW1 1139   0.594   1.341   1.662
  199SOL    HW2 1140   0.669   1.486   1.655
  200SOL     OW 1141   1.824   0.192   1.227
  200SOL    HW1 1142   1.820   0.102   1.271
  200SOL    HW2 1143   1.827   0.181   1.128
  201SOL     OW 1144   0.428   0.424   0.520
  201SOL    HW1 1145   0.458   0.352   0.458
  201SOL    HW2 1146   0.389   0.384   0.603
  202SOL     OW 1147   1.705   1.487   1.104
  202SOL    HW1 1148   1.612   1.462   1.077
  202SOL    HW2 1149   1.731   1.437   1.186
  203SOL     OW 1150   0.317   0.547   1.280
  203SOL    HW1 1151   0.355   0.488   1.352
  203SOL    HW2 1152   0.357   0.521   1.192
  204SOL     OW 1153   0.812   1.586   0.687
  204SOL    HW1 1154   0.844   1.596   0.593
  204SOL    HW2 1155   0.733   1.524   0.689
  205SOL     OW 1156   1.424   0.214   1.112
  205SOL    HW1 1157   1.476   0.149   1.167
  205SOL    HW2 1158   1.375   0.277   1.173
  206SOL     OW 1159   1.001   0.034   1.154
  206SOL    HW1 1160   0.938  -0.038   1.123
  206SOL    HW2 1161   1.094  -0.002   1.154
  207SOL     OW 1162   0.770   1.330   0.301
  207SOL    HW1 1163   0.724   1.243   0.318
  207SOL    HW2 1164   0.861   1.327   0.342
  208SOL     OW 1165   0.618   1.567   1.284
  208SOL    HW1 1166   0.613   1.649   1.341
  208SOL    HW2 1167   0.707   1.564   1.239
  209SOL     OW 1168   1.352   0.052   0.168
  209SOL    HW1 1169   1.387   0.011   0.084
  209SOL    HW2 1170   1.262   0.014   0.188
  210SOL     OW 1171   1.300   0.453   0.691
  210SOL    HW1 1172   1.241   0.533   0.695
  210SOL    HW2 1173   1.315   0.418   0.784
  211SOL     OW 1174   1.593   0.221   0.882
  211SOL    HW1 1175   1.509   0.220   0.936
  211SOL    HW2 1176   1.595   0.304   0.826
  212SOL     OW 1177   0.039   1.077   0.300
  212SOL    HW1 1178   0.138   1.066   0.291
  212SOL    HW2 1179  -0.001   0.991   0.332
  213SOL     OW 1180   0.875   1.646   0.337
  213SOL    HW1 1181   0.798   1.611   0.283
  213SOL    HW2 1182   0.843   1.717   0.399
  214SOL     OW 1183   0.230   0.628   1.975
  214SOL    HW1 1184   0.137   0.626   2.012
  214SOL    HW2 1185   0.231   0.589   1.883
  215SOL     OW 1186   0.225   0.275   2.858
  215SOL    HW1 1187   0.260   0.258   2.950
  215SOL    HW2 1188   0.137   0.230   2.846
  216SOL     OW 1189   0.019   0.368   2.509
  216SOL    HW1 1190  -0.063   0.411   2.548
  216SOL    HW2 1191  -0.009   0.295   2.446
  217SOL     OW 1192   0.569   1.275   3.027
  217SOL    HW1 1193   0.476   1.268   2.990
  217SOL    HW2 1194   0.580   1.364   3.071
  218SOL     OW 1195   1.555   1.511   2.565
  218SOL    HW1 1196   1.498   1.495   2.646
  218SOL    HW2 1197   1.496   1.521   2.485
  219SOL     OW 1198   1.135   0.703   2.579
  219SOL    HW1 1199   1.192   0.781   2.554
  219SOL    HW2 1200   1.075   0.729   2.655
  220SOL     OW 1201   1.755   0.607   2.093
  220SOL    HW1 1202   1.743   0.594   1.994
  220SOL    HW2 1203   1.725   0.526   2.142
  221SOL     OW 1204   0.768   1.144   2.885
  221SOL    HW1 1205   0.690   1.161   2.945
  221SOL    HW2 1206   0.802   1.231   2.849
  222SOL     OW 1207   0.850   0.798   3.685
  222SOL    HW1 1208   0.846   0.874   3.750
  222SOL    HW2 1209   0.872   0.834   3.594
  223SOL     OW 1210   0.685   1.012   2.527
  223SOL    HW1 1211   0.754   0.996   2.597
  223SOL    HW2 1212   0.612   1.069   2.565
  224SOL     OW 1213   0.686   1.161   3.665
  224SOL    HW1 1214   0.746   1.240   3.679
  224SOL    HW2 1215   0.600   1.192   3.624
  225SOL     OW 1216   0.335   1.435   2.923
  225SOL    HW1 1217   0.257   1.404   2.870
  225SOL    HW2 1218   0.393   1.493   2.866
  226SOL     OW 1219   1.460   1.505   3.201
  226SOL    HW1 1220   1.484   1.599   3.227
  226SOL    HW2 1221   1.444   1.451   3.283
  227SOL     OW 1222   0.438   0.392   3.361
  227SOL    HW1 1223   0.520   0.336   3.370
  227SOL    HW2 1224   0.357   0.334   3.365
  228SOL     OW 1225   1.603   0.447   2.599
  228SOL    HW1 1226   1.529   0.493   2.549
  228SOL    HW2 1227   1.654   0.515   2.652
  229SOL     OW 1228   0.231   1.713   2.345
  229SOL    HW1 1229   0.265   1.790   2.399
  229SOL    HW2 1230   0.275   1.713   2.255
  230SOL     OW 1231   1.127   1.341   3.552
  230SOL    HW1 1232   1.174   1.341   3.640
  230SOL    HW2 1233   1.079   1.254   3.541
  231SOL     OW 1234   0.230   1.434   2.400
  231SOL    HW1 1235   0.204   1.530   2.400
  231SOL    HW2 1236   0.159   1.380   2.445
  232SOL     OW 1237   0.240   1.091   2.748
  232SOL    HW1 1238   0.254   1.007   2.800
  232SOL    HW2 1239   0.185   1.155   2.803
  233SOL     OW 1240   0.620   1.786   3.301
  233SOL    HW1 1241   0.528   1.769   3.336
  233SOL    HW2 1242   0.648   1.878   3.327
  234SOL     OW 1243   0.606   0.964   1.985
  234SOL    HW1 1244   0.613   1.048   1.931
  234SOL    HW2 1245   0.652   0.977   2.073
  235SOL     OW 1246   1.594   0.114   3.342
  235SOL    HW1 1247   1.576   0.181   3.270
  235SOL    HW2 1248   1.591   0.160   3.431
  236SOL     OW 1249   0.122   0.643   2.425
  236SOL    HW1 1250   0.077   0.555   2.442
  236SOL    HW2 1251   0.121   0.697   2.509
  237SOL     OW 1252   0.027   1.596   1.979
  237SOL    HW1 1253   0.008   1.500   2.000
  237SOL    HW2 1254  -0.006   1.654   2.054
  238SOL     OW 1255   1.689   0.922   2.474
  238SOL    HW1 1256   1.784   0.893   2.482
  238SOL    HW2 1257   1.681   0.987   2.399
  239SOL     OW 1258   1.641   1.108   2.294
  239SOL    HW1 1259   1.727   1.110   2.242
  239SOL    HW2 1260   1.655   1.155   2.382
  240SOL     OW 1261   0.113   0.737   3.459
  240SOL    HW1 1262   0.201   0.724   3.504
  240SOL    HW2 1263   0.100   0.834   3.437
  241SOL     OW 1264   0.613   1.365   2.588
  241SOL    HW1 1265   0.564   1.278   2.597
  241SOL    HW2 1266   0.590   1.408   2.501
  242SOL     OW 1267   1.293   1.228   3.285
  242SOL    HW1 1268   1.330   1.155   3.227
  242SOL    HW2 1269   1.345   1.233   3.370
  243SOL     OW 1270   0.809   0.004   2.364
  243SOL    HW1 1271   0.849   0.095   2.355
  243SOL    HW2 1272   0.709   0.012   2.370
  244SOL     OW 1273   0.197   0.976   3.126
  244SOL    HW1 1274   0.286   0.931   3.112
  244SOL    HW2 1275   0.124   0.911   3.107
  245SOL     OW 1276   1.525   0.999   2.052
  245SOL    HW1 1277   1.462   0.923   2.065
  245SOL    HW2 1278   1.573   1.017   2.138
  246SOL     OW 1279   1.187   1.792   3.478
  246SOL    HW1 1280   1.211   1.852   3.402
  246SOL    HW2 1281   1.194   1.697   3.448
  247SOL     OW 1282   0.317   0.251   3.663
  247SOL    HW1 1283   0.388   0.322   3.669
  247SOL    HW2 1284   0.229   0.290   3.691
  248SOL     OW 1285   1.466   1.417   2.815
  248SOL    HW1 1286   1.407   1.423   2.895
  248SOL    HW2 1287   1.451   1.329   2.769
  249SOL     OW 1288   1.667   1.714   2.434
  249SOL    HW1 1289   1.626   1.691   2.346
  249SOL    HW2 1290   1.649   1.640   2.499
  250SOL     OW 1291   0.598   0.729   2.132
  250SOL    HW1 1292   0.622   0.798   2.064
  250SOL    HW2 1293   0.520   0.762   2.186
  251SOL     OW 1294   1.281   0.345   2.806
  251SOL    HW1 1295   1.195   0.295   2.793
  251SOL    HW2 1296   1.343   0.291   2.862
  252SOL     OW 1297   1.576   1.662   2.169
  252SOL    HW1 1298   1.665   1.708   2.172
  252SOL    HW2 1299   1.555   1.638   2.074
  253SOL     OW 1300   0.807   0.605   3.327
  253SOL    HW1 1301   0.760   0.602   3.416
  253SOL    HW2 1302   0.756   0.550   3.261
  254SOL     OW 1303   1.394   0.469   3.536
  254SOL    HW1 1304   1.374   0.512   3.624
  254SOL    HW2 1305   1.472   0.407   3.545
  255SOL     OW 1306   0.973   0.890   3.434
  255SOL    HW1 1307   1.019   0.806   3.405
  255SOL    HW2 1308   0.917   0.924   3.359
  256SOL     OW 1309   0.991   0.410   3.104
  256SOL    HW1 1310   0.914   0.444   3.158
  256SOL    HW2 1311   0.957   0.359   3.025
  257SOL     OW 1312   1.041   0.701   2.291
  257SOL    HW1 1313   1.067   0.697   2.387
  257SOL    HW2 1314   0.956   0.650   2.277
  258SOL     OW 1315   0.076   0.811   2.651
  258SOL    HW1 1316   0.175   0.799   2.660
  258SOL    HW2 1317   0.052   0.906   2.672
  259SOL     OW 1318   0.130   1.821   3.433
  259SOL    HW1 1319   0.120   1.806   3.532
  259SOL    HW2 1320   0.044   1.857   3.397
  260SOL     OW 1321   0.865   0.348   2.057
  260SOL    HW1 1322   0.924   0.411   2.008
  260SOL    HW2 1323   0.884   0.254   2.028
  261SOL     OW 1324   1.719   0.585   3.693
  261SOL    HW1 1325   1.693   0.674   3.657
  261SOL    HW2 1326   1.717   0.517   3.620
  262SOL     OW 1327   1.362   1.144   2.407
  262SOL    HW1 1328   1.445   1.115   2.359
  262SOL    HW2 1329   1.313   1.211   2.351
  263SOL     OW 1330   0.550   0.196   2.747
  263SOL    HW1 1331   0.545   0.191   2.847
  263SOL    HW2 1332   0.552   0.292   2.718
  264SOL     OW 1333   1.008   1.456   2.339
  264SOL    HW1 1334   0.962   1.528   2.287
  264SOL    HW2 1335   1.004   1.476   2.437
  265SOL     OW 1336   0.351   1.801   2.715
  265SOL    HW1 1337   0.401   1.715   2.721
  265SOL    HW2 1338   0.416   1.878   2.712
  266SOL     OW 1339   1.795   1.066   2.735
  266SOL    HW1 1340   1.733   1.051   2.659
  266SOL    HW2 1341   1.743   1.077   2.820
  267SOL     OW 1342   1.227   1.550   3.368
  267SOL    HW1 1343   1.233   1.473   3.432
  267SOL    HW2 1344   1.175   1.524   3.288
  268SOL     OW 1345   0.321   0.943   2.104
  268SOL    HW1 1346   0.403   0.982   2.062
  268SOL    HW2 1347   0.294   0.861   2.055
  269SOL     OW 1348   1.458   0.735   2.590
  269SOL    HW1 1349   1.453   0.670   2.665
  269SOL    HW2 1350   1.538   0.794   2.603
  270SOL     OW 1351   0.461   1.266   3.589
  270SOL    HW1 1352   0.411   1.267   3.503
  270SOL    HW2 1353   0.398   1.248   3.665
  271SOL     OW 1354   1.111   1.776   2.099
  271SOL    HW1 1355   1.051   1.714   2.149
  271SOL    HW2 1356   1.142   1.732   2.014
  272SOL     OW 1357   0.202   0.285   3.360
  272SOL    HW1 1358   0.122   0.345   3.347
  272SOL    HW2 1359   0.192   0.236   3.446
  273SOL     OW 1360   1.632   1.377   1.943
  273SOL    HW1 1361   1.600   1.471   1.933
  273SOL    HW2 1362   1.556   1.314   1.931
  274SOL     OW 1363   0.464   1.743   2.185
  274SOL    HW1 1364   0.497   1.782   2.271
  274SOL    HW2 1365   0.540   1.736   2.120
  275SOL     OW 1366   1.400   0.107   2.288
  275SOL    HW1 1367   1.376   0.070   2.198
  275SOL    HW2 1368   1.499   0.123   2.292
  276SOL     OW 1369   0.249   1.785   3.103
  276SOL    HW1 1370   0.306   1.720   3.153
  276SOL    HW2 1371   0.233   1.752   3.010
  277SOL     OW 1372   0.940   1.698   2.766
  277SOL    HW1 1373   1.020   1.641   2.787
  277SOL    HW2 1374   0.891   1.658   2.689
  278SOL     OW 1375   0.382   0.700   2.342
  278SOL    HW1 1376   0.427   0.610   2.339
  278SOL    HW2 1377   0.288   0.689   2.375
  279SOL     OW 1378   1.547   0.222   3.591
  279SOL    HW1 1379   1.542   0.259   3.683
  279SOL    HW2 1380   1.475   0.153   3.579
  280SOL     OW 1381   0.614   0.122   1.979
  280SOL    HW1 1382   0.712   0.100   1.986
  280SOL    HW2 1383   0.583   0.105   1.886
  281SOL     OW 1384   0.781   0.264   3.611
  281SOL    HW1 1385   0.848   0.203   3.654
  281SOL    HW2 1386   0.708   0.283   3.676
  282SOL     OW 1387   0.888   1.514   3.057
  282SOL    HW1 1388   0.865   1.489   2.963
  282SOL    HW2 1389   0.949   1.445   3.096
  283SOL     OW 1390   1.351   0.590   3.295
  283SOL    HW1 1391   1.379   0.547   3.380
  283SOL    HW2 1392   1.376   0.686   3.296
  284SOL     OW 1393   0.803   1.402   2.786
  284SOL    HW1 1394   0.893   1.416   2.744
  284SOL    HW2 1395   0.732   1.404   2.715
  285SOL     OW 1396   0.922   0.503   2.761
  285SOL    HW1 1397   0.897   0.494   2.665
  285SOL    HW2 1398   0.970   0.421   2.792
  286SOL     OW 1399   0.539   0.064   2.374
  286SOL    HW1 1400   0.458   0.065   2.432
  286SOL    HW2 1401   0.542   0.147   2.319
  287SOL     OW 1402   1.434   1.188   1.903
  287SOL    HW1 1403   1.466   1.112   1.960
  287SOL    HW2 1404   1.342   1.215   1.933
  288SOL     OW 1405   0.297   0.035   2.033
  288SOL    HW1 1406   0.346   0.119   2.012
  288SOL    HW2 1407   0.359  -0.030   2.078
  289SOL     OW 1408   0.935   0.236   2.342
  289SOL    HW1 1409   0.887   0.277   2.264
  289SOL    HW2 1410   1.034   0.234   2.323
  290SOL     OW 1411   1.076   0.683   3.326
  290SOL    HW1 1412   0.996   0.622   3.329
  290SOL    HW2 1413   1.157   0.630   3.302
  291SOL     OW 1414   1.227   1.570   2.655
  291SOL    HW1 1415   1.248   1.644   2.590
  291SOL    HW2 1416   1.295   1.570   2.728
  292SOL     OW 1417   0.459   1.152   2.603
  292SOL    HW1 1418   0.388   1.125   2.668
  292SOL    HW2 1419   0.433   1.124   2.510
  293SOL     OW 1420   1.271   1.797   2.453
  293SOL    HW1 1421   1.315   1.861   2.389
  293SOL    HW2 1422   1.221   1.849   2.523
  294SOL     OW 1423   1.032   0.549   1.878
  294SOL    HW1 1424   0.991   0.631   1.839
  294SOL    HW2 1425   1.096   0.575   1.951
  295SOL     OW 1426   0.078   0.556   3.248
  295SOL    HW1 1427   0.170   0.555   3.207
  295SOL    HW2 1428   0.072   0.630   3.315
  296SOL     OW 1429   0.561   0.222   3.009
  296SOL    HW1 1430   0.599   0.138   3.046
  296SOL    HW2 1431   0.473   0.241   3.053
  297SOL     OW 1432   0.866   0.454   2.504
  297SOL    HW1 1433   0.834   0.526   2.442
  297SOL    HW2 1434   0.890   0.373   2.451
  298SOL     OW 1435   1.017   0.039   2.615
  298SOL    HW1 1436   0.945   0.044   2.546
  298SOL    HW2 1437   0.993  -0.030   2.684
  299SOL     OW 1438   1.429   1.173   2.729
  299SOL    HW1 1439   1.374   1.089   2.722
  299SOL    HW2 1440   1.455   1.202   2.637
  300SOL     OW 1441   1.466   0.590   2.854
  300SOL    HW1 1442   1.436   0.495   2.861
  300SOL    HW2 1443   1.539   0.606   2.920
  301SOL     OW 1444   1.857   0.833   2.239
  301SOL    HW1 1445   1.899   0.769   2.303
  301SOL    HW2 1446   1.819   0.782   2.161
  302SOL     OW 1447   0.488   1.385   2.036
  302SOL    HW1 1448   0.401   1.370   2.083
  302SOL    HW2 1449   0.471   1.411   1.941
  303SOL     OW 1450   1.664   1.280   2.519
  303SOL    HW1 1451   1.763   1.288   2.533
  303SOL    HW2 1452   1.619   1.364   2.550
  304SOL     OW 1453   1.390   0.575   1.940
  304SOL    HW1 1454   1.336   0.554   2.021
  304SOL    HW2 1455   1.481   0.534   1.949
  305SOL     OW 1456   0.527   0.256   2.190
  305SOL    HW1 1457   0.554   0.197   2.115
  305SOL    HW2 1458   0.527   0.351   2.159
  306SOL     OW 1459   1.754   1.223   3.450
  306SOL    HW1 1460   1.845   1.184   3.437
  306SOL    HW2 1461   1.762   1.319   3.474
  307SOL     OW 1462   1.064   1.347   3.202
  307SOL    HW1 1463   0.984   1.324   3.257
  307SOL    HW2 1464   1.147   1.321   3.251
  308SOL     OW 1465   1.592   1.629   3.487
  308SOL    HW1 1466   1.619   1.663   3.397
  308SOL    HW2 1467   1.671   1.591   3.533
  309SOL     OW 1468   1.111   1.195   2.962
  309SOL    HW1 1469   1.071   1.239   3.043
  309SOL    HW2 1470   1.070   1.232   2.879
  310SOL     OW 1471   1.638   1.099   2.941
  310SOL    HW1 1472   1.643   1.180   3.000
  310SOL    HW2 1473   1.552   1.101   2.890
  311SOL     OW 1474   0.915   0.089   3.264
  311SOL    HW1 1475   0.940   0.069   3.169
  311SOL    HW2 1476   0.987   0.145   3.306
  312SOL     OW 1477   0.980   1.116   3.581
  312SOL    HW1 1478   0.881   1.122   3.591
  312SOL    HW2 1479   1.003   1.036   3.525
  313SOL     OW 1480   0.705   1.050   2.230
  313SOL    HW1 1481   0.691   1.057   2.329
  313SOL    HW2 1482   0.789   0.999   2.212
  314SOL     OW 1483   0.410   0.813   3.113
  314SOL    HW1 1484   0.496   0.825   3.163
  314SOL    HW2 1485   0.368   0.726   3.140
  315SOL     OW 1486   1.274   0.386   3.124
  315SOL    HW1 1487   1.295   0.460   3.188
  315SOL    HW2 1488   1.185   0.403   3.081
  316SOL     OW 1489   0.064   1.564   3.193
  316SOL    HW1 1490   0.018   1.646   3.159
  316SOL    HW2 1491   0.162   1.583   3.202
  317SOL     OW 1492   0.367   1.100   2.363
  317SOL    HW1 1493   0.360   1.183   2.307
  317SOL    HW2 1494   0.371   1.020   2.303
  318SOL     OW 1495   0.566   0.537   2.727
  318SOL    HW1 1496   0.578   0.603   2.653
  318SOL    HW2 1497   0.612   0.571   2.810
  319SOL     OW 1498   1.252   1.348   2.250
  319SOL    HW1 1499   1.302   1.425   2.290
  319SOL    HW2 1500   1.157   1.350   2.282
  320SOL     OW 1501   1.272   1.445   3.004
  320SOL    HW1 1502   1.319   1.458   3.091
  320SOL    HW2 1503   1.206   1.371   3.013
  321SOL     OW 1504   1.582   0.639   2.334
  321SOL    HW1 1505   1.551   0.700   2.407
  321SOL    HW2 1506   1.632   0.691   2.265
  322SOL     OW 1507   0.354   1.510   3.191
  322SOL    HW1 1508   0.333   1.466   3.104
  322SOL    HW2 1509   0.451   1.536   3.194
  323SOL     OW 1510   0.402   0.751   3.460
  323SOL    HW1 1511   0.470   0.806   3.413
  323SOL    HW2 1512   0.442   0.663   3.487
  324SOL     OW 1513   1.587   0.779   3.532
  324SOL    HW1 1514   1.495   0.817   3.527
  324SOL    HW2 1515   1.647   0.826   3.467
  325SOL     OW 1516   1.013   0.105   3.632
  325SOL    HW1 1517   1.019   0.190   3.580
  325SOL    HW2 1518   1.045   0.029   3.575
  326SOL     OW 1519   0.504   0.050   3.602
  326SOL    HW1 1520   0.462  -0.007   3.532
  326SOL    HW2 1521   0.438   0.119   3.634
  327SOL     OW 1522   0.573   0.870   2.891
  327SOL    HW1 1523   0.617   0.959   2.882
  327SOL    HW2 1524   0.510   0.870   2.968
  328SOL     OW 1525   1.360   0.862   2.907
  328SOL    HW1 1526   1.285   0.862   2.841
  328SOL    HW2 1527   1.397   0.770   2.916
  329SOL     OW 1528   1.209   0.525   2.137
  329SOL    HW1 1529   1.222   0.441   2.191
  329SOL    HW2 1530   1.180   0.599   2.197
  330SOL     OW 1531   0.307   0.213   3.093
  330SOL    HW1 1532   0.284   0.250   3.183
  330SOL    HW2 1533   0.277   0.118   3.087
  331SOL     OW 1534   0.037   1.310   3.144
  331SOL    HW1 1535   0.090   1.261   3.212
  331SOL    HW2 1536   0.059   1.408   3.149
  332SOL     OW 1537   0.732   0.634   2.926
  332SOL    HW1 1538   0.791   0.608   2.850
  332SOL    HW2 1539   0.704   0.730   2.915
  333SOL     OW 1540   1.728   0.935   3.716
  333SOL    HW1 1541   1.682   0.928   3.627
  333SOL    HW2 1542   1.666   0.979   3.782
  334SOL     OW 1543   0.307   0.063   2.480
  334SOL    HW1 1544   0.296   0.157   2.513
  334SOL    HW2 1545   0.302   0.000   2.557
  335SOL     OW 1546   1.622   0.367   2.236
  335SOL    HW1 1547   1.624   0.291   2.300
  335SOL    HW2 1548   1.574   0.444   2.276
  336SOL     OW 1549   1.023   0.766   2.828
  336SOL    HW1 1550   1.038   0.787   2.924
  336SOL    HW2 1551   0.993   0.671   2.819
  337SOL     OW 1552   0.980   1.573   3.562
  337SOL    HW1 1553   0.960   1.617   3.474
  337SOL    HW2 1554   1.019   1.482   3.546
  338SOL     OW 1555   1.859   1.518   3.467
  338SOL    HW1 1556   1.873   1.545   3.372
  338SOL    HW2 1557   1.942   1.540   3.520
  339SOL     OW 1558   0.350   0.898   3.666
  339SOL    HW1 1559   0.426   0.942   3.714
  339SOL    HW2 1560   0.385   0.851   3.584
  340SOL     OW 1561   1.540   0.274   1.987
  340SOL    HW1 1562   1.479   0.199   2.010
  340SOL    HW2 1563   1.562   0.326   2.070
  341SOL     OW 1564   1.303   0.838   1.904
  341SOL    HW1 1565   1.337   0.745   1.919
  341SOL    HW2 1566   1.321   0.865   1.809
  342SOL     OW 1567   1.068   1.333   2.711
  342SOL    HW1 1568   1.075   1.249   2.656
  342SOL    HW2 1569   1.130   1.402   2.675
  343SOL     OW 1570   0.319   0.810   2.811
  343SOL    HW1 1571   0.412   0.846   2.816
  343SOL    HW2 1572   0.313   0.725   2.863
  344SOL     OW 1573   0.339   0.509   2.868
  344SOL    HW1 1574   0.287   0.426   2.851
  344SOL    HW2 1575   0.416   0.514   2.804
  345SOL     OW 1576   1.138   0.380   3.540
  345SOL    HW1 1577   1.093   0.443   3.604
  345SOL    HW2 1578   1.231   0.411   3.523
  346SOL     OW 1579   1.160   0.207   3.339
  346SOL    HW1 1580   1.160   0.271   3.416
  346SOL    HW2 1581   1.188   0.255   3.256
  347SOL     OW 1582   0.008   1.326   2.062
  347SOL    HW1 1583  -0.085   1.347   2.031
  347SOL    HW2 1584   0.018   1.227   2.075
  348SOL     OW 1585   0.088   1.801   2.789
  348SOL    HW1 1586   0.046   1.715   2.762
  348SOL    HW2 1587   0.182   1.804   2.755
  349SOL     OW 1588   0.504   1.568   2.772
  349SOL    HW1 1589   0.570   1.642   2.781
  349SOL    HW2 1590   0.548   1.489   2.730
  350SOL     OW 1591   1.002   0.796   3.100
  350SOL    HW1 1592   1.043   0.764   3.186
  350SOL    HW2 1593   0.906   0.769   3.097
  351SOL     OW 1594   0.040   0.544   2.976
  351SOL    HW1 1595   0.125   0.511   2.935
  351SOL    HW2 1596   0.053   0.559   3.074
  352SOL     OW 1597   0.189   0.520   3.584
  352SOL    HW1 1598   0.248   0.480   3.514
  352SOL    HW2 1599   0.131   0.591   3.543
  353SOL     OW 1600   1.369   0.950   3.522
  353SOL    HW1 1601   1.408   1.039   3.542
  353SOL    HW2 1602   1.379   0.930   3.425
  354SOL     OW 1603   0.815   0.572   2.187
  354SOL    HW1 1604   0.822   0.483   2.141
  354SOL    HW2 1605   0.721   0.606   2.179
  355SOL     OW 1606   1.657   0.604   3.068
  355SOL    HW1 1607   1.619   0.535   3.130
  355SOL    HW2 1608   1.739   0.568   3.024
  356SOL     OW 1609   0.252   1.564   3.606
  356SOL    HW1 1610   0.222   1.621   3.682
  356SOL    HW2 1611   0.245   1.467   3.632
  357SOL     OW 1612   0.671   0.464   3.131
  357SOL    HW1 1613   0.637   0.375   3.101
  357SOL    HW2 1614   0.697   0.518   3.051
  358SOL     OW 1615   0.930   1.678   3.327
  358SOL    HW1 1616   0.906   1.660   3.232
  358SOL    HW2 1617   0.960   1.772   3.337
  359SOL     OW 1618   0.473   0.500   2.053
  359SOL    HW1 1619   0.534   0.580   2.057
  359SOL    HW2 1620   0.378   0.531   2.060
  360SOL     OW 1621   0.159   1.137   3.328
  360SOL    HW1 1622   0.181   1.076   3.404
  360SOL    HW2 1623   0.169   1.088   3.242
  361SOL     OW 1624   1.347   1.059   3.096
  361SOL    HW1 1625   1.371   0.996   3.022
  361SOL    HW2 1626   1.257   1.099   3.078
  362SOL     OW 1627   1.302   0.855   2.171
  362SOL    HW1 1628   1.216   0.824   2.213
  362SOL    HW2 1629   1.298   0.841   2.072
  363SOL     OW 1630   1.759   1.747   3.016
  363SOL    HW1 1631   1.820   1.777   2.943
  363SOL    HW2 1632   1.721   1.658   2.994
  364SOL     OW 1633   1.252   1.731   2.990
  364SOL    HW1 1634   1.336   1.736   2.936
  364SOL    HW2 1635   1.229   1.635   3.008
  365SOL     OW 1636   0.083   1.258   2.884
  365SOL    HW1 1637   0.078   1.257   2.984
  365SOL    HW2 1638   0.000   1.217   2.846
  366SOL     OW 1639   0.688   1.662   3.578
  366SOL    HW1 1640   0.632   1.743   3.587
  366SOL    HW2 1641   0.740   1.666   3.492
  367SOL     OW 1642   1.726   0.135   2.385
  367SOL    HW1 1643   1.799   0.118   2.318
  367SOL    HW2 1644   1.695   0.048   2.423
  368SOL     OW 1645   1.388   1.573   2.339
  368SOL    HW1 1646   1.455   1.585   2.265
  368SOL    HW2 1647   1.348   1.662   2.362
  369SOL     OW 1648   0.130   1.794   3.713
  369SOL    HW1 1649   0.089   1.720   3.766
  369SOL    HW2 1650   0.194   1.845   3.771
  370SOL     OW 1651   1.280   0.927   2.534
  370SOL    HW1 1652   1.340   0.846   2.536
  370SOL    HW2 1653   1.320   0.996   2.474
  371SOL     OW 1654   0.830   1.273   3.284
  371SOL    HW1 1655   0.825   1.306   3.379
  371SOL    HW2 1656   0.744   1.292   3.238
  372SOL     OW 1657   0.672   1.616   2.016
  372SOL    HW1 1658   0.681   1.626   1.917
  372SOL    HW2 1659   0.632   1.527   2.037
  373SOL     OW 1660   1.650   1.720   3.256
  373SOL    HW1 1661   1.703   1.730   3.172
  373SOL    HW2 1662   1.623   1.810   3.290
  374SOL     OW 1663   1.841   0.175   2.825
  374SOL    HW1 1664   1.880   0.090   2.789
  374SOL    HW2 1665   1.743   0.177   2.806
  375SOL     OW 1666   0.263   0.326   2.582
  375SOL    HW1 1667   0.184   0.377   2.548
  375SOL    HW2 1668   0.254   0.311   2.680
  376SOL     OW 1669   1.194   1.612   1.893
  376SOL    HW1 1670   1.200   1.519   1.930
  376SOL    HW2 1671   1.135   1.612   1.813
  377SOL     OW 1672   0.822   1.002   3.234
  377SOL    HW1 1673   0.862   1.001   3.142
  377SOL    HW2 1674   0.832   1.094   3.274
  378SOL     OW 1675   0.916   0.910   2.153
  378SOL    HW1 1676   0.979   0.948   2.085
  378SOL    HW2 1677   0.956   0.827   2.192
  379SOL     OW 1678   1.504   1.607   1.906
  379SOL    HW1 1679   1.412   1.644   1.913
  379SOL    HW2 1680   1.542   1.627   1.816
  380SOL     OW 1681   0.372   1.288   3.352
  380SOL    HW1 1682   0.359   1.381   3.318
  380SOL    HW2 1683   0.288   1.236   3.339
  381SOL     OW 1684   1.614   1.292   3.151
  381SOL    HW1 1685   1.674   1.295   3.231
  381SOL    HW2 1686   1.539   1.356   3.164
  382SOL     OW 1687   1.039   1.098   2.558
  382SOL    HW1 1688   0.969   1.051   2.612
  382SOL    HW2 1689   1.098   1.030   2.515
  383SOL     OW 1690   1.014   0.236   2.833
  383SOL    HW1 1691   1.006   0.200   2.740
  383SOL    HW2 1692   1.012   0.160   2.898
  384SOL     OW 1693   0.590   1.487   2.353
  384SOL    HW1 1694   0.632   1.429   2.283
  384SOL    HW2 1695   0.546   1.566   2.309
  385SOL     OW 1696   1.709   0.385   3.243
  385SOL    HW1 1697   1.782   0.454   3.247
  385SOL    HW2 1698   1.737   0.310   3.184
  386SOL     OW 1699   0.255   1.348   2.152
  386SOL    HW1 1700   0.159   1.349   2.125
  386SOL    HW2 1701   0.267   1.401   2.236
  387SOL     OW 1702   0.105   1.013   3.588
  387SOL    HW1 1703   0.028   0.980   3.642
  387SOL    HW2 1704   0.190   0.983   3.630
  388SOL     OW 1705   0.672   0.203   3.351
  388SOL    HW1 1706   0.762   0.187   3.311
  388SOL    HW2 1707   0.680   0.208   3.450
  389SOL     OW 1708   0.075   0.345   1.895
  389SOL    HW1 1709  -0.017   0.317   1.866
  389SOL    HW2 1710   0.106   0.422   1.839
  390SOL     OW 1711   1.440   0.856   3.260
  390SOL    HW1 1712   1.383   0.908   3.197
  390SOL    HW2 1713   1.536   0.868   3.236
  391SOL     OW 1714   0.072   0.166   2.180
  391SOL    HW1 1715   0.055   0.249   2.126
  391SOL    HW2 1716   0.162   0.129   2.158
  392SOL     OW 1717   1.183   1.335   1.981
  392SOL    HW1 1718   1.084   1.324   1.983
  392SOL    HW2 1719   1.217   1.350   2.074
  393SOL     OW 1720   0.613   0.842   3.293
  393SOL    HW1 1721   0.669   0.923   3.276
  393SOL    HW2 1722   0.672   0.762   3.296
  394SOL     OW 1723   1.493   1.767   2.821
  394SOL    HW1 1724   1.526   1.831   2.752
  394SOL    HW2 1725   1.559   1.761   2.896
  395SOL     OW 1726   0.716   0.565   3.570
  395SOL    HW1 1727   0.735   0.630   3.644
  395SOL    HW2 1728   0.776   0.485   3.579
  396SOL     OW 1729   1.450   1.220   3.495
  396SOL    HW1 1730   1.441   1.210   3.594
  396SOL    HW2 1731   1.546   1.213   3.469
  397SOL     OW 1732   0.390   1.741   3.422
  397SOL    HW1 1733   0.299   1.782   3.420
  397SOL    HW2 1734   0.383   1.647   3.454
  398SOL     OW 1735   1.674   0.883   3.116
  398SOL    HW1 1736   1.647   0.794   3.079
  398SOL    HW2 1737   1.675   0.951   3.043
  399SOL     OW 1738   1.225   0.325   2.311
  399SOL    HW1 1739   1.290   0.251   2.300
  399SOL    HW2 1740   1.245   0.375   2.395
  400SOL     OW 1741   0.594   0.745   2.514
  400SOL    HW1 1742   0.644   0.830   2.495
  400SOL    HW2 1743   0.506   0.747   2.466
  401SOL     OW 1744   1.777   0.342   3.504
  401SOL    HW1 1745   1.760   0.373   3.410
  401SOL    HW2 1746   1.693   0.305   3.542
  402SOL     OW 1747   1.730   0.934   3.379
  402SOL    HW1 1748   1.768   1.025   3.394
  402SOL    HW2 1749   1.722   0.917   3.280
  403SOL     OW 1750   0.859   1.374   1.878
  403SOL    HW1 1751   0.813   1.389   1.966
  403SOL    HW2 1752   0.903   1.459   1.848
  404SOL     OW 1753   0.661   1.790   2.815
  404SOL    HW1 1754   0.615   1.878   2.802
  404SOL    HW2 1755   0.760   1.802   2.808
  405SOL     OW 1756   0.859   0.956   2.723
  405SOL    HW1 1757   0.913   0.887   2.771
  405SOL    HW2 1758   0.827   1.025   2.789
  406SOL     OW 1759   1.083   0.984   1.949
  406SOL    HW1 1760   1.060   1.037   1.867
  406SOL    HW2 1761   1.164   0.928   1.930
  407SOL     OW 1762   1.861   1.569   2.713
  407SOL    HW1 1763   1.790   1.557   2.643
  407SOL    HW2 1764   1.862   1.490   2.773
  408SOL     OW 1765   0.221   1.314   3.706
  408SOL    HW1 1766   0.156   1.241   3.685
  408SOL    HW2 1767   0.225   1.328   3.804
  409SOL     OW 1768   0.079   1.240   2.515
  409SOL    HW1 1769   0.078   1.193   2.603
  409SOL    HW2 1770   0.161   1.212   2.464
  410SOL     OW 1771   0.672   1.391   3.486
  410SOL    HW1 1772   0.594   1.341   3.524
  410SOL    HW2 1773   0.669   1.486   3.517
  411SOL     OW 1774   1.824   0.192   3.089
  411SOL    HW1 1775   1.820   0.102   3.133
  411SOL    HW2 1776   1.827   0.181   2.990
  412SOL     OW 1777   0.428   0.424   2.382
  412SOL    HW1 1778   0.458   0.352   2.320
  412SOL    HW2 1779   0.389   0.384   2.465
  413SOL     OW 1780   1.705   1.487   2.966
  413SOL    HW1 1781   1.612   1.462   2.939
  413SOL    HW2 1782   1.731   1.437   3.048
  414SOL     OW 1783   0.317   0.547   3.142
  414SOL    HW1 1784   0.355   0.488   3.214
  414SOL    HW2 1785   0.357   0.521   3.054
  415SOL     OW 1786   0.812   1.586   2.549
  415SOL    HW1 1787   0.844   1.596   2.455
  415SOL    HW2 1788   0.733   1.524   2.551
  416SOL     OW 1789   1.424   0.214   2.974
  416SOL    HW1 1790   1.476   0.149   3.029
  416SOL    HW2 1791   1.375   0.277   3.035
  417SOL     OW 1792   1.001   0.034   3.016
  417SOL    HW1 1793   0.938  -0.038   2.985
  417SOL    HW2 1794   1.094  -0.002   3.016
  418SOL     OW 1795   0.770   1.330   2.163
  418SOL    HW1 1796   0.724   1.243   2.180
  418SOL    HW2 1797   0.861   1.327   2.204
  419SOL     OW 1798   0.618   1.567   3.146
  419SOL    HW1 1799   0.613   1.649   3.203
  419SOL    HW2 1800   0.707   1.564   3.101
  420SOL     OW 1801   1.352   0.052   2.030
  420SOL    HW1 1802   1.387   0.011   1.946
  420SOL    HW2 1803   1.262   0.014   2.050
  421SOL     OW 1804   1.300   0.453   2.553
  421SOL    HW1 1805   1.241   0.533   2.557
  421SOL    HW2 1806   1.315   0.418   2.646
  422SOL     OW 1807   1.593   0.221   2.744
  422SOL    HW1 1808   1.509   0.220   2.798
  422SOL    HW2 1809   1.595   0.304   2.688
  423SOL     OW 1810   0.039   1.077   2.162
  423SOL    HW1 1811   0.138   1.066   2.153
  423SOL    HW2 1812  -0.001   0.991   2.194
  424SOL     OW 1813   0.875   1.646   2.199
  424SOL    HW1 1814   0.798   1.611   2.145
  424SOL    HW2 1815   0.843   1.717   2.261
  425SOL     OW 1816   0.230   0.628   3.837
  425SOL    HW1 1817   0.137   0.626   3.874
  425SOL    HW2 1818   0.231   0.589   3.745
  426SOL     OW 1819   0.225   0.275   4.720
  426SOL    HW1 1820   0.260   0.258   4.812
  426SOL    HW2 1821   0.137   0.230   4.708
  427SOL     OW 1822   0.019   0.368   4.371
  427SOL    HW1 1823  -0.063   0.411   4.410
  427SOL    HW2 1824  -0.009   0.295   4.308
  428SOL     OW 1825   0.569   1.275   4.889
  428SOL    HW1 1826   0.476   1.268   4.852
  428SOL    HW2 1827   0.580   1.364   4.933
  429SOL     OW 1828   1.555   1.511   4.427
  429SOL    HW1 1829   1.498   1.495   4.508
  429SOL    HW2 1830   1.496   1.521   4.347
  430SOL     OW 1831   1.135   0.703   4.441
  430SOL    HW1 1832   1.192   0.781   4.416
  430SOL    HW2 1833   1.075   0.729   4.517
  431SOL     OW 1834   1.755   0.607   3.955
  431SOL    HW1 1835   1.743   0.594   3.856
  431SOL    HW2 1836   1.725   0.526   4.004
  432SOL     OW 1837   0.768   1.144   4.747
  432SOL    HW1 1838   0.690   1.161   4.807
  432SOL    HW2 1839   0.802   1.231   4.711
  433SOL     OW 1840   0.850   0.798   5.547
  433SOL    HW1 1841   0.846   0.874   5.612
  433SOL    HW2 1842   0.872   0.834   5.456
  434SOL     OW 1843   0.685   1.012   4.389
  434SOL    HW1 1844   0.754   0.996   4.459
  434SOL    HW2 1845   0.612   1.069   4.427
  435SOL     OW 1846   0.686   1.161   5.527
  435SOL    HW1 1847   0.746   1.240   5.541
  435SOL    HW2 1848   0.600   1.192   5.486
  436SOL     OW 1849   0.335   1.435   4.785
  436SOL    HW1 1850   0.257   1.404   4.732
  436SOL    HW2 1851   0.393   1.493   4.728
  437SOL     OW 1852   1.460   1.505   5.063
  437SOL    HW1 1853   1.484   1.599   5.089
  437SOL    HW2 1854   1.444   1.451   5.145
  438SOL     OW 1855   0.438   0.392   5.223
  438SOL    HW1 1856   0.520   0.336   5.232
  438SOL    HW2 1857   0.357   0.334   5.227
  439SOL     OW 1858   1.603   0.447   4.461
  439SOL    HW1 1859   1.529   0.493   4.411
  439SOL    HW2 1860   1.654   0.515   4.514
  440SOL     OW 1861   0.231   1.713   4.207
  440SOL    HW1 1862   0.265   1.790   4.261
  440SOL    HW2 1863   0.275   1.713   4.117
  441SOL     OW 1864   1.127   1.341   5.414
  441SOL    HW1 1865   1.174   1.341   5.502
  441SOL    HW2 1866   1.079   1.254   5.403
  442SOL     OW 1867   0.230   1.434   4.262
  442SOL    HW1 1868   0.204   1.530   4.262
  442SOL    HW2 1869   0.159   1.380   4.307
  443SOL     OW 1870   0.240   1.091   4.610
  443SOL    HW1 1871   0.254   1.007   4.662
  443SOL    HW2 1872   0.185   1.155   4.665
  444SOL     OW 1873   0.620   1.786   5.163
  444SOL    HW1 1874   0.528   1.769   5.198
  444SOL    HW2 1875   0.648   1.878   5.189
  445SOL     OW 1876   0.606   0.964   3.847
  445SOL    HW1 1877   0.613   1.048   3.793
  445SOL    HW2 1878   0.652   0.977   3.935
  446SOL     OW 1879   1.594   0.114   5.204
  446SOL    HW1 1880   1.576   0.181   5.132
  446SOL    HW2 1881   1.591   0.160   5.293
  447SOL     OW 1882   0.122   0.643   4.287
  447SOL    HW1 1883   0.077   0.555   4.304
  447SOL    HW2 1884   0.121   0.697   4.371
  448SOL     OW 1885   0.027   1.596   3.841
  448SOL    HW1 1886   0.008   1.500   3.862
  448SOL    HW2 1887  -0.006   1.654   3.916
  449SOL     OW 1888   1.689   0.922   4.336
  449SOL    HW1 1889   1.784   0.893   4.344
  449SOL    HW2 1890   1.681   0.987   4.261
  450SOL     OW 1891   1.641   1.108   4.156
  450SOL    HW1 1892   1.727   1.110   4.104
  450SOL    HW2 1893   1.655   1.155   4.244
  451SOL     OW 1894   0.113   0.737   5.321
  451SOL    HW1 1895   0.201   0.724   5.366
  451SOL    HW2 1896   0.100   0.834   5.299
  452SOL     OW 1897   0.613   1.365   4.450
  452SOL    HW1 1898   0.564   1.278   4.459
  452SOL    HW2 1899   0.590   1.408   4.363
  453SOL     OW 1900   1.293   1.228   5.147
  453SOL    HW1 1901   1.330   1.155   5.089
  453SOL    HW2 1902   1.345   1.233   5.232
  454SOL     OW 1903   0.809   0.004   4.226
  454SOL    HW1 1904   0.849   0.095   4.217
  454SOL    HW2 1905   0.709   0.012   4.232
  455SOL     OW 1906   0.197   0.976   4.988
  455SOL    HW1 1907   0.286   0.931   4.974
  455SOL    HW2 1908   0.124   0.911   4.969
  456SOL     OW 1909   1.525   0.999   3.914
  456SOL    HW1 1910   1.462   0.923   3.927
  456SOL    HW2 1911   1.573   1.017   4.000
  457SOL     OW 1912   1.187   1.792   5.340
  457SOL    HW1 1913   1.211   1.852   5.264
  457SOL    HW2 1914   1.194   1.697   5.310
  458SOL     OW 1915   0.317   0.251   5.525
  458SOL    HW1 1916   0.388   0.322   5.531
  458SOL    HW2 1917   0.229   0.290   5.553
  459SOL     OW 1918   1.466   1.417   4.677
  459SOL    HW1 1919   1.407   1.423   4.757
  459SOL    HW2 1920   1.451   1.329   4.631
  460SOL     OW 1921   1.667   1.714   4.296
  460SOL    HW1 1922   1.626   1.691   4.208
  460SOL    HW2 1923   1.649   1.640   4.361
  461SOL     OW 1924   0.598   0.729   3.994
  461SOL    HW1 1925   0.622   0.798   3.926
  461SOL    HW2 1926   0.520   0.762   4.048
  462SOL     OW 1927   1.281   0.345   4.668
  462SOL    HW1 1928   1.195   0.295   4.655
  462SOL    HW2 1929   1.343   0.291   4.724
  463SOL     OW 1930   1.576   1.662   4.031
  463SOL    HW1 1931   1.665   1.708   4.034
  463SOL    HW2 1932   1.555   1.638   3.936
  464SOL     OW 1933   0.807   0.605   5.189
  464SOL    HW1 1934   0.760   0.602   5.278
  464SOL    HW2 1935   0.756   0.550   5.123
  465SOL     OW 1936   1.394   0.469   5.398
  465SOL    HW1 1937   1.374   0.512   5.486
  465SOL    HW2 1938   1.472   0.407   5.407
  466SOL     OW 1939   0.973   0.890   5.296
  466SOL    HW1 1940   1.019   0.806   5.267
  466SOL    HW2 1941   0.917   0.924   5.221
  467SOL     OW 1942   0.991   0.410   4.966
  467SOL    HW1 1943   0.914   0.444   5.020
  467SOL    HW2 1944   0.957   0.359   4.887
  468SOL     OW 1945   1.041   0.701   4.153
  468SOL    HW1 1946   1.067   0.697   4.249
  468SOL    HW2 1947   0.956   0.650   4.139
  469SOL     OW 1948   0.076   0.811   4.513
  469SOL    HW1 1949   0.175   0.799   4.522
  469SOL    HW2 1950   0.052   0.906   4.534
  470SOL     OW 1951   0.130   1.821   5.295
  470SOL    HW1 1952   0.120   1.806   5.394
  470SOL    HW2 1953   0.044   1.857   5.259
  471SOL     OW 1954   0.865   0.348   3.919
  471SOL    HW1 1955   0.924   0.411   3.870
  471SOL    HW2 1956   0.884   0.254   3.890
  472SOL     OW 1957   1.719   0.585   5.555
  472SOL    HW1 1958   1.693   0.674   5.519
  472SOL    HW2 1959   1.717   0.517   5.482
  473SOL     OW 1960   1.362   1.144   4.269
  473SOL    HW1 1961   1.445   1.115   4.221
  473SOL    HW2 1962   1.313   1.211   4.213
  474SOL     OW 1963   0.550   0.196   4.609
  474SOL    HW1 1964   0.545   0.191   4.709
  474SOL    HW2 1965   0.552   0.292   4.580
  475SOL     OW 1966   1.008   1.456   4.201
  475SOL    HW1 1967   0.962   1.528   4.149
  475SOL    HW2 1968   1.004   1.476   4.299
  476SOL     OW 1969   0.351   1.801   4.577
  476SOL    HW1 1970   0.401   1.715   4.583
  476SOL    HW2 1971   0.416   1.878   4.574
  477SOL     OW 1972   1.795   1.066   4.597
  477SOL    HW1 1973   1.733   1.051   4.521
  477SOL    HW2 1974   1.743   1.077   4.682
  478SOL     OW 1975   1.227   1.550   5.230
  478SOL    HW1 1976   1.233   1.473   5.294
  478SOL    HW2 1977   1.175   1.524   5.150
  479SOL     OW 1978   0.321   0.943   3.966
  479SOL    HW1 1979   0.403   0.982   3.924
  479SOL    HW2 1980   0.294   0.861   3.917
  480SOL     OW 1981   1.458   0.735   4.452
  480SOL    HW1 1982   1.453   0.670   4.527
  480SOL    HW2 1983   1.538   0.794   4.465
  481SOL     OW 1984   0.461   1.266   5.451
  481SOL    HW1 1985   0.411   1.267   5.365
  481SOL    HW2 1986   0.398   1.248   5.527
  482SOL     OW 1987   1.111   1.776   3.961
  482SOL    HW1 1988   1.051   1.714   4.011
  482SOL    HW2 1989   1.142   1.732   3.876
  483SOL     OW 1990   0.202   0.285   5.222
  483SOL    HW1 1991   0.122   0.345   5.209
  483SOL    HW2 1992   0.192   0.236   5.308
  484SOL     OW 1993   1.632   1.377   3.805
  484SOL    HW1 1994   1.600   1.471   3.795
  484SOL    HW2 1995   1.556   1.314   3.793
  485SOL     OW 1996   0.464   1.743   4.047
  485SOL    HW1 1997   0.497   1.782   4.133
  485SOL    HW2 1998   0.540   1.736   3.982
  486SOL     OW 1999   1.400   0.107   4.150
  486SOL    HW1 2000   1.376   0.070   4.060
  486SOL    HW2 2001   1.499   0.123   4.154
  487SOL     OW 2002   0.249   1.785   4.965
  487SOL    HW1 2003   0.306   1.720   5.015
  487SOL    HW2 2004   0.233   1.752   4.872
  488SOL     OW 2005   0.940   1.698   4.628
  488SOL    HW1 2006   1.020   1.641   4.649
  488SOL    HW2 2007   0.891   1.658   4.551
  489SOL     OW 2008   0.382   0.700   4.204
  489SOL    HW1 2009   0.427   0.610   4.201
  489SOL    HW2 2010   0.288   0.689   4.237
  490SOL     OW 2011   1.547   0.222   5.453
  490SOL    HW1 2012   1.542   0.259   5.545
  490SOL    HW2 2013   1.475   0.153   5.441
  491SOL     OW 2014   0.614   0.122   3.841
  491SOL    HW1 2015   0.712   0.100   3.848
  491SOL    HW2 2016   0.583   0.105   3.748
  492SOL     OW 2017   0.781   0.264   5.473
  492SOL    HW1 2018   0.848   0.203   5.516
  492SOL    HW2 2019   0.708   0.283   5.538
  493SOL     OW 2020   0.888   1.514   4.919
  493SOL    HW1 2021   0.865   1.489   4.825
  493SOL    HW2 2022   0.949   1.445   4.958
  494SOL     OW 2023   1.351   0.590   5.157
  494SOL    HW1 2024   1.379   0.547   5.242
  494SOL    HW2 2025   1.376   0.686   5.158
  495SOL     OW 2026   0.803   1.402   4.648
  495SOL    HW1 2027   0.893   1.416   4.606
  495SOL    HW2 2028   0.732   1.404   4.577
  496SOL     OW 2029   0.922   0.503   4.623
  496SOL    HW1 2030   0.897   0.494   4.527
  496SOL    HW2 2031   0.970   0.421   4.654
  497SOL     OW 2032   0.539   0.064   4.236
  497SOL    HW1 2033   0.458   0.065   4.294
  497SOL    HW2 2034   0.542   0.147   4.181
  498SOL     OW 2035   1.434   1.188   3.765
  498SOL    HW1 2036   1.466   1.112   3.822
  498SOL    HW2 2037   1.342   1.215   3.795
  499SOL     OW 2038   0.297   0.035   3.895
  499SOL    HW1 2039   0.346   0.119   3.874
  499SOL    HW2 2040   0.359  -0.030   3.940
  500SOL     OW 2041   0.935   0.236   4.204
  500SOL    HW1 2042   0.887   0.277   4.126
  500SOL    HW2 2043   1.034   0.234   4.185
  501SOL     OW 2044   1.076   0.683   5.188
  501SOL    HW1 2045   0.996   0.622   5.191
  501SOL    HW2 2046   1.157   0.630   5.164
  502SOL     OW 2047   1.227   1.570   4.517
  502SOL    HW1 2048   1.248   1.644   4.452
  502SOL    HW2 2049   1.295   1.570   4.590
  503SOL     OW 2050   0.459   1.152   4.465
  503SOL    HW1 2051   0.388   1.125   4.530
  503SOL    HW2 2052   0.433   1.124   4.372
  504SOL     OW 2053   1.271   1.797   4.315
  504SOL    HW1 2054   1.315   1.861   4.251
  504SOL    HW2 2055   1.221   1.849   4.385
  505SOL     OW 2056   1.032   0.549   3.740
  505SOL    HW1 2057   0.991   0.631   3.701
  505SOL    HW2 2058   1.096   0.575   3.813
  506SOL     OW 2059   0.078   0.556   5.110
  506SOL    HW1 2060   0.170   0.555   5.069
  506SOL    HW2 2061   0.072   0.630   5.177
  507SOL     OW 2062   0.561   0.222   4.871
  507SOL    HW1 2063   0.599   0.138   4.908
  507SOL    HW2 2064   0.473   0.241   4.915
  508SOL     OW 2065   0.866   0.454   4.366
  508SOL    HW1 2066   0.834   0.526   4.304
  508SOL    HW2 2067   0.890   0.373   4.313
  509SOL     OW 2068   1.017   0.039   4.477
  509SOL    HW1 2069   0.945   0.044   4.408
  509SOL    HW2 2070   0.993  -0.030   4.546
  510SOL     OW 2071   1.429   1.173   4.591
  510SOL    HW1 2072   1.374   1.089   4.584
  510SOL    HW2 2073   1.455   1.202   4.499
  511SOL     OW 2074   1.466   0.590   4.716
  511SOL    HW1 2075   1.436   0.495   4.723
  511SOL    HW2 2076   1.539   0.606   4.782
  512SOL     OW 2077   1.857   0.833   4.101
  512SOL    HW1 2078   1.899   0.769   4.165
  512SOL    HW2 2079   1.819   0.782   4.023
  513SOL     OW 2080   0.488   1.385   3.898
  513SOL    HW1 2081   0.401   1.370   3.945
  513SOL    HW2 2082   0.471   1.411   3.803
  514SOL     OW 2083   1.664   1.280   4.381
  514SOL    HW1 2084   1.763   1.288   4.395
  514SOL    HW2 2085   1.619   1.364   4.412
  515SOL     OW 2086   1.390   0.575   3.802
  515SOL    HW1 2087   1.336   0.554   3.883
  515SOL    HW2 2088   1.481   0.534   3.811
  516SOL     OW 2089   0.527   0.256   4.052
  516SOL    HW1 2090   0.554   0.197   3.977
  516SOL    HW2 2091   0.527   0.351   4.021
  517SOL     OW 2092   1.754   1.223   5.312
  517SOL    HW1 2093   1.845   1.184   5.299
  517SOL    HW2 2094   1.762   1.319   5.336
  518SOL     OW 2095   1.064   1.347   5.064
  518SOL    HW1 2096   0.984   1.324   5.119
  518SOL    HW2 2097   1.147   1.321   5.113
  519SOL     OW 2098   1.592   1.629   5.349
  519SOL    HW1 2099   1.619   1.663   5.259
  519SOL    HW2 2100   1.671   1.591   5.395
  520SOL     OW 2101   1.111   1.195   4.824
  520SOL    HW1 2102   1.071   1.239   4.905
  520SOL    HW2 2103   1.070   1.232   4.741
  521SOL     OW 2104   1.638   1.099   4.803
  521SOL    HW1 2105   1.643   1.180   4.862
  521SOL    HW2 2106   1.552   1.101   4.752
  522SOL     OW 2107   0.915   0.089   5.126
  522SOL    HW1 2108   0.940   0.069   5.031
  522SOL    HW2 2109   0.987   0.145   5.168
  523SOL     OW 2110   0.980   1.116   5.443
  523SOL    HW1 2111   0.881   1.122   5.453
  523SOL    HW2 2112   1.003   1.036   5.387
  524SOL     OW 2113   0.705   1.050   4.092
  524SOL    HW1 2114   0.691   1.057   4.191
  524SOL    HW2 2115   0.789   0.999   4.074
  525SOL     OW 2116   0.410   0.813   4.975
  525SOL    HW1 2117   0.496   0.825   5.025
  525SOL    HW2 2118   0.368   0.726   5.002
  526SOL     OW 2119   1.274   0.386   4.986
  526SOL    HW1 2120   1.295   0.460   5.050
  526SOL    HW2 2121   1.185   0.403   4.943
  527SOL     OW 2122   0.064   1.564   5.055
  527SOL    HW1 2123   0.018   1.646   5.021
  527SOL    HW2 2124   0.162   1.583   5.064
  528SOL     OW 2125   0.367   1.100   4.225
  528SOL    HW1 2126   0.360   1.183   4.169
  528SOL    HW2 2127   0.371   1.020   4.165
  529SOL     OW 2128   0.566   0.537   4.589
  529SOL    HW1 2129   0.578   0.603   4.515
  529SOL    HW2 2130   0.612   0.571   4.672
  530SOL     OW 2131   1.252   1.348   4.112
  530SOL    HW1 2132   1.302   1.425   4.152
  530SOL    HW2 2133   1.157   1.350   4.144
  531SOL     OW 2134   1.272   1.445   4.866
  531SOL    HW1 2135   1.319   1.458   4.953
  531SOL    HW2 2136   1.206   1.371   4.875
  532SOL     OW 2137   1.582   0.639   4.196
  532SOL    HW1 2138   1.551   0.700   4.269
  532SOL    HW2 2139   1.632   0.691   4.127
  533SOL     OW 2140   0.354   1.510   5.053
  533SOL    HW1 2141   0.333   1.466   4.966
  533SOL    HW2 2142   0.451   1.536   5.056
  534SOL     OW 2143   0.402   0.751   5.322
  534SOL    HW1 2144   0.470   0.806   5.275
  534SOL    HW2 2145   0.442   0.663   5.349
  535SOL     OW 2146   1.587   0.779   5.394
  535SOL    HW1 2147   1.495   0.817   5.389
  535SOL    HW2 2148   1.647   0.826   5.329
  536SOL     OW 2149   1.013   0.105   5.494
  536SOL    HW1 2150   1.019   0.190   5.442
  536SOL    HW2 2151   1.045   0.029   5.437
  537SOL     OW 2152   0.504   0.050   5.464
  537SOL    HW1 2153   0.462  -0.007   5.394
  537SOL    HW2 2154   0.438   0.119   5.496
  538SOL     OW 2155   0.573   0.870   4.753
  538SOL    HW1 2156   0.617   0.959   4.744
  538SOL    HW2 2157   0.510   0.870   4.830
  539SOL     OW 2158   1.360   0.862   4.769
  539SOL    HW1 2159   1.285   0.862   4.703
  539SOL    HW2 2160   1.397   0.770   4.778
  540SOL     OW 2161   1.209   0.525   3.999
  540SOL    HW1 2162   1.222   0.441   4.053
  540SOL    HW2 2163   1.180   0.599   4.059
  541SOL     OW 2164   0.307   0.213   4.955
  541SOL    HW1 2165   0.284   0.250   5.045
  541SOL    HW2 2166   0.277   0.118   4.949
  542SOL     OW 2167   0.037   1.310   5.006
  542SOL    HW1 2168   0.090   1.261   5.074
  542SOL    HW2 2169   0.059   1.408   5.011
  543SOL     OW 2170   0.732   0.634   4.788
  543SOL    HW1 2171   0.791   0.608   4.712
  543SOL    HW2 2172   0.704   0.730   4.777
  544SOL     OW 2173   1.728   0.935   5.578
  544SOL    HW1 2174   1.682   0.928   5.489
  544SOL    HW2 2175   1.666   0.979   5.644
  545SOL     OW 2176   0.307   0.063   4.342
  545SOL    HW1 2177   0.296   0.157   4.375
  545SOL    HW2 2178   0.302   0.000   4.419
  546SOL     OW 2179   1.622   0.367   4.098
  546SOL    HW1 2180   1.624   0.291   4.162
  546SOL    HW2 2181   1.574   0.444   4.138
  547SOL     OW 2182   1.023   0.766   4.690
  547SOL    HW1 2183   1.038   0.787   4.786
  547SOL    HW2 2184   0.993   0.671   4.681
  548SOL     OW 2185   0.980   1.573   5.424
  548SOL    HW1 2186   0.960   1.617   5.336
  548SOL    HW2 2187   1.019   1.482   5.408
  549SOL     OW 2188   1.859   1.518   5.329
  549SOL    HW1 2189   1.873   1.545   5.234
  549SOL    HW2 2190   1.942   1.540   5.382
  550SOL     OW 2191   0.350   0.898   5.528
  550SOL    HW1 2192   0.426   0.942   5.576
  550SOL    HW2 2193   0.385   0.851   5.446
  551SOL     OW 2194   1.540   0.274   3.849
  551SOL    HW1 2195   1.479   0.199   3.872
  551SOL    HW2 2196   1.562   0.326   3.932
  552SOL     OW 2197   1.303   0.838   3.766
  552SOL    HW1 2198   1.337   0.745   3.781
  552SOL    HW2 2199   1.321   0.865   3.671
  553SOL     OW 2200   1.068   1.333   4.573
  553SOL    HW1 2201   1.075   1.249   4.518
  553SOL    HW2 2202   1.130   1.402   4.537
  554SOL     OW 2203   0.319   0.810   4.673
  554SOL    HW1 2204   0.412   0.846   4.678
  554SOL    HW2 2205   0.313   0.725   4.725
  555SOL     OW 2206   0.339   0.509   4.730
  555SOL    HW1 2207   0.287   0.426   4.713
  555SOL    HW2 2208   0.416   0.514   4.666
  556SOL     OW 2209   1.138   0.380   5.402
  556SOL    HW1 2210   1.093   0.443   5.466
  556SOL    HW2 2211   1.231   0.411   5.385
  557SOL     OW 2212   1.160   0.207   5.201
  557SOL    HW1 2213   1.160   0.271   5.278
  557SOL    HW2 2214   1.188   0.255   5.118
  558SOL     OW 2215   0.008   1.326   3.924
  558SOL    HW1 2216  -0.085   1.347   3.893
  558SOL    HW2 2217   0.018   1.227   3.937
  559SOL     OW 2218   0.088   1.801   4.651
  559SOL    HW1 2219   0.046   1.715   4.624
  559SOL    HW2 2220   0.182   1.804   4.617
  560SOL     OW 2221   0.504   1.568   4.634
  560SOL    HW1 2222   0.570   1.642   4.643
  560SOL    HW2 2223   0.548   1.489   4.592
  561SOL     OW 2224   1.002   0.796   4.962
  561SOL    HW1 2225   1.043   0.764   5.048
  561SOL    HW2 2226   0.906   0.769   4.959
  562SOL     OW 2227   0.040   0.544   4.838
  562SOL    HW1 2228   0.125   0.511   4.797
  562SOL    HW2 2229   0.053   0.559   4.936
  563SOL     OW 2230   0.189   0.520   5.446
  563SOL    HW1 2231   0.248   0.480   5.376
  563SOL    HW2 2232   0.131   0.591   5.405
  564SOL     OW 2233   1.369   0.950   5.384
  564SOL    HW1 2234   1.408   1.039   5.404
  564SOL    HW2 2235   1.379   0.930   5.287
  565SOL     OW 2236   0.815   0.572   4.049
  565SOL    HW1 2237   0.822   0.483   4.003
  565SOL    HW2 2238   0.721   0.606   4.041
  566SOL     OW 2239   1.657   0.604   4.930
  566SOL    HW1 2240   1.619   0.535   4.992
  566SOL    HW2 2241   1.739   0.568   4.886
  567SOL     OW 2242   0.252   1.564   5.468
  567SOL    HW1 2243   0.222   1.621   5.544
  567SOL    HW2 2244   0.245   1.467   5.494
  568SOL     OW 2245   0.671   0.464   4.993
  568SOL    HW1 2246   0.637   0.375   4.963
  568SOL    HW2 2247   0.697   0.518   4.913
  569SOL     OW 2248   0.930   1.678   5.189
  569SOL    HW1 2249   0.906   1.660   5.094
  569SOL    HW2 2250   0.960   1.772   5.199
  570SOL     OW 2251   0.473   0.500   3.915
  570SOL    HW1 2252   0.534   0.580   3.919
  570SOL    HW2 2253   0.378   0.531   3.922
  571SOL     OW 2254   0.159   1.137   5.190
  571SOL    HW1 2255   0.181   1.076   5.266
  571SOL    HW2 2256   0.169   1.088   5.104
  572SOL     OW 2257   1.347   1.059   4.958
  572SOL    HW1 2258   1.371   0.996   4.884
  572SOL    HW2 2259   1.257   1.099   4.940
  573SOL     OW 2260   1.302   0.855   4.033
  573SOL    HW1 2261   1.216   0.824   4.075
  573SOL    HW2 2262   1.298   0.841   3.934
  574SOL     OW 2263   1.759   1.747   4.878
  574SOL    HW1 2264   1.820   1.777   4.805
  574SOL    HW2 2265   1.721   1.658   4.856
  575SOL     OW 2266   1.252   1.731   4.852
  575SOL    HW1 2267   1.336   1.736   4.798
  575SOL    HW2 2268   1.229   1.635   4.870
  576SOL     OW 2269   0.083   1.258   4.746
  576SOL    HW1 2270   0.078   1.257   4.846
  576SOL    HW2 2271   0.000   1.217   4.708
  577SOL     OW 2272   0.688   1.662   5.440
  577SOL    HW1 2273   0.632   1.743   5.449
  577SOL    HW2 2274   0.740   1.666   5.354
  578SOL     OW 2275   1.726   0.135   4.247
  578SOL    HW1 2276   1.799   0.118   4.180
  578SOL    HW2 2277   1.695   0.048   4.285
  579SOL     OW 2278   1.388   1.573   4.201
  579SOL    HW1 2279   1.455   1.585   4.127
  579SOL    HW2 2280   1.348   1.662   4.224
  580SOL     OW 2281   0.130   1.794   5.575
  580SOL    HW1 2282   0.089   1.720   5.628
  580SOL    HW2 2283   0.194   1.845   5.633
  581SOL     OW 2284   1.280   0.927   4.396
  581SOL    HW1 2285   1.340   0.846   4.398
  581SOL    HW2 2286   1.320   0.996   4.336
  582SOL     OW 2287   0.830   1.273   5.146
  582SOL    HW1 2288   0.825   1.306   5.241
  582SOL    HW2 2289   0.744   1.292   5.100
  583SOL     OW 2290   0.672   1.616   3.878
  583SOL    HW1 2291   0.681   1.626   3.779
  583SOL    HW2 2292   0.632   1.527   3.899
  584SOL     OW 2293   1.650   1.720   5.118
  584SOL    HW1 2294   1.703   1.730   5.034
  584SOL    HW2 2295   1.623   1.810   5.152
  585SOL     OW 2296   1.841   0.175   4.687
  585SOL    HW1 2297   1.880   0.090   4.651
  585SOL    HW2 2298   1.743   0.177   4.668
  586SOL     OW 2299   0.263   0.326   4.444
  586SOL    HW1 2300   0.184   0.377   4.410
  586SOL    HW2 2301   0.254   0.311   4.542
  587SOL     OW 2302   1.194   1.612   3.755
  587SOL    HW1 2303   1.200   1.519   3.792
  587SOL    HW2 2304   1.135   1.612   3.675
  588SOL     OW 2305   0.822   1.002   5.096
  588SOL    HW1 2306   0.862   1.001   5.004
  588SOL    HW2 2307   0.832   1.094   5.136
  589SOL     OW 2308   0.916   0.910   4.015
  589SOL    HW1 2309   0.979   0.948   3.947
  589SOL    HW2 2310   0.956   0.827   4.054
  590SOL     OW 2311   1.504   1.607   3.768
  590SOL    HW1 2312   1.412   1.644   3.775
  590SOL    HW2 2313   1.542   1.627   3.678
  591SOL     OW 2314   0.372   1.288   5.214
  591SOL    HW1 2315   0.359   1.381   5.180
  591SOL    HW2 2316   0.288   1.236   5.201
  592SOL     OW 2317   1.614   1.292   5.013
  592SOL    HW1 2318   1.674   1.295   5.093
  592SOL    HW2 2319   1.539   1.356   5.026
  593SOL     OW 2320   1.039   1.098   4.420
  593SOL    HW1 2321   0.969   1.051   4.474
  593SOL    HW2 2322   1.098   1.030   4.377
  594SOL     OW 2323   1.014   0.236   4.695
  594SOL    HW1 2324   1.006   0.200   4.602
  594SOL    HW2 2325   1.012   0.160   4.760
  595SOL     OW 2326   0.590   1.487   4.215
  595SOL    HW1 2327   0.632   1.429   4.145
  595SOL    HW2 2328   0.546   1.566   4.171
  596SOL     OW 2329   1.709   0.385   5.105
  596SOL    HW1 2330   1.782   0.454   5.109
  596SOL    HW2 2331   1.737   0.310   5.046
  597SOL     OW 2332   0.255   1.348   4.014
  597SOL    HW1 2333   0.159   1.349   3.987
  597SOL    HW2 2334   0.267   1.401   4.098
  598SOL     OW 2335   0.105   1.013   5.450
  598SOL    HW1 2336   0.028   0.980   5.504
  598SOL    HW2 2337   0.190   0.983   5.492
  599SOL     OW 2338   0.672   0.203   5.213
  599SOL    HW1 2339   0.762   0.187   5.173
  599SOL    HW2 2340   0.680   0.208   5.312
  600SOL     OW 2341   0.075   0.345   3.757
  600SOL    HW1 2342  -0.017   0.317   3.728
  600SOL    HW2 2343   0.106   0.422   3.701
  601SOL     OW 2344   1.440   0.856   5.122
  601SOL    HW1 2345   1.383   0.908   5.059
  601SOL    HW2 2346   1.536   0.868   5.098
  602SOL     OW 2347   0.072   0.166   4.042
  602SOL    HW1 2348   0.055   0.249   3.988
  602SOL    HW2 2349   0.162   0.129   4.020
  603SOL     OW 2350   1.183   1.335   3.843
  603SOL    HW1 2351   1.084   1.324   3.845
  603SOL    HW2 2352   1.217   1.350   3.936
  604SOL     OW 2353   0.613   0.842   5.155
  604SOL    HW1 2354   0.669   0.923   5.138
  604SOL    HW2 2355   0.672   0.762   5.158
  605SOL     OW 2356   1.493   1.767   4.683
  605SOL    HW1 2357   1.526   1.831   4.614
  605SOL    HW2 2358   1.559   1.761   4.758
  606SOL     OW 2359   0.716   0.565   5.432
  606SOL    HW1 2360   0.735   0.630   5.506
  606SOL    HW2 2361   0.776   0.485   5.441
  607SOL     OW 2362   1.450   1.220   5.357
  607SOL    HW1 2363   1.441   1.210   5.456
  607SOL    HW2 2364   1.546   1.213   5.331
  608SOL     OW 2365   0.390   1.741   5.284
  608SOL    HW1 2366   0.299   1.782   5.282
  608SOL    HW2 2367   0.383   1.647   5.316
  609SOL     OW 2368   1.674   0.883   4.978
  609SOL    HW1 2369   1.647   0.794   4.941
  609SOL    HW2 2370   1.675   0.951   4.905
  610SOL     OW 2371   1.225   0.325   4.173
  610SOL    HW1 2372   1.290   0.251   4.162
  610SOL    HW2 2373   1.245   0.375   4.257
  611SOL     OW 2374   0.594   0.745   4.376
  611SOL    HW1 2375   0.644   0.830   4.357
  611SOL    HW2 2376   0.506   0.747   4.328
  612SOL     OW 2377   1.777   0.342   5.366
  612SOL    HW1 2378   1.760   0.373   5.272
  612SOL    HW2 2379   1.693   0.305   5.404
  613SOL     OW 2380   1.730   0.934   5.241
  613SOL    HW1 2381   1.768   1.025   5.256
  613SOL    HW2 2382   1.722   0.917   5.142
  614SOL     OW 2383   0.859   1.374   3.740
  614SOL    HW1 2384   0.813   1.389   3.828
  614SOL    HW2 2385   0.903   1.459   3.710
  615SOL     OW 2386   0.661   1.790   4.677
  615SOL    HW1 2387   0.615   1.878   4.664
  615SOL    HW2 2388   0.760   1.802   4.670
  616SOL     OW 2389   0.859   0.956   4.585
  616SOL    HW1 2390   0.913   0.887   4.633
  616SOL    HW2 2391   0.827   1.025   4.651
  617SOL     OW 2392   1.083   0.984   3.811
  617SOL    HW1 2393   1.060   1.037   3.729
  617SOL    HW2 2394   1.164   0.928   3.792
  618SOL     OW 2395   1.861   1.569   4.575
  618SOL    HW1 2396   1.790   1.557   4.505
  618SOL    HW2 2397   1.862   1.490   4.635
  619SOL     OW 2398   0.221   1.314   5.568
  619SOL    HW1 2399   0.156   1.241   5.547
  619SOL    HW2 2400   0.225   1.328   5.666
  620SOL     OW 2401   0.079   1.240   4.377
  620SOL    HW1 2402   0.078   1.193   4.465
  620SOL    HW2 2403   0.161   1.212   4.326
  621SOL     OW 2404   0.672   1.391   5.348
  621SOL    HW1 2405   0.594   1.341   5.386
  621SOL    HW2 2406   0.669   1.486   5.379
  622SOL     OW 2407   1.824   0.192   4.951
  622SOL    HW1 2408   1.820   0.102   4.995
  622SOL    HW2 2409   1.827   0.181   4.852
  623SOL     OW 2410   0.428   0.424   4.244
  623SOL    HW1 2411   0.458   0.352   4.182
  623SOL    HW2 2412   0.389   0.384   4.327
  624SOL     OW 2413   1.705   1.487   4.828
  624SOL    HW1 2414   1.612   1.462   4.801
  624SOL    HW2 2415   1.731   1.437   4.910
  625SOL     OW 2416   0.317   0.547   5.004
  625SOL    HW1 2417   0.355   0.488   5.076
  625SOL    HW2 2418   0.357   0.521   4.916
  626SOL     OW 2419   0.812   1.586   4.411
  626SOL    HW1 2420   0.844   1.596   4.317
  626SOL    HW2 2421   0.733   1.524   4.413
  627SOL     OW 2422   1.424   0.214   4.836
  627SOL    HW1 2423   1.476   0.149   4.891
  627SOL    HW2 2424   1.375   0.277   4.897
  628SOL     OW 2425   1.001   0.034   4.878
  628SOL    HW1 2426   0.938  -0.038   4.847
  628SOL    HW2 2427   1.094  -0.002   4.878
  629SOL     OW 2428   0.770   1.330   4.025
  629SOL    HW1 2429   0.724   1.243   4.042
  629SOL    HW2 2430   0.861   1.327   4.066
  630SOL     OW 2431   0.618   1.567   5.008
  630SOL    HW1 2432   0.613   1.649   5.065
  630SOL    HW2 2433   0.707   1.564   4.963
  631SOL     OW 2434   1.352   0.052   3.892
  631SOL    HW1 2435   1.387   0.011   3.808
  631SOL    HW2 2436   1.262   0.014   3.912
  632SOL     OW 2437   1.300   0.453   4.415
  632SOL    HW1 2438   1.241   0.533   4.419
  632SOL    HW2 2439   1.315   0.418   4.508
  633SOL     OW 2440   1.593   0.221   4.606
  633SOL    HW1 2441   1.509   0.220   4.660
  633SOL    HW2 2442   1.595   0.304   4.550
  634SOL     OW 2443   0.039   1.077   4.024
  634SOL    HW1 2444   0.138   1.066   4.015
  634SOL    HW2 2445  -0.001   0.991   4.056
  635SOL     OW 2446   0.875   1.646   4.061
  635SOL    HW1 2447   0.798   1.611   4.007
  635SOL    HW2 2448   0.843   1.717   4.123
  636SOL     OW 2449   0.230   0.628   5.699
  636SOL    HW1 2450   0.137   0.626   5.736
  636SOL    HW2 2451   0.231   0.589   5.607
  637SOL     OW 2452   0.225   0.275   6.582
  637SOL    HW1 2453   0.260   0.258   6.674
  637SOL    HW2 2454   0.137   0.230   6.570
  638SOL     OW 2455   0.019   0.368   6.233
  638SOL    HW1 2456  -0.063   0.411   6.272
  638SOL    HW2 2457  -0.009   0.295   6.170
  639SOL     OW 2458   0.569   1.275   6.751
  639SOL    HW1 2459   0.476   1.268   6.714
  639SOL    HW2 2460   0.580   1.364   6.795
  640SOL     OW 2461   1.135   0.703   6.303
  640SOL    HW1 2462   1.192   0.781   6.278
  640SOL    HW2 2463   1.075   0.729   6.379
  641SOL     OW 2464   1.755   0.607   5.817
  641SOL    HW1 2465   1.743   0.594   5.718
  641SOL    HW2 2466   1.725   0.526   5.866
  642SOL     OW 2467   0.768   1.144   6.609
  642SOL    HW1 2468   0.690   1.161   6.669
  642SOL    HW2 2469   0.802   1.231   6.573
  643SOL     OW 2470   0.850   0.798   7.409
  643SOL    HW1 2471   0.846   0.874   7.474
  643SOL    HW2 2472   0.872   0.834   7.318
  644SOL     OW 2473   0.685   1.012   6.251
  644SOL    HW1 2474   0.754   0.996   6.321
  644SOL    HW2 2475   0.612   1.069   6.289
  645SOL     OW 2476   0.686   1.161   7.389
  645SOL    HW1 2477   0.746   1.240   7.403
  645SOL    HW2 2478   0.600   1.192   7.348
  646SOL     OW 2479   0.335   1.435   6.647
  646SOL    HW1 2480   0.257   1.404   6.594
  646SOL    HW2 2481   0.393   1.493   6.590
  647SOL     OW 2482   1.460   1.505   6.925
  647SOL    HW1 2483   1.484   1.599   6.951
  647SOL    HW2 2484   1.444   1.451   7.007
  648SOL     OW 2485   0.438   0.392   7.085
  648SOL    HW1 2486   0.520   0.336   7.094
  648SOL    HW2 2487   0.357   0.334   7.089
  649SOL     OW 2488   1.603   0.447   6.323
  649SOL    HW1 2489   1.529   0.493   6.273
  649SOL    HW2 2490   1.654   0.515   6.376
  650SOL     OW 2491   0.231   1.713   6.069
  650SOL    HW1 2492   0.265   1.790   6.123
  650SOL    HW2 2493   0.275   1.713   5.979
  651SOL     OW 2494   1.127   1.341   7.276
  651SOL    HW1 2495   1.174   1.341   7.364
  651SOL    HW2 2496   1.079   1.254   7.265
  652SOL     OW 2497   0.230   1.434   6.124
  652SOL    HW1 2498   0.204   1.530   6.124
  652SOL    HW2 2499   0.159   1.380   6.169
  653SOL     OW 2500   0.240   1.091   6.472
  653SOL    HW1 2501   0.254   1.007   6.524
  653SOL    HW2 2502   0.185   1.155   6.527
  654SOL     OW 2503   0.620   1.786   7.025
  654SOL    HW1 2504   0.528   1.769   7.060
  654SOL    HW2 2505   0.648   1.878   7.051
  655SOL     OW 2506   0.606   0.964   5.709
  655SOL    HW1 2507   0.613   1.048   5.655
  655SOL    HW2 2508   0.652   0.977   5.797
  656SOL     OW 2509   1.594   0.114   7.066
  656SOL    HW1 2510   1.576   0.181   6.994
  656SOL    HW2 2511   1.591   0.160   7.155
  657SOL     OW 2512   0.122   0.643   6.149
  657SOL    HW1 2513   0.077   0.555   6.166
  657SOL    HW2 2514   0.121   0.697   6.233
  658SOL     OW 2515   0.027   1.596   5.703
  658SOL    HW1 2516   0.008   1.500   5.724
  658SOL    HW2 2517  -0.006   1.654   5.778
  659SOL     OW 2518   1.689   0.922   6.198
  659SOL    HW1 2519   1.784   0.893   6.206
  659SOL    HW2 2520   1.681   0.987   6.123
  660SOL     OW 2521   1.641   1.108   6.018
  660SOL    HW1 2522   1.727   1.110   5.966
  660SOL    HW2 2523   1.655   1.155   6.106
  661SOL     OW 2524   0.113   0.737   7.183
  661SOL    HW1 2525   0.201   0.724   7.228
  661SOL    HW2 2526   0.100   0.834   7.161
  662SOL     OW 2527   0.613   1.365   6.312
  662SOL    HW1 2528   0.564   1.278   6.321
  662SOL    HW2 2529   0.590   1.408   6.225
  663SOL     OW 2530   1.293   1.228   7.009
  663SOL    HW1 2531   1.330   1.155   6.951
  663SOL    HW2 2532   1.345   1.233   7.094
  664SOL     OW 2533   0.809   0.004   6.088
  664SOL    HW1 2534   0.849   0.095   6.079
  664SOL    HW2 2535   0.709   0.012   6.094
  665SOL     OW 2536   0.197   0.976   6.850
  665SOL    HW1 2537   0.286   0.931   6.836
  665SOL    HW2 2538   0.124   0.911   6.831
  666SOL     OW 2539   1.525   0.999   5.776
  666SOL    HW1 2540   1.462   0.923   5.789
  666SOL    HW2 2541   1.573   1.017   5.862
  667SOL     OW 2542   0.317   0.251   7.387
  667SOL    HW1 2543   0.388   0.322   7.393
  667SOL    HW2 2544   0.229   0.290   7.415
  668SOL     OW 2545   0.598   0.729   5.856
  668SOL    HW1 2546   0.622   0.798   5.788
  668SOL    HW2 2547   0.520   0.762   5.910
  669SOL     OW 2548   1.281   0.345   6.530
  669SOL    HW1 2549   1.195   0.295   6.517
  669SOL    HW2 2550   1.343   0.291   6.586
  670SOL     OW 2551   1.576   1.662   5.893
  670SOL    HW1 2552   1.665   1.708   5.896
  670SOL    HW2 2553   1.555   1.638   5.798
  671SOL     OW 2554   0.807   0.605   7.051
  671SOL    HW1 2555   0.760   0.602   7.140
  671SOL    HW2 2556   0.756   0.550   6.985
  672SOL     OW 2557   1.394   0.469   7.260
  672SOL    HW1 2558   1.374   0.512   7.348
  672SOL    HW2 2559   1.472   0.407   7.269
  673SOL     OW 2560   0.973   0.890   7.158
  673SOL    HW1 2561   1.019   0.806   7.129
  673SOL    HW2 2562   0.917   0.924   7.083
  674SOL     OW 2563   0.991   0.410   6.828
  674SOL    HW1 2564   0.914   0.444   6.882
  674SOL    HW2 2565   0.957   0.359   6.749
  675SOL     OW 2566   1.041   0.701   6.015
  675SOL    HW1 2567   1.067   0.697   6.111
  675SOL    HW2 2568   0.956   0.650   6.001
  676SOL     OW 2569   0.076   0.811   6.375
  676SOL    HW1 2570   0.175   0.799   6.384
  676SOL    HW2 2571   0.052   0.906   6.396
  677SOL     OW 2572   0.130   1.821   7.157
  677SOL    HW1 2573   0.120   1.806   7.256
  677SOL    HW2 2574   0.044   1.857   7.121
  678SOL     OW 2575   0.865   0.348   5.781
  678SOL    HW1 2576   0.924   0.411   5.732
  678SOL    HW2 2577   0.884   0.254   5.752
  679SOL     OW 2578   1.719   0.585   7.417
  679SOL    HW1 2579   1.693   0.674   7.381
  679SOL    HW2 2580   1.717   0.517   7.344
  680SOL     OW 2581   1.362   1.144   6.131
  680SOL    HW1 2582   1.445   1.115   6.083
  680SOL    HW2 2583   1.313   1.211   6.075
  681SOL     OW 2584   0.550   0.196   6.471
  681SOL    HW1 2585   0.545   0.191   6.571
  681SOL    HW2 2586   0.552   0.292   6.442
  682SOL     OW 2587   1.008   1.456   6.063
  682SOL    HW1 2588   0.962   1.528   6.011
  682SOL    HW2 2589   1.004   1.476   6.161
  683SOL     OW 2590   0.351   1.801   6.439
  683SOL    HW1 2591   0.401   1.715   6.445
  683SOL    HW2 2592   0.416   1.878   6.436
  684SOL     OW 2593   1.795   1.066   6.459
  684SOL    HW1 2594   1.733   1.051   6.383
  684SOL    HW2 2595   1.743   1.077   6.544
  685SOL     OW 2596   1.227   1.550   7.092
  685SOL    HW1 2597   1.233   1.473   7.156
  685SOL    HW2 2598   1.175   1.524   7.012
  686SOL     OW 2599   0.321   0.943   5.828
  686SOL    HW1 2600   0.403   0.982   5.786
  686SOL    HW2 2601   0.294   0.861   5.779
  687SOL     OW 2602   1.458   0.735   6.314
  687SOL    HW1 2603   1.453   0.670   6.389
  687SOL    HW2 2604   1.538   0.794   6.327
  688SOL     OW 2605   0.461   1.266   7.313
  688SOL    HW1 2606   0.411   1.267   7.227
  688SOL    HW2 2607   0.398   1.248   7.389
  689SOL     OW 2608   1.111   1.776   5.823
  689SOL    HW1 2609   1.051   1.714   5.873
  689SOL    HW2 2610   1.142   1.732   5.738
  690SOL     OW 2611   0.202   0.285   7.084
  690SOL    HW1 2612   0.122   0.345   7.071
  690SOL    HW2 2613   0.192   0.236   7.170
  691SOL     OW 2614   1.632   1.377   5.667
  691SOL    HW1 2615   1.600   1.471   5.657
  691SOL    HW2 2616   1.556   1.314   5.655
  692SOL     OW 2617   0.464   1.743   5.909
  692SOL    HW1 2618   0.497   1.782   5.995
  692SOL    HW2 2619   0.540   1.736   5.844
  693SOL     OW 2620   1.400   0.107   6.012
  693SOL    HW1 2621   1.376   0.070   5.922
  693SOL    HW2 2622   1.499   0.123   6.016
  694SOL     OW 2623   0.249   1.785   6.827
  694SOL    HW1 2624   0.306   1.720   6.877
  694SOL    HW2 2625   0.233   1.752   6.734
  695SOL     OW 2626   0.940   1.698   6.490
  695SOL    HW1 2627   1.020   1.641   6.511
  695SOL    HW2 2628   0.891   1.658   6.413
  696SOL     OW 2629   0.382   0.700   6.066
  696SOL    HW1 2630   0.427   0.610   6.063
  696SOL    HW2 2631   0.288   0.689   6.099
  697SOL     OW 2632   1.547   0.222   7.315
  697SOL    HW1 2633   1.542   0.259   7.407
  697SOL    HW2 2634   1.475   0.153   7.303
  698SOL     OW 2635   0.614   0.122   5.703
  698SOL    HW1 2636   0.712   0.100   5.710
  698SOL    HW2 2637   0.583   0.105   5.610
  699SOL     OW 2638   0.781   0.264   7.335
  699SOL    HW1 2639   0.848   0.203   7.378
  699SOL    HW2 2640   0.708   0.283   7.400
  700SOL     OW 2641   0.888   1.514   6.781
  700SOL    HW1 2642   0.865   1.489   6.687
  700SOL    HW2 2643   0.949   1.445   6.820
  701SOL     OW 2644   1.351   0.590   7.019
  701SOL    HW1 2645   1.379   0.547   7.104
  701SOL    HW2 2646   1.376   0.686   7.020
  702SOL     OW 2647   0.803   1.402   6.510
  702SOL    HW1 2648   0.893   1.416   6.468
  702SOL    HW2 2649   0.732   1.404   6.439
  703SOL     OW 2650   0.922   0.503   6.485
  703SOL    HW1 2651   0.897   0.494   6.389
  703SOL    HW2 2652   0.970   0.421   6.516
  704SOL     OW 2653   0.539   0.064   6.098
  704SOL    HW1 2654   0.458   0.065   6.156
  704SOL    HW2 2655   0.542   0.147   6.043
  705SOL     OW 2656   1.434   1.188   5.627
  705SOL    HW1 2657   1.466   1.112   5.684
  705SOL    HW2 2658   1.342   1.215   5.657
  706SOL     OW 2659   0.297   0.035   5.757
  706SOL    HW1 2660   0.346   0.119   5.736
  706SOL    HW2 2661   0.359  -0.030   5.802
  707SOL     OW 2662   0.935   0.236   6.066
  707SOL    HW1 2663   0.887   0.277   5.988
  707SOL    HW2 2664   1.034   0.234   6.047
  708SOL     OW 2665   1.076   0.683   7.050
  708SOL    HW1 2666   0.996   0.622   7.053
  708SOL    HW2 2667   1.157   0.630   7.026
  709SOL     OW 2668   0.459   1.152   6.327
  709SOL    HW1 2669   0.388   1.125   6.392
  709SOL    HW2 2670   0.433   1.124   6.234
  710SOL     OW 2671   1.032   0.549   5.602
  710SOL    HW1 2672   0.991   0.631   5.563
  710SOL    HW2 2673   1.096   0.575   5.675
  711SOL     OW 2674   0.078   0.556   6.972
  711SOL    HW1 2675   0.170   0.555   6.931
  711SOL    HW2 2676   0.072   0.630   7.039
  712SOL     OW 2677   0.561   0.222   6.733
  712SOL    HW1 2678   0.599   0.138   6.770
  712SOL    HW2 2679   0.473   0.241   6.777
  713SOL     OW 2680   0.866   0.454   6.228
  713SOL    HW1 2681   0.834   0.526   6.166
  713SOL    HW2 2682   0.890   0.373   6.175
  714SOL     OW 2683   1.017   0.039   6.339
  714SOL    HW1 2684   0.945   0.044   6.270
  714SOL    HW2 2685   0.993  -0.030   6.408
  715SOL     OW 2686   1.429   1.173   6.453
  715SOL    HW1 2687   1.374   1.089   6.446
  715SOL    HW2 2688   1.455   1.202   6.361
  716SOL     OW 2689   1.466   0.590   6.578
  716SOL    HW1 2690   1.436   0.495   6.585
  716SOL    HW2 2691   1.539   0.606   6.644
  717SOL     OW 2692   1.857   0.833   5.963
  717SOL    HW1 2693   1.899   0.769   6.027
  717SOL    HW2 2694   1.819   0.782   5.885
  718SOL     OW 2695   0.488   1.385   5.760
  718SOL    HW1 2696   0.401   1.370   5.807
  718SOL    HW2 2697   0.471   1.411   5.665
  719SOL     OW 2698   1.390   0.575   5.664
  719SOL    HW1 2699   1.336   0.554   5.745
  719SOL    HW2 2700   1.481   0.534   5.673
  720SOL     OW 2701   0.527   0.256   5.914
  720SOL    HW1 2702   0.554   0.197   5.839
  720SOL    HW2 2703   0.527   0.351   5.883
  721SOL     OW 2704   1.064   1.347   6.926
  721SOL    HW1 2705   0.984   1.324   6.981
  721SOL    HW2 2706   1.147   1.321   6.975
  722SOL     OW 2707   1.111   1.195   6.686
  722SOL    HW1 2708   1.071   1.239   6.767
  722SOL    HW2 2709   1.070   1.232   6.603
  723SOL     OW 2710   1.638   1.099   6.665
  723SOL    HW1 2711   1.643   1.180   6.724
  723SOL    HW2 2712   1.552   1.101   6.614
  724SOL     OW 2713   0.915   0.089   6.988
  724SOL    HW1 2714   0.940   0.069   6.893
  724SOL    HW2 2715   0.987   0.145   7.030
  725SOL     OW 2716   0.980   1.116   7.305
  725SOL    HW1 2717   0.881   1.122   7.315
  725SOL    HW2 2718   1.003   1.036   7.249
  726SOL     OW 2719   0.705   1.050   5.954
  726SOL    HW1 2720   0.691   1.057   6.053
  726SOL    HW2 2721   0.789   0.999   5.936
  727SOL     OW 2722   0.410   0.813   6.837
  727SOL    HW1 2723   0.496   0.825   6.887
  727SOL    HW2 2724   0.368   0.726   6.864
  728SOL     OW 2725   1.274   0.386   6.848
  728SOL    HW1 2726   1.295   0.460   6.912
  728SOL    HW2 2727   1.185   0.403   6.805
  729SOL     OW 2728   0.064   1.564   6.917
  729SOL    HW1 2729   0.018   1.646   6.883
  729SOL    HW2 2730   0.162   1.583   6.926
  730SOL     OW 2731   0.367   1.100   6.087
  730SOL    HW1 2732   0.360   1.183   6.031
  730SOL    HW2 2733   0.371   1.020   6.027
  731SOL     OW 2734   0.566   0.537   6.451
  731SOL    HW1 2735   0.578   0.603   6.377
  731SOL    HW2 2736   0.612   0.571   6.534
  732SOL     OW 2737   1.252   1.348   5.974
  732SOL    HW1 2738   1.302   1.425   6.014
  732SOL    HW2 2739   1.157   1.350   6.006
  733SOL     OW 2740   1.272   1.445   6.728
  733SOL    HW1 2741   1.319   1.458   6.815
  733SOL    HW2 2742   1.206   1.371   6.737
  734SOL     OW 2743   1.582   0.639   6.058
  734SOL    HW1 2744   1.551   0.700   6.131
  734SOL    HW2 2745   1.632   0.691   5.989
  735SOL     OW 2746   0.354   1.510   6.915
  735SOL    HW1 2747   0.333   1.466   6.828
  735SOL    HW2 2748   0.451   1.536   6.918
  736SOL     OW 2749   0.402   0.751   7.184
  736SOL    HW1 2750   0.470   0.806   7.137
  736SOL    HW2 2751   0.442   0.663   7.211
  737SOL     OW 2752   1.587   0.779   7.256
  737SOL    HW1 2753   1.495   0.817   7.251
  737SOL    HW2 2754   1.647   0.826   7.191
  738SOL     OW 2755   1.013   0.105   7.356
  738SOL    HW1 2756   1.019   0.190   7.304
  738SOL    HW2 2757   1.045   0.029   7.299
  739SOL     OW 2758   0.504   0.050   7.326
  739SOL    HW1 2759   0.462  -0.007   7.256
  739SOL    HW2 2760   0.438   0.119   7.358
  740SOL     OW 2761   0.573   0.870   6.615
  740SOL    HW1 2762   0.617   0.959   6.606
  740SOL    HW2 2763   0.510   0.870   6.692
  741SOL     OW 2764   1.360   0.862   6.631
  741SOL    HW1 2765   1.285   0.862   6.565
  741SOL    HW2 2766   1.397   0.770   6.640
  742SOL     OW 2767   1.209   0.525   5.861
  742SOL    HW1 2768   1.222   0.441   5.915
  742SOL    HW2 2769   1.180   0.599   5.921
  743SOL     OW 2770   0.307   0.213   6.817
  743SOL    HW1 2771   0.284   0.250   6.907
  743SOL    HW2 2772   0.277   0.118   6.811
  744SOL     OW 2773   0.037   1.310   6.868
  744SOL    HW1 2774   0.090   1.261   6.936
  744SOL    HW2 2775   0.059   1.408   6.873
  745SOL     OW 2776   0.732   0.634   6.650
  745SOL    HW1 2777   0.791   0.608   6.574
  745SOL    HW2 2778   0.704   0.730   6.639
  746SOL     OW 2779   1.728   0.935   7.440
  746SOL    HW1 2780   1.682   0.928   7.351
  746SOL    HW2 2781   1.666   0.979   7.506
  747SOL     OW 2782   0.307   0.063   6.204
  747SOL    HW1 2783   0.296   0.157   6.237
  747SOL    HW2 2784   0.302   0.000   6.281
  748SOL     OW 2785   1.622   0.367   5.960
  748SOL    HW1 2786   1.624   0.291   6.024
  748SOL    HW2 2787   1.574   0.444   6.000
  749SOL     OW 2788   1.023   0.766   6.552
  749SOL    HW1 2789   1.038   0.787   6.648
  749SOL    HW2 2790   0.993   0.671   6.543
  750SOL     OW 2791   0.980   1.573   7.286
  750SOL    HW1 2792   0.960   1.617   7.198
  750SOL    HW2 2793   1.019   1.482   7.270
  751SOL     OW 2794   1.859   1.518   7.191
  751SOL    HW1 2795   1.873   1.545   7.096
  751SOL    HW2 2796   1.942   1.540   7.244
  752SOL     OW 2797   0.350   0.898   7.390
  752SOL    HW1 2798   0.426   0.942   7.438
  752SOL    HW2 2799   0.385   0.851   7.308
  753SOL     OW 2800   1.540   0.274   5.711
  753SOL    HW1 2801   1.479   0.199   5.734
  753SOL    HW2 2802   1.562   0.326   5.794
  754SOL     OW 2803   1.303   0.838   5.628
  754SOL    HW1 2804   1.337   0.745   5.643
  754SOL    HW2 2805   1.321   0.865   5.533
  755SOL     OW 2806   1.068   1.333   6.435
  755SOL    HW1 2807   1.075   1.249   6.380
  755SOL    HW2 2808   1.130   1.402   6.399
  756SOL     OW 2809   0.319   0.810   6.535
  756SOL    HW1 2810   0.412   0.846   6.540
  756SOL    HW2 2811   0.313   0.725   6.587
  757SOL     OW 2812   0.339   0.509   6.592
  757SOL    HW1 2813   0.287   0.426   6.575
  757SOL    HW2 2814   0.416   0.514   6.528
  758SOL     OW 2815   1.138   0.380   7.264
  758SOL    HW1 2816   1.093   0.443   7.328
  758SOL    HW2 2817   1.231   0.411   7.247
  759SOL     OW 2818   1.160   0.207   7.063
  759SOL    HW1 2819   1.160   0.271   7.140
  759SOL    HW2 2820   1.188   0.255   6.980
  760SOL     OW 2821   0.008   1.326   5.786
  760SOL    HW1 2822  -0.085   1.347   5.755
  760SOL    HW2 2823   0.018   1.227   5.799
  761SOL     OW 2824   0.088   1.801   6.513
  761SOL    HW1 2825   0.046   1.715   6.486
  761SOL    HW2 2826   0.182   1.804   6.479
  762SOL     OW 2827   0.504   1.568   6.496
  762SOL    HW1 2828   0.570   1.642   6.505
  762SOL    HW2 2829   0.548   1.489   6.454
  763SOL     OW 2830   1.002   0.796   6.824
  763SOL    HW1 2831   1.043   0.764   6.910
  763SOL    HW2 2832   0.906   0.769   6.821
  764SOL     OW 2833   0.040   0.544   6.700
  764SOL    HW1 2834   0.125   0.511   6.659
  764SOL    HW2 2835   0.053   0.559   6.798
  765SOL     OW 2836   0.189   0.520   7.308
  765SOL    HW1 2837   0.248   0.480   7.238
  765SOL    HW2 2838   0.131   0.591   7.267
  766SOL     OW 2839   1.369   0.950   7.246
  766SOL    HW1 2840   1.408   1.039   7.266
  766SOL    HW2 2841   1.379   0.930   7.149
  767SOL     OW 2842   0.815   0.572   5.911
  767SOL    HW1 2843   0.822   0.483   5.865
  767SOL    HW2 2844   0.721   0.606   5.903
  768SOL     OW 2845   1.657   0.604   6.792
  768SOL    HW1 2846   1.619   0.535   6.854
  768SOL    HW2 2847   1.739   0.568   6.748
  769SOL     OW 2848   0.252   1.564   7.330
  769SOL    HW1 2849   0.222   1.621   7.406
  769SOL    HW2 2850   0.245   1.467   7.356
  770SOL     OW 2851   0.671   0.464   6.855
  770SOL    HW1 2852   0.637   0.375   6.825
  770SOL    HW2 2853   0.697   0.518   6.775
  771SOL     OW 2854   0.930   1.678   7.051
  771SOL    HW1 2855   0.906   1.660   6.956
  771SOL    HW2 2856   0.960   1.772   7.061
  772SOL     OW 2857   0.473   0.500   5.777
  772SOL    HW1 2858   0.534   0.580   5.781
  772SOL    HW2 2859   0.378   0.531   5.784
  773SOL     OW 2860   0.159   1.137   7.052
  773SOL    HW1 2861   0.181   1.076   7.128
  773SOL    HW2 2862   0.169   1.088   6.966
  774SOL     OW 2863   1.347   1.059   6.820
  774SOL    HW1 2864   1.371   0.996   6.746
  774SOL    HW2 2865   1.257   1.099   6.802
  775SOL     OW 2866   1.302   0.855   5.895
  775SOL    HW1 2867   1.216   0.824   5.937
  775SOL    HW2 2868   1.298   0.841   5.796
  776SOL     OW 2869   1.252   1.731   6.714
  776SOL    HW1 2870   1.336   1.736   6.660
  776SOL    HW2 2871   1.229   1.635   6.732
  777SOL     OW 2872   0.083   1.258   6.608
  777SOL    HW1 2873   0.078   1.257   6.708
  777SOL    HW2 2874   0.000   1.217   6.570
  778SOL     OW 2875   0.688   1.662   7.302
  778SOL    HW1 2876   0.632   1.743   7.311
  778SOL    HW2 2877   0.740   1.666   7.216
  779SOL     OW 2878   1.726   0.135   6.109
  779SOL    HW1 2879   1.799   0.118   6.042
  779SOL    HW2 2880   1.695   0.048   6.147
  780SOL     OW 2881   0.130   1.794   7.437
  780SOL    HW1 2882   0.089   1.720   7.490
  780SOL    HW2 2883   0.194   1.845   7.495
  781SOL     OW 2884   1.280   0.927   6.258
  781SOL    HW1 2885   1.340   0.846   6.260
  781SOL    HW2 2886   1.320   0.996   6.198
  782SOL     OW 2887   0.830   1.273   7.008
  782SOL    HW1 2888   0.825   1.306   7.103
  782SOL    HW2 2889   0.744   1.292   6.962
  783SOL     OW 2890   0.672   1.616   5.740
  783SOL    HW1 2891   0.681   1.626   5.641
  783SOL    HW2 2892   0.632   1.527   5.761
  784SOL     OW 2893   1.650   1.720   6.980
  784SOL    HW1 2894   1.703   1.730   6.896
  784SOL    HW2 2895   1.623   1.810   7.014
  785SOL     OW 2896   1.841   0.175   6.549
  785SOL    HW1 2897   1.880   0.090   6.513
  785SOL    HW2 2898   1.743   0.177   6.530
  786SOL     OW 2899   0.263   0.326   6.306
  786SOL    HW1 2900   0.184   0.377   6.272
  786SOL    HW2 2901   0.254   0.311   6.404
  787SOL     OW 2902   1.194   1.612   5.617
  787SOL    HW1 2903   1.200   1.519   5.654
  787SOL    HW2 2904   1.135   1.612   5.537
  788SOL     OW 2905   0.822   1.002   6.958
  788SOL    HW1 2906   0.862   1.001   6.866
  788SOL    HW2 2907   0.832   1.094   6.998
  789SOL     OW 2908   0.916   0.910   5.877
  789SOL    HW1 2909   0.979   0.948   5.809
  789SOL    HW2 2910   0.956   0.827   5.916
  790SOL     OW 2911   1.504   1.607   5.630
  790SOL    HW1 2912   1.412   1.644   5.637
  790SOL    HW2 2913   1.542   1.627   5.540
  791SOL     OW 2914   0.372   1.288   7.076
  791SOL    HW1 2915   0.359   1.381   7.042
  791SOL    HW2 2916   0.288   1.236   7.063
  792SOL     OW 2917   1.614   1.292   6.875
  792SOL    HW1 2918   1.674   1.295   6.955
  792SOL    HW2 2919   1.539   1.356   6.888
  793SOL     OW 2920   1.039   1.098   6.282
  793SOL    HW1 2921   0.969   1.051   6.336
  793SOL    HW2 2922   1.098   1.030   6.239
  794SOL     OW 2923   1.014   0.236   6.557
  794SOL    HW1 2924   1.006   0.200   6.464
  794SOL    HW2 2925   1.012   0.160   6.622
  795SOL     OW 2926   0.590   1.487   6.077
  795SOL    HW1 2927   0.632   1.429   6.007
  795SOL    HW2 2928   0.546   1.566   6.033
  796SOL     OW 2929   1.709   0.385   6.967
  796SOL    HW1 2930   1.782   0.454   6.971
  796SOL    HW2 2931   1.737   0.310   6.908
  797SOL     OW 2932   0.255   1.348   5.876
  797SOL    HW1 2933   0.159   1.349   5.849
  797SOL    HW2 2934   0.267   1.401   5.960
  798SOL     OW 2935   0.105   1.013   7.312
  798SOL    HW1 2936   0.028   0.980   7.366
  798SOL    HW2 2937   0.190   0.983   7.354
  799SOL     OW 2938   0.672   0.203   7.075
  799SOL    HW1 2939   0.762   0.187   7.035
  799SOL    HW2 2940   0.680   0.208   7.174
  800SOL     OW 2941   0.075   0.345   5.619
  800SOL    HW1 2942  -0.017   0.317   5.590
  800SOL    HW2 2943   0.106   0.422   5.563
  801SOL     OW 2944   1.440   0.856   6.984
  801SOL    HW1 2945   1.383   0.908   6.921
  801SOL    HW2 2946   1.536   0.868   6.960
  802SOL     OW 2947   0.072   0.166   5.904
  802SOL    HW1 2948   0.055   0.249   5.850
  802SOL    HW2 2949   0.162   0.129   5.882
  803SOL     OW 2950   1.183   1.335   5.705
  803SOL    HW1 2951   1.084   1.324   5.707
  803SOL    HW2 2952   1.217   1.350   5.798
  804SOL     OW 2953   0.613   0.842   7.017
  804SOL    HW1 2954   0.669   0.923   7.000
  804SOL    HW2 2955   0.672   0.762   7.020
  805SOL     OW 2956   0.716   0.565   7.294
  805SOL    HW1 2957   0.735   0.630   7.368
  805SOL    HW2 2958   0.776   0.485   7.303
  806SOL     OW 2959   1.450   1.220   7.219
  806SOL    HW1 2960   1.441   1.210   7.318
  806SOL    HW2 2961   1.546   1.213   7.193
  807SOL     OW 2962   0.390   1.741   7.146
  807SOL    HW1 2963   0.299   1.782   7.144
  807SOL    HW2 2964   0.383   1.647   7.178
  808SOL     OW 2965   1.674   0.883   6.840
  808SOL    HW1 2966   1.647   0.794   6.803
  808SOL    HW2 2967   1.675   0.951   6.767
  809SOL     OW 2968   1.225   0.325   6.035
  809SOL    HW1 2969   1.290   0.251   6.024
  809SOL    HW2 2970   1.245   0.375   6.119
  810SOL     OW 2971   0.594   0.745   6.238
  810SOL    HW1 2972   0.644   0.830   6.219
  810SOL    HW2 2973   0.506   0.747   6.190
  811SOL     OW 2974   1.777   0.342   7.228
  811SOL    HW1 2975   1.760   0.373   7.134
  811SOL    HW2 2976   1.693   0.305   7.266
  812SOL     OW 2977   1.730   0.934   7.103
  812SOL    HW1 2978   1.768   1.025   7.118
  812SOL    HW2 2979   1.722   0.917   7.004
  813SOL     OW 2980   0.859   1.374   5.602
  813SOL    HW1 2981   0.813   1.389   5.690
  813SOL    HW2 2982   0.903   1.459   5.572
  814SOL     OW 2983   0.661   1.790   6.539
  814SOL    HW1 2984   0.615   1.878   6.526
  814SOL    HW2 2985   0.760   1.802   6.532
  815SOL     OW 2986   0.859   0.956   6.447
  815SOL    HW1 2987   0.913   0.887   6.495
  815SOL    HW2 2988   0.827   1.025   6.513
  816SOL     OW 2989   1.083   0.984   5.673
  816SOL    HW1 2990   1.060   1.037   5.591
  816SOL    HW2 2991   1.164   0.928   5.654
  817SOL     OW 2992   0.221   1.314   7.430
  817SOL    HW1 2993   0.156   1.241   7.409
  817SOL    HW2 2994   0.225   1.328   7.528
  818SOL     OW 2995   0.079   1.240   6.239
  818SOL    HW1 2996   0.078   1.193   6.327
  818SOL    HW2 2997   0.161   1.212   6.188
  819SOL     OW 2998   0.672   1.391   7.210
  819SOL    HW1 2999   0.594   1.341   7.248
  819SOL    HW2 3000   0.669   1.486   7.241
  820SOL     OW 3001   1.824   0.192   6.813
  820SOL    HW1 3002   1.820   0.102   6.857
  820SOL    HW2 3003   1.827   0.181   6.714
  821SOL     OW 3004   0.428   0.424   6.106
  821SOL    HW1 3005   0.458   0.352   6.044
  821SOL    HW2 3006   0.389   0.384   6.189
  822SOL     OW 3007   0.317   0.547   6.866
  822SOL    HW1 3008   0.355   0.488   6.938
  822SOL    HW2 3009   0.357   0.521   6.778
  823SOL     OW 3010   0.812   1.586   6.273
  823SOL    HW1 3011   0.844   1.596   6.179
  823SOL    HW2 3012   0.733   1.524   6.275
  824SOL     OW 3013   1.424   0.214   6.698
  824SOL    HW1 3014   1.476   0.149   6.753
  824SOL    HW2 3015   1.375   0.277   6.759
  825SOL     OW 3016   1.001   0.034   6.740
  825SOL    HW1 3017   0.938  -0.038   6.709
  825SOL    HW2 3018   1.094  -0.002   6.740
  826SOL     OW 3019   0.770   1.330   5.887
  826SOL    HW1 3020   0.724   1.243   5.904
  826SOL    HW2 3021   0.861   1.327   5.928
  827SOL     OW 3022   0.618   1.567   6.870
  827SOL    HW1 3023   0.613   1.649   6.927
  827SOL    HW2 3024   0.707   1.564   6.825
  828SOL     OW 3025   1.352   0.052   5.754
  828SOL    HW1 3026   1.387   0.011   5.670
  828SOL    HW2 3027   1.262   0.014   5.774
  829SOL     OW 3028   1.300   0.453   6.277
  829SOL    HW1 3029   1.241   0.533   6.281
  829SOL    HW2 3030   1.315   0.418   6.370
  830SOL     OW 3031   1.593   0.221   6.468
  830SOL    HW1 3032   1.509   0.220   6.522
  830SOL    HW2 3033   1.595   0.304   6.412
  831SOL     OW 3034   0.039   1.077   5.886
  831SOL    HW1 3035   0.138   1.066   5.877
  831SOL    HW2 3036  -0.001   0.991   5.918
  832SOL     OW 3037   0.875   1.646   5.923
  832SOL    HW1 3038   0.798   1.611   5.869
  832SOL    HW2 3039   0.843   1.717   5.985
  833SOL     OW 3040   0.230   0.628   7.561
  833SOL    HW1 3041   0.137   0.626   7.598
  833SOL    HW2 3042   0.231   0.589   7.469
  834SOL     OW 3043   0.225   0.275   8.444
  834SOL    HW1 3044   0.260   0.258   8.536
  834SOL    HW2 3045   0.137   0.230   8.432
  835SOL     OW 3046   0.019   0.368   8.095
  835SOL    HW1 3047  -0.063   0.411   8.134
  835SOL    HW2 3048  -0.009   0.295   8.032
  836SOL     OW 3049   0.569   1.275   8.613
  836SOL    HW1 3050   0.476   1.268   8.576
  836SOL    HW2 3051   0.580   1.364   8.657
  837SOL     OW 3052   1.555   1.511   8.151
  837SOL    HW1 3053   1.498   1.495   8.232
  837SOL    HW2 3054   1.496   1.521   8.071
  838SOL     OW 3055   1.135   0.703   8.165
  838SOL    HW1 3056   1.192   0.781   8.140
  838SOL    HW2 3057   1.075   0.729   8.241
  839SOL     OW 3058   1.755   0.607   7.679
  839SOL    HW1 3059   1.743   0.594   7.580
  839SOL    HW2 3060   1.725   0.526   7.728
  840SOL     OW 3061   0.768   1.144   8.471
  840SOL    HW1 3062   0.690   1.161   8.531
  840SOL    HW2 3063   0.802   1.231   8.435
  841SOL     OW 3064   0.850   0.798   9.271
  841SOL    HW1 3065   0.846   0.874   9.336
  841SOL    HW2 3066   0.872   0.834   9.180
  842SOL     OW 3067   0.685   1.012   8.113
  842SOL    HW1 3068   0.754   0.996   8.183
  842SOL    HW2 3069   0.612   1.069   8.151
  843SOL     OW 3070   0.686   1.161   9.251
  843SOL    HW1 3071   0.746   1.240   9.265
  843SOL    HW2 3072   0.600   1.192   9.210
  844SOL     OW 3073   0.335   1.435   8.509
  844SOL    HW1 3074   0.257   1.404   8.456
  844SOL    HW2 3075   0.393   1.493   8.452
  845SOL     OW 3076   1.460   1.505   8.787
  845SOL    HW1 3077   1.484   1.599   8.813
  845SOL    HW2 3078   1.444   1.451   8.869
  846SOL     OW 3079   0.438   0.392   8.947
  846SOL    HW1 3080   0.520   0.336   8.956
  846SOL    HW2 3081   0.357   0.334   8.951
  847SOL     OW 3082   1.603   0.447   8.185
  847SOL    HW1 3083   1.529   0.493   8.135
  847SOL    HW2 3084   1.654   0.515   8.238
  848SOL     OW 3085   0.231   1.713   7.931
  848SOL    HW1 3086   0.265   1.790   7.985
  848SOL    HW2 3087   0.275   1.713   7.841
  849SOL     OW 3088   1.127   1.341   9.138
  849SOL    HW1 3089   1.174   1.341   9.226
  849SOL    HW2 3090   1.079   1.254   9.127
  850SOL     OW 3091   0.230   1.434   7.986
  850SOL    HW1 3092   0.204   1.530   7.986
  850SOL    HW2 3093   0.159   1.380   8.031
  851SOL     OW 3094   0.240   1.091   8.334
  851SOL    HW1 3095   0.254   1.007   8.386
  851SOL    HW2 3096   0.185   1.155   8.389
  852SOL     OW 3097   0.620   1.786   8.887
  852SOL    HW1 3098   0.528   1.769   8.922
  852SOL    HW2 3099   0.648   1.878   8.913
  853SOL     OW 3100   0.606   0.964   7.571
  853SOL    HW1 3101   0.613   1.048   7.517
  853SOL    HW2 3102   0.652   0.977   7.659
  854SOL     OW 3103   1.594   0.114   8.928
  854SOL    HW1 3104   1.576   0.181   8.856
  854SOL    HW2 3105   1.591   0.160   9.017
  855SOL     OW 3106   0.122   0.643   8.011
  855SOL    HW1 3107   0.077   0.555   8.028
  855SOL    HW2 3108   0.121   0.697   8.095
  856SOL     OW 3109   0.027   1.596   7.565
  856SOL    HW1 3110   0.008   1.500   7.586
  856SOL    HW2 3111  -0.006   1.654   7.640
  857SOL     OW 3112   1.689   0.922   8.060
  857SOL    HW1 3113   1.784   0.893   8.068
  857SOL    HW2 3114   1.681   0.987   7.985
  858SOL     OW 3115   1.641   1.108   7.880
  858SOL    HW1 3116   1.727   1.110   7.828
  858SOL    HW2 3117   1.655   1.155   7.968
  859SOL     OW 3118   0.113   0.737   9.045
  859SOL    HW1 3119   0.201   0.724   9.090
  859SOL    HW2 3120   0.100   0.834   9.023
  860SOL     OW 3121   0.613   1.365   8.174
  860SOL    HW1 3122   0.564   1.278   8.183
  860SOL    HW2 3123   0.590   1.408   8.087
  861SOL     OW 3124   1.293   1.228   8.871
  861SOL    HW1 3125   1.330   1.155   8.813
  861SOL    HW2 3126   1.345   1.233   8.956
  862SOL     OW 3127   0.809   0.004   7.950
  862SOL    HW1 3128   0.849   0.095   7.941
  862SOL    HW2 3129   0.709   0.012   7.956
  863SOL     OW 3130   0.197   0.976   8.712
  863SOL    HW1 3131   0.286   0.931   8.698
  863SOL    HW2 3132   0.124   0.911   8.693
  864SOL     OW 3133   1.525   0.999   7.638
  864SOL    HW1 3134   1.462   0.923   7.651
  864SOL    HW2 3135   1.573   1.017   7.724
  865SOL     OW 3136   1.187   1.792   9.064
  865SOL    HW1 3137   1.211   1.852   8.988
  865SOL    HW2 3138   1.194   1.697   9.034
  866SOL     OW 3139   0.317   0.251   9.249
  866SOL    HW1 3140   0.388   0.322   9.255
  866SOL    HW2 3141   0.229   0.290   9.277
  867SOL     OW 3142   1.466   1.417   8.401
  867SOL    HW1 3143   1.407   1.423   8.481
  867SOL    HW2 3144   1.451   1.329   8.355
  868SOL     OW 3145   1.667   1.714   8.020
  868SOL    HW1 3146   1.626   1.691   7.932
  868SOL    HW2 3147   1.649   1.640   8.085
  869SOL     OW 3148   0.598   0.729   7.718
  869SOL    HW1 3149   0.622   0.798   7.650
  869SOL    HW2 3150   0.520   0.762   7.772
  870SOL     OW 3151   1.281   0.345   8.392
  870SOL    HW1 3152   1.195   0.295   8.379
  870SOL    HW2 3153   1.343   0.291   8.448
  871SOL     OW 3154   0.807   0.605   8.913
  871SOL    HW1 3155   0.760   0.602   9.002
  871SOL    HW2 3156   0.756   0.550   8.847
  872SOL     OW 3157   1.394   0.469   9.122
  872SOL    HW1 3158   1.374   0.512   9.210
  872SOL    HW2 3159   1.472   0.407   9.131
  873SOL     OW 3160   0.973   0.890   9.020
  873SOL    HW1 3161   1.019   0.806   8.991
  873SOL    HW2 3162   0.917   0.924   8.945
  874SOL     OW 3163   0.991   0.410   8.690
  874SOL    HW1 3164   0.914   0.444   8.744
  874SOL    HW2 3165   0.957   0.359   8.611
  875SOL     OW 3166   1.041   0.701   7.877
  875SOL    HW1 3167   1.067   0.697   7.973
  875SOL    HW2 3168   0.956   0.650   7.863
  876SOL     OW 3169   0.076   0.811   8.237
  876SOL    HW1 3170   0.175   0.799   8.246
  876SOL    HW2 3171   0.052   0.906   8.258
  877SOL     OW 3172   0.130   1.821   9.019
  877SOL    HW1 3173   0.120   1.806   9.118
  877SOL    HW2 3174   0.044   1.857   8.983
  878SOL     OW 3175   0.865   0.348   7.643
  878SOL    HW1 3176   0.924   0.411   7.594
  878SOL    HW2 3177   0.884   0.254   7.614
  879SOL     OW 3178   1.719   0.585   9.279
  879SOL    HW1 3179   1.693   0.674   9.243
  879SOL    HW2 3180   1.717   0.517   9.206
  880SOL     OW 3181   1.362   1.144   7.993
  880SOL    HW1 3182   1.445   1.115   7.945
  880SOL    HW2 3183   1.313   1.211   7.937
  881SOL     OW 3184   0.550   0.196   8.333
  881SOL    HW1 3185   0.545   0.191   8.433
  881SOL    HW2 3186   0.552   0.292   8.304
  882SOL     OW 3187   1.008   1.456   7.925
  882SOL    HW1 3188   0.962   1.528   7.873
  882SOL    HW2 3189   1.004   1.476   8.023
  883SOL     OW 3190   0.351   1.801   8.301
  883SOL    HW1 3191   0.401   1.715   8.307
  883SOL    HW2 3192   0.416   1.878   8.298
  884SOL     OW 3193   1.795   1.066   8.321
  884SOL    HW1 3194   1.733   1.051   8.245
  884SOL    HW2 3195   1.743   1.077   8.406
  885SOL     OW 3196   1.227   1.550   8.954
  885SOL    HW1 3197   1.233   1.473   9.018
  885SOL    HW2 3198   1.175   1.524   8.874
  886SOL     OW 3199   0.321   0.943   7.690
  886SOL    HW1 3200   0.403   0.982   7.648
  886SOL    HW2 3201   0.294   0.861   7.641
  887SOL     OW 3202   1.458   0.735   8.176
  887SOL    HW1 3203   1.453   0.670   8.251
  887SOL    HW2 3204   1.538   0.794   8.189
  888SOL     OW 3205   0.461   1.266   9.175
  888SOL    HW1 3206   0.411   1.267   9.089
  888SOL    HW2 3207   0.398   1.248   9.251
  889SOL     OW 3208   1.111   1.776   7.685
  889SOL    HW1 3209   1.051   1.714   7.735
  889SOL    HW2 3210   1.142   1.732   7.600
  890SOL     OW 3211   0.202   0.285   8.946
  890SOL    HW1 3212   0.122   0.345   8.933
  890SOL    HW2 3213   0.192   0.236   9.032
  891SOL     OW 3214   0.464   1.743   7.771
  891SOL    HW1 3215   0.497   1.782   7.857
  891SOL    HW2 3216   0.540   1.736   7.706
  892SOL     OW 3217   1.400   0.107   7.874
  892SOL    HW1 3218   1.376   0.070   7.784
  892SOL    HW2 3219   1.499   0.123   7.878
  893SOL     OW 3220   0.249   1.785   8.689
  893SOL    HW1 3221   0.306   1.720   8.739
  893SOL    HW2 3222   0.233   1.752   8.596
  894SOL     OW 3223   0.940   1.698   8.352
  894SOL    HW1 3224   1.020   1.641   8.373
  894SOL    HW2 3225   0.891   1.658   8.275
  895SOL     OW 3226   0.382   0.700   7.928
  895SOL    HW1 3227   0.427   0.610   7.925
  895SOL    HW2 3228   0.288   0.689   7.961
  896SOL     OW 3229   1.547   0.222   9.177
  896SOL    HW1 3230   1.542   0.259   9.269
  896SOL    HW2 3231   1.475   0.153   9.165
  897SOL     OW 3232   0.614   0.122   7.565
  897SOL    HW1 3233   0.712   0.100   7.572
  897SOL    HW2 3234   0.583   0.105   7.472
  898SOL     OW 3235   0.781   0.264   9.197
  898SOL    HW1 3236   0.848   0.203   9.240
  898SOL    HW2 3237   0.708   0.283   9.262
  899SOL     OW 3238   0.888   1.514   8.643
  899SOL    HW1 3239   0.865   1.489   8.549
  899SOL    HW2 3240   0.949   1.445   8.682
  900SOL     OW 3241   1.351   0.590   8.881
  900SOL    HW1 3242   1.379   0.547   8.966
  900SOL    HW2 3243   1.376   0.686   8.882
  901SOL     OW 3244   0.803   1.402   8.372
  901SOL    HW1 3245   0.893   1.416   8.330
  901SOL    HW2 3246   0.732   1.404   8.301
  902SOL     OW 3247   0.922   0.503   8.347
  902SOL    HW1 3248   0.897   0.494   8.251
  902SOL    HW2 3249   0.970   0.421   8.378
  903SOL     OW 3250   0.539   0.064   7.960
  903SOL    HW1 3251   0.458   0.065   8.018
  903SOL    HW2 3252   0.542   0.147   7.905
  904SOL     OW 3253   1.434   1.188   7.489
  904SOL    HW1 3254   1.466   1.112   7.546
  904SOL    HW2 3255   1.342   1.215   7.519
  905SOL     OW 3256   0.297   0.035   7.619
  905SOL    HW1 3257   0.346   0.119   7.598
  905SOL    HW2 3258   0.359  -0.030   7.664
  906SOL     OW 3259   0.935   0.236   7.928
  906SOL    HW1 3260   0.887   0.277   7.850
  906SOL    HW2 3261   1.034   0.234   7.909
  907SOL     OW 3262   1.076   0.683   8.912
  907SOL    HW1 3263   0.996   0.622   8.915
  907SOL    HW2 3264   1.157   0.630   8.888
  908SOL     OW 3265   1.227   1.570   8.241
  908SOL    HW1 3266   1.248   1.644   8.176
  908SOL    HW2 3267   1.295   1.570   8.314
  909SOL     OW 3268   0.459   1.152   8.189
  909SOL    HW1 3269   0.388   1.125   8.254
  909SOL    HW2 3270   0.433   1.124   8.096
  910SOL     OW 3271   1.271   1.797   8.039
  910SOL    HW1 3272   1.315   1.861   7.975
  910SOL    HW2 3273   1.221   1.849   8.109
  911SOL     OW 3274   1.032   0.549   7.464
  911SOL    HW1 3275   0.991   0.631   7.425
  911SOL    HW2 3276   1.096   0.575   7.537
  912SOL     OW 3277   0.078   0.556   8.834
  912SOL    HW1 3278   0.170   0.555   8.793
  912SOL    HW2 3279   0.072   0.630   8.901
  913SOL     OW 3280   0.561   0.222   8.595
  913SOL    HW1 3281   0.599   0.138   8.632
  913SOL    HW2 3282   0.473   0.241   8.639
  914SOL     OW 3283   0.866   0.454   8.090
  914SOL    HW1 3284   0.834   0.526   8.028
  914SOL    HW2 3285   0.890   0.373   8.037
  915SOL     OW 3286   1.017   0.039   8.201
  915SOL    HW1 3287   0.945   0.044   8.132
  915SOL    HW2 3288   0.993  -0.030   8.270
  916SOL     OW 3289   1.429   1.173   8.315
  916SOL    HW1 3290   1.374   1.089   8.308
  916SOL    HW2 3291   1.455   1.202   8.223
  917SOL     OW 3292   1.466   0.590   8.440
  917SOL    HW1 3293   1.436   0.495   8.447
  917SOL    HW2 3294   1.539   0.606   8.506
  918SOL     OW 3295   1.857   0.833   7.825
  918SOL    HW1 3296   1.899   0.769   7.889
  918SOL    HW2 3297   1.819   0.782   7.747
  919SOL     OW 3298   0.488   1.385   7.622
  919SOL    HW1 3299   0.401   1.370   7.669
  919SOL    HW2 3300   0.471   1.411   7.527
  920SOL     OW 3301   1.664   1.280   8.105
  920SOL    HW1 3302   1.763   1.288   8.119
  920SOL    HW2 3303   1.619   1.364   8.136
  921SOL     OW 3304   1.390   0.575   7.526
  921SOL    HW1 3305   1.336   0.554   7.607
  921SOL    HW2 3306   1.481   0.534   7.535
  922SOL     OW 3307   0.527   0.256   7.776
  922SOL    HW1 3308   0.554   0.197   7.701
  922SOL    HW2 3309   0.527   0.351   7.745
  923SOL     OW 3310   1.754   1.223   9.036
  923SOL    HW1 3311   1.845   1.184   9.023
  923SOL    HW2 3312   1.762   1.319   9.060
  924SOL     OW 3313   1.064   1.347   8.788
  924SOL    HW1 3314   0.984   1.324   8.843
  924SOL    HW2 3315   1.147   1.321   8.837
  925SOL     OW 3316   1.592   1.629   9.073
  925SOL    HW1 3317   1.619   1.663   8.983
  925SOL    HW2 3318   1.671   1.591   9.119
  926SOL     OW 3319   1.111   1.195   8.548
  926SOL    HW1 3320   1.071   1.239   8.629
  926SOL    HW2 3321   1.070   1.232   8.465
  927SOL     OW 3322   1.638   1.099   8.527
  927SOL    HW1 3323   1.643   1.180   8.586
  927SOL    HW2 3324   1.552   1.101   8.476
  928SOL     OW 3325   0.915   0.089   8.850
  928SOL    HW1 3326   0.940   0.069   8.755
  928SOL    HW2 3327   0.987   0.145   8.892
  929SOL     OW 3328   0.980   1.116   9.167
  929SOL    HW1 3329   0.881   1.122   9.177
  929SOL    HW2 3330   1.003   1.036   9.111
  930SOL     OW 3331   0.705   1.050   7.816
  930SOL    HW1 3332   0.691   1.057   7.915
  930SOL    HW2 3333   0.789   0.999   7.798
  931SOL     OW 3334   0.410   0.813   8.699
  931SOL    HW1 3335   0.496   0.825   8.749
  931SOL    HW2 3336   0.368   0.726   8.726
  932SOL     OW 3337   1.274   0.386   8.710
  932SOL    HW1 3338   1.295   0.460   8.774
  932SOL    HW2 3339   1.185   0.403   8.667
  933SOL     OW 3340   0.064   1.564   8.779
  933SOL    HW1 3341   0.018   1.646   8.745
  933SOL    HW2 3342   0.162   1.583   8.788
  934SOL     OW 3343   0.367   1.100   7.949
  934SOL    HW1 3344   0.360   1.183   7.893
  934SOL    HW2 3345   0.371   1.020   7.889
  935SOL     OW 3346   0.566   0.537   8.313
  935SOL    HW1 3347   0.578   0.603   8.239
  935SOL    HW2 3348   0.612   0.571   8.396
  936SOL     OW 3349   1.252   1.348   7.836
  936SOL    HW1 3350   1.302   1.425   7.876
  936SOL    HW2 3351   1.157   1.350   7.868
  937SOL     OW 3352   1.272   1.445   8.590
  937SOL    HW1 3353   1.319   1.458   8.677
  937SOL    HW2 3354   1.206   1.371   8.599
  938SOL     OW 3355   1.582   0.639   7.920
  938SOL    HW1 3356   1.551   0.700   7.993
  938SOL    HW2 3357   1.632   0.691   7.851
  939SOL     OW 3358   0.354   1.510   8.777
  939SOL    HW1 3359   0.333   1.466   8.690
  939SOL    HW2 3360   0.451   1.536   8.780
  940SOL     OW 3361   0.402   0.751   9.046
  940SOL    HW1 3362   0.470   0.806   8.999
  940SOL    HW2 3363   0.442   0.663   9.073
  941SOL     OW 3364   1.587   0.779   9.118
  941SOL    HW1 3365   1.495   0.817   9.113
  941SOL    HW2 3366   1.647   0.826   9.053
  942SOL     OW 3367   1.013   0.105   9.218
  942SOL    HW1 3368   1.019   0.190   9.166
  942SOL    HW2 3369   1.045   0.029   9.161
  943SOL     OW 3370   0.504   0.050   9.188
  943SOL    HW1 3371   0.462  -0.007   9.118
  943SOL    HW2 3372   0.438   0.119   9.220
  944SOL     OW 3373   0.573   0.870   8.477
  944SOL    HW1 3374   0.617   0.959   8.468
  944SOL    HW2 3375   0.510   0.870   8.554
  945SOL     OW 3376   1.360   0.862   8.493
  945SOL    HW1 3377   1.285   0.862   8.427
  945SOL    HW2 3378   1.397   0.770   8.502
  946SOL     OW 3379   1.209   0.525   7.723
  946SOL    HW1 3380   1.222   0.441   7.777
  946SOL    HW2 3381   1.180   0.599   7.783
  947SOL     OW 3382   0.307   0.213   8.679
  947SOL    HW1 3383   0.284   0.250   8.769
  947SOL    HW2 3384   0.277   0.118   8.673
  948SOL     OW 3385   0.037   1.310   8.730
  948SOL    HW1 3386   0.090   1.261   8.798
  948SOL    HW2 3387   0.059   1.408   8.735
  949SOL     OW 3388   0.732   0.634   8.512
  949SOL    HW1 3389   0.791   0.608   8.436
  949SOL    HW2 3390   0.704   0.730   8.501
  950SOL     OW 3391   1.728   0.935   9.302
  950SOL    HW1 3392   1.682   0.928   9.213
  950SOL    HW2 3393   1.666   0.979   9.368
  951SOL     OW 3394   0.307   0.063   8.066
  951SOL    HW1 3395   0.296   0.157   8.099
  951SOL    HW2 3396   0.302   0.000   8.143
  952SOL     OW 3397   1.622   0.367   7.822
  952SOL    HW1 3398   1.624   0.291   7.886
  952SOL    HW2 3399   1.574   0.444   7.862
  953SOL     OW 3400   1.023   0.766   8.414
  953SOL    HW1 3401   1.038   0.787   8.510
  953SOL    HW2 3402   0.993   0.671   8.405
  954SOL     OW 3403   0.980   1.573   9.148
  954SOL    HW1 3404   0.960   1.617   9.060
  954SOL    HW2 3405   1.019   1.482   9.132
  955SOL     OW 3406   1.859   1.518   9.053
  955SOL    HW1 3407   1.873   1.545   8.958
  955SOL    HW2 3408   1.942   1.540   9.106
  956SOL     OW 3409   0.350   0.898   9.252
  956SOL    HW1 3410   0.426   0.942   9.300
  956SOL    HW2 3411   0.385   0.851   9.170
  957SOL     OW 3412   1.540   0.274   7.573
  957SOL    HW1 3413   1.479   0.199   7.596
  957SOL    HW2 3414   1.562   0.326   7.656
  958SOL     OW 3415   1.303   0.838   7.490
  958SOL    HW1 3416   1.337   0.745   7.505
  958SOL    HW2 3417   1.321   0.865   7.395
  959SOL     OW 3418   1.068   1.333   8.297
  959SOL    HW1 3419   1.075   1.249   8.242
  959SOL    HW2 3420   1.130   1.402   8.261
  960SOL     OW 3421   0.319   0.810   8.397
  960SOL    HW1 3422   0.412   0.846   8.402
  960SOL    HW2 3423   0.313   0.725   8.449
  961SOL     OW 3424   0.339   0.509   8.454
  961SOL    HW1 3425   0.287   0.426   8.437
  961SOL    HW2 3426   0.416   0.514   8.390
  962SOL     OW 3427   1.138   0.380   9.126
  962SOL    HW1 3428   1.093   0.443   9.190
  962SOL    HW2 3429   1.231   0.411   9.109
  963SOL     OW 3430   1.160   0.207   8.925
  963SOL    HW1 3431   1.160   0.271   9.002
  963SOL    HW2 3432   1.188   0.255   8.842
  964SOL     OW 3433   0.008   1.326   7.648
  964SOL    HW1 3434  -0.085   1.347   7.617
  964SOL    HW2 3435   0.018   1.227   7.661
  965SOL     OW 3436   0.088   1.801   8.375
  965SOL    HW1 3437   0.046   1.715   8.348
  965SOL    HW2 3438   0.182   1.804   8.341
  966SOL     OW 3439   0.504   1.568   8.358
  966SOL    HW1 3440   0.570   1.642   8.367
  966SOL    HW2 3441   0.548   1.489   8.316
  967SOL     OW 3442   1.002   0.796   8.686
  967SOL    HW1 3443   1.043   0.764   8.772
  967SOL    HW2 3444   0.906   0.769   8.683
  968SOL     OW 3445   0.040   0.544   8.562
  968SOL    HW1 3446   0.125   0.511   8.521
  968SOL    HW2 3447   0.053   0.559   8.660
  969SOL     OW 3448   0.189   0.520   9.170
  969SOL    HW1 3449   0.248   0.480   9.100
  969SOL    HW2 3450   0.131   0.591   9.129
  970SOL     OW 3451   1.369   0.950   9.108
  970SOL    HW1 3452   1.408   1.039   9.128
  970SOL    HW2 3453   1.379   0.930   9.011
  971SOL     OW 3454   0.815   0.572   7.773
  971SOL    HW1 3455   0.822   0.483   7.727
  971SOL    HW2 3456   0.721   0.606   7.765
  972SOL     OW 3457   1.657   0.604   8.654
  972SOL    HW1 3458   1.619   0.535   8.716
  972SOL    HW2 3459   1.739   0.568   8.610
  973SOL     OW 3460   0.252   1.564   9.192
  973SOL    HW1 3461   0.222   1.621   9.268
  973SOL    HW2 3462   0.245   1.467   9.218
  974SOL     OW 3463   0.671   0.464   8.717
  974SOL    HW1 3464   0.637   0.375   8.687
  974SOL    HW2 3465   0.697   0.518   8.637
  975SOL     OW 3466   0.930   1.678   8.913
  975SOL    HW1 3467   0.906   1.660   8.818
  975SOL    HW2 3468   0.960   1.772   8.923
  976SOL     OW 3469   0.473   0.500   7.639
  976SOL    HW1 3470   0.534   0.580   7.643
  976SOL    HW2 3471   0.378   0.531   7.646
  977SOL     OW 3472   0.159   1.137   8.914
  977SOL    HW1 3473   0.181   1.076   8.990
  977SOL    HW2 3474   0.169   1.088   8.828
  978SOL     OW 3475   1.347   1.059   8.682
  978SOL    HW1 3476   1.371   0.996   8.608
  978SOL    HW2 3477   1.257   1.099   8.664
  979SOL     OW 3478   1.302   0.855   7.757
  979SOL    HW1 3479   1.216   0.824   7.799
  979SOL    HW2 3480   1.298   0.841   7.658
  980SOL     OW 3481   1.759   1.747   8.602
  980SOL    HW1 3482   1.820   1.777   8.529
  980SOL    HW2 3483   1.721   1.658   8.580
  981SOL     OW 3484   1.252   1.731   8.576
  981SOL    HW1 3485   1.336   1.736   8.522
  981SOL    HW2 3486   1.229   1.635   8.594
  982SOL     OW 3487   0.083   1.258   8.470
  982SOL    HW1 3488   0.078   1.257   8.570
  982SOL    HW2 3489   0.000   1.217   8.432
  983SOL     OW 3490   0.688   1.662   9.164
  983SOL    HW1 3491   0.632   1.743   9.173
  983SOL    HW2 3492   0.740   1.666   9.078
  984SOL     OW 3493   1.726   0.135   7.971
  984SOL    HW1 3494   1.799   0.118   7.904
  984SOL    HW2 3495   1.695   0.048   8.009
  985SOL     OW 3496   1.388   1.573   7.925
  985SOL    HW1 3497   1.455   1.585   7.851
  985SOL    HW2 3498   1.348   1.662   7.948
  986SOL     OW 3499   0.130   1.794   9.299
  986SOL    HW1 3500   0.089   1.720   9.352
  986SOL    HW2 3501   0.194   1.845   9.357
  987SOL     OW 3502   1.280   0.927   8.120
  987SOL    HW1 3503   1.340   0.846   8.122
  987SOL    HW2 3504   1.320   0.996   8.060
  988SOL     OW 3505   0.830   1.273   8.870
  988SOL    HW1 3506   0.825   1.306   8.965
  988SOL    HW2 3507   0.744   1.292   8.824
  989SOL     OW 3508   0.672   1.616   7.602
  989SOL    HW1 3509   0.681   1.626   7.503
  989SOL    HW2 3510   0.632   1.527   7.623
  990SOL     OW 3511   1.650   1.720   8.842
  990SOL    HW1 3512   1.703   1.730   8.758
  990SOL    HW2 3513   1.623   1.810   8.876
  991SOL     OW 3514   1.841   0.175   8.411
  991SOL    HW1 3515   1.880   0.090   8.375
  991SOL    HW2 3516   1.743   0.177   8.392
  992SOL     OW 3517   0.263   0.326   8.168
  992SOL    HW1 3518   0.184   0.377   8.134
  992SOL    HW2 3519   0.254   0.311   8.266
  993SOL     OW 3520   1.194   1.612   7.479
  993SOL    HW1 3521   1.200   1.519   7.516
  993SOL    HW2 3522   1.135   1.612   7.399
  994SOL     OW 3523   0.822   1.002   8.820
  994SOL    HW1 3524   0.862   1.001   8.728
  994SOL    HW2 3525   0.832   1.094   8.860
  995SOL     OW 3526   0.916   0.910   7.739
  995SOL    HW1 3527   0.979   0.948   7.671
  995SOL    HW2 3528   0.956   0.827   7.778
  996SOL     OW 3529   0.372   1.288   8.938
  996SOL    HW1 3530   0.359   1.381   8.904
  996SOL    HW2 3531   0.288   1.236   8.925
  997SOL     OW 3532   1.614   1.292   8.737
  997SOL    HW1 3533   1.674   1.295   8.817
  997SOL    HW2 3534   1.539   1.356   8.750
  998SOL     OW 3535   1.039   1.098   8.144
  998SOL    HW1 3536   0.969   1.051   8.198
  998SOL    HW2 3537   1.098   1.030   8.101
  999SOL     OW 3538   1.014   0.236   8.419
  999SOL    HW1 3539   1.006   0.200   8.326
  999SOL    HW2 3540   1.012   0.160   8.484
 1000SOL     OW 3541   0.590   1.487   7.939
 1000SOL    HW1 3542   0.632   1.429   7.869
 1000SOL    HW2 3543   0.546   1.566   7.895
 1001SOL     OW 3544   1.709   0.385   8.829
 1001SOL    HW1 3545   1.782   0.454   8.833
 1001SOL    HW2 3546   1.737   0.310   8.770
 1002SOL     OW 3547   0.255   1.348   7.738
 1002SOL    HW1 3548   0.159   1.349   7.711
 1002SOL    HW2 3549   0.267   1.401   7.822
 1003SOL     OW 3550   0.105   1.013   9.174
 1003SOL    HW1 3551   0.028   0.980   9.228
 1003SOL    HW2 3552   0.190   0.983   9.216
 1004SOL     OW 3553   0.672   0.203   8.937
 1004SOL    HW1 3554   0.762   0.187   8.897
 1004SOL    HW2 3555   0.680   0.208   9.036
 1005SOL     OW 3556   0.075   0.345   7.481
 1005SOL    HW1 3557  -0.017   0.317   7.452
 1005SOL    HW2 3558   0.106   0.422   7.425
 1006SOL     OW 3559   1.440   0.856   8.846
 1006SOL    HW1 3560   1.383   0.908   8.783
 1006SOL    HW2 3561   1.536   0.868   8.822
 1007SOL     OW 3562   0.072   0.166   7.766
 1007SOL    HW1 3563   0.055   0.249   7.712
 1007SOL    HW2 3564   0.162   0.129   7.744
 1008SOL     OW 3565   1.183   1.335   7.567
 1008SOL    HW1 3566   1.084   1.324   7.569
 1008SOL    HW2 3567   1.217   1.350   7.660
 1009SOL     OW 3568   0.613   0.842   8.879
 1009SOL    HW1 3569   0.669   0.923   8.862
 1009SOL    HW2 3570   0.672   0.762   8.882
 1010SOL     OW 3571   1.493   1.767   8.407
 1010SOL    HW1 3572   1.526   1.831   8.338
 1010SOL    HW2 3573   1.559   1.761   8.482
 1011SOL     OW 3574   0.716   0.565   9.156
 1011SOL    HW1 3575   0.735   0.630   9.230
 1011SOL    HW2 3576   0.776   0.485   9.165
 1012SOL     OW 3577   1.450   1.220   9.081
 1012SOL    HW1 3578   1.441   1.210   9.180
 1012SOL    HW2 3579   1.546   1.213   9.055
 1013SOL     OW 3580   0.390   1.741   9.008
 1013SOL    HW1 3581   0.299   1.782   9.006
 1013SOL    HW2 3582   0.383   1.647   9.040
 1014SOL     OW 3583   1.674   0.883   8.702
 1014SOL    HW1 3584   1.647   0.794   8.665
 1014SOL    HW2 3585   1.675   0.951   8.629
 1015SOL     OW 3586   1.225   0.325   7.897
 1015SOL    HW1 3587   1.290   0.251   7.886
 1015SOL    HW2 3588   1.245   0.375   7.981
 1016SOL     OW 3589   0.594   0.745   8.100
 1016SOL    HW1 3590   0.644   0.830   8.081
 1016SOL    HW2 3591   0.506   0.747   8.052
 1017SOL     OW 3592   1.777   0.342   9.090
 1017SOL    HW1 3593   1.760   0.373   8.996
 1017SOL    HW2 3594   1.693   0.305   9.128
 1018SOL     OW 3595   1.730   0.934   8.965
 1018SOL    HW1 3596   1.768   1.025   8.980
 1018SOL    HW2 3597   1.722   0.917   8.866
 1019SOL     OW 3598   0.859   1.374   7.464
 1019SOL    HW1 3599   0.813   1.389   7.552
 1019SOL    HW2 3600   0.903   1.459   7.434
 1020SOL     OW 3601   0.661   1.790   8.401
 1020SOL    HW1 3602   0.615   1.878   8.388
 1020SOL    HW2 3603   0.760   1.802   8.394
 1021SOL     OW 3604   0.859   0.956   8.309
 1021SOL    HW1 3605   0.913   0.887   8.357
 1021SOL    HW2 3606   0.827   1.025   8.375
 1022SOL     OW 3607   1.083   0.984   7.535
 1022SOL    HW1 3608   1.060   1.037   7.453
 1022SOL    HW2 3609   1.164   0.928   7.516
 1023SOL     OW 3610   1.861   1.569   8.299
 1023SOL    HW1 3611   1.790   1.557   8.229
 1023SOL    HW2 3612   1.862   1.490   8.359
 1024SOL     OW 3613   0.221   1.314   9.292
 1024SOL    HW1 3614   0.156   1.241   9.271
 1024SOL    HW2 3615   0.225   1.328   9.390
 1025SOL     OW 3616   0.079   1.240   8.101
 1025SOL    HW1 3617   0.078   1.193   8.189
 1025SOL    HW2 3618   0.161   1.212   8.050
 1026SOL     OW 3619   0.672   1.391   9.072
 1026SOL    HW1 3620   0.594   1.341   9.110
 1026SOL    HW2 3621   0.669   1.486   9.103
 1027SOL     OW 3622   1.824   0.192   8.675
 1027SOL    HW1 3623   1.820   0.102   8.719
 1027SOL    HW2 3624   1.827   0.181   8.576
 1028SOL     OW 3625   0.428   0.424   7.968
 1028SOL    HW1 3626   0.458   0.352   7.906
 1028SOL    HW2 3627   0.389   0.384   8.051
 1029SOL     OW 3628   1.705   1.487   8.552
 1029SOL    HW1 3629   1.612   1.462   8.525
 1029SOL    HW2 3630   1.731   1.437   8.634
 1030SOL     OW 3631   0.317   0.547   8.728
 1030SOL    HW1 3632   0.355   0.488   8.800
 1030SOL    HW2 3633   0.357   0.521   8.640
 1031SOL     OW 3634   0.812   1.586   8.135
 1031SOL    HW1 3635   0.844   1.596   8.041
 1031SOL    HW2 3636   0.733   1.524   8.137
 1032SOL     OW 3637   1.424   0.214   8.560
 1032SOL    HW1 3638   1.476   0.149   8.615
 1032SOL    HW2 3639   1.375   0.277   8.621
 1033SOL     OW 3640   1.001   0.034   8.602
 1033SOL    HW1 3641   0.938  -0.038   8.571
 1033SOL    HW2 3642   1.094  -0.002   8.602
 1034SOL     OW 3643   0.770   1.330   7.749
 1034SOL    HW1 3644   0.724   1.243   7.766
 1034SOL    HW2 3645   0.861   1.327   7.790
 1035SOL     OW 3646   0.618   1.567   8.732
 1035SOL    HW1 3647   0.613   1.649   8.789
 1035SOL    HW2 3648   0.707   1.564   8.687
 1036SOL     OW 3649   1.352   0.052   7.616
 1036SOL    HW1 3650   1.387   0.011   7.532
 1036SOL    HW2 3651   1.262   0.014   7.636
 1037SOL     OW 3652   1.300   0.453   8.139
 1037SOL    HW1 3653   1.241   0.533   8.143
 1037SOL    HW2 3654   1.315   0.418   8.232
 1038SOL     OW 3655   1.593   0.221   8.330
 1038SOL    HW1 3656   1.509   0.220   8.384
 1038SOL    HW2 3657   1.595   0.304   8.274
 1039SOL     OW 3658   0.039   1.077   7.748
 1039SOL    HW1 3659   0.138   1.066   7.739
 1039SOL    HW2 3660  -0.001   0.991   7.780
 1040SOL     OW 3661   0.875   1.646   7.785
 1040SOL    HW1 3662   0.798   1.611   7.731
 1040SOL    HW2 3663   0.843   1.717   7.847
 1041SOL     OW 3664   0.230   0.628   9.423
 1041SOL    HW1 3665   0.137   0.626   9.460
 1041SOL    HW2 3666   0.231   0.589   9.331
 1042SOL     OW 3667   0.225   0.275  10.306
 1042SOL    HW1 3668   0.260   0.258  10.398
 1042SOL    HW2 3669   0.137   0.230  10.294
 1043SOL     OW 3670   0.019   0.368   9.957
 1043SOL    HW1 3671  -0.063   0.411   9.996
 1043SOL    HW2 3672  -0.009   0.295   9.894
 1044SOL     OW 3673   0.569   1.275  10.475
 1044SOL    HW1 3674   0.476   1.268  10.438
 1044SOL    HW2 3675   0.580   1.364  10.519
 1045SOL     OW 3676   1.555   1.511  10.013
 1045SOL    HW1 3677   1.498   1.495  10.094
 1045SOL    HW2 3678   1.496   1.521   9.933
 1046SOL     OW 3679   1.135   0.703  10.027
 1046SOL    HW1 3680   1.192   0.781  10.002
 1046SOL    HW2 3681   1.075   0.729  10.103
 1047SOL     OW 3682   1.755   0.607   9.541
 1047SOL    HW1 3683   1.743   0.594   9.442
 1047SOL    HW2 3684   1.725   0.526   9.590
 1048SOL     OW 3685   0.768   1.144  10.333
 1048SOL    HW1 3686   0.690   1.161  10.393
 1048SOL    HW2 3687   0.802   1.231  10.297
 1049SOL     OW 3688   0.850   0.798  11.133
 1049SOL    HW1 3689   0.846   0.874  11.198
 1049SOL    HW2 3690   0.872   0.834  11.042
 1050SOL     OW 3691   0.685   1.012   9.975
 1050SOL    HW1 3692   0.754   0.996  10.045
 1050SOL    HW2 3693   0.612   1.069  10.013
 1051SOL     OW 3694   0.686   1.161  11.113
 1051SOL    HW1 3695   0.746   1.240  11.127
 1051SOL    HW2 3696   0.600   1.192  11.072
 1052SOL     OW 3697   0.335   1.435  10.371
 1052SOL    HW1 3698   0.257   1.404  10.318
 1052SOL    HW2 3699   0.393   1.493  10.314
 1053SOL     OW 3700   1.460   1.505  10.649
 1053SOL    HW1 3701   1.484   1.599  10.675
 1053SOL    HW2 3702   1.444   1.451  10.731
 1054SOL     OW 3703   0.438   0.392  10.809
 1054SOL    HW1 3704   0.520   0.336  10.818
 1054SOL    HW2 3705   0.357   0.334  10.813
 1055SOL     OW 3706   1.603   0.447  10.047
 1055SOL    HW1 3707   1.529   0.493   9.997
 1055SOL    HW2 3708   1.654   0.515  10.100
 1056SOL     OW 3709   0.231   1.713   9.793
 1056SOL    HW1 3710   0.265   1.790   9.847
 1056SOL    HW2 3711   0.275   1.713   9.703
 1057SOL     OW 3712   1.127   1.341  11.000
 1057SOL    HW1 3713   1.174   1.341  11.088
 1057SOL    HW2 3714   1.079   1.254  10.989
 1058SOL     OW 3715   0.230   1.434   9.848
 1058SOL    HW1 3716   0.204   1.530   9.848
 1058SOL    HW2 3717   0.159   1.380   9.893
 1059SOL     OW 3718   0.240   1.091  10.196
 1059SOL    HW1 3719   0.254   1.007  10.248
 1059SOL    HW2 3720   0.185   1.155  10.251
 1060SOL     OW 3721   0.620   1.786  10.749
 1060SOL    HW1 3722   0.528   1.769  10.784
 1060SOL    HW2 3723   0.648   1.878  10.775
 1061SOL     OW 3724   0.606   0.964   9.433
 1061SOL    HW1 3725   0.613   1.048   9.379
 1061SOL    HW2 3726   0.652   0.977   9.521
 1062SOL     OW 3727   1.594   0.114  10.790
 1062SOL    HW1 3728   1.576   0.181  10.718
 1062SOL    HW2 3729   1.591   0.160  10.879
 1063SOL     OW 3730   0.122   0.643   9.873
 1063SOL    HW1 3731   0.077   0.555   9.890
 1063SOL    HW2 3732   0.121   0.697   9.957
 1064SOL     OW 3733   0.027   1.596   9.427
 1064SOL    HW1 3734   0.008   1.500   9.448
 1064SOL    HW2 3735  -0.006   1.654   9.502
 1065SOL     OW 3736   1.689   0.922   9.922
 1065SOL    HW1 3737   1.784   0.893   9.930
 1065SOL    HW2 3738   1.681   0.987   9.847
 1066SOL     OW 3739   1.641   1.108   9.742
 1066SOL    HW1 3740   1.727   1.110   9.690
 1066SOL    HW2 3741   1.655   1.155   9.830
 1067SOL     OW 3742   0.113   0.737  10.907
 1067SOL    HW1 3743   0.201   0.724  10.952
 1067SOL    HW2 3744   0.100   0.834  10.885
 1068SOL     OW 3745   0.613   1.365  10.036
 1068SOL    HW1 3746   0.564   1.278  10.045
 1068SOL    HW2 3747   0.590   1.408   9.949
 1069SOL     OW 3748   1.293   1.228  10.733
 1069SOL    HW1 3749   1.330   1.155  10.675
 1069SOL    HW2 3750   1.345   1.233  10.818
 1070SOL     OW 3751   0.809   0.004   9.812
 1070SOL    HW1 3752   0.849   0.095   9.803
 1070SOL    HW2 3753   0.709   0.012   9.818
 1071SOL     OW 3754   0.197   0.976  10.574
 1071SOL    HW1 3755   0.286   0.931  10.560
 1071SOL    HW2 3756   0.124   0.911  10.555
 1072SOL     OW 3757   1.525   0.999   9.500
 1072SOL    HW1 3758   1.462   0.923   9.513
 1072SOL    HW2 3759   1.573   1.017   9.586
 1073SOL     OW 3760   1.187   1.792  10.926
 1073SOL    HW1 3761   1.211   1.852  10.850
 1073SOL    HW2 3762   1.194   1.697  10.896
 1074SOL     OW 3763   0.317   0.251  11.111
 1074SOL    HW1 3764   0.388   0.322  11.117
 1074SOL    HW2 3765   0.229   0.290  11.139
 1075SOL     OW 3766   1.466   1.417  10.263
 1075SOL    HW1 3767   1.407   1.423  10.343
 1075SOL    HW2 3768   1.451   1.329  10.217
 1076SOL     OW 3769   1.667   1.714   9.882
 1076SOL    HW1 3770   1.626   1.691   9.794
 1076SOL    HW2 3771   1.649   1.640   9.947
 1077SOL     OW 3772   0.598   0.729   9.580
 1077SOL    HW1 3773   0.622   0.798   9.512
 1077SOL    HW2 3774   0.520   0.762   9.634
 1078SOL     OW 3775   1.281   0.345  10.254
 1078SOL    HW1 3776   1.195   0.295  10.241
 1078SOL    HW2 3777   1.343   0.291  10.310
 1079SOL     OW 3778   1.576   1.662   9.617
 1079SOL    HW1 3779   1.665   1.708   9.620
 1079SOL    HW2 3780   1.555   1.638   9.522
 1080SOL     OW 3781   0.807   0.605  10.775
 1080SOL    HW1 3782   0.760   0.602  10.864
 1080SOL    HW2 3783   0.756   0.550  10.709
 1081SOL     OW 3784   1.394   0.469  10.984
 1081SOL    HW1 3785   1.374   0.512  11.072
 1081SOL    HW2 3786   1.472   0.407  10.993
 1082SOL     OW 3787   0.973   0.890  10.882
 1082SOL    HW1 3788   1.019   0.806  10.853
 1082SOL    HW2 3789   0.917   0.924  10.807
 1083SOL     OW 3790   0.991   0.410  10.552
 1083SOL    HW1 3791   0.914   0.444  10.606
 1083SOL    HW2 3792   0.957   0.359  10.473
 1084SOL     OW 3793   1.041   0.701   9.739
 1084SOL    HW1 3794   1.067   0.697   9.835
 1084SOL    HW2 3795   0.956   0.650   9.725
 1085SOL     OW 3796   0.076   0.811  10.099
 1085SOL    HW1 3797   0.175   0.799  10.108
 1085SOL    HW2 3798   0.052   0.906  10.120
 1086SOL     OW 3799   0.130   1.821  10.881
 1086SOL    HW1 3800   0.120   1.806  10.980
 1086SOL    HW2 3801   0.044   1.857  10.845
 1087SOL     OW 3802   0.865   0.348   9.505
 1087SOL    HW1 3803   0.924   0.411   9.456
 1087SOL    HW2 3804   0.884   0.254   9.476
 1088SOL     OW 3805   1.719   0.585  11.141
 1088SOL    HW1 3806   1.693   0.674  11.105
 1088SOL    HW2 3807   1.717   0.517  11.068
 1089SOL     OW 3808   1.362   1.144   9.855
 1089SOL    HW1 3809   1.445   1.115   9.807
 1089SOL    HW2 3810   1.313   1.211   9.799
 1090SOL     OW 3811   0.550   0.196  10.195
 1090SOL    HW1 3812   0.545   0.191  10.295
 1090SOL    HW2 3813   0.552   0.292  10.166
 1091SOL     OW 3814   1.008   1.456   9.787
 1091SOL    HW1 3815   0.962   1.528   9.735
 1091SOL    HW2 3816   1.004   1.476   9.885
 1092SOL     OW 3817   0.351   1.801  10.163
 1092SOL    HW1 3818   0.401   1.715  10.169
 1092SOL    HW2 3819   0.416   1.878  10.160
 1093SOL     OW 3820   1.795   1.066  10.183
 1093SOL    HW1 3821   1.733   1.051  10.107
 1093SOL    HW2 3822   1.743   1.077  10.268
 1094SOL     OW 3823   1.227   1.550  10.816
 1094SOL    HW1 3824   1.233   1.473  10.880
 1094SOL    HW2 3825   1.175   1.524  10.736
 1095SOL     OW 3826   0.321   0.943   9.552
 1095SOL    HW1 3827   0.403   0.982   9.510
 1095SOL    HW2 3828   0.294   0.861   9.503
 1096SOL     OW 3829   1.458   0.735  10.038
 1096SOL    HW1 3830   1.453   0.670  10.113
 1096SOL    HW2 3831   1.538   0.794  10.051
 1097SOL     OW 3832   0.461   1.266  11.037
 1097SOL    HW1 3833   0.411   1.267  10.951
 1097SOL    HW2 3834   0.398   1.248  11.113
 1098SOL     OW 3835   1.111   1.776   9.547
 1098SOL    HW1 3836   1.051   1.714   9.597
 1098SOL    HW2 3837   1.142   1.732   9.462
 1099SOL     OW 3838   0.202   0.285  10.808
 1099SOL    HW1 3839   0.122   0.345  10.795
 1099SOL    HW2 3840   0.192   0.236  10.894
 1100SOL     OW 3841   1.632   1.377   9.391
 1100SOL    HW1 3842   1.600   1.471   9.381
 1100SOL    HW2 3843   1.556   1.314   9.379
 1101SOL     OW 3844   0.464   1.743   9.633
 1101SOL    HW1 3845   0.497   1.782   9.719
 1101SOL    HW2 3846   0.540   1.736   9.568
 1102SOL     OW 3847   1.400   0.107   9.736
 1102SOL    HW1 3848   1.376   0.070   9.646
 1102SOL    HW2 3849   1.499   0.123   9.740
 1103SOL     OW 3850   0.249   1.785  10.551
 1103SOL    HW1 3851   0.306   1.720  10.601
 1103SOL    HW2 3852   0.233   1.752  10.458
 1104SOL     OW 3853   0.940   1.698  10.214
 1104SOL    HW1 3854   1.020   1.641  10.235
 1104SOL    HW2 3855   0.891   1.658  10.137
 1105SOL     OW 3856   0.382   0.700   9.790
 1105SOL    HW1 3857   0.427   0.610   9.787
 1105SOL    HW2 3858   0.288   0.689   9.823
 1106SOL     OW 3859   1.547   0.222  11.039
 1106SOL    HW1 3860   1.542   0.259  11.131
 1106SOL    HW2 3861   1.475   0.153  11.027
 1107SOL     OW 3862   0.614   0.122   9.427
 1107SOL    HW1 3863   0.712   0.100   9.434
 1107SOL    HW2 3864   0.583   0.105   9.334
 1108SOL     OW 3865   0.781   0.264  11.059
 1108SOL    HW1 3866   0.848   0.203  11.102
 1108SOL    HW2 3867   0.708   0.283  11.124
 1109SOL     OW 3868   0.888   1.514  10.505
 1109SOL    HW1 3869   0.865   1.489  10.411
 1109SOL    HW2 3870   0.949   1.445  10.544
 1110SOL     OW 3871   1.351   0.590  10.743
 1110SOL    HW1 3872   1.379   0.547  10.828
 1110SOL    HW2 3873   1.376   0.686  10.744
 1111SOL     OW 3874   0.803   1.402  10.234
 1111SOL    HW1 3875   0.893   1.416  10.192
 1111SOL    HW2 3876   0.732   1.404  10.163
 1112SOL     OW 3877   0.922   0.503  10.209
 1112SOL    HW1 3878   0.897   0.494  10.113
 1112SOL    HW2 3879   0.970   0.421  10.240
 1113SOL     OW 3880   0.539   0.064   9.822
 1113SOL    HW1 3881   0.458   0.065   9.880
 1113SOL    HW2 3882   0.542   0.147   9.767
 1114SOL     OW 3883   1.434   1.188   9.351
 1114SOL    HW1 3884   1.466   1.112   9.408
 1114SOL    HW2 3885   1.342   1.215   9.381
 1115SOL     OW 3886   0.297   0.035   9.481
 1115SOL    HW1 3887   0.346   0.119   9.460
 1115SOL    HW2 3888   0.359  -0.030   9.526
 1116SOL     OW 3889   0.935   0.236   9.790
 1116SOL    HW1 3890   0.887   0.277   9.712
 1116SOL    HW2 3891   1.034   0.234   9.771
 1117SOL     OW 3892   1.076   0.683  10.774
 1117SOL    HW1 3893   0.996   0.622  10.777
 1117SOL    HW2 3894   1.157   0.630  10.750
 1118SOL     OW 3895   1.227   1.570  10.103
 1118SOL    HW1 3896   1.248   1.644  10.038
 1118SOL    HW2 3897   1.295   1.570  10.176
 1119SOL     OW 3898   0.459   1.152  10.051
 1119SOL    HW1 3899   0.388   1.125  10.116
 1119SOL    HW2 3900   0.433   1.124   9.958
 1120SOL     OW 3901   1.271   1.797   9.901
 1120SOL    HW1 3902   1.315   1.861   9.837
 1120SOL    HW2 3903   1.221   1.849   9.971
 1121SOL     OW 3904   1.032   0.549   9.326
 1121SOL    HW1 3905   0.991   0.631   9.287
 1121SOL    HW2 3906   1.096   0.575   9.399
 1122SOL     OW 3907   0.078   0.556  10.696
 1122SOL    HW1 3908   0.170   0.555  10.655
 1122SOL    HW2 3909   0.072   0.630  10.763
 1123SOL     OW 3910   0.561   0.222  10.457
 1123SOL    HW1 3911   0.599   0.138  10.494
 1123SOL    HW2 3912   0.473   0.241  10.501
 1124SOL     OW 3913   0.866   0.454   9.952
 1124SOL    HW1 3914   0.834   0.526   9.890
 1124SOL    HW2 3915   0.890   0.373   9.899
 1125SOL     OW 3916   1.017   0.039  10.063
 1125SOL    HW1 3917   0.945   0.044   9.994
 1125SOL    HW2 3918   0.993  -0.030  10.132
 1126SOL     OW 3919   1.429   1.173  10.177
 1126SOL    HW1 3920   1.374   1.089  10.170
 1126SOL    HW2 3921   1.455   1.202  10.085
 1127SOL     OW 3922   1.466   0.590  10.302
 1127SOL    HW1 3923   1.436   0.495  10.309
 1127SOL    HW2 3924   1.539   0.606  10.368
 1128SOL     OW 3925   1.857   0.833   9.687
 1128SOL    HW1 3926   1.899   0.769   9.751
 1128SOL    HW2 3927   1.819   0.782   9.609
 1129SOL     OW 3928   0.488   1.385   9.484
 1129SOL    HW1 3929   0.401   1.370   9.531
 1129SOL    HW2 3930   0.471   1.411   9.389
 1130SOL     OW 3931   1.664   1.280   9.967
 1130SOL    HW1 3932   1.763   1.288   9.981
 1130SOL    HW2 3933   1.619   1.364   9.998
 1131SOL     OW 3934   1.390   0.575   9.388
 1131SOL    HW1 3935   1.336   0.554   9.469
 1131SOL    HW2 3936   1.481   0.534   9.397
 1132SOL     OW 3937   0.527   0.256   9.638
 1132SOL    HW1 3938   0.554   0.197   9.563
 1132SOL    HW2 3939   0.527   0.351   9.607
 1133SOL     OW 3940   1.754   1.223  10.898
 1133SOL    HW1 3941   1.845   1.184  10.885
 1133SOL    HW2 3942   1.762   1.319  10.922
 1134SOL     OW 3943   1.064   1.347  10.650
 1134SOL    HW1 3944   0.984   1.324  10.705
 1134SOL    HW2 3945   1.147   1.321  10.699
 1135SOL     OW 3946   1.592   1.629  10.935
 1135SOL    HW1 3947   1.619   1.663  10.845
 1135SOL    HW2 3948   1.671   1.591  10.981
 1136SOL     OW 3949   1.111   1.195  10.410
 1136SOL    HW1 3950   1.071   1.239  10.491
 1136SOL    HW2 3951   1.070   1.232  10.327
 1137SOL     OW 3952   1.638   1.099  10.389
 1137SOL    HW1 3953   1.643   1.180  10.448
 1137SOL    HW2 3954   1.552   1.101  10.338
 1138SOL     OW 3955   0.915   0.089  10.712
 1138SOL    HW1 3956   0.940   0.069  10.617
 1138SOL    HW2 3957   0.987   0.145  10.754
 1139SOL     OW 3958   0.980   1.116  11.029
 1139SOL    HW1 3959   0.881   1.122  11.039
 1139SOL    HW2 3960   1.003   1.036  10.973
 1140SOL     OW 3961   0.705   1.050   9.678
 1140SOL    HW1 3962   0.691   1.057   9.777
 1140SOL    HW2 3963   0.789   0.999   9.660
 1141SOL     OW 3964   0.410   0.813  10.561
 1141SOL    HW1 3965   0.496   0.825  10.611
 1141SOL    HW2 3966   0.368   0.726  10.588
 1142SOL     OW 3967   1.274   0.386  10.572
 1142SOL    HW1 3968   1.295   0.460  10.636
 1142SOL    HW2 3969   1.185   0.403  10.529
 1143SOL     OW 3970   0.064   1.564  10.641
 1143SOL    HW1 3971   0.018   1.646  10.607
 1143SOL    HW2 3972   0.162   1.583  10.650
 1144SOL     OW 3973   0.367   1.100   9.811
 1144SOL    HW1 3974   0.360   1.183   9.755
 1144SOL    HW2 3975   0.371   1.020   9.751
 1145SOL     OW 3976   0.566   0.537  10.175
 1145SOL    HW1 3977   0.578   0.603  10.101
 1145SOL    HW2 3978   0.612   0.571  10.258
 1146SOL     OW 3979   1.252   1.348   9.698
 1146SOL    HW1 3980   1.302   1.425   9.738
 1146SOL    HW2 3981   1.157   1.350   9.730
 1147SOL     OW 3982   1.272   1.445  10.452
 1147SOL    HW1 3983   1.319   1.458  10.539
 1147SOL    HW2 3984   1.206   1.371  10.461
 1148SOL     OW 3985   1.582   0.639   9.782
 1148SOL    HW1 3986   1.551   0.700   9.855
 1148SOL    HW2 3987   1.632   0.691   9.713
 1149SOL     OW 3988   0.354   1.510  10.639
 1149SOL    HW1 3989   0.333   1.466  10.552
 1149SOL    HW2 3990   0.451   1.536  10.642
 1150SOL     OW 3991   0.402   0.751  10.908
 1150SOL    HW1 3992   0.470   0.806  10.861
 1150SOL    HW2 3993   0.442   0.663  10.935
 1151SOL     OW 3994   1.587   0.779  10.980
 1151SOL    HW1 3995   1.495   0.817  10.975
 1151SOL    HW2 3996   1.647   0.826  10.915
 1152SOL     OW 3997   1.013   0.105  11.080
 1152SOL    HW1 3998   1.019   0.190  11.028
 1152SOL    HW2 3999   1.045   0.029  11.023
 1153SOL     OW 4000   0.504   0.050  11.050
 1153SOL    HW1 4001   0.462  -0.007  10.980
 1153SOL    HW2 4002   0.438   0.119  11.082
 1154SOL     OW 4003   0.573   0.870  10.339
 1154SOL    HW1 4004   0.617   0.959  10.330
 1154SOL    HW2 4005   0.510   0.870  10.416
 1155SOL     OW 4006   1.360   0.862  10.355
 1155SOL    HW1 4007   1.285   0.862  10.289
 1155SOL    HW2 4008   1.397   0.770  10.364
 1156SOL     OW 4009   1.209   0.525   9.585
 1156SOL    HW1 4010   1.222   0.441   9.639
 1156SOL    HW2 4011   1.180   0.599   9.645
 1157SOL     OW 4012   0.307   0.213  10.541
 1157SOL    HW1 4013   0.284   0.250  10.631
 1157SOL    HW2 4014   0.277   0.118  10.535
 1158SOL     OW 4015   0.037   1.310  10.592
 1158SOL    HW1 4016   0.090   1.261  10.660
 1158SOL    HW2 4017   0.059   1.408  10.597
 1159SOL     OW 4018   0.732   0.634  10.374
 1159SOL    HW1 4019   0.791   0.608  10.298
 1159SOL    HW2 4020   0.704   0.730  10.363
 1160SOL     OW 4021   1.728   0.935  11.164
 1160SOL    HW1 4022   1.682   0.928  11.075
 1160SOL    HW2 4023   1.666   0.979  11.230
 1161SOL     OW 4024   0.307   0.063   9.928
 1161SOL    HW1 4025   0.296   0.157   9.961
 1161SOL    HW2 4026   0.302   0.000  10.005
 1162SOL     OW 4027   1.622   0.367   9.684
 1162SOL    HW1 4028   1.624   0.291   9.748
 1162SOL    HW2 4029   1.574   0.444   9.724
 1163SOL     OW 4030   1.023   0.766  10.276
 1163SOL    HW1 4031   1.038   0.787  10.372
 1163SOL    HW2 4032   0.993   0.671  10.267
 1164SOL     OW 4033   0.980   1.573  11.010
 1164SOL    HW1 4034   0.960   1.617  10.922
 1164SOL    HW2 4035   1.019   1.482  10.994
 1165SOL     OW 4036   1.859   1.518  10.915
 1165SOL    HW1 4037   1.873   1.545  10.820
 1165SOL    HW2 4038   1.942   1.540  10.968
 1166SOL     OW 4039   0.350   0.898  11.114
 1166SOL    HW1 4040   0.426   0.942  11.162
 1166SOL    HW2 4041   0.385   0.851  11.032
 1167SOL     OW 4042   1.540   0.274   9.435
 1167SOL    HW1 4043   1.479   0.199   9.458
 1167SOL    HW2 4044   1.562   0.326   9.518
 1168SOL     OW 4045   1.303   0.838   9.352
 1168SOL    HW1 4046   1.337   0.745   9.367
 1168SOL    HW2 4047   1.321   0.865   9.257
 1169SOL     OW 4048   1.068   1.333  10.159
 1169SOL    HW1 4049   1.075   1.249  10.104
 1169SOL    HW2 4050   1.130   1.402  10.123
 1170SOL     OW 4051   0.319   0.810  10.259
 1170SOL    HW1 4052   0.412   0.846  10.264
 1170SOL    HW2 4053   0.313   0.725  10.311
 1171SOL     OW 4054   0.339   0.509  10.316
 1171SOL    HW1 4055   0.287   0.426  10.299
 1171SOL    HW2 4056   0.416   0.514  10.252
 1172SOL     OW 4057   1.138   0.380  10.988
 1172SOL    HW1 4058   1.093   0.443  11.052
 1172SOL    HW2 4059   1.231   0.411  10.971
 1173SOL     OW 4060   1.160   0.207  10.787
 1173SOL    HW1 4061   1.160   0.271  10.864
 1173SOL    HW2 4062   1.188   0.255  10.704
 1174SOL     OW 4063   0.008   1.326   9.510
 1174SOL    HW1 4064  -0.085   1.347   9.479
 1174SOL    HW2 4065   0.018   1.227   9.523
 1175SOL     OW 4066   0.088   1.801  10.237
 1175SOL    HW1 4067   0.046   1.715  10.210
 1175SOL    HW2 4068   0.182   1.804  10.203
 1176SOL     OW 4069   0.504   1.568  10.220
 1176SOL    HW1 4070   0.570   1.642  10.229
 1176SOL    HW2 4071   0.548   1.489  10.178
 1177SOL     OW 4072   1.002   0.796  10.548
 1177SOL    HW1 4073   1.043   0.764  10.634
 1177SOL    HW2 4074   0.906   0.769  10.545
 1178SOL     OW 4075   0.040   0.544  10.424
 1178SOL    HW1 4076   0.125   0.511  10.383
 1178SOL    HW2 4077   0.053   0.559  10.522
 1179SOL     OW 4078   0.189   0.520  11.032
 1179SOL    HW1 4079   0.248   0.480  10.962
 1179SOL    HW2 4080   0.131   0.591  10.991
 1180SOL     OW 4081   1.369   0.950  10.970
 1180SOL    HW1 4082   1.408   1.039  10.990
 1180SOL    HW2 4083   1.379   0.930  10.873
 1181SOL     OW 4084   0.815   0.572   9.635
 1181SOL    HW1 4085   0.822   0.483   9.589
 1181SOL    HW2 4086   0.721   0.606   9.627
 1182SOL     OW 4087   1.657   0.604  10.516
 1182SOL    HW1 4088   1.619   0.535  10.578
 1182SOL    HW2 4089   1.739   0.568  10.472
 1183SOL     OW 4090   0.252   1.564  11.054
 1183SOL    HW1 4091   0.222   1.621  11.130
 1183SOL    HW2 4092   0.245   1.467  11.080
 1184SOL     OW 4093   0.671   0.464  10.579
 1184SOL    HW1 4094   0.637   0.375  10.549
 1184SOL    HW2 4095   0.697   0.518  10.499
 1185SOL     OW 4096   0.930   1.678  10.775
 1185SOL    HW1 4097   0.906   1.660  10.680
 1185SOL    HW2 4098   0.960   1.772  10.785
 1186SOL     OW 4099   0.473   0.500   9.501
 1186SOL    HW1 4100   0.534   0.580   9.505
 1186SOL    HW2 4101   0.378   0.531   9.508
 1187SOL     OW 4102   0.159   1.137  10.776
 1187SOL    HW1 4103   0.181   1.076  10.852
 1187SOL    HW2 4104   0.169   1.088  10.690
 1188SOL     OW 4105   1.347   1.059  10.544
 1188SOL    HW1 4106   1.371   0.996  10.470
 1188SOL    HW2 4107   1.257   1.099  10.526
 1189SOL     OW 4108   1.302   0.855   9.619
 1189SOL    HW1 4109   1.216   0.824   9.661
 1189SOL    HW2 4110   1.298   0.841   9.520
 1190SOL     OW 4111   1.759   1.747  10.464
 1190SOL    HW1 4112   1.820   1.777  10.391
 1190SOL    HW2 4113   1.721   1.658  10.442
 1191SOL     OW 4114   1.252   1.731  10.438
 1191SOL    HW1 4115   1.336   1.736  10.384
 1191SOL    HW2 4116   1.229   1.635  10.456
 1192SOL     OW 4117   0.083   1.258  10.332
 1192SOL    HW1 4118   0.078   1.257  10.432
 1192SOL    HW2 4119   0.000   1.217  10.294
 1193SOL     OW 4120   0.688   1.662  11.026
 1193SOL    HW1 4121   0.632   1.743  11.035
 1193SOL    HW2 4122   0.740   1.666  10.940
 1194SOL     OW 4123   1.726   0.135   9.833
 1194SOL    HW1 4124   1.799   0.118   9.766
 1194SOL    HW2 4125   1.695   0.048   9.871
 1195SOL     OW 4126   1.388   1.573   9.787
 1195SOL    HW1 4127   1.455   1.585   9.713
 1195SOL    HW2 4128   1.348   1.662   9.810
 1196SOL     OW 4129   0.130   1.794  11.161
 1196SOL    HW1 4130   0.089   1.720  11.214
 1196SOL    HW2 4131   0.194   1.845  11.219
 1197SOL     OW 4132   1.280   0.927   9.982
 1197SOL    HW1 4133   1.340   0.846   9.984
 1197SOL    HW2 4134   1.320   0.996   9.922
 1198SOL     OW 4135   0.830   1.273  10.732
 1198SOL    HW1 4136   0.825   1.306  10.827
 1198SOL    HW2 4137   0.744   1.292  10.686
 1199SOL     OW 4138   0.672   1.616   9.464
 1199SOL    HW1 4139   0.681   1.626   9.365
 1199SOL    HW2 4140   0.632   1.527   9.485
 1200SOL     OW 4141   1.650   1.720  10.704
 1200SOL    HW1 4142   1.703   1.730  10.620
 1200SOL    HW2 4143   1.623   1.810  10.738
 1201SOL     OW 4144   1.841   0.175  10.273
 1201SOL    HW1 4145   1.880   0.090  10.237
 1201SOL    HW2 4146   1.743   0.177  10.254
 1202SOL     OW 4147   0.263   0.326  10.030
 1202SOL    HW1 4148   0.184   0.377   9.996
 1202SOL    HW2 4149   0.254   0.311  10.128
 1203SOL     OW 4150   1.194   1.612   9.341
 1203SOL    HW1 4151   1.200   1.519   9.378
 1203SOL    HW2 4152   1.135   1.612   9.261
 1204SOL     OW 4153   0.822   1.002  10.682
 1204SOL    HW1 4154   0.862   1.001  10.590
 1204SOL    HW2 4155   0.832   1.094  10.722
 1205SOL     OW 4156   0.916   0.910   9.601
 1205SOL    HW1 4157   0.979   0.948   9.533
 1205SOL    HW2 4158   0.956   0.827   9.640
 1206SOL     OW 4159   1.504   1.607   9.354
 1206SOL    HW1 4160   1.412   1.644   9.361
 1206SOL    HW2 4161   1.542   1.627   9.264
 1207SOL     OW 4162   0.372   1.288  10.800
 1207SOL    HW1 4163   0.359   1.381  10.766
 1207SOL    HW2 4164   0.288   1.236  10.787
 1208SOL     OW 4165   1.614   1.292  10.599
 1208SOL    HW1 4166   1.674   1.295  10.679
 1208SOL    HW2 4167   1.539   1.356  10.612
 1209SOL     OW 4168   1.039   1.098  10.006
 1209SOL    HW1 4169   0.969   1.051  10.060
 1209SOL    HW2 4170   1.098   1.030   9.963
 1210SOL     OW 4171   1.014   0.236  10.281
 1210SOL    HW1 4172   1.006   0.200  10.188
 1210SOL    HW2 4173   1.012   0.160  10.346
 1211SOL     OW 4174   0.590   1.487   9.801
 1211SOL    HW1 4175   0.632   1.429   9.731
 1211SOL    HW2 4176   0.546   1.566   9.757
 1212SOL     OW 4177   1.709   0.385  10.691
 1212SOL    HW1 4178   1.782   0.454  10.695
 1212SOL    HW2 4179   1.737   0.310  10.632
 1213SOL     OW 4180   0.255   1.348   9.600
 1213SOL    HW1 4181   0.159   1.349   9.573
 1213SOL    HW2 4182   0.267   1.401   9.684
 1214SOL     OW 4183   0.105   1.013  11.036
 1214SOL    HW1 4184   0.028   0.980  11.090
 1214SOL    HW2 4185   0.190   0.983  11.078
 1215SOL     OW 4186   0.672   0.203  10.799
 1215SOL    HW1 4187   0.762   0.187  10.759
 1215SOL    HW2 4188   0.680   0.208  10.898
 1216SOL     OW 4189   0.075   0.345   9.343
 1216SOL    HW1 4190  -0.017   0.317   9.314
 1216SOL    HW2 4191   0.106   0.422   9.287
 1217SOL     OW 4192   1.440   0.856  10.708
 1217SOL    HW1 4193   1.383   0.908  10.645
 1217SOL    HW2 4194   1.536   0.868  10.684
 1218SOL     OW 4195   0.072   0.166   9.628
 1218SOL    HW1 4196   0.055   0.249   9.574
 1218SOL    HW2 4197   0.162   0.129   9.606
 1219SOL     OW 4198   1.183   1.335   9.429
 1219SOL    HW1 4199   1.084   1.324   9.431
 1219SOL    HW2 4200   1.217   1.350   9.522
 1220SOL     OW 4201   0.613   0.842  10.741
 1220SOL    HW1 4202   0.669   0.923  10.724
 1220SOL    HW2 4203   0.672   0.762  10.744
 1221SOL     OW 4204   1.493   1.767  10.269
 1221SOL    HW1 4205   1.526   1.831  10.200
 1221SOL    HW2 4206   1.559   1.761  10.344
 1222SOL     OW 4207   0.716   0.565  11.018
 1222SOL    HW1 4208   0.735   0.630  11.092
 1222SOL    HW2 4209   0.776   0.485  11.027
 1223SOL     OW 4210   1.450   1.220  10.943
 1223SOL    HW1 4211   1.441   1.210  11.042
 1223SOL    HW2 4212   1.546   1.213  10.917
 1224SOL     OW 4213   0.390   1.741  10.870
 1224SOL    HW1 4214   0.299   1.782  10.868
 1224SOL    HW2 4215   0.383   1.647  10.902
 1225SOL     OW 4216   1.674   0.883  10.564
 1225SOL    HW1 4217   1.647   0.794  10.527
 1225SOL    HW2 4218   1.675   0.951  10.491
 1226SOL     OW 4219   1.225   0.325   9.759
 1226SOL    HW1 4220   1.290   0.251   9.748
 1226SOL    HW2 4221   1.245   0.375   9.843
 1227SOL     OW 4222   0.594   0.745   9.962
 1227SOL    HW1 4223   0.644   0.830   9.943
 1227SOL    HW2 4224   0.506   0.747   9.914
 1228SOL     OW 4225   1.777   0.342  10.952
 1228SOL    HW1 4226   1.760   0.373  10.858
 1228SOL    HW2 4227   1.693   0.305  10.990
 1229SOL     OW 4228   1.730   0.934  10.827
 1229SOL    HW1 4229   1.768   1.025  10.842
 1229SOL    HW2 4230   1.722   0.917  10.728
 1230SOL     OW 4231   0.859   1.374   9.326
 1230SOL    HW1 4232   0.813   1.389   9.414
 1230SOL    HW2 4233   0.903   1.459   9.296
 1231SOL     OW 4234   0.661   1.790  10.263
 1231SOL    HW1 4235   0.615   1.878  10.250
 1231SOL    HW2 4236   0.760   1.802  10.256
 1232SOL     OW 4237   0.859   0.956  10.171
 1232SOL    HW1 4238   0.913   0.887  10.219
 1232SOL    HW2 4239   0.827   1.025  10.237
 1233SOL     OW 4240   1.083   0.984   9.397
 1233SOL    HW1 4241   1.060   1.037   9.315
 1233SOL    HW2 4242   1.164   0.928   9.378
 1234SOL     OW 4243   1.861   1.569  10.161
 1234SOL    HW1 4244   1.790   1.557  10.091
 1234SOL    HW2 4245   1.862   1.490  10.221
 1235SOL     OW 4246   0.221   1.314  11.154
 1235SOL    HW1 4247   0.156   1.241  11.133
 1235SOL    HW2 4248   0.225   1.328  11.252
 1236SOL     OW 4249   0.079   1.240   9.963
 1236SOL    HW1 4250   0.078   1.193  10.051
 1236SOL    HW2 4251   0.161   1.212   9.912
 1237SOL     OW 4252   0.672   1.391  10.934
 1237SOL    HW1 4253   0.594   1.341  10.972
 1237SOL    HW2 4254   0.669   1.486  10.965
 1238SOL     OW 4255   1.824   0.192  10.537
 1238SOL    HW1 4256   1.820   0.102  10.581
 1238SOL    HW2 4257   1.827   0.181  10.438
 1239SOL     OW 4258   0.428   0.424   9.830
 1239SOL    HW1 4259   0.458   0.352   9.768
 1239SOL    HW2 4260   0.389   0.384   9.913
 1240SOL     OW 4261   1.705   1.487  10.414
 1240SOL    HW1 4262   1.612   1.462  10.387
 1240SOL    HW2 4263   1.731   1.437  10.496
 1241SOL     OW 4264   0.317   0.547  10.590
 1241SOL    HW1 4265   0.355   0.488  10.662
 1241SOL    HW2 4266   0.357   0.521  10.502
 1242SOL     OW 4267   0.812   1.586   9.997
 1242SOL    HW1 4268   0.844   1.596   9.903
 1242SOL    HW2 4269   0.733   1.524   9.999
 1243SOL     OW 4270   1.424   0.214  10.422
 1243SOL    HW1 4271   1.476   0.149  10.477
 1243SOL    HW2 4272   1.375   0.277  10.483
 1244SOL     OW 4273   1.001   0.034  10.464
 1244SOL    HW1 4274   0.938  -0.038  10.433
 1244SOL    HW2 4275   1.094  -0.002  10.464
 1245SOL     OW 4276   0.770   1.330   9.611
 1245SOL    HW1 4277   0.724   1.243   9.628
 1245SOL    HW2 4278   0.861   1.327   9.652
 1246SOL     OW 4279   0.618   1.567  10.594
 1246SOL    HW1 4280   0.613   1.649  10.651
 1246SOL    HW2 4281   0.707   1.564  10.549
 1247SOL     OW 4282   1.352   0.052   9.478
 1247SOL    HW1 4283   1.387   0.011   9.394
 1247SOL    HW2 4284   1.262   0.014   9.498
 1248SOL     OW 4285   1.300   0.453  10.001
 1248SOL    HW1 4286   1.241   0.533  10.005
 1248SOL    HW2 4287   1.315   0.418  10.094
 1249SOL     OW 4288   1.593   0.221  10.192
 1249SOL    HW1 4289   1.509   0.220  10.246
 1249SOL    HW2 4290   1.595   0.304  10.136
 1250SOL     OW 4291   0.039   1.077   9.610
 1250SOL    HW1 4292   0.138   1.066   9.601
 1250SOL    HW2 4293  -0.001   0.991   9.642
 1251SOL     OW 4294   0.875   1.646   9.647
 1251SOL    HW1 4295   0.798   1.611   9.593
 1251SOL    HW2 4296   0.843   1.717   9.709
 1252SOL     OW 4297   0.230   0.628  11.285
 1252SOL    HW1 4298   0.137   0.626  11.322
 1252SOL    HW2 4299   0.231   0.589  11.193
 1253SOL     OW 4300   0.225   0.275  12.168
 1253SOL    HW1 4301   0.260   0.258  12.260
 1253SOL    HW2 4302   0.137   0.230  12.156
 1254SOL     OW 4303   0.019   0.368  11.819
 1254SOL    HW1 4304  -0.063   0.411  11.858
 1254SOL    HW2 4305  -0.009   0.295  11.756
 1255SOL     OW 4306   0.569   1.275  12.337
 1255SOL    HW1 4307   0.476   1.268  12.300
 1255SOL    HW2 4308   0.580   1.364  12.381
 1256SOL     OW 4309   1.555   1.511  11.875
 1256SOL    HW1 4310   1.498   1.495  11.956
 1256SOL    HW2 4311   1.496   1.521  11.795
 1257SOL     OW 4312   1.135   0.703  11.889
 1257SOL    HW1 4313   1.192   0.781  11.864
 1257SOL    HW2 4314   1.075   0.729  11.965
 1258SOL     OW 4315   1.755   0.607  11.403
 1258SOL    HW1 4316   1.743   0.594  11.304
 1258SOL    HW2 4317   1.725   0.526  11.452
 1259SOL     OW 4318   0.768   1.144  12.195
 1259SOL    HW1 4319   0.690   1.161  12.255
 1259SOL    HW2 4320   0.802   1.231  12.159
 1260SOL     OW 4321   0.850   0.798  12.995
 1260SOL    HW1 4322   0.846   0.874  13.060
 1260SOL    HW2 4323   0.872   0.834  12.904
 1261SOL     OW 4324   0.685   1.012  11.837
 1261SOL    HW1 4325   0.754   0.996  11.907
 1261SOL    HW2 4326   0.612   1.069  11.875
 1262SOL     OW 4327   0.686   1.161  12.975
 1262SOL    HW1 4328   0.746   1.240  12.989
 1262SOL    HW2 4329   0.600   1.192  12.934
 1263SOL     OW 4330   0.335   1.435  12.233
 1263SOL    HW1 4331   0.257   1.404  12.180
 1263SOL    HW2 4332   0.393   1.493  12.176
 1264SOL     OW 4333   1.460   1.505  12.511
 1264SOL    HW1 4334   1.484   1.599  12.537
 1264SOL    HW2 4335   1.444   1.451  12.593
 1265SOL     OW 4336   0.438   0.392  12.671
 1265SOL    HW1 4337   0.520   0.336  12.680
 1265SOL    HW2 4338   0.357   0.334  12.675
 1266SOL     OW 4339   1.603   0.447  11.909
 1266SOL    HW1 4340   1.529   0.493  11.859
 1266SOL    HW2 4341   1.654   0.515  11.962
 1267SOL     OW 4342   0.231   1.713  11.655
 1267SOL    HW1 4343   0.265   1.790  11.709
 1267SOL    HW2 4344   0.275   1.713  11.565
 1268SOL     OW 4345   1.127   1.341  12.862
 1268SOL    HW1 4346   1.174   1.341  12.950
 1268SOL    HW2 4347   1.079   1.254  12.851
 1269SOL     OW 4348   0.230   1.434  11.710
 1269SOL    HW1 4349   0.204   1.530  11.710
 1269SOL    HW2 4350   0.159   1.380  11.755
 1270SOL     OW 4351   0.240   1.091  12.058
 1270SOL    HW1 4352   0.254   1.007  12.110
 1270SOL    HW2 4353   0.185   1.155  12.113
 1271SOL     OW 4354   0.620   1.786  12.611
 1271SOL    HW1 4355   0.528   1.769  12.646
 1271SOL    HW2 4356   0.648   1.878  12.637
 1272SOL     OW 4357   0.606   0.964  11.295
 1272SOL    HW1 4358   0.613   1.048  11.241
 1272SOL    HW2 4359   0.652   0.977  11.383
 1273SOL     OW 4360   1.594   0.114  12.652
 1273SOL    HW1 4361   1.576   0.181  12.580
 1273SOL    HW2 4362   1.591   0.160  12.741
 1274SOL     OW 4363   0.122   0.643  11.735
 1274SOL    HW1 4364   0.077   0.555  11.752
 1274SOL    HW2 4365   0.121   0.697  11.819
 1275SOL     OW 4366   0.027   1.596  11.289
 1275SOL    HW1 4367   0.008   1.500  11.310
 1275SOL    HW2 4368  -0.006   1.654  11.364
 1276SOL     OW 4369   1.689   0.922  11.784
 1276SOL    HW1 4370   1.784   0.893  11.792
 1276SOL    HW2 4371   1.681   0.987  11.709
 1277SOL     OW 4372   1.641   1.108  11.604
 1277SOL    HW1 4373   1.727   1.110  11.552
 1277SOL    HW2 4374   1.655   1.155  11.692
 1278SOL     OW 4375   0.113   0.737  12.769
 1278SOL    HW1 4376   0.201   0.724  12.814
 1278SOL    HW2 4377   0.100   0.834  12.747
 1279SOL     OW 4378   0.613   1.365  11.898
 1279SOL    HW1 4379   0.564   1.278  11.907
 1279SOL    HW2 4380   0.590   1.408  11.811
 1280SOL     OW 4381   1.293   1.228  12.595
 1280SOL    HW1 4382   1.330   1.155  12.537
 1280SOL    HW2 4383   1.345   1.233  12.680
 1281SOL     OW 4384   0.809   0.004  11.674
 1281SOL    HW1 4385   0.849   0.095  11.665
 1281SOL    HW2 4386   0.709   0.012  11.680
 1282SOL     OW 4387   0.197   0.976  12.436
 1282SOL    HW1 4388   0.286   0.931  12.422
 1282SOL    HW2 4389   0.124   0.911  12.417
 1283SOL     OW 4390   1.525   0.999  11.362
 1283SOL    HW1 4391   1.462   0.923  11.375
 1283SOL    HW2 4392   1.573   1.017  11.448
 1284SOL     OW 4393   1.187   1.792  12.788
 1284SOL    HW1 4394   1.211   1.852  12.712
 1284SOL    HW2 4395   1.194   1.697  12.758
 1285SOL     OW 4396   0.317   0.251  12.973
 1285SOL    HW1 4397   0.388   0.322  12.979
 1285SOL    HW2 4398   0.229   0.290  13.001
 1286SOL     OW 4399   1.466   1.417  12.125
 1286SOL    HW1 4400   1.407   1.423  12.205
 1286SOL    HW2 4401   1.451   1.329  12.079
 1287SOL     OW 4402   1.667   1.714  11.744
 1287SOL    HW1 4403   1.626   1.691  11.656
 1287SOL    HW2 4404   1.649   1.640  11.809
 1288SOL     OW 4405   0.598   0.729  11.442
 1288SOL    HW1 4406   0.622   0.798  11.374
 1288SOL    HW2 4407   0.520   0.762  11.496
 1289SOL     OW 4408   1.281   0.345  12.116
 1289SOL    HW1 4409   1.195   0.295  12.103
 1289SOL    HW2 4410   1.343   0.291  12.172
 1290SOL     OW 4411   1.576   1.662  11.479
 1290SOL    HW1 4412   1.665   1.708  11.482
 1290SOL    HW2 4413   1.555   1.638  11.384
 1291SOL     OW 4414   0.807   0.605  12.637
 1291SOL    HW1 4415   0.760   0.602  12.726
 1291SOL    HW2 4416   0.756   0.550  12.571
 1292SOL     OW 4417   1.394   0.469  12.846
 1292SOL    HW1 4418   1.374   0.512  12.934
 1292SOL    HW2 4419   1.472   0.407  12.855
 1293SOL     OW 4420   0.973   0.890  12.744
 1293SOL    HW1 4421   1.019   0.806  12.715
 1293SOL    HW2 4422   0.917   0.924  12.669
 1294SOL     OW 4423   0.991   0.410  12.414
 1294SOL    HW1 4424   0.914   0.444  12.468
 1294SOL    HW2 4425   0.957   0.359  12.335
 1295SOL     OW 4426   1.041   0.701  11.601
 1295SOL    HW1 4427   1.067   0.697  11.697
 1295SOL    HW2 4428   0.956   0.650  11.587
 1296SOL     OW 4429   0.076   0.811  11.961
 1296SOL    HW1 4430   0.175   0.799  11.970
 1296SOL    HW2 4431   0.052   0.906  11.982
 1297SOL     OW 4432   0.130   1.821  12.743
 1297SOL    HW1 4433   0.120   1.806  12.842
 1297SOL    HW2 4434   0.044   1.857  12.707
 1298SOL     OW 4435   0.865   0.348  11.367
 1298SOL    HW1 4436   0.924   0.411  11.318
 1298SOL    HW2 4437   0.884   0.254  11.338
 1299SOL     OW 4438   1.719   0.585  13.003
 1299SOL    HW1 4439   1.693   0.674  12.967
 1299SOL    HW2 4440   1.717   0.517  12.930
 1300SOL     OW 4441   1.362   1.144  11.717
 1300SOL    HW1 4442   1.445   1.115  11.669
 1300SOL    HW2 4443   1.313   1.211  11.661
 1301SOL     OW 4444   0.550   0.196  12.057
 1301SOL    HW1 4445   0.545   0.191  12.157
 1301SOL    HW2 4446   0.552   0.292  12.028
 1302SOL     OW 4447   1.008   1.456  11.649
 1302SOL    HW1 4448   0.962   1.528  11.597
 1302SOL    HW2 4449   1.004   1.476  11.747
 1303SOL     OW 4450   0.351   1.801  12.025
 1303SOL    HW1 4451   0.401   1.715  12.031
 1303SOL    HW2 4452   0.416   1.878  12.022
 1304SOL     OW 4453   1.795   1.066  12.045
 1304SOL    HW1 4454   1.733   1.051  11.969
 1304SOL    HW2 4455   1.743   1.077  12.130
 1305SOL     OW 4456   1.227   1.550  12.678
 1305SOL    HW1 4457   1.233   1.473  12.742
 1305SOL    HW2 4458   1.175   1.524  12.598
 1306SOL     OW 4459   0.321   0.943  11.414
 1306SOL    HW1 4460   0.403   0.982  11.372
 1306SOL    HW2 4461   0.294   0.861  11.365
 1307SOL     OW 4462   1.458   0.735  11.900
 1307SOL    HW1 4463   1.453   0.670  11.975
 1307SOL    HW2 4464   1.538   0.794  11.913
 1308SOL     OW 4465   0.461   1.266  12.899
 1308SOL    HW1 4466   0.411   1.267  12.813
 1308SOL    HW2 4467   0.398   1.248  12.975
 1309SOL     OW 4468   1.111   1.776  11.409
 1309SOL    HW1 4469   1.051   1.714  11.459
 1309SOL    HW2 4470   1.142   1.732  11.324
 1310SOL     OW 4471   0.202   0.285  12.670
 1310SOL    HW1 4472   0.122   0.345  12.657
 1310SOL    HW2 4473   0.192   0.236  12.756
 1311SOL     OW 4474   1.632   1.377  11.253
 1311SOL    HW1 4475   1.600   1.471  11.243
 1311SOL    HW2 4476   1.556   1.314  11.241
 1312SOL     OW 4477   0.464   1.743  11.495
 1312SOL    HW1 4478   0.497   1.782  11.581
 1312SOL    HW2 4479   0.540   1.736  11.430
 1313SOL     OW 4480   1.400   0.107  11.598
 1313SOL    HW1 4481   1.376   0.070  11.508
 1313SOL    HW2 4482   1.499   0.123  11.602
 1314SOL     OW 4483   0.249   1.785  12.413
 1314SOL    HW1 4484   0.306   1.720  12.463
 1314SOL    HW2 4485   0.233   1.752  12.320
 1315SOL     OW 4486   0.940   1.698  12.076
 1315SOL    HW1 4487   1.020   1.641  12.097
 1315SOL    HW2 4488   0.891   1.658  11.999
 1316SOL     OW 4489   0.382   0.700  11.652
 1316SOL    HW1 4490   0.427   0.610  11.649
 1316SOL    HW2 4491   0.288   0.689  11.685
 1317SOL     OW 4492   1.547   0.222  12.901
 1317SOL    HW1 4493   1.542   0.259  12.993
 1317SOL    HW2 4494   1.475   0.153  12.889
 1318SOL     OW 4495   0.614   0.122  11.289
 1318SOL    HW1 4496   0.712   0.100  11.296
 1318SOL    HW2 4497   0.583   0.105  11.196
 1319SOL     OW 4498   0.781   0.264  12.921
 1319SOL    HW1 4499   0.848   0.203  12.964
 1319SOL    HW2 4500   0.708   0.283  12.986
 1320SOL     OW 4501   0.888   1.514  12.367
 1320SOL    HW1 4502   0.865   1.489  12.273
 1320SOL    HW2 4503   0.949   1.445  12.406
 1321SOL     OW 4504   1.351   0.590  12.605
 1321SOL    HW1 4505   1.379   0.547  12.690
 1321SOL    HW2 4506   1.376   0.686  12.606
 1322SOL     OW 4507   0.803   1.402  12.096
 1322SOL    HW1 4508   0.893   1.416  12.054
 1322SOL    HW2 4509   0.732   1.404  12.025
 1323SOL     OW 4510   0.922   0.503  12.071
 1323SOL    HW1 4511   0.897   0.494  11.975
 1323SOL    HW2 4512   0.970   0.421  12.102
 1324SOL     OW 4513   0.539   0.064  11.684
 1324SOL    HW1 4514   0.458   0.065  11.742
 1324SOL    HW2 4515   0.542   0.147  11.629
 1325SOL     OW 4516   1.434   1.188  11.213
 1325SOL    HW1 4517   1.466   1.112  11.270
 1325SOL    HW2 4518   1.342   1.215  11.243
 1326SOL     OW 4519   0.297   0.035  11.343
 1326SOL    HW1 4520   0.346   0.119  11.322
 1326SOL    HW2 4521   0.359  -0.030  11.388
 1327SOL     OW 4522   0.935   0.236  11.652
 1327SOL    HW1 4523   0.887   0.277  11.574
 1327SOL    HW2 4524   1.034   0.234  11.633
 1328SOL     OW 4525   1.076   0.683  12.636
 1328SOL    HW1 4526   0.996   0.622  12.639
 1328SOL    HW2 4527   1.157   0.630  12.612
 1329SOL     OW 4528   1.227   1.570  11.965
 1329SOL    HW1 4529   1.248   1.644  11.900
 1329SOL    HW2 4530   1.295   1.570  12.038
 1330SOL     OW 4531   0.459   1.152  11.913
 1330SOL    HW1 4532   0.388   1.125  11.978
 1330SOL    HW2 4533   0.433   1.124  11.820
 1331SOL     OW 4534   1.271   1.797  11.763
 1331SOL    HW1 4535   1.315   1.861  11.699
 1331SOL    HW2 4536   1.221   1.849  11.833
 1332SOL     OW 4537   1.032   0.549  11.188
 1332SOL    HW1 4538   0.991   0.631  11.149
 1332SOL    HW2 4539   1.096   0.575  11.261
 1333SOL     OW 4540   0.078   0.556  12.558
 1333SOL    HW1 4541   0.170   0.555  12.517
 1333SOL    HW2 4542   0.072   0.630  12.625
 1334SOL     OW 4543   0.561   0.222  12.319
 1334SOL    HW1 4544   0.599   0.138  12.356
 1334SOL    HW2 4545   0.473   0.241  12.363
 1335SOL     OW 4546   0.866   0.454  11.814
 1335SOL    HW1 4547   0.834   0.526  11.752
 1335SOL    HW2 4548   0.890   0.373  11.761
 1336SOL     OW 4549   1.017   0.039  11.925
 1336SOL    HW1 4550   0.945   0.044  11.856
 1336SOL    HW2 4551   0.993  -0.030  11.994
 1337SOL     OW 4552   1.429   1.173  12.039
 1337SOL    HW1 4553   1.374   1.089  12.032
 1337SOL    HW2 4554   1.455   1.202  11.947
 1338SOL     OW 4555   1.466   0.590  12.164
 1338SOL    HW1 4556   1.436   0.495  12.171
 1338SOL    HW2 4557   1.539   0.606  12.230
 1339SOL     OW 4558   1.857   0.833  11.549
 1339SOL    HW1 4559   1.899   0.769  11.613
 1339SOL    HW2 4560   1.819   0.782  11.471
 1340SOL     OW 4561   0.488   1.385  11.346
 1340SOL    HW1 4562   0.401   1.370  11.393
 1340SOL    HW2 4563   0.471   1.411  11.251
 1341SOL     OW 4564   1.664   1.280  11.829
 1341SOL    HW1 4565   1.763   1.288  11.843
 1341SOL    HW2 4566   1.619   1.364  11.860
 1342SOL     OW 4567   1.390   0.575  11.250
 1342SOL    HW1 4568   1.336   0.554  11.331
 1342SOL    HW2 4569   1.481   0.534  11.259
 1343SOL     OW 4570   0.527   0.256  11.500
 1343SOL    HW1 4571   0.554   0.197  11.425
 1343SOL    HW2 4572   0.527   0.351  11.469
 1344SOL     OW 4573   1.754   1.223  12.760
 1344SOL    HW1 4574   1.845   1.184  12.747
 1344SOL    HW2 4575   1.762   1.319  12.784
 1345SOL     OW 4576   1.064   1.347  12.512
 1345SOL    HW1 4577   0.984   1.324  12.567
 1345SOL    HW2 4578   1.147   1.321  12.561
 1346SOL     OW 4579   1.592   1.629  12.797
 1346SOL    HW1 4580   1.619   1.663  12.707
 1346SOL    HW2 4581   1.671   1.591  12.843
 1347SOL     OW 4582   1.111   1.195  12.272
 1347SOL    HW1 4583   1.071   1.239  12.353
 1347SOL    HW2 4584   1.070   1.232  12.189
 1348SOL     OW 4585   1.638   1.099  12.251
 1348SOL    HW1 4586   1.643   1.180  12.310
 1348SOL    HW2 4587   1.552   1.101  12.200
 1349SOL     OW 4588   0.915   0.089  12.574
 1349SOL    HW1 4589   0.940   0.069  12.479
 1349SOL    HW2 4590   0.987   0.145  12.616
 1350SOL     OW 4591   0.980   1.116  12.891
 1350SOL    HW1 4592   0.881   1.122  12.901
 1350SOL    HW2 4593   1.003   1.036  12.835
 1351SOL     OW 4594   0.705   1.050  11.540
 1351SOL    HW1 4595   0.691   1.057  11.639
 1351SOL    HW2 4596   0.789   0.999  11.522
 1352SOL     OW 4597   0.410   0.813  12.423
 1352SOL    HW1 4598   0.496   0.825  12.473
 1352SOL    HW2 4599   0.368   0.726  12.450
 1353SOL     OW 4600   1.274   0.386  12.434
 1353SOL    HW1 4601   1.295   0.460  12.498
 1353SOL    HW2 4602   1.185   0.403  12.391
 1354SOL     OW 4603   0.064   1.564  12.503
 1354SOL    HW1 4604   0.018   1.646  12.469
 1354SOL    HW2 4605   0.162   1.583  12.512
 1355SOL     OW 4606   0.367   1.100  11.673
 1355SOL    HW1 4607   0.360   1.183  11.617
 1355SOL    HW2 4608   0.371   1.020  11.613
 1356SOL     OW 4609   0.566   0.537  12.037
 1356SOL    HW1 4610   0.578   0.603  11.963
 1356SOL    HW2 4611   0.612   0.571  12.120
 1357SOL     OW 4612   1.252   1.348  11.560
 1357SOL    HW1 4613   1.302   1.425  11.600
 1357SOL    HW2 4614   1.157   1.350  11.592
 1358SOL     OW 4615   1.272   1.445  12.314
 1358SOL    HW1 4616   1.319   1.458  12.401
 1358SOL    HW2 4617   1.206   1.371  12.323
 1359SOL     OW 4618   1.582   0.639  11.644
 1359SOL    HW1 4619   1.551   0.700  11.717
 1359SOL    HW2 4620   1.632   0.691  11.575
 1360SOL     OW 4621   0.354   1.510  12.501
 1360SOL    HW1 4622   0.333   1.466  12.414
 1360SOL    HW2 4623   0.451   1.536  12.504
 1361SOL     OW 4624   0.402   0.751  12.770
 1361SOL    HW1 4625   0.470   0.806  12.723
 1361SOL    HW2 4626   0.442   0.663  12.797
 1362SOL     OW 4627   1.587   0.779  12.842
 1362SOL    HW1 4628   1.495   0.817  12.837
 1362SOL    HW2 4629   1.647   0.826  12.777
 1363SOL     OW 4630   1.013   0.105  12.942
 1363SOL    HW1 4631   1.019   0.190  12.890
 1363SOL    HW2 4632   1.045   0.029  12.885
 1364SOL     OW 4633   0.504   0.050  12.912
 1364SOL    HW1 4634   0.462  -0.007  12.842
 1364SOL    HW2 4635   0.438   0.119  12.944
 1365SOL     OW 4636   0.573   0.870  12.201
 1365SOL    HW1 4637   0.617   0.959  12.192
 1365SOL    HW2 4638   0.510   0.870  12.278
 1366SOL     OW 4639   1.360   0.862  12.217
 1366SOL    HW1 4640   1.285   0.862  12.151
 1366SOL    HW2 4641   1.397   0.770  12.226
 1367SOL     OW 4642   1.209   0.525  11.447
 1367SOL    HW1 4643   1.222   0.441  11.501
 1367SOL    HW2 4644   1.180   0.599  11.507
 1368SOL     OW 4645   0.307   0.213  12.403
 1368SOL    HW1 4646   0.284   0.250  12.493
 1368SOL    HW2 4647   0.277   0.118  12.397
 1369SOL     OW 4648   0.037   1.310  12.454
 1369SOL    HW1 4649   0.090   1.261  12.522
 1369SOL    HW2 4650   0.059   1.408  12.459
 1370SOL     OW 4651   0.732   0.634  12.236
 1370SOL    HW1 4652   0.791   0.608  12.160
 1370SOL    HW2 4653   0.704   0.730  12.225
 1371SOL     OW 4654   1.728   0.935  13.026
 1371SOL    HW1 4655   1.682   0.928  12.937
 1371SOL    HW2 4656   1.666   0.979  13.092
 1372SOL     OW 4657   0.307   0.063  11.790
 1372SOL    HW1 4658   0.296   0.157  11.823
 1372SOL    HW2 4659   0.302   0.000  11.867
 1373SOL     OW 4660   1.622   0.367  11.546
 1373SOL    HW1 4661   1.624   0.291  11.610
 1373SOL    HW2 4662   1.574   0.444  11.586
 1374SOL     OW 4663   1.023   0.766  12.138
 1374SOL    HW1 4664   1.038   0.787  12.234
 1374SOL    HW2 4665   0.993   0.671  12.129
 1375SOL     OW 4666   0.980   1.573  12.872
 1375SOL    HW1 4667   0.960   1.617  12.784
 1375SOL    HW2 4668   1.019   1.482  12.856
 1376SOL     OW 4669   1.859   1.518  12.777
 1376SOL    HW1 4670   1.873   1.545  12.682
 1376SOL    HW2 4671   1.942   1.540  12.830
 1377SOL     OW 4672   0.350   0.898  12.976
 1377SOL    HW1 4673   0.426   0.942  13.024
 1377SOL    HW2 4674   0.385   0.851  12.894
 1378SOL     OW 4675   1.540   0.274  11.297
 1378SOL    HW1 4676   1.479   0.199  11.320
 1378SOL    HW2 4677   1.562   0.326  11.380
 1379SOL     OW 4678   1.303   0.838  11.214
 1379SOL    HW1 4679   1.337   0.745  11.229
 1379SOL    HW2 4680   1.321   0.865  11.119
 1380SOL     OW 4681   1.068   1.333  12.021
 1380SOL    HW1 4682   1.075   1.249  11.966
 1380SOL    HW2 4683   1.130   1.402  11.985
 1381SOL     OW 4684   0.319   0.810  12.121
 1381SOL    HW1 4685   0.412   0.846  12.126
 1381SOL    HW2 4686   0.313   0.725  12.173
 1382SOL     OW 4687   0.339   0.509  12.178
 1382SOL    HW1 4688   0.287   0.426  12.161
 1382SOL    HW2 4689   0.416   0.514  12.114
 1383SOL     OW 4690   1.138   0.380  12.850
 1383SOL    HW1 4691   1.093   0.443  12.914
 1383SOL    HW2 4692   1.231   0.411  12.833
 1384SOL     OW 4693   1.160   0.207  12.649
 1384SOL    HW1 4694   1.160   0.271  12.726
 1384SOL    HW2 4695   1.188   0.255  12.566
 1385SOL     OW 4696   0.008   1.326  11.372
 1385SOL    HW1 4697  -0.085   1.347  11.341
 1385SOL    HW2 4698   0.018   1.227  11.385
 1386SOL     OW 4699   0.088   1.801  12.099
 1386SOL    HW1 4700   0.046   1.715  12.072
 1386SOL    HW2 4701   0.182   1.804  12.065
 1387SOL     OW 4702   0.504   1.568  12.082
 1387SOL    HW1 4703   0.570   1.642  12.091
 1387SOL    HW2 4704   0.548   1.489  12.040
 1388SOL     OW 4705   1.002   0.796  12.410
 1388SOL    HW1 4706   1.043   0.764  12.496
 1388SOL    HW2 4707   0.906   0.769  12.407
 1389SOL     OW 4708   0.040   0.544  12.286
 1389SOL    HW1 4709   0.125   0.511  12.245
 1389SOL    HW2 4710   0.053   0.559  12.384
 1390SOL     OW 4711   0.189   0.520  12.894
 1390SOL    HW1 4712   0.248   0.480  12.824
 1390SOL    HW2 4713   0.131   0.591  12.853
 1391SOL     OW 4714   1.369   0.950  12.832
 1391SOL    HW1 4715   1.408   1.039  12.852
 1391SOL    HW2 4716   1.379   0.930  12.735
 1392SOL     OW 4717   0.815   0.572  11.497
 1392SOL    HW1 4718   0.822   0.483  11.451
 1392SOL    HW2 4719   0.721   0.606  11.489
 1393SOL     OW 4720   1.657   0.604  12.378
 1393SOL    HW1 4721   1.619   0.535  12.440
 1393SOL    HW2 4722   1.739   0.568  12.334
 1394SOL     OW 4723   0.252   1.564  12.916
 1394SOL    HW1 4724   0.222   1.621  12.992
 1394SOL    HW2 4725   0.245   1.467  12.942
 1395SOL     OW 4726   0.671   0.464  12.441
 1395SOL    HW1 4727   0.637   0.375  12.411
 1395SOL    HW2 4728   0.697   0.518  12.361
 1396SOL     OW 4729   0.930   1.678  12.637
 1396SOL    HW1 4730   0.906   1.660  12.542
 1396SOL    HW2 4731   0.960   1.772  12.647
 1397SOL     OW 4732   0.473   0.500  11.363
 1397SOL    HW1 4733   0.534   0.580  11.367
 1397SOL    HW2 4734   0.378   0.531  11.370
 1398SOL     OW 4735   0.159   1.137  12.638
 1398SOL    HW1 4736   0.181   1.076  12.714
 1398SOL    HW2 4737   0.169   1.088  12.552
 1399SOL     OW 4738   1.347   1.059  12.406
 1399SOL    HW1 4739   1.371   0.996  12.332
 1399SOL    HW2 4740   1.257   1.099  12.388
 1400SOL     OW 4741   1.302   0.855  11.481
 1400SOL    HW1 4742   1.216   0.824  11.523
 1400SOL    HW2 4743   1.298   0.841  11.382
 1401SOL     OW 4744   1.759   1.747  12.326
 1401SOL    HW1 4745   1.820   1.777  12.253
 1401SOL    HW2 4746   1.721   1.658  12.304
 1402SOL     OW 4747   1.252   1.731  12.300
 1402SOL    HW1 4748   1.336   1.736  12.246
 1402SOL    HW2 4749   1.229   1.635  12.318
 1403SOL     OW 4750   0.083   1.258  12.194
 1403SOL    HW1 4751   0.078   1.257  12.294
 1403SOL    HW2 4752   0.000   1.217  12.156
 1404SOL     OW 4753   0.688   1.662  12.888
 1404SOL    HW1 4754   0.632   1.743  12.897
 1404SOL    HW2 4755   0.740   1.666  12.802
 1405SOL     OW 4756   1.726   0.135  11.695
 1405SOL    HW1 4757   1.799   0.118  11.628
 1405SOL    HW2 4758   1.695   0.048  11.733
 1406SOL     OW 4759   1.388   1.573  11.649
 1406SOL    HW1 4760   1.455   1.585  11.575
 1406SOL    HW2 4761   1.348   1.662  11.672
 1407SOL     OW 4762   0.130   1.794  13.023
 1407SOL    HW1 4763   0.089   1.720  13.076
 1407SOL    HW2 4764   0.194   1.845  13.081
 1408SOL     OW 4765   1.280   0.927  11.844
 1408SOL    HW1 4766   1.340   0.846  11.846
 1408SOL    HW2 4767   1.320   0.996  11.784
 1409SOL     OW 4768   0.830   1.273  12.594
 1409SOL    HW1 4769   0.825   1.306  12.689
 1409SOL    HW2 4770   0.744   1.292  12.548
 1410SOL     OW 4771   0.672   1.616  11.326
 1410SOL    HW1 4772   0.681   1.626  11.227
 1410SOL    HW2 4773   0.632   1.527  11.347
 1411SOL     OW 4774   1.650   1.720  12.566
 1411SOL    HW1 4775   1.703   1.730  12.482
 1411SOL    HW2 4776   1.623   1.810  12.600
 1412SOL     OW 4777   1.841   0.175  12.135
 1412SOL    HW1 4778   1.880   0.090  12.099
 1412SOL    HW2 4779   1.743   0.177  12.116
 1413SOL     OW 4780   0.263   0.326  11.892
 1413SOL    HW1 4781   0.184   0.377  11.858
 1413SOL    HW2 4782   0.254   0.311  11.990
 1414SOL     OW 4783   1.194   1.612  11.203
 1414SOL    HW1 4784   1.200   1.519  11.240
 1414SOL    HW2 4785   1.135   1.612  11.123
 1415SOL     OW 4786   0.822   1.002  12.544
 1415SOL    HW1 4787   0.862   1.001  12.452
 1415SOL    HW2 4788   0.832   1.094  12.584
 1416SOL     OW 4789   0.916   0.910  11.463
 1416SOL    HW1 4790   0.979   0.948  11.395
 1416SOL    HW2 4791   0.956   0.827  11.502
 1417SOL     OW 4792   1.504   1.607  11.216
 1417SOL    HW1 4793   1.412   1.644  11.223
 1417SOL    HW2 4794   1.542   1.627  11.126
 1418SOL     OW 4795   0.372   1.288  12.662
 1418SOL    HW1 4796   0.359   1.381  12.628
 1418SOL    HW2 4797   0.288   1.236  12.649
 1419SOL     OW 4798   1.614   1.292  12.461
 1419SOL    HW1 4799   1.674   1.295  12.541
 1419SOL    HW2 4800   1.539   1.356  12.474
 1420SOL     OW 4801   1.039   1.098  11.868
 1420SOL    HW1 4802   0.969   1.051  11.922
 1420SOL    HW2 4803   1.098   1.030  11.825
 1421SOL     OW 4804   1.014   0.236  12.143
 1421SOL    HW1 4805   1.006   0.200  12.050
 1421SOL    HW2 4806   1.012   0.160  12.208
 1422SOL     OW 4807   0.590   1.487  11.663
 1422SOL    HW1 4808   0.632   1.429  11.593
 1422SOL    HW2 4809   0.546   1.566  11.619
 1423SOL     OW 4810   1.709   0.385  12.553
 1423SOL    HW1 4811   1.782   0.454  12.557
 1423SOL    HW2 4812   1.737   0.310  12.494
 1424SOL     OW 4813   0.255   1.348  11.462
 1424SOL    HW1 4814   0.159   1.349  11.435
 1424SOL    HW2 4815   0.267   1.401  11.546
 1425SOL     OW 4816   0.105   1.013  12.898
 1425SOL    HW1 4817   0.028   0.980  12.952
 1425SOL    HW2 4818   0.190   0.983  12.940
 1426SOL     OW 4819   0.672   0.203  12.661
 1426SOL    HW1 4820   0.762   0.187  12.621
 1426SOL    HW2 4821   0.680   0.208  12.760
 1427SOL     OW 4822   0.075   0.345  11.205
 1427SOL    HW1 4823  -0.017   0.317  11.176
 1427SOL    HW2 4824   0.106   0.422  11.149
 1428SOL     OW 4825   1.440   0.856  12.570
 1428SOL    HW1 4826   1.383   0.908  12.507
 1428SOL    HW2 4827   1.536   0.868  12.546
 1429SOL     OW 4828   0.072   0.166  11.490
 1429SOL    HW1 4829   0.055   0.249  11.436
 1429SOL    HW2 4830   0.162   0.129  11.468
 1430SOL     OW 4831   1.183   1.335  11.291
 1430SOL    HW1 4832   1.084   1.324  11.293
 1430SOL    HW2 4833   1.217   1.350  11.384
 1431SOL     OW 4834   0.613   0.842  12.603
 1431SOL    HW1 4835   0.669   0.923  12.586
 1431SOL    HW2 4836   0.672   0.762  12.606
 1432SOL     OW 4837   1.493   1.767  12.131
 1432SOL    HW1 4838   1.526   1.831  12.062
 1432SOL    HW2 4839   1.559   1.761  12.206
 1433SOL     OW 4840   0.716   0.565  12.880
 1433SOL    HW1 4841   0.735   0.630  12.954
 1433SOL    HW2 4842   0.776   0.485  12.889
 1434SOL     OW 4843   1.450   1.220  12.805
 1434SOL    HW1 4844   1.441   1.210  12.904
 1434SOL    HW2 4845   1.546   1.213  12.779
 1435SOL     OW 4846   0.390   1.741  12.732
 1435SOL    HW1 4847   0.299   1.782  12.730
 1435SOL    HW2 4848   0.383   1.647  12.764
 1436SOL     OW 4849   1.674   0.883  12.426
 1436SOL    HW1 4850   1.647   0.794  12.389
 1436SOL    HW2 4851   1.675   0.951  12.353
 1437SOL     OW 4852   1.225   0.325  11.621
 1437SOL    HW1 4853   1.290   0.251  11.610
 1437SOL    HW2 4854   1.245   0.375  11.705
 1438SOL     OW 4855   0.594   0.745  11.824
 1438SOL    HW1 4856   0.644   0.830  11.805
 1438SOL    HW2 4857   0.506   0.747  11.776
 1439SOL     OW 4858   1.777   0.342  12.814
 1439SOL    HW1 4859   1.760   0.373  12.720
 1439SOL    HW2 4860   1.693   0.305  12.852
 1440SOL     OW 4861   1.730   0.934  12.689
 1440SOL    HW1 4862   1.768   1.025  12.704
 1440SOL    HW2 4863   1.722   0.917  12.590
 1441SOL     OW 4864   0.859   1.374  11.188
 1441SOL    HW1 4865   0.813   1.389  11.276
 1441SOL    HW2 4866   0.903   1.459  11.158
 1442SOL     OW 4867   0.661   1.790  12.125
 1442SOL    HW1 4868   0.615   1.878  12.112
 1442SOL    HW2 4869   0.760   1.802  12.118
 1443SOL     OW 4870   0.859   0.956  12.033
 1443SOL    HW1 4871   0.913   0.887  12.081
 1443SOL    HW2 4872   0.827   1.025  12.099
 1444SOL     OW 4873   1.083   0.984  11.259
 1444SOL    HW1 4874   1.060   1.037  11.177
 1444SOL    HW2 4875   1.164   0.928  11.240
 1445SOL     OW 4876   1.861   1.569  12.023
 1445SOL    HW1 4877   1.790   1.557  11.953
 1445SOL    HW2 4878   1.862   1.490  12.083
 1446SOL     OW 4879   0.221   1.314  13.016
 1446SOL    HW1 4880   0.156   1.241  12.995
 1446SOL    HW2 4881   0.225   1.328  13.114
 1447SOL     OW 4882   0.079   1.240  11.825
 1447SOL    HW1 4883   0.078   1.193  11.913
 1447SOL    HW2 4884   0.161   1.212  11.774
 1448SOL     OW 4885   0.672   1.391  12.796
 1448SOL    HW1 4886   0.594   1.341  12.834
 1448SOL    HW2 4887   0.669   1.486  12.827
 1449SOL     OW 4888   1.824   0.192  12.399
 1449SOL    HW1 4889   1.820   0.102  12.443
 1449SOL    HW2 4890   1.827   0.181  12.300
 1450SOL     OW 4891   0.428   0.424  11.692
 1450SOL    HW1 4892   0.458   0.352  11.630
 1450SOL    HW2 4893   0.389   0.384  11.775
 1451SOL     OW 4894   1.705   1.487  12.276
 1451SOL    HW1 4895   1.612   1.462  12.249
 1451SOL    HW2 4896   1.731   1.437  12.358
 1452SOL     OW 4897   0.317   0.547  12.452
 1452SOL    HW1 4898   0.355   0.488  12.524
 1452SOL    HW2 4899   0.357   0.521  12.364
 1453SOL     OW 4900   0.812   1.586  11.859
 1453SOL    HW1 4901   0.844   1.596  11.765
 1453SOL    HW2 4902   0.733   1.524  11.861
 1454SOL     OW 4903   1.424   0.214  12.284
 1454SOL    HW1 4904   1.476   0.149  12.339
 1454SOL    HW2 4905   1.375   0.277  12.345
 1455SOL     OW 4906   1.001   0.034  12.326
 1455SOL    HW1 4907   0.938  -0.038  12.295
 1455SOL    HW2 4908   1.094  -0.002  12.326
 1456SOL     OW 4909   0.770   1.330  11.473
 1456SOL    HW1 4910   0.724   1.243  11.490
 1456SOL    HW2 4911   0.861   1.327  11.514
 1457SOL     OW 4912   0.618   1.567  12.456
 1457SOL    HW1 4913   0.613   1.649  12.513
 1457SOL    HW2 4914   0.707   1.564  12.411
 1458SOL     OW 4915   1.352   0.052  11.340
 1458SOL    HW1 4916   1.387   0.011  11.256
 1458SOL    HW2 4917   1.262   0.014  11.360
 1459SOL     OW 4918   1.300   0.453  11.863
 1459SOL    HW1 4919   1.241   0.533  11.867
 1459SOL    HW2 4920   1.315   0.418  11.956
 1460SOL     OW 4921   1.593   0.221  12.054
 1460SOL    HW1 4922   1.509   0.220  12.108
 1460SOL    HW2 4923   1.595   0.304  11.998
 1461SOL     OW 4924   0.039   1.077  11.472
 1461SOL    HW1 4925   0.138   1.066  11.463
 1461SOL    HW2 4926  -0.001   0.991  11.504
 1462SOL     OW 4927   0.875   1.646  11.509
 1462SOL    HW1 4928   0.798   1.611  11.455
 1462SOL    HW2 4929   0.843   1.717  11.571
 1463SOL     OW 4930   0.230   0.628  13.147
 1463SOL    HW1 4931   0.137   0.626  13.184
 1463SOL    HW2 4932   0.231   0.589  13.055
 1464SOL     OW 4933   0.225   0.275  14.030
 1464SOL    HW1 4934   0.260   0.258  14.122
 1464SOL    HW2 4935   0.137   0.230  14.018
 1465SOL     OW 4936   0.019   0.368  13.681
 1465SOL    HW1 4937  -0.063   0.411  13.720
 1465SOL    HW2 4938  -0.009   0.295  13.618
 1466SOL     OW 4939   1.555   1.511  13.737
 1466SOL    HW1 4940   1.498   1.495  13.818
 1466SOL    HW2 4941   1.496   1.521  13.657
 1467SOL     OW 4942   1.135   0.703  13.751
 1467SOL    HW1 4943   1.192   0.781  13.726
 1467SOL    HW2 4944   1.075   0.729  13.827
 1468SOL     OW 4945   1.755   0.607  13.265
 1468SOL    HW1 4946   1.743   0.594  13.166
 1468SOL    HW2 4947   1.725   0.526  13.314
 1469SOL     OW 4948   0.685   1.012  13.699
 1469SOL    HW1 4949   0.754   0.996  13.769
 1469SOL    HW2 4950   0.612   1.069  13.737
 1470SOL     OW 4951   1.603   0.447  13.771
 1470SOL    HW1 4952   1.529   0.493  13.721
 1470SOL    HW2 4953   1.654   0.515  13.824
 1471SOL     OW 4954   0.231   1.713  13.517
 1471SOL    HW1 4955   0.265   1.790  13.571
 1471SOL    HW2 4956   0.275   1.713  13.427
 1472SOL     OW 4957   0.230   1.434  13.572
 1472SOL    HW1 4958   0.204   1.530  13.572
 1472SOL    HW2 4959   0.159   1.380  13.617
 1473SOL     OW 4960   0.240   1.091  13.920
 1473SOL    HW1 4961   0.254   1.007  13.972
 1473SOL    HW2 4962   0.185   1.155  13.975
 1474SOL     OW 4963   0.606   0.964  13.157
 1474SOL    HW1 4964   0.613   1.048  13.103
 1474SOL    HW2 4965   0.652   0.977  13.245
 1475SOL     OW 4966   0.122   0.643  13.597
 1475SOL    HW1 4967   0.077   0.555  13.614
 1475SOL    HW2 4968   0.121   0.697  13.681
 1476SOL     OW 4969   0.027   1.596  13.151
 1476SOL    HW1 4970   0.008   1.500  13.172
 1476SOL    HW2 4971  -0.006   1.654  13.226
 1477SOL     OW 4972   1.689   0.922  13.646
 1477SOL    HW1 4973   1.784   0.893  13.654
 1477SOL    HW2 4974   1.681   0.987  13.571
 1478SOL     OW 4975   1.641   1.108  13.466
 1478SOL    HW1 4976   1.727   1.110  13.414
 1478SOL    HW2 4977   1.655   1.155  13.554
 1479SOL     OW 4978   0.613   1.365  13.760
 1479SOL    HW1 4979   0.564   1.278  13.769
 1479SOL    HW2 4980   0.590   1.408  13.673
 1480SOL     OW 4981   0.809   0.004  13.536
 1480SOL    HW1 4982   0.849   0.095  13.527
 1480SOL    HW2 4983   0.709   0.012  13.542
 1481SOL     OW 4984   1.525   0.999  13.224
 1481SOL    HW1 4985   1.462   0.923  13.237
 1481SOL    HW2 4986   1.573   1.017  13.310
 1482SOL     OW 4987   1.667   1.714  13.606
 1482SOL    HW1 4988   1.626   1.691  13.518
 1482SOL    HW2 4989   1.649   1.640  13.671
 1483SOL     OW 4990   0.598   0.729  13.304
 1483SOL    HW1 4991   0.622   0.798  13.236
 1483SOL    HW2 4992   0.520   0.762  13.358
 1484SOL     OW 4993   1.281   0.345  13.978
 1484SOL    HW1 4994   1.195   0.295  13.965
 1484SOL    HW2 4995   1.343   0.291  14.034
 1485SOL     OW 4996   1.576   1.662  13.341
 1485SOL    HW1 4997   1.665   1.708  13.344
 1485SOL    HW2 4998   1.555   1.638  13.246
 1486SOL     OW 4999   1.041   0.701  13.463
 1486SOL    HW1 5000   1.067   0.697  13.559
 1486SOL    HW2 5001   0.956   0.650  13.449
 1487SOL     OW 5002   0.076   0.811  13.823
 1487SOL    HW1 5003   0.175   0.799  13.832
 1487SOL    HW2 5004   0.052   0.906  13.844
 1488SOL     OW 5005   0.865   0.348  13.229
 1488SOL    HW1 5006   0.924   0.411  13.180
 1488SOL    HW2 5007   0.884   0.254  13.200
 1489SOL     OW 5008   1.362   1.144  13.579
 1489SOL    HW1 5009   1.445   1.115  13.531
 1489SOL    HW2 5010   1.313   1.211  13.523
 1490SOL     OW 5011   1.008   1.456  13.511
 1490SOL    HW1 5012   0.962   1.528  13.459
 1490SOL    HW2 5013   1.004   1.476  13.609
 1491SOL     OW 5014   0.351   1.801  13.887
 1491SOL    HW1 5015   0.401   1.715  13.893
 1491SOL    HW2 5016   0.416   1.878  13.884
 1492SOL     OW 5017   1.795   1.066  13.907
 1492SOL    HW1 5018   1.733   1.051  13.831
 1492SOL    HW2 5019   1.743   1.077  13.992
 1493SOL     OW 5020   0.321   0.943  13.276
 1493SOL    HW1 5021   0.403   0.982  13.234
 1493SOL    HW2 5022   0.294   0.861  13.227
 1494SOL     OW 5023   1.458   0.735  13.762
 1494SOL    HW1 5024   1.453   0.670  13.837
 1494SOL    HW2 5025   1.538   0.794  13.775
 1495SOL     OW 5026   1.111   1.776  13.271
 1495SOL    HW1 5027   1.051   1.714  13.321
 1495SOL    HW2 5028   1.142   1.732  13.186
 1496SOL     OW 5029   1.632   1.377  13.115
 1496SOL    HW1 5030   1.600   1.471  13.105
 1496SOL    HW2 5031   1.556   1.314  13.103
 1497SOL     OW 5032   0.464   1.743  13.357
 1497SOL    HW1 5033   0.497   1.782  13.443
 1497SOL    HW2 5034   0.540   1.736  13.292
 1498SOL     OW 5035   1.400   0.107  13.460
 1498SOL    HW1 5036   1.376   0.070  13.370
 1498SOL    HW2 5037   1.499   0.123  13.464
 1499SOL     OW 5038   0.940   1.698  13.938
 1499SOL    HW1 5039   1.020   1.641  13.959
 1499SOL    HW2 5040   0.891   1.658  13.861
 1500SOL     OW 5041   0.382   0.700  13.514
 1500SOL    HW1 5042   0.427   0.610  13.511
 1500SOL    HW2 5043   0.288   0.689  13.547
 1501SOL     OW 5044   0.614   0.122  13.151
 1501SOL    HW1 5045   0.712   0.100  13.158
 1501SOL    HW2 5046   0.583   0.105  13.058
 1502SOL     OW 5047   0.539   0.064  13.546
 1502SOL    HW1 5048   0.458   0.065  13.604
 1502SOL    HW2 5049   0.542   0.147  13.491
 1503SOL     OW 5050   1.434   1.188  13.075
 1503SOL    HW1 5051   1.466   1.112  13.132
 1503SOL    HW2 5052   1.342   1.215  13.105
 1504SOL     OW 5053   0.297   0.035  13.205
 1504SOL    HW1 5054   0.346   0.119  13.184
 1504SOL    HW2 5055   0.359  -0.030  13.250
 1505SOL     OW 5056   0.935   0.236  13.514
 1505SOL    HW1 5057   0.887   0.277  13.436
 1505SOL    HW2 5058   1.034   0.234  13.495
 1506SOL     OW 5059   0.459   1.152  13.775
 1506SOL    HW1 5060   0.388   1.125  13.840
 1506SOL    HW2 5061   0.433   1.124  13.682
 1507SOL     OW 5062   1.271   1.797  13.625
 1507SOL    HW1 5063   1.315   1.861  13.561
 1507SOL    HW2 5064   1.221   1.849  13.695
 1508SOL     OW 5065   1.032   0.549  13.050
 1508SOL    HW1 5066   0.991   0.631  13.011
 1508SOL    HW2 5067   1.096   0.575  13.123
 1509SOL     OW 5068   0.866   0.454  13.676
 1509SOL    HW1 5069   0.834   0.526  13.614
 1509SOL    HW2 5070   0.890   0.373  13.623
 1510SOL     OW 5071   1.017   0.039  13.787
 1510SOL    HW1 5072   0.945   0.044  13.718
 1510SOL    HW2 5073   0.993  -0.030  13.856
 1511SOL     OW 5074   1.857   0.833  13.411
 1511SOL    HW1 5075   1.899   0.769  13.475
 1511SOL    HW2 5076   1.819   0.782  13.333
 1512SOL     OW 5077   0.488   1.385  13.208
 1512SOL    HW1 5078   0.401   1.370  13.255
 1512SOL    HW2 5079   0.471   1.411  13.113
 1513SOL     OW 5080   1.664   1.280  13.691
 1513SOL    HW1 5081   1.763   1.288  13.705
 1513SOL    HW2 5082   1.619   1.364  13.722
 1514SOL     OW 5083   1.390   0.575  13.112
 1514SOL    HW1 5084   1.336   0.554  13.193
 1514SOL    HW2 5085   1.481   0.534  13.121
 1515SOL     OW 5086   0.527   0.256  13.362
 1515SOL    HW1 5087   0.554   0.197  13.287
 1515SOL    HW2 5088   0.527   0.351  13.331
 1516SOL     OW 5089   0.705   1.050  13.402
 1516SOL    HW1 5090   0.691   1.057  13.501
 1516SOL    HW2 5091   0.789   0.999  13.384
 1517SOL     OW 5092   0.367   1.100  13.535
 1517SOL    HW1 5093   0.360   1.183  13.479
 1517SOL    HW2 5094   0.371   1.020  13.475
 1518SOL     OW 5095   0.566   0.537  13.899
 1518SOL    HW1 5096   0.578   0.603  13.825
 1518SOL    HW2 5097   0.612   0.571  13.982
 1519SOL     OW 5098   1.252   1.348  13.422
 1519SOL    HW1 5099   1.302   1.425  13.462
 1519SOL    HW2 5100   1.157   1.350  13.454
 1520SOL     OW 5101   1.582   0.639  13.506
 1520SOL    HW1 5102   1.551   0.700  13.579
 1520SOL    HW2 5103   1.632   0.691  13.437
 1521SOL     OW 5104   1.209   0.525  13.309
 1521SOL    HW1 5105   1.222   0.441  13.363
 1521SOL    HW2 5106   1.180   0.599  13.369
 1522SOL     OW 5107   0.307   0.063  13.652
 1522SOL    HW1 5108   0.296   0.157  13.685
 1522SOL    HW2 5109   0.302   0.000  13.729
 1523SOL     OW 5110   1.622   0.367  13.408
 1523SOL    HW1 5111   1.624   0.291  13.472
 1523SOL    HW2 5112   1.574   0.444  13.448
 1524SOL     OW 5113   1.540   0.274  13.159
 1524SOL    HW1 5114   1.479   0.199  13.182
 1524SOL    HW2 5115   1.562   0.326  13.242
 1525SOL     OW 5116   1.303   0.838  13.076
 1525SOL    HW1 5117   1.337   0.745  13.091
 1525SOL    HW2 5118   1.321   0.865  12.981
 1526SOL     OW 5119   0.008   1.326  13.234
 1526SOL    HW1 5120  -0.085   1.347  13.203
 1526SOL    HW2 5121   0.018   1.227  13.247
 1527SOL     OW 5122   0.815   0.572  13.359
 1527SOL    HW1 5123   0.822   0.483  13.313
 1527SOL    HW2 5124   0.721   0.606  13.351
 1528SOL     OW 5125   0.473   0.500  13.225
 1528SOL    HW1 5126   0.534   0.580  13.229
 1528SOL    HW2 5127   0.378   0.531  13.232
 1529SOL     OW 5128   1.302   0.855  13.343
 1529SOL    HW1 5129   1.216   0.824  13.385
 1529SOL    HW2 5130   1.298   0.841  13.244
 1530SOL     OW 5131   1.726   0.135  13.557
 1530SOL    HW1 5132   1.799   0.118  13.490
 1530SOL    HW2 5133   1.695   0.048  13.595
 1531SOL     OW 5134   1.388   1.573  13.511
 1531SOL    HW1 5135   1.455   1.585  13.437
 1531SOL    HW2 5136   1.348   1.662  13.534
 1532SOL     OW 5137   1.280   0.927  13.706
 1532SOL    HW1 5138   1.340   0.846  13.708
 1532SOL    HW2 5139   1.320   0.996  13.646
 1533SOL     OW 5140   0.672   1.616  13.188
 1533SOL    HW1 5141   0.681   1.626  13.089
 1533SOL    HW2 5142   0.632   1.527  13.209
 1534SOL     OW 5143   1.841   0.175  13.997
 1534SOL    HW1 5144   1.880   0.090  13.961
 1534SOL    HW2 5145   1.743   0.177  13.978
 1535SOL     OW 5146   0.263   0.326  13.754
 1535SOL    HW1 5147   0.184   0.377  13.720
 1535SOL    HW2 5148   0.254   0.311  13.852
 1536SOL     OW 5149   1.194   1.612  13.065
 1536SOL    HW1 5150   1.200   1.519  13.102
 1536SOL    HW2 5151   1.135   1.612  12.985
 1537SOL     OW 5152   0.916   0.910  13.325
 1537SOL    HW1 5153   0.979   0.948  13.257
 1537SOL    HW2 5154   0.956   0.827  13.364
 1538SOL     OW 5155   1.504   1.607  13.078
 1538SOL    HW1 5156   1.412   1.644  13.085
 1538SOL    HW2 5157   1.542   1.627  12.988
 1539SOL     OW 5158   1.039   1.098  13.730
 1539SOL    HW1 5159   0.969   1.051  13.784
 1539SOL    HW2 5160   1.098   1.030  13.687
 1540SOL     OW 5161   0.590   1.487  13.525
 1540SOL    HW1 5162   0.632   1.429  13.455
 1540SOL    HW2 5163   0.546   1.566  13.481
 1541SOL     OW 5164   0.255   1.348  13.324
 1541SOL    HW1 5165   0.159   1.349  13.297
 1541SOL    HW2 5166   0.267   1.401  13.408
 1542SOL     OW 5167   0.075   0.345  13.067
 1542SOL    HW1 5168  -0.017   0.317  13.038
 1542SOL    HW2 5169   0.106   0.422  13.011
 1543SOL     OW 5170   0.072   0.166  13.352
 1543SOL    HW1 5171   0.055   0.249  13.298
 1543SOL    HW2 5172   0.162   0.129  13.330
 1544SOL     OW 5173   1.183   1.335  13.153
 1544SOL    HW1 5174   1.084   1.324  13.155
 1544SOL    HW2 5175   1.217   1.350  13.246
 1545SOL     OW 5176   1.225   0.325  13.483
 1545SOL    HW1 5177   1.290   0.251  13.472
 1545SOL    HW2 5178   1.245   0.375  13.567
 1546SOL     OW 5179   0.594   0.745  13.686
 1546SOL    HW1 5180   0.644   0.830  13.667
 1546SOL    HW2 5181   0.506   0.747  13.638
 1547SOL     OW 5182   0.859   1.374  13.050
 1547SOL    HW1 5183   0.813   1.389  13.138
 1547SOL    HW2 5184   0.903   1.459  13.020
 1548SOL     OW 5185   0.661   1.790  13.987
 1548SOL    HW1 5186   0.615   1.878  13.974
 1548SOL    HW2 5187   0.760   1.802  13.980
 1549SOL     OW 5188   0.859   0.956  13.895
 1549SOL    HW1 5189   0.913   0.887  13.943
 1549SOL    HW2 5190   0.827   1.025  13.961
 1550SOL     OW 5191   1.083   0.984  13.121
 1550SOL    HW1 5192   1.060   1.037  13.039
 1550SOL    HW2 5193   1.164   0.928  13.102
 1551SOL     OW 5194   0.079   1.240  13.687
 1551SOL    HW1 5195   0.078   1.193  13.775
 1551SOL    HW2 5196   0.161   1.212  13.636
 1552SOL     OW 5197   0.428   0.424  13.554
 1552SOL    HW1 5198   0.458   0.352  13.492
 1552SOL    HW2 5199   0.389   0.384  13.637
 1553SOL     OW 5200   1.705   1.487  14.138
 1553SOL    HW1 5201   1.612   1.462  14.111
 1553SOL    HW2 5202   1.731   1.437  14.220
 1554SOL     OW 5203   0.812   1.586  13.721
 1554SOL    HW1 5204   0.844   1.596  13.627
 1554SOL    HW2 5205   0.733   1.524  13.723
 1555SOL     OW 5206   0.770   1.330  13.335
 1555SOL    HW1 5207   0.724   1.243  13.352
 1555SOL    HW2 5208   0.861   1.327  13.376
 1556SOL     OW 5209   1.352   0.052  13.202
 1556SOL    HW1 5210   1.387   0.011  13.118
 1556SOL    HW2 5211   1.262   0.014  13.222
 1557SOL     OW 5212   1.300   0.453  13.725
 1557SOL    HW1 5213   1.241   0.533  13.729
 1557SOL    HW2 5214   1.315   0.418  13.818
 1558SOL     OW 5215   0.039   1.077  13.334
 1558SOL    HW1 5216   0.138   1.066  13.325
 1558SOL    HW2 5217  -0.001   0.991  13.366
 1559SOL     OW 5218   0.875   1.646  13.371
 1559SOL    HW1 5219   0.798   1.611  13.317
 1559SOL    HW2 5220   0.843   1.717  13.433
 1560SOL     OW 5221   0.230   2.490   0.113
 1560SOL    HW1 5222   0.137   2.488   0.150
 1560SOL    HW2 5223   0.231   2.451   0.021
 1561SOL     OW 5224   0.225   2.137   0.996
 1561SOL    HW1 5225   0.260   2.120   1.088
 1561SOL    HW2 5226   0.137   2.092   0.984
 1562SOL     OW 5227   0.019   2.230   0.647
 1562SOL    HW1 5228  -0.063   2.273   0.686
 1562SOL    HW2 5229  -0.009   2.157   0.584
 1563SOL     OW 5230   0.569   3.137   1.165
 1563SOL    HW1 5231   0.476   3.130   1.128
 1563SOL    HW2 5232   0.580   3.226   1.209
 1564SOL     OW 5233   1.555   3.373   0.703
 1564SOL    HW1 5234   1.498   3.357   0.784
 1564SOL    HW2 5235   1.496   3.383   0.623
 1565SOL     OW 5236   1.135   2.565   0.717
 1565SOL    HW1 5237   1.192   2.643   0.692
 1565SOL    HW2 5238   1.075   2.591   0.793
 1566SOL     OW 5239   1.755   2.469   0.231
 1566SOL    HW1 5240   1.743   2.456   0.132
 1566SOL    HW2 5241   1.725   2.388   0.280
 1567SOL     OW 5242   0.768   3.006   1.023
 1567SOL    HW1 5243   0.690   3.023   1.083
 1567SOL    HW2 5244   0.802   3.093   0.987
 1568SOL     OW 5245   0.850   2.660   1.823
 1568SOL    HW1 5246   0.846   2.736   1.888
 1568SOL    HW2 5247   0.872   2.696   1.732
 1569SOL     OW 5248   0.685   2.874   0.665
 1569SOL    HW1 5249   0.754   2.858   0.735
 1569SOL    HW2 5250   0.612   2.931   0.703
 1570SOL     OW 5251   0.686   3.023   1.803
 1570SOL    HW1 5252   0.746   3.102   1.817
 1570SOL    HW2 5253   0.600   3.054   1.762
 1571SOL     OW 5254   0.335   3.297   1.061
 1571SOL    HW1 5255   0.257   3.266   1.008
 1571SOL    HW2 5256   0.393   3.355   1.004
 1572SOL     OW 5257   1.460   3.367   1.339
 1572SOL    HW1 5258   1.484   3.461   1.365
 1572SOL    HW2 5259   1.444   3.313   1.421
 1573SOL     OW 5260   0.438   2.254   1.499
 1573SOL    HW1 5261   0.520   2.198   1.508
 1573SOL    HW2 5262   0.357   2.196   1.503
 1574SOL     OW 5263   1.603   2.309   0.737
 1574SOL    HW1 5264   1.529   2.355   0.687
 1574SOL    HW2 5265   1.654   2.377   0.790
 1575SOL     OW 5266   0.231   3.575   0.483
 1575SOL    HW1 5267   0.265   3.652   0.537
 1575SOL    HW2 5268   0.275   3.575   0.393
 1576SOL     OW 5269   1.127   3.203   1.690
 1576SOL    HW1 5270   1.174   3.203   1.778
 1576SOL    HW2 5271   1.079   3.116   1.679
 1577SOL     OW 5272   0.230   3.296   0.538
 1577SOL    HW1 5273   0.204   3.392   0.538
 1577SOL    HW2 5274   0.159   3.242   0.583
 1578SOL     OW 5275   0.240   2.953   0.886
 1578SOL    HW1 5276   0.254   2.869   0.938
 1578SOL    HW2 5277   0.185   3.017   0.941
 1579SOL     OW 5278   0.620   3.648   1.439
 1579SOL    HW1 5279   0.528   3.631   1.474
 1579SOL    HW2 5280   0.648   3.740   1.465
 1580SOL     OW 5281   0.606   2.826   0.123
 1580SOL    HW1 5282   0.613   2.910   0.069
 1580SOL    HW2 5283   0.652   2.839   0.211
 1581SOL     OW 5284   1.594   1.976   1.480
 1581SOL    HW1 5285   1.576   2.043   1.408
 1581SOL    HW2 5286   1.591   2.022   1.569
 1582SOL     OW 5287   0.122   2.505   0.563
 1582SOL    HW1 5288   0.077   2.417   0.580
 1582SOL    HW2 5289   0.121   2.559   0.647
 1583SOL     OW 5290   1.842   3.629   0.359
 1583SOL    HW1 5291   1.896   3.600   0.439
 1583SOL    HW2 5292   1.872   3.719   0.330
 1584SOL     OW 5293   0.027   3.458   0.117
 1584SOL    HW1 5294   0.008   3.362   0.138
 1584SOL    HW2 5295  -0.006   3.516   0.192
 1585SOL     OW 5296   1.689   2.784   0.612
 1585SOL    HW1 5297   1.784   2.755   0.620
 1585SOL    HW2 5298   1.681   2.849   0.537
 1586SOL     OW 5299   1.641   2.970   0.432
 1586SOL    HW1 5300   1.727   2.972   0.380
 1586SOL    HW2 5301   1.655   3.017   0.520
 1587SOL     OW 5302   0.113   2.599   1.597
 1587SOL    HW1 5303   0.201   2.586   1.642
 1587SOL    HW2 5304   0.100   2.696   1.575
 1588SOL     OW 5305   0.613   3.227   0.726
 1588SOL    HW1 5306   0.564   3.140   0.735
 1588SOL    HW2 5307   0.590   3.270   0.639
 1589SOL     OW 5308   1.293   3.090   1.423
 1589SOL    HW1 5309   1.330   3.017   1.365
 1589SOL    HW2 5310   1.345   3.095   1.508
 1590SOL     OW 5311   0.809   1.866   0.502
 1590SOL    HW1 5312   0.849   1.957   0.493
 1590SOL    HW2 5313   0.709   1.874   0.508
 1591SOL     OW 5314   0.197   2.838   1.264
 1591SOL    HW1 5315   0.286   2.793   1.250
 1591SOL    HW2 5316   0.124   2.773   1.245
 1592SOL     OW 5317   1.525   2.861   0.190
 1592SOL    HW1 5318   1.462   2.785   0.203
 1592SOL    HW2 5319   1.573   2.879   0.276
 1593SOL     OW 5320   1.187   3.654   1.616
 1593SOL    HW1 5321   1.211   3.714   1.540
 1593SOL    HW2 5322   1.194   3.559   1.586
 1594SOL     OW 5323   0.317   2.113   1.801
 1594SOL    HW1 5324   0.388   2.184   1.807
 1594SOL    HW2 5325   0.229   2.152   1.829
 1595SOL     OW 5326   1.466   3.279   0.953
 1595SOL    HW1 5327   1.407   3.285   1.033
 1595SOL    HW2 5328   1.451   3.191   0.907
 1596SOL     OW 5329   1.667   3.576   0.572
 1596SOL    HW1 5330   1.626   3.553   0.484
 1596SOL    HW2 5331   1.649   3.502   0.637
 1597SOL     OW 5332   0.598   2.591   0.270
 1597SOL    HW1 5333   0.622   2.660   0.202
 1597SOL    HW2 5334   0.520   2.624   0.324
 1598SOL     OW 5335   1.281   2.207   0.944
 1598SOL    HW1 5336   1.195   2.157   0.931
 1598SOL    HW2 5337   1.343   2.153   1.000
 1599SOL     OW 5338   1.576   3.524   0.307
 1599SOL    HW1 5339   1.665   3.570   0.310
 1599SOL    HW2 5340   1.555   3.500   0.212
 1600SOL     OW 5341   0.807   2.467   1.465
 1600SOL    HW1 5342   0.760   2.464   1.554
 1600SOL    HW2 5343   0.756   2.412   1.399
 1601SOL     OW 5344   1.394   2.331   1.674
 1601SOL    HW1 5345   1.374   2.374   1.762
 1601SOL    HW2 5346   1.472   2.269   1.683
 1602SOL     OW 5347   0.973   2.752   1.572
 1602SOL    HW1 5348   1.019   2.668   1.543
 1602SOL    HW2 5349   0.917   2.786   1.497
 1603SOL     OW 5350   0.991   2.272   1.242
 1603SOL    HW1 5351   0.914   2.306   1.296
 1603SOL    HW2 5352   0.957   2.221   1.163
 1604SOL     OW 5353   1.041   2.563   0.429
 1604SOL    HW1 5354   1.067   2.559   0.525
 1604SOL    HW2 5355   0.956   2.512   0.415
 1605SOL     OW 5356   0.076   2.673   0.789
 1605SOL    HW1 5357   0.175   2.661   0.798
 1605SOL    HW2 5358   0.052   2.768   0.810
 1606SOL     OW 5359   0.130   3.683   1.571
 1606SOL    HW1 5360   0.120   3.668   1.670
 1606SOL    HW2 5361   0.044   3.719   1.535
 1607SOL     OW 5362   0.865   2.210   0.195
 1607SOL    HW1 5363   0.924   2.273   0.146
 1607SOL    HW2 5364   0.884   2.116   0.166
 1608SOL     OW 5365   1.719   2.447   1.831
 1608SOL    HW1 5366   1.693   2.536   1.795
 1608SOL    HW2 5367   1.717   2.379   1.758
 1609SOL     OW 5368   1.362   3.006   0.545
 1609SOL    HW1 5369   1.445   2.977   0.497
 1609SOL    HW2 5370   1.313   3.073   0.489
 1610SOL     OW 5371   0.550   2.058   0.885
 1610SOL    HW1 5372   0.545   2.053   0.985
 1610SOL    HW2 5373   0.552   2.154   0.856
 1611SOL     OW 5374   1.008   3.318   0.477
 1611SOL    HW1 5375   0.962   3.390   0.425
 1611SOL    HW2 5376   1.004   3.338   0.575
 1612SOL     OW 5377   0.351   3.663   0.853
 1612SOL    HW1 5378   0.401   3.577   0.859
 1612SOL    HW2 5379   0.416   3.740   0.850
 1613SOL     OW 5380   1.795   2.928   0.873
 1613SOL    HW1 5381   1.733   2.913   0.797
 1613SOL    HW2 5382   1.743   2.939   0.958
 1614SOL     OW 5383   1.227   3.412   1.506
 1614SOL    HW1 5384   1.233   3.335   1.570
 1614SOL    HW2 5385   1.175   3.386   1.426
 1615SOL     OW 5386   0.321   2.805   0.242
 1615SOL    HW1 5387   0.403   2.844   0.200
 1615SOL    HW2 5388   0.294   2.723   0.193
 1616SOL     OW 5389   1.458   2.597   0.728
 1616SOL    HW1 5390   1.453   2.532   0.803
 1616SOL    HW2 5391   1.538   2.656   0.741
 1617SOL     OW 5392   0.461   3.128   1.727
 1617SOL    HW1 5393   0.411   3.129   1.641
 1617SOL    HW2 5394   0.398   3.110   1.803
 1618SOL     OW 5395   1.111   3.638   0.237
 1618SOL    HW1 5396   1.051   3.576   0.287
 1618SOL    HW2 5397   1.142   3.594   0.152
 1619SOL     OW 5398   0.202   2.147   1.498
 1619SOL    HW1 5399   0.122   2.207   1.485
 1619SOL    HW2 5400   0.192   2.098   1.584
 1620SOL     OW 5401   1.632   3.239   0.081
 1620SOL    HW1 5402   1.600   3.333   0.071
 1620SOL    HW2 5403   1.556   3.176   0.069
 1621SOL     OW 5404   0.464   3.605   0.323
 1621SOL    HW1 5405   0.497   3.644   0.409
 1621SOL    HW2 5406   0.540   3.598   0.258
 1622SOL     OW 5407   1.400   1.969   0.426
 1622SOL    HW1 5408   1.376   1.932   0.336
 1622SOL    HW2 5409   1.499   1.985   0.430
 1623SOL     OW 5410   0.249   3.647   1.241
 1623SOL    HW1 5411   0.306   3.582   1.291
 1623SOL    HW2 5412   0.233   3.614   1.148
 1624SOL     OW 5413   0.940   3.560   0.904
 1624SOL    HW1 5414   1.020   3.503   0.925
 1624SOL    HW2 5415   0.891   3.520   0.827
 1625SOL     OW 5416   0.382   2.562   0.480
 1625SOL    HW1 5417   0.427   2.472   0.477
 1625SOL    HW2 5418   0.288   2.551   0.513
 1626SOL     OW 5419   1.547   2.084   1.729
 1626SOL    HW1 5420   1.542   2.121   1.821
 1626SOL    HW2 5421   1.475   2.015   1.717
 1627SOL     OW 5422   0.781   2.126   1.749
 1627SOL    HW1 5423   0.848   2.065   1.792
 1627SOL    HW2 5424   0.708   2.145   1.814
 1628SOL     OW 5425   0.888   3.376   1.195
 1628SOL    HW1 5426   0.865   3.351   1.101
 1628SOL    HW2 5427   0.949   3.307   1.234
 1629SOL     OW 5428   1.351   2.452   1.433
 1629SOL    HW1 5429   1.379   2.409   1.518
 1629SOL    HW2 5430   1.376   2.548   1.434
 1630SOL     OW 5431   0.803   3.264   0.924
 1630SOL    HW1 5432   0.893   3.278   0.882
 1630SOL    HW2 5433   0.732   3.266   0.853
 1631SOL     OW 5434   0.922   2.365   0.899
 1631SOL    HW1 5435   0.897   2.356   0.803
 1631SOL    HW2 5436   0.970   2.283   0.930
 1632SOL     OW 5437   0.539   1.926   0.512
 1632SOL    HW1 5438   0.458   1.927   0.570
 1632SOL    HW2 5439   0.542   2.009   0.457
 1633SOL     OW 5440   1.434   3.050   0.041
 1633SOL    HW1 5441   1.466   2.974   0.098
 1633SOL    HW2 5442   1.342   3.077   0.071
 1634SOL     OW 5443   0.297   1.897   0.171
 1634SOL    HW1 5444   0.346   1.981   0.150
 1634SOL    HW2 5445   0.359   1.832   0.216
 1635SOL     OW 5446   0.935   2.098   0.480
 1635SOL    HW1 5447   0.887   2.139   0.402
 1635SOL    HW2 5448   1.034   2.096   0.461
 1636SOL     OW 5449   1.076   2.545   1.464
 1636SOL    HW1 5450   0.996   2.484   1.467
 1636SOL    HW2 5451   1.157   2.492   1.440
 1637SOL     OW 5452   1.227   3.432   0.793
 1637SOL    HW1 5453   1.248   3.506   0.728
 1637SOL    HW2 5454   1.295   3.432   0.866
 1638SOL     OW 5455   0.459   3.014   0.741
 1638SOL    HW1 5456   0.388   2.987   0.806
 1638SOL    HW2 5457   0.433   2.986   0.648
 1639SOL     OW 5458   1.271   3.659   0.591
 1639SOL    HW1 5459   1.315   3.723   0.527
 1639SOL    HW2 5460   1.221   3.711   0.661
 1640SOL     OW 5461   1.032   2.411   0.016
 1640SOL    HW1 5462   0.991   2.493  -0.023
 1640SOL    HW2 5463   1.096   2.437   0.089
 1641SOL     OW 5464   0.078   2.418   1.386
 1641SOL    HW1 5465   0.170   2.417   1.345
 1641SOL    HW2 5466   0.072   2.492   1.453
 1642SOL     OW 5467   0.561   2.084   1.147
 1642SOL    HW1 5468   0.599   2.000   1.184
 1642SOL    HW2 5469   0.473   2.103   1.191
 1643SOL     OW 5470   0.866   2.316   0.642
 1643SOL    HW1 5471   0.834   2.388   0.580
 1643SOL    HW2 5472   0.890   2.235   0.589
 1644SOL     OW 5473   1.017   1.901   0.753
 1644SOL    HW1 5474   0.945   1.906   0.684
 1644SOL    HW2 5475   0.993   1.832   0.822
 1645SOL     OW 5476   1.429   3.035   0.867
 1645SOL    HW1 5477   1.374   2.951   0.860
 1645SOL    HW2 5478   1.455   3.064   0.775
 1646SOL     OW 5479   1.466   2.452   0.992
 1646SOL    HW1 5480   1.436   2.357   0.999
 1646SOL    HW2 5481   1.539   2.468   1.058
 1647SOL     OW 5482   1.857   2.695   0.377
 1647SOL    HW1 5483   1.899   2.631   0.441
 1647SOL    HW2 5484   1.819   2.644   0.299
 1648SOL     OW 5485   0.488   3.247   0.174
 1648SOL    HW1 5486   0.401   3.232   0.221
 1648SOL    HW2 5487   0.471   3.273   0.079
 1649SOL     OW 5488   1.664   3.142   0.657
 1649SOL    HW1 5489   1.763   3.150   0.671
 1649SOL    HW2 5490   1.619   3.226   0.688
 1650SOL     OW 5491   1.390   2.437   0.078
 1650SOL    HW1 5492   1.336   2.416   0.159
 1650SOL    HW2 5493   1.481   2.396   0.087
 1651SOL     OW 5494   0.527   2.118   0.328
 1651SOL    HW1 5495   0.554   2.059   0.253
 1651SOL    HW2 5496   0.527   2.213   0.297
 1652SOL     OW 5497   1.754   3.085   1.588
 1652SOL    HW1 5498   1.845   3.046   1.575
 1652SOL    HW2 5499   1.762   3.181   1.612
 1653SOL     OW 5500   1.064   3.209   1.340
 1653SOL    HW1 5501   0.984   3.186   1.395
 1653SOL    HW2 5502   1.147   3.183   1.389
 1654SOL     OW 5503   1.592   3.491   1.625
 1654SOL    HW1 5504   1.619   3.525   1.535
 1654SOL    HW2 5505   1.671   3.453   1.671
 1655SOL     OW 5506   1.111   3.057   1.100
 1655SOL    HW1 5507   1.071   3.101   1.181
 1655SOL    HW2 5508   1.070   3.094   1.017
 1656SOL     OW 5509   1.638   2.961   1.079
 1656SOL    HW1 5510   1.643   3.042   1.138
 1656SOL    HW2 5511   1.552   2.963   1.028
 1657SOL     OW 5512   0.915   1.951   1.402
 1657SOL    HW1 5513   0.940   1.931   1.307
 1657SOL    HW2 5514   0.987   2.007   1.444
 1658SOL     OW 5515   0.980   2.978   1.719
 1658SOL    HW1 5516   0.881   2.984   1.729
 1658SOL    HW2 5517   1.003   2.898   1.663
 1659SOL     OW 5518   0.705   2.912   0.368
 1659SOL    HW1 5519   0.691   2.919   0.467
 1659SOL    HW2 5520   0.789   2.861   0.350
 1660SOL     OW 5521   0.410   2.675   1.251
 1660SOL    HW1 5522   0.496   2.687   1.301
 1660SOL    HW2 5523   0.368   2.588   1.278
 1661SOL     OW 5524   1.274   2.248   1.262
 1661SOL    HW1 5525   1.295   2.322   1.326
 1661SOL    HW2 5526   1.185   2.265   1.219
 1662SOL     OW 5527   0.064   3.426   1.331
 1662SOL    HW1 5528   0.018   3.508   1.297
 1662SOL    HW2 5529   0.162   3.445   1.340
 1663SOL     OW 5530   0.367   2.962   0.501
 1663SOL    HW1 5531   0.360   3.045   0.445
 1663SOL    HW2 5532   0.371   2.882   0.441
 1664SOL     OW 5533   0.566   2.399   0.865
 1664SOL    HW1 5534   0.578   2.465   0.791
 1664SOL    HW2 5535   0.612   2.433   0.948
 1665SOL     OW 5536   1.252   3.210   0.388
 1665SOL    HW1 5537   1.302   3.287   0.428
 1665SOL    HW2 5538   1.157   3.212   0.420
 1666SOL     OW 5539   1.272   3.307   1.142
 1666SOL    HW1 5540   1.319   3.320   1.229
 1666SOL    HW2 5541   1.206   3.233   1.151
 1667SOL     OW 5542   1.582   2.501   0.472
 1667SOL    HW1 5543   1.551   2.562   0.545
 1667SOL    HW2 5544   1.632   2.553   0.403
 1668SOL     OW 5545   0.354   3.372   1.329
 1668SOL    HW1 5546   0.333   3.328   1.242
 1668SOL    HW2 5547   0.451   3.398   1.332
 1669SOL     OW 5548   0.402   2.613   1.598
 1669SOL    HW1 5549   0.470   2.668   1.551
 1669SOL    HW2 5550   0.442   2.525   1.625
 1670SOL     OW 5551   1.587   2.641   1.670
 1670SOL    HW1 5552   1.495   2.679   1.665
 1670SOL    HW2 5553   1.647   2.688   1.605
 1671SOL     OW 5554   1.013   1.967   1.770
 1671SOL    HW1 5555   1.019   2.052   1.718
 1671SOL    HW2 5556   1.045   1.891   1.713
 1672SOL     OW 5557   0.504   1.912   1.740
 1672SOL    HW1 5558   0.462   1.855   1.670
 1672SOL    HW2 5559   0.438   1.981   1.772
 1673SOL     OW 5560   0.573   2.732   1.029
 1673SOL    HW1 5561   0.617   2.821   1.020
 1673SOL    HW2 5562   0.510   2.732   1.106
 1674SOL     OW 5563   1.360   2.724   1.045
 1674SOL    HW1 5564   1.285   2.724   0.979
 1674SOL    HW2 5565   1.397   2.632   1.054
 1675SOL     OW 5566   1.209   2.387   0.275
 1675SOL    HW1 5567   1.222   2.303   0.329
 1675SOL    HW2 5568   1.180   2.461   0.335
 1676SOL     OW 5569   0.307   2.075   1.231
 1676SOL    HW1 5570   0.284   2.112   1.321
 1676SOL    HW2 5571   0.277   1.980   1.225
 1677SOL     OW 5572   0.037   3.172   1.282
 1677SOL    HW1 5573   0.090   3.123   1.350
 1677SOL    HW2 5574   0.059   3.270   1.287
 1678SOL     OW 5575   0.732   2.496   1.064
 1678SOL    HW1 5576   0.791   2.470   0.988
 1678SOL    HW2 5577   0.704   2.592   1.053
 1679SOL     OW 5578   1.728   2.797   1.854
 1679SOL    HW1 5579   1.682   2.790   1.765
 1679SOL    HW2 5580   1.666   2.841   1.920
 1680SOL     OW 5581   0.307   1.925   0.618
 1680SOL    HW1 5582   0.296   2.019   0.651
 1680SOL    HW2 5583   0.302   1.862   0.695
 1681SOL     OW 5584   1.622   2.229   0.374
 1681SOL    HW1 5585   1.624   2.153   0.438
 1681SOL    HW2 5586   1.574   2.306   0.414
 1682SOL     OW 5587   1.023   2.628   0.966
 1682SOL    HW1 5588   1.038   2.649   1.062
 1682SOL    HW2 5589   0.993   2.533   0.957
 1683SOL     OW 5590   0.980   3.435   1.700
 1683SOL    HW1 5591   0.960   3.479   1.612
 1683SOL    HW2 5592   1.019   3.344   1.684
 1684SOL     OW 5593   1.859   3.380   1.605
 1684SOL    HW1 5594   1.873   3.407   1.510
 1684SOL    HW2 5595   1.942   3.402   1.658
 1685SOL     OW 5596   0.350   2.760   1.804
 1685SOL    HW1 5597   0.426   2.804   1.852
 1685SOL    HW2 5598   0.385   2.713   1.722
 1686SOL     OW 5599   1.540   2.136   0.125
 1686SOL    HW1 5600   1.479   2.061   0.148
 1686SOL    HW2 5601   1.562   2.188   0.208
 1687SOL     OW 5602   1.303   2.700   0.042
 1687SOL    HW1 5603   1.337   2.607   0.057
 1687SOL    HW2 5604   1.321   2.727  -0.053
 1688SOL     OW 5605   1.068   3.195   0.849
 1688SOL    HW1 5606   1.075   3.111   0.794
 1688SOL    HW2 5607   1.130   3.264   0.813
 1689SOL     OW 5608   0.319   2.672   0.949
 1689SOL    HW1 5609   0.412   2.708   0.954
 1689SOL    HW2 5610   0.313   2.587   1.001
 1690SOL     OW 5611   0.339   2.371   1.006
 1690SOL    HW1 5612   0.287   2.288   0.989
 1690SOL    HW2 5613   0.416   2.376   0.942
 1691SOL     OW 5614   1.138   2.242   1.678
 1691SOL    HW1 5615   1.093   2.305   1.742
 1691SOL    HW2 5616   1.231   2.273   1.661
 1692SOL     OW 5617   1.160   2.069   1.477
 1692SOL    HW1 5618   1.160   2.133   1.554
 1692SOL    HW2 5619   1.188   2.117   1.394
 1693SOL     OW 5620   0.008   3.188   0.200
 1693SOL    HW1 5621  -0.085   3.209   0.169
 1693SOL    HW2 5622   0.018   3.089   0.213
 1694SOL     OW 5623   0.088   3.663   0.927
 1694SOL    HW1 5624   0.046   3.577   0.900
 1694SOL    HW2 5625   0.182   3.666   0.893
 1695SOL     OW 5626   0.504   3.430   0.910
 1695SOL    HW1 5627   0.570   3.504   0.919
 1695SOL    HW2 5628   0.548   3.351   0.868
 1696SOL     OW 5629   1.002   2.658   1.238
 1696SOL    HW1 5630   1.043   2.626   1.324
 1696SOL    HW2 5631   0.906   2.631   1.235
 1697SOL     OW 5632   0.040   2.406   1.114
 1697SOL    HW1 5633   0.125   2.373   1.073
 1697SOL    HW2 5634   0.053   2.421   1.212
 1698SOL     OW 5635   0.189   2.382   1.722
 1698SOL    HW1 5636   0.248   2.342   1.652
 1698SOL    HW2 5637   0.131   2.453   1.681
 1699SOL     OW 5638   1.369   2.812   1.660
 1699SOL    HW1 5639   1.408   2.901   1.680
 1699SOL    HW2 5640   1.379   2.792   1.563
 1700SOL     OW 5641   0.815   2.434   0.325
 1700SOL    HW1 5642   0.822   2.345   0.279
 1700SOL    HW2 5643   0.721   2.468   0.317
 1701SOL     OW 5644   1.657   2.466   1.206
 1701SOL    HW1 5645   1.619   2.397   1.268
 1701SOL    HW2 5646   1.739   2.430   1.162
 1702SOL     OW 5647   0.252   3.426   1.744
 1702SOL    HW1 5648   0.222   3.483   1.820
 1702SOL    HW2 5649   0.245   3.329   1.770
 1703SOL     OW 5650   0.671   2.326   1.269
 1703SOL    HW1 5651   0.637   2.237   1.239
 1703SOL    HW2 5652   0.697   2.380   1.189
 1704SOL     OW 5653   0.930   3.540   1.465
 1704SOL    HW1 5654   0.906   3.522   1.370
 1704SOL    HW2 5655   0.960   3.634   1.475
 1705SOL     OW 5656   0.473   2.362   0.191
 1705SOL    HW1 5657   0.534   2.442   0.195
 1705SOL    HW2 5658   0.378   2.393   0.198
 1706SOL     OW 5659   0.159   2.999   1.466
 1706SOL    HW1 5660   0.181   2.938   1.542
 1706SOL    HW2 5661   0.169   2.950   1.380
 1707SOL     OW 5662   1.347   2.921   1.234
 1707SOL    HW1 5663   1.371   2.858   1.160
 1707SOL    HW2 5664   1.257   2.961   1.216
 1708SOL     OW 5665   1.302   2.717   0.309
 1708SOL    HW1 5666   1.216   2.686   0.351
 1708SOL    HW2 5667   1.298   2.703   0.210
 1709SOL     OW 5668   1.759   3.609   1.154
 1709SOL    HW1 5669   1.820   3.639   1.081
 1709SOL    HW2 5670   1.721   3.520   1.132
 1710SOL     OW 5671   1.252   3.593   1.128
 1710SOL    HW1 5672   1.336   3.598   1.074
 1710SOL    HW2 5673   1.229   3.497   1.146
 1711SOL     OW 5674   0.083   3.120   1.022
 1711SOL    HW1 5675   0.078   3.119   1.122
 1711SOL    HW2 5676   0.000   3.079   0.984
 1712SOL     OW 5677   0.688   3.524   1.716
 1712SOL    HW1 5678   0.632   3.605   1.725
 1712SOL    HW2 5679   0.740   3.528   1.630
 1713SOL     OW 5680   0.903   1.948   0.133
 1713SOL    HW1 5681   0.954   1.949   0.047
 1713SOL    HW2 5682   0.959   1.906   0.204
 1714SOL     OW 5683   1.388   3.435   0.477
 1714SOL    HW1 5684   1.455   3.447   0.403
 1714SOL    HW2 5685   1.348   3.524   0.500
 1715SOL     OW 5686   0.130   3.656   1.851
 1715SOL    HW1 5687   0.089   3.582   1.904
 1715SOL    HW2 5688   0.194   3.707   1.909
 1716SOL     OW 5689   1.280   2.789   0.672
 1716SOL    HW1 5690   1.340   2.708   0.674
 1716SOL    HW2 5691   1.320   2.858   0.612
 1717SOL     OW 5692   0.830   3.135   1.422
 1717SOL    HW1 5693   0.825   3.168   1.517
 1717SOL    HW2 5694   0.744   3.154   1.376
 1718SOL     OW 5695   0.672   3.478   0.154
 1718SOL    HW1 5696   0.681   3.488   0.055
 1718SOL    HW2 5697   0.632   3.389   0.175
 1719SOL     OW 5698   1.650   3.582   1.394
 1719SOL    HW1 5699   1.703   3.592   1.310
 1719SOL    HW2 5700   1.623   3.672   1.428
 1720SOL     OW 5701   0.263   2.188   0.720
 1720SOL    HW1 5702   0.184   2.239   0.686
 1720SOL    HW2 5703   0.254   2.173   0.818
 1721SOL     OW 5704   1.194   3.474   0.031
 1721SOL    HW1 5705   1.200   3.381   0.068
 1721SOL    HW2 5706   1.135   3.474  -0.049
 1722SOL     OW 5707   0.822   2.864   1.372
 1722SOL    HW1 5708   0.862   2.863   1.280
 1722SOL    HW2 5709   0.832   2.956   1.412
 1723SOL     OW 5710   0.916   2.772   0.291
 1723SOL    HW1 5711   0.979   2.810   0.223
 1723SOL    HW2 5712   0.956   2.689   0.330
 1724SOL     OW 5713   1.504   3.469   0.044
 1724SOL    HW1 5714   1.412   3.506   0.051
 1724SOL    HW2 5715   1.542   3.489  -0.046
 1725SOL     OW 5716   0.372   3.150   1.490
 1725SOL    HW1 5717   0.359   3.243   1.456
 1725SOL    HW2 5718   0.288   3.098   1.477
 1726SOL     OW 5719   1.614   3.154   1.289
 1726SOL    HW1 5720   1.674   3.157   1.369
 1726SOL    HW2 5721   1.539   3.218   1.302
 1727SOL     OW 5722   1.039   2.960   0.696
 1727SOL    HW1 5723   0.969   2.913   0.750
 1727SOL    HW2 5724   1.098   2.892   0.653
 1728SOL     OW 5725   1.014   2.098   0.971
 1728SOL    HW1 5726   1.006   2.062   0.878
 1728SOL    HW2 5727   1.012   2.022   1.036
 1729SOL     OW 5728   0.590   3.349   0.491
 1729SOL    HW1 5729   0.632   3.291   0.421
 1729SOL    HW2 5730   0.546   3.428   0.447
 1730SOL     OW 5731   1.709   2.247   1.381
 1730SOL    HW1 5732   1.782   2.316   1.385
 1730SOL    HW2 5733   1.737   2.172   1.322
 1731SOL     OW 5734   0.255   3.210   0.290
 1731SOL    HW1 5735   0.159   3.211   0.263
 1731SOL    HW2 5736   0.267   3.263   0.374
 1732SOL     OW 5737   0.105   2.875   1.726
 1732SOL    HW1 5738   0.028   2.842   1.780
 1732SOL    HW2 5739   0.190   2.845   1.768
 1733SOL     OW 5740   0.672   2.065   1.489
 1733SOL    HW1 5741   0.762   2.049   1.449
 1733SOL    HW2 5742   0.680   2.070   1.588
 1734SOL     OW 5743   0.075   2.207   0.033
 1734SOL    HW1 5744  -0.017   2.179   0.004
 1734SOL    HW2 5745   0.106   2.284  -0.023
 1735SOL     OW 5746   1.440   2.718   1.398
 1735SOL    HW1 5747   1.383   2.770   1.335
 1735SOL    HW2 5748   1.536   2.730   1.374
 1736SOL     OW 5749   0.072   2.028   0.318
 1736SOL    HW1 5750   0.055   2.111   0.264
 1736SOL    HW2 5751   0.162   1.991   0.296
 1737SOL     OW 5752   1.183   3.197   0.119
 1737SOL    HW1 5753   1.084   3.186   0.121
 1737SOL    HW2 5754   1.217   3.212   0.212
 1738SOL     OW 5755   0.613   2.704   1.431
 1738SOL    HW1 5756   0.669   2.785   1.414
 1738SOL    HW2 5757   0.672   2.624   1.434
 1739SOL     OW 5758   1.493   3.629   0.959
 1739SOL    HW1 5759   1.526   3.693   0.890
 1739SOL    HW2 5760   1.559   3.623   1.034
 1740SOL     OW 5761   0.716   2.427   1.708
 1740SOL    HW1 5762   0.735   2.492   1.782
 1740SOL    HW2 5763   0.776   2.347   1.717
 1741SOL     OW 5764   1.450   3.082   1.633
 1741SOL    HW1 5765   1.441   3.072   1.732
 1741SOL    HW2 5766   1.546   3.075   1.607
 1742SOL     OW 5767   0.390   3.603   1.560
 1742SOL    HW1 5768   0.299   3.644   1.558
 1742SOL    HW2 5769   0.383   3.509   1.592
 1743SOL     OW 5770   1.674   2.745   1.254
 1743SOL    HW1 5771   1.647   2.656   1.217
 1743SOL    HW2 5772   1.675   2.813   1.181
 1744SOL     OW 5773   1.225   2.187   0.449
 1744SOL    HW1 5774   1.290   2.113   0.438
 1744SOL    HW2 5775   1.245   2.237   0.533
 1745SOL     OW 5776   0.594   2.607   0.652
 1745SOL    HW1 5777   0.644   2.692   0.633
 1745SOL    HW2 5778   0.506   2.609   0.604
 1746SOL     OW 5779   1.777   2.204   1.642
 1746SOL    HW1 5780   1.760   2.235   1.548
 1746SOL    HW2 5781   1.693   2.167   1.680
 1747SOL     OW 5782   1.730   2.796   1.517
 1747SOL    HW1 5783   1.768   2.887   1.532
 1747SOL    HW2 5784   1.722   2.779   1.418
 1748SOL     OW 5785   0.859   3.236   0.016
 1748SOL    HW1 5786   0.813   3.251   0.104
 1748SOL    HW2 5787   0.903   3.321  -0.014
 1749SOL     OW 5788   0.661   3.652   0.953
 1749SOL    HW1 5789   0.615   3.740   0.940
 1749SOL    HW2 5790   0.760   3.664   0.946
 1750SOL     OW 5791   0.859   2.818   0.861
 1750SOL    HW1 5792   0.913   2.749   0.909
 1750SOL    HW2 5793   0.827   2.887   0.927
 1751SOL     OW 5794   1.083   2.846   0.087
 1751SOL    HW1 5795   1.060   2.899   0.005
 1751SOL    HW2 5796   1.164   2.790   0.068
 1752SOL     OW 5797   1.861   3.431   0.851
 1752SOL    HW1 5798   1.790   3.419   0.781
 1752SOL    HW2 5799   1.862   3.352   0.911
 1753SOL     OW 5800   0.221   3.176   1.844
 1753SOL    HW1 5801   0.156   3.103   1.823
 1753SOL    HW2 5802   0.225   3.190   1.942
 1754SOL     OW 5803   0.079   3.102   0.653
 1754SOL    HW1 5804   0.078   3.055   0.741
 1754SOL    HW2 5805   0.161   3.074   0.602
 1755SOL     OW 5806   0.672   3.253   1.624
 1755SOL    HW1 5807   0.594   3.203   1.662
 1755SOL    HW2 5808   0.669   3.348   1.655
 1756SOL     OW 5809   0.428   2.286   0.520
 1756SOL    HW1 5810   0.458   2.214   0.458
 1756SOL    HW2 5811   0.389   2.246   0.603
 1757SOL     OW 5812   1.705   3.349   1.104
 1757SOL    HW1 5813   1.612   3.324   1.077
 1757SOL    HW2 5814   1.731   3.299   1.186
 1758SOL     OW 5815   0.317   2.409   1.280
 1758SOL    HW1 5816   0.355   2.350   1.352
 1758SOL    HW2 5817   0.357   2.383   1.192
 1759SOL     OW 5818   0.812   3.448   0.687
 1759SOL    HW1 5819   0.844   3.458   0.593
 1759SOL    HW2 5820   0.733   3.386   0.689
 1760SOL     OW 5821   1.424   2.076   1.112
 1760SOL    HW1 5822   1.476   2.011   1.167
 1760SOL    HW2 5823   1.375   2.139   1.173
 1761SOL     OW 5824   1.001   1.896   1.154
 1761SOL    HW1 5825   0.938   1.824   1.123
 1761SOL    HW2 5826   1.094   1.860   1.154
 1762SOL     OW 5827   0.770   3.192   0.301
 1762SOL    HW1 5828   0.724   3.105   0.318
 1762SOL    HW2 5829   0.861   3.189   0.342
 1763SOL     OW 5830   0.618   3.429   1.284
 1763SOL    HW1 5831   0.613   3.511   1.341
 1763SOL    HW2 5832   0.707   3.426   1.239
 1764SOL     OW 5833   1.352   1.914   0.168
 1764SOL    HW1 5834   1.387   1.873   0.084
 1764SOL    HW2 5835   1.262   1.876   0.188
 1765SOL     OW 5836   1.300   2.315   0.691
 1765SOL    HW1 5837   1.241   2.395   0.695
 1765SOL    HW2 5838   1.315   2.280   0.784
 1766SOL     OW 5839   1.593   2.083   0.882
 1766SOL    HW1 5840   1.509   2.082   0.936
 1766SOL    HW2 5841   1.595   2.166   0.826
 1767SOL     OW 5842   0.039   2.939   0.300
 1767SOL    HW1 5843   0.138   2.928   0.291
 1767SOL    HW2 5844  -0.001   2.853   0.332
 1768SOL     OW 5845   0.875   3.508   0.337
 1768SOL    HW1 5846   0.798   3.473   0.283
 1768SOL    HW2 5847   0.843   3.579   0.399
 1769SOL     OW 5848   0.230   2.490   1.975
 1769SOL    HW1 5849   0.137   2.488   2.012
 1769SOL    HW2 5850   0.231   2.451   1.883
 1770SOL     OW 5851   0.225   2.137   2.858
 1770SOL    HW1 5852   0.260   2.120   2.950
 1770SOL    HW2 5853   0.137   2.092   2.846
 1771SOL     OW 5854   0.019   2.230   2.509
 1771SOL    HW1 5855  -0.063   2.273   2.548
 1771SOL    HW2 5856  -0.009   2.157   2.446
 1772SOL     OW 5857   0.569   3.137   3.027
 1772SOL    HW1 5858   0.476   3.130   2.990
 1772SOL    HW2 5859   0.580   3.226   3.071
 1773SOL     OW 5860   1.555   3.373   2.565
 1773SOL    HW1 5861   1.498   3.357   2.646
 1773SOL    HW2 5862   1.496   3.383   2.485
 1774SOL     OW 5863   1.135   2.565   2.579
 1774SOL    HW1 5864   1.192   2.643   2.554
 1774SOL    HW2 5865   1.075   2.591   2.655
 1775SOL     OW 5866   1.755   2.469   2.093
 1775SOL    HW1 5867   1.743   2.456   1.994
 1775SOL    HW2 5868   1.725   2.388   2.142
 1776SOL     OW 5869   0.768   3.006   2.885
 1776SOL    HW1 5870   0.690   3.023   2.945
 1776SOL    HW2 5871   0.802   3.093   2.849
 1777SOL     OW 5872   0.850   2.660   3.685
 1777SOL    HW1 5873   0.846   2.736   3.750
 1777SOL    HW2 5874   0.872   2.696   3.594
 1778SOL     OW 5875   0.685   2.874   2.527
 1778SOL    HW1 5876   0.754   2.858   2.597
 1778SOL    HW2 5877   0.612   2.931   2.565
 1779SOL     OW 5878   0.686   3.023   3.665
 1779SOL    HW1 5879   0.746   3.102   3.679
 1779SOL    HW2 5880   0.600   3.054   3.624
 1780SOL     OW 5881   0.335   3.297   2.923
 1780SOL    HW1 5882   0.257   3.266   2.870
 1780SOL    HW2 5883   0.393   3.355   2.866
 1781SOL     OW 5884   1.460   3.367   3.201
 1781SOL    HW1 5885   1.484   3.461   3.227
 1781SOL    HW2 5886   1.444   3.313   3.283
 1782SOL     OW 5887   0.438   2.254   3.361
 1782SOL    HW1 5888   0.520   2.198   3.370
 1782SOL    HW2 5889   0.357   2.196   3.365
 1783SOL     OW 5890   1.603   2.309   2.599
 1783SOL    HW1 5891   1.529   2.355   2.549
 1783SOL    HW2 5892   1.654   2.377   2.652
 1784SOL     OW 5893   0.231   3.575   2.345
 1784SOL    HW1 5894   0.265   3.652   2.399
 1784SOL    HW2 5895   0.275   3.575   2.255
 1785SOL     OW 5896   1.127   3.203   3.552
 1785SOL    HW1 5897   1.174   3.203   3.640
 1785SOL    HW2 5898   1.079   3.116   3.541
 1786SOL     OW 5899   0.230   3.296   2.400
 1786SOL    HW1 5900   0.204   3.392   2.400
 1786SOL    HW2 5901   0.159   3.242   2.445
 1787SOL     OW 5902   0.240   2.953   2.748
 1787SOL    HW1 5903   0.254   2.869   2.800
 1787SOL    HW2 5904   0.185   3.017   2.803
 1788SOL     OW 5905   0.620   3.648   3.301
 1788SOL    HW1 5906   0.528   3.631   3.336
 1788SOL    HW2 5907   0.648   3.740   3.327
 1789SOL     OW 5908   0.606   2.826   1.985
 1789SOL    HW1 5909   0.613   2.910   1.931
 1789SOL    HW2 5910   0.652   2.839   2.073
 1790SOL     OW 5911   1.594   1.976   3.342
 1790SOL    HW1 5912   1.576   2.043   3.270
 1790SOL    HW2 5913   1.591   2.022   3.431
 1791SOL     OW 5914   0.122   2.505   2.425
 1791SOL    HW1 5915   0.077   2.417   2.442
 1791SOL    HW2 5916   0.121   2.559   2.509
 1792SOL     OW 5917   1.842   3.629   2.221
 1792SOL    HW1 5918   1.896   3.600   2.301
 1792SOL    HW2 5919   1.872   3.719   2.192
 1793SOL     OW 5920   0.027   3.458   1.979
 1793SOL    HW1 5921   0.008   3.362   2.000
 1793SOL    HW2 5922  -0.006   3.516   2.054
 1794SOL     OW 5923   1.689   2.784   2.474
 1794SOL    HW1 5924   1.784   2.755   2.482
 1794SOL    HW2 5925   1.681   2.849   2.399
 1795SOL     OW 5926   1.641   2.970   2.294
 1795SOL    HW1 5927   1.727   2.972   2.242
 1795SOL    HW2 5928   1.655   3.017   2.382
 1796SOL     OW 5929   0.113   2.599   3.459
 1796SOL    HW1 5930   0.201   2.586   3.504
 1796SOL    HW2 5931   0.100   2.696   3.437
 1797SOL     OW 5932   0.613   3.227   2.588
 1797SOL    HW1 5933   0.564   3.140   2.597
 1797SOL    HW2 5934   0.590   3.270   2.501
 1798SOL     OW 5935   1.293   3.090   3.285
 1798SOL    HW1 5936   1.330   3.017   3.227
 1798SOL    HW2 5937   1.345   3.095   3.370
 1799SOL     OW 5938   0.809   1.866   2.364
 1799SOL    HW1 5939   0.849   1.957   2.355
 1799SOL    HW2 5940   0.709   1.874   2.370
 1800SOL     OW 5941   0.197   2.838   3.126
 1800SOL    HW1 5942   0.286   2.793   3.112
 1800SOL    HW2 5943   0.124   2.773   3.107
 1801SOL     OW 5944   1.525   2.861   2.052
 1801SOL    HW1 5945   1.462   2.785   2.065
 1801SOL    HW2 5946   1.573   2.879   2.138
 1802SOL     OW 5947   1.187   3.654   3.478
 1802SOL    HW1 5948   1.211   3.714   3.402
 1802SOL    HW2 5949   1.194   3.559   3.448
 1803SOL     OW 5950   0.317   2.113   3.663
 1803SOL    HW1 5951   0.388   2.184   3.669
 1803SOL    HW2 5952   0.229   2.152   3.691
 1804SOL     OW 5953   1.466   3.279   2.815
 1804SOL    HW1 5954   1.407   3.285   2.895
 1804SOL    HW2 5955   1.451   3.191   2.769
 1805SOL     OW 5956   1.667   3.576   2.434
 1805SOL    HW1 5957   1.626   3.553   2.346
 1805SOL    HW2 5958   1.649   3.502   2.499
 1806SOL     OW 5959   0.598   2.591   2.132
 1806SOL    HW1 5960   0.622   2.660   2.064
 1806SOL    HW2 5961   0.520   2.624   2.186
 1807SOL     OW 5962   1.281   2.207   2.806
 1807SOL    HW1 5963   1.195   2.157   2.793
 1807SOL    HW2 5964   1.343   2.153   2.862
 1808SOL     OW 5965   1.576   3.524   2.169
 1808SOL    HW1 5966   1.665   3.570   2.172
 1808SOL    HW2 5967   1.555   3.500   2.074
 1809SOL     OW 5968   0.807   2.467   3.327
 1809SOL    HW1 5969   0.760   2.464   3.416
 1809SOL    HW2 5970   0.756   2.412   3.261
 1810SOL     OW 5971   1.394   2.331   3.536
 1810SOL    HW1 5972   1.374   2.374   3.624
 1810SOL    HW2 5973   1.472   2.269   3.545
 1811SOL     OW 5974   0.973   2.752   3.434
 1811SOL    HW1 5975   1.019   2.668   3.405
 1811SOL    HW2 5976   0.917   2.786   3.359
 1812SOL     OW 5977   0.991   2.272   3.104
 1812SOL    HW1 5978   0.914   2.306   3.158
 1812SOL    HW2 5979   0.957   2.221   3.025
 1813SOL     OW 5980   1.041   2.563   2.291
 1813SOL    HW1 5981   1.067   2.559   2.387
 1813SOL    HW2 5982   0.956   2.512   2.277
 1814SOL     OW 5983   0.076   2.673   2.651
 1814SOL    HW1 5984   0.175   2.661   2.660
 1814SOL    HW2 5985   0.052   2.768   2.672
 1815SOL     OW 5986   0.130   3.683   3.433
 1815SOL    HW1 5987   0.120   3.668   3.532
 1815SOL    HW2 5988   0.044   3.719   3.397
 1816SOL     OW 5989   0.865   2.210   2.057
 1816SOL    HW1 5990   0.924   2.273   2.008
 1816SOL    HW2 5991   0.884   2.116   2.028
 1817SOL     OW 5992   1.719   2.447   3.693
 1817SOL    HW1 5993   1.693   2.536   3.657
 1817SOL    HW2 5994   1.717   2.379   3.620
 1818SOL     OW 5995   1.362   3.006   2.407
 1818SOL    HW1 5996   1.445   2.977   2.359
 1818SOL    HW2 5997   1.313   3.073   2.351
 1819SOL     OW 5998   0.550   2.058   2.747
 1819SOL    HW1 5999   0.545   2.053   2.847
 1819SOL    HW2 6000   0.552   2.154   2.718
 1820SOL     OW 6001   1.008   3.318   2.339
 1820SOL    HW1 6002   0.962   3.390   2.287
 1820SOL    HW2 6003   1.004   3.338   2.437
 1821SOL     OW 6004   0.351   3.663   2.715
 1821SOL    HW1 6005   0.401   3.577   2.721
 1821SOL    HW2 6006   0.416   3.740   2.712
 1822SOL     OW 6007   1.795   2.928   2.735
 1822SOL    HW1 6008   1.733   2.913   2.659
 1822SOL    HW2 6009   1.743   2.939   2.820
 1823SOL     OW 6010   1.227   3.412   3.368
 1823SOL    HW1 6011   1.233   3.335   3.432
 1823SOL    HW2 6012   1.175   3.386   3.288
 1824SOL     OW 6013   0.321   2.805   2.104
 1824SOL    HW1 6014   0.403   2.844   2.062
 1824SOL    HW2 6015   0.294   2.723   2.055
 1825SOL     OW 6016   1.458   2.597   2.590
 1825SOL    HW1 6017   1.453   2.532   2.665
 1825SOL    HW2 6018   1.538   2.656   2.603
 1826SOL     OW 6019   0.461   3.128   3.589
 1826SOL    HW1 6020   0.411   3.129   3.503
 1826SOL    HW2 6021   0.398   3.110   3.665
 1827SOL     OW 6022   1.111   3.638   2.099
 1827SOL    HW1 6023   1.051   3.576   2.149
 1827SOL    HW2 6024   1.142   3.594   2.014
 1828SOL     OW 6025   0.202   2.147   3.360
 1828SOL    HW1 6026   0.122   2.207   3.347
 1828SOL    HW2 6027   0.192   2.098   3.446
 1829SOL     OW 6028   1.632   3.239   1.943
 1829SOL    HW1 6029   1.600   3.333   1.933
 1829SOL    HW2 6030   1.556   3.176   1.931
 1830SOL     OW 6031   0.464   3.605   2.185
 1830SOL    HW1 6032   0.497   3.644   2.271
 1830SOL    HW2 6033   0.540   3.598   2.120
 1831SOL     OW 6034   1.400   1.969   2.288
 1831SOL    HW1 6035   1.376   1.932   2.198
 1831SOL    HW2 6036   1.499   1.985   2.292
 1832SOL     OW 6037   0.249   3.647   3.103
 1832SOL    HW1 6038   0.306   3.582   3.153
 1832SOL    HW2 6039   0.233   3.614   3.010
 1833SOL     OW 6040   0.940   3.560   2.766
 1833SOL    HW1 6041   1.020   3.503   2.787
 1833SOL    HW2 6042   0.891   3.520   2.689
 1834SOL     OW 6043   0.382   2.562   2.342
 1834SOL    HW1 6044   0.427   2.472   2.339
 1834SOL    HW2 6045   0.288   2.551   2.375
 1835SOL     OW 6046   1.547   2.084   3.591
 1835SOL    HW1 6047   1.542   2.121   3.683
 1835SOL    HW2 6048   1.475   2.015   3.579
 1836SOL     OW 6049   0.614   1.984   1.979
 1836SOL    HW1 6050   0.712   1.962   1.986
 1836SOL    HW2 6051   0.583   1.967   1.886
 1837SOL     OW 6052   0.781   2.126   3.611
 1837SOL    HW1 6053   0.848   2.065   3.654
 1837SOL    HW2 6054   0.708   2.145   3.676
 1838SOL     OW 6055   0.888   3.376   3.057
 1838SOL    HW1 6056   0.865   3.351   2.963
 1838SOL    HW2 6057   0.949   3.307   3.096
 1839SOL     OW 6058   1.351   2.452   3.295
 1839SOL    HW1 6059   1.379   2.409   3.380
 1839SOL    HW2 6060   1.376   2.548   3.296
 1840SOL     OW 6061   0.803   3.264   2.786
 1840SOL    HW1 6062   0.893   3.278   2.744
 1840SOL    HW2 6063   0.732   3.266   2.715
 1841SOL     OW 6064   0.922   2.365   2.761
 1841SOL    HW1 6065   0.897   2.356   2.665
 1841SOL    HW2 6066   0.970   2.283   2.792
 1842SOL     OW 6067   0.539   1.926   2.374
 1842SOL    HW1 6068   0.458   1.927   2.432
 1842SOL    HW2 6069   0.542   2.009   2.319
 1843SOL     OW 6070   1.434   3.050   1.903
 1843SOL    HW1 6071   1.466   2.974   1.960
 1843SOL    HW2 6072   1.342   3.077   1.933
 1844SOL     OW 6073   0.297   1.897   2.033
 1844SOL    HW1 6074   0.346   1.981   2.012
 1844SOL    HW2 6075   0.359   1.832   2.078
 1845SOL     OW 6076   0.935   2.098   2.342
 1845SOL    HW1 6077   0.887   2.139   2.264
 1845SOL    HW2 6078   1.034   2.096   2.323
 1846SOL     OW 6079   1.076   2.545   3.326
 1846SOL    HW1 6080   0.996   2.484   3.329
 1846SOL    HW2 6081   1.157   2.492   3.302
 1847SOL     OW 6082   1.227   3.432   2.655
 1847SOL    HW1 6083   1.248   3.506   2.590
 1847SOL    HW2 6084   1.295   3.432   2.728
 1848SOL     OW 6085   0.459   3.014   2.603
 1848SOL    HW1 6086   0.388   2.987   2.668
 1848SOL    HW2 6087   0.433   2.986   2.510
 1849SOL     OW 6088   1.271   3.659   2.453
 1849SOL    HW1 6089   1.315   3.723   2.389
 1849SOL    HW2 6090   1.221   3.711   2.523
 1850SOL     OW 6091   1.032   2.411   1.878
 1850SOL    HW1 6092   0.991   2.493   1.839
 1850SOL    HW2 6093   1.096   2.437   1.951
 1851SOL     OW 6094   0.078   2.418   3.248
 1851SOL    HW1 6095   0.170   2.417   3.207
 1851SOL    HW2 6096   0.072   2.492   3.315
 1852SOL     OW 6097   0.561   2.084   3.009
 1852SOL    HW1 6098   0.599   2.000   3.046
 1852SOL    HW2 6099   0.473   2.103   3.053
 1853SOL     OW 6100   0.866   2.316   2.504
 1853SOL    HW1 6101   0.834   2.388   2.442
 1853SOL    HW2 6102   0.890   2.235   2.451
 1854SOL     OW 6103   1.017   1.901   2.615
 1854SOL    HW1 6104   0.945   1.906   2.546
 1854SOL    HW2 6105   0.993   1.832   2.684
 1855SOL     OW 6106   1.429   3.035   2.729
 1855SOL    HW1 6107   1.374   2.951   2.722
 1855SOL    HW2 6108   1.455   3.064   2.637
 1856SOL     OW 6109   1.466   2.452   2.854
 1856SOL    HW1 6110   1.436   2.357   2.861
 1856SOL    HW2 6111   1.539   2.468   2.920
 1857SOL     OW 6112   1.857   2.695   2.239
 1857SOL    HW1 6113   1.899   2.631   2.303
 1857SOL    HW2 6114   1.819   2.644   2.161
 1858SOL     OW 6115   0.488   3.247   2.036
 1858SOL    HW1 6116   0.401   3.232   2.083
 1858SOL    HW2 6117   0.471   3.273   1.941
 1859SOL     OW 6118   1.664   3.142   2.519
 1859SOL    HW1 6119   1.763   3.150   2.533
 1859SOL    HW2 6120   1.619   3.226   2.550
 1860SOL     OW 6121   1.390   2.437   1.940
 1860SOL    HW1 6122   1.336   2.416   2.021
 1860SOL    HW2 6123   1.481   2.396   1.949
 1861SOL     OW 6124   0.527   2.118   2.190
 1861SOL    HW1 6125   0.554   2.059   2.115
 1861SOL    HW2 6126   0.527   2.213   2.159
 1862SOL     OW 6127   1.754   3.085   3.450
 1862SOL    HW1 6128   1.845   3.046   3.437
 1862SOL    HW2 6129   1.762   3.181   3.474
 1863SOL     OW 6130   1.064   3.209   3.202
 1863SOL    HW1 6131   0.984   3.186   3.257
 1863SOL    HW2 6132   1.147   3.183   3.251
 1864SOL     OW 6133   1.592   3.491   3.487
 1864SOL    HW1 6134   1.619   3.525   3.397
 1864SOL    HW2 6135   1.671   3.453   3.533
 1865SOL     OW 6136   1.111   3.057   2.962
 1865SOL    HW1 6137   1.071   3.101   3.043
 1865SOL    HW2 6138   1.070   3.094   2.879
 1866SOL     OW 6139   1.638   2.961   2.941
 1866SOL    HW1 6140   1.643   3.042   3.000
 1866SOL    HW2 6141   1.552   2.963   2.890
 1867SOL     OW 6142   0.915   1.951   3.264
 1867SOL    HW1 6143   0.940   1.931   3.169
 1867SOL    HW2 6144   0.987   2.007   3.306
 1868SOL     OW 6145   0.980   2.978   3.581
 1868SOL    HW1 6146   0.881   2.984   3.591
 1868SOL    HW2 6147   1.003   2.898   3.525
 1869SOL     OW 6148   0.705   2.912   2.230
 1869SOL    HW1 6149   0.691   2.919   2.329
 1869SOL    HW2 6150   0.789   2.861   2.212
 1870SOL     OW 6151   0.410   2.675   3.113
 1870SOL    HW1 6152   0.496   2.687   3.163
 1870SOL    HW2 6153   0.368   2.588   3.140
 1871SOL     OW 6154   1.274   2.248   3.124
 1871SOL    HW1 6155   1.295   2.322   3.188
 1871SOL    HW2 6156   1.185   2.265   3.081
 1872SOL     OW 6157   0.064   3.426   3.193
 1872SOL    HW1 6158   0.018   3.508   3.159
 1872SOL    HW2 6159   0.162   3.445   3.202
 1873SOL     OW 6160   0.367   2.962   2.363
 1873SOL    HW1 6161   0.360   3.045   2.307
 1873SOL    HW2 6162   0.371   2.882   2.303
 1874SOL     OW 6163   0.566   2.399   2.727
 1874SOL    HW1 6164   0.578   2.465   2.653
 1874SOL    HW2 6165   0.612   2.433   2.810
 1875SOL     OW 6166   1.252   3.210   2.250
 1875SOL    HW1 6167   1.302   3.287   2.290
 1875SOL    HW2 6168   1.157   3.212   2.282
 1876SOL     OW 6169   1.272   3.307   3.004
 1876SOL    HW1 6170   1.319   3.320   3.091
 1876SOL    HW2 6171   1.206   3.233   3.013
 1877SOL     OW 6172   1.582   2.501   2.334
 1877SOL    HW1 6173   1.551   2.562   2.407
 1877SOL    HW2 6174   1.632   2.553   2.265
 1878SOL     OW 6175   0.354   3.372   3.191
 1878SOL    HW1 6176   0.333   3.328   3.104
 1878SOL    HW2 6177   0.451   3.398   3.194
 1879SOL     OW 6178   0.402   2.613   3.460
 1879SOL    HW1 6179   0.470   2.668   3.413
 1879SOL    HW2 6180   0.442   2.525   3.487
 1880SOL     OW 6181   1.587   2.641   3.532
 1880SOL    HW1 6182   1.495   2.679   3.527
 1880SOL    HW2 6183   1.647   2.688   3.467
 1881SOL     OW 6184   1.013   1.967   3.632
 1881SOL    HW1 6185   1.019   2.052   3.580
 1881SOL    HW2 6186   1.045   1.891   3.575
 1882SOL     OW 6187   0.504   1.912   3.602
 1882SOL    HW1 6188   0.462   1.855   3.532
 1882SOL    HW2 6189   0.438   1.981   3.634
 1883SOL     OW 6190   0.573   2.732   2.891
 1883SOL    HW1 6191   0.617   2.821   2.882
 1883SOL    HW2 6192   0.510   2.732   2.968
 1884SOL     OW 6193   1.360   2.724   2.907
 1884SOL    HW1 6194   1.285   2.724   2.841
 1884SOL    HW2 6195   1.397   2.632   2.916
 1885SOL     OW 6196   1.209   2.387   2.137
 1885SOL    HW1 6197   1.222   2.303   2.191
 1885SOL    HW2 6198   1.180   2.461   2.197
 1886SOL     OW 6199   0.307   2.075   3.093
 1886SOL    HW1 6200   0.284   2.112   3.183
 1886SOL    HW2 6201   0.277   1.980   3.087
 1887SOL     OW 6202   0.037   3.172   3.144
 1887SOL    HW1 6203   0.090   3.123   3.212
 1887SOL    HW2 6204   0.059   3.270   3.149
 1888SOL     OW 6205   0.732   2.496   2.926
 1888SOL    HW1 6206   0.791   2.470   2.850
 1888SOL    HW2 6207   0.704   2.592   2.915
 1889SOL     OW 6208   1.728   2.797   3.716
 1889SOL    HW1 6209   1.682   2.790   3.627
 1889SOL    HW2 6210   1.666   2.841   3.782
 1890SOL     OW 6211   0.307   1.925   2.480
 1890SOL    HW1 6212   0.296   2.019   2.513
 1890SOL    HW2 6213   0.302   1.862   2.557
 1891SOL     OW 6214   1.622   2.229   2.236
 1891SOL    HW1 6215   1.624   2.153   2.300
 1891SOL    HW2 6216   1.574   2.306   2.276
 1892SOL     OW 6217   1.023   2.628   2.828
 1892SOL    HW1 6218   1.038   2.649   2.924
 1892SOL    HW2 6219   0.993   2.533   2.819
 1893SOL     OW 6220   0.980   3.435   3.562
 1893SOL    HW1 6221   0.960   3.479   3.474
 1893SOL    HW2 6222   1.019   3.344   3.546
 1894SOL     OW 6223   1.859   3.380   3.467
 1894SOL    HW1 6224   1.873   3.407   3.372
 1894SOL    HW2 6225   1.942   3.402   3.520
 1895SOL     OW 6226   0.350   2.760   3.666
 1895SOL    HW1 6227   0.426   2.804   3.714
 1895SOL    HW2 6228   0.385   2.713   3.584
 1896SOL     OW 6229   1.540   2.136   1.987
 1896SOL    HW1 6230   1.479   2.061   2.010
 1896SOL    HW2 6231   1.562   2.188   2.070
 1897SOL     OW 6232   1.303   2.700   1.904
 1897SOL    HW1 6233   1.337   2.607   1.919
 1897SOL    HW2 6234   1.321   2.727   1.809
 1898SOL     OW 6235   1.068   3.195   2.711
 1898SOL    HW1 6236   1.075   3.111   2.656
 1898SOL    HW2 6237   1.130   3.264   2.675
 1899SOL     OW 6238   0.319   2.672   2.811
 1899SOL    HW1 6239   0.412   2.708   2.816
 1899SOL    HW2 6240   0.313   2.587   2.863
 1900SOL     OW 6241   0.339   2.371   2.868
 1900SOL    HW1 6242   0.287   2.288   2.851
 1900SOL    HW2 6243   0.416   2.376   2.804
 1901SOL     OW 6244   1.138   2.242   3.540
 1901SOL    HW1 6245   1.093   2.305   3.604
 1901SOL    HW2 6246   1.231   2.273   3.523
 1902SOL     OW 6247   1.160   2.069   3.339
 1902SOL    HW1 6248   1.160   2.133   3.416
 1902SOL    HW2 6249   1.188   2.117   3.256
 1903SOL     OW 6250   0.008   3.188   2.062
 1903SOL    HW1 6251  -0.085   3.209   2.031
 1903SOL    HW2 6252   0.018   3.089   2.075
 1904SOL     OW 6253   0.088   3.663   2.789
 1904SOL    HW1 6254   0.046   3.577   2.762
 1904SOL    HW2 6255   0.182   3.666   2.755
 1905SOL     OW 6256   0.504   3.430   2.772
 1905SOL    HW1 6257   0.570   3.504   2.781
 1905SOL    HW2 6258   0.548   3.351   2.730
 1906SOL     OW 6259   1.002   2.658   3.100
 1906SOL    HW1 6260   1.043   2.626   3.186
 1906SOL    HW2 6261   0.906   2.631   3.097
 1907SOL     OW 6262   0.040   2.406   2.976
 1907SOL    HW1 6263   0.125   2.373   2.935
 1907SOL    HW2 6264   0.053   2.421   3.074
 1908SOL     OW 6265   0.189   2.382   3.584
 1908SOL    HW1 6266   0.248   2.342   3.514
 1908SOL    HW2 6267   0.131   2.453   3.543
 1909SOL     OW 6268   1.369   2.812   3.522
 1909SOL    HW1 6269   1.408   2.901   3.542
 1909SOL    HW2 6270   1.379   2.792   3.425
 1910SOL     OW 6271   0.815   2.434   2.187
 1910SOL    HW1 6272   0.822   2.345   2.141
 1910SOL    HW2 6273   0.721   2.468   2.179
 1911SOL     OW 6274   1.657   2.466   3.068
 1911SOL    HW1 6275   1.619   2.397   3.130
 1911SOL    HW2 6276   1.739   2.430   3.024
 1912SOL     OW 6277   0.252   3.426   3.606
 1912SOL    HW1 6278   0.222   3.483   3.682
 1912SOL    HW2 6279   0.245   3.329   3.632
 1913SOL     OW 6280   0.671   2.326   3.131
 1913SOL    HW1 6281   0.637   2.237   3.101
 1913SOL    HW2 6282   0.697   2.380   3.051
 1914SOL     OW 6283   0.930   3.540   3.327
 1914SOL    HW1 6284   0.906   3.522   3.232
 1914SOL    HW2 6285   0.960   3.634   3.337
 1915SOL     OW 6286   0.473   2.362   2.053
 1915SOL    HW1 6287   0.534   2.442   2.057
 1915SOL    HW2 6288   0.378   2.393   2.060
 1916SOL     OW 6289   0.159   2.999   3.328
 1916SOL    HW1 6290   0.181   2.938   3.404
 1916SOL    HW2 6291   0.169   2.950   3.242
 1917SOL     OW 6292   1.347   2.921   3.096
 1917SOL    HW1 6293   1.371   2.858   3.022
 1917SOL    HW2 6294   1.257   2.961   3.078
 1918SOL     OW 6295   1.302   2.717   2.171
 1918SOL    HW1 6296   1.216   2.686   2.213
 1918SOL    HW2 6297   1.298   2.703   2.072
 1919SOL     OW 6298   1.759   3.609   3.016
 1919SOL    HW1 6299   1.820   3.639   2.943
 1919SOL    HW2 6300   1.721   3.520   2.994
 1920SOL     OW 6301   1.252   3.593   2.990
 1920SOL    HW1 6302   1.336   3.598   2.936
 1920SOL    HW2 6303   1.229   3.497   3.008
 1921SOL     OW 6304   0.083   3.120   2.884
 1921SOL    HW1 6305   0.078   3.119   2.984
 1921SOL    HW2 6306   0.000   3.079   2.846
 1922SOL     OW 6307   0.688   3.524   3.578
 1922SOL    HW1 6308   0.632   3.605   3.587
 1922SOL    HW2 6309   0.740   3.528   3.492
 1923SOL     OW 6310   1.388   3.435   2.339
 1923SOL    HW1 6311   1.455   3.447   2.265
 1923SOL    HW2 6312   1.348   3.524   2.362
 1924SOL     OW 6313   0.130   3.656   3.713
 1924SOL    HW1 6314   0.089   3.582   3.766
 1924SOL    HW2 6315   0.194   3.707   3.771
 1925SOL     OW 6316   1.280   2.789   2.534
 1925SOL    HW1 6317   1.340   2.708   2.536
 1925SOL    HW2 6318   1.320   2.858   2.474
 1926SOL     OW 6319   0.830   3.135   3.284
 1926SOL    HW1 6320   0.825   3.168   3.379
 1926SOL    HW2 6321   0.744   3.154   3.238
 1927SOL     OW 6322   0.672   3.478   2.016
 1927SOL    HW1 6323   0.681   3.488   1.917
 1927SOL    HW2 6324   0.632   3.389   2.037
 1928SOL     OW 6325   1.650   3.582   3.256
 1928SOL    HW1 6326   1.703   3.592   3.172
 1928SOL    HW2 6327   1.623   3.672   3.290
 1929SOL     OW 6328   0.263   2.188   2.582
 1929SOL    HW1 6329   0.184   2.239   2.548
 1929SOL    HW2 6330   0.254   2.173   2.680
 1930SOL     OW 6331   1.194   3.474   1.893
 1930SOL    HW1 6332   1.200   3.381   1.930
 1930SOL    HW2 6333   1.135   3.474   1.813
 1931SOL     OW 6334   0.822   2.864   3.234
 1931SOL    HW1 6335   0.862   2.863   3.142
 1931SOL    HW2 6336   0.832   2.956   3.274
 1932SOL     OW 6337   0.916   2.772   2.153
 1932SOL    HW1 6338   0.979   2.810   2.085
 1932SOL    HW2 6339   0.956   2.689   2.192
 1933SOL     OW 6340   1.504   3.469   1.906
 1933SOL    HW1 6341   1.412   3.506   1.913
 1933SOL    HW2 6342   1.542   3.489   1.816
 1934SOL     OW 6343   0.372   3.150   3.352
 1934SOL    HW1 6344   0.359   3.243   3.318
 1934SOL    HW2 6345   0.288   3.098   3.339
 1935SOL     OW 6346   1.614   3.154   3.151
 1935SOL    HW1 6347   1.674   3.157   3.231
 1935SOL    HW2 6348   1.539   3.218   3.164
 1936SOL     OW 6349   1.039   2.960   2.558
 1936SOL    HW1 6350   0.969   2.913   2.612
 1936SOL    HW2 6351   1.098   2.892   2.515
 1937SOL     OW 6352   1.014   2.098   2.833
 1937SOL    HW1 6353   1.006   2.062   2.740
 1937SOL    HW2 6354   1.012   2.022   2.898
 1938SOL     OW 6355   0.590   3.349   2.353
 1938SOL    HW1 6356   0.632   3.291   2.283
 1938SOL    HW2 6357   0.546   3.428   2.309
 1939SOL     OW 6358   1.709   2.247   3.243
 1939SOL    HW1 6359   1.782   2.316   3.247
 1939SOL    HW2 6360   1.737   2.172   3.184
 1940SOL     OW 6361   0.255   3.210   2.152
 1940SOL    HW1 6362   0.159   3.211   2.125
 1940SOL    HW2 6363   0.267   3.263   2.236
 1941SOL     OW 6364   0.105   2.875   3.588
 1941SOL    HW1 6365   0.028   2.842   3.642
 1941SOL    HW2 6366   0.190   2.845   3.630
 1942SOL     OW 6367   0.672   2.065   3.351
 1942SOL    HW1 6368   0.762   2.049   3.311
 1942SOL    HW2 6369   0.680   2.070   3.450
 1943SOL     OW 6370   0.075   2.207   1.895
 1943SOL    HW1 6371  -0.017   2.179   1.866
 1943SOL    HW2 6372   0.106   2.284   1.839
 1944SOL     OW 6373   1.440   2.718   3.260
 1944SOL    HW1 6374   1.383   2.770   3.197
 1944SOL    HW2 6375   1.536   2.730   3.236
 1945SOL     OW 6376   0.072   2.028   2.180
 1945SOL    HW1 6377   0.055   2.111   2.126
 1945SOL    HW2 6378   0.162   1.991   2.158
 1946SOL     OW 6379   1.183   3.197   1.981
 1946SOL    HW1 6380   1.084   3.186   1.983
 1946SOL    HW2 6381   1.217   3.212   2.074
 1947SOL     OW 6382   0.613   2.704   3.293
 1947SOL    HW1 6383   0.669   2.785   3.276
 1947SOL    HW2 6384   0.672   2.624   3.296
 1948SOL     OW 6385   1.493   3.629   2.821
 1948SOL    HW1 6386   1.526   3.693   2.752
 1948SOL    HW2 6387   1.559   3.623   2.896
 1949SOL     OW 6388   0.716   2.427   3.570
 1949SOL    HW1 6389   0.735   2.492   3.644
 1949SOL    HW2 6390   0.776   2.347   3.579
 1950SOL     OW 6391   1.450   3.082   3.495
 1950SOL    HW1 6392   1.441   3.072   3.594
 1950SOL    HW2 6393   1.546   3.075   3.469
 1951SOL     OW 6394   0.390   3.603   3.422
 1951SOL    HW1 6395   0.299   3.644   3.420
 1951SOL    HW2 6396   0.383   3.509   3.454
 1952SOL     OW 6397   1.674   2.745   3.116
 1952SOL    HW1 6398   1.647   2.656   3.079
 1952SOL    HW2 6399   1.675   2.813   3.043
 1953SOL     OW 6400   1.225   2.187   2.311
 1953SOL    HW1 6401   1.290   2.113   2.300
 1953SOL    HW2 6402   1.245   2.237   2.395
 1954SOL     OW 6403   0.594   2.607   2.514
 1954SOL    HW1 6404   0.644   2.692   2.495
 1954SOL    HW2 6405   0.506   2.609   2.466
 1955SOL     OW 6406   1.777   2.204   3.504
 1955SOL    HW1 6407   1.760   2.235   3.410
 1955SOL    HW2 6408   1.693   2.167   3.542
 1956SOL     OW 6409   1.730   2.796   3.379
 1956SOL    HW1 6410   1.768   2.887   3.394
 1956SOL    HW2 6411   1.722   2.779   3.280
 1957SOL     OW 6412   0.859   3.236   1.878
 1957SOL    HW1 6413   0.813   3.251   1.966
 1957SOL    HW2 6414   0.903   3.321   1.848
 1958SOL     OW 6415   0.661   3.652   2.815
 1958SOL    HW1 6416   0.615   3.740   2.802
 1958SOL    HW2 6417   0.760   3.664   2.808
 1959SOL     OW 6418   0.859   2.818   2.723
 1959SOL    HW1 6419   0.913   2.749   2.771
 1959SOL    HW2 6420   0.827   2.887   2.789
 1960SOL     OW 6421   1.083   2.846   1.949
 1960SOL    HW1 6422   1.060   2.899   1.867
 1960SOL    HW2 6423   1.164   2.790   1.930
 1961SOL     OW 6424   1.861   3.431   2.713
 1961SOL    HW1 6425   1.790   3.419   2.643
 1961SOL    HW2 6426   1.862   3.352   2.773
 1962SOL     OW 6427   0.221   3.176   3.706
 1962SOL    HW1 6428   0.156   3.103   3.685
 1962SOL    HW2 6429   0.225   3.190   3.804
 1963SOL     OW 6430   0.079   3.102   2.515
 1963SOL    HW1 6431   0.078   3.055   2.603
 1963SOL    HW2 6432   0.161   3.074   2.464
 1964SOL     OW 6433   0.672   3.253   3.486
 1964SOL    HW1 6434   0.594   3.203   3.524
 1964SOL    HW2 6435   0.669   3.348   3.517
 1965SOL     OW 6436   0.428   2.286   2.382
 1965SOL    HW1 6437   0.458   2.214   2.320
 1965SOL    HW2 6438   0.389   2.246   2.465
 1966SOL     OW 6439   1.705   3.349   2.966
 1966SOL    HW1 6440   1.612   3.324   2.939
 1966SOL    HW2 6441   1.731   3.299   3.048
 1967SOL     OW 6442   0.317   2.409   3.142
 1967SOL    HW1 6443   0.355   2.350   3.214
 1967SOL    HW2 6444   0.357   2.383   3.054
 1968SOL     OW 6445   0.812   3.448   2.549
 1968SOL    HW1 6446   0.844   3.458   2.455
 1968SOL    HW2 6447   0.733   3.386   2.551
 1969SOL     OW 6448   1.424   2.076   2.974
 1969SOL    HW1 6449   1.476   2.011   3.029
 1969SOL    HW2 6450   1.375   2.139   3.035
 1970SOL     OW 6451   1.001   1.896   3.016
 1970SOL    HW1 6452   0.938   1.824   2.985
 1970SOL    HW2 6453   1.094   1.860   3.016
 1971SOL     OW 6454   0.770   3.192   2.163
 1971SOL    HW1 6455   0.724   3.105   2.180
 1971SOL    HW2 6456   0.861   3.189   2.204
 1972SOL     OW 6457   0.618   3.429   3.146
 1972SOL    HW1 6458   0.613   3.511   3.203
 1972SOL    HW2 6459   0.707   3.426   3.101
 1973SOL     OW 6460   1.352   1.914   2.030
 1973SOL    HW1 6461   1.387   1.873   1.946
 1973SOL    HW2 6462   1.262   1.876   2.050
 1974SOL     OW 6463   1.300   2.315   2.553
 1974SOL    HW1 6464   1.241   2.395   2.557
 1974SOL    HW2 6465   1.315   2.280   2.646
 1975SOL     OW 6466   1.593   2.083   2.744
 1975SOL    HW1 6467   1.509   2.082   2.798
 1975SOL    HW2 6468   1.595   2.166   2.688
 1976SOL     OW 6469   0.039   2.939   2.162
 1976SOL    HW1 6470   0.138   2.928   2.153
 1976SOL    HW2 6471  -0.001   2.853   2.194
 1977SOL     OW 6472   0.875   3.508   2.199
 1977SOL    HW1 6473   0.798   3.473   2.145
 1977SOL    HW2 6474   0.843   3.579   2.261
 1978SOL     OW 6475   0.230   2.490   3.837
 1978SOL    HW1 6476   0.137   2.488   3.874
 1978SOL    HW2 6477   0.231   2.451   3.745
 1979SOL     OW 6478   0.225   2.137   4.720
 1979SOL    HW1 6479   0.260   2.120   4.812
 1979SOL    HW2 6480   0.137   2.092   4.708
 1980SOL     OW 6481   0.019   2.230   4.371
 1980SOL    HW1 6482  -0.063   2.273   4.410
 1980SOL    HW2 6483  -0.009   2.157   4.308
 1981SOL     OW 6484   0.569   3.137   4.889
 1981SOL    HW1 6485   0.476   3.130   4.852
 1981SOL    HW2 6486   0.580   3.226   4.933
 1982SOL     OW 6487   1.555   3.373   4.427
 1982SOL    HW1 6488   1.498   3.357   4.508
 1982SOL    HW2 6489   1.496   3.383   4.347
 1983SOL     OW 6490   1.135   2.565   4.441
 1983SOL    HW1 6491   1.192   2.643   4.416
 1983SOL    HW2 6492   1.075   2.591   4.517
 1984SOL     OW 6493   1.755   2.469   3.955
 1984SOL    HW1 6494   1.743   2.456   3.856
 1984SOL    HW2 6495   1.725   2.388   4.004
 1985SOL     OW 6496   0.768   3.006   4.747
 1985SOL    HW1 6497   0.690   3.023   4.807
 1985SOL    HW2 6498   0.802   3.093   4.711
 1986SOL     OW 6499   0.850   2.660   5.547
 1986SOL    HW1 6500   0.846   2.736   5.612
 1986SOL    HW2 6501   0.872   2.696   5.456
 1987SOL     OW 6502   0.685   2.874   4.389
 1987SOL    HW1 6503   0.754   2.858   4.459
 1987SOL    HW2 6504   0.612   2.931   4.427
 1988SOL     OW 6505   0.686   3.023   5.527
 1988SOL    HW1 6506   0.746   3.102   5.541
 1988SOL    HW2 6507   0.600   3.054   5.486
 1989SOL     OW 6508   0.335   3.297   4.785
 1989SOL    HW1 6509   0.257   3.266   4.732
 1989SOL    HW2 6510   0.393   3.355   4.728
 1990SOL     OW 6511   1.460   3.367   5.063
 1990SOL    HW1 6512   1.484   3.461   5.089
 1990SOL    HW2 6513   1.444   3.313   5.145
 1991SOL     OW 6514   0.438   2.254   5.223
 1991SOL    HW1 6515   0.520   2.198   5.232
 1991SOL    HW2 6516   0.357   2.196   5.227
 1992SOL     OW 6517   1.603   2.309   4.461
 1992SOL    HW1 6518   1.529   2.355   4.411
 1992SOL    HW2 6519   1.654   2.377   4.514
 1993SOL     OW 6520   0.231   3.575   4.207
 1993SOL    HW1 6521   0.265   3.652   4.261
 1993SOL    HW2 6522   0.275   3.575   4.117
 1994SOL     OW 6523   1.127   3.203   5.414
 1994SOL    HW1 6524   1.174   3.203   5.502
 1994SOL    HW2 6525   1.079   3.116   5.403
 1995SOL     OW 6526   0.230   3.296   4.262
 1995SOL    HW1 6527   0.204   3.392   4.262
 1995SOL    HW2 6528   0.159   3.242   4.307
 1996SOL     OW 6529   0.240   2.953   4.610
 1996SOL    HW1 6530   0.254   2.869   4.662
 1996SOL    HW2 6531   0.185   3.017   4.665
 1997SOL     OW 6532   0.620   3.648   5.163
 1997SOL    HW1 6533   0.528   3.631   5.198
 1997SOL    HW2 6534   0.648   3.740   5.189
 1998SOL     OW 6535   0.606   2.826   3.847
 1998SOL    HW1 6536   0.613   2.910   3.793
 1998SOL    HW2 6537   0.652   2.839   3.935
 1999SOL     OW 6538   1.594   1.976   5.204
 1999SOL    HW1 6539   1.576   2.043   5.132
 1999SOL    HW2 6540   1.591   2.022   5.293
 2000SOL     OW 6541   0.122   2.505   4.287
 2000SOL    HW1 6542   0.077   2.417   4.304
 2000SOL    HW2 6543   0.121   2.559   4.371
 2001SOL     OW 6544   1.842   3.629   4.083
 2001SOL    HW1 6545   1.896   3.600   4.163
 2001SOL    HW2 6546   1.872   3.719   4.054
 2002SOL     OW 6547   0.027   3.458   3.841
 2002SOL    HW1 6548   0.008   3.362   3.862
 2002SOL    HW2 6549  -0.006   3.516   3.916
 2003SOL     OW 6550   1.689   2.784   4.336
 2003SOL    HW1 6551   1.784   2.755   4.344
 2003SOL    HW2 6552   1.681   2.849   4.261
 2004SOL     OW 6553   1.641   2.970   4.156
 2004SOL    HW1 6554   1.727   2.972   4.104
 2004SOL    HW2 6555   1.655   3.017   4.244
 2005SOL     OW 6556   0.113   2.599   5.321
 2005SOL    HW1 6557   0.201   2.586   5.366
 2005SOL    HW2 6558   0.100   2.696   5.299
 2006SOL     OW 6559   0.613   3.227   4.450
 2006SOL    HW1 6560   0.564   3.140   4.459
 2006SOL    HW2 6561   0.590   3.270   4.363
 2007SOL     OW 6562   1.293   3.090   5.147
 2007SOL    HW1 6563   1.330   3.017   5.089
 2007SOL    HW2 6564   1.345   3.095   5.232
 2008SOL     OW 6565   0.809   1.866   4.226
 2008SOL    HW1 6566   0.849   1.957   4.217
 2008SOL    HW2 6567   0.709   1.874   4.232
 2009SOL     OW 6568   0.197   2.838   4.988
 2009SOL    HW1 6569   0.286   2.793   4.974
 2009SOL    HW2 6570   0.124   2.773   4.969
 2010SOL     OW 6571   1.525   2.861   3.914
 2010SOL    HW1 6572   1.462   2.785   3.927
 2010SOL    HW2 6573   1.573   2.879   4.000
 2011SOL     OW 6574   1.187   3.654   5.340
 2011SOL    HW1 6575   1.211   3.714   5.264
 2011SOL    HW2 6576   1.194   3.559   5.310
 2012SOL     OW 6577   0.317   2.113   5.525
 2012SOL    HW1 6578   0.388   2.184   5.531
 2012SOL    HW2 6579   0.229   2.152   5.553
 2013SOL     OW 6580   1.466   3.279   4.677
 2013SOL    HW1 6581   1.407   3.285   4.757
 2013SOL    HW2 6582   1.451   3.191   4.631
 2014SOL     OW 6583   1.667   3.576   4.296
 2014SOL    HW1 6584   1.626   3.553   4.208
 2014SOL    HW2 6585   1.649   3.502   4.361
 2015SOL     OW 6586   0.598   2.591   3.994
 2015SOL    HW1 6587   0.622   2.660   3.926
 2015SOL    HW2 6588   0.520   2.624   4.048
 2016SOL     OW 6589   1.281   2.207   4.668
 2016SOL    HW1 6590   1.195   2.157   4.655
 2016SOL    HW2 6591   1.343   2.153   4.724
 2017SOL     OW 6592   1.576   3.524   4.031
 2017SOL    HW1 6593   1.665   3.570   4.034
 2017SOL    HW2 6594   1.555   3.500   3.936
 2018SOL     OW 6595   0.807   2.467   5.189
 2018SOL    HW1 6596   0.760   2.464   5.278
 2018SOL    HW2 6597   0.756   2.412   5.123
 2019SOL     OW 6598   1.394   2.331   5.398
 2019SOL    HW1 6599   1.374   2.374   5.486
 2019SOL    HW2 6600   1.472   2.269   5.407
 2020SOL     OW 6601   0.973   2.752   5.296
 2020SOL    HW1 6602   1.019   2.668   5.267
 2020SOL    HW2 6603   0.917   2.786   5.221
 2021SOL     OW 6604   0.991   2.272   4.966
 2021SOL    HW1 6605   0.914   2.306   5.020
 2021SOL    HW2 6606   0.957   2.221   4.887
 2022SOL     OW 6607   1.041   2.563   4.153
 2022SOL    HW1 6608   1.067   2.559   4.249
 2022SOL    HW2 6609   0.956   2.512   4.139
 2023SOL     OW 6610   0.076   2.673   4.513
 2023SOL    HW1 6611   0.175   2.661   4.522
 2023SOL    HW2 6612   0.052   2.768   4.534
 2024SOL     OW 6613   0.130   3.683   5.295
 2024SOL    HW1 6614   0.120   3.668   5.394
 2024SOL    HW2 6615   0.044   3.719   5.259
 2025SOL     OW 6616   0.865   2.210   3.919
 2025SOL    HW1 6617   0.924   2.273   3.870
 2025SOL    HW2 6618   0.884   2.116   3.890
 2026SOL     OW 6619   1.719   2.447   5.555
 2026SOL    HW1 6620   1.693   2.536   5.519
 2026SOL    HW2 6621   1.717   2.379   5.482
 2027SOL     OW 6622   1.362   3.006   4.269
 2027SOL    HW1 6623   1.445   2.977   4.221
 2027SOL    HW2 6624   1.313   3.073   4.213
 2028SOL     OW 6625   0.550   2.058   4.609
 2028SOL    HW1 6626   0.545   2.053   4.709
 2028SOL    HW2 6627   0.552   2.154   4.580
 2029SOL     OW 6628   1.008   3.318   4.201
 2029SOL    HW1 6629   0.962   3.390   4.149
 2029SOL    HW2 6630   1.004   3.338   4.299
 2030SOL     OW 6631   0.351   3.663   4.577
 2030SOL    HW1 6632   0.401   3.577   4.583
 2030SOL    HW2 6633   0.416   3.740   4.574
 2031SOL     OW 6634   1.795   2.928   4.597
 2031SOL    HW1 6635   1.733   2.913   4.521
 2031SOL    HW2 6636   1.743   2.939   4.682
 2032SOL     OW 6637   1.227   3.412   5.230
 2032SOL    HW1 6638   1.233   3.335   5.294
 2032SOL    HW2 6639   1.175   3.386   5.150
 2033SOL     OW 6640   0.321   2.805   3.966
 2033SOL    HW1 6641   0.403   2.844   3.924
 2033SOL    HW2 6642   0.294   2.723   3.917
 2034SOL     OW 6643   1.458   2.597   4.452
 2034SOL    HW1 6644   1.453   2.532   4.527
 2034SOL    HW2 6645   1.538   2.656   4.465
 2035SOL     OW 6646   0.461   3.128   5.451
 2035SOL    HW1 6647   0.411   3.129   5.365
 2035SOL    HW2 6648   0.398   3.110   5.527
 2036SOL     OW 6649   1.111   3.638   3.961
 2036SOL    HW1 6650   1.051   3.576   4.011
 2036SOL    HW2 6651   1.142   3.594   3.876
 2037SOL     OW 6652   0.202   2.147   5.222
 2037SOL    HW1 6653   0.122   2.207   5.209
 2037SOL    HW2 6654   0.192   2.098   5.308
 2038SOL     OW 6655   1.632   3.239   3.805
 2038SOL    HW1 6656   1.600   3.333   3.795
 2038SOL    HW2 6657   1.556   3.176   3.793
 2039SOL     OW 6658   0.464   3.605   4.047
 2039SOL    HW1 6659   0.497   3.644   4.133
 2039SOL    HW2 6660   0.540   3.598   3.982
 2040SOL     OW 6661   1.400   1.969   4.150
 2040SOL    HW1 6662   1.376   1.932   4.060
 2040SOL    HW2 6663   1.499   1.985   4.154
 2041SOL     OW 6664   0.249   3.647   4.965
 2041SOL    HW1 6665   0.306   3.582   5.015
 2041SOL    HW2 6666   0.233   3.614   4.872
 2042SOL     OW 6667   0.940   3.560   4.628
 2042SOL    HW1 6668   1.020   3.503   4.649
 2042SOL    HW2 6669   0.891   3.520   4.551
 2043SOL     OW 6670   0.382   2.562   4.204
 2043SOL    HW1 6671   0.427   2.472   4.201
 2043SOL    HW2 6672   0.288   2.551   4.237
 2044SOL     OW 6673   1.547   2.084   5.453
 2044SOL    HW1 6674   1.542   2.121   5.545
 2044SOL    HW2 6675   1.475   2.015   5.441
 2045SOL     OW 6676   0.614   1.984   3.841
 2045SOL    HW1 6677   0.712   1.962   3.848
 2045SOL    HW2 6678   0.583   1.967   3.748
 2046SOL     OW 6679   0.781   2.126   5.473
 2046SOL    HW1 6680   0.848   2.065   5.516
 2046SOL    HW2 6681   0.708   2.145   5.538
 2047SOL     OW 6682   0.888   3.376   4.919
 2047SOL    HW1 6683   0.865   3.351   4.825
 2047SOL    HW2 6684   0.949   3.307   4.958
 2048SOL     OW 6685   1.351   2.452   5.157
 2048SOL    HW1 6686   1.379   2.409   5.242
 2048SOL    HW2 6687   1.376   2.548   5.158
 2049SOL     OW 6688   0.803   3.264   4.648
 2049SOL    HW1 6689   0.893   3.278   4.606
 2049SOL    HW2 6690   0.732   3.266   4.577
 2050SOL     OW 6691   0.922   2.365   4.623
 2050SOL    HW1 6692   0.897   2.356   4.527
 2050SOL    HW2 6693   0.970   2.283   4.654
 2051SOL     OW 6694   0.539   1.926   4.236
 2051SOL    HW1 6695   0.458   1.927   4.294
 2051SOL    HW2 6696   0.542   2.009   4.181
 2052SOL     OW 6697   1.434   3.050   3.765
 2052SOL    HW1 6698   1.466   2.974   3.822
 2052SOL    HW2 6699   1.342   3.077   3.795
 2053SOL     OW 6700   0.297   1.897   3.895
 2053SOL    HW1 6701   0.346   1.981   3.874
 2053SOL    HW2 6702   0.359   1.832   3.940
 2054SOL     OW 6703   0.935   2.098   4.204
 2054SOL    HW1 6704   0.887   2.139   4.126
 2054SOL    HW2 6705   1.034   2.096   4.185
 2055SOL     OW 6706   1.076   2.545   5.188
 2055SOL    HW1 6707   0.996   2.484   5.191
 2055SOL    HW2 6708   1.157   2.492   5.164
 2056SOL     OW 6709   1.227   3.432   4.517
 2056SOL    HW1 6710   1.248   3.506   4.452
 2056SOL    HW2 6711   1.295   3.432   4.590
 2057SOL     OW 6712   0.459   3.014   4.465
 2057SOL    HW1 6713   0.388   2.987   4.530
 2057SOL    HW2 6714   0.433   2.986   4.372
 2058SOL     OW 6715   1.271   3.659   4.315
 2058SOL    HW1 6716   1.315   3.723   4.251
 2058SOL    HW2 6717   1.221   3.711   4.385
 2059SOL     OW 6718   1.032   2.411   3.740
 2059SOL    HW1 6719   0.991   2.493   3.701
 2059SOL    HW2 6720   1.096   2.437   3.813
 2060SOL     OW 6721   0.078   2.418   5.110
 2060SOL    HW1 6722   0.170   2.417   5.069
 2060SOL    HW2 6723   0.072   2.492   5.177
 2061SOL     OW 6724   0.561   2.084   4.871
 2061SOL    HW1 6725   0.599   2.000   4.908
 2061SOL    HW2 6726   0.473   2.103   4.915
 2062SOL     OW 6727   0.866   2.316   4.366
 2062SOL    HW1 6728   0.834   2.388   4.304
 2062SOL    HW2 6729   0.890   2.235   4.313
 2063SOL     OW 6730   1.017   1.901   4.477
 2063SOL    HW1 6731   0.945   1.906   4.408
 2063SOL    HW2 6732   0.993   1.832   4.546
 2064SOL     OW 6733   1.429   3.035   4.591
 2064SOL    HW1 6734   1.374   2.951   4.584
 2064SOL    HW2 6735   1.455   3.064   4.499
 2065SOL     OW 6736   1.466   2.452   4.716
 2065SOL    HW1 6737   1.436   2.357   4.723
 2065SOL    HW2 6738   1.539   2.468   4.782
 2066SOL     OW 6739   1.857   2.695   4.101
 2066SOL    HW1 6740   1.899   2.631   4.165
 2066SOL    HW2 6741   1.819   2.644   4.023
 2067SOL     OW 6742   0.488   3.247   3.898
 2067SOL    HW1 6743   0.401   3.232   3.945
 2067SOL    HW2 6744   0.471   3.273   3.803
 2068SOL     OW 6745   1.664   3.142   4.381
 2068SOL    HW1 6746   1.763   3.150   4.395
 2068SOL    HW2 6747   1.619   3.226   4.412
 2069SOL     OW 6748   1.390   2.437   3.802
 2069SOL    HW1 6749   1.336   2.416   3.883
 2069SOL    HW2 6750   1.481   2.396   3.811
 2070SOL     OW 6751   0.527   2.118   4.052
 2070SOL    HW1 6752   0.554   2.059   3.977
 2070SOL    HW2 6753   0.527   2.213   4.021
 2071SOL     OW 6754   1.754   3.085   5.312
 2071SOL    HW1 6755   1.845   3.046   5.299
 2071SOL    HW2 6756   1.762   3.181   5.336
 2072SOL     OW 6757   1.064   3.209   5.064
 2072SOL    HW1 6758   0.984   3.186   5.119
 2072SOL    HW2 6759   1.147   3.183   5.113
 2073SOL     OW 6760   1.592   3.491   5.349
 2073SOL    HW1 6761   1.619   3.525   5.259
 2073SOL    HW2 6762   1.671   3.453   5.395
 2074SOL     OW 6763   1.111   3.057   4.824
 2074SOL    HW1 6764   1.071   3.101   4.905
 2074SOL    HW2 6765   1.070   3.094   4.741
 2075SOL     OW 6766   1.638   2.961   4.803
 2075SOL    HW1 6767   1.643   3.042   4.862
 2075SOL    HW2 6768   1.552   2.963   4.752
 2076SOL     OW 6769   0.915   1.951   5.126
 2076SOL    HW1 6770   0.940   1.931   5.031
 2076SOL    HW2 6771   0.987   2.007   5.168
 2077SOL     OW 6772   0.980   2.978   5.443
 2077SOL    HW1 6773   0.881   2.984   5.453
 2077SOL    HW2 6774   1.003   2.898   5.387
 2078SOL     OW 6775   0.705   2.912   4.092
 2078SOL    HW1 6776   0.691   2.919   4.191
 2078SOL    HW2 6777   0.789   2.861   4.074
 2079SOL     OW 6778   0.410   2.675   4.975
 2079SOL    HW1 6779   0.496   2.687   5.025
 2079SOL    HW2 6780   0.368   2.588   5.002
 2080SOL     OW 6781   1.274   2.248   4.986
 2080SOL    HW1 6782   1.295   2.322   5.050
 2080SOL    HW2 6783   1.185   2.265   4.943
 2081SOL     OW 6784   0.064   3.426   5.055
 2081SOL    HW1 6785   0.018   3.508   5.021
 2081SOL    HW2 6786   0.162   3.445   5.064
 2082SOL     OW 6787   0.367   2.962   4.225
 2082SOL    HW1 6788   0.360   3.045   4.169
 2082SOL    HW2 6789   0.371   2.882   4.165
 2083SOL     OW 6790   0.566   2.399   4.589
 2083SOL    HW1 6791   0.578   2.465   4.515
 2083SOL    HW2 6792   0.612   2.433   4.672
 2084SOL     OW 6793   1.252   3.210   4.112
 2084SOL    HW1 6794   1.302   3.287   4.152
 2084SOL    HW2 6795   1.157   3.212   4.144
 2085SOL     OW 6796   1.272   3.307   4.866
 2085SOL    HW1 6797   1.319   3.320   4.953
 2085SOL    HW2 6798   1.206   3.233   4.875
 2086SOL     OW 6799   1.582   2.501   4.196
 2086SOL    HW1 6800   1.551   2.562   4.269
 2086SOL    HW2 6801   1.632   2.553   4.127
 2087SOL     OW 6802   0.354   3.372   5.053
 2087SOL    HW1 6803   0.333   3.328   4.966
 2087SOL    HW2 6804   0.451   3.398   5.056
 2088SOL     OW 6805   0.402   2.613   5.322
 2088SOL    HW1 6806   0.470   2.668   5.275
 2088SOL    HW2 6807   0.442   2.525   5.349
 2089SOL     OW 6808   1.587   2.641   5.394
 2089SOL    HW1 6809   1.495   2.679   5.389
 2089SOL    HW2 6810   1.647   2.688   5.329
 2090SOL     OW 6811   1.013   1.967   5.494
 2090SOL    HW1 6812   1.019   2.052   5.442
 2090SOL    HW2 6813   1.045   1.891   5.437
 2091SOL     OW 6814   0.504   1.912   5.464
 2091SOL    HW1 6815   0.462   1.855   5.394
 2091SOL    HW2 6816   0.438   1.981   5.496
 2092SOL     OW 6817   0.573   2.732   4.753
 2092SOL    HW1 6818   0.617   2.821   4.744
 2092SOL    HW2 6819   0.510   2.732   4.830
 2093SOL     OW 6820   1.360   2.724   4.769
 2093SOL    HW1 6821   1.285   2.724   4.703
 2093SOL    HW2 6822   1.397   2.632   4.778
 2094SOL     OW 6823   1.209   2.387   3.999
 2094SOL    HW1 6824   1.222   2.303   4.053
 2094SOL    HW2 6825   1.180   2.461   4.059
 2095SOL     OW 6826   0.307   2.075   4.955
 2095SOL    HW1 6827   0.284   2.112   5.045
 2095SOL    HW2 6828   0.277   1.980   4.949
 2096SOL     OW 6829   0.037   3.172   5.006
 2096SOL    HW1 6830   0.090   3.123   5.074
 2096SOL    HW2 6831   0.059   3.270   5.011
 2097SOL     OW 6832   0.732   2.496   4.788
 2097SOL    HW1 6833   0.791   2.470   4.712
 2097SOL    HW2 6834   0.704   2.592   4.777
 2098SOL     OW 6835   1.728   2.797   5.578
 2098SOL    HW1 6836   1.682   2.790   5.489
 2098SOL    HW2 6837   1.666   2.841   5.644
 2099SOL     OW 6838   0.307   1.925   4.342
 2099SOL    HW1 6839   0.296   2.019   4.375
 2099SOL    HW2 6840   0.302   1.862   4.419
 2100SOL     OW 6841   1.622   2.229   4.098
 2100SOL    HW1 6842   1.624   2.153   4.162
 2100SOL    HW2 6843   1.574   2.306   4.138
 2101SOL     OW 6844   1.023   2.628   4.690
 2101SOL    HW1 6845   1.038   2.649   4.786
 2101SOL    HW2 6846   0.993   2.533   4.681
 2102SOL     OW 6847   0.980   3.435   5.424
 2102SOL    HW1 6848   0.960   3.479   5.336
 2102SOL    HW2 6849   1.019   3.344   5.408
 2103SOL     OW 6850   1.859   3.380   5.329
 2103SOL    HW1 6851   1.873   3.407   5.234
 2103SOL    HW2 6852   1.942   3.402   5.382
 2104SOL     OW 6853   0.350   2.760   5.528
 2104SOL    HW1 6854   0.426   2.804   5.576
 2104SOL    HW2 6855   0.385   2.713   5.446
 2105SOL     OW 6856   1.540   2.136   3.849
 2105SOL    HW1 6857   1.479   2.061   3.872
 2105SOL    HW2 6858   1.562   2.188   3.932
 2106SOL     OW 6859   1.303   2.700   3.766
 2106SOL    HW1 6860   1.337   2.607   3.781
 2106SOL    HW2 6861   1.321   2.727   3.671
 2107SOL     OW 6862   1.068   3.195   4.573
 2107SOL    HW1 6863   1.075   3.111   4.518
 2107SOL    HW2 6864   1.130   3.264   4.537
 2108SOL     OW 6865   0.319   2.672   4.673
 2108SOL    HW1 6866   0.412   2.708   4.678
 2108SOL    HW2 6867   0.313   2.587   4.725
 2109SOL     OW 6868   0.339   2.371   4.730
 2109SOL    HW1 6869   0.287   2.288   4.713
 2109SOL    HW2 6870   0.416   2.376   4.666
 2110SOL     OW 6871   1.138   2.242   5.402
 2110SOL    HW1 6872   1.093   2.305   5.466
 2110SOL    HW2 6873   1.231   2.273   5.385
 2111SOL     OW 6874   1.160   2.069   5.201
 2111SOL    HW1 6875   1.160   2.133   5.278
 2111SOL    HW2 6876   1.188   2.117   5.118
 2112SOL     OW 6877   0.008   3.188   3.924
 2112SOL    HW1 6878  -0.085   3.209   3.893
 2112SOL    HW2 6879   0.018   3.089   3.937
 2113SOL     OW 6880   0.088   3.663   4.651
 2113SOL    HW1 6881   0.046   3.577   4.624
 2113SOL    HW2 6882   0.182   3.666   4.617
 2114SOL     OW 6883   0.504   3.430   4.634
 2114SOL    HW1 6884   0.570   3.504   4.643
 2114SOL    HW2 6885   0.548   3.351   4.592
 2115SOL     OW 6886   1.002   2.658   4.962
 2115SOL    HW1 6887   1.043   2.626   5.048
 2115SOL    HW2 6888   0.906   2.631   4.959
 2116SOL     OW 6889   0.040   2.406   4.838
 2116SOL    HW1 6890   0.125   2.373   4.797
 2116SOL    HW2 6891   0.053   2.421   4.936
 2117SOL     OW 6892   0.189   2.382   5.446
 2117SOL    HW1 6893   0.248   2.342   5.376
 2117SOL    HW2 6894   0.131   2.453   5.405
 2118SOL     OW 6895   1.369   2.812   5.384
 2118SOL    HW1 6896   1.408   2.901   5.404
 2118SOL    HW2 6897   1.379   2.792   5.287
 2119SOL     OW 6898   0.815   2.434   4.049
 2119SOL    HW1 6899   0.822   2.345   4.003
 2119SOL    HW2 6900   0.721   2.468   4.041
 2120SOL     OW 6901   1.657   2.466   4.930
 2120SOL    HW1 6902   1.619   2.397   4.992
 2120SOL    HW2 6903   1.739   2.430   4.886
 2121SOL     OW 6904   0.252   3.426   5.468
 2121SOL    HW1 6905   0.222   3.483   5.544
 2121SOL    HW2 6906   0.245   3.329   5.494
 2122SOL     OW 6907   0.671   2.326   4.993
 2122SOL    HW1 6908   0.637   2.237   4.963
 2122SOL    HW2 6909   0.697   2.380   4.913
 2123SOL     OW 6910   0.930   3.540   5.189
 2123SOL    HW1 6911   0.906   3.522   5.094
 2123SOL    HW2 6912   0.960   3.634   5.199
 2124SOL     OW 6913   0.473   2.362   3.915
 2124SOL    HW1 6914   0.534   2.442   3.919
 2124SOL    HW2 6915   0.378   2.393   3.922
 2125SOL     OW 6916   0.159   2.999   5.190
 2125SOL    HW1 6917   0.181   2.938   5.266
 2125SOL    HW2 6918   0.169   2.950   5.104
 2126SOL     OW 6919   1.347   2.921   4.958
 2126SOL    HW1 6920   1.371   2.858   4.884
 2126SOL    HW2 6921   1.257   2.961   4.940
 2127SOL     OW 6922   1.302   2.717   4.033
 2127SOL    HW1 6923   1.216   2.686   4.075
 2127SOL    HW2 6924   1.298   2.703   3.934
 2128SOL     OW 6925   1.759   3.609   4.878
 2128SOL    HW1 6926   1.820   3.639   4.805
 2128SOL    HW2 6927   1.721   3.520   4.856
 2129SOL     OW 6928   1.252   3.593   4.852
 2129SOL    HW1 6929   1.336   3.598   4.798
 2129SOL    HW2 6930   1.229   3.497   4.870
 2130SOL     OW 6931   0.083   3.120   4.746
 2130SOL    HW1 6932   0.078   3.119   4.846
 2130SOL    HW2 6933   0.000   3.079   4.708
 2131SOL     OW 6934   0.688   3.524   5.440
 2131SOL    HW1 6935   0.632   3.605   5.449
 2131SOL    HW2 6936   0.740   3.528   5.354
 2132SOL     OW 6937   1.388   3.435   4.201
 2132SOL    HW1 6938   1.455   3.447   4.127
 2132SOL    HW2 6939   1.348   3.524   4.224
 2133SOL     OW 6940   0.130   3.656   5.575
 2133SOL    HW1 6941   0.089   3.582   5.628
 2133SOL    HW2 6942   0.194   3.707   5.633
 2134SOL     OW 6943   1.280   2.789   4.396
 2134SOL    HW1 6944   1.340   2.708   4.398
 2134SOL    HW2 6945   1.320   2.858   4.336
 2135SOL     OW 6946   0.830   3.135   5.146
 2135SOL    HW1 6947   0.825   3.168   5.241
 2135SOL    HW2 6948   0.744   3.154   5.100
 2136SOL     OW 6949   0.672   3.478   3.878
 2136SOL    HW1 6950   0.681   3.488   3.779
 2136SOL    HW2 6951   0.632   3.389   3.899
 2137SOL     OW 6952   1.650   3.582   5.118
 2137SOL    HW1 6953   1.703   3.592   5.034
 2137SOL    HW2 6954   1.623   3.672   5.152
 2138SOL     OW 6955   0.263   2.188   4.444
 2138SOL    HW1 6956   0.184   2.239   4.410
 2138SOL    HW2 6957   0.254   2.173   4.542
 2139SOL     OW 6958   1.194   3.474   3.755
 2139SOL    HW1 6959   1.200   3.381   3.792
 2139SOL    HW2 6960   1.135   3.474   3.675
 2140SOL     OW 6961   0.822   2.864   5.096
 2140SOL    HW1 6962   0.862   2.863   5.004
 2140SOL    HW2 6963   0.832   2.956   5.136
 2141SOL     OW 6964   0.916   2.772   4.015
 2141SOL    HW1 6965   0.979   2.810   3.947
 2141SOL    HW2 6966   0.956   2.689   4.054
 2142SOL     OW 6967   1.504   3.469   3.768
 2142SOL    HW1 6968   1.412   3.506   3.775
 2142SOL    HW2 6969   1.542   3.489   3.678
 2143SOL     OW 6970   0.372   3.150   5.214
 2143SOL    HW1 6971   0.359   3.243   5.180
 2143SOL    HW2 6972   0.288   3.098   5.201
 2144SOL     OW 6973   1.614   3.154   5.013
 2144SOL    HW1 6974   1.674   3.157   5.093
 2144SOL    HW2 6975   1.539   3.218   5.026
 2145SOL     OW 6976   1.039   2.960   4.420
 2145SOL    HW1 6977   0.969   2.913   4.474
 2145SOL    HW2 6978   1.098   2.892   4.377
 2146SOL     OW 6979   1.014   2.098   4.695
 2146SOL    HW1 6980   1.006   2.062   4.602
 2146SOL    HW2 6981   1.012   2.022   4.760
 2147SOL     OW 6982   0.590   3.349   4.215
 2147SOL    HW1 6983   0.632   3.291   4.145
 2147SOL    HW2 6984   0.546   3.428   4.171
 2148SOL     OW 6985   1.709   2.247   5.105
 2148SOL    HW1 6986   1.782   2.316   5.109
 2148SOL    HW2 6987   1.737   2.172   5.046
 2149SOL     OW 6988   0.255   3.210   4.014
 2149SOL    HW1 6989   0.159   3.211   3.987
 2149SOL    HW2 6990   0.267   3.263   4.098
 2150SOL     OW 6991   0.105   2.875   5.450
 2150SOL    HW1 6992   0.028   2.842   5.504
 2150SOL    HW2 6993   0.190   2.845   5.492
 2151SOL     OW 6994   0.672   2.065   5.213
 2151SOL    HW1 6995   0.762   2.049   5.173
 2151SOL    HW2 6996   0.680   2.070   5.312
 2152SOL     OW 6997   0.075   2.207   3.757
 2152SOL    HW1 6998  -0.017   2.179   3.728
 2152SOL    HW2 6999   0.106   2.284   3.701
 2153SOL     OW 7000   1.440   2.718   5.122
 2153SOL    HW1 7001   1.383   2.770   5.059
 2153SOL    HW2 7002   1.536   2.730   5.098
 2154SOL     OW 7003   0.072   2.028   4.042
 2154SOL    HW1 7004   0.055   2.111   3.988
 2154SOL    HW2 7005   0.162   1.991   4.020
 2155SOL     OW 7006   1.183   3.197   3.843
 2155SOL    HW1 7007   1.084   3.186   3.845
 2155SOL    HW2 7008   1.217   3.212   3.936
 2156SOL     OW 7009   0.613   2.704   5.155
 2156SOL    HW1 7010   0.669   2.785   5.138
 2156SOL    HW2 7011   0.672   2.624   5.158
 2157SOL     OW 7012   1.493   3.629   4.683
 2157SOL    HW1 7013   1.526   3.693   4.614
 2157SOL    HW2 7014   1.559   3.623   4.758
 2158SOL     OW 7015   0.716   2.427   5.432
 2158SOL    HW1 7016   0.735   2.492   5.506
 2158SOL    HW2 7017   0.776   2.347   5.441
 2159SOL     OW 7018   1.450   3.082   5.357
 2159SOL    HW1 7019   1.441   3.072   5.456
 2159SOL    HW2 7020   1.546   3.075   5.331
 2160SOL     OW 7021   0.390   3.603   5.284
 2160SOL    HW1 7022   0.299   3.644   5.282
 2160SOL    HW2 7023   0.383   3.509   5.316
 2161SOL     OW 7024   1.674   2.745   4.978
 2161SOL    HW1 7025   1.647   2.656   4.941
 2161SOL    HW2 7026   1.675   2.813   4.905
 2162SOL     OW 7027   1.225   2.187   4.173
 2162SOL    HW1 7028   1.290   2.113   4.162
 2162SOL    HW2 7029   1.245   2.237   4.257
 2163SOL     OW 7030   0.594   2.607   4.376
 2163SOL    HW1 7031   0.644   2.692   4.357
 2163SOL    HW2 7032   0.506   2.609   4.328
 2164SOL     OW 7033   1.777   2.204   5.366
 2164SOL    HW1 7034   1.760   2.235   5.272
 2164SOL    HW2 7035   1.693   2.167   5.404
 2165SOL     OW 7036   1.730   2.796   5.241
 2165SOL    HW1 7037   1.768   2.887   5.256
 2165SOL    HW2 7038   1.722   2.779   5.142
 2166SOL     OW 7039   0.859   3.236   3.740
 2166SOL    HW1 7040   0.813   3.251   3.828
 2166SOL    HW2 7041   0.903   3.321   3.710
 2167SOL     OW 7042   0.661   3.652   4.677
 2167SOL    HW1 7043   0.615   3.740   4.664
 2167SOL    HW2 7044   0.760   3.664   4.670
 2168SOL     OW 7045   0.859   2.818   4.585
 2168SOL    HW1 7046   0.913   2.749   4.633
 2168SOL    HW2 7047   0.827   2.887   4.651
 2169SOL     OW 7048   1.083   2.846   3.811
 2169SOL    HW1 7049   1.060   2.899   3.729
 2169SOL    HW2 7050   1.164   2.790   3.792
 2170SOL     OW 7051   1.861   3.431   4.575
 2170SOL    HW1 7052   1.790   3.419   4.505
 2170SOL    HW2 7053   1.862   3.352   4.635
 2171SOL     OW 7054   0.221   3.176   5.568
 2171SOL    HW1 7055   0.156   3.103   5.547
 2171SOL    HW2 7056   0.225   3.190   5.666
 2172SOL     OW 7057   0.079   3.102   4.377
 2172SOL    HW1 7058   0.078   3.055   4.465
 2172SOL    HW2 7059   0.161   3.074   4.326
 2173SOL     OW 7060   0.672   3.253   5.348
 2173SOL    HW1 7061   0.594   3.203   5.386
 2173SOL    HW2 7062   0.669   3.348   5.379
 2174SOL     OW 7063   0.428   2.286   4.244
 2174SOL    HW1 7064   0.458   2.214   4.182
 2174SOL    HW2 7065   0.389   2.246   4.327
 2175SOL     OW 7066   1.705   3.349   4.828
 2175SOL    HW1 7067   1.612   3.324   4.801
 2175SOL    HW2 7068   1.731   3.299   4.910
 2176SOL     OW 7069   0.317   2.409   5.004
 2176SOL    HW1 7070   0.355   2.350   5.076
 2176SOL    HW2 7071   0.357   2.383   4.916
 2177SOL     OW 7072   0.812   3.448   4.411
 2177SOL    HW1 7073   0.844   3.458   4.317
 2177SOL    HW2 7074   0.733   3.386   4.413
 2178SOL     OW 7075   1.424   2.076   4.836
 2178SOL    HW1 7076   1.476   2.011   4.891
 2178SOL    HW2 7077   1.375   2.139   4.897
 2179SOL     OW 7078   1.001   1.896   4.878
 2179SOL    HW1 7079   0.938   1.824   4.847
 2179SOL    HW2 7080   1.094   1.860   4.878
 2180SOL     OW 7081   0.770   3.192   4.025
 2180SOL    HW1 7082   0.724   3.105   4.042
 2180SOL    HW2 7083   0.861   3.189   4.066
 2181SOL     OW 7084   0.618   3.429   5.008
 2181SOL    HW1 7085   0.613   3.511   5.065
 2181SOL    HW2 7086   0.707   3.426   4.963
 2182SOL     OW 7087   1.352   1.914   3.892
 2182SOL    HW1 7088   1.387   1.873   3.808
 2182SOL    HW2 7089   1.262   1.876   3.912
 2183SOL     OW 7090   1.300   2.315   4.415
 2183SOL    HW1 7091   1.241   2.395   4.419
 2183SOL    HW2 7092   1.315   2.280   4.508
 2184SOL     OW 7093   1.593   2.083   4.606
 2184SOL    HW1 7094   1.509   2.082   4.660
 2184SOL    HW2 7095   1.595   2.166   4.550
 2185SOL     OW 7096   0.039   2.939   4.024
 2185SOL    HW1 7097   0.138   2.928   4.015
 2185SOL    HW2 7098  -0.001   2.853   4.056
 2186SOL     OW 7099   0.875   3.508   4.061
 2186SOL    HW1 7100   0.798   3.473   4.007
 2186SOL    HW2 7101   0.843   3.579   4.123
 2187SOL     OW 7102   0.230   2.490   5.699
 2187SOL    HW1 7103   0.137   2.488   5.736
 2187SOL    HW2 7104   0.231   2.451   5.607
 2188SOL     OW 7105   0.225   2.137   6.582
 2188SOL    HW1 7106   0.260   2.120   6.674
 2188SOL    HW2 7107   0.137   2.092   6.570
 2189SOL     OW 7108   0.019   2.230   6.233
 2189SOL    HW1 7109  -0.063   2.273   6.272
 2189SOL    HW2 7110  -0.009   2.157   6.170
 2190SOL     OW 7111   0.569   3.137   6.751
 2190SOL    HW1 7112   0.476   3.130   6.714
 2190SOL    HW2 7113   0.580   3.226   6.795
 2191SOL     OW 7114   1.555   3.373   6.289
 2191SOL    HW1 7115   1.498   3.357   6.370
 2191SOL    HW2 7116   1.496   3.383   6.209
 2192SOL     OW 7117   1.135   2.565   6.303
 2192SOL    HW1 7118   1.192   2.643   6.278
 2192SOL    HW2 7119   1.075   2.591   6.379
 2193SOL     OW 7120   1.755   2.469   5.817
 2193SOL    HW1 7121   1.743   2.456   5.718
 2193SOL    HW2 7122   1.725   2.388   5.866
 2194SOL     OW 7123   0.768   3.006   6.609
 2194SOL    HW1 7124   0.690   3.023   6.669
 2194SOL    HW2 7125   0.802   3.093   6.573
 2195SOL     OW 7126   0.850   2.660   7.409
 2195SOL    HW1 7127   0.846   2.736   7.474
 2195SOL    HW2 7128   0.872   2.696   7.318
 2196SOL     OW 7129   0.685   2.874   6.251
 2196SOL    HW1 7130   0.754   2.858   6.321
 2196SOL    HW2 7131   0.612   2.931   6.289
 2197SOL     OW 7132   0.686   3.023   7.389
 2197SOL    HW1 7133   0.746   3.102   7.403
 2197SOL    HW2 7134   0.600   3.054   7.348
 2198SOL     OW 7135   0.335   3.297   6.647
 2198SOL    HW1 7136   0.257   3.266   6.594
 2198SOL    HW2 7137   0.393   3.355   6.590
 2199SOL     OW 7138   1.460   3.367   6.925
 2199SOL    HW1 7139   1.484   3.461   6.951
 2199SOL    HW2 7140   1.444   3.313   7.007
 2200SOL     OW 7141   0.438   2.254   7.085
 2200SOL    HW1 7142   0.520   2.198   7.094
 2200SOL    HW2 7143   0.357   2.196   7.089
 2201SOL     OW 7144   0.231   3.575   6.069
 2201SOL    HW1 7145   0.265   3.652   6.123
 2201SOL    HW2 7146   0.275   3.575   5.979
 2202SOL     OW 7147   1.127   3.203   7.276
 2202SOL    HW1 7148   1.174   3.203   7.364
 2202SOL    HW2 7149   1.079   3.116   7.265
 2203SOL     OW 7150   0.230   3.296   6.124
 2203SOL    HW1 7151   0.204   3.392   6.124
 2203SOL    HW2 7152   0.159   3.242   6.169
 2204SOL     OW 7153   0.240   2.953   6.472
 2204SOL    HW1 7154   0.254   2.869   6.524
 2204SOL    HW2 7155   0.185   3.017   6.527
 2205SOL     OW 7156   0.620   3.648   7.025
 2205SOL    HW1 7157   0.528   3.631   7.060
 2205SOL    HW2 7158   0.648   3.740   7.051
 2206SOL     OW 7159   0.606   2.826   5.709
 2206SOL    HW1 7160   0.613   2.910   5.655
 2206SOL    HW2 7161   0.652   2.839   5.797
 2207SOL     OW 7162   1.594   1.976   7.066
 2207SOL    HW1 7163   1.576   2.043   6.994
 2207SOL    HW2 7164   1.591   2.022   7.155
 2208SOL     OW 7165   0.122   2.505   6.149
 2208SOL    HW1 7166   0.077   2.417   6.166
 2208SOL    HW2 7167   0.121   2.559   6.233
 2209SOL     OW 7168   1.842   3.629   5.945
 2209SOL    HW1 7169   1.896   3.600   6.025
 2209SOL    HW2 7170   1.872   3.719   5.916
 2210SOL     OW 7171   0.027   3.458   5.703
 2210SOL    HW1 7172   0.008   3.362   5.724
 2210SOL    HW2 7173  -0.006   3.516   5.778
 2211SOL     OW 7174   1.641   2.970   6.018
 2211SOL    HW1 7175   1.727   2.972   5.966
 2211SOL    HW2 7176   1.655   3.017   6.106
 2212SOL     OW 7177   0.113   2.599   7.183
 2212SOL    HW1 7178   0.201   2.586   7.228
 2212SOL    HW2 7179   0.100   2.696   7.161
 2213SOL     OW 7180   0.613   3.227   6.312
 2213SOL    HW1 7181   0.564   3.140   6.321
 2213SOL    HW2 7182   0.590   3.270   6.225
 2214SOL     OW 7183   1.293   3.090   7.009
 2214SOL    HW1 7184   1.330   3.017   6.951
 2214SOL    HW2 7185   1.345   3.095   7.094
 2215SOL     OW 7186   0.809   1.866   6.088
 2215SOL    HW1 7187   0.849   1.957   6.079
 2215SOL    HW2 7188   0.709   1.874   6.094
 2216SOL     OW 7189   0.197   2.838   6.850
 2216SOL    HW1 7190   0.286   2.793   6.836
 2216SOL    HW2 7191   0.124   2.773   6.831
 2217SOL     OW 7192   1.525   2.861   5.776
 2217SOL    HW1 7193   1.462   2.785   5.789
 2217SOL    HW2 7194   1.573   2.879   5.862
 2218SOL     OW 7195   1.187   3.654   7.202
 2218SOL    HW1 7196   1.211   3.714   7.126
 2218SOL    HW2 7197   1.194   3.559   7.172
 2219SOL     OW 7198   0.317   2.113   7.387
 2219SOL    HW1 7199   0.388   2.184   7.393
 2219SOL    HW2 7200   0.229   2.152   7.415
 2220SOL     OW 7201   1.466   3.279   6.539
 2220SOL    HW1 7202   1.407   3.285   6.619
 2220SOL    HW2 7203   1.451   3.191   6.493
 2221SOL     OW 7204   1.667   3.576   6.158
 2221SOL    HW1 7205   1.626   3.553   6.070
 2221SOL    HW2 7206   1.649   3.502   6.223
 2222SOL     OW 7207   0.598   2.591   5.856
 2222SOL    HW1 7208   0.622   2.660   5.788
 2222SOL    HW2 7209   0.520   2.624   5.910
 2223SOL     OW 7210   1.576   3.524   5.893
 2223SOL    HW1 7211   1.665   3.570   5.896
 2223SOL    HW2 7212   1.555   3.500   5.798
 2224SOL     OW 7213   0.807   2.467   7.051
 2224SOL    HW1 7214   0.760   2.464   7.140
 2224SOL    HW2 7215   0.756   2.412   6.985
 2225SOL     OW 7216   0.973   2.752   7.158
 2225SOL    HW1 7217   1.019   2.668   7.129
 2225SOL    HW2 7218   0.917   2.786   7.083
 2226SOL     OW 7219   0.991   2.272   6.828
 2226SOL    HW1 7220   0.914   2.306   6.882
 2226SOL    HW2 7221   0.957   2.221   6.749
 2227SOL     OW 7222   1.041   2.563   6.015
 2227SOL    HW1 7223   1.067   2.559   6.111
 2227SOL    HW2 7224   0.956   2.512   6.001
 2228SOL     OW 7225   0.076   2.673   6.375
 2228SOL    HW1 7226   0.175   2.661   6.384
 2228SOL    HW2 7227   0.052   2.768   6.396
 2229SOL     OW 7228   0.130   3.683   7.157
 2229SOL    HW1 7229   0.120   3.668   7.256
 2229SOL    HW2 7230   0.044   3.719   7.121
 2230SOL     OW 7231   0.865   2.210   5.781
 2230SOL    HW1 7232   0.924   2.273   5.732
 2230SOL    HW2 7233   0.884   2.116   5.752
 2231SOL     OW 7234   1.362   3.006   6.131
 2231SOL    HW1 7235   1.445   2.977   6.083
 2231SOL    HW2 7236   1.313   3.073   6.075
 2232SOL     OW 7237   0.550   2.058   6.471
 2232SOL    HW1 7238   0.545   2.053   6.571
 2232SOL    HW2 7239   0.552   2.154   6.442
 2233SOL     OW 7240   1.008   3.318   6.063
 2233SOL    HW1 7241   0.962   3.390   6.011
 2233SOL    HW2 7242   1.004   3.338   6.161
 2234SOL     OW 7243   0.351   3.663   6.439
 2234SOL    HW1 7244   0.401   3.577   6.445
 2234SOL    HW2 7245   0.416   3.740   6.436
 2235SOL     OW 7246   1.795   2.928   6.459
 2235SOL    HW1 7247   1.733   2.913   6.383
 2235SOL    HW2 7248   1.743   2.939   6.544
 2236SOL     OW 7249   1.227   3.412   7.092
 2236SOL    HW1 7250   1.233   3.335   7.156
 2236SOL    HW2 7251   1.175   3.386   7.012
 2237SOL     OW 7252   0.321   2.805   5.828
 2237SOL    HW1 7253   0.403   2.844   5.786
 2237SOL    HW2 7254   0.294   2.723   5.779
 2238SOL     OW 7255   0.461   3.128   7.313
 2238SOL    HW1 7256   0.411   3.129   7.227
 2238SOL    HW2 7257   0.398   3.110   7.389
 2239SOL     OW 7258   1.111   3.638   5.823
 2239SOL    HW1 7259   1.051   3.576   5.873
 2239SOL    HW2 7260   1.142   3.594   5.738
 2240SOL     OW 7261   0.202   2.147   7.084
 2240SOL    HW1 7262   0.122   2.207   7.071
 2240SOL    HW2 7263   0.192   2.098   7.170
 2241SOL     OW 7264   1.632   3.239   5.667
 2241SOL    HW1 7265   1.600   3.333   5.657
 2241SOL    HW2 7266   1.556   3.176   5.655
 2242SOL     OW 7267   0.464   3.605   5.909
 2242SOL    HW1 7268   0.497   3.644   5.995
 2242SOL    HW2 7269   0.540   3.598   5.844
 2243SOL     OW 7270   0.249   3.647   6.827
 2243SOL    HW1 7271   0.306   3.582   6.877
 2243SOL    HW2 7272   0.233   3.614   6.734
 2244SOL     OW 7273   0.940   3.560   6.490
 2244SOL    HW1 7274   1.020   3.503   6.511
 2244SOL    HW2 7275   0.891   3.520   6.413
 2245SOL     OW 7276   0.382   2.562   6.066
 2245SOL    HW1 7277   0.427   2.472   6.063
 2245SOL    HW2 7278   0.288   2.551   6.099
 2246SOL     OW 7279   0.614   1.984   5.703
 2246SOL    HW1 7280   0.712   1.962   5.710
 2246SOL    HW2 7281   0.583   1.967   5.610
 2247SOL     OW 7282   0.781   2.126   7.335
 2247SOL    HW1 7283   0.848   2.065   7.378
 2247SOL    HW2 7284   0.708   2.145   7.400
 2248SOL     OW 7285   0.888   3.376   6.781
 2248SOL    HW1 7286   0.865   3.351   6.687
 2248SOL    HW2 7287   0.949   3.307   6.820
 2249SOL     OW 7288   0.803   3.264   6.510
 2249SOL    HW1 7289   0.893   3.278   6.468
 2249SOL    HW2 7290   0.732   3.266   6.439
 2250SOL     OW 7291   0.922   2.365   6.485
 2250SOL    HW1 7292   0.897   2.356   6.389
 2250SOL    HW2 7293   0.970   2.283   6.516
 2251SOL     OW 7294   0.539   1.926   6.098
 2251SOL    HW1 7295   0.458   1.927   6.156
 2251SOL    HW2 7296   0.542   2.009   6.043
 2252SOL     OW 7297   1.434   3.050   5.627
 2252SOL    HW1 7298   1.466   2.974   5.684
 2252SOL    HW2 7299   1.342   3.077   5.657
 2253SOL     OW 7300   0.297   1.897   5.757
 2253SOL    HW1 7301   0.346   1.981   5.736
 2253SOL    HW2 7302   0.359   1.832   5.802
 2254SOL     OW 7303   0.935   2.098   6.066
 2254SOL    HW1 7304   0.887   2.139   5.988
 2254SOL    HW2 7305   1.034   2.096   6.047
 2255SOL     OW 7306   1.076   2.545   7.050
 2255SOL    HW1 7307   0.996   2.484   7.053
 2255SOL    HW2 7308   1.157   2.492   7.026
 2256SOL     OW 7309   1.227   3.432   6.379
 2256SOL    HW1 7310   1.248   3.506   6.314
 2256SOL    HW2 7311   1.295   3.432   6.452
 2257SOL     OW 7312   0.459   3.014   6.327
 2257SOL    HW1 7313   0.388   2.987   6.392
 2257SOL    HW2 7314   0.433   2.986   6.234
 2258SOL     OW 7315   1.271   3.659   6.177
 2258SOL    HW1 7316   1.315   3.723   6.113
 2258SOL    HW2 7317   1.221   3.711   6.247
 2259SOL     OW 7318   1.032   2.411   5.602
 2259SOL    HW1 7319   0.991   2.493   5.563
 2259SOL    HW2 7320   1.096   2.437   5.675
 2260SOL     OW 7321   0.078   2.418   6.972
 2260SOL    HW1 7322   0.170   2.417   6.931
 2260SOL    HW2 7323   0.072   2.492   7.039
 2261SOL     OW 7324   0.561   2.084   6.733
 2261SOL    HW1 7325   0.599   2.000   6.770
 2261SOL    HW2 7326   0.473   2.103   6.777
 2262SOL     OW 7327   0.866   2.316   6.228
 2262SOL    HW1 7328   0.834   2.388   6.166
 2262SOL    HW2 7329   0.890   2.235   6.175
 2263SOL     OW 7330   1.017   1.901   6.339
 2263SOL    HW1 7331   0.945   1.906   6.270
 2263SOL    HW2 7332   0.993   1.832   6.408
 2264SOL     OW 7333   1.429   3.035   6.453
 2264SOL    HW1 7334   1.374   2.951   6.446
 2264SOL    HW2 7335   1.455   3.064   6.361
 2265SOL     OW 7336   1.857   2.695   5.963
 2265SOL    HW1 7337   1.899   2.631   6.027
 2265SOL    HW2 7338   1.819   2.644   5.885
 2266SOL     OW 7339   0.488   3.247   5.760
 2266SOL    HW1 7340   0.401   3.232   5.807
 2266SOL    HW2 7341   0.471   3.273   5.665
 2267SOL     OW 7342   1.664   3.142   6.243
 2267SOL    HW1 7343   1.763   3.150   6.257
 2267SOL    HW2 7344   1.619   3.226   6.274
 2268SOL     OW 7345   1.390   2.437   5.664
 2268SOL    HW1 7346   1.336   2.416   5.745
 2268SOL    HW2 7347   1.481   2.396   5.673
 2269SOL     OW 7348   0.527   2.118   5.914
 2269SOL    HW1 7349   0.554   2.059   5.839
 2269SOL    HW2 7350   0.527   2.213   5.883
 2270SOL     OW 7351   1.754   3.085   7.174
 2270SOL    HW1 7352   1.845   3.046   7.161
 2270SOL    HW2 7353   1.762   3.181   7.198
 2271SOL     OW 7354   1.064   3.209   6.926
 2271SOL    HW1 7355   0.984   3.186   6.981
 2271SOL    HW2 7356   1.147   3.183   6.975
 2272SOL     OW 7357   1.592   3.491   7.211
 2272SOL    HW1 7358   1.619   3.525   7.121
 2272SOL    HW2 7359   1.671   3.453   7.257
 2273SOL     OW 7360   1.111   3.057   6.686
 2273SOL    HW1 7361   1.071   3.101   6.767
 2273SOL    HW2 7362   1.070   3.094   6.603
 2274SOL     OW 7363   1.638   2.961   6.665
 2274SOL    HW1 7364   1.643   3.042   6.724
 2274SOL    HW2 7365   1.552   2.963   6.614
 2275SOL     OW 7366   0.915   1.951   6.988
 2275SOL    HW1 7367   0.940   1.931   6.893
 2275SOL    HW2 7368   0.987   2.007   7.030
 2276SOL     OW 7369   0.980   2.978   7.305
 2276SOL    HW1 7370   0.881   2.984   7.315
 2276SOL    HW2 7371   1.003   2.898   7.249
 2277SOL     OW 7372   0.705   2.912   5.954
 2277SOL    HW1 7373   0.691   2.919   6.053
 2277SOL    HW2 7374   0.789   2.861   5.936
 2278SOL     OW 7375   0.410   2.675   6.837
 2278SOL    HW1 7376   0.496   2.687   6.887
 2278SOL    HW2 7377   0.368   2.588   6.864
 2279SOL     OW 7378   1.274   2.248   6.848
 2279SOL    HW1 7379   1.295   2.322   6.912
 2279SOL    HW2 7380   1.185   2.265   6.805
 2280SOL     OW 7381   0.064   3.426   6.917
 2280SOL    HW1 7382   0.018   3.508   6.883
 2280SOL    HW2 7383   0.162   3.445   6.926
 2281SOL     OW 7384   0.367   2.962   6.087
 2281SOL    HW1 7385   0.360   3.045   6.031
 2281SOL    HW2 7386   0.371   2.882   6.027
 2282SOL     OW 7387   0.566   2.399   6.451
 2282SOL    HW1 7388   0.578   2.465   6.377
 2282SOL    HW2 7389   0.612   2.433   6.534
 2283SOL     OW 7390   1.252   3.210   5.974
 2283SOL    HW1 7391   1.302   3.287   6.014
 2283SOL    HW2 7392   1.157   3.212   6.006
 2284SOL     OW 7393   1.272   3.307   6.728
 2284SOL    HW1 7394   1.319   3.320   6.815
 2284SOL    HW2 7395   1.206   3.233   6.737
 2285SOL     OW 7396   0.354   3.372   6.915
 2285SOL    HW1 7397   0.333   3.328   6.828
 2285SOL    HW2 7398   0.451   3.398   6.918
 2286SOL     OW 7399   0.402   2.613   7.184
 2286SOL    HW1 7400   0.470   2.668   7.137
 2286SOL    HW2 7401   0.442   2.525   7.211
 2287SOL     OW 7402   1.013   1.967   7.356
 2287SOL    HW1 7403   1.019   2.052   7.304
 2287SOL    HW2 7404   1.045   1.891   7.299
 2288SOL     OW 7405   0.504   1.912   7.326
 2288SOL    HW1 7406   0.462   1.855   7.256
 2288SOL    HW2 7407   0.438   1.981   7.358
 2289SOL     OW 7408   0.573   2.732   6.615
 2289SOL    HW1 7409   0.617   2.821   6.606
 2289SOL    HW2 7410   0.510   2.732   6.692
 2290SOL     OW 7411   1.360   2.724   6.631
 2290SOL    HW1 7412   1.285   2.724   6.565
 2290SOL    HW2 7413   1.397   2.632   6.640
 2291SOL     OW 7414   1.209   2.387   5.861
 2291SOL    HW1 7415   1.222   2.303   5.915
 2291SOL    HW2 7416   1.180   2.461   5.921
 2292SOL     OW 7417   0.307   2.075   6.817
 2292SOL    HW1 7418   0.284   2.112   6.907
 2292SOL    HW2 7419   0.277   1.980   6.811
 2293SOL     OW 7420   0.037   3.172   6.868
 2293SOL    HW1 7421   0.090   3.123   6.936
 2293SOL    HW2 7422   0.059   3.270   6.873
 2294SOL     OW 7423   0.732   2.496   6.650
 2294SOL    HW1 7424   0.791   2.470   6.574
 2294SOL    HW2 7425   0.704   2.592   6.639
 2295SOL     OW 7426   0.307   1.925   6.204
 2295SOL    HW1 7427   0.296   2.019   6.237
 2295SOL    HW2 7428   0.302   1.862   6.281
 2296SOL     OW 7429   1.622   2.229   5.960
 2296SOL    HW1 7430   1.624   2.153   6.024
 2296SOL    HW2 7431   1.574   2.306   6.000
 2297SOL     OW 7432   1.023   2.628   6.552
 2297SOL    HW1 7433   1.038   2.649   6.648
 2297SOL    HW2 7434   0.993   2.533   6.543
 2298SOL     OW 7435   0.980   3.435   7.286
 2298SOL    HW1 7436   0.960   3.479   7.198
 2298SOL    HW2 7437   1.019   3.344   7.270
 2299SOL     OW 7438   1.859   3.380   7.191
 2299SOL    HW1 7439   1.873   3.407   7.096
 2299SOL    HW2 7440   1.942   3.402   7.244
 2300SOL     OW 7441   0.350   2.760   7.390
 2300SOL    HW1 7442   0.426   2.804   7.438
 2300SOL    HW2 7443   0.385   2.713   7.308
 2301SOL     OW 7444   1.540   2.136   5.711
 2301SOL    HW1 7445   1.479   2.061   5.734
 2301SOL    HW2 7446   1.562   2.188   5.794
 2302SOL     OW 7447   1.303   2.700   5.628
 2302SOL    HW1 7448   1.337   2.607   5.643
 2302SOL    HW2 7449   1.321   2.727   5.533
 2303SOL     OW 7450   1.068   3.195   6.435
 2303SOL    HW1 7451   1.075   3.111   6.380
 2303SOL    HW2 7452   1.130   3.264   6.399
 2304SOL     OW 7453   0.319   2.672   6.535
 2304SOL    HW1 7454   0.412   2.708   6.540
 2304SOL    HW2 7455   0.313   2.587   6.587
 2305SOL     OW 7456   0.339   2.371   6.592
 2305SOL    HW1 7457   0.287   2.288   6.575
 2305SOL    HW2 7458   0.416   2.376   6.528
 2306SOL     OW 7459   1.160   2.069   7.063
 2306SOL    HW1 7460   1.160   2.133   7.140
 2306SOL    HW2 7461   1.188   2.117   6.980
 2307SOL     OW 7462   0.008   3.188   5.786
 2307SOL    HW1 7463  -0.085   3.209   5.755
 2307SOL    HW2 7464   0.018   3.089   5.799
 2308SOL     OW 7465   0.088   3.663   6.513
 2308SOL    HW1 7466   0.046   3.577   6.486
 2308SOL    HW2 7467   0.182   3.666   6.479
 2309SOL     OW 7468   0.504   3.430   6.496
 2309SOL    HW1 7469   0.570   3.504   6.505
 2309SOL    HW2 7470   0.548   3.351   6.454
 2310SOL     OW 7471   1.002   2.658   6.824
 2310SOL    HW1 7472   1.043   2.626   6.910
 2310SOL    HW2 7473   0.906   2.631   6.821
 2311SOL     OW 7474   0.040   2.406   6.700
 2311SOL    HW1 7475   0.125   2.373   6.659
 2311SOL    HW2 7476   0.053   2.421   6.798
 2312SOL     OW 7477   0.189   2.382   7.308
 2312SOL    HW1 7478   0.248   2.342   7.238
 2312SOL    HW2 7479   0.131   2.453   7.267
 2313SOL     OW 7480   1.369   2.812   7.246
 2313SOL    HW1 7481   1.408   2.901   7.266
 2313SOL    HW2 7482   1.379   2.792   7.149
 2314SOL     OW 7483   0.815   2.434   5.911
 2314SOL    HW1 7484   0.822   2.345   5.865
 2314SOL    HW2 7485   0.721   2.468   5.903
 2315SOL     OW 7486   0.252   3.426   7.330
 2315SOL    HW1 7487   0.222   3.483   7.406
 2315SOL    HW2 7488   0.245   3.329   7.356
 2316SOL     OW 7489   0.671   2.326   6.855
 2316SOL    HW1 7490   0.637   2.237   6.825
 2316SOL    HW2 7491   0.697   2.380   6.775
 2317SOL     OW 7492   0.930   3.540   7.051
 2317SOL    HW1 7493   0.906   3.522   6.956
 2317SOL    HW2 7494   0.960   3.634   7.061
 2318SOL     OW 7495   0.473   2.362   5.777
 2318SOL    HW1 7496   0.534   2.442   5.781
 2318SOL    HW2 7497   0.378   2.393   5.784
 2319SOL     OW 7498   0.159   2.999   7.052
 2319SOL    HW1 7499   0.181   2.938   7.128
 2319SOL    HW2 7500   0.169   2.950   6.966
 2320SOL     OW 7501   1.347   2.921   6.820
 2320SOL    HW1 7502   1.371   2.858   6.746
 2320SOL    HW2 7503   1.257   2.961   6.802
 2321SOL     OW 7504   1.302   2.717   5.895
 2321SOL    HW1 7505   1.216   2.686   5.937
 2321SOL    HW2 7506   1.298   2.703   5.796
 2322SOL     OW 7507   1.759   3.609   6.740
 2322SOL    HW1 7508   1.820   3.639   6.667
 2322SOL    HW2 7509   1.721   3.520   6.718
 2323SOL     OW 7510   1.252   3.593   6.714
 2323SOL    HW1 7511   1.336   3.598   6.660
 2323SOL    HW2 7512   1.229   3.497   6.732
 2324SOL     OW 7513   0.083   3.120   6.608
 2324SOL    HW1 7514   0.078   3.119   6.708
 2324SOL    HW2 7515   0.000   3.079   6.570
 2325SOL     OW 7516   0.688   3.524   7.302
 2325SOL    HW1 7517   0.632   3.605   7.311
 2325SOL    HW2 7518   0.740   3.528   7.216
 2326SOL     OW 7519   1.726   1.997   6.109
 2326SOL    HW1 7520   1.799   1.980   6.042
 2326SOL    HW2 7521   1.695   1.910   6.147
 2327SOL     OW 7522   1.388   3.435   6.063
 2327SOL    HW1 7523   1.455   3.447   5.989
 2327SOL    HW2 7524   1.348   3.524   6.086
 2328SOL     OW 7525   0.130   3.656   7.437
 2328SOL    HW1 7526   0.089   3.582   7.490
 2328SOL    HW2 7527   0.194   3.707   7.495
 2329SOL     OW 7528   1.280   2.789   6.258
 2329SOL    HW1 7529   1.340   2.708   6.260
 2329SOL    HW2 7530   1.320   2.858   6.198
 2330SOL     OW 7531   0.830   3.135   7.008
 2330SOL    HW1 7532   0.825   3.168   7.103
 2330SOL    HW2 7533   0.744   3.154   6.962
 2331SOL     OW 7534   0.672   3.478   5.740
 2331SOL    HW1 7535   0.681   3.488   5.641
 2331SOL    HW2 7536   0.632   3.389   5.761
 2332SOL     OW 7537   1.650   3.582   6.980
 2332SOL    HW1 7538   1.703   3.592   6.896
 2332SOL    HW2 7539   1.623   3.672   7.014
 2333SOL     OW 7540   0.263   2.188   6.306
 2333SOL    HW1 7541   0.184   2.239   6.272
 2333SOL    HW2 7542   0.254   2.173   6.404
 2334SOL     OW 7543   1.194   3.474   5.617
 2334SOL    HW1 7544   1.200   3.381   5.654
 2334SOL    HW2 7545   1.135   3.474   5.537
 2335SOL     OW 7546   0.822   2.864   6.958
 2335SOL    HW1 7547   0.862   2.863   6.866
 2335SOL    HW2 7548   0.832   2.956   6.998
 2336SOL     OW 7549   0.916   2.772   5.877
 2336SOL    HW1 7550   0.979   2.810   5.809
 2336SOL    HW2 7551   0.956   2.689   5.916
 2337SOL     OW 7552   1.504   3.469   5.630
 2337SOL    HW1 7553   1.412   3.506   5.637
 2337SOL    HW2 7554   1.542   3.489   5.540
 2338SOL     OW 7555   0.372   3.150   7.076
 2338SOL    HW1 7556   0.359   3.243   7.042
 2338SOL    HW2 7557   0.288   3.098   7.063
 2339SOL     OW 7558   1.614   3.154   6.875
 2339SOL    HW1 7559   1.674   3.157   6.955
 2339SOL    HW2 7560   1.539   3.218   6.888
 2340SOL     OW 7561   1.039   2.960   6.282
 2340SOL    HW1 7562   0.969   2.913   6.336
 2340SOL    HW2 7563   1.098   2.892   6.239
 2341SOL     OW 7564   1.014   2.098   6.557
 2341SOL    HW1 7565   1.006   2.062   6.464
 2341SOL    HW2 7566   1.012   2.022   6.622
 2342SOL     OW 7567   0.590   3.349   6.077
 2342SOL    HW1 7568   0.632   3.291   6.007
 2342SOL    HW2 7569   0.546   3.428   6.033
 2343SOL     OW 7570   1.709   2.247   6.967
 2343SOL    HW1 7571   1.782   2.316   6.971
 2343SOL    HW2 7572   1.737   2.172   6.908
 2344SOL     OW 7573   0.255   3.210   5.876
 2344SOL    HW1 7574   0.159   3.211   5.849
 2344SOL    HW2 7575   0.267   3.263   5.960
 2345SOL     OW 7576   0.105   2.875   7.312
 2345SOL    HW1 7577   0.028   2.842   7.366
 2345SOL    HW2 7578   0.190   2.845   7.354
 2346SOL     OW 7579   0.672   2.065   7.075
 2346SOL    HW1 7580   0.762   2.049   7.035
 2346SOL    HW2 7581   0.680   2.070   7.174
 2347SOL     OW 7582   0.075   2.207   5.619
 2347SOL    HW1 7583  -0.017   2.179   5.590
 2347SOL    HW2 7584   0.106   2.284   5.563
 2348SOL     OW 7585   1.440   2.718   6.984
 2348SOL    HW1 7586   1.383   2.770   6.921
 2348SOL    HW2 7587   1.536   2.730   6.960
 2349SOL     OW 7588   0.072   2.028   5.904
 2349SOL    HW1 7589   0.055   2.111   5.850
 2349SOL    HW2 7590   0.162   1.991   5.882
 2350SOL     OW 7591   1.183   3.197   5.705
 2350SOL    HW1 7592   1.084   3.186   5.707
 2350SOL    HW2 7593   1.217   3.212   5.798
 2351SOL     OW 7594   0.613   2.704   7.017
 2351SOL    HW1 7595   0.669   2.785   7.000
 2351SOL    HW2 7596   0.672   2.624   7.020
 2352SOL     OW 7597   1.493   3.629   6.545
 2352SOL    HW1 7598   1.526   3.693   6.476
 2352SOL    HW2 7599   1.559   3.623   6.620
 2353SOL     OW 7600   0.716   2.427   7.294
 2353SOL    HW1 7601   0.735   2.492   7.368
 2353SOL    HW2 7602   0.776   2.347   7.303
 2354SOL     OW 7603   1.450   3.082   7.219
 2354SOL    HW1 7604   1.441   3.072   7.318
 2354SOL    HW2 7605   1.546   3.075   7.193
 2355SOL     OW 7606   0.390   3.603   7.146
 2355SOL    HW1 7607   0.299   3.644   7.144
 2355SOL    HW2 7608   0.383   3.509   7.178
 2356SOL     OW 7609   1.674   2.745   6.840
 2356SOL    HW1 7610   1.647   2.656   6.803
 2356SOL    HW2 7611   1.675   2.813   6.767
 2357SOL     OW 7612   0.594   2.607   6.238
 2357SOL    HW1 7613   0.644   2.692   6.219
 2357SOL    HW2 7614   0.506   2.609   6.190
 2358SOL     OW 7615   1.777   2.204   7.228
 2358SOL    HW1 7616   1.760   2.235   7.134
 2358SOL    HW2 7617   1.693   2.167   7.266
 2359SOL     OW 7618   1.730   2.796   7.103
 2359SOL    HW1 7619   1.768   2.887   7.118
 2359SOL    HW2 7620   1.722   2.779   7.004
 2360SOL     OW 7621   0.859   3.236   5.602
 2360SOL    HW1 7622   0.813   3.251   5.690
 2360SOL    HW2 7623   0.903   3.321   5.572
 2361SOL     OW 7624   0.661   3.652   6.539
 2361SOL    HW1 7625   0.615   3.740   6.526
 2361SOL    HW2 7626   0.760   3.664   6.532
 2362SOL     OW 7627   0.859   2.818   6.447
 2362SOL    HW1 7628   0.913   2.749   6.495
 2362SOL    HW2 7629   0.827   2.887   6.513
 2363SOL     OW 7630   1.083   2.846   5.673
 2363SOL    HW1 7631   1.060   2.899   5.591
 2363SOL    HW2 7632   1.164   2.790   5.654
 2364SOL     OW 7633   1.861   3.431   6.437
 2364SOL    HW1 7634   1.790   3.419   6.367
 2364SOL    HW2 7635   1.862   3.352   6.497
 2365SOL     OW 7636   0.221   3.176   7.430
 2365SOL    HW1 7637   0.156   3.103   7.409
 2365SOL    HW2 7638   0.225   3.190   7.528
 2366SOL     OW 7639   0.079   3.102   6.239
 2366SOL    HW1 7640   0.078   3.055   6.327
 2366SOL    HW2 7641   0.161   3.074   6.188
 2367SOL     OW 7642   0.672   3.253   7.210
 2367SOL    HW1 7643   0.594   3.203   7.248
 2367SOL    HW2 7644   0.669   3.348   7.241
 2368SOL     OW 7645   0.428   2.286   6.106
 2368SOL    HW1 7646   0.458   2.214   6.044
 2368SOL    HW2 7647   0.389   2.246   6.189
 2369SOL     OW 7648   1.705   3.349   6.690
 2369SOL    HW1 7649   1.612   3.324   6.663
 2369SOL    HW2 7650   1.731   3.299   6.772
 2370SOL     OW 7651   0.317   2.409   6.866
 2370SOL    HW1 7652   0.355   2.350   6.938
 2370SOL    HW2 7653   0.357   2.383   6.778
 2371SOL     OW 7654   0.812   3.448   6.273
 2371SOL    HW1 7655   0.844   3.458   6.179
 2371SOL    HW2 7656   0.733   3.386   6.275
 2372SOL     OW 7657   1.001   1.896   6.740
 2372SOL    HW1 7658   0.938   1.824   6.709
 2372SOL    HW2 7659   1.094   1.860   6.740
 2373SOL     OW 7660   0.770   3.192   5.887
 2373SOL    HW1 7661   0.724   3.105   5.904
 2373SOL    HW2 7662   0.861   3.189   5.928
 2374SOL     OW 7663   0.618   3.429   6.870
 2374SOL    HW1 7664   0.613   3.511   6.927
 2374SOL    HW2 7665   0.707   3.426   6.825
 2375SOL     OW 7666   1.352   1.914   5.754
 2375SOL    HW1 7667   1.387   1.873   5.670
 2375SOL    HW2 7668   1.262   1.876   5.774
 2376SOL     OW 7669   1.593   2.083   6.468
 2376SOL    HW1 7670   1.509   2.082   6.522
 2376SOL    HW2 7671   1.595   2.166   6.412
 2377SOL     OW 7672   0.039   2.939   5.886
 2377SOL    HW1 7673   0.138   2.928   5.877
 2377SOL    HW2 7674  -0.001   2.853   5.918
 2378SOL     OW 7675   0.875   3.508   5.923
 2378SOL    HW1 7676   0.798   3.473   5.869
 2378SOL    HW2 7677   0.843   3.579   5.985
 2379SOL     OW 7678   0.230   2.490   7.561
 2379SOL    HW1 7679   0.137   2.488   7.598
 2379SOL    HW2 7680   0.231   2.451   7.469
 2380SOL     OW 7681   0.225   2.137   8.444
 2380SOL    HW1 7682   0.260   2.120   8.536
 2380SOL    HW2 7683   0.137   2.092   8.432
 2381SOL     OW 7684   0.019   2.230   8.095
 2381SOL    HW1 7685  -0.063   2.273   8.134
 2381SOL    HW2 7686  -0.009   2.157   8.032
 2382SOL     OW 7687   0.569   3.137   8.613
 2382SOL    HW1 7688   0.476   3.130   8.576
 2382SOL    HW2 7689   0.580   3.226   8.657
 2383SOL     OW 7690   1.555   3.373   8.151
 2383SOL    HW1 7691   1.498   3.357   8.232
 2383SOL    HW2 7692   1.496   3.383   8.071
 2384SOL     OW 7693   1.135   2.565   8.165
 2384SOL    HW1 7694   1.192   2.643   8.140
 2384SOL    HW2 7695   1.075   2.591   8.241
 2385SOL     OW 7696   0.768   3.006   8.471
 2385SOL    HW1 7697   0.690   3.023   8.531
 2385SOL    HW2 7698   0.802   3.093   8.435
 2386SOL     OW 7699   0.850   2.660   9.271
 2386SOL    HW1 7700   0.846   2.736   9.336
 2386SOL    HW2 7701   0.872   2.696   9.180
 2387SOL     OW 7702   0.685   2.874   8.113
 2387SOL    HW1 7703   0.754   2.858   8.183
 2387SOL    HW2 7704   0.612   2.931   8.151
 2388SOL     OW 7705   0.686   3.023   9.251
 2388SOL    HW1 7706   0.746   3.102   9.265
 2388SOL    HW2 7707   0.600   3.054   9.210
 2389SOL     OW 7708   0.335   3.297   8.509
 2389SOL    HW1 7709   0.257   3.266   8.456
 2389SOL    HW2 7710   0.393   3.355   8.452
 2390SOL     OW 7711   1.460   3.367   8.787
 2390SOL    HW1 7712   1.484   3.461   8.813
 2390SOL    HW2 7713   1.444   3.313   8.869
 2391SOL     OW 7714   0.438   2.254   8.947
 2391SOL    HW1 7715   0.520   2.198   8.956
 2391SOL    HW2 7716   0.357   2.196   8.951
 2392SOL     OW 7717   1.603   2.309   8.185
 2392SOL    HW1 7718   1.529   2.355   8.135
 2392SOL    HW2 7719   1.654   2.377   8.238
 2393SOL     OW 7720   0.231   3.575   7.931
 2393SOL    HW1 7721   0.265   3.652   7.985
 2393SOL    HW2 7722   0.275   3.575   7.841
 2394SOL     OW 7723   1.127   3.203   9.138
 2394SOL    HW1 7724   1.174   3.203   9.226
 2394SOL    HW2 7725   1.079   3.116   9.127
 2395SOL     OW 7726   0.230   3.296   7.986
 2395SOL    HW1 7727   0.204   3.392   7.986
 2395SOL    HW2 7728   0.159   3.242   8.031
 2396SOL     OW 7729   0.240   2.953   8.334
 2396SOL    HW1 7730   0.254   2.869   8.386
 2396SOL    HW2 7731   0.185   3.017   8.389
 2397SOL     OW 7732   0.620   3.648   8.887
 2397SOL    HW1 7733   0.528   3.631   8.922
 2397SOL    HW2 7734   0.648   3.740   8.913
 2398SOL     OW 7735   0.606   2.826   7.571
 2398SOL    HW1 7736   0.613   2.910   7.517
 2398SOL    HW2 7737   0.652   2.839   7.659
 2399SOL     OW 7738   1.594   1.976   8.928
 2399SOL    HW1 7739   1.576   2.043   8.856
 2399SOL    HW2 7740   1.591   2.022   9.017
 2400SOL     OW 7741   0.122   2.505   8.011
 2400SOL    HW1 7742   0.077   2.417   8.028
 2400SOL    HW2 7743   0.121   2.559   8.095
 2401SOL     OW 7744   1.842   3.629   7.807
 2401SOL    HW1 7745   1.896   3.600   7.887
 2401SOL    HW2 7746   1.872   3.719   7.778
 2402SOL     OW 7747   0.027   3.458   7.565
 2402SOL    HW1 7748   0.008   3.362   7.586
 2402SOL    HW2 7749  -0.006   3.516   7.640
 2403SOL     OW 7750   1.689   2.784   8.060
 2403SOL    HW1 7751   1.784   2.755   8.068
 2403SOL    HW2 7752   1.681   2.849   7.985
 2404SOL     OW 7753   1.641   2.970   7.880
 2404SOL    HW1 7754   1.727   2.972   7.828
 2404SOL    HW2 7755   1.655   3.017   7.968
 2405SOL     OW 7756   0.113   2.599   9.045
 2405SOL    HW1 7757   0.201   2.586   9.090
 2405SOL    HW2 7758   0.100   2.696   9.023
 2406SOL     OW 7759   0.613   3.227   8.174
 2406SOL    HW1 7760   0.564   3.140   8.183
 2406SOL    HW2 7761   0.590   3.270   8.087
 2407SOL     OW 7762   1.293   3.090   8.871
 2407SOL    HW1 7763   1.330   3.017   8.813
 2407SOL    HW2 7764   1.345   3.095   8.956
 2408SOL     OW 7765   0.809   1.866   7.950
 2408SOL    HW1 7766   0.849   1.957   7.941
 2408SOL    HW2 7767   0.709   1.874   7.956
 2409SOL     OW 7768   0.197   2.838   8.712
 2409SOL    HW1 7769   0.286   2.793   8.698
 2409SOL    HW2 7770   0.124   2.773   8.693
 2410SOL     OW 7771   1.525   2.861   7.638
 2410SOL    HW1 7772   1.462   2.785   7.651
 2410SOL    HW2 7773   1.573   2.879   7.724
 2411SOL     OW 7774   1.187   3.654   9.064
 2411SOL    HW1 7775   1.211   3.714   8.988
 2411SOL    HW2 7776   1.194   3.559   9.034
 2412SOL     OW 7777   0.317   2.113   9.249
 2412SOL    HW1 7778   0.388   2.184   9.255
 2412SOL    HW2 7779   0.229   2.152   9.277
 2413SOL     OW 7780   1.466   3.279   8.401
 2413SOL    HW1 7781   1.407   3.285   8.481
 2413SOL    HW2 7782   1.451   3.191   8.355
 2414SOL     OW 7783   1.667   3.576   8.020
 2414SOL    HW1 7784   1.626   3.553   7.932
 2414SOL    HW2 7785   1.649   3.502   8.085
 2415SOL     OW 7786   0.598   2.591   7.718
 2415SOL    HW1 7787   0.622   2.660   7.650
 2415SOL    HW2 7788   0.520   2.624   7.772
 2416SOL     OW 7789   1.281   2.207   8.392
 2416SOL    HW1 7790   1.195   2.157   8.379
 2416SOL    HW2 7791   1.343   2.153   8.448
 2417SOL     OW 7792   1.576   3.524   7.755
 2417SOL    HW1 7793   1.665   3.570   7.758
 2417SOL    HW2 7794   1.555   3.500   7.660
 2418SOL     OW 7795   0.807   2.467   8.913
 2418SOL    HW1 7796   0.760   2.464   9.002
 2418SOL    HW2 7797   0.756   2.412   8.847
 2419SOL     OW 7798   1.394   2.331   9.122
 2419SOL    HW1 7799   1.374   2.374   9.210
 2419SOL    HW2 7800   1.472   2.269   9.131
 2420SOL     OW 7801   0.973   2.752   9.020
 2420SOL    HW1 7802   1.019   2.668   8.991
 2420SOL    HW2 7803   0.917   2.786   8.945
 2421SOL     OW 7804   0.991   2.272   8.690
 2421SOL    HW1 7805   0.914   2.306   8.744
 2421SOL    HW2 7806   0.957   2.221   8.611
 2422SOL     OW 7807   1.041   2.563   7.877
 2422SOL    HW1 7808   1.067   2.559   7.973
 2422SOL    HW2 7809   0.956   2.512   7.863
 2423SOL     OW 7810   0.076   2.673   8.237
 2423SOL    HW1 7811   0.175   2.661   8.246
 2423SOL    HW2 7812   0.052   2.768   8.258
 2424SOL     OW 7813   0.130   3.683   9.019
 2424SOL    HW1 7814   0.120   3.668   9.118
 2424SOL    HW2 7815   0.044   3.719   8.983
 2425SOL     OW 7816   0.865   2.210   7.643
 2425SOL    HW1 7817   0.924   2.273   7.594
 2425SOL    HW2 7818   0.884   2.116   7.614
 2426SOL     OW 7819   1.719   2.447   9.279
 2426SOL    HW1 7820   1.693   2.536   9.243
 2426SOL    HW2 7821   1.717   2.379   9.206
 2427SOL     OW 7822   1.362   3.006   7.993
 2427SOL    HW1 7823   1.445   2.977   7.945
 2427SOL    HW2 7824   1.313   3.073   7.937
 2428SOL     OW 7825   0.550   2.058   8.333
 2428SOL    HW1 7826   0.545   2.053   8.433
 2428SOL    HW2 7827   0.552   2.154   8.304
 2429SOL     OW 7828   1.008   3.318   7.925
 2429SOL    HW1 7829   0.962   3.390   7.873
 2429SOL    HW2 7830   1.004   3.338   8.023
 2430SOL     OW 7831   0.351   3.663   8.301
 2430SOL    HW1 7832   0.401   3.577   8.307
 2430SOL    HW2 7833   0.416   3.740   8.298
 2431SOL     OW 7834   1.795   2.928   8.321
 2431SOL    HW1 7835   1.733   2.913   8.245
 2431SOL    HW2 7836   1.743   2.939   8.406
 2432SOL     OW 7837   1.227   3.412   8.954
 2432SOL    HW1 7838   1.233   3.335   9.018
 2432SOL    HW2 7839   1.175   3.386   8.874
 2433SOL     OW 7840   0.321   2.805   7.690
 2433SOL    HW1 7841   0.403   2.844   7.648
 2433SOL    HW2 7842   0.294   2.723   7.641
 2434SOL     OW 7843   1.458   2.597   8.176
 2434SOL    HW1 7844   1.453   2.532   8.251
 2434SOL    HW2 7845   1.538   2.656   8.189
 2435SOL     OW 7846   0.461   3.128   9.175
 2435SOL    HW1 7847   0.411   3.129   9.089
 2435SOL    HW2 7848   0.398   3.110   9.251
 2436SOL     OW 7849   1.111   3.638   7.685
 2436SOL    HW1 7850   1.051   3.576   7.735
 2436SOL    HW2 7851   1.142   3.594   7.600
 2437SOL     OW 7852   0.202   2.147   8.946
 2437SOL    HW1 7853   0.122   2.207   8.933
 2437SOL    HW2 7854   0.192   2.098   9.032
 2438SOL     OW 7855   1.632   3.239   7.529
 2438SOL    HW1 7856   1.600   3.333   7.519
 2438SOL    HW2 7857   1.556   3.176   7.517
 2439SOL     OW 7858   0.464   3.605   7.771
 2439SOL    HW1 7859   0.497   3.644   7.857
 2439SOL    HW2 7860   0.540   3.598   7.706
 2440SOL     OW 7861   0.249   3.647   8.689
 2440SOL    HW1 7862   0.306   3.582   8.739
 2440SOL    HW2 7863   0.233   3.614   8.596
 2441SOL     OW 7864   0.940   3.560   8.352
 2441SOL    HW1 7865   1.020   3.503   8.373
 2441SOL    HW2 7866   0.891   3.520   8.275
 2442SOL     OW 7867   0.382   2.562   7.928
 2442SOL    HW1 7868   0.427   2.472   7.925
 2442SOL    HW2 7869   0.288   2.551   7.961
 2443SOL     OW 7870   1.547   2.084   9.177
 2443SOL    HW1 7871   1.542   2.121   9.269
 2443SOL    HW2 7872   1.475   2.015   9.165
 2444SOL     OW 7873   0.614   1.984   7.565
 2444SOL    HW1 7874   0.712   1.962   7.572
 2444SOL    HW2 7875   0.583   1.967   7.472
 2445SOL     OW 7876   0.781   2.126   9.197
 2445SOL    HW1 7877   0.848   2.065   9.240
 2445SOL    HW2 7878   0.708   2.145   9.262
 2446SOL     OW 7879   0.888   3.376   8.643
 2446SOL    HW1 7880   0.865   3.351   8.549
 2446SOL    HW2 7881   0.949   3.307   8.682
 2447SOL     OW 7882   1.351   2.452   8.881
 2447SOL    HW1 7883   1.379   2.409   8.966
 2447SOL    HW2 7884   1.376   2.548   8.882
 2448SOL     OW 7885   0.803   3.264   8.372
 2448SOL    HW1 7886   0.893   3.278   8.330
 2448SOL    HW2 7887   0.732   3.266   8.301
 2449SOL     OW 7888   0.922   2.365   8.347
 2449SOL    HW1 7889   0.897   2.356   8.251
 2449SOL    HW2 7890   0.970   2.283   8.378
 2450SOL     OW 7891   0.539   1.926   7.960
 2450SOL    HW1 7892   0.458   1.927   8.018
 2450SOL    HW2 7893   0.542   2.009   7.905
 2451SOL     OW 7894   1.434   3.050   7.489
 2451SOL    HW1 7895   1.466   2.974   7.546
 2451SOL    HW2 7896   1.342   3.077   7.519
 2452SOL     OW 7897   0.297   1.897   7.619
 2452SOL    HW1 7898   0.346   1.981   7.598
 2452SOL    HW2 7899   0.359   1.832   7.664
 2453SOL     OW 7900   0.935   2.098   7.928
 2453SOL    HW1 7901   0.887   2.139   7.850
 2453SOL    HW2 7902   1.034   2.096   7.909
 2454SOL     OW 7903   1.076   2.545   8.912
 2454SOL    HW1 7904   0.996   2.484   8.915
 2454SOL    HW2 7905   1.157   2.492   8.888
 2455SOL     OW 7906   1.227   3.432   8.241
 2455SOL    HW1 7907   1.248   3.506   8.176
 2455SOL    HW2 7908   1.295   3.432   8.314
 2456SOL     OW 7909   0.459   3.014   8.189
 2456SOL    HW1 7910   0.388   2.987   8.254
 2456SOL    HW2 7911   0.433   2.986   8.096
 2457SOL     OW 7912   1.271   3.659   8.039
 2457SOL    HW1 7913   1.315   3.723   7.975
 2457SOL    HW2 7914   1.221   3.711   8.109
 2458SOL     OW 7915   1.032   2.411   7.464
 2458SOL    HW1 7916   0.991   2.493   7.425
 2458SOL    HW2 7917   1.096   2.437   7.537
 2459SOL     OW 7918   0.078   2.418   8.834
 2459SOL    HW1 7919   0.170   2.417   8.793
 2459SOL    HW2 7920   0.072   2.492   8.901
 2460SOL     OW 7921   0.561   2.084   8.595
 2460SOL    HW1 7922   0.599   2.000   8.632
 2460SOL    HW2 7923   0.473   2.103   8.639
 2461SOL     OW 7924   0.866   2.316   8.090
 2461SOL    HW1 7925   0.834   2.388   8.028
 2461SOL    HW2 7926   0.890   2.235   8.037
 2462SOL     OW 7927   1.017   1.901   8.201
 2462SOL    HW1 7928   0.945   1.906   8.132
 2462SOL    HW2 7929   0.993   1.832   8.270
 2463SOL     OW 7930   1.429   3.035   8.315
 2463SOL    HW1 7931   1.374   2.951   8.308
 2463SOL    HW2 7932   1.455   3.064   8.223
 2464SOL     OW 7933   1.466   2.452   8.440
 2464SOL    HW1 7934   1.436   2.357   8.447
 2464SOL    HW2 7935   1.539   2.468   8.506
 2465SOL     OW 7936   1.857   2.695   7.825
 2465SOL    HW1 7937   1.899   2.631   7.889
 2465SOL    HW2 7938   1.819   2.644   7.747
 2466SOL     OW 7939   0.488   3.247   7.622
 2466SOL    HW1 7940   0.401   3.232   7.669
 2466SOL    HW2 7941   0.471   3.273   7.527
 2467SOL     OW 7942   1.664   3.142   8.105
 2467SOL    HW1 7943   1.763   3.150   8.119
 2467SOL    HW2 7944   1.619   3.226   8.136
 2468SOL     OW 7945   0.527   2.118   7.776
 2468SOL    HW1 7946   0.554   2.059   7.701
 2468SOL    HW2 7947   0.527   2.213   7.745
 2469SOL     OW 7948   1.754   3.085   9.036
 2469SOL    HW1 7949   1.845   3.046   9.023
 2469SOL    HW2 7950   1.762   3.181   9.060
 2470SOL     OW 7951   1.064   3.209   8.788
 2470SOL    HW1 7952   0.984   3.186   8.843
 2470SOL    HW2 7953   1.147   3.183   8.837
 2471SOL     OW 7954   1.592   3.491   9.073
 2471SOL    HW1 7955   1.619   3.525   8.983
 2471SOL    HW2 7956   1.671   3.453   9.119
 2472SOL     OW 7957   1.111   3.057   8.548
 2472SOL    HW1 7958   1.071   3.101   8.629
 2472SOL    HW2 7959   1.070   3.094   8.465
 2473SOL     OW 7960   1.638   2.961   8.527
 2473SOL    HW1 7961   1.643   3.042   8.586
 2473SOL    HW2 7962   1.552   2.963   8.476
 2474SOL     OW 7963   0.915   1.951   8.850
 2474SOL    HW1 7964   0.940   1.931   8.755
 2474SOL    HW2 7965   0.987   2.007   8.892
 2475SOL     OW 7966   0.980   2.978   9.167
 2475SOL    HW1 7967   0.881   2.984   9.177
 2475SOL    HW2 7968   1.003   2.898   9.111
 2476SOL     OW 7969   0.705   2.912   7.816
 2476SOL    HW1 7970   0.691   2.919   7.915
 2476SOL    HW2 7971   0.789   2.861   7.798
 2477SOL     OW 7972   0.410   2.675   8.699
 2477SOL    HW1 7973   0.496   2.687   8.749
 2477SOL    HW2 7974   0.368   2.588   8.726
 2478SOL     OW 7975   1.274   2.248   8.710
 2478SOL    HW1 7976   1.295   2.322   8.774
 2478SOL    HW2 7977   1.185   2.265   8.667
 2479SOL     OW 7978   0.064   3.426   8.779
 2479SOL    HW1 7979   0.018   3.508   8.745
 2479SOL    HW2 7980   0.162   3.445   8.788
 2480SOL     OW 7981   0.367   2.962   7.949
 2480SOL    HW1 7982   0.360   3.045   7.893
 2480SOL    HW2 7983   0.371   2.882   7.889
 2481SOL     OW 7984   0.566   2.399   8.313
 2481SOL    HW1 7985   0.578   2.465   8.239
 2481SOL    HW2 7986   0.612   2.433   8.396
 2482SOL     OW 7987   1.252   3.210   7.836
 2482SOL    HW1 7988   1.302   3.287   7.876
 2482SOL    HW2 7989   1.157   3.212   7.868
 2483SOL     OW 7990   1.272   3.307   8.590
 2483SOL    HW1 7991   1.319   3.320   8.677
 2483SOL    HW2 7992   1.206   3.233   8.599
 2484SOL     OW 7993   1.582   2.501   7.920
 2484SOL    HW1 7994   1.551   2.562   7.993
 2484SOL    HW2 7995   1.632   2.553   7.851
 2485SOL     OW 7996   0.354   3.372   8.777
 2485SOL    HW1 7997   0.333   3.328   8.690
 2485SOL    HW2 7998   0.451   3.398   8.780
 2486SOL     OW 7999   0.402   2.613   9.046
 2486SOL    HW1 8000   0.470   2.668   8.999
 2486SOL    HW2 8001   0.442   2.525   9.073
 2487SOL     OW 8002   1.587   2.641   9.118
 2487SOL    HW1 8003   1.495   2.679   9.113
 2487SOL    HW2 8004   1.647   2.688   9.053
 2488SOL     OW 8005   1.013   1.967   9.218
 2488SOL    HW1 8006   1.019   2.052   9.166
 2488SOL    HW2 8007   1.045   1.891   9.161
 2489SOL     OW 8008   0.504   1.912   9.188
 2489SOL    HW1 8009   0.462   1.855   9.118
 2489SOL    HW2 8010   0.438   1.981   9.220
 2490SOL     OW 8011   0.573   2.732   8.477
 2490SOL    HW1 8012   0.617   2.821   8.468
 2490SOL    HW2 8013   0.510   2.732   8.554
 2491SOL     OW 8014   1.360   2.724   8.493
 2491SOL    HW1 8015   1.285   2.724   8.427
 2491SOL    HW2 8016   1.397   2.632   8.502
 2492SOL     OW 8017   1.209   2.387   7.723
 2492SOL    HW1 8018   1.222   2.303   7.777
 2492SOL    HW2 8019   1.180   2.461   7.783
 2493SOL     OW 8020   0.307   2.075   8.679
 2493SOL    HW1 8021   0.284   2.112   8.769
 2493SOL    HW2 8022   0.277   1.980   8.673
 2494SOL     OW 8023   0.037   3.172   8.730
 2494SOL    HW1 8024   0.090   3.123   8.798
 2494SOL    HW2 8025   0.059   3.270   8.735
 2495SOL     OW 8026   0.732   2.496   8.512
 2495SOL    HW1 8027   0.791   2.470   8.436
 2495SOL    HW2 8028   0.704   2.592   8.501
 2496SOL     OW 8029   1.728   2.797   9.302
 2496SOL    HW1 8030   1.682   2.790   9.213
 2496SOL    HW2 8031   1.666   2.841   9.368
 2497SOL     OW 8032   0.307   1.925   8.066
 2497SOL    HW1 8033   0.296   2.019   8.099
 2497SOL    HW2 8034   0.302   1.862   8.143
 2498SOL     OW 8035   1.023   2.628   8.414
 2498SOL    HW1 8036   1.038   2.649   8.510
 2498SOL    HW2 8037   0.993   2.533   8.405
 2499SOL     OW 8038   0.980   3.435   9.148
 2499SOL    HW1 8039   0.960   3.479   9.060
 2499SOL    HW2 8040   1.019   3.344   9.132
 2500SOL     OW 8041   1.859   3.380   9.053
 2500SOL    HW1 8042   1.873   3.407   8.958
 2500SOL    HW2 8043   1.942   3.402   9.106
 2501SOL     OW 8044   0.350   2.760   9.252
 2501SOL    HW1 8045   0.426   2.804   9.300
 2501SOL    HW2 8046   0.385   2.713   9.170
 2502SOL     OW 8047   1.303   2.700   7.490
 2502SOL    HW1 8048   1.337   2.607   7.505
 2502SOL    HW2 8049   1.321   2.727   7.395
 2503SOL     OW 8050   1.068   3.195   8.297
 2503SOL    HW1 8051   1.075   3.111   8.242
 2503SOL    HW2 8052   1.130   3.264   8.261
 2504SOL     OW 8053   0.319   2.672   8.397
 2504SOL    HW1 8054   0.412   2.708   8.402
 2504SOL    HW2 8055   0.313   2.587   8.449
 2505SOL     OW 8056   0.339   2.371   8.454
 2505SOL    HW1 8057   0.287   2.288   8.437
 2505SOL    HW2 8058   0.416   2.376   8.390
 2506SOL     OW 8059   1.138   2.242   9.126
 2506SOL    HW1 8060   1.093   2.305   9.190
 2506SOL    HW2 8061   1.231   2.273   9.109
 2507SOL     OW 8062   1.160   2.069   8.925
 2507SOL    HW1 8063   1.160   2.133   9.002
 2507SOL    HW2 8064   1.188   2.117   8.842
 2508SOL     OW 8065   0.008   3.188   7.648
 2508SOL    HW1 8066  -0.085   3.209   7.617
 2508SOL    HW2 8067   0.018   3.089   7.661
 2509SOL     OW 8068   0.088   3.663   8.375
 2509SOL    HW1 8069   0.046   3.577   8.348
 2509SOL    HW2 8070   0.182   3.666   8.341
 2510SOL     OW 8071   0.504   3.430   8.358
 2510SOL    HW1 8072   0.570   3.504   8.367
 2510SOL    HW2 8073   0.548   3.351   8.316
 2511SOL     OW 8074   1.002   2.658   8.686
 2511SOL    HW1 8075   1.043   2.626   8.772
 2511SOL    HW2 8076   0.906   2.631   8.683
 2512SOL     OW 8077   0.040   2.406   8.562
 2512SOL    HW1 8078   0.125   2.373   8.521
 2512SOL    HW2 8079   0.053   2.421   8.660
 2513SOL     OW 8080   0.189   2.382   9.170
 2513SOL    HW1 8081   0.248   2.342   9.100
 2513SOL    HW2 8082   0.131   2.453   9.129
 2514SOL     OW 8083   1.369   2.812   9.108
 2514SOL    HW1 8084   1.408   2.901   9.128
 2514SOL    HW2 8085   1.379   2.792   9.011
 2515SOL     OW 8086   0.815   2.434   7.773
 2515SOL    HW1 8087   0.822   2.345   7.727
 2515SOL    HW2 8088   0.721   2.468   7.765
 2516SOL     OW 8089   1.657   2.466   8.654
 2516SOL    HW1 8090   1.619   2.397   8.716
 2516SOL    HW2 8091   1.739   2.430   8.610
 2517SOL     OW 8092   0.252   3.426   9.192
 2517SOL    HW1 8093   0.222   3.483   9.268
 2517SOL    HW2 8094   0.245   3.329   9.218
 2518SOL     OW 8095   0.671   2.326   8.717
 2518SOL    HW1 8096   0.637   2.237   8.687
 2518SOL    HW2 8097   0.697   2.380   8.637
 2519SOL     OW 8098   0.930   3.540   8.913
 2519SOL    HW1 8099   0.906   3.522   8.818
 2519SOL    HW2 8100   0.960   3.634   8.923
 2520SOL     OW 8101   0.473   2.362   7.639
 2520SOL    HW1 8102   0.534   2.442   7.643
 2520SOL    HW2 8103   0.378   2.393   7.646
 2521SOL     OW 8104   0.159   2.999   8.914
 2521SOL    HW1 8105   0.181   2.938   8.990
 2521SOL    HW2 8106   0.169   2.950   8.828
 2522SOL     OW 8107   1.347   2.921   8.682
 2522SOL    HW1 8108   1.371   2.858   8.608
 2522SOL    HW2 8109   1.257   2.961   8.664
 2523SOL     OW 8110   1.302   2.717   7.757
 2523SOL    HW1 8111   1.216   2.686   7.799
 2523SOL    HW2 8112   1.298   2.703   7.658
 2524SOL     OW 8113   1.759   3.609   8.602
 2524SOL    HW1 8114   1.820   3.639   8.529
 2524SOL    HW2 8115   1.721   3.520   8.580
 2525SOL     OW 8116   1.252   3.593   8.576
 2525SOL    HW1 8117   1.336   3.598   8.522
 2525SOL    HW2 8118   1.229   3.497   8.594
 2526SOL     OW 8119   0.083   3.120   8.470
 2526SOL    HW1 8120   0.078   3.119   8.570
 2526SOL    HW2 8121   0.000   3.079   8.432
 2527SOL     OW 8122   0.688   3.524   9.164
 2527SOL    HW1 8123   0.632   3.605   9.173
 2527SOL    HW2 8124   0.740   3.528   9.078
 2528SOL     OW 8125   1.726   1.997   7.971
 2528SOL    HW1 8126   1.799   1.980   7.904
 2528SOL    HW2 8127   1.695   1.910   8.009
 2529SOL     OW 8128   1.388   3.435   7.925
 2529SOL    HW1 8129   1.455   3.447   7.851
 2529SOL    HW2 8130   1.348   3.524   7.948
 2530SOL     OW 8131   0.130   3.656   9.299
 2530SOL    HW1 8132   0.089   3.582   9.352
 2530SOL    HW2 8133   0.194   3.707   9.357
 2531SOL     OW 8134   1.280   2.789   8.120
 2531SOL    HW1 8135   1.340   2.708   8.122
 2531SOL    HW2 8136   1.320   2.858   8.060
 2532SOL     OW 8137   0.830   3.135   8.870
 2532SOL    HW1 8138   0.825   3.168   8.965
 2532SOL    HW2 8139   0.744   3.154   8.824
 2533SOL     OW 8140   0.672   3.478   7.602
 2533SOL    HW1 8141   0.681   3.488   7.503
 2533SOL    HW2 8142   0.632   3.389   7.623
 2534SOL     OW 8143   1.650   3.582   8.842
 2534SOL    HW1 8144   1.703   3.592   8.758
 2534SOL    HW2 8145   1.623   3.672   8.876
 2535SOL     OW 8146   0.263   2.188   8.168
 2535SOL    HW1 8147   0.184   2.239   8.134
 2535SOL    HW2 8148   0.254   2.173   8.266
 2536SOL     OW 8149   1.194   3.474   7.479
 2536SOL    HW1 8150   1.200   3.381   7.516
 2536SOL    HW2 8151   1.135   3.474   7.399
 2537SOL     OW 8152   0.822   2.864   8.820
 2537SOL    HW1 8153   0.862   2.863   8.728
 2537SOL    HW2 8154   0.832   2.956   8.860
 2538SOL     OW 8155   0.916   2.772   7.739
 2538SOL    HW1 8156   0.979   2.810   7.671
 2538SOL    HW2 8157   0.956   2.689   7.778
 2539SOL     OW 8158   1.504   3.469   7.492
 2539SOL    HW1 8159   1.412   3.506   7.499
 2539SOL    HW2 8160   1.542   3.489   7.402
 2540SOL     OW 8161   0.372   3.150   8.938
 2540SOL    HW1 8162   0.359   3.243   8.904
 2540SOL    HW2 8163   0.288   3.098   8.925
 2541SOL     OW 8164   1.614   3.154   8.737
 2541SOL    HW1 8165   1.674   3.157   8.817
 2541SOL    HW2 8166   1.539   3.218   8.750
 2542SOL     OW 8167   1.039   2.960   8.144
 2542SOL    HW1 8168   0.969   2.913   8.198
 2542SOL    HW2 8169   1.098   2.892   8.101
 2543SOL     OW 8170   1.014   2.098   8.419
 2543SOL    HW1 8171   1.006   2.062   8.326
 2543SOL    HW2 8172   1.012   2.022   8.484
 2544SOL     OW 8173   0.590   3.349   7.939
 2544SOL    HW1 8174   0.632   3.291   7.869
 2544SOL    HW2 8175   0.546   3.428   7.895
 2545SOL     OW 8176   1.709   2.247   8.829
 2545SOL    HW1 8177   1.782   2.316   8.833
 2545SOL    HW2 8178   1.737   2.172   8.770
 2546SOL     OW 8179   0.255   3.210   7.738
 2546SOL    HW1 8180   0.159   3.211   7.711
 2546SOL    HW2 8181   0.267   3.263   7.822
 2547SOL     OW 8182   0.105   2.875   9.174
 2547SOL    HW1 8183   0.028   2.842   9.228
 2547SOL    HW2 8184   0.190   2.845   9.216
 2548SOL     OW 8185   0.672   2.065   8.937
 2548SOL    HW1 8186   0.762   2.049   8.897
 2548SOL    HW2 8187   0.680   2.070   9.036
 2549SOL     OW 8188   0.075   2.207   7.481
 2549SOL    HW1 8189  -0.017   2.179   7.452
 2549SOL    HW2 8190   0.106   2.284   7.425
 2550SOL     OW 8191   1.440   2.718   8.846
 2550SOL    HW1 8192   1.383   2.770   8.783
 2550SOL    HW2 8193   1.536   2.730   8.822
 2551SOL     OW 8194   0.072   2.028   7.766
 2551SOL    HW1 8195   0.055   2.111   7.712
 2551SOL    HW2 8196   0.162   1.991   7.744
 2552SOL     OW 8197   1.183   3.197   7.567
 2552SOL    HW1 8198   1.084   3.186   7.569
 2552SOL    HW2 8199   1.217   3.212   7.660
 2553SOL     OW 8200   0.613   2.704   8.879
 2553SOL    HW1 8201   0.669   2.785   8.862
 2553SOL    HW2 8202   0.672   2.624   8.882
 2554SOL     OW 8203   1.493   3.629   8.407
 2554SOL    HW1 8204   1.526   3.693   8.338
 2554SOL    HW2 8205   1.559   3.623   8.482
 2555SOL     OW 8206   0.716   2.427   9.156
 2555SOL    HW1 8207   0.735   2.492   9.230
 2555SOL    HW2 8208   0.776   2.347   9.165
 2556SOL     OW 8209   1.450   3.082   9.081
 2556SOL    HW1 8210   1.441   3.072   9.180
 2556SOL    HW2 8211   1.546   3.075   9.055
 2557SOL     OW 8212   0.390   3.603   9.008
 2557SOL    HW1 8213   0.299   3.644   9.006
 2557SOL    HW2 8214   0.383   3.509   9.040
 2558SOL     OW 8215   1.674   2.745   8.702
 2558SOL    HW1 8216   1.647   2.656   8.665
 2558SOL    HW2 8217   1.675   2.813   8.629
 2559SOL     OW 8218   1.225   2.187   7.897
 2559SOL    HW1 8219   1.290   2.113   7.886
 2559SOL    HW2 8220   1.245   2.237   7.981
 2560SOL     OW 8221   0.594   2.607   8.100
 2560SOL    HW1 8222   0.644   2.692   8.081
 2560SOL    HW2 8223   0.506   2.609   8.052
 2561SOL     OW 8224   1.777   2.204   9.090
 2561SOL    HW1 8225   1.760   2.235   8.996
 2561SOL    HW2 8226   1.693   2.167   9.128
 2562SOL     OW 8227   1.730   2.796   8.965
 2562SOL    HW1 8228   1.768   2.887   8.980
 2562SOL    HW2 8229   1.722   2.779   8.866
 2563SOL     OW 8230   0.859   3.236   7.464
 2563SOL    HW1 8231   0.813   3.251   7.552
 2563SOL    HW2 8232   0.903   3.321   7.434
 2564SOL     OW 8233   0.661   3.652   8.401
 2564SOL    HW1 8234   0.615   3.740   8.388
 2564SOL    HW2 8235   0.760   3.664   8.394
 2565SOL     OW 8236   0.859   2.818   8.309
 2565SOL    HW1 8237   0.913   2.749   8.357
 2565SOL    HW2 8238   0.827   2.887   8.375
 2566SOL     OW 8239   1.083   2.846   7.535
 2566SOL    HW1 8240   1.060   2.899   7.453
 2566SOL    HW2 8241   1.164   2.790   7.516
 2567SOL     OW 8242   1.861   3.431   8.299
 2567SOL    HW1 8243   1.790   3.419   8.229
 2567SOL    HW2 8244   1.862   3.352   8.359
 2568SOL     OW 8245   0.221   3.176   9.292
 2568SOL    HW1 8246   0.156   3.103   9.271
 2568SOL    HW2 8247   0.225   3.190   9.390
 2569SOL     OW 8248   0.079   3.102   8.101
 2569SOL    HW1 8249   0.078   3.055   8.189
 2569SOL    HW2 8250   0.161   3.074   8.050
 2570SOL     OW 8251   0.672   3.253   9.072
 2570SOL    HW1 8252   0.594   3.203   9.110
 2570SOL    HW2 8253   0.669   3.348   9.103
 2571SOL     OW 8254   0.428   2.286   7.968
 2571SOL    HW1 8255   0.458   2.214   7.906
 2571SOL    HW2 8256   0.389   2.246   8.051
 2572SOL     OW 8257   1.705   3.349   8.552
 2572SOL    HW1 8258   1.612   3.324   8.525
 2572SOL    HW2 8259   1.731   3.299   8.634
 2573SOL     OW 8260   0.317   2.409   8.728
 2573SOL    HW1 8261   0.355   2.350   8.800
 2573SOL    HW2 8262   0.357   2.383   8.640
 2574SOL     OW 8263   0.812   3.448   8.135
 2574SOL    HW1 8264   0.844   3.458   8.041
 2574SOL    HW2 8265   0.733   3.386   8.137
 2575SOL     OW 8266   1.424   2.076   8.560
 2575SOL    HW1 8267   1.476   2.011   8.615
 2575SOL    HW2 8268   1.375   2.139   8.621
 2576SOL     OW 8269   1.001   1.896   8.602
 2576SOL    HW1 8270   0.938   1.824   8.571
 2576SOL    HW2 8271   1.094   1.860   8.602
 2577SOL     OW 8272   0.770   3.192   7.749
 2577SOL    HW1 8273   0.724   3.105   7.766
 2577SOL    HW2 8274   0.861   3.189   7.790
 2578SOL     OW 8275   0.618   3.429   8.732
 2578SOL    HW1 8276   0.613   3.511   8.789
 2578SOL    HW2 8277   0.707   3.426   8.687
 2579SOL     OW 8278   1.300   2.315   8.139
 2579SOL    HW1 8279   1.241   2.395   8.143
 2579SOL    HW2 8280   1.315   2.280   8.232
 2580SOL     OW 8281   1.593   2.083   8.330
 2580SOL    HW1 8282   1.509   2.082   8.384
 2580SOL    HW2 8283   1.595   2.166   8.274
 2581SOL     OW 8284   0.039   2.939   7.748
 2581SOL    HW1 8285   0.138   2.928   7.739
 2581SOL    HW2 8286  -0.001   2.853   7.780
 2582SOL     OW 8287   0.875   3.508   7.785
 2582SOL    HW1 8288   0.798   3.473   7.731
 2582SOL    HW2 8289   0.843   3.579   7.847
 2583SOL     OW 8290   0.230   2.490   9.423
 2583SOL    HW1 8291   0.137   2.488   9.460
 2583SOL    HW2 8292   0.231   2.451   9.331
 2584SOL     OW 8293   0.225   2.137  10.306
 2584SOL    HW1 8294   0.260   2.120  10.398
 2584SOL    HW2 8295   0.137   2.092  10.294
 2585SOL     OW 8296   0.019   2.230   9.957
 2585SOL    HW1 8297  -0.063   2.273   9.996
 2585SOL    HW2 8298  -0.009   2.157   9.894
 2586SOL     OW 8299   0.569   3.137  10.475
 2586SOL    HW1 8300   0.476   3.130  10.438
 2586SOL    HW2 8301   0.580   3.226  10.519
 2587SOL     OW 8302   1.555   3.373  10.013
 2587SOL    HW1 8303   1.498   3.357  10.094
 2587SOL    HW2 8304   1.496   3.383   9.933
 2588SOL     OW 8305   1.135   2.565  10.027
 2588SOL    HW1 8306   1.192   2.643  10.002
 2588SOL    HW2 8307   1.075   2.591  10.103
 2589SOL     OW 8308   1.755   2.469   9.541
 2589SOL    HW1 8309   1.743   2.456   9.442
 2589SOL    HW2 8310   1.725   2.388   9.590
 2590SOL     OW 8311   0.768   3.006  10.333
 2590SOL    HW1 8312   0.690   3.023  10.393
 2590SOL    HW2 8313   0.802   3.093  10.297
 2591SOL     OW 8314   0.850   2.660  11.133
 2591SOL    HW1 8315   0.846   2.736  11.198
 2591SOL    HW2 8316   0.872   2.696  11.042
 2592SOL     OW 8317   0.685   2.874   9.975
 2592SOL    HW1 8318   0.754   2.858  10.045
 2592SOL    HW2 8319   0.612   2.931  10.013
 2593SOL     OW 8320   0.686   3.023  11.113
 2593SOL    HW1 8321   0.746   3.102  11.127
 2593SOL    HW2 8322   0.600   3.054  11.072
 2594SOL     OW 8323   0.335   3.297  10.371
 2594SOL    HW1 8324   0.257   3.266  10.318
 2594SOL    HW2 8325   0.393   3.355  10.314
 2595SOL     OW 8326   1.460   3.367  10.649
 2595SOL    HW1 8327   1.484   3.461  10.675
 2595SOL    HW2 8328   1.444   3.313  10.731
 2596SOL     OW 8329   0.438   2.254  10.809
 2596SOL    HW1 8330   0.520   2.198  10.818
 2596SOL    HW2 8331   0.357   2.196  10.813
 2597SOL     OW 8332   1.603   2.309  10.047
 2597SOL    HW1 8333   1.529   2.355   9.997
 2597SOL    HW2 8334   1.654   2.377  10.100
 2598SOL     OW 8335   0.231   3.575   9.793
 2598SOL    HW1 8336   0.265   3.652   9.847
 2598SOL    HW2 8337   0.275   3.575   9.703
 2599SOL     OW 8338   1.127   3.203  11.000
 2599SOL    HW1 8339   1.174   3.203  11.088
 2599SOL    HW2 8340   1.079   3.116  10.989
 2600SOL     OW 8341   0.230   3.296   9.848
 2600SOL    HW1 8342   0.204   3.392   9.848
 2600SOL    HW2 8343   0.159   3.242   9.893
 2601SOL     OW 8344   0.240   2.953  10.196
 2601SOL    HW1 8345   0.254   2.869  10.248
 2601SOL    HW2 8346   0.185   3.017  10.251
 2602SOL     OW 8347   0.620   3.648  10.749
 2602SOL    HW1 8348   0.528   3.631  10.784
 2602SOL    HW2 8349   0.648   3.740  10.775
 2603SOL     OW 8350   0.606   2.826   9.433
 2603SOL    HW1 8351   0.613   2.910   9.379
 2603SOL    HW2 8352   0.652   2.839   9.521
 2604SOL     OW 8353   1.594   1.976  10.790
 2604SOL    HW1 8354   1.576   2.043  10.718
 2604SOL    HW2 8355   1.591   2.022  10.879
 2605SOL     OW 8356   0.122   2.505   9.873
 2605SOL    HW1 8357   0.077   2.417   9.890
 2605SOL    HW2 8358   0.121   2.559   9.957
 2606SOL     OW 8359   1.842   3.629   9.669
 2606SOL    HW1 8360   1.896   3.600   9.749
 2606SOL    HW2 8361   1.872   3.719   9.640
 2607SOL     OW 8362   0.027   3.458   9.427
 2607SOL    HW1 8363   0.008   3.362   9.448
 2607SOL    HW2 8364  -0.006   3.516   9.502
 2608SOL     OW 8365   1.689   2.784   9.922
 2608SOL    HW1 8366   1.784   2.755   9.930
 2608SOL    HW2 8367   1.681   2.849   9.847
 2609SOL     OW 8368   1.641   2.970   9.742
 2609SOL    HW1 8369   1.727   2.972   9.690
 2609SOL    HW2 8370   1.655   3.017   9.830
 2610SOL     OW 8371   0.113   2.599  10.907
 2610SOL    HW1 8372   0.201   2.586  10.952
 2610SOL    HW2 8373   0.100   2.696  10.885
 2611SOL     OW 8374   0.613   3.227  10.036
 2611SOL    HW1 8375   0.564   3.140  10.045
 2611SOL    HW2 8376   0.590   3.270   9.949
 2612SOL     OW 8377   1.293   3.090  10.733
 2612SOL    HW1 8378   1.330   3.017  10.675
 2612SOL    HW2 8379   1.345   3.095  10.818
 2613SOL     OW 8380   0.809   1.866   9.812
 2613SOL    HW1 8381   0.849   1.957   9.803
 2613SOL    HW2 8382   0.709   1.874   9.818
 2614SOL     OW 8383   0.197   2.838  10.574
 2614SOL    HW1 8384   0.286   2.793  10.560
 2614SOL    HW2 8385   0.124   2.773  10.555
 2615SOL     OW 8386   1.525   2.861   9.500
 2615SOL    HW1 8387   1.462   2.785   9.513
 2615SOL    HW2 8388   1.573   2.879   9.586
 2616SOL     OW 8389   1.187   3.654  10.926
 2616SOL    HW1 8390   1.211   3.714  10.850
 2616SOL    HW2 8391   1.194   3.559  10.896
 2617SOL     OW 8392   0.317   2.113  11.111
 2617SOL    HW1 8393   0.388   2.184  11.117
 2617SOL    HW2 8394   0.229   2.152  11.139
 2618SOL     OW 8395   1.466   3.279  10.263
 2618SOL    HW1 8396   1.407   3.285  10.343
 2618SOL    HW2 8397   1.451   3.191  10.217
 2619SOL     OW 8398   1.667   3.576   9.882
 2619SOL    HW1 8399   1.626   3.553   9.794
 2619SOL    HW2 8400   1.649   3.502   9.947
 2620SOL     OW 8401   0.598   2.591   9.580
 2620SOL    HW1 8402   0.622   2.660   9.512
 2620SOL    HW2 8403   0.520   2.624   9.634
 2621SOL     OW 8404   1.281   2.207  10.254
 2621SOL    HW1 8405   1.195   2.157  10.241
 2621SOL    HW2 8406   1.343   2.153  10.310
 2622SOL     OW 8407   1.576   3.524   9.617
 2622SOL    HW1 8408   1.665   3.570   9.620
 2622SOL    HW2 8409   1.555   3.500   9.522
 2623SOL     OW 8410   0.807   2.467  10.775
 2623SOL    HW1 8411   0.760   2.464  10.864
 2623SOL    HW2 8412   0.756   2.412  10.709
 2624SOL     OW 8413   1.394   2.331  10.984
 2624SOL    HW1 8414   1.374   2.374  11.072
 2624SOL    HW2 8415   1.472   2.269  10.993
 2625SOL     OW 8416   0.973   2.752  10.882
 2625SOL    HW1 8417   1.019   2.668  10.853
 2625SOL    HW2 8418   0.917   2.786  10.807
 2626SOL     OW 8419   0.991   2.272  10.552
 2626SOL    HW1 8420   0.914   2.306  10.606
 2626SOL    HW2 8421   0.957   2.221  10.473
 2627SOL     OW 8422   1.041   2.563   9.739
 2627SOL    HW1 8423   1.067   2.559   9.835
 2627SOL    HW2 8424   0.956   2.512   9.725
 2628SOL     OW 8425   0.076   2.673  10.099
 2628SOL    HW1 8426   0.175   2.661  10.108
 2628SOL    HW2 8427   0.052   2.768  10.120
 2629SOL     OW 8428   0.130   3.683  10.881
 2629SOL    HW1 8429   0.120   3.668  10.980
 2629SOL    HW2 8430   0.044   3.719  10.845
 2630SOL     OW 8431   0.865   2.210   9.505
 2630SOL    HW1 8432   0.924   2.273   9.456
 2630SOL    HW2 8433   0.884   2.116   9.476
 2631SOL     OW 8434   1.719   2.447  11.141
 2631SOL    HW1 8435   1.693   2.536  11.105
 2631SOL    HW2 8436   1.717   2.379  11.068
 2632SOL     OW 8437   1.362   3.006   9.855
 2632SOL    HW1 8438   1.445   2.977   9.807
 2632SOL    HW2 8439   1.313   3.073   9.799
 2633SOL     OW 8440   0.550   2.058  10.195
 2633SOL    HW1 8441   0.545   2.053  10.295
 2633SOL    HW2 8442   0.552   2.154  10.166
 2634SOL     OW 8443   1.008   3.318   9.787
 2634SOL    HW1 8444   0.962   3.390   9.735
 2634SOL    HW2 8445   1.004   3.338   9.885
 2635SOL     OW 8446   0.351   3.663  10.163
 2635SOL    HW1 8447   0.401   3.577  10.169
 2635SOL    HW2 8448   0.416   3.740  10.160
 2636SOL     OW 8449   1.795   2.928  10.183
 2636SOL    HW1 8450   1.733   2.913  10.107
 2636SOL    HW2 8451   1.743   2.939  10.268
 2637SOL     OW 8452   1.227   3.412  10.816
 2637SOL    HW1 8453   1.233   3.335  10.880
 2637SOL    HW2 8454   1.175   3.386  10.736
 2638SOL     OW 8455   0.321   2.805   9.552
 2638SOL    HW1 8456   0.403   2.844   9.510
 2638SOL    HW2 8457   0.294   2.723   9.503
 2639SOL     OW 8458   1.458   2.597  10.038
 2639SOL    HW1 8459   1.453   2.532  10.113
 2639SOL    HW2 8460   1.538   2.656  10.051
 2640SOL     OW 8461   0.461   3.128  11.037
 2640SOL    HW1 8462   0.411   3.129  10.951
 2640SOL    HW2 8463   0.398   3.110  11.113
 2641SOL     OW 8464   1.111   3.638   9.547
 2641SOL    HW1 8465   1.051   3.576   9.597
 2641SOL    HW2 8466   1.142   3.594   9.462
 2642SOL     OW 8467   0.202   2.147  10.808
 2642SOL    HW1 8468   0.122   2.207  10.795
 2642SOL    HW2 8469   0.192   2.098  10.894
 2643SOL     OW 8470   1.632   3.239   9.391
 2643SOL    HW1 8471   1.600   3.333   9.381
 2643SOL    HW2 8472   1.556   3.176   9.379
 2644SOL     OW 8473   0.464   3.605   9.633
 2644SOL    HW1 8474   0.497   3.644   9.719
 2644SOL    HW2 8475   0.540   3.598   9.568
 2645SOL     OW 8476   1.400   1.969   9.736
 2645SOL    HW1 8477   1.376   1.932   9.646
 2645SOL    HW2 8478   1.499   1.985   9.740
 2646SOL     OW 8479   0.249   3.647  10.551
 2646SOL    HW1 8480   0.306   3.582  10.601
 2646SOL    HW2 8481   0.233   3.614  10.458
 2647SOL     OW 8482   0.940   3.560  10.214
 2647SOL    HW1 8483   1.020   3.503  10.235
 2647SOL    HW2 8484   0.891   3.520  10.137
 2648SOL     OW 8485   0.382   2.562   9.790
 2648SOL    HW1 8486   0.427   2.472   9.787
 2648SOL    HW2 8487   0.288   2.551   9.823
 2649SOL     OW 8488   1.547   2.084  11.039
 2649SOL    HW1 8489   1.542   2.121  11.131
 2649SOL    HW2 8490   1.475   2.015  11.027
 2650SOL     OW 8491   0.614   1.984   9.427
 2650SOL    HW1 8492   0.712   1.962   9.434
 2650SOL    HW2 8493   0.583   1.967   9.334
 2651SOL     OW 8494   0.781   2.126  11.059
 2651SOL    HW1 8495   0.848   2.065  11.102
 2651SOL    HW2 8496   0.708   2.145  11.124
 2652SOL     OW 8497   0.888   3.376  10.505
 2652SOL    HW1 8498   0.865   3.351  10.411
 2652SOL    HW2 8499   0.949   3.307  10.544
 2653SOL     OW 8500   1.351   2.452  10.743
 2653SOL    HW1 8501   1.379   2.409  10.828
 2653SOL    HW2 8502   1.376   2.548  10.744
 2654SOL     OW 8503   0.803   3.264  10.234
 2654SOL    HW1 8504   0.893   3.278  10.192
 2654SOL    HW2 8505   0.732   3.266  10.163
 2655SOL     OW 8506   0.922   2.365  10.209
 2655SOL    HW1 8507   0.897   2.356  10.113
 2655SOL    HW2 8508   0.970   2.283  10.240
 2656SOL     OW 8509   0.539   1.926   9.822
 2656SOL    HW1 8510   0.458   1.927   9.880
 2656SOL    HW2 8511   0.542   2.009   9.767
 2657SOL     OW 8512   1.434   3.050   9.351
 2657SOL    HW1 8513   1.466   2.974   9.408
 2657SOL    HW2 8514   1.342   3.077   9.381
 2658SOL     OW 8515   0.297   1.897   9.481
 2658SOL    HW1 8516   0.346   1.981   9.460
 2658SOL    HW2 8517   0.359   1.832   9.526
 2659SOL     OW 8518   0.935   2.098   9.790
 2659SOL    HW1 8519   0.887   2.139   9.712
 2659SOL    HW2 8520   1.034   2.096   9.771
 2660SOL     OW 8521   1.076   2.545  10.774
 2660SOL    HW1 8522   0.996   2.484  10.777
 2660SOL    HW2 8523   1.157   2.492  10.750
 2661SOL     OW 8524   1.227   3.432  10.103
 2661SOL    HW1 8525   1.248   3.506  10.038
 2661SOL    HW2 8526   1.295   3.432  10.176
 2662SOL     OW 8527   0.459   3.014  10.051
 2662SOL    HW1 8528   0.388   2.987  10.116
 2662SOL    HW2 8529   0.433   2.986   9.958
 2663SOL     OW 8530   1.271   3.659   9.901
 2663SOL    HW1 8531   1.315   3.723   9.837
 2663SOL    HW2 8532   1.221   3.711   9.971
 2664SOL     OW 8533   1.032   2.411   9.326
 2664SOL    HW1 8534   0.991   2.493   9.287
 2664SOL    HW2 8535   1.096   2.437   9.399
 2665SOL     OW 8536   0.078   2.418  10.696
 2665SOL    HW1 8537   0.170   2.417  10.655
 2665SOL    HW2 8538   0.072   2.492  10.763
 2666SOL     OW 8539   0.561   2.084  10.457
 2666SOL    HW1 8540   0.599   2.000  10.494
 2666SOL    HW2 8541   0.473   2.103  10.501
 2667SOL     OW 8542   0.866   2.316   9.952
 2667SOL    HW1 8543   0.834   2.388   9.890
 2667SOL    HW2 8544   0.890   2.235   9.899
 2668SOL     OW 8545   1.017   1.901  10.063
 2668SOL    HW1 8546   0.945   1.906   9.994
 2668SOL    HW2 8547   0.993   1.832  10.132
 2669SOL     OW 8548   1.429   3.035  10.177
 2669SOL    HW1 8549   1.374   2.951  10.170
 2669SOL    HW2 8550   1.455   3.064  10.085
 2670SOL     OW 8551   1.466   2.452  10.302
 2670SOL    HW1 8552   1.436   2.357  10.309
 2670SOL    HW2 8553   1.539   2.468  10.368
 2671SOL     OW 8554   1.857   2.695   9.687
 2671SOL    HW1 8555   1.899   2.631   9.751
 2671SOL    HW2 8556   1.819   2.644   9.609
 2672SOL     OW 8557   0.488   3.247   9.484
 2672SOL    HW1 8558   0.401   3.232   9.531
 2672SOL    HW2 8559   0.471   3.273   9.389
 2673SOL     OW 8560   1.664   3.142   9.967
 2673SOL    HW1 8561   1.763   3.150   9.981
 2673SOL    HW2 8562   1.619   3.226   9.998
 2674SOL     OW 8563   1.390   2.437   9.388
 2674SOL    HW1 8564   1.336   2.416   9.469
 2674SOL    HW2 8565   1.481   2.396   9.397
 2675SOL     OW 8566   0.527   2.118   9.638
 2675SOL    HW1 8567   0.554   2.059   9.563
 2675SOL    HW2 8568   0.527   2.213   9.607
 2676SOL     OW 8569   1.754   3.085  10.898
 2676SOL    HW1 8570   1.845   3.046  10.885
 2676SOL    HW2 8571   1.762   3.181  10.922
 2677SOL     OW 8572   1.064   3.209  10.650
 2677SOL    HW1 8573   0.984   3.186  10.705
 2677SOL    HW2 8574   1.147   3.183  10.699
 2678SOL     OW 8575   1.592   3.491  10.935
 2678SOL    HW1 8576   1.619   3.525  10.845
 2678SOL    HW2 8577   1.671   3.453  10.981
 2679SOL     OW 8578   1.111   3.057  10.410
 2679SOL    HW1 8579   1.071   3.101  10.491
 2679SOL    HW2 8580   1.070   3.094  10.327
 2680SOL     OW 8581   1.638   2.961  10.389
 2680SOL    HW1 8582   1.643   3.042  10.448
 2680SOL    HW2 8583   1.552   2.963  10.338
 2681SOL     OW 8584   0.915   1.951  10.712
 2681SOL    HW1 8585   0.940   1.931  10.617
 2681SOL    HW2 8586   0.987   2.007  10.754
 2682SOL     OW 8587   0.980   2.978  11.029
 2682SOL    HW1 8588   0.881   2.984  11.039
 2682SOL    HW2 8589   1.003   2.898  10.973
 2683SOL     OW 8590   0.705   2.912   9.678
 2683SOL    HW1 8591   0.691   2.919   9.777
 2683SOL    HW2 8592   0.789   2.861   9.660
 2684SOL     OW 8593   0.410   2.675  10.561
 2684SOL    HW1 8594   0.496   2.687  10.611
 2684SOL    HW2 8595   0.368   2.588  10.588
 2685SOL     OW 8596   1.274   2.248  10.572
 2685SOL    HW1 8597   1.295   2.322  10.636
 2685SOL    HW2 8598   1.185   2.265  10.529
 2686SOL     OW 8599   0.064   3.426  10.641
 2686SOL    HW1 8600   0.018   3.508  10.607
 2686SOL    HW2 8601   0.162   3.445  10.650
 2687SOL     OW 8602   0.367   2.962   9.811
 2687SOL    HW1 8603   0.360   3.045   9.755
 2687SOL    HW2 8604   0.371   2.882   9.751
 2688SOL     OW 8605   0.566   2.399  10.175
 2688SOL    HW1 8606   0.578   2.465  10.101
 2688SOL    HW2 8607   0.612   2.433  10.258
 2689SOL     OW 8608   1.252   3.210   9.698
 2689SOL    HW1 8609   1.302   3.287   9.738
 2689SOL    HW2 8610   1.157   3.212   9.730
 2690SOL     OW 8611   1.272   3.307  10.452
 2690SOL    HW1 8612   1.319   3.320  10.539
 2690SOL    HW2 8613   1.206   3.233  10.461
 2691SOL     OW 8614   1.582   2.501   9.782
 2691SOL    HW1 8615   1.551   2.562   9.855
 2691SOL    HW2 8616   1.632   2.553   9.713
 2692SOL     OW 8617   0.354   3.372  10.639
 2692SOL    HW1 8618   0.333   3.328  10.552
 2692SOL    HW2 8619   0.451   3.398  10.642
 2693SOL     OW 8620   0.402   2.613  10.908
 2693SOL    HW1 8621   0.470   2.668  10.861
 2693SOL    HW2 8622   0.442   2.525  10.935
 2694SOL     OW 8623   1.587   2.641  10.980
 2694SOL    HW1 8624   1.495   2.679  10.975
 2694SOL    HW2 8625   1.647   2.688  10.915
 2695SOL     OW 8626   1.013   1.967  11.080
 2695SOL    HW1 8627   1.019   2.052  11.028
 2695SOL    HW2 8628   1.045   1.891  11.023
 2696SOL     OW 8629   0.504   1.912  11.050
 2696SOL    HW1 8630   0.462   1.855  10.980
 2696SOL    HW2 8631   0.438   1.981  11.082
 2697SOL     OW 8632   0.573   2.732  10.339
 2697SOL    HW1 8633   0.617   2.821  10.330
 2697SOL    HW2 8634   0.510   2.732  10.416
 2698SOL     OW 8635   1.360   2.724  10.355
 2698SOL    HW1 8636   1.285   2.724  10.289
 2698SOL    HW2 8637   1.397   2.632  10.364
 2699SOL     OW 8638   1.209   2.387   9.585
 2699SOL    HW1 8639   1.222   2.303   9.639
 2699SOL    HW2 8640   1.180   2.461   9.645
 2700SOL     OW 8641   0.307   2.075  10.541
 2700SOL    HW1 8642   0.284   2.112  10.631
 2700SOL    HW2 8643   0.277   1.980  10.535
 2701SOL     OW 8644   0.037   3.172  10.592
 2701SOL    HW1 8645   0.090   3.123  10.660
 2701SOL    HW2 8646   0.059   3.270  10.597
 2702SOL     OW 8647   0.732   2.496  10.374
 2702SOL    HW1 8648   0.791   2.470  10.298
 2702SOL    HW2 8649   0.704   2.592  10.363
 2703SOL     OW 8650   1.728   2.797  11.164
 2703SOL    HW1 8651   1.682   2.790  11.075
 2703SOL    HW2 8652   1.666   2.841  11.230
 2704SOL     OW 8653   0.307   1.925   9.928
 2704SOL    HW1 8654   0.296   2.019   9.961
 2704SOL    HW2 8655   0.302   1.862  10.005
 2705SOL     OW 8656   1.622   2.229   9.684
 2705SOL    HW1 8657   1.624   2.153   9.748
 2705SOL    HW2 8658   1.574   2.306   9.724
 2706SOL     OW 8659   1.023   2.628  10.276
 2706SOL    HW1 8660   1.038   2.649  10.372
 2706SOL    HW2 8661   0.993   2.533  10.267
 2707SOL     OW 8662   0.980   3.435  11.010
 2707SOL    HW1 8663   0.960   3.479  10.922
 2707SOL    HW2 8664   1.019   3.344  10.994
 2708SOL     OW 8665   1.859   3.380  10.915
 2708SOL    HW1 8666   1.873   3.407  10.820
 2708SOL    HW2 8667   1.942   3.402  10.968
 2709SOL     OW 8668   0.350   2.760  11.114
 2709SOL    HW1 8669   0.426   2.804  11.162
 2709SOL    HW2 8670   0.385   2.713  11.032
 2710SOL     OW 8671   1.540   2.136   9.435
 2710SOL    HW1 8672   1.479   2.061   9.458
 2710SOL    HW2 8673   1.562   2.188   9.518
 2711SOL     OW 8674   1.303   2.700   9.352
 2711SOL    HW1 8675   1.337   2.607   9.367
 2711SOL    HW2 8676   1.321   2.727   9.257
 2712SOL     OW 8677   1.068   3.195  10.159
 2712SOL    HW1 8678   1.075   3.111  10.104
 2712SOL    HW2 8679   1.130   3.264  10.123
 2713SOL     OW 8680   0.319   2.672  10.259
 2713SOL    HW1 8681   0.412   2.708  10.264
 2713SOL    HW2 8682   0.313   2.587  10.311
 2714SOL     OW 8683   0.339   2.371  10.316
 2714SOL    HW1 8684   0.287   2.288  10.299
 2714SOL    HW2 8685   0.416   2.376  10.252
 2715SOL     OW 8686   1.138   2.242  10.988
 2715SOL    HW1 8687   1.093   2.305  11.052
 2715SOL    HW2 8688   1.231   2.273  10.971
 2716SOL     OW 8689   1.160   2.069  10.787
 2716SOL    HW1 8690   1.160   2.133  10.864
 2716SOL    HW2 8691   1.188   2.117  10.704
 2717SOL     OW 8692   0.008   3.188   9.510
 2717SOL    HW1 8693  -0.085   3.209   9.479
 2717SOL    HW2 8694   0.018   3.089   9.523
 2718SOL     OW 8695   0.088   3.663  10.237
 2718SOL    HW1 8696   0.046   3.577  10.210
 2718SOL    HW2 8697   0.182   3.666  10.203
 2719SOL     OW 8698   0.504   3.430  10.220
 2719SOL    HW1 8699   0.570   3.504  10.229
 2719SOL    HW2 8700   0.548   3.351  10.178
 2720SOL     OW 8701   1.002   2.658  10.548
 2720SOL    HW1 8702   1.043   2.626  10.634
 2720SOL    HW2 8703   0.906   2.631  10.545
 2721SOL     OW 8704   0.040   2.406  10.424
 2721SOL    HW1 8705   0.125   2.373  10.383
 2721SOL    HW2 8706   0.053   2.421  10.522
 2722SOL     OW 8707   0.189   2.382  11.032
 2722SOL    HW1 8708   0.248   2.342  10.962
 2722SOL    HW2 8709   0.131   2.453  10.991
 2723SOL     OW 8710   1.369   2.812  10.970
 2723SOL    HW1 8711   1.408   2.901  10.990
 2723SOL    HW2 8712   1.379   2.792  10.873
 2724SOL     OW 8713   0.815   2.434   9.635
 2724SOL    HW1 8714   0.822   2.345   9.589
 2724SOL    HW2 8715   0.721   2.468   9.627
 2725SOL     OW 8716   1.657   2.466  10.516
 2725SOL    HW1 8717   1.619   2.397  10.578
 2725SOL    HW2 8718   1.739   2.430  10.472
 2726SOL     OW 8719   0.252   3.426  11.054
 2726SOL    HW1 8720   0.222   3.483  11.130
 2726SOL    HW2 8721   0.245   3.329  11.080
 2727SOL     OW 8722   0.671   2.326  10.579
 2727SOL    HW1 8723   0.637   2.237  10.549
 2727SOL    HW2 8724   0.697   2.380  10.499
 2728SOL     OW 8725   0.930   3.540  10.775
 2728SOL    HW1 8726   0.906   3.522  10.680
 2728SOL    HW2 8727   0.960   3.634  10.785
 2729SOL     OW 8728   0.473   2.362   9.501
 2729SOL    HW1 8729   0.534   2.442   9.505
 2729SOL    HW2 8730   0.378   2.393   9.508
 2730SOL     OW 8731   0.159   2.999  10.776
 2730SOL    HW1 8732   0.181   2.938  10.852
 2730SOL    HW2 8733   0.169   2.950  10.690
 2731SOL     OW 8734   1.347   2.921  10.544
 2731SOL    HW1 8735   1.371   2.858  10.470
 2731SOL    HW2 8736   1.257   2.961  10.526
 2732SOL     OW 8737   1.302   2.717   9.619
 2732SOL    HW1 8738   1.216   2.686   9.661
 2732SOL    HW2 8739   1.298   2.703   9.520
 2733SOL     OW 8740   1.759   3.609  10.464
 2733SOL    HW1 8741   1.820   3.639  10.391
 2733SOL    HW2 8742   1.721   3.520  10.442
 2734SOL     OW 8743   1.252   3.593  10.438
 2734SOL    HW1 8744   1.336   3.598  10.384
 2734SOL    HW2 8745   1.229   3.497  10.456
 2735SOL     OW 8746   0.083   3.120  10.332
 2735SOL    HW1 8747   0.078   3.119  10.432
 2735SOL    HW2 8748   0.000   3.079  10.294
 2736SOL     OW 8749   0.688   3.524  11.026
 2736SOL    HW1 8750   0.632   3.605  11.035
 2736SOL    HW2 8751   0.740   3.528  10.940
 2737SOL     OW 8752   1.388   3.435   9.787
 2737SOL    HW1 8753   1.455   3.447   9.713
 2737SOL    HW2 8754   1.348   3.524   9.810
 2738SOL     OW 8755   0.130   3.656  11.161
 2738SOL    HW1 8756   0.089   3.582  11.214
 2738SOL    HW2 8757   0.194   3.707  11.219
 2739SOL     OW 8758   1.280   2.789   9.982
 2739SOL    HW1 8759   1.340   2.708   9.984
 2739SOL    HW2 8760   1.320   2.858   9.922
 2740SOL     OW 8761   0.830   3.135  10.732
 2740SOL    HW1 8762   0.825   3.168  10.827
 2740SOL    HW2 8763   0.744   3.154  10.686
 2741SOL     OW 8764   0.672   3.478   9.464
 2741SOL    HW1 8765   0.681   3.488   9.365
 2741SOL    HW2 8766   0.632   3.389   9.485
 2742SOL     OW 8767   1.650   3.582  10.704
 2742SOL    HW1 8768   1.703   3.592  10.620
 2742SOL    HW2 8769   1.623   3.672  10.738
 2743SOL     OW 8770   0.263   2.188  10.030
 2743SOL    HW1 8771   0.184   2.239   9.996
 2743SOL    HW2 8772   0.254   2.173  10.128
 2744SOL     OW 8773   1.194   3.474   9.341
 2744SOL    HW1 8774   1.200   3.381   9.378
 2744SOL    HW2 8775   1.135   3.474   9.261
 2745SOL     OW 8776   0.822   2.864  10.682
 2745SOL    HW1 8777   0.862   2.863  10.590
 2745SOL    HW2 8778   0.832   2.956  10.722
 2746SOL     OW 8779   0.916   2.772   9.601
 2746SOL    HW1 8780   0.979   2.810   9.533
 2746SOL    HW2 8781   0.956   2.689   9.640
 2747SOL     OW 8782   1.504   3.469   9.354
 2747SOL    HW1 8783   1.412   3.506   9.361
 2747SOL    HW2 8784   1.542   3.489   9.264
 2748SOL     OW 8785   0.372   3.150  10.800
 2748SOL    HW1 8786   0.359   3.243  10.766
 2748SOL    HW2 8787   0.288   3.098  10.787
 2749SOL     OW 8788   1.614   3.154  10.599
 2749SOL    HW1 8789   1.674   3.157  10.679
 2749SOL    HW2 8790   1.539   3.218  10.612
 2750SOL     OW 8791   1.039   2.960  10.006
 2750SOL    HW1 8792   0.969   2.913  10.060
 2750SOL    HW2 8793   1.098   2.892   9.963
 2751SOL     OW 8794   1.014   2.098  10.281
 2751SOL    HW1 8795   1.006   2.062  10.188
 2751SOL    HW2 8796   1.012   2.022  10.346
 2752SOL     OW 8797   0.590   3.349   9.801
 2752SOL    HW1 8798   0.632   3.291   9.731
 2752SOL    HW2 8799   0.546   3.428   9.757
 2753SOL     OW 8800   1.709   2.247  10.691
 2753SOL    HW1 8801   1.782   2.316  10.695
 2753SOL    HW2 8802   1.737   2.172  10.632
 2754SOL     OW 8803   0.255   3.210   9.600
 2754SOL    HW1 8804   0.159   3.211   9.573
 2754SOL    HW2 8805   0.267   3.263   9.684
 2755SOL     OW 8806   0.105   2.875  11.036
 2755SOL    HW1 8807   0.028   2.842  11.090
 2755SOL    HW2 8808   0.190   2.845  11.078
 2756SOL     OW 8809   0.672   2.065  10.799
 2756SOL    HW1 8810   0.762   2.049  10.759
 2756SOL    HW2 8811   0.680   2.070  10.898
 2757SOL     OW 8812   0.075   2.207   9.343
 2757SOL    HW1 8813  -0.017   2.179   9.314
 2757SOL    HW2 8814   0.106   2.284   9.287
 2758SOL     OW 8815   1.440   2.718  10.708
 2758SOL    HW1 8816   1.383   2.770  10.645
 2758SOL    HW2 8817   1.536   2.730  10.684
 2759SOL     OW 8818   0.072   2.028   9.628
 2759SOL    HW1 8819   0.055   2.111   9.574
 2759SOL    HW2 8820   0.162   1.991   9.606
 2760SOL     OW 8821   1.183   3.197   9.429
 2760SOL    HW1 8822   1.084   3.186   9.431
 2760SOL    HW2 8823   1.217   3.212   9.522
 2761SOL     OW 8824   0.613   2.704  10.741
 2761SOL    HW1 8825   0.669   2.785  10.724
 2761SOL    HW2 8826   0.672   2.624  10.744
 2762SOL     OW 8827   1.493   3.629  10.269
 2762SOL    HW1 8828   1.526   3.693  10.200
 2762SOL    HW2 8829   1.559   3.623  10.344
 2763SOL     OW 8830   0.716   2.427  11.018
 2763SOL    HW1 8831   0.735   2.492  11.092
 2763SOL    HW2 8832   0.776   2.347  11.027
 2764SOL     OW 8833   1.450   3.082  10.943
 2764SOL    HW1 8834   1.441   3.072  11.042
 2764SOL    HW2 8835   1.546   3.075  10.917
 2765SOL     OW 8836   0.390   3.603  10.870
 2765SOL    HW1 8837   0.299   3.644  10.868
 2765SOL    HW2 8838   0.383   3.509  10.902
 2766SOL     OW 8839   1.674   2.745  10.564
 2766SOL    HW1 8840   1.647   2.656  10.527
 2766SOL    HW2 8841   1.675   2.813  10.491
 2767SOL     OW 8842   1.225   2.187   9.759
 2767SOL    HW1 8843   1.290   2.113   9.748
 2767SOL    HW2 8844   1.245   2.237   9.843
 2768SOL     OW 8845   0.594   2.607   9.962
 2768SOL    HW1 8846   0.644   2.692   9.943
 2768SOL    HW2 8847   0.506   2.609   9.914
 2769SOL     OW 8848   1.777   2.204  10.952
 2769SOL    HW1 8849   1.760   2.235  10.858
 2769SOL    HW2 8850   1.693   2.167  10.990
 2770SOL     OW 8851   1.730   2.796  10.827
 2770SOL    HW1 8852   1.768   2.887  10.842
 2770SOL    HW2 8853   1.722   2.779  10.728
 2771SOL     OW 8854   0.859   3.236   9.326
 2771SOL    HW1 8855   0.813   3.251   9.414
 2771SOL    HW2 8856   0.903   3.321   9.296
 2772SOL     OW 8857   0.661   3.652  10.263
 2772SOL    HW1 8858   0.615   3.740  10.250
 2772SOL    HW2 8859   0.760   3.664  10.256
 2773SOL     OW 8860   0.859   2.818  10.171
 2773SOL    HW1 8861   0.913   2.749  10.219
 2773SOL    HW2 8862   0.827   2.887  10.237
 2774SOL     OW 8863   1.083   2.846   9.397
 2774SOL    HW1 8864   1.060   2.899   9.315
 2774SOL    HW2 8865   1.164   2.790   9.378
 2775SOL     OW 8866   1.861   3.431  10.161
 2775SOL    HW1 8867   1.790   3.419  10.091
 2775SOL    HW2 8868   1.862   3.352  10.221
 2776SOL     OW 8869   0.221   3.176  11.154
 2776SOL    HW1 8870   0.156   3.103  11.133
 2776SOL    HW2 8871   0.225   3.190  11.252
 2777SOL     OW 8872   0.079   3.102   9.963
 2777SOL    HW1 8873   0.078   3.055  10.051
 2777SOL    HW2 8874   0.161   3.074   9.912
 2778SOL     OW 8875   0.672   3.253  10.934
 2778SOL    HW1 8876   0.594   3.203  10.972
 2778SOL    HW2 8877   0.669   3.348  10.965
 2779SOL     OW 8878   0.428   2.286   9.830
 2779SOL    HW1 8879   0.458   2.214   9.768
 2779SOL    HW2 8880   0.389   2.246   9.913
 2780SOL     OW 8881   1.705   3.349  10.414
 2780SOL    HW1 8882   1.612   3.324  10.387
 2780SOL    HW2 8883   1.731   3.299  10.496
 2781SOL     OW 8884   0.317   2.409  10.590
 2781SOL    HW1 8885   0.355   2.350  10.662
 2781SOL    HW2 8886   0.357   2.383  10.502
 2782SOL     OW 8887   0.812   3.448   9.997
 2782SOL    HW1 8888   0.844   3.458   9.903
 2782SOL    HW2 8889   0.733   3.386   9.999
 2783SOL     OW 8890   1.424   2.076  10.422
 2783SOL    HW1 8891   1.476   2.011  10.477
 2783SOL    HW2 8892   1.375   2.139  10.483
 2784SOL     OW 8893   1.001   1.896  10.464
 2784SOL    HW1 8894   0.938   1.824  10.433
 2784SOL    HW2 8895   1.094   1.860  10.464
 2785SOL     OW 8896   0.770   3.192   9.611
 2785SOL    HW1 8897   0.724   3.105   9.628
 2785SOL    HW2 8898   0.861   3.189   9.652
 2786SOL     OW 8899   0.618   3.429  10.594
 2786SOL    HW1 8900   0.613   3.511  10.651
 2786SOL    HW2 8901   0.707   3.426  10.549
 2787SOL     OW 8902   1.352   1.914   9.478
 2787SOL    HW1 8903   1.387   1.873   9.394
 2787SOL    HW2 8904   1.262   1.876   9.498
 2788SOL     OW 8905   1.300   2.315  10.001
 2788SOL    HW1 8906   1.241   2.395  10.005
 2788SOL    HW2 8907   1.315   2.280  10.094
 2789SOL     OW 8908   1.593   2.083  10.192
 2789SOL    HW1 8909   1.509   2.082  10.246
 2789SOL    HW2 8910   1.595   2.166  10.136
 2790SOL     OW 8911   0.039   2.939   9.610
 2790SOL    HW1 8912   0.138   2.928   9.601
 2790SOL    HW2 8913  -0.001   2.853   9.642
 2791SOL     OW 8914   0.875   3.508   9.647
 2791SOL    HW1 8915   0.798   3.473   9.593
 2791SOL    HW2 8916   0.843   3.579   9.709
 2792SOL     OW 8917   0.230   2.490  11.285
 2792SOL    HW1 8918   0.137   2.488  11.322
 2792SOL    HW2 8919   0.231   2.451  11.193
 2793SOL     OW 8920   0.225   2.137  12.168
 2793SOL    HW1 8921   0.260   2.120  12.260
 2793SOL    HW2 8922   0.137   2.092  12.156
 2794SOL     OW 8923   0.019   2.230  11.819
 2794SOL    HW1 8924  -0.063   2.273  11.858
 2794SOL    HW2 8925  -0.009   2.157  11.756
 2795SOL     OW 8926   0.569   3.137  12.337
 2795SOL    HW1 8927   0.476   3.130  12.300
 2795SOL    HW2 8928   0.580   3.226  12.381
 2796SOL     OW 8929   1.555   3.373  11.875
 2796SOL    HW1 8930   1.498   3.357  11.956
 2796SOL    HW2 8931   1.496   3.383  11.795
 2797SOL     OW 8932   1.135   2.565  11.889
 2797SOL    HW1 8933   1.192   2.643  11.864
 2797SOL    HW2 8934   1.075   2.591  11.965
 2798SOL     OW 8935   1.755   2.469  11.403
 2798SOL    HW1 8936   1.743   2.456  11.304
 2798SOL    HW2 8937   1.725   2.388  11.452
 2799SOL     OW 8938   0.768   3.006  12.195
 2799SOL    HW1 8939   0.690   3.023  12.255
 2799SOL    HW2 8940   0.802   3.093  12.159
 2800SOL     OW 8941   0.850   2.660  12.995
 2800SOL    HW1 8942   0.846   2.736  13.060
 2800SOL    HW2 8943   0.872   2.696  12.904
 2801SOL     OW 8944   0.685   2.874  11.837
 2801SOL    HW1 8945   0.754   2.858  11.907
 2801SOL    HW2 8946   0.612   2.931  11.875
 2802SOL     OW 8947   0.686   3.023  12.975
 2802SOL    HW1 8948   0.746   3.102  12.989
 2802SOL    HW2 8949   0.600   3.054  12.934
 2803SOL     OW 8950   0.335   3.297  12.233
 2803SOL    HW1 8951   0.257   3.266  12.180
 2803SOL    HW2 8952   0.393   3.355  12.176
 2804SOL     OW 8953   1.460   3.367  12.511
 2804SOL    HW1 8954   1.484   3.461  12.537
 2804SOL    HW2 8955   1.444   3.313  12.593
 2805SOL     OW 8956   0.438   2.254  12.671
 2805SOL    HW1 8957   0.520   2.198  12.680
 2805SOL    HW2 8958   0.357   2.196  12.675
 2806SOL     OW 8959   1.603   2.309  11.909
 2806SOL    HW1 8960   1.529   2.355  11.859
 2806SOL    HW2 8961   1.654   2.377  11.962
 2807SOL     OW 8962   0.231   3.575  11.655
 2807SOL    HW1 8963   0.265   3.652  11.709
 2807SOL    HW2 8964   0.275   3.575  11.565
 2808SOL     OW 8965   1.127   3.203  12.862
 2808SOL    HW1 8966   1.174   3.203  12.950
 2808SOL    HW2 8967   1.079   3.116  12.851
 2809SOL     OW 8968   0.230   3.296  11.710
 2809SOL    HW1 8969   0.204   3.392  11.710
 2809SOL    HW2 8970   0.159   3.242  11.755
 2810SOL     OW 8971   0.240   2.953  12.058
 2810SOL    HW1 8972   0.254   2.869  12.110
 2810SOL    HW2 8973   0.185   3.017  12.113
 2811SOL     OW 8974   0.620   3.648  12.611
 2811SOL    HW1 8975   0.528   3.631  12.646
 2811SOL    HW2 8976   0.648   3.740  12.637
 2812SOL     OW 8977   0.606   2.826  11.295
 2812SOL    HW1 8978   0.613   2.910  11.241
 2812SOL    HW2 8979   0.652   2.839  11.383
 2813SOL     OW 8980   1.594   1.976  12.652
 2813SOL    HW1 8981   1.576   2.043  12.580
 2813SOL    HW2 8982   1.591   2.022  12.741
 2814SOL     OW 8983   0.122   2.505  11.735
 2814SOL    HW1 8984   0.077   2.417  11.752
 2814SOL    HW2 8985   0.121   2.559  11.819
 2815SOL     OW 8986   1.842   3.629  11.531
 2815SOL    HW1 8987   1.896   3.600  11.611
 2815SOL    HW2 8988   1.872   3.719  11.502
 2816SOL     OW 8989   0.027   3.458  11.289
 2816SOL    HW1 8990   0.008   3.362  11.310
 2816SOL    HW2 8991  -0.006   3.516  11.364
 2817SOL     OW 8992   1.689   2.784  11.784
 2817SOL    HW1 8993   1.784   2.755  11.792
 2817SOL    HW2 8994   1.681   2.849  11.709
 2818SOL     OW 8995   1.641   2.970  11.604
 2818SOL    HW1 8996   1.727   2.972  11.552
 2818SOL    HW2 8997   1.655   3.017  11.692
 2819SOL     OW 8998   0.113   2.599  12.769
 2819SOL    HW1 8999   0.201   2.586  12.814
 2819SOL    HW2 9000   0.100   2.696  12.747
 2820SOL     OW 9001   0.613   3.227  11.898
 2820SOL    HW1 9002   0.564   3.140  11.907
 2820SOL    HW2 9003   0.590   3.270  11.811
 2821SOL     OW 9004   1.293   3.090  12.595
 2821SOL    HW1 9005   1.330   3.017  12.537
 2821SOL    HW2 9006   1.345   3.095  12.680
 2822SOL     OW 9007   0.809   1.866  11.674
 2822SOL    HW1 9008   0.849   1.957  11.665
 2822SOL    HW2 9009   0.709   1.874  11.680
 2823SOL     OW 9010   0.197   2.838  12.436
 2823SOL    HW1 9011   0.286   2.793  12.422
 2823SOL    HW2 9012   0.124   2.773  12.417
 2824SOL     OW 9013   1.525   2.861  11.362
 2824SOL    HW1 9014   1.462   2.785  11.375
 2824SOL    HW2 9015   1.573   2.879  11.448
 2825SOL     OW 9016   1.187   3.654  12.788
 2825SOL    HW1 9017   1.211   3.714  12.712
 2825SOL    HW2 9018   1.194   3.559  12.758
 2826SOL     OW 9019   0.317   2.113  12.973
 2826SOL    HW1 9020   0.388   2.184  12.979
 2826SOL    HW2 9021   0.229   2.152  13.001
 2827SOL     OW 9022   1.466   3.279  12.125
 2827SOL    HW1 9023   1.407   3.285  12.205
 2827SOL    HW2 9024   1.451   3.191  12.079
 2828SOL     OW 9025   1.667   3.576  11.744
 2828SOL    HW1 9026   1.626   3.553  11.656
 2828SOL    HW2 9027   1.649   3.502  11.809
 2829SOL     OW 9028   0.598   2.591  11.442
 2829SOL    HW1 9029   0.622   2.660  11.374
 2829SOL    HW2 9030   0.520   2.624  11.496
 2830SOL     OW 9031   1.281   2.207  12.116
 2830SOL    HW1 9032   1.195   2.157  12.103
 2830SOL    HW2 9033   1.343   2.153  12.172
 2831SOL     OW 9034   1.576   3.524  11.479
 2831SOL    HW1 9035   1.665   3.570  11.482
 2831SOL    HW2 9036   1.555   3.500  11.384
 2832SOL     OW 9037   0.807   2.467  12.637
 2832SOL    HW1 9038   0.760   2.464  12.726
 2832SOL    HW2 9039   0.756   2.412  12.571
 2833SOL     OW 9040   1.394   2.331  12.846
 2833SOL    HW1 9041   1.374   2.374  12.934
 2833SOL    HW2 9042   1.472   2.269  12.855
 2834SOL     OW 9043   0.973   2.752  12.744
 2834SOL    HW1 9044   1.019   2.668  12.715
 2834SOL    HW2 9045   0.917   2.786  12.669
 2835SOL     OW 9046   0.991   2.272  12.414
 2835SOL    HW1 9047   0.914   2.306  12.468
 2835SOL    HW2 9048   0.957   2.221  12.335
 2836SOL     OW 9049   1.041   2.563  11.601
 2836SOL    HW1 9050   1.067   2.559  11.697
 2836SOL    HW2 9051   0.956   2.512  11.587
 2837SOL     OW 9052   0.076   2.673  11.961
 2837SOL    HW1 9053   0.175   2.661  11.970
 2837SOL    HW2 9054   0.052   2.768  11.982
 2838SOL     OW 9055   0.130   3.683  12.743
 2838SOL    HW1 9056   0.120   3.668  12.842
 2838SOL    HW2 9057   0.044   3.719  12.707
 2839SOL     OW 9058   0.865   2.210  11.367
 2839SOL    HW1 9059   0.924   2.273  11.318
 2839SOL    HW2 9060   0.884   2.116  11.338
 2840SOL     OW 9061   1.719   2.447  13.003
 2840SOL    HW1 9062   1.693   2.536  12.967
 2840SOL    HW2 9063   1.717   2.379  12.930
 2841SOL     OW 9064   1.362   3.006  11.717
 2841SOL    HW1 9065   1.445   2.977  11.669
 2841SOL    HW2 9066   1.313   3.073  11.661
 2842SOL     OW 9067   0.550   2.058  12.057
 2842SOL    HW1 9068   0.545   2.053  12.157
 2842SOL    HW2 9069   0.552   2.154  12.028
 2843SOL     OW 9070   1.008   3.318  11.649
 2843SOL    HW1 9071   0.962   3.390  11.597
 2843SOL    HW2 9072   1.004   3.338  11.747
 2844SOL     OW 9073   0.351   3.663  12.025
 2844SOL    HW1 9074   0.401   3.577  12.031
 2844SOL    HW2 9075   0.416   3.740  12.022
 2845SOL     OW 9076   1.795   2.928  12.045
 2845SOL    HW1 9077   1.733   2.913  11.969
 2845SOL    HW2 9078   1.743   2.939  12.130
 2846SOL     OW 9079   1.227   3.412  12.678
 2846SOL    HW1 9080   1.233   3.335  12.742
 2846SOL    HW2 9081   1.175   3.386  12.598
 2847SOL     OW 9082   0.321   2.805  11.414
 2847SOL    HW1 9083   0.403   2.844  11.372
 2847SOL    HW2 9084   0.294   2.723  11.365
 2848SOL     OW 9085   1.458   2.597  11.900
 2848SOL    HW1 9086   1.453   2.532  11.975
 2848SOL    HW2 9087   1.538   2.656  11.913
 2849SOL     OW 9088   0.461   3.128  12.899
 2849SOL    HW1 9089   0.411   3.129  12.813
 2849SOL    HW2 9090   0.398   3.110  12.975
 2850SOL     OW 9091   1.111   3.638  11.409
 2850SOL    HW1 9092   1.051   3.576  11.459
 2850SOL    HW2 9093   1.142   3.594  11.324
 2851SOL     OW 9094   0.202   2.147  12.670
 2851SOL    HW1 9095   0.122   2.207  12.657
 2851SOL    HW2 9096   0.192   2.098  12.756
 2852SOL     OW 9097   1.632   3.239  11.253
 2852SOL    HW1 9098   1.600   3.333  11.243
 2852SOL    HW2 9099   1.556   3.176  11.241
 2853SOL     OW 9100   0.464   3.605  11.495
 2853SOL    HW1 9101   0.497   3.644  11.581
 2853SOL    HW2 9102   0.540   3.598  11.430
 2854SOL     OW 9103   1.400   1.969  11.598
 2854SOL    HW1 9104   1.376   1.932  11.508
 2854SOL    HW2 9105   1.499   1.985  11.602
 2855SOL     OW 9106   0.249   3.647  12.413
 2855SOL    HW1 9107   0.306   3.582  12.463
 2855SOL    HW2 9108   0.233   3.614  12.320
 2856SOL     OW 9109   0.940   3.560  12.076
 2856SOL    HW1 9110   1.020   3.503  12.097
 2856SOL    HW2 9111   0.891   3.520  11.999
 2857SOL     OW 9112   0.382   2.562  11.652
 2857SOL    HW1 9113   0.427   2.472  11.649
 2857SOL    HW2 9114   0.288   2.551  11.685
 2858SOL     OW 9115   1.547   2.084  12.901
 2858SOL    HW1 9116   1.542   2.121  12.993
 2858SOL    HW2 9117   1.475   2.015  12.889
 2859SOL     OW 9118   0.614   1.984  11.289
 2859SOL    HW1 9119   0.712   1.962  11.296
 2859SOL    HW2 9120   0.583   1.967  11.196
 2860SOL     OW 9121   0.781   2.126  12.921
 2860SOL    HW1 9122   0.848   2.065  12.964
 2860SOL    HW2 9123   0.708   2.145  12.986
 2861SOL     OW 9124   0.888   3.376  12.367
 2861SOL    HW1 9125   0.865   3.351  12.273
 2861SOL    HW2 9126   0.949   3.307  12.406
 2862SOL     OW 9127   1.351   2.452  12.605
 2862SOL    HW1 9128   1.379   2.409  12.690
 2862SOL    HW2 9129   1.376   2.548  12.606
 2863SOL     OW 9130   0.803   3.264  12.096
 2863SOL    HW1 9131   0.893   3.278  12.054
 2863SOL    HW2 9132   0.732   3.266  12.025
 2864SOL     OW 9133   0.922   2.365  12.071
 2864SOL    HW1 9134   0.897   2.356  11.975
 2864SOL    HW2 9135   0.970   2.283  12.102
 2865SOL     OW 9136   0.539   1.926  11.684
 2865SOL    HW1 9137   0.458   1.927  11.742
 2865SOL    HW2 9138   0.542   2.009  11.629
 2866SOL     OW 9139   1.434   3.050  11.213
 2866SOL    HW1 9140   1.466   2.974  11.270
 2866SOL    HW2 9141   1.342   3.077  11.243
 2867SOL     OW 9142   0.297   1.897  11.343
 2867SOL    HW1 9143   0.346   1.981  11.322
 2867SOL    HW2 9144   0.359   1.832  11.388
 2868SOL     OW 9145   0.935   2.098  11.652
 2868SOL    HW1 9146   0.887   2.139  11.574
 2868SOL    HW2 9147   1.034   2.096  11.633
 2869SOL     OW 9148   1.076   2.545  12.636
 2869SOL    HW1 9149   0.996   2.484  12.639
 2869SOL    HW2 9150   1.157   2.492  12.612
 2870SOL     OW 9151   1.227   3.432  11.965
 2870SOL    HW1 9152   1.248   3.506  11.900
 2870SOL    HW2 9153   1.295   3.432  12.038
 2871SOL     OW 9154   0.459   3.014  11.913
 2871SOL    HW1 9155   0.388   2.987  11.978
 2871SOL    HW2 9156   0.433   2.986  11.820
 2872SOL     OW 9157   1.271   3.659  11.763
 2872SOL    HW1 9158   1.315   3.723  11.699
 2872SOL    HW2 9159   1.221   3.711  11.833
 2873SOL     OW 9160   1.032   2.411  11.188
 2873SOL    HW1 9161   0.991   2.493  11.149
 2873SOL    HW2 9162   1.096   2.437  11.261
 2874SOL     OW 9163   0.078   2.418  12.558
 2874SOL    HW1 9164   0.170   2.417  12.517
 2874SOL    HW2 9165   0.072   2.492  12.625
 2875SOL     OW 9166   0.561   2.084  12.319
 2875SOL    HW1 9167   0.599   2.000  12.356
 2875SOL    HW2 9168   0.473   2.103  12.363
 2876SOL     OW 9169   0.866   2.316  11.814
 2876SOL    HW1 9170   0.834   2.388  11.752
 2876SOL    HW2 9171   0.890   2.235  11.761
 2877SOL     OW 9172   1.017   1.901  11.925
 2877SOL    HW1 9173   0.945   1.906  11.856
 2877SOL    HW2 9174   0.993   1.832  11.994
 2878SOL     OW 9175   1.429   3.035  12.039
 2878SOL    HW1 9176   1.374   2.951  12.032
 2878SOL    HW2 9177   1.455   3.064  11.947
 2879SOL     OW 9178   1.466   2.452  12.164
 2879SOL    HW1 9179   1.436   2.357  12.171
 2879SOL    HW2 9180   1.539   2.468  12.230
 2880SOL     OW 9181   1.857   2.695  11.549
 2880SOL    HW1 9182   1.899   2.631  11.613
 2880SOL    HW2 9183   1.819   2.644  11.471
 2881SOL     OW 9184   0.488   3.247  11.346
 2881SOL    HW1 9185   0.401   3.232  11.393
 2881SOL    HW2 9186   0.471   3.273  11.251
 2882SOL     OW 9187   1.664   3.142  11.829
 2882SOL    HW1 9188   1.763   3.150  11.843
 2882SOL    HW2 9189   1.619   3.226  11.860
 2883SOL     OW 9190   1.390   2.437  11.250
 2883SOL    HW1 9191   1.336   2.416  11.331
 2883SOL    HW2 9192   1.481   2.396  11.259
 2884SOL     OW 9193   0.527   2.118  11.500
 2884SOL    HW1 9194   0.554   2.059  11.425
 2884SOL    HW2 9195   0.527   2.213  11.469
 2885SOL     OW 9196   1.754   3.085  12.760
 2885SOL    HW1 9197   1.845   3.046  12.747
 2885SOL    HW2 9198   1.762   3.181  12.784
 2886SOL     OW 9199   1.064   3.209  12.512
 2886SOL    HW1 9200   0.984   3.186  12.567
 2886SOL    HW2 9201   1.147   3.183  12.561
 2887SOL     OW 9202   1.592   3.491  12.797
 2887SOL    HW1 9203   1.619   3.525  12.707
 2887SOL    HW2 9204   1.671   3.453  12.843
 2888SOL     OW 9205   1.111   3.057  12.272
 2888SOL    HW1 9206   1.071   3.101  12.353
 2888SOL    HW2 9207   1.070   3.094  12.189
 2889SOL     OW 9208   1.638   2.961  12.251
 2889SOL    HW1 9209   1.643   3.042  12.310
 2889SOL    HW2 9210   1.552   2.963  12.200
 2890SOL     OW 9211   0.915   1.951  12.574
 2890SOL    HW1 9212   0.940   1.931  12.479
 2890SOL    HW2 9213   0.987   2.007  12.616
 2891SOL     OW 9214   0.980   2.978  12.891
 2891SOL    HW1 9215   0.881   2.984  12.901
 2891SOL    HW2 9216   1.003   2.898  12.835
 2892SOL     OW 9217   0.705   2.912  11.540
 2892SOL    HW1 9218   0.691   2.919  11.639
 2892SOL    HW2 9219   0.789   2.861  11.522
 2893SOL     OW 9220   0.410   2.675  12.423
 2893SOL    HW1 9221   0.496   2.687  12.473
 2893SOL    HW2 9222   0.368   2.588  12.450
 2894SOL     OW 9223   1.274   2.248  12.434
 2894SOL    HW1 9224   1.295   2.322  12.498
 2894SOL    HW2 9225   1.185   2.265  12.391
 2895SOL     OW 9226   0.064   3.426  12.503
 2895SOL    HW1 9227   0.018   3.508  12.469
 2895SOL    HW2 9228   0.162   3.445  12.512
 2896SOL     OW 9229   0.367   2.962  11.673
 2896SOL    HW1 9230   0.360   3.045  11.617
 2896SOL    HW2 9231   0.371   2.882  11.613
 2897SOL     OW 9232   0.566   2.399  12.037
 2897SOL    HW1 9233   0.578   2.465  11.963
 2897SOL    HW2 9234   0.612   2.433  12.120
 2898SOL     OW 9235   1.252   3.210  11.560
 2898SOL    HW1 9236   1.302   3.287  11.600
 2898SOL    HW2 9237   1.157   3.212  11.592
 2899SOL     OW 9238   1.272   3.307  12.314
 2899SOL    HW1 9239   1.319   3.320  12.401
 2899SOL    HW2 9240   1.206   3.233  12.323
 2900SOL     OW 9241   1.582   2.501  11.644
 2900SOL    HW1 9242   1.551   2.562  11.717
 2900SOL    HW2 9243   1.632   2.553  11.575
 2901SOL     OW 9244   0.354   3.372  12.501
 2901SOL    HW1 9245   0.333   3.328  12.414
 2901SOL    HW2 9246   0.451   3.398  12.504
 2902SOL     OW 9247   0.402   2.613  12.770
 2902SOL    HW1 9248   0.470   2.668  12.723
 2902SOL    HW2 9249   0.442   2.525  12.797
 2903SOL     OW 9250   1.587   2.641  12.842
 2903SOL    HW1 9251   1.495   2.679  12.837
 2903SOL    HW2 9252   1.647   2.688  12.777
 2904SOL     OW 9253   1.013   1.967  12.942
 2904SOL    HW1 9254   1.019   2.052  12.890
 2904SOL    HW2 9255   1.045   1.891  12.885
 2905SOL     OW 9256   0.504   1.912  12.912
 2905SOL    HW1 9257   0.462   1.855  12.842
 2905SOL    HW2 9258   0.438   1.981  12.944
 2906SOL     OW 9259   0.573   2.732  12.201
 2906SOL    HW1 9260   0.617   2.821  12.192
 2906SOL    HW2 9261   0.510   2.732  12.278
 2907SOL     OW 9262   1.360   2.724  12.217
 2907SOL    HW1 9263   1.285   2.724  12.151
 2907SOL    HW2 9264   1.397   2.632  12.226
 2908SOL     OW 9265   1.209   2.387  11.447
 2908SOL    HW1 9266   1.222   2.303  11.501
 2908SOL    HW2 9267   1.180   2.461  11.507
 2909SOL     OW 9268   0.307   2.075  12.403
 2909SOL    HW1 9269   0.284   2.112  12.493
 2909SOL    HW2 9270   0.277   1.980  12.397
 2910SOL     OW 9271   0.037   3.172  12.454
 2910SOL    HW1 9272   0.090   3.123  12.522
 2910SOL    HW2 9273   0.059   3.270  12.459
 2911SOL     OW 9274   0.732   2.496  12.236
 2911SOL    HW1 9275   0.791   2.470  12.160
 2911SOL    HW2 9276   0.704   2.592  12.225
 2912SOL     OW 9277   1.728   2.797  13.026
 2912SOL    HW1 9278   1.682   2.790  12.937
 2912SOL    HW2 9279   1.666   2.841  13.092
 2913SOL     OW 9280   0.307   1.925  11.790
 2913SOL    HW1 9281   0.296   2.019  11.823
 2913SOL    HW2 9282   0.302   1.862  11.867
 2914SOL     OW 9283   1.622   2.229  11.546
 2914SOL    HW1 9284   1.624   2.153  11.610
 2914SOL    HW2 9285   1.574   2.306  11.586
 2915SOL     OW 9286   1.023   2.628  12.138
 2915SOL    HW1 9287   1.038   2.649  12.234
 2915SOL    HW2 9288   0.993   2.533  12.129
 2916SOL     OW 9289   0.980   3.435  12.872
 2916SOL    HW1 9290   0.960   3.479  12.784
 2916SOL    HW2 9291   1.019   3.344  12.856
 2917SOL     OW 9292   1.859   3.380  12.777
 2917SOL    HW1 9293   1.873   3.407  12.682
 2917SOL    HW2 9294   1.942   3.402  12.830
 2918SOL     OW 9295   0.350   2.760  12.976
 2918SOL    HW1 9296   0.426   2.804  13.024
 2918SOL    HW2 9297   0.385   2.713  12.894
 2919SOL     OW 9298   1.540   2.136  11.297
 2919SOL    HW1 9299   1.479   2.061  11.320
 2919SOL    HW2 9300   1.562   2.188  11.380
 2920SOL     OW 9301   1.303   2.700  11.214
 2920SOL    HW1 9302   1.337   2.607  11.229
 2920SOL    HW2 9303   1.321   2.727  11.119
 2921SOL     OW 9304   1.068   3.195  12.021
 2921SOL    HW1 9305   1.075   3.111  11.966
 2921SOL    HW2 9306   1.130   3.264  11.985
 2922SOL     OW 9307   0.319   2.672  12.121
 2922SOL    HW1 9308   0.412   2.708  12.126
 2922SOL    HW2 9309   0.313   2.587  12.173
 2923SOL     OW 9310   0.339   2.371  12.178
 2923SOL    HW1 9311   0.287   2.288  12.161
 2923SOL    HW2 9312   0.416   2.376  12.114
 2924SOL     OW 9313   1.138   2.242  12.850
 2924SOL    HW1 9314   1.093   2.305  12.914
 2924SOL    HW2 9315   1.231   2.273  12.833
 2925SOL     OW 9316   1.160   2.069  12.649
 2925SOL    HW1 9317   1.160   2.133  12.726
 2925SOL    HW2 9318   1.188   2.117  12.566
 2926SOL     OW 9319   0.008   3.188  11.372
 2926SOL    HW1 9320  -0.085   3.209  11.341
 2926SOL    HW2 9321   0.018   3.089  11.385
 2927SOL     OW 9322   0.088   3.663  12.099
 2927SOL    HW1 9323   0.046   3.577  12.072
 2927SOL    HW2 9324   0.182   3.666  12.065
 2928SOL     OW 9325   0.504   3.430  12.082
 2928SOL    HW1 9326   0.570   3.504  12.091
 2928SOL    HW2 9327   0.548   3.351  12.040
 2929SOL     OW 9328   1.002   2.658  12.410
 2929SOL    HW1 9329   1.043   2.626  12.496
 2929SOL    HW2 9330   0.906   2.631  12.407
 2930SOL     OW 9331   0.040   2.406  12.286
 2930SOL    HW1 9332   0.125   2.373  12.245
 2930SOL    HW2 9333   0.053   2.421  12.384
 2931SOL     OW 9334   0.189   2.382  12.894
 2931SOL    HW1 9335   0.248   2.342  12.824
 2931SOL    HW2 9336   0.131   2.453  12.853
 2932SOL     OW 9337   1.369   2.812  12.832
 2932SOL    HW1 9338   1.408   2.901  12.852
 2932SOL    HW2 9339   1.379   2.792  12.735
 2933SOL     OW 9340   0.815   2.434  11.497
 2933SOL    HW1 9341   0.822   2.345  11.451
 2933SOL    HW2 9342   0.721   2.468  11.489
 2934SOL     OW 9343   1.657   2.466  12.378
 2934SOL    HW1 9344   1.619   2.397  12.440
 2934SOL    HW2 9345   1.739   2.430  12.334
 2935SOL     OW 9346   0.252   3.426  12.916
 2935SOL    HW1 9347   0.222   3.483  12.992
 2935SOL    HW2 9348   0.245   3.329  12.942
 2936SOL     OW 9349   0.671   2.326  12.441
 2936SOL    HW1 9350   0.637   2.237  12.411
 2936SOL    HW2 9351   0.697   2.380  12.361
 2937SOL     OW 9352   0.930   3.540  12.637
 2937SOL    HW1 9353   0.906   3.522  12.542
 2937SOL    HW2 9354   0.960   3.634  12.647
 2938SOL     OW 9355   0.473   2.362  11.363
 2938SOL    HW1 9356   0.534   2.442  11.367
 2938SOL    HW2 9357   0.378   2.393  11.370
 2939SOL     OW 9358   0.159   2.999  12.638
 2939SOL    HW1 9359   0.181   2.938  12.714
 2939SOL    HW2 9360   0.169   2.950  12.552
 2940SOL     OW 9361   1.347   2.921  12.406
 2940SOL    HW1 9362   1.371   2.858  12.332
 2940SOL    HW2 9363   1.257   2.961  12.388
 2941SOL     OW 9364   1.302   2.717  11.481
 2941SOL    HW1 9365   1.216   2.686  11.523
 2941SOL    HW2 9366   1.298   2.703  11.382
 2942SOL     OW 9367   1.759   3.609  12.326
 2942SOL    HW1 9368   1.820   3.639  12.253
 2942SOL    HW2 9369   1.721   3.520  12.304
 2943SOL     OW 9370   1.252   3.593  12.300
 2943SOL    HW1 9371   1.336   3.598  12.246
 2943SOL    HW2 9372   1.229   3.497  12.318
 2944SOL     OW 9373   0.083   3.120  12.194
 2944SOL    HW1 9374   0.078   3.119  12.294
 2944SOL    HW2 9375   0.000   3.079  12.156
 2945SOL     OW 9376   0.688   3.524  12.888
 2945SOL    HW1 9377   0.632   3.605  12.897
 2945SOL    HW2 9378   0.740   3.528  12.802
 2946SOL     OW 9379   1.388   3.435  11.649
 2946SOL    HW1 9380   1.455   3.447  11.575
 2946SOL    HW2 9381   1.348   3.524  11.672
 2947SOL     OW 9382   0.130   3.656  13.023
 2947SOL    HW1 9383   0.089   3.582  13.076
 2947SOL    HW2 9384   0.194   3.707  13.081
 2948SOL     OW 9385   1.280   2.789  11.844
 2948SOL    HW1 9386   1.340   2.708  11.846
 2948SOL    HW2 9387   1.320   2.858  11.784
 2949SOL     OW 9388   0.830   3.135  12.594
 2949SOL    HW1 9389   0.825   3.168  12.689
 2949SOL    HW2 9390   0.744   3.154  12.548
 2950SOL     OW 9391   0.672   3.478  11.326
 2950SOL    HW1 9392   0.681   3.488  11.227
 2950SOL    HW2 9393   0.632   3.389  11.347
 2951SOL     OW 9394   1.650   3.582  12.566
 2951SOL    HW1 9395   1.703   3.592  12.482
 2951SOL    HW2 9396   1.623   3.672  12.600
 2952SOL     OW 9397   0.263   2.188  11.892
 2952SOL    HW1 9398   0.184   2.239  11.858
 2952SOL    HW2 9399   0.254   2.173  11.990
 2953SOL     OW 9400   1.194   3.474  11.203
 2953SOL    HW1 9401   1.200   3.381  11.240
 2953SOL    HW2 9402   1.135   3.474  11.123
 2954SOL     OW 9403   0.822   2.864  12.544
 2954SOL    HW1 9404   0.862   2.863  12.452
 2954SOL    HW2 9405   0.832   2.956  12.584
 2955SOL     OW 9406   0.916   2.772  11.463
 2955SOL    HW1 9407   0.979   2.810  11.395
 2955SOL    HW2 9408   0.956   2.689  11.502
 2956SOL     OW 9409   1.504   3.469  11.216
 2956SOL    HW1 9410   1.412   3.506  11.223
 2956SOL    HW2 9411   1.542   3.489  11.126
 2957SOL     OW 9412   0.372   3.150  12.662
 2957SOL    HW1 9413   0.359   3.243  12.628
 2957SOL    HW2 9414   0.288   3.098  12.649
 2958SOL     OW 9415   1.614   3.154  12.461
 2958SOL    HW1 9416   1.674   3.157  12.541
 2958SOL    HW2 9417   1.539   3.218  12.474
 2959SOL     OW 9418   1.039   2.960  11.868
 2959SOL    HW1 9419   0.969   2.913  11.922
 2959SOL    HW2 9420   1.098   2.892  11.825
 2960SOL     OW 9421   1.014   2.098  12.143
 2960SOL    HW1 9422   1.006   2.062  12.050
 2960SOL    HW2 9423   1.012   2.022  12.208
 2961SOL     OW 9424   0.590   3.349  11.663
 2961SOL    HW1 9425   0.632   3.291  11.593
 2961SOL    HW2 9426   0.546   3.428  11.619
 2962SOL     OW 9427   1.709   2.247  12.553
 2962SOL    HW1 9428   1.782   2.316  12.557
 2962SOL    HW2 9429   1.737   2.172  12.494
 2963SOL     OW 9430   0.255   3.210  11.462
 2963SOL    HW1 9431   0.159   3.211  11.435
 2963SOL    HW2 9432   0.267   3.263  11.546
 2964SOL     OW 9433   0.105   2.875  12.898
 2964SOL    HW1 9434   0.028   2.842  12.952
 2964SOL    HW2 9435   0.190   2.845  12.940
 2965SOL     OW 9436   0.672   2.065  12.661
 2965SOL    HW1 9437   0.762   2.049  12.621
 2965SOL    HW2 9438   0.680   2.070  12.760
 2966SOL     OW 9439   0.075   2.207  11.205
 2966SOL    HW1 9440  -0.017   2.179  11.176
 2966SOL    HW2 9441   0.106   2.284  11.149
 2967SOL     OW 9442   1.440   2.718  12.570
 2967SOL    HW1 9443   1.383   2.770  12.507
 2967SOL    HW2 9444   1.536   2.730  12.546
 2968SOL     OW 9445   0.072   2.028  11.490
 2968SOL    HW1 9446   0.055   2.111  11.436
 2968SOL    HW2 9447   0.162   1.991  11.468
 2969SOL     OW 9448   1.183   3.197  11.291
 2969SOL    HW1 9449   1.084   3.186  11.293
 2969SOL    HW2 9450   1.217   3.212  11.384
 2970SOL     OW 9451   0.613   2.704  12.603
 2970SOL    HW1 9452   0.669   2.785  12.586
 2970SOL    HW2 9453   0.672   2.624  12.606
 2971SOL     OW 9454   1.493   3.629  12.131
 2971SOL    HW1 9455   1.526   3.693  12.062
 2971SOL    HW2 9456   1.559   3.623  12.206
 2972SOL     OW 9457   0.716   2.427  12.880
 2972SOL    HW1 9458   0.735   2.492  12.954
 2972SOL    HW2 9459   0.776   2.347  12.889
 2973SOL     OW 9460   1.450   3.082  12.805
 2973SOL    HW1 9461   1.441   3.072  12.904
 2973SOL    HW2 9462   1.546   3.075  12.779
 2974SOL     OW 9463   0.390   3.603  12.732
 2974SOL    HW1 9464   0.299   3.644  12.730
 2974SOL    HW2 9465   0.383   3.509  12.764
 2975SOL     OW 9466   1.674   2.745  12.426
 2975SOL    HW1 9467   1.647   2.656  12.389
 2975SOL    HW2 9468   1.675   2.813  12.353
 2976SOL     OW 9469   1.225   2.187  11.621
 2976SOL    HW1 9470   1.290   2.113  11.610
 2976SOL    HW2 9471   1.245   2.237  11.705
 2977SOL     OW 9472   0.594   2.607  11.824
 2977SOL    HW1 9473   0.644   2.692  11.805
 2977SOL    HW2 9474   0.506   2.609  11.776
 2978SOL     OW 9475   1.777   2.204  12.814
 2978SOL    HW1 9476   1.760   2.235  12.720
 2978SOL    HW2 9477   1.693   2.167  12.852
 2979SOL     OW 9478   1.730   2.796  12.689
 2979SOL    HW1 9479   1.768   2.887  12.704
 2979SOL    HW2 9480   1.722   2.779  12.590
 2980SOL     OW 9481   0.859   3.236  11.188
 2980SOL    HW1 9482   0.813   3.251  11.276
 2980SOL    HW2 9483   0.903   3.321  11.158
 2981SOL     OW 9484   0.661   3.652  12.125
 2981SOL    HW1 9485   0.615   3.740  12.112
 2981SOL    HW2 9486   0.760   3.664  12.118
 2982SOL     OW 9487   0.859   2.818  12.033
 2982SOL    HW1 9488   0.913   2.749  12.081
 2982SOL    HW2 9489   0.827   2.887  12.099
 2983SOL     OW 9490   1.083   2.846  11.259
 2983SOL    HW1 9491   1.060   2.899  11.177
 2983SOL    HW2 9492   1.164   2.790  11.240
 2984SOL     OW 9493   1.861   3.431  12.023
 2984SOL    HW1 9494   1.790   3.419  11.953
 2984SOL    HW2 9495   1.862   3.352  12.083
 2985SOL     OW 9496   0.221   3.176  13.016
 2985SOL    HW1 9497   0.156   3.103  12.995
 2985SOL    HW2 9498   0.225   3.190  13.114
 2986SOL     OW 9499   0.079   3.102  11.825
 2986SOL    HW1 9500   0.078   3.055  11.913
 2986SOL    HW2 9501   0.161   3.074  11.774
 2987SOL     OW 9502   0.672   3.253  12.796
 2987SOL    HW1 9503   0.594   3.203  12.834
 2987SOL    HW2 9504   0.669   3.348  12.827
 2988SOL     OW 9505   0.428   2.286  11.692
 2988SOL    HW1 9506   0.458   2.214  11.630
 2988SOL    HW2 9507   0.389   2.246  11.775
 2989SOL     OW 9508   1.705   3.349  12.276
 2989SOL    HW1 9509   1.612   3.324  12.249
 2989SOL    HW2 9510   1.731   3.299  12.358
 2990SOL     OW 9511   0.317   2.409  12.452
 2990SOL    HW1 9512   0.355   2.350  12.524
 2990SOL    HW2 9513   0.357   2.383  12.364
 2991SOL     OW 9514   0.812   3.448  11.859
 2991SOL    HW1 9515   0.844   3.458  11.765
 2991SOL    HW2 9516   0.733   3.386  11.861
 2992SOL     OW 9517   1.424   2.076  12.284
 2992SOL    HW1 9518   1.476   2.011  12.339
 2992SOL    HW2 9519   1.375   2.139  12.345
 2993SOL     OW 9520   1.001   1.896  12.326
 2993SOL    HW1 9521   0.938   1.824  12.295
 2993SOL    HW2 9522   1.094   1.860  12.326
 2994SOL     OW 9523   0.770   3.192  11.473
 2994SOL    HW1 9524   0.724   3.105  11.490
 2994SOL    HW2 9525   0.861   3.189  11.514
 2995SOL     OW 9526   0.618   3.429  12.456
 2995SOL    HW1 9527   0.613   3.511  12.513
 2995SOL    HW2 9528   0.707   3.426  12.411
 2996SOL     OW 9529   1.352   1.914  11.340
 2996SOL    HW1 9530   1.387   1.873  11.256
 2996SOL    HW2 9531   1.262   1.876  11.360
 2997SOL     OW 9532   1.300   2.315  11.863
 2997SOL    HW1 9533   1.241   2.395  11.867
 2997SOL    HW2 9534   1.315   2.280  11.956
 2998SOL     OW 9535   1.593   2.083  12.054
 2998SOL    HW1 9536   1.509   2.082  12.108
 2998SOL    HW2 9537   1.595   2.166  11.998
 2999SOL     OW 9538   0.039   2.939  11.472
 2999SOL    HW1 9539   0.138   2.928  11.463
 2999SOL    HW2 9540  -0.001   2.853  11.504
 3000SOL     OW 9541   0.875   3.508  11.509
 3000SOL    HW1 9542   0.798   3.473  11.455
 3000SOL    HW2 9543   0.843   3.579  11.571
 3001SOL     OW 9544   0.230   2.490  13.147
 3001SOL    HW1 9545   0.137   2.488  13.184
 3001SOL    HW2 9546   0.231   2.451  13.055
 3002SOL     OW 9547   0.225   2.137  14.030
 3002SOL    HW1 9548   0.260   2.120  14.122
 3002SOL    HW2 9549   0.137   2.092  14.018
 3003SOL     OW 9550   0.019   2.230  13.681
 3003SOL    HW1 9551  -0.063   2.273  13.720
 3003SOL    HW2 9552  -0.009   2.157  13.618
 3004SOL     OW 9553   1.555   3.373  13.737
 3004SOL    HW1 9554   1.498   3.357  13.818
 3004SOL    HW2 9555   1.496   3.383  13.657
 3005SOL     OW 9556   1.135   2.565  13.751
 3005SOL    HW1 9557   1.192   2.643  13.726
 3005SOL    HW2 9558   1.075   2.591  13.827
 3006SOL     OW 9559   1.755   2.469  13.265
 3006SOL    HW1 9560   1.743   2.456  13.166
 3006SOL    HW2 9561   1.725   2.388  13.314
 3007SOL     OW 9562   0.685   2.874  13.699
 3007SOL    HW1 9563   0.754   2.858  13.769
 3007SOL    HW2 9564   0.612   2.931  13.737
 3008SOL     OW 9565   1.603   2.309  13.771
 3008SOL    HW1 9566   1.529   2.355  13.721
 3008SOL    HW2 9567   1.654   2.377  13.824
 3009SOL     OW 9568   0.231   3.575  13.517
 3009SOL    HW1 9569   0.265   3.652  13.571
 3009SOL    HW2 9570   0.275   3.575  13.427
 3010SOL     OW 9571   0.230   3.296  13.572
 3010SOL    HW1 9572   0.204   3.392  13.572
 3010SOL    HW2 9573   0.159   3.242  13.617
 3011SOL     OW 9574   0.240   2.953  13.920
 3011SOL    HW1 9575   0.254   2.869  13.972
 3011SOL    HW2 9576   0.185   3.017  13.975
 3012SOL     OW 9577   0.606   2.826  13.157
 3012SOL    HW1 9578   0.613   2.910  13.103
 3012SOL    HW2 9579   0.652   2.839  13.245
 3013SOL     OW 9580   0.122   2.505  13.597
 3013SOL    HW1 9581   0.077   2.417  13.614
 3013SOL    HW2 9582   0.121   2.559  13.681
 3014SOL     OW 9583   1.842   3.629  13.393
 3014SOL    HW1 9584   1.896   3.600  13.473
 3014SOL    HW2 9585   1.872   3.719  13.364
 3015SOL     OW 9586   0.027   3.458  13.151
 3015SOL    HW1 9587   0.008   3.362  13.172
 3015SOL    HW2 9588  -0.006   3.516  13.226
 3016SOL     OW 9589   1.689   2.784  13.646
 3016SOL    HW1 9590   1.784   2.755  13.654
 3016SOL    HW2 9591   1.681   2.849  13.571
 3017SOL     OW 9592   1.641   2.970  13.466
 3017SOL    HW1 9593   1.727   2.972  13.414
 3017SOL    HW2 9594   1.655   3.017  13.554
 3018SOL     OW 9595   0.613   3.227  13.760
 3018SOL    HW1 9596   0.564   3.140  13.769
 3018SOL    HW2 9597   0.590   3.270  13.673
 3019SOL     OW 9598   0.809   1.866  13.536
 3019SOL    HW1 9599   0.849   1.957  13.527
 3019SOL    HW2 9600   0.709   1.874  13.542
 3020SOL     OW 9601   1.525   2.861  13.224
 3020SOL    HW1 9602   1.462   2.785  13.237
 3020SOL    HW2 9603   1.573   2.879  13.310
 3021SOL     OW 9604   1.667   3.576  13.606
 3021SOL    HW1 9605   1.626   3.553  13.518
 3021SOL    HW2 9606   1.649   3.502  13.671
 3022SOL     OW 9607   0.598   2.591  13.304
 3022SOL    HW1 9608   0.622   2.660  13.236
 3022SOL    HW2 9609   0.520   2.624  13.358
 3023SOL     OW 9610   1.281   2.207  13.978
 3023SOL    HW1 9611   1.195   2.157  13.965
 3023SOL    HW2 9612   1.343   2.153  14.034
 3024SOL     OW 9613   1.576   3.524  13.341
 3024SOL    HW1 9614   1.665   3.570  13.344
 3024SOL    HW2 9615   1.555   3.500  13.246
 3025SOL     OW 9616   1.041   2.563  13.463
 3025SOL    HW1 9617   1.067   2.559  13.559
 3025SOL    HW2 9618   0.956   2.512  13.449
 3026SOL     OW 9619   0.076   2.673  13.823
 3026SOL    HW1 9620   0.175   2.661  13.832
 3026SOL    HW2 9621   0.052   2.768  13.844
 3027SOL     OW 9622   0.865   2.210  13.229
 3027SOL    HW1 9623   0.924   2.273  13.180
 3027SOL    HW2 9624   0.884   2.116  13.200
 3028SOL     OW 9625   1.362   3.006  13.579
 3028SOL    HW1 9626   1.445   2.977  13.531
 3028SOL    HW2 9627   1.313   3.073  13.523
 3029SOL     OW 9628   1.008   3.318  13.511
 3029SOL    HW1 9629   0.962   3.390  13.459
 3029SOL    HW2 9630   1.004   3.338  13.609
 3030SOL     OW 9631   0.351   3.663  13.887
 3030SOL    HW1 9632   0.401   3.577  13.893
 3030SOL    HW2 9633   0.416   3.740  13.884
 3031SOL     OW 9634   1.795   2.928  13.907
 3031SOL    HW1 9635   1.733   2.913  13.831
 3031SOL    HW2 9636   1.743   2.939  13.992
 3032SOL     OW 9637   0.321   2.805  13.276
 3032SOL    HW1 9638   0.403   2.844  13.234
 3032SOL    HW2 9639   0.294   2.723  13.227
 3033SOL     OW 9640   1.458   2.597  13.762
 3033SOL    HW1 9641   1.453   2.532  13.837
 3033SOL    HW2 9642   1.538   2.656  13.775
 3034SOL     OW 9643   1.111   3.638  13.271
 3034SOL    HW1 9644   1.051   3.576  13.321
 3034SOL    HW2 9645   1.142   3.594  13.186
 3035SOL     OW 9646   1.632   3.239  13.115
 3035SOL    HW1 9647   1.600   3.333  13.105
 3035SOL    HW2 9648   1.556   3.176  13.103
 3036SOL     OW 9649   0.464   3.605  13.357
 3036SOL    HW1 9650   0.497   3.644  13.443
 3036SOL    HW2 9651   0.540   3.598  13.292
 3037SOL     OW 9652   1.400   1.969  13.460
 3037SOL    HW1 9653   1.376   1.932  13.370
 3037SOL    HW2 9654   1.499   1.985  13.464
 3038SOL     OW 9655   0.940   3.560  13.938
 3038SOL    HW1 9656   1.020   3.503  13.959
 3038SOL    HW2 9657   0.891   3.520  13.861
 3039SOL     OW 9658   0.382   2.562  13.514
 3039SOL    HW1 9659   0.427   2.472  13.511
 3039SOL    HW2 9660   0.288   2.551  13.547
 3040SOL     OW 9661   0.614   1.984  13.151
 3040SOL    HW1 9662   0.712   1.962  13.158
 3040SOL    HW2 9663   0.583   1.967  13.058
 3041SOL     OW 9664   0.539   1.926  13.546
 3041SOL    HW1 9665   0.458   1.927  13.604
 3041SOL    HW2 9666   0.542   2.009  13.491
 3042SOL     OW 9667   1.434   3.050  13.075
 3042SOL    HW1 9668   1.466   2.974  13.132
 3042SOL    HW2 9669   1.342   3.077  13.105
 3043SOL     OW 9670   0.297   1.897  13.205
 3043SOL    HW1 9671   0.346   1.981  13.184
 3043SOL    HW2 9672   0.359   1.832  13.250
 3044SOL     OW 9673   0.935   2.098  13.514
 3044SOL    HW1 9674   0.887   2.139  13.436
 3044SOL    HW2 9675   1.034   2.096  13.495
 3045SOL     OW 9676   0.459   3.014  13.775
 3045SOL    HW1 9677   0.388   2.987  13.840
 3045SOL    HW2 9678   0.433   2.986  13.682
 3046SOL     OW 9679   1.271   3.659  13.625
 3046SOL    HW1 9680   1.315   3.723  13.561
 3046SOL    HW2 9681   1.221   3.711  13.695
 3047SOL     OW 9682   1.032   2.411  13.050
 3047SOL    HW1 9683   0.991   2.493  13.011
 3047SOL    HW2 9684   1.096   2.437  13.123
 3048SOL     OW 9685   0.866   2.316  13.676
 3048SOL    HW1 9686   0.834   2.388  13.614
 3048SOL    HW2 9687   0.890   2.235  13.623
 3049SOL     OW 9688   1.017   1.901  13.787
 3049SOL    HW1 9689   0.945   1.906  13.718
 3049SOL    HW2 9690   0.993   1.832  13.856
 3050SOL     OW 9691   1.857   2.695  13.411
 3050SOL    HW1 9692   1.899   2.631  13.475
 3050SOL    HW2 9693   1.819   2.644  13.333
 3051SOL     OW 9694   0.488   3.247  13.208
 3051SOL    HW1 9695   0.401   3.232  13.255
 3051SOL    HW2 9696   0.471   3.273  13.113
 3052SOL     OW 9697   1.664   3.142  13.691
 3052SOL    HW1 9698   1.763   3.150  13.705
 3052SOL    HW2 9699   1.619   3.226  13.722
 3053SOL     OW 9700   1.390   2.437  13.112
 3053SOL    HW1 9701   1.336   2.416  13.193
 3053SOL    HW2 9702   1.481   2.396  13.121
 3054SOL     OW 9703   0.527   2.118  13.362
 3054SOL    HW1 9704   0.554   2.059  13.287
 3054SOL    HW2 9705   0.527   2.213  13.331
 3055SOL     OW 9706   0.705   2.912  13.402
 3055SOL    HW1 9707   0.691   2.919  13.501
 3055SOL    HW2 9708   0.789   2.861  13.384
 3056SOL     OW 9709   0.367   2.962  13.535
 3056SOL    HW1 9710   0.360   3.045  13.479
 3056SOL    HW2 9711   0.371   2.882  13.475
 3057SOL     OW 9712   0.566   2.399  13.899
 3057SOL    HW1 9713   0.578   2.465  13.825
 3057SOL    HW2 9714   0.612   2.433  13.982
 3058SOL     OW 9715   1.252   3.210  13.422
 3058SOL    HW1 9716   1.302   3.287  13.462
 3058SOL    HW2 9717   1.157   3.212  13.454
 3059SOL     OW 9718   1.582   2.501  13.506
 3059SOL    HW1 9719   1.551   2.562  13.579
 3059SOL    HW2 9720   1.632   2.553  13.437
 3060SOL     OW 9721   1.209   2.387  13.309
 3060SOL    HW1 9722   1.222   2.303  13.363
 3060SOL    HW2 9723   1.180   2.461  13.369
 3061SOL     OW 9724   0.307   1.925  13.652
 3061SOL    HW1 9725   0.296   2.019  13.685
 3061SOL    HW2 9726   0.302   1.862  13.729
 3062SOL     OW 9727   1.622   2.229  13.408
 3062SOL    HW1 9728   1.624   2.153  13.472
 3062SOL    HW2 9729   1.574   2.306  13.448
 3063SOL     OW 9730   1.540   2.136  13.159
 3063SOL    HW1 9731   1.479   2.061  13.182
 3063SOL    HW2 9732   1.562   2.188  13.242
 3064SOL     OW 9733   1.303   2.700  13.076
 3064SOL    HW1 9734   1.337   2.607  13.091
 3064SOL    HW2 9735   1.321   2.727  12.981
 3065SOL     OW 9736   0.008   3.188  13.234
 3065SOL    HW1 9737  -0.085   3.209  13.203
 3065SOL    HW2 9738   0.018   3.089  13.247
 3066SOL     OW 9739   0.815   2.434  13.359
 3066SOL    HW1 9740   0.822   2.345  13.313
 3066SOL    HW2 9741   0.721   2.468  13.351
 3067SOL     OW 9742   0.473   2.362  13.225
 3067SOL    HW1 9743   0.534   2.442  13.229
 3067SOL    HW2 9744   0.378   2.393  13.232
 3068SOL     OW 9745   1.302   2.717  13.343
 3068SOL    HW1 9746   1.216   2.686  13.385
 3068SOL    HW2 9747   1.298   2.703  13.244
 3069SOL     OW 9748   1.388   3.435  13.511
 3069SOL    HW1 9749   1.455   3.447  13.437
 3069SOL    HW2 9750   1.348   3.524  13.534
 3070SOL     OW 9751   1.280   2.789  13.706
 3070SOL    HW1 9752   1.340   2.708  13.708
 3070SOL    HW2 9753   1.320   2.858  13.646
 3071SOL     OW 9754   0.672   3.478  13.188
 3071SOL    HW1 9755   0.681   3.488  13.089
 3071SOL    HW2 9756   0.632   3.389  13.209
 3072SOL     OW 9757   0.263   2.188  13.754
 3072SOL    HW1 9758   0.184   2.239  13.720
 3072SOL    HW2 9759   0.254   2.173  13.852
 3073SOL     OW 9760   1.194   3.474  13.065
 3073SOL    HW1 9761   1.200   3.381  13.102
 3073SOL    HW2 9762   1.135   3.474  12.985
 3074SOL     OW 9763   0.916   2.772  13.325
 3074SOL    HW1 9764   0.979   2.810  13.257
 3074SOL    HW2 9765   0.956   2.689  13.364
 3075SOL     OW 9766   1.504   3.469  13.078
 3075SOL    HW1 9767   1.412   3.506  13.085
 3075SOL    HW2 9768   1.542   3.489  12.988
 3076SOL     OW 9769   1.039   2.960  13.730
 3076SOL    HW1 9770   0.969   2.913  13.784
 3076SOL    HW2 9771   1.098   2.892  13.687
 3077SOL     OW 9772   0.590   3.349  13.525
 3077SOL    HW1 9773   0.632   3.291  13.455
 3077SOL    HW2 9774   0.546   3.428  13.481
 3078SOL     OW 9775   0.255   3.210  13.324
 3078SOL    HW1 9776   0.159   3.211  13.297
 3078SOL    HW2 9777   0.267   3.263  13.408
 3079SOL     OW 9778   0.075   2.207  13.067
 3079SOL    HW1 9779  -0.017   2.179  13.038
 3079SOL    HW2 9780   0.106   2.284  13.011
 3080SOL     OW 9781   0.072   2.028  13.352
 3080SOL    HW1 9782   0.055   2.111  13.298
 3080SOL    HW2 9783   0.162   1.991  13.330
 3081SOL     OW 9784   1.183   3.197  13.153
 3081SOL    HW1 9785   1.084   3.186  13.155
 3081SOL    HW2 9786   1.217   3.212  13.246
 3082SOL     OW 9787   1.225   2.187  13.483
 3082SOL    HW1 9788   1.290   2.113  13.472
 3082SOL    HW2 9789   1.245   2.237  13.567
 3083SOL     OW 9790   0.594   2.607  13.686
 3083SOL    HW1 9791   0.644   2.692  13.667
 3083SOL    HW2 9792   0.506   2.609  13.638
 3084SOL     OW 9793   0.859   3.236  13.050
 3084SOL    HW1 9794   0.813   3.251  13.138
 3084SOL    HW2 9795   0.903   3.321  13.020
 3085SOL     OW 9796   0.661   3.652  13.987
 3085SOL    HW1 9797   0.615   3.740  13.974
 3085SOL    HW2 9798   0.760   3.664  13.980
 3086SOL     OW 9799   0.859   2.818  13.895
 3086SOL    HW1 9800   0.913   2.749  13.943
 3086SOL    HW2 9801   0.827   2.887  13.961
 3087SOL     OW 9802   1.083   2.846  13.121
 3087SOL    HW1 9803   1.060   2.899  13.039
 3087SOL    HW2 9804   1.164   2.790  13.102
 3088SOL     OW 9805   0.079   3.102  13.687
 3088SOL    HW1 9806   0.078   3.055  13.775
 3088SOL    HW2 9807   0.161   3.074  13.636
 3089SOL     OW 9808   0.428   2.286  13.554
 3089SOL    HW1 9809   0.458   2.214  13.492
 3089SOL    HW2 9810   0.389   2.246  13.637
 3090SOL     OW 9811   1.705   3.349  14.138
 3090SOL    HW1 9812   1.612   3.324  14.111
 3090SOL    HW2 9813   1.731   3.299  14.220
 3091SOL     OW 9814   0.812   3.448  13.721
 3091SOL    HW1 9815   0.844   3.458  13.627
 3091SOL    HW2 9816   0.733   3.386  13.723
 3092SOL     OW 9817   0.770   3.192  13.335
 3092SOL    HW1 9818   0.724   3.105  13.352
 3092SOL    HW2 9819   0.861   3.189  13.376
 3093SOL     OW 9820   1.352   1.914  13.202
 3093SOL    HW1 9821   1.387   1.873  13.118
 3093SOL    HW2 9822   1.262   1.876  13.222
 3094SOL     OW 9823   1.300   2.315  13.725
 3094SOL    HW1 9824   1.241   2.395  13.729
 3094SOL    HW2 9825   1.315   2.280  13.818
 3095SOL     OW 9826   0.039   2.939  13.334
 3095SOL    HW1 9827   0.138   2.928  13.325
 3095SOL    HW2 9828  -0.001   2.853  13.366
 3096SOL     OW 9829   0.875   3.508  13.371
 3096SOL    HW1 9830   0.798   3.473  13.317
 3096SOL    HW2 9831   0.843   3.579  13.433
 3097SOL     OW 9832   0.225   3.999   0.996
 3097SOL    HW1 9833   0.260   3.982   1.088
 3097SOL    HW2 9834   0.137   3.954   0.984
 3098SOL     OW 9835   0.019   4.092   0.647
 3098SOL    HW1 9836  -0.063   4.135   0.686
 3098SOL    HW2 9837  -0.009   4.019   0.584
 3099SOL     OW 9838   1.755   4.331   0.231
 3099SOL    HW1 9839   1.743   4.318   0.132
 3099SOL    HW2 9840   1.725   4.250   0.280
 3100SOL     OW 9841   0.438   4.116   1.499
 3100SOL    HW1 9842   0.520   4.060   1.508
 3100SOL    HW2 9843   0.357   4.058   1.503
 3101SOL     OW 9844   1.594   3.838   1.480
 3101SOL    HW1 9845   1.576   3.905   1.408
 3101SOL    HW2 9846   1.591   3.884   1.569
 3102SOL     OW 9847   0.809   3.728   0.502
 3102SOL    HW1 9848   0.849   3.819   0.493
 3102SOL    HW2 9849   0.709   3.736   0.508
 3103SOL     OW 9850   1.281   4.069   0.944
 3103SOL    HW1 9851   1.195   4.019   0.931
 3103SOL    HW2 9852   1.343   4.015   1.000
 3104SOL     OW 9853   0.550   3.920   0.885
 3104SOL    HW1 9854   0.545   3.915   0.985
 3104SOL    HW2 9855   0.552   4.016   0.856
 3105SOL     OW 9856   0.202   4.009   1.498
 3105SOL    HW1 9857   0.122   4.069   1.485
 3105SOL    HW2 9858   0.192   3.960   1.584
 3106SOL     OW 9859   1.400   3.831   0.426
 3106SOL    HW1 9860   1.376   3.794   0.336
 3106SOL    HW2 9861   1.499   3.847   0.430
 3107SOL     OW 9862   1.547   3.946   1.729
 3107SOL    HW1 9863   1.542   3.983   1.821
 3107SOL    HW2 9864   1.475   3.877   1.717
 3108SOL     OW 9865   0.781   3.988   1.749
 3108SOL    HW1 9866   0.848   3.927   1.792
 3108SOL    HW2 9867   0.708   4.007   1.814
 3109SOL     OW 9868   0.539   3.788   0.512
 3109SOL    HW1 9869   0.458   3.789   0.570
 3109SOL    HW2 9870   0.542   3.871   0.457
 3110SOL     OW 9871   0.297   3.759   0.171
 3110SOL    HW1 9872   0.346   3.843   0.150
 3110SOL    HW2 9873   0.359   3.694   0.216
 3111SOL     OW 9874   0.561   3.946   1.147
 3111SOL    HW1 9875   0.599   3.862   1.184
 3111SOL    HW2 9876   0.473   3.965   1.191
 3112SOL     OW 9877   1.017   3.763   0.753
 3112SOL    HW1 9878   0.945   3.768   0.684
 3112SOL    HW2 9879   0.993   3.694   0.822
 3113SOL     OW 9880   0.915   3.813   1.402
 3113SOL    HW1 9881   0.940   3.793   1.307
 3113SOL    HW2 9882   0.987   3.869   1.444
 3114SOL     OW 9883   1.274   4.110   1.262
 3114SOL    HW1 9884   1.295   4.184   1.326
 3114SOL    HW2 9885   1.185   4.127   1.219
 3115SOL     OW 9886   0.504   3.774   1.740
 3115SOL    HW1 9887   0.462   3.717   1.670
 3115SOL    HW2 9888   0.438   3.843   1.772
 3116SOL     OW 9889   0.307   3.937   1.231
 3116SOL    HW1 9890   0.284   3.974   1.321
 3116SOL    HW2 9891   0.277   3.842   1.225
 3117SOL     OW 9892   1.540   3.998   0.125
 3117SOL    HW1 9893   1.479   3.923   0.148
 3117SOL    HW2 9894   1.562   4.050   0.208
 3118SOL     OW 9895   1.160   3.931   1.477
 3118SOL    HW1 9896   1.160   3.995   1.554
 3118SOL    HW2 9897   1.188   3.979   1.394
 3119SOL     OW 9898   0.903   3.810   0.133
 3119SOL    HW1 9899   0.954   3.811   0.047
 3119SOL    HW2 9900   0.959   3.768   0.204
 3120SOL     OW 9901   1.726   3.859   0.523
 3120SOL    HW1 9902   1.799   3.842   0.456
 3120SOL    HW2 9903   1.695   3.772   0.561
 3121SOL     OW 9904   1.841   3.899   0.963
 3121SOL    HW1 9905   1.880   3.814   0.927
 3121SOL    HW2 9906   1.743   3.901   0.944
 3122SOL     OW 9907   0.672   3.927   1.489
 3122SOL    HW1 9908   0.762   3.911   1.449
 3122SOL    HW2 9909   0.680   3.932   1.588
 3123SOL     OW 9910   0.075   4.069   0.033
 3123SOL    HW1 9911  -0.017   4.041   0.004
 3123SOL    HW2 9912   0.106   4.146  -0.023
 3124SOL     OW 9913   0.072   3.890   0.318
 3124SOL    HW1 9914   0.055   3.973   0.264
 3124SOL    HW2 9915   0.162   3.853   0.296
 3125SOL     OW 9916   1.225   4.049   0.449
 3125SOL    HW1 9917   1.290   3.975   0.438
 3125SOL    HW2 9918   1.245   4.099   0.533
 3126SOL     OW 9919   1.777   4.066   1.642
 3126SOL    HW1 9920   1.760   4.097   1.548
 3126SOL    HW2 9921   1.693   4.029   1.680
 3127SOL     OW 9922   1.824   3.916   1.227
 3127SOL    HW1 9923   1.820   3.826   1.271
 3127SOL    HW2 9924   1.827   3.905   1.128
 3128SOL     OW 9925   1.424   3.938   1.112
 3128SOL    HW1 9926   1.476   3.873   1.167
 3128SOL    HW2 9927   1.375   4.001   1.173
 3129SOL     OW 9928   1.001   3.758   1.154
 3129SOL    HW1 9929   0.938   3.686   1.123
 3129SOL    HW2 9930   1.094   3.722   1.154
 3130SOL     OW 9931   1.352   3.776   0.168
 3130SOL    HW1 9932   1.387   3.735   0.084
 3130SOL    HW2 9933   1.262   3.738   0.188
 3131SOL     OW 9934   1.300   4.177   0.691
 3131SOL    HW1 9935   1.241   4.257   0.695
 3131SOL    HW2 9936   1.315   4.142   0.784
 3132SOL     OW 9937   1.593   3.945   0.882
 3132SOL    HW1 9938   1.509   3.944   0.936
 3132SOL    HW2 9939   1.595   4.028   0.826
 3133SOL     OW 9940   0.225   3.999   2.858
 3133SOL    HW1 9941   0.260   3.982   2.950
 3133SOL    HW2 9942   0.137   3.954   2.846
 3134SOL     OW 9943   0.019   4.092   2.509
 3134SOL    HW1 9944  -0.063   4.135   2.548
 3134SOL    HW2 9945  -0.009   4.019   2.446
 3135SOL     OW 9946   1.755   4.331   2.093
 3135SOL    HW1 9947   1.743   4.318   1.994
 3135SOL    HW2 9948   1.725   4.250   2.142
 3136SOL     OW 9949   0.438   4.116   3.361
 3136SOL    HW1 9950   0.520   4.060   3.370
 3136SOL    HW2 9951   0.357   4.058   3.365
 3137SOL     OW 9952   1.594   3.838   3.342
 3137SOL    HW1 9953   1.576   3.905   3.270
 3137SOL    HW2 9954   1.591   3.884   3.431
 3138SOL     OW 9955   0.809   3.728   2.364
 3138SOL    HW1 9956   0.849   3.819   2.355
 3138SOL    HW2 9957   0.709   3.736   2.370
 3139SOL     OW 9958   1.281   4.069   2.806
 3139SOL    HW1 9959   1.195   4.019   2.793
 3139SOL    HW2 9960   1.343   4.015   2.862
 3140SOL     OW 9961   0.550   3.920   2.747
 3140SOL    HW1 9962   0.545   3.915   2.847
 3140SOL    HW2 9963   0.552   4.016   2.718
 3141SOL     OW 9964   0.202   4.009   3.360
 3141SOL    HW1 9965   0.122   4.069   3.347
 3141SOL    HW2 9966   0.192   3.960   3.446
 3142SOL     OW 9967   1.400   3.831   2.288
 3142SOL    HW1 9968   1.376   3.794   2.198
 3142SOL    HW2 9969   1.499   3.847   2.292
 3143SOL     OW 9970   1.547   3.946   3.591
 3143SOL    HW1 9971   1.542   3.983   3.683
 3143SOL    HW2 9972   1.475   3.877   3.579
 3144SOL     OW 9973   0.614   3.846   1.979
 3144SOL    HW1 9974   0.712   3.824   1.986
 3144SOL    HW2 9975   0.583   3.829   1.886
 3145SOL     OW 9976   0.781   3.988   3.611
 3145SOL    HW1 9977   0.848   3.927   3.654
 3145SOL    HW2 9978   0.708   4.007   3.676
 3146SOL     OW 9979   0.539   3.788   2.374
 3146SOL    HW1 9980   0.458   3.789   2.432
 3146SOL    HW2 9981   0.542   3.871   2.319
 3147SOL     OW 9982   0.297   3.759   2.033
 3147SOL    HW1 9983   0.346   3.843   2.012
 3147SOL    HW2 9984   0.359   3.694   2.078
 3148SOL     OW 9985   0.561   3.946   3.009
 3148SOL    HW1 9986   0.599   3.862   3.046
 3148SOL    HW2 9987   0.473   3.965   3.053
 3149SOL     OW 9988   1.017   3.763   2.615
 3149SOL    HW1 9989   0.945   3.768   2.546
 3149SOL    HW2 9990   0.993   3.694   2.684
 3150SOL     OW 9991   0.915   3.813   3.264
 3150SOL    HW1 9992   0.940   3.793   3.169
 3150SOL    HW2 9993   0.987   3.869   3.306
 3151SOL     OW 9994   1.274   4.110   3.124
 3151SOL    HW1 9995   1.295   4.184   3.188
 3151SOL    HW2 9996   1.185   4.127   3.081
 3152SOL     OW 9997   0.504   3.774   3.602
 3152SOL    HW1 9998   0.462   3.717   3.532
 3152SOL    HW2 9999   0.438   3.843   3.634
 3153SOL     OW10000   0.307   3.937   3.093
 3153SOL    HW110001   0.284   3.974   3.183
 3153SOL    HW210002   0.277   3.842   3.087
 3154SOL     OW10003   1.540   3.998   1.987
 3154SOL    HW110004   1.479   3.923   2.010
 3154SOL    HW210005   1.562   4.050   2.070
 3155SOL     OW10006   1.160   3.931   3.339
 3155SOL    HW110007   1.160   3.995   3.416
 3155SOL    HW210008   1.188   3.979   3.256
 3156SOL     OW10009   0.903   3.810   1.995
 3156SOL    HW110010   0.954   3.811   1.909
 3156SOL    HW210011   0.959   3.768   2.066
 3157SOL     OW10012   1.726   3.859   2.385
 3157SOL    HW110013   1.799   3.842   2.318
 3157SOL    HW210014   1.695   3.772   2.423
 3158SOL     OW10015   1.841   3.899   2.825
 3158SOL    HW110016   1.880   3.814   2.789
 3158SOL    HW210017   1.743   3.901   2.806
 3159SOL     OW10018   0.672   3.927   3.351
 3159SOL    HW110019   0.762   3.911   3.311
 3159SOL    HW210020   0.680   3.932   3.450
 3160SOL     OW10021   0.075   4.069   1.895
 3160SOL    HW110022  -0.017   4.041   1.866
 3160SOL    HW210023   0.106   4.146   1.839
 3161SOL     OW10024   0.072   3.890   2.180
 3161SOL    HW110025   0.055   3.973   2.126
 3161SOL    HW210026   0.162   3.853   2.158
 3162SOL     OW10027   1.225   4.049   2.311
 3162SOL    HW110028   1.290   3.975   2.300
 3162SOL    HW210029   1.245   4.099   2.395
 3163SOL     OW10030   1.777   4.066   3.504
 3163SOL    HW110031   1.760   4.097   3.410
 3163SOL    HW210032   1.693   4.029   3.542
 3164SOL     OW10033   1.824   3.916   3.089
 3164SOL    HW110034   1.820   3.826   3.133
 3164SOL    HW210035   1.827   3.905   2.990
 3165SOL     OW10036   1.424   3.938   2.974
 3165SOL    HW110037   1.476   3.873   3.029
 3165SOL    HW210038   1.375   4.001   3.035
 3166SOL     OW10039   1.001   3.758   3.016
 3166SOL    HW110040   0.938   3.686   2.985
 3166SOL    HW210041   1.094   3.722   3.016
 3167SOL     OW10042   1.352   3.776   2.030
 3167SOL    HW110043   1.387   3.735   1.946
 3167SOL    HW210044   1.262   3.738   2.050
 3168SOL     OW10045   1.300   4.177   2.553
 3168SOL    HW110046   1.241   4.257   2.557
 3168SOL    HW210047   1.315   4.142   2.646
 3169SOL     OW10048   1.593   3.945   2.744
 3169SOL    HW110049   1.509   3.944   2.798
 3169SOL    HW210050   1.595   4.028   2.688
 3170SOL     OW10051   0.225   3.999   4.720
 3170SOL    HW110052   0.260   3.982   4.812
 3170SOL    HW210053   0.137   3.954   4.708
 3171SOL     OW10054   0.019   4.092   4.371
 3171SOL    HW110055  -0.063   4.135   4.410
 3171SOL    HW210056  -0.009   4.019   4.308
 3172SOL     OW10057   1.755   4.331   3.955
 3172SOL    HW110058   1.743   4.318   3.856
 3172SOL    HW210059   1.725   4.250   4.004
 3173SOL     OW10060   0.438   4.116   5.223
 3173SOL    HW110061   0.520   4.060   5.232
 3173SOL    HW210062   0.357   4.058   5.227
 3174SOL     OW10063   1.594   3.838   5.204
 3174SOL    HW110064   1.576   3.905   5.132
 3174SOL    HW210065   1.591   3.884   5.293
 3175SOL     OW10066   0.809   3.728   4.226
 3175SOL    HW110067   0.849   3.819   4.217
 3175SOL    HW210068   0.709   3.736   4.232
 3176SOL     OW10069   1.281   4.069   4.668
 3176SOL    HW110070   1.195   4.019   4.655
 3176SOL    HW210071   1.343   4.015   4.724
 3177SOL     OW10072   0.550   3.920   4.609
 3177SOL    HW110073   0.545   3.915   4.709
 3177SOL    HW210074   0.552   4.016   4.580
 3178SOL     OW10075   0.202   4.009   5.222
 3178SOL    HW110076   0.122   4.069   5.209
 3178SOL    HW210077   0.192   3.960   5.308
 3179SOL     OW10078   1.400   3.831   4.150
 3179SOL    HW110079   1.376   3.794   4.060
 3179SOL    HW210080   1.499   3.847   4.154
 3180SOL     OW10081   1.547   3.946   5.453
 3180SOL    HW110082   1.542   3.983   5.545
 3180SOL    HW210083   1.475   3.877   5.441
 3181SOL     OW10084   0.614   3.846   3.841
 3181SOL    HW110085   0.712   3.824   3.848
 3181SOL    HW210086   0.583   3.829   3.748
 3182SOL     OW10087   0.781   3.988   5.473
 3182SOL    HW110088   0.848   3.927   5.516
 3182SOL    HW210089   0.708   4.007   5.538
 3183SOL     OW10090   0.539   3.788   4.236
 3183SOL    HW110091   0.458   3.789   4.294
 3183SOL    HW210092   0.542   3.871   4.181
 3184SOL     OW10093   0.297   3.759   3.895
 3184SOL    HW110094   0.346   3.843   3.874
 3184SOL    HW210095   0.359   3.694   3.940
 3185SOL     OW10096   0.561   3.946   4.871
 3185SOL    HW110097   0.599   3.862   4.908
 3185SOL    HW210098   0.473   3.965   4.915
 3186SOL     OW10099   1.017   3.763   4.477
 3186SOL    HW110100   0.945   3.768   4.408
 3186SOL    HW210101   0.993   3.694   4.546
 3187SOL     OW10102   0.915   3.813   5.126
 3187SOL    HW110103   0.940   3.793   5.031
 3187SOL    HW210104   0.987   3.869   5.168
 3188SOL     OW10105   1.274   4.110   4.986
 3188SOL    HW110106   1.295   4.184   5.050
 3188SOL    HW210107   1.185   4.127   4.943
 3189SOL     OW10108   0.504   3.774   5.464
 3189SOL    HW110109   0.462   3.717   5.394
 3189SOL    HW210110   0.438   3.843   5.496
 3190SOL     OW10111   0.307   3.937   4.955
 3190SOL    HW110112   0.284   3.974   5.045
 3190SOL    HW210113   0.277   3.842   4.949
 3191SOL     OW10114   1.540   3.998   3.849
 3191SOL    HW110115   1.479   3.923   3.872
 3191SOL    HW210116   1.562   4.050   3.932
 3192SOL     OW10117   1.160   3.931   5.201
 3192SOL    HW110118   1.160   3.995   5.278
 3192SOL    HW210119   1.188   3.979   5.118
 3193SOL     OW10120   0.903   3.810   3.857
 3193SOL    HW110121   0.954   3.811   3.771
 3193SOL    HW210122   0.959   3.768   3.928
 3194SOL     OW10123   1.726   3.859   4.247
 3194SOL    HW110124   1.799   3.842   4.180
 3194SOL    HW210125   1.695   3.772   4.285
 3195SOL     OW10126   1.841   3.899   4.687
 3195SOL    HW110127   1.880   3.814   4.651
 3195SOL    HW210128   1.743   3.901   4.668
 3196SOL     OW10129   0.672   3.927   5.213
 3196SOL    HW110130   0.762   3.911   5.173
 3196SOL    HW210131   0.680   3.932   5.312
 3197SOL     OW10132   0.075   4.069   3.757
 3197SOL    HW110133  -0.017   4.041   3.728
 3197SOL    HW210134   0.106   4.146   3.701
 3198SOL     OW10135   0.072   3.890   4.042
 3198SOL    HW110136   0.055   3.973   3.988
 3198SOL    HW210137   0.162   3.853   4.020
 3199SOL     OW10138   1.225   4.049   4.173
 3199SOL    HW110139   1.290   3.975   4.162
 3199SOL    HW210140   1.245   4.099   4.257
 3200SOL     OW10141   1.777   4.066   5.366
 3200SOL    HW110142   1.760   4.097   5.272
 3200SOL    HW210143   1.693   4.029   5.404
 3201SOL     OW10144   1.824   3.916   4.951
 3201SOL    HW110145   1.820   3.826   4.995
 3201SOL    HW210146   1.827   3.905   4.852
 3202SOL     OW10147   1.424   3.938   4.836
 3202SOL    HW110148   1.476   3.873   4.891
 3202SOL    HW210149   1.375   4.001   4.897
 3203SOL     OW10150   1.001   3.758   4.878
 3203SOL    HW110151   0.938   3.686   4.847
 3203SOL    HW210152   1.094   3.722   4.878
 3204SOL     OW10153   1.352   3.776   3.892
 3204SOL    HW110154   1.387   3.735   3.808
 3204SOL    HW210155   1.262   3.738   3.912
 3205SOL     OW10156   1.300   4.177   4.415
 3205SOL    HW110157   1.241   4.257   4.419
 3205SOL    HW210158   1.315   4.142   4.508
 3206SOL     OW10159   1.593   3.945   4.606
 3206SOL    HW110160   1.509   3.944   4.660
 3206SOL    HW210161   1.595   4.028   4.550
 3207SOL     OW10162   0.225   3.999   6.582
 3207SOL    HW110163   0.260   3.982   6.674
 3207SOL    HW210164   0.137   3.954   6.570
 3208SOL     OW10165   0.019   4.092   6.233
 3208SOL    HW110166  -0.063   4.135   6.272
 3208SOL    HW210167  -0.009   4.019   6.170
 3209SOL     OW10168   1.755   4.331   5.817
 3209SOL    HW110169   1.743   4.318   5.718
 3209SOL    HW210170   1.725   4.250   5.866
 3210SOL     OW10171   0.438   4.116   7.085
 3210SOL    HW110172   0.520   4.060   7.094
 3210SOL    HW210173   0.357   4.058   7.089
 3211SOL     OW10174   1.594   3.838   7.066
 3211SOL    HW110175   1.576   3.905   6.994
 3211SOL    HW210176   1.591   3.884   7.155
 3212SOL     OW10177   0.809   3.728   6.088
 3212SOL    HW110178   0.849   3.819   6.079
 3212SOL    HW210179   0.709   3.736   6.094
 3213SOL     OW10180   1.281   4.069   6.530
 3213SOL    HW110181   1.195   4.019   6.517
 3213SOL    HW210182   1.343   4.015   6.586
 3214SOL     OW10183   0.550   3.920   6.471
 3214SOL    HW110184   0.545   3.915   6.571
 3214SOL    HW210185   0.552   4.016   6.442
 3215SOL     OW10186   0.202   4.009   7.084
 3215SOL    HW110187   0.122   4.069   7.071
 3215SOL    HW210188   0.192   3.960   7.170
 3216SOL     OW10189   1.400   3.831   6.012
 3216SOL    HW110190   1.376   3.794   5.922
 3216SOL    HW210191   1.499   3.847   6.016
 3217SOL     OW10192   1.547   3.946   7.315
 3217SOL    HW110193   1.542   3.983   7.407
 3217SOL    HW210194   1.475   3.877   7.303
 3218SOL     OW10195   0.614   3.846   5.703
 3218SOL    HW110196   0.712   3.824   5.710
 3218SOL    HW210197   0.583   3.829   5.610
 3219SOL     OW10198   0.781   3.988   7.335
 3219SOL    HW110199   0.848   3.927   7.378
 3219SOL    HW210200   0.708   4.007   7.400
 3220SOL     OW10201   0.539   3.788   6.098
 3220SOL    HW110202   0.458   3.789   6.156
 3220SOL    HW210203   0.542   3.871   6.043
 3221SOL     OW10204   0.297   3.759   5.757
 3221SOL    HW110205   0.346   3.843   5.736
 3221SOL    HW210206   0.359   3.694   5.802
 3222SOL     OW10207   0.561   3.946   6.733
 3222SOL    HW110208   0.599   3.862   6.770
 3222SOL    HW210209   0.473   3.965   6.777
 3223SOL     OW10210   1.017   3.763   6.339
 3223SOL    HW110211   0.945   3.768   6.270
 3223SOL    HW210212   0.993   3.694   6.408
 3224SOL     OW10213   0.915   3.813   6.988
 3224SOL    HW110214   0.940   3.793   6.893
 3224SOL    HW210215   0.987   3.869   7.030
 3225SOL     OW10216   1.274   4.110   6.848
 3225SOL    HW110217   1.295   4.184   6.912
 3225SOL    HW210218   1.185   4.127   6.805
 3226SOL     OW10219   0.504   3.774   7.326
 3226SOL    HW110220   0.462   3.717   7.256
 3226SOL    HW210221   0.438   3.843   7.358
 3227SOL     OW10222   0.307   3.937   6.817
 3227SOL    HW110223   0.284   3.974   6.907
 3227SOL    HW210224   0.277   3.842   6.811
 3228SOL     OW10225   1.540   3.998   5.711
 3228SOL    HW110226   1.479   3.923   5.734
 3228SOL    HW210227   1.562   4.050   5.794
 3229SOL     OW10228   1.160   3.931   7.063
 3229SOL    HW110229   1.160   3.995   7.140
 3229SOL    HW210230   1.188   3.979   6.980
 3230SOL     OW10231   0.903   3.810   5.719
 3230SOL    HW110232   0.954   3.811   5.633
 3230SOL    HW210233   0.959   3.768   5.790
 3231SOL     OW10234   1.726   3.859   6.109
 3231SOL    HW110235   1.799   3.842   6.042
 3231SOL    HW210236   1.695   3.772   6.147
 3232SOL     OW10237   1.841   3.899   6.549
 3232SOL    HW110238   1.880   3.814   6.513
 3232SOL    HW210239   1.743   3.901   6.530
 3233SOL     OW10240   0.672   3.927   7.075
 3233SOL    HW110241   0.762   3.911   7.035
 3233SOL    HW210242   0.680   3.932   7.174
 3234SOL     OW10243   0.075   4.069   5.619
 3234SOL    HW110244  -0.017   4.041   5.590
 3234SOL    HW210245   0.106   4.146   5.563
 3235SOL     OW10246   0.072   3.890   5.904
 3235SOL    HW110247   0.055   3.973   5.850
 3235SOL    HW210248   0.162   3.853   5.882
 3236SOL     OW10249   1.225   4.049   6.035
 3236SOL    HW110250   1.290   3.975   6.024
 3236SOL    HW210251   1.245   4.099   6.119
 3237SOL     OW10252   1.777   4.066   7.228
 3237SOL    HW110253   1.760   4.097   7.134
 3237SOL    HW210254   1.693   4.029   7.266
 3238SOL     OW10255   1.824   3.916   6.813
 3238SOL    HW110256   1.820   3.826   6.857
 3238SOL    HW210257   1.827   3.905   6.714
 3239SOL     OW10258   1.424   3.938   6.698
 3239SOL    HW110259   1.476   3.873   6.753
 3239SOL    HW210260   1.375   4.001   6.759
 3240SOL     OW10261   1.001   3.758   6.740
 3240SOL    HW110262   0.938   3.686   6.709
 3240SOL    HW210263   1.094   3.722   6.740
 3241SOL     OW10264   1.352   3.776   5.754
 3241SOL    HW110265   1.387   3.735   5.670
 3241SOL    HW210266   1.262   3.738   5.774
 3242SOL     OW10267   1.300   4.177   6.277
 3242SOL    HW110268   1.241   4.257   6.281
 3242SOL    HW210269   1.315   4.142   6.370
 3243SOL     OW10270   1.593   3.945   6.468
 3243SOL    HW110271   1.509   3.944   6.522
 3243SOL    HW210272   1.595   4.028   6.412
 3244SOL     OW10273   0.225   3.999   8.444
 3244SOL    HW110274   0.260   3.982   8.536
 3244SOL    HW210275   0.137   3.954   8.432
 3245SOL     OW10276   0.019   4.092   8.095
 3245SOL    HW110277  -0.063   4.135   8.134
 3245SOL    HW210278  -0.009   4.019   8.032
 3246SOL     OW10279   1.755   4.331   7.679
 3246SOL    HW110280   1.743   4.318   7.580
 3246SOL    HW210281   1.725   4.250   7.728
 3247SOL     OW10282   0.438   4.116   8.947
 3247SOL    HW110283   0.520   4.060   8.956
 3247SOL    HW210284   0.357   4.058   8.951
 3248SOL     OW10285   1.594   3.838   8.928
 3248SOL    HW110286   1.576   3.905   8.856
 3248SOL    HW210287   1.591   3.884   9.017
 3249SOL     OW10288   0.809   3.728   7.950
 3249SOL    HW110289   0.849   3.819   7.941
 3249SOL    HW210290   0.709   3.736   7.956
 3250SOL     OW10291   1.281   4.069   8.392
 3250SOL    HW110292   1.195   4.019   8.379
 3250SOL    HW210293   1.343   4.015   8.448
 3251SOL     OW10294   0.550   3.920   8.333
 3251SOL    HW110295   0.545   3.915   8.433
 3251SOL    HW210296   0.552   4.016   8.304
 3252SOL     OW10297   0.202   4.009   8.946
 3252SOL    HW110298   0.122   4.069   8.933
 3252SOL    HW210299   0.192   3.960   9.032
 3253SOL     OW10300   1.400   3.831   7.874
 3253SOL    HW110301   1.376   3.794   7.784
 3253SOL    HW210302   1.499   3.847   7.878
 3254SOL     OW10303   1.547   3.946   9.177
 3254SOL    HW110304   1.542   3.983   9.269
 3254SOL    HW210305   1.475   3.877   9.165
 3255SOL     OW10306   0.614   3.846   7.565
 3255SOL    HW110307   0.712   3.824   7.572
 3255SOL    HW210308   0.583   3.829   7.472
 3256SOL     OW10309   0.781   3.988   9.197
 3256SOL    HW110310   0.848   3.927   9.240
 3256SOL    HW210311   0.708   4.007   9.262
 3257SOL     OW10312   0.539   3.788   7.960
 3257SOL    HW110313   0.458   3.789   8.018
 3257SOL    HW210314   0.542   3.871   7.905
 3258SOL     OW10315   0.297   3.759   7.619
 3258SOL    HW110316   0.346   3.843   7.598
 3258SOL    HW210317   0.359   3.694   7.664
 3259SOL     OW10318   0.561   3.946   8.595
 3259SOL    HW110319   0.599   3.862   8.632
 3259SOL    HW210320   0.473   3.965   8.639
 3260SOL     OW10321   1.017   3.763   8.201
 3260SOL    HW110322   0.945   3.768   8.132
 3260SOL    HW210323   0.993   3.694   8.270
 3261SOL     OW10324   0.915   3.813   8.850
 3261SOL    HW110325   0.940   3.793   8.755
 3261SOL    HW210326   0.987   3.869   8.892
 3262SOL     OW10327   1.274   4.110   8.710
 3262SOL    HW110328   1.295   4.184   8.774
 3262SOL    HW210329   1.185   4.127   8.667
 3263SOL     OW10330   0.504   3.774   9.188
 3263SOL    HW110331   0.462   3.717   9.118
 3263SOL    HW210332   0.438   3.843   9.220
 3264SOL     OW10333   0.307   3.937   8.679
 3264SOL    HW110334   0.284   3.974   8.769
 3264SOL    HW210335   0.277   3.842   8.673
 3265SOL     OW10336   1.540   3.998   7.573
 3265SOL    HW110337   1.479   3.923   7.596
 3265SOL    HW210338   1.562   4.050   7.656
 3266SOL     OW10339   1.160   3.931   8.925
 3266SOL    HW110340   1.160   3.995   9.002
 3266SOL    HW210341   1.188   3.979   8.842
 3267SOL     OW10342   0.903   3.810   7.581
 3267SOL    HW110343   0.954   3.811   7.495
 3267SOL    HW210344   0.959   3.768   7.652
 3268SOL     OW10345   1.726   3.859   7.971
 3268SOL    HW110346   1.799   3.842   7.904
 3268SOL    HW210347   1.695   3.772   8.009
 3269SOL     OW10348   1.841   3.899   8.411
 3269SOL    HW110349   1.880   3.814   8.375
 3269SOL    HW210350   1.743   3.901   8.392
 3270SOL     OW10351   0.672   3.927   8.937
 3270SOL    HW110352   0.762   3.911   8.897
 3270SOL    HW210353   0.680   3.932   9.036
 3271SOL     OW10354   0.075   4.069   7.481
 3271SOL    HW110355  -0.017   4.041   7.452
 3271SOL    HW210356   0.106   4.146   7.425
 3272SOL     OW10357   0.072   3.890   7.766
 3272SOL    HW110358   0.055   3.973   7.712
 3272SOL    HW210359   0.162   3.853   7.744
 3273SOL     OW10360   1.225   4.049   7.897
 3273SOL    HW110361   1.290   3.975   7.886
 3273SOL    HW210362   1.245   4.099   7.981
 3274SOL     OW10363   1.777   4.066   9.090
 3274SOL    HW110364   1.760   4.097   8.996
 3274SOL    HW210365   1.693   4.029   9.128
 3275SOL     OW10366   1.824   3.916   8.675
 3275SOL    HW110367   1.820   3.826   8.719
 3275SOL    HW210368   1.827   3.905   8.576
 3276SOL     OW10369   1.424   3.938   8.560
 3276SOL    HW110370   1.476   3.873   8.615
 3276SOL    HW210371   1.375   4.001   8.621
 3277SOL     OW10372   1.001   3.758   8.602
 3277SOL    HW110373   0.938   3.686   8.571
 3277SOL    HW210374   1.094   3.722   8.602
 3278SOL     OW10375   1.352   3.776   7.616
 3278SOL    HW110376   1.387   3.735   7.532
 3278SOL    HW210377   1.262   3.738   7.636
 3279SOL     OW10378   1.300   4.177   8.139
 3279SOL    HW110379   1.241   4.257   8.143
 3279SOL    HW210380   1.315   4.142   8.232
 3280SOL     OW10381   1.593   3.945   8.330
 3280SOL    HW110382   1.509   3.944   8.384
 3280SOL    HW210383   1.595   4.028   8.274
 3281SOL     OW10384   0.225   3.999  10.306
 3281SOL    HW110385   0.260   3.982  10.398
 3281SOL    HW210386   0.137   3.954  10.294
 3282SOL     OW10387   0.019   4.092   9.957
 3282SOL    HW110388  -0.063   4.135   9.996
 3282SOL    HW210389  -0.009   4.019   9.894
 3283SOL     OW10390   1.755   4.331   9.541
 3283SOL    HW110391   1.743   4.318   9.442
 3283SOL    HW210392   1.725   4.250   9.590
 3284SOL     OW10393   0.438   4.116  10.809
 3284SOL    HW110394   0.520   4.060  10.818
 3284SOL    HW210395   0.357   4.058  10.813
 3285SOL     OW10396   1.594   3.838  10.790
 3285SOL    HW110397   1.576   3.905  10.718
 3285SOL    HW210398   1.591   3.884  10.879
 3286SOL     OW10399   0.809   3.728   9.812
 3286SOL    HW110400   0.849   3.819   9.803
 3286SOL    HW210401   0.709   3.736   9.818
 3287SOL     OW10402   1.281   4.069  10.254
 3287SOL    HW110403   1.195   4.019  10.241
 3287SOL    HW210404   1.343   4.015  10.310
 3288SOL     OW10405   0.550   3.920  10.195
 3288SOL    HW110406   0.545   3.915  10.295
 3288SOL    HW210407   0.552   4.016  10.166
 3289SOL     OW10408   0.202   4.009  10.808
 3289SOL    HW110409   0.122   4.069  10.795
 3289SOL    HW210410   0.192   3.960  10.894
 3290SOL     OW10411   1.400   3.831   9.736
 3290SOL    HW110412   1.376   3.794   9.646
 3290SOL    HW210413   1.499   3.847   9.740
 3291SOL     OW10414   1.547   3.946  11.039
 3291SOL    HW110415   1.542   3.983  11.131
 3291SOL    HW210416   1.475   3.877  11.027
 3292SOL     OW10417   0.614   3.846   9.427
 3292SOL    HW110418   0.712   3.824   9.434
 3292SOL    HW210419   0.583   3.829   9.334
 3293SOL     OW10420   0.781   3.988  11.059
 3293SOL    HW110421   0.848   3.927  11.102
 3293SOL    HW210422   0.708   4.007  11.124
 3294SOL     OW10423   0.539   3.788   9.822
 3294SOL    HW110424   0.458   3.789   9.880
 3294SOL    HW210425   0.542   3.871   9.767
 3295SOL     OW10426   0.297   3.759   9.481
 3295SOL    HW110427   0.346   3.843   9.460
 3295SOL    HW210428   0.359   3.694   9.526
 3296SOL     OW10429   0.561   3.946  10.457
 3296SOL    HW110430   0.599   3.862  10.494
 3296SOL    HW210431   0.473   3.965  10.501
 3297SOL     OW10432   1.017   3.763  10.063
 3297SOL    HW110433   0.945   3.768   9.994
 3297SOL    HW210434   0.993   3.694  10.132
 3298SOL     OW10435   0.915   3.813  10.712
 3298SOL    HW110436   0.940   3.793  10.617
 3298SOL    HW210437   0.987   3.869  10.754
 3299SOL     OW10438   1.274   4.110  10.572
 3299SOL    HW110439   1.295   4.184  10.636
 3299SOL    HW210440   1.185   4.127  10.529
 3300SOL     OW10441   0.504   3.774  11.050
 3300SOL    HW110442   0.462   3.717  10.980
 3300SOL    HW210443   0.438   3.843  11.082
 3301SOL     OW10444   0.307   3.937  10.541
 3301SOL    HW110445   0.284   3.974  10.631
 3301SOL    HW210446   0.277   3.842  10.535
 3302SOL     OW10447   1.540   3.998   9.435
 3302SOL    HW110448   1.479   3.923   9.458
 3302SOL    HW210449   1.562   4.050   9.518
 3303SOL     OW10450   1.160   3.931  10.787
 3303SOL    HW110451   1.160   3.995  10.864
 3303SOL    HW210452   1.188   3.979  10.704
 3304SOL     OW10453   0.903   3.810   9.443
 3304SOL    HW110454   0.954   3.811   9.357
 3304SOL    HW210455   0.959   3.768   9.514
 3305SOL     OW10456   1.726   3.859   9.833
 3305SOL    HW110457   1.799   3.842   9.766
 3305SOL    HW210458   1.695   3.772   9.871
 3306SOL     OW10459   1.841   3.899  10.273
 3306SOL    HW110460   1.880   3.814  10.237
 3306SOL    HW210461   1.743   3.901  10.254
 3307SOL     OW10462   0.672   3.927  10.799
 3307SOL    HW110463   0.762   3.911  10.759
 3307SOL    HW210464   0.680   3.932  10.898
 3308SOL     OW10465   0.075   4.069   9.343
 3308SOL    HW110466  -0.017   4.041   9.314
 3308SOL    HW210467   0.106   4.146   9.287
 3309SOL     OW10468   0.072   3.890   9.628
 3309SOL    HW110469   0.055   3.973   9.574
 3309SOL    HW210470   0.162   3.853   9.606
 3310SOL     OW10471   1.225   4.049   9.759
 3310SOL    HW110472   1.290   3.975   9.748
 3310SOL    HW210473   1.245   4.099   9.843
 3311SOL     OW10474   1.777   4.066  10.952
 3311SOL    HW110475   1.760   4.097  10.858
 3311SOL    HW210476   1.693   4.029  10.990
 3312SOL     OW10477   1.824   3.916  10.537
 3312SOL    HW110478   1.820   3.826  10.581
 3312SOL    HW210479   1.827   3.905  10.438
 3313SOL     OW10480   1.424   3.938  10.422
 3313SOL    HW110481   1.476   3.873  10.477
 3313SOL    HW210482   1.375   4.001  10.483
 3314SOL     OW10483   1.001   3.758  10.464
 3314SOL    HW110484   0.938   3.686  10.433
 3314SOL    HW210485   1.094   3.722  10.464
 3315SOL     OW10486   1.352   3.776   9.478
 3315SOL    HW110487   1.387   3.735   9.394
 3315SOL    HW210488   1.262   3.738   9.498
 3316SOL     OW10489   1.300   4.177  10.001
 3316SOL    HW110490   1.241   4.257  10.005
 3316SOL    HW210491   1.315   4.142  10.094
 3317SOL     OW10492   1.593   3.945  10.192
 3317SOL    HW110493   1.509   3.944  10.246
 3317SOL    HW210494   1.595   4.028  10.136
 3318SOL     OW10495   0.225   3.999  12.168
 3318SOL    HW110496   0.260   3.982  12.260
 3318SOL    HW210497   0.137   3.954  12.156
 3319SOL     OW10498   0.019   4.092  11.819
 3319SOL    HW110499  -0.063   4.135  11.858
 3319SOL    HW210500  -0.009   4.019  11.756
 3320SOL     OW10501   1.755   4.331  11.403
 3320SOL    HW110502   1.743   4.318  11.304
 3320SOL    HW210503   1.725   4.250  11.452
 3321SOL     OW10504   0.438   4.116  12.671
 3321SOL    HW110505   0.520   4.060  12.680
 3321SOL    HW210506   0.357   4.058  12.675
 3322SOL     OW10507   1.594   3.838  12.652
 3322SOL    HW110508   1.576   3.905  12.580
 3322SOL    HW210509   1.591   3.884  12.741
 3323SOL     OW10510   0.809   3.728  11.674
 3323SOL    HW110511   0.849   3.819  11.665
 3323SOL    HW210512   0.709   3.736  11.680
 3324SOL     OW10513   1.281   4.069  12.116
 3324SOL    HW110514   1.195   4.019  12.103
 3324SOL    HW210515   1.343   4.015  12.172
 3325SOL     OW10516   0.550   3.920  12.057
 3325SOL    HW110517   0.545   3.915  12.157
 3325SOL    HW210518   0.552   4.016  12.028
 3326SOL     OW10519   0.202   4.009  12.670
 3326SOL    HW110520   0.122   4.069  12.657
 3326SOL    HW210521   0.192   3.960  12.756
 3327SOL     OW10522   1.400   3.831  11.598
 3327SOL    HW110523   1.376   3.794  11.508
 3327SOL    HW210524   1.499   3.847  11.602
 3328SOL     OW10525   1.547   3.946  12.901
 3328SOL    HW110526   1.542   3.983  12.993
 3328SOL    HW210527   1.475   3.877  12.889
 3329SOL     OW10528   0.614   3.846  11.289
 3329SOL    HW110529   0.712   3.824  11.296
 3329SOL    HW210530   0.583   3.829  11.196
 3330SOL     OW10531   0.781   3.988  12.921
 3330SOL    HW110532   0.848   3.927  12.964
 3330SOL    HW210533   0.708   4.007  12.986
 3331SOL     OW10534   0.539   3.788  11.684
 3331SOL    HW110535   0.458   3.789  11.742
 3331SOL    HW210536   0.542   3.871  11.629
 3332SOL     OW10537   0.297   3.759  11.343
 3332SOL    HW110538   0.346   3.843  11.322
 3332SOL    HW210539   0.359   3.694  11.388
 3333SOL     OW10540   0.561   3.946  12.319
 3333SOL    HW110541   0.599   3.862  12.356
 3333SOL    HW210542   0.473   3.965  12.363
 3334SOL     OW10543   1.017   3.763  11.925
 3334SOL    HW110544   0.945   3.768  11.856
 3334SOL    HW210545   0.993   3.694  11.994
 3335SOL     OW10546   0.915   3.813  12.574
 3335SOL    HW110547   0.940   3.793  12.479
 3335SOL    HW210548   0.987   3.869  12.616
 3336SOL     OW10549   1.274   4.110  12.434
 3336SOL    HW110550   1.295   4.184  12.498
 3336SOL    HW210551   1.185   4.127  12.391
 3337SOL     OW10552   0.504   3.774  12.912
 3337SOL    HW110553   0.462   3.717  12.842
 3337SOL    HW210554   0.438   3.843  12.944
 3338SOL     OW10555   0.307   3.937  12.403
 3338SOL    HW110556   0.284   3.974  12.493
 3338SOL    HW210557   0.277   3.842  12.397
 3339SOL     OW10558   1.540   3.998  11.297
 3339SOL    HW110559   1.479   3.923  11.320
 3339SOL    HW210560   1.562   4.050  11.380
 3340SOL     OW10561   1.160   3.931  12.649
 3340SOL    HW110562   1.160   3.995  12.726
 3340SOL    HW210563   1.188   3.979  12.566
 3341SOL     OW10564   0.903   3.810  11.305
 3341SOL    HW110565   0.954   3.811  11.219
 3341SOL    HW210566   0.959   3.768  11.376
 3342SOL     OW10567   1.726   3.859  11.695
 3342SOL    HW110568   1.799   3.842  11.628
 3342SOL    HW210569   1.695   3.772  11.733
 3343SOL     OW10570   1.841   3.899  12.135
 3343SOL    HW110571   1.880   3.814  12.099
 3343SOL    HW210572   1.743   3.901  12.116
 3344SOL     OW10573   0.672   3.927  12.661
 3344SOL    HW110574   0.762   3.911  12.621
 3344SOL    HW210575   0.680   3.932  12.760
 3345SOL     OW10576   0.075   4.069  11.205
 3345SOL    HW110577  -0.017   4.041  11.176
 3345SOL    HW210578   0.106   4.146  11.149
 3346SOL     OW10579   0.072   3.890  11.490
 3346SOL    HW110580   0.055   3.973  11.436
 3346SOL    HW210581   0.162   3.853  11.468
 3347SOL     OW10582   1.225   4.049  11.621
 3347SOL    HW110583   1.290   3.975  11.610
 3347SOL    HW210584   1.245   4.099  11.705
 3348SOL     OW10585   1.777   4.066  12.814
 3348SOL    HW110586   1.760   4.097  12.720
 3348SOL    HW210587   1.693   4.029  12.852
 3349SOL     OW10588   1.824   3.916  12.399
 3349SOL    HW110589   1.820   3.826  12.443
 3349SOL    HW210590   1.827   3.905  12.300
 3350SOL     OW10591   1.424   3.938  12.284
 3350SOL    HW110592   1.476   3.873  12.339
 3350SOL    HW210593   1.375   4.001  12.345
 3351SOL     OW10594   1.001   3.758  12.326
 3351SOL    HW110595   0.938   3.686  12.295
 3351SOL    HW210596   1.094   3.722  12.326
 3352SOL     OW10597   1.352   3.776  11.340
 3352SOL    HW110598   1.387   3.735  11.256
 3352SOL    HW210599   1.262   3.738  11.360
 3353SOL     OW10600   1.300   4.177  11.863
 3353SOL    HW110601   1.241   4.257  11.867
 3353SOL    HW210602   1.315   4.142  11.956
 3354SOL     OW10603   1.593   3.945  12.054
 3354SOL    HW110604   1.509   3.944  12.108
 3354SOL    HW210605   1.595   4.028  11.998
 3355SOL     OW10606   0.019   4.092  13.681
 3355SOL    HW110607  -0.063   4.135  13.720
 3355SOL    HW210608  -0.009   4.019  13.618
 3356SOL     OW10609   1.755   4.331  13.265
 3356SOL    HW110610   1.743   4.318  13.166
 3356SOL    HW210611   1.725   4.250  13.314
 3357SOL     OW10612   1.603   4.171  13.771
 3357SOL    HW110613   1.529   4.217  13.721
 3357SOL    HW210614   1.654   4.239  13.824
 3358SOL     OW10615   0.809   3.728  13.536
 3358SOL    HW110616   0.849   3.819  13.527
 3358SOL    HW210617   0.709   3.736  13.542
 3359SOL     OW10618   1.400   3.831  13.460
 3359SOL    HW110619   1.376   3.794  13.370
 3359SOL    HW210620   1.499   3.847  13.464
 3360SOL     OW10621   0.614   3.846  13.151
 3360SOL    HW110622   0.712   3.824  13.158
 3360SOL    HW210623   0.583   3.829  13.058
 3361SOL     OW10624   0.539   3.788  13.546
 3361SOL    HW110625   0.458   3.789  13.604
 3361SOL    HW210626   0.542   3.871  13.491
 3362SOL     OW10627   0.297   3.759  13.205
 3362SOL    HW110628   0.346   3.843  13.184
 3362SOL    HW210629   0.359   3.694  13.250
 3363SOL     OW10630   1.017   3.763  13.787
 3363SOL    HW110631   0.945   3.768  13.718
 3363SOL    HW210632   0.993   3.694  13.856
 3364SOL     OW10633   1.540   3.998  13.159
 3364SOL    HW110634   1.479   3.923  13.182
 3364SOL    HW210635   1.562   4.050  13.242
 3365SOL     OW10636   0.903   3.810  13.167
 3365SOL    HW110637   0.954   3.811  13.081
 3365SOL    HW210638   0.959   3.768  13.238
 3366SOL     OW10639   1.726   3.859  13.557
 3366SOL    HW110640   1.799   3.842  13.490
 3366SOL    HW210641   1.695   3.772  13.595
 3367SOL     OW10642   1.841   3.899  13.997
 3367SOL    HW110643   1.880   3.814  13.961
 3367SOL    HW210644   1.743   3.901  13.978
 3368SOL     OW10645   0.075   4.069  13.067
 3368SOL    HW110646  -0.017   4.041  13.038
 3368SOL    HW210647   0.106   4.146  13.011
 3369SOL     OW10648   0.072   3.890  13.352
 3369SOL    HW110649   0.055   3.973  13.298
 3369SOL    HW210650   0.162   3.853  13.330
 3370SOL     OW10651   1.225   4.049  13.483
 3370SOL    HW110652   1.290   3.975  13.472
 3370SOL    HW210653   1.245   4.099  13.567
 3371SOL     OW10654   1.352   3.776  13.202
 3371SOL    HW110655   1.387   3.735  13.118
 3371SOL    HW210656   1.262   3.738  13.222
 3372SOL     OW10657   1.300   4.177  13.725
 3372SOL    HW110658   1.241   4.257  13.729
 3372SOL    HW210659   1.315   4.142  13.818
 3373SOL     OW10660   2.092   0.628   0.113
 3373SOL    HW110661   1.999   0.626   0.150
 3373SOL    HW210662   2.093   0.589   0.021
 3374SOL     OW10663   2.087   0.275   0.996
 3374SOL    HW110664   2.122   0.258   1.088
 3374SOL    HW210665   1.999   0.230   0.984
 3375SOL     OW10666   1.881   0.368   0.647
 3375SOL    HW110667   1.799   0.411   0.686
 3375SOL    HW210668   1.853   0.295   0.584
 3376SOL     OW10669   2.431   1.275   1.165
 3376SOL    HW110670   2.338   1.268   1.128
 3376SOL    HW210671   2.442   1.364   1.209
 3377SOL     OW10672   3.417   1.511   0.703
 3377SOL    HW110673   3.360   1.495   0.784
 3377SOL    HW210674   3.358   1.521   0.623
 3378SOL     OW10675   2.997   0.703   0.717
 3378SOL    HW110676   3.054   0.781   0.692
 3378SOL    HW210677   2.937   0.729   0.793
 3379SOL     OW10678   3.617   0.607   0.231
 3379SOL    HW110679   3.605   0.594   0.132
 3379SOL    HW210680   3.587   0.526   0.280
 3380SOL     OW10681   2.630   1.144   1.023
 3380SOL    HW110682   2.552   1.161   1.083
 3380SOL    HW210683   2.664   1.231   0.987
 3381SOL     OW10684   2.712   0.798   1.823
 3381SOL    HW110685   2.708   0.874   1.888
 3381SOL    HW210686   2.734   0.834   1.732
 3382SOL     OW10687   2.547   1.012   0.665
 3382SOL    HW110688   2.616   0.996   0.735
 3382SOL    HW210689   2.474   1.069   0.703
 3383SOL     OW10690   2.548   1.161   1.803
 3383SOL    HW110691   2.608   1.240   1.817
 3383SOL    HW210692   2.462   1.192   1.762
 3384SOL     OW10693   2.197   1.435   1.061
 3384SOL    HW110694   2.119   1.404   1.008
 3384SOL    HW210695   2.255   1.493   1.004
 3385SOL     OW10696   3.322   1.505   1.339
 3385SOL    HW110697   3.346   1.599   1.365
 3385SOL    HW210698   3.306   1.451   1.421
 3386SOL     OW10699   2.300   0.392   1.499
 3386SOL    HW110700   2.382   0.336   1.508
 3386SOL    HW210701   2.219   0.334   1.503
 3387SOL     OW10702   3.465   0.447   0.737
 3387SOL    HW110703   3.391   0.493   0.687
 3387SOL    HW210704   3.516   0.515   0.790
 3388SOL     OW10705   2.093   1.713   0.483
 3388SOL    HW110706   2.127   1.790   0.537
 3388SOL    HW210707   2.137   1.713   0.393
 3389SOL     OW10708   2.989   1.341   1.690
 3389SOL    HW110709   3.036   1.341   1.778
 3389SOL    HW210710   2.941   1.254   1.679
 3390SOL     OW10711   2.092   1.434   0.538
 3390SOL    HW110712   2.066   1.530   0.538
 3390SOL    HW210713   2.021   1.380   0.583
 3391SOL     OW10714   2.102   1.091   0.886
 3391SOL    HW110715   2.116   1.007   0.938
 3391SOL    HW210716   2.047   1.155   0.941
 3392SOL     OW10717   2.482   1.786   1.439
 3392SOL    HW110718   2.390   1.769   1.474
 3392SOL    HW210719   2.510   1.878   1.465
 3393SOL     OW10720   2.468   0.964   0.123
 3393SOL    HW110721   2.475   1.048   0.069
 3393SOL    HW210722   2.514   0.977   0.211
 3394SOL     OW10723   3.456   0.114   1.480
 3394SOL    HW110724   3.438   0.181   1.408
 3394SOL    HW210725   3.453   0.160   1.569
 3395SOL     OW10726   1.984   0.643   0.563
 3395SOL    HW110727   1.939   0.555   0.580
 3395SOL    HW210728   1.983   0.697   0.647
 3396SOL     OW10729   3.704   1.767   0.359
 3396SOL    HW110730   3.758   1.738   0.439
 3396SOL    HW210731   3.734   1.857   0.330
 3397SOL     OW10732   1.889   1.596   0.117
 3397SOL    HW110733   1.870   1.500   0.138
 3397SOL    HW210734   1.856   1.654   0.192
 3398SOL     OW10735   3.551   0.922   0.612
 3398SOL    HW110736   3.646   0.893   0.620
 3398SOL    HW210737   3.543   0.987   0.537
 3399SOL     OW10738   3.503   1.108   0.432
 3399SOL    HW110739   3.589   1.110   0.380
 3399SOL    HW210740   3.517   1.155   0.520
 3400SOL     OW10741   1.975   0.737   1.597
 3400SOL    HW110742   2.063   0.724   1.642
 3400SOL    HW210743   1.962   0.834   1.575
 3401SOL     OW10744   2.475   1.365   0.726
 3401SOL    HW110745   2.426   1.278   0.735
 3401SOL    HW210746   2.452   1.408   0.639
 3402SOL     OW10747   3.155   1.228   1.423
 3402SOL    HW110748   3.192   1.155   1.365
 3402SOL    HW210749   3.207   1.233   1.508
 3403SOL     OW10750   2.671   0.004   0.502
 3403SOL    HW110751   2.711   0.095   0.493
 3403SOL    HW210752   2.571   0.012   0.508
 3404SOL     OW10753   2.059   0.976   1.264
 3404SOL    HW110754   2.148   0.931   1.250
 3404SOL    HW210755   1.986   0.911   1.245
 3405SOL     OW10756   3.387   0.999   0.190
 3405SOL    HW110757   3.324   0.923   0.203
 3405SOL    HW210758   3.435   1.017   0.276
 3406SOL     OW10759   3.049   1.792   1.616
 3406SOL    HW110760   3.073   1.852   1.540
 3406SOL    HW210761   3.056   1.697   1.586
 3407SOL     OW10762   2.179   0.251   1.801
 3407SOL    HW110763   2.250   0.322   1.807
 3407SOL    HW210764   2.091   0.290   1.829
 3408SOL     OW10765   3.328   1.417   0.953
 3408SOL    HW110766   3.269   1.423   1.033
 3408SOL    HW210767   3.313   1.329   0.907
 3409SOL     OW10768   3.529   1.714   0.572
 3409SOL    HW110769   3.488   1.691   0.484
 3409SOL    HW210770   3.511   1.640   0.637
 3410SOL     OW10771   2.460   0.729   0.270
 3410SOL    HW110772   2.484   0.798   0.202
 3410SOL    HW210773   2.382   0.762   0.324
 3411SOL     OW10774   3.143   0.345   0.944
 3411SOL    HW110775   3.057   0.295   0.931
 3411SOL    HW210776   3.205   0.291   1.000
 3412SOL     OW10777   3.438   1.662   0.307
 3412SOL    HW110778   3.527   1.708   0.310
 3412SOL    HW210779   3.417   1.638   0.212
 3413SOL     OW10780   2.669   0.605   1.465
 3413SOL    HW110781   2.622   0.602   1.554
 3413SOL    HW210782   2.618   0.550   1.399
 3414SOL     OW10783   3.256   0.469   1.674
 3414SOL    HW110784   3.236   0.512   1.762
 3414SOL    HW210785   3.334   0.407   1.683
 3415SOL     OW10786   2.835   0.890   1.572
 3415SOL    HW110787   2.881   0.806   1.543
 3415SOL    HW210788   2.779   0.924   1.497
 3416SOL     OW10789   2.853   0.410   1.242
 3416SOL    HW110790   2.776   0.444   1.296
 3416SOL    HW210791   2.819   0.359   1.163
 3417SOL     OW10792   2.903   0.701   0.429
 3417SOL    HW110793   2.929   0.697   0.525
 3417SOL    HW210794   2.818   0.650   0.415
 3418SOL     OW10795   1.938   0.811   0.789
 3418SOL    HW110796   2.037   0.799   0.798
 3418SOL    HW210797   1.914   0.906   0.810
 3419SOL     OW10798   2.727   0.348   0.195
 3419SOL    HW110799   2.786   0.411   0.146
 3419SOL    HW210800   2.746   0.254   0.166
 3420SOL     OW10801   3.581   0.585   1.831
 3420SOL    HW110802   3.555   0.674   1.795
 3420SOL    HW210803   3.579   0.517   1.758
 3421SOL     OW10804   3.224   1.144   0.545
 3421SOL    HW110805   3.307   1.115   0.497
 3421SOL    HW210806   3.175   1.211   0.489
 3422SOL     OW10807   2.412   0.196   0.885
 3422SOL    HW110808   2.407   0.191   0.985
 3422SOL    HW210809   2.414   0.292   0.856
 3423SOL     OW10810   2.870   1.456   0.477
 3423SOL    HW110811   2.824   1.528   0.425
 3423SOL    HW210812   2.866   1.476   0.575
 3424SOL     OW10813   2.213   1.801   0.853
 3424SOL    HW110814   2.263   1.715   0.859
 3424SOL    HW210815   2.278   1.878   0.850
 3425SOL     OW10816   3.657   1.066   0.873
 3425SOL    HW110817   3.595   1.051   0.797
 3425SOL    HW210818   3.605   1.077   0.958
 3426SOL     OW10819   3.089   1.550   1.506
 3426SOL    HW110820   3.095   1.473   1.570
 3426SOL    HW210821   3.037   1.524   1.426
 3427SOL     OW10822   2.183   0.943   0.242
 3427SOL    HW110823   2.265   0.982   0.200
 3427SOL    HW210824   2.156   0.861   0.193
 3428SOL     OW10825   3.320   0.735   0.728
 3428SOL    HW110826   3.315   0.670   0.803
 3428SOL    HW210827   3.400   0.794   0.741
 3429SOL     OW10828   2.323   1.266   1.727
 3429SOL    HW110829   2.273   1.267   1.641
 3429SOL    HW210830   2.260   1.248   1.803
 3430SOL     OW10831   2.973   1.776   0.237
 3430SOL    HW110832   2.913   1.714   0.287
 3430SOL    HW210833   3.004   1.732   0.152
 3431SOL     OW10834   2.064   0.285   1.498
 3431SOL    HW110835   1.984   0.345   1.485
 3431SOL    HW210836   2.054   0.236   1.584
 3432SOL     OW10837   3.494   1.377   0.081
 3432SOL    HW110838   3.462   1.471   0.071
 3432SOL    HW210839   3.418   1.314   0.069
 3433SOL     OW10840   2.326   1.743   0.323
 3433SOL    HW110841   2.359   1.782   0.409
 3433SOL    HW210842   2.402   1.736   0.258
 3434SOL     OW10843   3.262   0.107   0.426
 3434SOL    HW110844   3.238   0.070   0.336
 3434SOL    HW210845   3.361   0.123   0.430
 3435SOL     OW10846   2.111   1.785   1.241
 3435SOL    HW110847   2.168   1.720   1.291
 3435SOL    HW210848   2.095   1.752   1.148
 3436SOL     OW10849   2.802   1.698   0.904
 3436SOL    HW110850   2.882   1.641   0.925
 3436SOL    HW210851   2.753   1.658   0.827
 3437SOL     OW10852   2.244   0.700   0.480
 3437SOL    HW110853   2.289   0.610   0.477
 3437SOL    HW210854   2.150   0.689   0.513
 3438SOL     OW10855   3.409   0.222   1.729
 3438SOL    HW110856   3.404   0.259   1.821
 3438SOL    HW210857   3.337   0.153   1.717
 3439SOL     OW10858   2.476   0.122   0.117
 3439SOL    HW110859   2.574   0.100   0.124
 3439SOL    HW210860   2.445   0.105   0.024
 3440SOL     OW10861   2.643   0.264   1.749
 3440SOL    HW110862   2.710   0.203   1.792
 3440SOL    HW210863   2.570   0.283   1.814
 3441SOL     OW10864   2.750   1.514   1.195
 3441SOL    HW110865   2.727   1.489   1.101
 3441SOL    HW210866   2.811   1.445   1.234
 3442SOL     OW10867   3.213   0.590   1.433
 3442SOL    HW110868   3.241   0.547   1.518
 3442SOL    HW210869   3.238   0.686   1.434
 3443SOL     OW10870   2.665   1.402   0.924
 3443SOL    HW110871   2.755   1.416   0.882
 3443SOL    HW210872   2.594   1.404   0.853
 3444SOL     OW10873   2.784   0.503   0.899
 3444SOL    HW110874   2.759   0.494   0.803
 3444SOL    HW210875   2.832   0.421   0.930
 3445SOL     OW10876   2.401   0.064   0.512
 3445SOL    HW110877   2.320   0.065   0.570
 3445SOL    HW210878   2.404   0.147   0.457
 3446SOL     OW10879   3.296   1.188   0.041
 3446SOL    HW110880   3.328   1.112   0.098
 3446SOL    HW210881   3.204   1.215   0.071
 3447SOL     OW10882   2.159   0.035   0.171
 3447SOL    HW110883   2.208   0.119   0.150
 3447SOL    HW210884   2.221  -0.030   0.216
 3448SOL     OW10885   2.797   0.236   0.480
 3448SOL    HW110886   2.749   0.277   0.402
 3448SOL    HW210887   2.896   0.234   0.461
 3449SOL     OW10888   2.938   0.683   1.464
 3449SOL    HW110889   2.858   0.622   1.467
 3449SOL    HW210890   3.019   0.630   1.440
 3450SOL     OW10891   3.089   1.570   0.793
 3450SOL    HW110892   3.110   1.644   0.728
 3450SOL    HW210893   3.157   1.570   0.866
 3451SOL     OW10894   2.321   1.152   0.741
 3451SOL    HW110895   2.250   1.125   0.806
 3451SOL    HW210896   2.295   1.124   0.648
 3452SOL     OW10897   3.133   1.797   0.591
 3452SOL    HW110898   3.177   1.861   0.527
 3452SOL    HW210899   3.083   1.849   0.661
 3453SOL     OW10900   2.894   0.549   0.016
 3453SOL    HW110901   2.853   0.631  -0.023
 3453SOL    HW210902   2.958   0.575   0.089
 3454SOL     OW10903   1.940   0.556   1.386
 3454SOL    HW110904   2.032   0.555   1.345
 3454SOL    HW210905   1.934   0.630   1.453
 3455SOL     OW10906   2.423   0.222   1.147
 3455SOL    HW110907   2.461   0.138   1.184
 3455SOL    HW210908   2.335   0.241   1.191
 3456SOL     OW10909   2.728   0.454   0.642
 3456SOL    HW110910   2.696   0.526   0.580
 3456SOL    HW210911   2.752   0.373   0.589
 3457SOL     OW10912   2.879   0.039   0.753
 3457SOL    HW110913   2.807   0.044   0.684
 3457SOL    HW210914   2.855  -0.030   0.822
 3458SOL     OW10915   3.291   1.173   0.867
 3458SOL    HW110916   3.236   1.089   0.860
 3458SOL    HW210917   3.317   1.202   0.775
 3459SOL     OW10918   3.328   0.590   0.992
 3459SOL    HW110919   3.298   0.495   0.999
 3459SOL    HW210920   3.401   0.606   1.058
 3460SOL     OW10921   3.719   0.833   0.377
 3460SOL    HW110922   3.761   0.769   0.441
 3460SOL    HW210923   3.681   0.782   0.299
 3461SOL     OW10924   2.350   1.385   0.174
 3461SOL    HW110925   2.263   1.370   0.221
 3461SOL    HW210926   2.333   1.411   0.079
 3462SOL     OW10927   3.526   1.280   0.657
 3462SOL    HW110928   3.625   1.288   0.671
 3462SOL    HW210929   3.481   1.364   0.688
 3463SOL     OW10930   3.252   0.575   0.078
 3463SOL    HW110931   3.198   0.554   0.159
 3463SOL    HW210932   3.343   0.534   0.087
 3464SOL     OW10933   2.389   0.256   0.328
 3464SOL    HW110934   2.416   0.197   0.253
 3464SOL    HW210935   2.389   0.351   0.297
 3465SOL     OW10936   3.616   1.223   1.588
 3465SOL    HW110937   3.707   1.184   1.575
 3465SOL    HW210938   3.624   1.319   1.612
 3466SOL     OW10939   2.926   1.347   1.340
 3466SOL    HW110940   2.846   1.324   1.395
 3466SOL    HW210941   3.009   1.321   1.389
 3467SOL     OW10942   3.454   1.629   1.625
 3467SOL    HW110943   3.481   1.663   1.535
 3467SOL    HW210944   3.533   1.591   1.671
 3468SOL     OW10945   2.973   1.195   1.100
 3468SOL    HW110946   2.933   1.239   1.181
 3468SOL    HW210947   2.932   1.232   1.017
 3469SOL     OW10948   3.500   1.099   1.079
 3469SOL    HW110949   3.505   1.180   1.138
 3469SOL    HW210950   3.414   1.101   1.028
 3470SOL     OW10951   2.777   0.089   1.402
 3470SOL    HW110952   2.802   0.069   1.307
 3470SOL    HW210953   2.849   0.145   1.444
 3471SOL     OW10954   2.842   1.116   1.719
 3471SOL    HW110955   2.743   1.122   1.729
 3471SOL    HW210956   2.865   1.036   1.663
 3472SOL     OW10957   2.567   1.050   0.368
 3472SOL    HW110958   2.553   1.057   0.467
 3472SOL    HW210959   2.651   0.999   0.350
 3473SOL     OW10960   2.272   0.813   1.251
 3473SOL    HW110961   2.358   0.825   1.301
 3473SOL    HW210962   2.230   0.726   1.278
 3474SOL     OW10963   3.136   0.386   1.262
 3474SOL    HW110964   3.157   0.460   1.326
 3474SOL    HW210965   3.047   0.403   1.219
 3475SOL     OW10966   1.926   1.564   1.331
 3475SOL    HW110967   1.880   1.646   1.297
 3475SOL    HW210968   2.024   1.583   1.340
 3476SOL     OW10969   2.229   1.100   0.501
 3476SOL    HW110970   2.222   1.183   0.445
 3476SOL    HW210971   2.233   1.020   0.441
 3477SOL     OW10972   2.428   0.537   0.865
 3477SOL    HW110973   2.440   0.603   0.791
 3477SOL    HW210974   2.474   0.571   0.948
 3478SOL     OW10975   3.114   1.348   0.388
 3478SOL    HW110976   3.164   1.425   0.428
 3478SOL    HW210977   3.019   1.350   0.420
 3479SOL     OW10978   3.134   1.445   1.142
 3479SOL    HW110979   3.181   1.458   1.229
 3479SOL    HW210980   3.068   1.371   1.151
 3480SOL     OW10981   3.444   0.639   0.472
 3480SOL    HW110982   3.413   0.700   0.545
 3480SOL    HW210983   3.494   0.691   0.403
 3481SOL     OW10984   2.216   1.510   1.329
 3481SOL    HW110985   2.195   1.466   1.242
 3481SOL    HW210986   2.313   1.536   1.332
 3482SOL     OW10987   2.264   0.751   1.598
 3482SOL    HW110988   2.332   0.806   1.551
 3482SOL    HW210989   2.304   0.663   1.625
 3483SOL     OW10990   3.449   0.779   1.670
 3483SOL    HW110991   3.357   0.817   1.665
 3483SOL    HW210992   3.509   0.826   1.605
 3484SOL     OW10993   2.875   0.105   1.770
 3484SOL    HW110994   2.881   0.190   1.718
 3484SOL    HW210995   2.907   0.029   1.713
 3485SOL     OW10996   2.366   0.050   1.740
 3485SOL    HW110997   2.324  -0.007   1.670
 3485SOL    HW210998   2.300   0.119   1.772
 3486SOL     OW10999   2.435   0.870   1.029
 3486SOL    HW111000   2.479   0.959   1.020
 3486SOL    HW211001   2.372   0.870   1.106
 3487SOL     OW11002   3.222   0.862   1.045
 3487SOL    HW111003   3.147   0.862   0.979
 3487SOL    HW211004   3.259   0.770   1.054
 3488SOL     OW11005   3.071   0.525   0.275
 3488SOL    HW111006   3.084   0.441   0.329
 3488SOL    HW211007   3.042   0.599   0.335
 3489SOL     OW11008   2.169   0.213   1.231
 3489SOL    HW111009   2.146   0.250   1.321
 3489SOL    HW211010   2.139   0.118   1.225
 3490SOL     OW11011   1.899   1.310   1.282
 3490SOL    HW111012   1.952   1.261   1.350
 3490SOL    HW211013   1.921   1.408   1.287
 3491SOL     OW11014   2.594   0.634   1.064
 3491SOL    HW111015   2.653   0.608   0.988
 3491SOL    HW211016   2.566   0.730   1.053
 3492SOL     OW11017   3.590   0.935   1.854
 3492SOL    HW111018   3.544   0.928   1.765
 3492SOL    HW211019   3.528   0.979   1.920
 3493SOL     OW11020   2.169   0.063   0.618
 3493SOL    HW111021   2.158   0.157   0.651
 3493SOL    HW211022   2.164   0.000   0.695
 3494SOL     OW11023   3.484   0.367   0.374
 3494SOL    HW111024   3.486   0.291   0.438
 3494SOL    HW211025   3.436   0.444   0.414
 3495SOL     OW11026   2.885   0.766   0.966
 3495SOL    HW111027   2.900   0.787   1.062
 3495SOL    HW211028   2.855   0.671   0.957
 3496SOL     OW11029   2.842   1.573   1.700
 3496SOL    HW111030   2.822   1.617   1.612
 3496SOL    HW211031   2.881   1.482   1.684
 3497SOL     OW11032   3.721   1.518   1.605
 3497SOL    HW111033   3.735   1.545   1.510
 3497SOL    HW211034   3.804   1.540   1.658
 3498SOL     OW11035   2.212   0.898   1.804
 3498SOL    HW111036   2.288   0.942   1.852
 3498SOL    HW211037   2.247   0.851   1.722
 3499SOL     OW11038   3.402   0.274   0.125
 3499SOL    HW111039   3.341   0.199   0.148
 3499SOL    HW211040   3.424   0.326   0.208
 3500SOL     OW11041   3.165   0.838   0.042
 3500SOL    HW111042   3.199   0.745   0.057
 3500SOL    HW211043   3.183   0.865  -0.053
 3501SOL     OW11044   2.930   1.333   0.849
 3501SOL    HW111045   2.937   1.249   0.794
 3501SOL    HW211046   2.992   1.402   0.813
 3502SOL     OW11047   2.181   0.810   0.949
 3502SOL    HW111048   2.274   0.846   0.954
 3502SOL    HW211049   2.175   0.725   1.001
 3503SOL     OW11050   2.201   0.509   1.006
 3503SOL    HW111051   2.149   0.426   0.989
 3503SOL    HW211052   2.278   0.514   0.942
 3504SOL     OW11053   3.000   0.380   1.678
 3504SOL    HW111054   2.955   0.443   1.742
 3504SOL    HW211055   3.093   0.411   1.661
 3505SOL     OW11056   3.022   0.207   1.477
 3505SOL    HW111057   3.022   0.271   1.554
 3505SOL    HW211058   3.050   0.255   1.394
 3506SOL     OW11059   1.870   1.326   0.200
 3506SOL    HW111060   1.777   1.347   0.169
 3506SOL    HW211061   1.880   1.227   0.213
 3507SOL     OW11062   1.950   1.801   0.927
 3507SOL    HW111063   1.908   1.715   0.900
 3507SOL    HW211064   2.044   1.804   0.893
 3508SOL     OW11065   2.366   1.568   0.910
 3508SOL    HW111066   2.432   1.642   0.919
 3508SOL    HW211067   2.410   1.489   0.868
 3509SOL     OW11068   2.864   0.796   1.238
 3509SOL    HW111069   2.905   0.764   1.324
 3509SOL    HW211070   2.768   0.769   1.235
 3510SOL     OW11071   1.902   0.544   1.114
 3510SOL    HW111072   1.987   0.511   1.073
 3510SOL    HW211073   1.915   0.559   1.212
 3511SOL     OW11074   2.051   0.520   1.722
 3511SOL    HW111075   2.110   0.480   1.652
 3511SOL    HW211076   1.993   0.591   1.681
 3512SOL     OW11077   3.231   0.950   1.660
 3512SOL    HW111078   3.270   1.039   1.680
 3512SOL    HW211079   3.241   0.930   1.563
 3513SOL     OW11080   2.677   0.572   0.325
 3513SOL    HW111081   2.684   0.483   0.279
 3513SOL    HW211082   2.583   0.606   0.317
 3514SOL     OW11083   3.519   0.604   1.206
 3514SOL    HW111084   3.481   0.535   1.268
 3514SOL    HW211085   3.601   0.568   1.162
 3515SOL     OW11086   2.114   1.564   1.744
 3515SOL    HW111087   2.084   1.621   1.820
 3515SOL    HW211088   2.107   1.467   1.770
 3516SOL     OW11089   2.533   0.464   1.269
 3516SOL    HW111090   2.499   0.375   1.239
 3516SOL    HW211091   2.559   0.518   1.189
 3517SOL     OW11092   2.792   1.678   1.465
 3517SOL    HW111093   2.768   1.660   1.370
 3517SOL    HW211094   2.822   1.772   1.475
 3518SOL     OW11095   2.335   0.500   0.191
 3518SOL    HW111096   2.396   0.580   0.195
 3518SOL    HW211097   2.240   0.531   0.198
 3519SOL     OW11098   2.021   1.137   1.466
 3519SOL    HW111099   2.043   1.076   1.542
 3519SOL    HW211100   2.031   1.088   1.380
 3520SOL     OW11101   3.209   1.059   1.234
 3520SOL    HW111102   3.233   0.996   1.160
 3520SOL    HW211103   3.119   1.099   1.216
 3521SOL     OW11104   3.164   0.855   0.309
 3521SOL    HW111105   3.078   0.824   0.351
 3521SOL    HW211106   3.160   0.841   0.210
 3522SOL     OW11107   3.621   1.747   1.154
 3522SOL    HW111108   3.682   1.777   1.081
 3522SOL    HW211109   3.583   1.658   1.132
 3523SOL     OW11110   3.114   1.731   1.128
 3523SOL    HW111111   3.198   1.736   1.074
 3523SOL    HW211112   3.091   1.635   1.146
 3524SOL     OW11113   1.945   1.258   1.022
 3524SOL    HW111114   1.940   1.257   1.122
 3524SOL    HW211115   1.862   1.217   0.984
 3525SOL     OW11116   2.550   1.662   1.716
 3525SOL    HW111117   2.494   1.743   1.725
 3525SOL    HW211118   2.602   1.666   1.630
 3526SOL     OW11119   2.765   0.086   0.133
 3526SOL    HW111120   2.816   0.087   0.047
 3526SOL    HW211121   2.821   0.044   0.204
 3527SOL     OW11122   3.588   0.135   0.523
 3527SOL    HW111123   3.661   0.118   0.456
 3527SOL    HW211124   3.557   0.048   0.561
 3528SOL     OW11125   3.250   1.573   0.477
 3528SOL    HW111126   3.317   1.585   0.403
 3528SOL    HW211127   3.210   1.662   0.500
 3529SOL     OW11128   1.992   1.794   1.851
 3529SOL    HW111129   1.951   1.720   1.904
 3529SOL    HW211130   2.056   1.845   1.909
 3530SOL     OW11131   3.142   0.927   0.672
 3530SOL    HW111132   3.202   0.846   0.674
 3530SOL    HW211133   3.182   0.996   0.612
 3531SOL     OW11134   2.692   1.273   1.422
 3531SOL    HW111135   2.687   1.306   1.517
 3531SOL    HW211136   2.606   1.292   1.376
 3532SOL     OW11137   2.534   1.616   0.154
 3532SOL    HW111138   2.543   1.626   0.055
 3532SOL    HW211139   2.494   1.527   0.175
 3533SOL     OW11140   3.512   1.720   1.394
 3533SOL    HW111141   3.565   1.730   1.310
 3533SOL    HW211142   3.485   1.810   1.428
 3534SOL     OW11143   3.703   0.175   0.963
 3534SOL    HW111144   3.742   0.090   0.927
 3534SOL    HW211145   3.605   0.177   0.944
 3535SOL     OW11146   2.125   0.326   0.720
 3535SOL    HW111147   2.046   0.377   0.686
 3535SOL    HW211148   2.116   0.311   0.818
 3536SOL     OW11149   3.056   1.612   0.031
 3536SOL    HW111150   3.062   1.519   0.068
 3536SOL    HW211151   2.997   1.612  -0.049
 3537SOL     OW11152   2.684   1.002   1.372
 3537SOL    HW111153   2.724   1.001   1.280
 3537SOL    HW211154   2.694   1.094   1.412
 3538SOL     OW11155   2.778   0.910   0.291
 3538SOL    HW111156   2.841   0.948   0.223
 3538SOL    HW211157   2.818   0.827   0.330
 3539SOL     OW11158   3.366   1.607   0.044
 3539SOL    HW111159   3.274   1.644   0.051
 3539SOL    HW211160   3.404   1.627  -0.046
 3540SOL     OW11161   2.234   1.288   1.490
 3540SOL    HW111162   2.221   1.381   1.456
 3540SOL    HW211163   2.150   1.236   1.477
 3541SOL     OW11164   3.476   1.292   1.289
 3541SOL    HW111165   3.536   1.295   1.369
 3541SOL    HW211166   3.401   1.356   1.302
 3542SOL     OW11167   2.901   1.098   0.696
 3542SOL    HW111168   2.831   1.051   0.750
 3542SOL    HW211169   2.960   1.030   0.653
 3543SOL     OW11170   2.876   0.236   0.971
 3543SOL    HW111171   2.868   0.200   0.878
 3543SOL    HW211172   2.874   0.160   1.036
 3544SOL     OW11173   2.452   1.487   0.491
 3544SOL    HW111174   2.494   1.429   0.421
 3544SOL    HW211175   2.408   1.566   0.447
 3545SOL     OW11176   3.571   0.385   1.381
 3545SOL    HW111177   3.644   0.454   1.385
 3545SOL    HW211178   3.599   0.310   1.322
 3546SOL     OW11179   2.117   1.348   0.290
 3546SOL    HW111180   2.021   1.349   0.263
 3546SOL    HW211181   2.129   1.401   0.374
 3547SOL     OW11182   1.967   1.013   1.726
 3547SOL    HW111183   1.890   0.980   1.780
 3547SOL    HW211184   2.052   0.983   1.768
 3548SOL     OW11185   2.534   0.203   1.489
 3548SOL    HW111186   2.624   0.187   1.449
 3548SOL    HW211187   2.542   0.208   1.588
 3549SOL     OW11188   1.937   0.345   0.033
 3549SOL    HW111189   1.845   0.317   0.004
 3549SOL    HW211190   1.968   0.422  -0.023
 3550SOL     OW11191   3.302   0.856   1.398
 3550SOL    HW111192   3.245   0.908   1.335
 3550SOL    HW211193   3.398   0.868   1.374
 3551SOL     OW11194   1.934   0.166   0.318
 3551SOL    HW111195   1.917   0.249   0.264
 3551SOL    HW211196   2.024   0.129   0.296
 3552SOL     OW11197   3.045   1.335   0.119
 3552SOL    HW111198   2.946   1.324   0.121
 3552SOL    HW211199   3.079   1.350   0.212
 3553SOL     OW11200   2.475   0.842   1.431
 3553SOL    HW111201   2.531   0.923   1.414
 3553SOL    HW211202   2.534   0.762   1.434
 3554SOL     OW11203   3.355   1.767   0.959
 3554SOL    HW111204   3.388   1.831   0.890
 3554SOL    HW211205   3.421   1.761   1.034
 3555SOL     OW11206   2.578   0.565   1.708
 3555SOL    HW111207   2.597   0.630   1.782
 3555SOL    HW211208   2.638   0.485   1.717
 3556SOL     OW11209   3.312   1.220   1.633
 3556SOL    HW111210   3.303   1.210   1.732
 3556SOL    HW211211   3.408   1.213   1.607
 3557SOL     OW11212   2.252   1.741   1.560
 3557SOL    HW111213   2.161   1.782   1.558
 3557SOL    HW211214   2.245   1.647   1.592
 3558SOL     OW11215   3.536   0.883   1.254
 3558SOL    HW111216   3.509   0.794   1.217
 3558SOL    HW211217   3.537   0.951   1.181
 3559SOL     OW11218   3.087   0.325   0.449
 3559SOL    HW111219   3.152   0.251   0.438
 3559SOL    HW211220   3.107   0.375   0.533
 3560SOL     OW11221   2.456   0.745   0.652
 3560SOL    HW111222   2.506   0.830   0.633
 3560SOL    HW211223   2.368   0.747   0.604
 3561SOL     OW11224   3.639   0.342   1.642
 3561SOL    HW111225   3.622   0.373   1.548
 3561SOL    HW211226   3.555   0.305   1.680
 3562SOL     OW11227   3.592   0.934   1.517
 3562SOL    HW111228   3.630   1.025   1.532
 3562SOL    HW211229   3.584   0.917   1.418
 3563SOL     OW11230   2.721   1.374   0.016
 3563SOL    HW111231   2.675   1.389   0.104
 3563SOL    HW211232   2.765   1.459  -0.014
 3564SOL     OW11233   2.523   1.790   0.953
 3564SOL    HW111234   2.477   1.878   0.940
 3564SOL    HW211235   2.622   1.802   0.946
 3565SOL     OW11236   2.721   0.956   0.861
 3565SOL    HW111237   2.775   0.887   0.909
 3565SOL    HW211238   2.689   1.025   0.927
 3566SOL     OW11239   2.945   0.984   0.087
 3566SOL    HW111240   2.922   1.037   0.005
 3566SOL    HW211241   3.026   0.928   0.068
 3567SOL     OW11242   3.723   1.569   0.851
 3567SOL    HW111243   3.652   1.557   0.781
 3567SOL    HW211244   3.724   1.490   0.911
 3568SOL     OW11245   2.083   1.314   1.844
 3568SOL    HW111246   2.018   1.241   1.823
 3568SOL    HW211247   2.087   1.328   1.942
 3569SOL     OW11248   1.941   1.240   0.653
 3569SOL    HW111249   1.940   1.193   0.741
 3569SOL    HW211250   2.023   1.212   0.602
 3570SOL     OW11251   2.534   1.391   1.624
 3570SOL    HW111252   2.456   1.341   1.662
 3570SOL    HW211253   2.531   1.486   1.655
 3571SOL     OW11254   3.686   0.192   1.227
 3571SOL    HW111255   3.682   0.102   1.271
 3571SOL    HW211256   3.689   0.181   1.128
 3572SOL     OW11257   2.290   0.424   0.520
 3572SOL    HW111258   2.320   0.352   0.458
 3572SOL    HW211259   2.251   0.384   0.603
 3573SOL     OW11260   3.567   1.487   1.104
 3573SOL    HW111261   3.474   1.462   1.077
 3573SOL    HW211262   3.593   1.437   1.186
 3574SOL     OW11263   2.179   0.547   1.280
 3574SOL    HW111264   2.217   0.488   1.352
 3574SOL    HW211265   2.219   0.521   1.192
 3575SOL     OW11266   2.674   1.586   0.687
 3575SOL    HW111267   2.706   1.596   0.593
 3575SOL    HW211268   2.595   1.524   0.689
 3576SOL     OW11269   3.286   0.214   1.112
 3576SOL    HW111270   3.338   0.149   1.167
 3576SOL    HW211271   3.237   0.277   1.173
 3577SOL     OW11272   2.863   0.034   1.154
 3577SOL    HW111273   2.800  -0.038   1.123
 3577SOL    HW211274   2.956  -0.002   1.154
 3578SOL     OW11275   2.632   1.330   0.301
 3578SOL    HW111276   2.586   1.243   0.318
 3578SOL    HW211277   2.723   1.327   0.342
 3579SOL     OW11278   2.480   1.567   1.284
 3579SOL    HW111279   2.475   1.649   1.341
 3579SOL    HW211280   2.569   1.564   1.239
 3580SOL     OW11281   3.214   0.052   0.168
 3580SOL    HW111282   3.249   0.011   0.084
 3580SOL    HW211283   3.124   0.014   0.188
 3581SOL     OW11284   3.162   0.453   0.691
 3581SOL    HW111285   3.103   0.533   0.695
 3581SOL    HW211286   3.177   0.418   0.784
 3582SOL     OW11287   3.455   0.221   0.882
 3582SOL    HW111288   3.371   0.220   0.936
 3582SOL    HW211289   3.457   0.304   0.826
 3583SOL     OW11290   1.901   1.077   0.300
 3583SOL    HW111291   2.000   1.066   0.291
 3583SOL    HW211292   1.861   0.991   0.332
 3584SOL     OW11293   2.737   1.646   0.337
 3584SOL    HW111294   2.660   1.611   0.283
 3584SOL    HW211295   2.705   1.717   0.399
 3585SOL     OW11296   2.092   0.628   1.975
 3585SOL    HW111297   1.999   0.626   2.012
 3585SOL    HW211298   2.093   0.589   1.883
 3586SOL     OW11299   2.087   0.275   2.858
 3586SOL    HW111300   2.122   0.258   2.950
 3586SOL    HW211301   1.999   0.230   2.846
 3587SOL     OW11302   1.881   0.368   2.509
 3587SOL    HW111303   1.799   0.411   2.548
 3587SOL    HW211304   1.853   0.295   2.446
 3588SOL     OW11305   2.431   1.275   3.027
 3588SOL    HW111306   2.338   1.268   2.990
 3588SOL    HW211307   2.442   1.364   3.071
 3589SOL     OW11308   3.417   1.511   2.565
 3589SOL    HW111309   3.360   1.495   2.646
 3589SOL    HW211310   3.358   1.521   2.485
 3590SOL     OW11311   2.997   0.703   2.579
 3590SOL    HW111312   3.054   0.781   2.554
 3590SOL    HW211313   2.937   0.729   2.655
 3591SOL     OW11314   3.617   0.607   2.093
 3591SOL    HW111315   3.605   0.594   1.994
 3591SOL    HW211316   3.587   0.526   2.142
 3592SOL     OW11317   2.630   1.144   2.885
 3592SOL    HW111318   2.552   1.161   2.945
 3592SOL    HW211319   2.664   1.231   2.849
 3593SOL     OW11320   2.712   0.798   3.685
 3593SOL    HW111321   2.708   0.874   3.750
 3593SOL    HW211322   2.734   0.834   3.594
 3594SOL     OW11323   2.547   1.012   2.527
 3594SOL    HW111324   2.616   0.996   2.597
 3594SOL    HW211325   2.474   1.069   2.565
 3595SOL     OW11326   2.548   1.161   3.665
 3595SOL    HW111327   2.608   1.240   3.679
 3595SOL    HW211328   2.462   1.192   3.624
 3596SOL     OW11329   2.197   1.435   2.923
 3596SOL    HW111330   2.119   1.404   2.870
 3596SOL    HW211331   2.255   1.493   2.866
 3597SOL     OW11332   3.322   1.505   3.201
 3597SOL    HW111333   3.346   1.599   3.227
 3597SOL    HW211334   3.306   1.451   3.283
 3598SOL     OW11335   2.300   0.392   3.361
 3598SOL    HW111336   2.382   0.336   3.370
 3598SOL    HW211337   2.219   0.334   3.365
 3599SOL     OW11338   3.465   0.447   2.599
 3599SOL    HW111339   3.391   0.493   2.549
 3599SOL    HW211340   3.516   0.515   2.652
 3600SOL     OW11341   2.093   1.713   2.345
 3600SOL    HW111342   2.127   1.790   2.399
 3600SOL    HW211343   2.137   1.713   2.255
 3601SOL     OW11344   2.989   1.341   3.552
 3601SOL    HW111345   3.036   1.341   3.640
 3601SOL    HW211346   2.941   1.254   3.541
 3602SOL     OW11347   2.092   1.434   2.400
 3602SOL    HW111348   2.066   1.530   2.400
 3602SOL    HW211349   2.021   1.380   2.445
 3603SOL     OW11350   2.102   1.091   2.748
 3603SOL    HW111351   2.116   1.007   2.800
 3603SOL    HW211352   2.047   1.155   2.803
 3604SOL     OW11353   2.482   1.786   3.301
 3604SOL    HW111354   2.390   1.769   3.336
 3604SOL    HW211355   2.510   1.878   3.327
 3605SOL     OW11356   2.468   0.964   1.985
 3605SOL    HW111357   2.475   1.048   1.931
 3605SOL    HW211358   2.514   0.977   2.073
 3606SOL     OW11359   3.456   0.114   3.342
 3606SOL    HW111360   3.438   0.181   3.270
 3606SOL    HW211361   3.453   0.160   3.431
 3607SOL     OW11362   1.984   0.643   2.425
 3607SOL    HW111363   1.939   0.555   2.442
 3607SOL    HW211364   1.983   0.697   2.509
 3608SOL     OW11365   3.704   1.767   2.221
 3608SOL    HW111366   3.758   1.738   2.301
 3608SOL    HW211367   3.734   1.857   2.192
 3609SOL     OW11368   1.889   1.596   1.979
 3609SOL    HW111369   1.870   1.500   2.000
 3609SOL    HW211370   1.856   1.654   2.054
 3610SOL     OW11371   3.551   0.922   2.474
 3610SOL    HW111372   3.646   0.893   2.482
 3610SOL    HW211373   3.543   0.987   2.399
 3611SOL     OW11374   3.503   1.108   2.294
 3611SOL    HW111375   3.589   1.110   2.242
 3611SOL    HW211376   3.517   1.155   2.382
 3612SOL     OW11377   1.975   0.737   3.459
 3612SOL    HW111378   2.063   0.724   3.504
 3612SOL    HW211379   1.962   0.834   3.437
 3613SOL     OW11380   2.475   1.365   2.588
 3613SOL    HW111381   2.426   1.278   2.597
 3613SOL    HW211382   2.452   1.408   2.501
 3614SOL     OW11383   3.155   1.228   3.285
 3614SOL    HW111384   3.192   1.155   3.227
 3614SOL    HW211385   3.207   1.233   3.370
 3615SOL     OW11386   2.671   0.004   2.364
 3615SOL    HW111387   2.711   0.095   2.355
 3615SOL    HW211388   2.571   0.012   2.370
 3616SOL     OW11389   2.059   0.976   3.126
 3616SOL    HW111390   2.148   0.931   3.112
 3616SOL    HW211391   1.986   0.911   3.107
 3617SOL     OW11392   3.387   0.999   2.052
 3617SOL    HW111393   3.324   0.923   2.065
 3617SOL    HW211394   3.435   1.017   2.138
 3618SOL     OW11395   3.049   1.792   3.478
 3618SOL    HW111396   3.073   1.852   3.402
 3618SOL    HW211397   3.056   1.697   3.448
 3619SOL     OW11398   2.179   0.251   3.663
 3619SOL    HW111399   2.250   0.322   3.669
 3619SOL    HW211400   2.091   0.290   3.691
 3620SOL     OW11401   3.328   1.417   2.815
 3620SOL    HW111402   3.269   1.423   2.895
 3620SOL    HW211403   3.313   1.329   2.769
 3621SOL     OW11404   3.529   1.714   2.434
 3621SOL    HW111405   3.488   1.691   2.346
 3621SOL    HW211406   3.511   1.640   2.499
 3622SOL     OW11407   2.460   0.729   2.132
 3622SOL    HW111408   2.484   0.798   2.064
 3622SOL    HW211409   2.382   0.762   2.186
 3623SOL     OW11410   3.143   0.345   2.806
 3623SOL    HW111411   3.057   0.295   2.793
 3623SOL    HW211412   3.205   0.291   2.862
 3624SOL     OW11413   3.438   1.662   2.169
 3624SOL    HW111414   3.527   1.708   2.172
 3624SOL    HW211415   3.417   1.638   2.074
 3625SOL     OW11416   2.669   0.605   3.327
 3625SOL    HW111417   2.622   0.602   3.416
 3625SOL    HW211418   2.618   0.550   3.261
 3626SOL     OW11419   3.256   0.469   3.536
 3626SOL    HW111420   3.236   0.512   3.624
 3626SOL    HW211421   3.334   0.407   3.545
 3627SOL     OW11422   2.835   0.890   3.434
 3627SOL    HW111423   2.881   0.806   3.405
 3627SOL    HW211424   2.779   0.924   3.359
 3628SOL     OW11425   2.853   0.410   3.104
 3628SOL    HW111426   2.776   0.444   3.158
 3628SOL    HW211427   2.819   0.359   3.025
 3629SOL     OW11428   2.903   0.701   2.291
 3629SOL    HW111429   2.929   0.697   2.387
 3629SOL    HW211430   2.818   0.650   2.277
 3630SOL     OW11431   1.938   0.811   2.651
 3630SOL    HW111432   2.037   0.799   2.660
 3630SOL    HW211433   1.914   0.906   2.672
 3631SOL     OW11434   2.727   0.348   2.057
 3631SOL    HW111435   2.786   0.411   2.008
 3631SOL    HW211436   2.746   0.254   2.028
 3632SOL     OW11437   3.581   0.585   3.693
 3632SOL    HW111438   3.555   0.674   3.657
 3632SOL    HW211439   3.579   0.517   3.620
 3633SOL     OW11440   3.224   1.144   2.407
 3633SOL    HW111441   3.307   1.115   2.359
 3633SOL    HW211442   3.175   1.211   2.351
 3634SOL     OW11443   2.412   0.196   2.747
 3634SOL    HW111444   2.407   0.191   2.847
 3634SOL    HW211445   2.414   0.292   2.718
 3635SOL     OW11446   2.870   1.456   2.339
 3635SOL    HW111447   2.824   1.528   2.287
 3635SOL    HW211448   2.866   1.476   2.437
 3636SOL     OW11449   2.213   1.801   2.715
 3636SOL    HW111450   2.263   1.715   2.721
 3636SOL    HW211451   2.278   1.878   2.712
 3637SOL     OW11452   3.657   1.066   2.735
 3637SOL    HW111453   3.595   1.051   2.659
 3637SOL    HW211454   3.605   1.077   2.820
 3638SOL     OW11455   3.089   1.550   3.368
 3638SOL    HW111456   3.095   1.473   3.432
 3638SOL    HW211457   3.037   1.524   3.288
 3639SOL     OW11458   2.183   0.943   2.104
 3639SOL    HW111459   2.265   0.982   2.062
 3639SOL    HW211460   2.156   0.861   2.055
 3640SOL     OW11461   3.320   0.735   2.590
 3640SOL    HW111462   3.315   0.670   2.665
 3640SOL    HW211463   3.400   0.794   2.603
 3641SOL     OW11464   2.323   1.266   3.589
 3641SOL    HW111465   2.273   1.267   3.503
 3641SOL    HW211466   2.260   1.248   3.665
 3642SOL     OW11467   2.973   1.776   2.099
 3642SOL    HW111468   2.913   1.714   2.149
 3642SOL    HW211469   3.004   1.732   2.014
 3643SOL     OW11470   2.064   0.285   3.360
 3643SOL    HW111471   1.984   0.345   3.347
 3643SOL    HW211472   2.054   0.236   3.446
 3644SOL     OW11473   3.494   1.377   1.943
 3644SOL    HW111474   3.462   1.471   1.933
 3644SOL    HW211475   3.418   1.314   1.931
 3645SOL     OW11476   2.326   1.743   2.185
 3645SOL    HW111477   2.359   1.782   2.271
 3645SOL    HW211478   2.402   1.736   2.120
 3646SOL     OW11479   3.262   0.107   2.288
 3646SOL    HW111480   3.238   0.070   2.198
 3646SOL    HW211481   3.361   0.123   2.292
 3647SOL     OW11482   2.111   1.785   3.103
 3647SOL    HW111483   2.168   1.720   3.153
 3647SOL    HW211484   2.095   1.752   3.010
 3648SOL     OW11485   2.802   1.698   2.766
 3648SOL    HW111486   2.882   1.641   2.787
 3648SOL    HW211487   2.753   1.658   2.689
 3649SOL     OW11488   2.244   0.700   2.342
 3649SOL    HW111489   2.289   0.610   2.339
 3649SOL    HW211490   2.150   0.689   2.375
 3650SOL     OW11491   3.409   0.222   3.591
 3650SOL    HW111492   3.404   0.259   3.683
 3650SOL    HW211493   3.337   0.153   3.579
 3651SOL     OW11494   2.476   0.122   1.979
 3651SOL    HW111495   2.574   0.100   1.986
 3651SOL    HW211496   2.445   0.105   1.886
 3652SOL     OW11497   2.643   0.264   3.611
 3652SOL    HW111498   2.710   0.203   3.654
 3652SOL    HW211499   2.570   0.283   3.676
 3653SOL     OW11500   2.750   1.514   3.057
 3653SOL    HW111501   2.727   1.489   2.963
 3653SOL    HW211502   2.811   1.445   3.096
 3654SOL     OW11503   3.213   0.590   3.295
 3654SOL    HW111504   3.241   0.547   3.380
 3654SOL    HW211505   3.238   0.686   3.296
 3655SOL     OW11506   2.665   1.402   2.786
 3655SOL    HW111507   2.755   1.416   2.744
 3655SOL    HW211508   2.594   1.404   2.715
 3656SOL     OW11509   2.784   0.503   2.761
 3656SOL    HW111510   2.759   0.494   2.665
 3656SOL    HW211511   2.832   0.421   2.792
 3657SOL     OW11512   2.401   0.064   2.374
 3657SOL    HW111513   2.320   0.065   2.432
 3657SOL    HW211514   2.404   0.147   2.319
 3658SOL     OW11515   3.296   1.188   1.903
 3658SOL    HW111516   3.328   1.112   1.960
 3658SOL    HW211517   3.204   1.215   1.933
 3659SOL     OW11518   2.159   0.035   2.033
 3659SOL    HW111519   2.208   0.119   2.012
 3659SOL    HW211520   2.221  -0.030   2.078
 3660SOL     OW11521   2.797   0.236   2.342
 3660SOL    HW111522   2.749   0.277   2.264
 3660SOL    HW211523   2.896   0.234   2.323
 3661SOL     OW11524   2.938   0.683   3.326
 3661SOL    HW111525   2.858   0.622   3.329
 3661SOL    HW211526   3.019   0.630   3.302
 3662SOL     OW11527   3.089   1.570   2.655
 3662SOL    HW111528   3.110   1.644   2.590
 3662SOL    HW211529   3.157   1.570   2.728
 3663SOL     OW11530   2.321   1.152   2.603
 3663SOL    HW111531   2.250   1.125   2.668
 3663SOL    HW211532   2.295   1.124   2.510
 3664SOL     OW11533   3.133   1.797   2.453
 3664SOL    HW111534   3.177   1.861   2.389
 3664SOL    HW211535   3.083   1.849   2.523
 3665SOL     OW11536   2.894   0.549   1.878
 3665SOL    HW111537   2.853   0.631   1.839
 3665SOL    HW211538   2.958   0.575   1.951
 3666SOL     OW11539   1.940   0.556   3.248
 3666SOL    HW111540   2.032   0.555   3.207
 3666SOL    HW211541   1.934   0.630   3.315
 3667SOL     OW11542   2.423   0.222   3.009
 3667SOL    HW111543   2.461   0.138   3.046
 3667SOL    HW211544   2.335   0.241   3.053
 3668SOL     OW11545   2.728   0.454   2.504
 3668SOL    HW111546   2.696   0.526   2.442
 3668SOL    HW211547   2.752   0.373   2.451
 3669SOL     OW11548   2.879   0.039   2.615
 3669SOL    HW111549   2.807   0.044   2.546
 3669SOL    HW211550   2.855  -0.030   2.684
 3670SOL     OW11551   3.291   1.173   2.729
 3670SOL    HW111552   3.236   1.089   2.722
 3670SOL    HW211553   3.317   1.202   2.637
 3671SOL     OW11554   3.328   0.590   2.854
 3671SOL    HW111555   3.298   0.495   2.861
 3671SOL    HW211556   3.401   0.606   2.920
 3672SOL     OW11557   3.719   0.833   2.239
 3672SOL    HW111558   3.761   0.769   2.303
 3672SOL    HW211559   3.681   0.782   2.161
 3673SOL     OW11560   2.350   1.385   2.036
 3673SOL    HW111561   2.263   1.370   2.083
 3673SOL    HW211562   2.333   1.411   1.941
 3674SOL     OW11563   3.526   1.280   2.519
 3674SOL    HW111564   3.625   1.288   2.533
 3674SOL    HW211565   3.481   1.364   2.550
 3675SOL     OW11566   3.252   0.575   1.940
 3675SOL    HW111567   3.198   0.554   2.021
 3675SOL    HW211568   3.343   0.534   1.949
 3676SOL     OW11569   2.389   0.256   2.190
 3676SOL    HW111570   2.416   0.197   2.115
 3676SOL    HW211571   2.389   0.351   2.159
 3677SOL     OW11572   3.616   1.223   3.450
 3677SOL    HW111573   3.707   1.184   3.437
 3677SOL    HW211574   3.624   1.319   3.474
 3678SOL     OW11575   2.926   1.347   3.202
 3678SOL    HW111576   2.846   1.324   3.257
 3678SOL    HW211577   3.009   1.321   3.251
 3679SOL     OW11578   3.454   1.629   3.487
 3679SOL    HW111579   3.481   1.663   3.397
 3679SOL    HW211580   3.533   1.591   3.533
 3680SOL     OW11581   2.973   1.195   2.962
 3680SOL    HW111582   2.933   1.239   3.043
 3680SOL    HW211583   2.932   1.232   2.879
 3681SOL     OW11584   3.500   1.099   2.941
 3681SOL    HW111585   3.505   1.180   3.000
 3681SOL    HW211586   3.414   1.101   2.890
 3682SOL     OW11587   2.777   0.089   3.264
 3682SOL    HW111588   2.802   0.069   3.169
 3682SOL    HW211589   2.849   0.145   3.306
 3683SOL     OW11590   2.842   1.116   3.581
 3683SOL    HW111591   2.743   1.122   3.591
 3683SOL    HW211592   2.865   1.036   3.525
 3684SOL     OW11593   2.567   1.050   2.230
 3684SOL    HW111594   2.553   1.057   2.329
 3684SOL    HW211595   2.651   0.999   2.212
 3685SOL     OW11596   2.272   0.813   3.113
 3685SOL    HW111597   2.358   0.825   3.163
 3685SOL    HW211598   2.230   0.726   3.140
 3686SOL     OW11599   3.136   0.386   3.124
 3686SOL    HW111600   3.157   0.460   3.188
 3686SOL    HW211601   3.047   0.403   3.081
 3687SOL     OW11602   1.926   1.564   3.193
 3687SOL    HW111603   1.880   1.646   3.159
 3687SOL    HW211604   2.024   1.583   3.202
 3688SOL     OW11605   2.229   1.100   2.363
 3688SOL    HW111606   2.222   1.183   2.307
 3688SOL    HW211607   2.233   1.020   2.303
 3689SOL     OW11608   2.428   0.537   2.727
 3689SOL    HW111609   2.440   0.603   2.653
 3689SOL    HW211610   2.474   0.571   2.810
 3690SOL     OW11611   3.114   1.348   2.250
 3690SOL    HW111612   3.164   1.425   2.290
 3690SOL    HW211613   3.019   1.350   2.282
 3691SOL     OW11614   3.134   1.445   3.004
 3691SOL    HW111615   3.181   1.458   3.091
 3691SOL    HW211616   3.068   1.371   3.013
 3692SOL     OW11617   3.444   0.639   2.334
 3692SOL    HW111618   3.413   0.700   2.407
 3692SOL    HW211619   3.494   0.691   2.265
 3693SOL     OW11620   2.216   1.510   3.191
 3693SOL    HW111621   2.195   1.466   3.104
 3693SOL    HW211622   2.313   1.536   3.194
 3694SOL     OW11623   2.264   0.751   3.460
 3694SOL    HW111624   2.332   0.806   3.413
 3694SOL    HW211625   2.304   0.663   3.487
 3695SOL     OW11626   3.449   0.779   3.532
 3695SOL    HW111627   3.357   0.817   3.527
 3695SOL    HW211628   3.509   0.826   3.467
 3696SOL     OW11629   2.875   0.105   3.632
 3696SOL    HW111630   2.881   0.190   3.580
 3696SOL    HW211631   2.907   0.029   3.575
 3697SOL     OW11632   2.366   0.050   3.602
 3697SOL    HW111633   2.324  -0.007   3.532
 3697SOL    HW211634   2.300   0.119   3.634
 3698SOL     OW11635   2.435   0.870   2.891
 3698SOL    HW111636   2.479   0.959   2.882
 3698SOL    HW211637   2.372   0.870   2.968
 3699SOL     OW11638   3.222   0.862   2.907
 3699SOL    HW111639   3.147   0.862   2.841
 3699SOL    HW211640   3.259   0.770   2.916
 3700SOL     OW11641   3.071   0.525   2.137
 3700SOL    HW111642   3.084   0.441   2.191
 3700SOL    HW211643   3.042   0.599   2.197
 3701SOL     OW11644   2.169   0.213   3.093
 3701SOL    HW111645   2.146   0.250   3.183
 3701SOL    HW211646   2.139   0.118   3.087
 3702SOL     OW11647   1.899   1.310   3.144
 3702SOL    HW111648   1.952   1.261   3.212
 3702SOL    HW211649   1.921   1.408   3.149
 3703SOL     OW11650   2.594   0.634   2.926
 3703SOL    HW111651   2.653   0.608   2.850
 3703SOL    HW211652   2.566   0.730   2.915
 3704SOL     OW11653   3.590   0.935   3.716
 3704SOL    HW111654   3.544   0.928   3.627
 3704SOL    HW211655   3.528   0.979   3.782
 3705SOL     OW11656   2.169   0.063   2.480
 3705SOL    HW111657   2.158   0.157   2.513
 3705SOL    HW211658   2.164   0.000   2.557
 3706SOL     OW11659   3.484   0.367   2.236
 3706SOL    HW111660   3.486   0.291   2.300
 3706SOL    HW211661   3.436   0.444   2.276
 3707SOL     OW11662   2.885   0.766   2.828
 3707SOL    HW111663   2.900   0.787   2.924
 3707SOL    HW211664   2.855   0.671   2.819
 3708SOL     OW11665   2.842   1.573   3.562
 3708SOL    HW111666   2.822   1.617   3.474
 3708SOL    HW211667   2.881   1.482   3.546
 3709SOL     OW11668   3.721   1.518   3.467
 3709SOL    HW111669   3.735   1.545   3.372
 3709SOL    HW211670   3.804   1.540   3.520
 3710SOL     OW11671   2.212   0.898   3.666
 3710SOL    HW111672   2.288   0.942   3.714
 3710SOL    HW211673   2.247   0.851   3.584
 3711SOL     OW11674   3.402   0.274   1.987
 3711SOL    HW111675   3.341   0.199   2.010
 3711SOL    HW211676   3.424   0.326   2.070
 3712SOL     OW11677   3.165   0.838   1.904
 3712SOL    HW111678   3.199   0.745   1.919
 3712SOL    HW211679   3.183   0.865   1.809
 3713SOL     OW11680   2.930   1.333   2.711
 3713SOL    HW111681   2.937   1.249   2.656
 3713SOL    HW211682   2.992   1.402   2.675
 3714SOL     OW11683   2.181   0.810   2.811
 3714SOL    HW111684   2.274   0.846   2.816
 3714SOL    HW211685   2.175   0.725   2.863
 3715SOL     OW11686   2.201   0.509   2.868
 3715SOL    HW111687   2.149   0.426   2.851
 3715SOL    HW211688   2.278   0.514   2.804
 3716SOL     OW11689   3.000   0.380   3.540
 3716SOL    HW111690   2.955   0.443   3.604
 3716SOL    HW211691   3.093   0.411   3.523
 3717SOL     OW11692   3.022   0.207   3.339
 3717SOL    HW111693   3.022   0.271   3.416
 3717SOL    HW211694   3.050   0.255   3.256
 3718SOL     OW11695   1.870   1.326   2.062
 3718SOL    HW111696   1.777   1.347   2.031
 3718SOL    HW211697   1.880   1.227   2.075
 3719SOL     OW11698   1.950   1.801   2.789
 3719SOL    HW111699   1.908   1.715   2.762
 3719SOL    HW211700   2.044   1.804   2.755
 3720SOL     OW11701   2.366   1.568   2.772
 3720SOL    HW111702   2.432   1.642   2.781
 3720SOL    HW211703   2.410   1.489   2.730
 3721SOL     OW11704   2.864   0.796   3.100
 3721SOL    HW111705   2.905   0.764   3.186
 3721SOL    HW211706   2.768   0.769   3.097
 3722SOL     OW11707   1.902   0.544   2.976
 3722SOL    HW111708   1.987   0.511   2.935
 3722SOL    HW211709   1.915   0.559   3.074
 3723SOL     OW11710   2.051   0.520   3.584
 3723SOL    HW111711   2.110   0.480   3.514
 3723SOL    HW211712   1.993   0.591   3.543
 3724SOL     OW11713   3.231   0.950   3.522
 3724SOL    HW111714   3.270   1.039   3.542
 3724SOL    HW211715   3.241   0.930   3.425
 3725SOL     OW11716   2.677   0.572   2.187
 3725SOL    HW111717   2.684   0.483   2.141
 3725SOL    HW211718   2.583   0.606   2.179
 3726SOL     OW11719   3.519   0.604   3.068
 3726SOL    HW111720   3.481   0.535   3.130
 3726SOL    HW211721   3.601   0.568   3.024
 3727SOL     OW11722   2.114   1.564   3.606
 3727SOL    HW111723   2.084   1.621   3.682
 3727SOL    HW211724   2.107   1.467   3.632
 3728SOL     OW11725   2.533   0.464   3.131
 3728SOL    HW111726   2.499   0.375   3.101
 3728SOL    HW211727   2.559   0.518   3.051
 3729SOL     OW11728   2.792   1.678   3.327
 3729SOL    HW111729   2.768   1.660   3.232
 3729SOL    HW211730   2.822   1.772   3.337
 3730SOL     OW11731   2.335   0.500   2.053
 3730SOL    HW111732   2.396   0.580   2.057
 3730SOL    HW211733   2.240   0.531   2.060
 3731SOL     OW11734   2.021   1.137   3.328
 3731SOL    HW111735   2.043   1.076   3.404
 3731SOL    HW211736   2.031   1.088   3.242
 3732SOL     OW11737   3.209   1.059   3.096
 3732SOL    HW111738   3.233   0.996   3.022
 3732SOL    HW211739   3.119   1.099   3.078
 3733SOL     OW11740   3.164   0.855   2.171
 3733SOL    HW111741   3.078   0.824   2.213
 3733SOL    HW211742   3.160   0.841   2.072
 3734SOL     OW11743   3.621   1.747   3.016
 3734SOL    HW111744   3.682   1.777   2.943
 3734SOL    HW211745   3.583   1.658   2.994
 3735SOL     OW11746   3.114   1.731   2.990
 3735SOL    HW111747   3.198   1.736   2.936
 3735SOL    HW211748   3.091   1.635   3.008
 3736SOL     OW11749   1.945   1.258   2.884
 3736SOL    HW111750   1.940   1.257   2.984
 3736SOL    HW211751   1.862   1.217   2.846
 3737SOL     OW11752   2.550   1.662   3.578
 3737SOL    HW111753   2.494   1.743   3.587
 3737SOL    HW211754   2.602   1.666   3.492
 3738SOL     OW11755   3.588   0.135   2.385
 3738SOL    HW111756   3.661   0.118   2.318
 3738SOL    HW211757   3.557   0.048   2.423
 3739SOL     OW11758   3.250   1.573   2.339
 3739SOL    HW111759   3.317   1.585   2.265
 3739SOL    HW211760   3.210   1.662   2.362
 3740SOL     OW11761   1.992   1.794   3.713
 3740SOL    HW111762   1.951   1.720   3.766
 3740SOL    HW211763   2.056   1.845   3.771
 3741SOL     OW11764   3.142   0.927   2.534
 3741SOL    HW111765   3.202   0.846   2.536
 3741SOL    HW211766   3.182   0.996   2.474
 3742SOL     OW11767   2.692   1.273   3.284
 3742SOL    HW111768   2.687   1.306   3.379
 3742SOL    HW211769   2.606   1.292   3.238
 3743SOL     OW11770   2.534   1.616   2.016
 3743SOL    HW111771   2.543   1.626   1.917
 3743SOL    HW211772   2.494   1.527   2.037
 3744SOL     OW11773   3.512   1.720   3.256
 3744SOL    HW111774   3.565   1.730   3.172
 3744SOL    HW211775   3.485   1.810   3.290
 3745SOL     OW11776   3.703   0.175   2.825
 3745SOL    HW111777   3.742   0.090   2.789
 3745SOL    HW211778   3.605   0.177   2.806
 3746SOL     OW11779   2.125   0.326   2.582
 3746SOL    HW111780   2.046   0.377   2.548
 3746SOL    HW211781   2.116   0.311   2.680
 3747SOL     OW11782   3.056   1.612   1.893
 3747SOL    HW111783   3.062   1.519   1.930
 3747SOL    HW211784   2.997   1.612   1.813
 3748SOL     OW11785   2.684   1.002   3.234
 3748SOL    HW111786   2.724   1.001   3.142
 3748SOL    HW211787   2.694   1.094   3.274
 3749SOL     OW11788   2.778   0.910   2.153
 3749SOL    HW111789   2.841   0.948   2.085
 3749SOL    HW211790   2.818   0.827   2.192
 3750SOL     OW11791   3.366   1.607   1.906
 3750SOL    HW111792   3.274   1.644   1.913
 3750SOL    HW211793   3.404   1.627   1.816
 3751SOL     OW11794   2.234   1.288   3.352
 3751SOL    HW111795   2.221   1.381   3.318
 3751SOL    HW211796   2.150   1.236   3.339
 3752SOL     OW11797   3.476   1.292   3.151
 3752SOL    HW111798   3.536   1.295   3.231
 3752SOL    HW211799   3.401   1.356   3.164
 3753SOL     OW11800   2.901   1.098   2.558
 3753SOL    HW111801   2.831   1.051   2.612
 3753SOL    HW211802   2.960   1.030   2.515
 3754SOL     OW11803   2.876   0.236   2.833
 3754SOL    HW111804   2.868   0.200   2.740
 3754SOL    HW211805   2.874   0.160   2.898
 3755SOL     OW11806   2.452   1.487   2.353
 3755SOL    HW111807   2.494   1.429   2.283
 3755SOL    HW211808   2.408   1.566   2.309
 3756SOL     OW11809   3.571   0.385   3.243
 3756SOL    HW111810   3.644   0.454   3.247
 3756SOL    HW211811   3.599   0.310   3.184
 3757SOL     OW11812   2.117   1.348   2.152
 3757SOL    HW111813   2.021   1.349   2.125
 3757SOL    HW211814   2.129   1.401   2.236
 3758SOL     OW11815   1.967   1.013   3.588
 3758SOL    HW111816   1.890   0.980   3.642
 3758SOL    HW211817   2.052   0.983   3.630
 3759SOL     OW11818   2.534   0.203   3.351
 3759SOL    HW111819   2.624   0.187   3.311
 3759SOL    HW211820   2.542   0.208   3.450
 3760SOL     OW11821   1.937   0.345   1.895
 3760SOL    HW111822   1.845   0.317   1.866
 3760SOL    HW211823   1.968   0.422   1.839
 3761SOL     OW11824   3.302   0.856   3.260
 3761SOL    HW111825   3.245   0.908   3.197
 3761SOL    HW211826   3.398   0.868   3.236
 3762SOL     OW11827   1.934   0.166   2.180
 3762SOL    HW111828   1.917   0.249   2.126
 3762SOL    HW211829   2.024   0.129   2.158
 3763SOL     OW11830   3.045   1.335   1.981
 3763SOL    HW111831   2.946   1.324   1.983
 3763SOL    HW211832   3.079   1.350   2.074
 3764SOL     OW11833   2.475   0.842   3.293
 3764SOL    HW111834   2.531   0.923   3.276
 3764SOL    HW211835   2.534   0.762   3.296
 3765SOL     OW11836   3.355   1.767   2.821
 3765SOL    HW111837   3.388   1.831   2.752
 3765SOL    HW211838   3.421   1.761   2.896
 3766SOL     OW11839   2.578   0.565   3.570
 3766SOL    HW111840   2.597   0.630   3.644
 3766SOL    HW211841   2.638   0.485   3.579
 3767SOL     OW11842   3.312   1.220   3.495
 3767SOL    HW111843   3.303   1.210   3.594
 3767SOL    HW211844   3.408   1.213   3.469
 3768SOL     OW11845   2.252   1.741   3.422
 3768SOL    HW111846   2.161   1.782   3.420
 3768SOL    HW211847   2.245   1.647   3.454
 3769SOL     OW11848   3.536   0.883   3.116
 3769SOL    HW111849   3.509   0.794   3.079
 3769SOL    HW211850   3.537   0.951   3.043
 3770SOL     OW11851   3.087   0.325   2.311
 3770SOL    HW111852   3.152   0.251   2.300
 3770SOL    HW211853   3.107   0.375   2.395
 3771SOL     OW11854   2.456   0.745   2.514
 3771SOL    HW111855   2.506   0.830   2.495
 3771SOL    HW211856   2.368   0.747   2.466
 3772SOL     OW11857   3.639   0.342   3.504
 3772SOL    HW111858   3.622   0.373   3.410
 3772SOL    HW211859   3.555   0.305   3.542
 3773SOL     OW11860   3.592   0.934   3.379
 3773SOL    HW111861   3.630   1.025   3.394
 3773SOL    HW211862   3.584   0.917   3.280
 3774SOL     OW11863   2.721   1.374   1.878
 3774SOL    HW111864   2.675   1.389   1.966
 3774SOL    HW211865   2.765   1.459   1.848
 3775SOL     OW11866   2.523   1.790   2.815
 3775SOL    HW111867   2.477   1.878   2.802
 3775SOL    HW211868   2.622   1.802   2.808
 3776SOL     OW11869   2.721   0.956   2.723
 3776SOL    HW111870   2.775   0.887   2.771
 3776SOL    HW211871   2.689   1.025   2.789
 3777SOL     OW11872   2.945   0.984   1.949
 3777SOL    HW111873   2.922   1.037   1.867
 3777SOL    HW211874   3.026   0.928   1.930
 3778SOL     OW11875   3.723   1.569   2.713
 3778SOL    HW111876   3.652   1.557   2.643
 3778SOL    HW211877   3.724   1.490   2.773
 3779SOL     OW11878   2.083   1.314   3.706
 3779SOL    HW111879   2.018   1.241   3.685
 3779SOL    HW211880   2.087   1.328   3.804
 3780SOL     OW11881   1.941   1.240   2.515
 3780SOL    HW111882   1.940   1.193   2.603
 3780SOL    HW211883   2.023   1.212   2.464
 3781SOL     OW11884   2.534   1.391   3.486
 3781SOL    HW111885   2.456   1.341   3.524
 3781SOL    HW211886   2.531   1.486   3.517
 3782SOL     OW11887   3.686   0.192   3.089
 3782SOL    HW111888   3.682   0.102   3.133
 3782SOL    HW211889   3.689   0.181   2.990
 3783SOL     OW11890   2.290   0.424   2.382
 3783SOL    HW111891   2.320   0.352   2.320
 3783SOL    HW211892   2.251   0.384   2.465
 3784SOL     OW11893   3.567   1.487   2.966
 3784SOL    HW111894   3.474   1.462   2.939
 3784SOL    HW211895   3.593   1.437   3.048
 3785SOL     OW11896   2.179   0.547   3.142
 3785SOL    HW111897   2.217   0.488   3.214
 3785SOL    HW211898   2.219   0.521   3.054
 3786SOL     OW11899   2.674   1.586   2.549
 3786SOL    HW111900   2.706   1.596   2.455
 3786SOL    HW211901   2.595   1.524   2.551
 3787SOL     OW11902   3.286   0.214   2.974
 3787SOL    HW111903   3.338   0.149   3.029
 3787SOL    HW211904   3.237   0.277   3.035
 3788SOL     OW11905   2.863   0.034   3.016
 3788SOL    HW111906   2.800  -0.038   2.985
 3788SOL    HW211907   2.956  -0.002   3.016
 3789SOL     OW11908   2.632   1.330   2.163
 3789SOL    HW111909   2.586   1.243   2.180
 3789SOL    HW211910   2.723   1.327   2.204
 3790SOL     OW11911   2.480   1.567   3.146
 3790SOL    HW111912   2.475   1.649   3.203
 3790SOL    HW211913   2.569   1.564   3.101
 3791SOL     OW11914   3.214   0.052   2.030
 3791SOL    HW111915   3.249   0.011   1.946
 3791SOL    HW211916   3.124   0.014   2.050
 3792SOL     OW11917   3.162   0.453   2.553
 3792SOL    HW111918   3.103   0.533   2.557
 3792SOL    HW211919   3.177   0.418   2.646
 3793SOL     OW11920   3.455   0.221   2.744
 3793SOL    HW111921   3.371   0.220   2.798
 3793SOL    HW211922   3.457   0.304   2.688
 3794SOL     OW11923   1.901   1.077   2.162
 3794SOL    HW111924   2.000   1.066   2.153
 3794SOL    HW211925   1.861   0.991   2.194
 3795SOL     OW11926   2.737   1.646   2.199
 3795SOL    HW111927   2.660   1.611   2.145
 3795SOL    HW211928   2.705   1.717   2.261
 3796SOL     OW11929   2.092   0.628   3.837
 3796SOL    HW111930   1.999   0.626   3.874
 3796SOL    HW211931   2.093   0.589   3.745
 3797SOL     OW11932   2.087   0.275   4.720
 3797SOL    HW111933   2.122   0.258   4.812
 3797SOL    HW211934   1.999   0.230   4.708
 3798SOL     OW11935   1.881   0.368   4.371
 3798SOL    HW111936   1.799   0.411   4.410
 3798SOL    HW211937   1.853   0.295   4.308
 3799SOL     OW11938   2.431   1.275   4.889
 3799SOL    HW111939   2.338   1.268   4.852
 3799SOL    HW211940   2.442   1.364   4.933
 3800SOL     OW11941   3.417   1.511   4.427
 3800SOL    HW111942   3.360   1.495   4.508
 3800SOL    HW211943   3.358   1.521   4.347
 3801SOL     OW11944   2.997   0.703   4.441
 3801SOL    HW111945   3.054   0.781   4.416
 3801SOL    HW211946   2.937   0.729   4.517
 3802SOL     OW11947   3.617   0.607   3.955
 3802SOL    HW111948   3.605   0.594   3.856
 3802SOL    HW211949   3.587   0.526   4.004
 3803SOL     OW11950   2.630   1.144   4.747
 3803SOL    HW111951   2.552   1.161   4.807
 3803SOL    HW211952   2.664   1.231   4.711
 3804SOL     OW11953   2.712   0.798   5.547
 3804SOL    HW111954   2.708   0.874   5.612
 3804SOL    HW211955   2.734   0.834   5.456
 3805SOL     OW11956   2.547   1.012   4.389
 3805SOL    HW111957   2.616   0.996   4.459
 3805SOL    HW211958   2.474   1.069   4.427
 3806SOL     OW11959   2.548   1.161   5.527
 3806SOL    HW111960   2.608   1.240   5.541
 3806SOL    HW211961   2.462   1.192   5.486
 3807SOL     OW11962   2.197   1.435   4.785
 3807SOL    HW111963   2.119   1.404   4.732
 3807SOL    HW211964   2.255   1.493   4.728
 3808SOL     OW11965   3.322   1.505   5.063
 3808SOL    HW111966   3.346   1.599   5.089
 3808SOL    HW211967   3.306   1.451   5.145
 3809SOL     OW11968   2.300   0.392   5.223
 3809SOL    HW111969   2.382   0.336   5.232
 3809SOL    HW211970   2.219   0.334   5.227
 3810SOL     OW11971   3.465   0.447   4.461
 3810SOL    HW111972   3.391   0.493   4.411
 3810SOL    HW211973   3.516   0.515   4.514
 3811SOL     OW11974   2.093   1.713   4.207
 3811SOL    HW111975   2.127   1.790   4.261
 3811SOL    HW211976   2.137   1.713   4.117
 3812SOL     OW11977   2.989   1.341   5.414
 3812SOL    HW111978   3.036   1.341   5.502
 3812SOL    HW211979   2.941   1.254   5.403
 3813SOL     OW11980   2.092   1.434   4.262
 3813SOL    HW111981   2.066   1.530   4.262
 3813SOL    HW211982   2.021   1.380   4.307
 3814SOL     OW11983   2.102   1.091   4.610
 3814SOL    HW111984   2.116   1.007   4.662
 3814SOL    HW211985   2.047   1.155   4.665
 3815SOL     OW11986   2.482   1.786   5.163
 3815SOL    HW111987   2.390   1.769   5.198
 3815SOL    HW211988   2.510   1.878   5.189
 3816SOL     OW11989   2.468   0.964   3.847
 3816SOL    HW111990   2.475   1.048   3.793
 3816SOL    HW211991   2.514   0.977   3.935
 3817SOL     OW11992   3.456   0.114   5.204
 3817SOL    HW111993   3.438   0.181   5.132
 3817SOL    HW211994   3.453   0.160   5.293
 3818SOL     OW11995   1.984   0.643   4.287
 3818SOL    HW111996   1.939   0.555   4.304
 3818SOL    HW211997   1.983   0.697   4.371
 3819SOL     OW11998   3.704   1.767   4.083
 3819SOL    HW111999   3.758   1.738   4.163
 3819SOL    HW212000   3.734   1.857   4.054
 3820SOL     OW12001   1.889   1.596   3.841
 3820SOL    HW112002   1.870   1.500   3.862
 3820SOL    HW212003   1.856   1.654   3.916
 3821SOL     OW12004   3.551   0.922   4.336
 3821SOL    HW112005   3.646   0.893   4.344
 3821SOL    HW212006   3.543   0.987   4.261
 3822SOL     OW12007   3.503   1.108   4.156
 3822SOL    HW112008   3.589   1.110   4.104
 3822SOL    HW212009   3.517   1.155   4.244
 3823SOL     OW12010   1.975   0.737   5.321
 3823SOL    HW112011   2.063   0.724   5.366
 3823SOL    HW212012   1.962   0.834   5.299
 3824SOL     OW12013   2.475   1.365   4.450
 3824SOL    HW112014   2.426   1.278   4.459
 3824SOL    HW212015   2.452   1.408   4.363
 3825SOL     OW12016   3.155   1.228   5.147
 3825SOL    HW112017   3.192   1.155   5.089
 3825SOL    HW212018   3.207   1.233   5.232
 3826SOL     OW12019   2.671   0.004   4.226
 3826SOL    HW112020   2.711   0.095   4.217
 3826SOL    HW212021   2.571   0.012   4.232
 3827SOL     OW12022   2.059   0.976   4.988
 3827SOL    HW112023   2.148   0.931   4.974
 3827SOL    HW212024   1.986   0.911   4.969
 3828SOL     OW12025   3.387   0.999   3.914
 3828SOL    HW112026   3.324   0.923   3.927
 3828SOL    HW212027   3.435   1.017   4.000
 3829SOL     OW12028   3.049   1.792   5.340
 3829SOL    HW112029   3.073   1.852   5.264
 3829SOL    HW212030   3.056   1.697   5.310
 3830SOL     OW12031   2.179   0.251   5.525
 3830SOL    HW112032   2.250   0.322   5.531
 3830SOL    HW212033   2.091   0.290   5.553
 3831SOL     OW12034   3.328   1.417   4.677
 3831SOL    HW112035   3.269   1.423   4.757
 3831SOL    HW212036   3.313   1.329   4.631
 3832SOL     OW12037   3.529   1.714   4.296
 3832SOL    HW112038   3.488   1.691   4.208
 3832SOL    HW212039   3.511   1.640   4.361
 3833SOL     OW12040   2.460   0.729   3.994
 3833SOL    HW112041   2.484   0.798   3.926
 3833SOL    HW212042   2.382   0.762   4.048
 3834SOL     OW12043   3.143   0.345   4.668
 3834SOL    HW112044   3.057   0.295   4.655
 3834SOL    HW212045   3.205   0.291   4.724
 3835SOL     OW12046   3.438   1.662   4.031
 3835SOL    HW112047   3.527   1.708   4.034
 3835SOL    HW212048   3.417   1.638   3.936
 3836SOL     OW12049   2.669   0.605   5.189
 3836SOL    HW112050   2.622   0.602   5.278
 3836SOL    HW212051   2.618   0.550   5.123
 3837SOL     OW12052   3.256   0.469   5.398
 3837SOL    HW112053   3.236   0.512   5.486
 3837SOL    HW212054   3.334   0.407   5.407
 3838SOL     OW12055   2.835   0.890   5.296
 3838SOL    HW112056   2.881   0.806   5.267
 3838SOL    HW212057   2.779   0.924   5.221
 3839SOL     OW12058   2.853   0.410   4.966
 3839SOL    HW112059   2.776   0.444   5.020
 3839SOL    HW212060   2.819   0.359   4.887
 3840SOL     OW12061   2.903   0.701   4.153
 3840SOL    HW112062   2.929   0.697   4.249
 3840SOL    HW212063   2.818   0.650   4.139
 3841SOL     OW12064   1.938   0.811   4.513
 3841SOL    HW112065   2.037   0.799   4.522
 3841SOL    HW212066   1.914   0.906   4.534
 3842SOL     OW12067   2.727   0.348   3.919
 3842SOL    HW112068   2.786   0.411   3.870
 3842SOL    HW212069   2.746   0.254   3.890
 3843SOL     OW12070   3.581   0.585   5.555
 3843SOL    HW112071   3.555   0.674   5.519
 3843SOL    HW212072   3.579   0.517   5.482
 3844SOL     OW12073   3.224   1.144   4.269
 3844SOL    HW112074   3.307   1.115   4.221
 3844SOL    HW212075   3.175   1.211   4.213
 3845SOL     OW12076   2.412   0.196   4.609
 3845SOL    HW112077   2.407   0.191   4.709
 3845SOL    HW212078   2.414   0.292   4.580
 3846SOL     OW12079   2.870   1.456   4.201
 3846SOL    HW112080   2.824   1.528   4.149
 3846SOL    HW212081   2.866   1.476   4.299
 3847SOL     OW12082   2.213   1.801   4.577
 3847SOL    HW112083   2.263   1.715   4.583
 3847SOL    HW212084   2.278   1.878   4.574
 3848SOL     OW12085   3.657   1.066   4.597
 3848SOL    HW112086   3.595   1.051   4.521
 3848SOL    HW212087   3.605   1.077   4.682
 3849SOL     OW12088   3.089   1.550   5.230
 3849SOL    HW112089   3.095   1.473   5.294
 3849SOL    HW212090   3.037   1.524   5.150
 3850SOL     OW12091   2.183   0.943   3.966
 3850SOL    HW112092   2.265   0.982   3.924
 3850SOL    HW212093   2.156   0.861   3.917
 3851SOL     OW12094   3.320   0.735   4.452
 3851SOL    HW112095   3.315   0.670   4.527
 3851SOL    HW212096   3.400   0.794   4.465
 3852SOL     OW12097   2.323   1.266   5.451
 3852SOL    HW112098   2.273   1.267   5.365
 3852SOL    HW212099   2.260   1.248   5.527
 3853SOL     OW12100   2.973   1.776   3.961
 3853SOL    HW112101   2.913   1.714   4.011
 3853SOL    HW212102   3.004   1.732   3.876
 3854SOL     OW12103   2.064   0.285   5.222
 3854SOL    HW112104   1.984   0.345   5.209
 3854SOL    HW212105   2.054   0.236   5.308
 3855SOL     OW12106   3.494   1.377   3.805
 3855SOL    HW112107   3.462   1.471   3.795
 3855SOL    HW212108   3.418   1.314   3.793
 3856SOL     OW12109   2.326   1.743   4.047
 3856SOL    HW112110   2.359   1.782   4.133
 3856SOL    HW212111   2.402   1.736   3.982
 3857SOL     OW12112   3.262   0.107   4.150
 3857SOL    HW112113   3.238   0.070   4.060
 3857SOL    HW212114   3.361   0.123   4.154
 3858SOL     OW12115   2.111   1.785   4.965
 3858SOL    HW112116   2.168   1.720   5.015
 3858SOL    HW212117   2.095   1.752   4.872
 3859SOL     OW12118   2.802   1.698   4.628
 3859SOL    HW112119   2.882   1.641   4.649
 3859SOL    HW212120   2.753   1.658   4.551
 3860SOL     OW12121   2.244   0.700   4.204
 3860SOL    HW112122   2.289   0.610   4.201
 3860SOL    HW212123   2.150   0.689   4.237
 3861SOL     OW12124   3.409   0.222   5.453
 3861SOL    HW112125   3.404   0.259   5.545
 3861SOL    HW212126   3.337   0.153   5.441
 3862SOL     OW12127   2.476   0.122   3.841
 3862SOL    HW112128   2.574   0.100   3.848
 3862SOL    HW212129   2.445   0.105   3.748
 3863SOL     OW12130   2.643   0.264   5.473
 3863SOL    HW112131   2.710   0.203   5.516
 3863SOL    HW212132   2.570   0.283   5.538
 3864SOL     OW12133   2.750   1.514   4.919
 3864SOL    HW112134   2.727   1.489   4.825
 3864SOL    HW212135   2.811   1.445   4.958
 3865SOL     OW12136   3.213   0.590   5.157
 3865SOL    HW112137   3.241   0.547   5.242
 3865SOL    HW212138   3.238   0.686   5.158
 3866SOL     OW12139   2.665   1.402   4.648
 3866SOL    HW112140   2.755   1.416   4.606
 3866SOL    HW212141   2.594   1.404   4.577
 3867SOL     OW12142   2.784   0.503   4.623
 3867SOL    HW112143   2.759   0.494   4.527
 3867SOL    HW212144   2.832   0.421   4.654
 3868SOL     OW12145   2.401   0.064   4.236
 3868SOL    HW112146   2.320   0.065   4.294
 3868SOL    HW212147   2.404   0.147   4.181
 3869SOL     OW12148   3.296   1.188   3.765
 3869SOL    HW112149   3.328   1.112   3.822
 3869SOL    HW212150   3.204   1.215   3.795
 3870SOL     OW12151   2.159   0.035   3.895
 3870SOL    HW112152   2.208   0.119   3.874
 3870SOL    HW212153   2.221  -0.030   3.940
 3871SOL     OW12154   2.797   0.236   4.204
 3871SOL    HW112155   2.749   0.277   4.126
 3871SOL    HW212156   2.896   0.234   4.185
 3872SOL     OW12157   2.938   0.683   5.188
 3872SOL    HW112158   2.858   0.622   5.191
 3872SOL    HW212159   3.019   0.630   5.164
 3873SOL     OW12160   3.089   1.570   4.517
 3873SOL    HW112161   3.110   1.644   4.452
 3873SOL    HW212162   3.157   1.570   4.590
 3874SOL     OW12163   2.321   1.152   4.465
 3874SOL    HW112164   2.250   1.125   4.530
 3874SOL    HW212165   2.295   1.124   4.372
 3875SOL     OW12166   3.133   1.797   4.315
 3875SOL    HW112167   3.177   1.861   4.251
 3875SOL    HW212168   3.083   1.849   4.385
 3876SOL     OW12169   2.894   0.549   3.740
 3876SOL    HW112170   2.853   0.631   3.701
 3876SOL    HW212171   2.958   0.575   3.813
 3877SOL     OW12172   1.940   0.556   5.110
 3877SOL    HW112173   2.032   0.555   5.069
 3877SOL    HW212174   1.934   0.630   5.177
 3878SOL     OW12175   2.423   0.222   4.871
 3878SOL    HW112176   2.461   0.138   4.908
 3878SOL    HW212177   2.335   0.241   4.915
 3879SOL     OW12178   2.728   0.454   4.366
 3879SOL    HW112179   2.696   0.526   4.304
 3879SOL    HW212180   2.752   0.373   4.313
 3880SOL     OW12181   2.879   0.039   4.477
 3880SOL    HW112182   2.807   0.044   4.408
 3880SOL    HW212183   2.855  -0.030   4.546
 3881SOL     OW12184   3.291   1.173   4.591
 3881SOL    HW112185   3.236   1.089   4.584
 3881SOL    HW212186   3.317   1.202   4.499
 3882SOL     OW12187   3.328   0.590   4.716
 3882SOL    HW112188   3.298   0.495   4.723
 3882SOL    HW212189   3.401   0.606   4.782
 3883SOL     OW12190   3.719   0.833   4.101
 3883SOL    HW112191   3.761   0.769   4.165
 3883SOL    HW212192   3.681   0.782   4.023
 3884SOL     OW12193   2.350   1.385   3.898
 3884SOL    HW112194   2.263   1.370   3.945
 3884SOL    HW212195   2.333   1.411   3.803
 3885SOL     OW12196   3.526   1.280   4.381
 3885SOL    HW112197   3.625   1.288   4.395
 3885SOL    HW212198   3.481   1.364   4.412
 3886SOL     OW12199   3.252   0.575   3.802
 3886SOL    HW112200   3.198   0.554   3.883
 3886SOL    HW212201   3.343   0.534   3.811
 3887SOL     OW12202   2.389   0.256   4.052
 3887SOL    HW112203   2.416   0.197   3.977
 3887SOL    HW212204   2.389   0.351   4.021
 3888SOL     OW12205   3.616   1.223   5.312
 3888SOL    HW112206   3.707   1.184   5.299
 3888SOL    HW212207   3.624   1.319   5.336
 3889SOL     OW12208   2.926   1.347   5.064
 3889SOL    HW112209   2.846   1.324   5.119
 3889SOL    HW212210   3.009   1.321   5.113
 3890SOL     OW12211   3.454   1.629   5.349
 3890SOL    HW112212   3.481   1.663   5.259
 3890SOL    HW212213   3.533   1.591   5.395
 3891SOL     OW12214   2.973   1.195   4.824
 3891SOL    HW112215   2.933   1.239   4.905
 3891SOL    HW212216   2.932   1.232   4.741
 3892SOL     OW12217   3.500   1.099   4.803
 3892SOL    HW112218   3.505   1.180   4.862
 3892SOL    HW212219   3.414   1.101   4.752
 3893SOL     OW12220   2.777   0.089   5.126
 3893SOL    HW112221   2.802   0.069   5.031
 3893SOL    HW212222   2.849   0.145   5.168
 3894SOL     OW12223   2.842   1.116   5.443
 3894SOL    HW112224   2.743   1.122   5.453
 3894SOL    HW212225   2.865   1.036   5.387
 3895SOL     OW12226   2.567   1.050   4.092
 3895SOL    HW112227   2.553   1.057   4.191
 3895SOL    HW212228   2.651   0.999   4.074
 3896SOL     OW12229   2.272   0.813   4.975
 3896SOL    HW112230   2.358   0.825   5.025
 3896SOL    HW212231   2.230   0.726   5.002
 3897SOL     OW12232   3.136   0.386   4.986
 3897SOL    HW112233   3.157   0.460   5.050
 3897SOL    HW212234   3.047   0.403   4.943
 3898SOL     OW12235   1.926   1.564   5.055
 3898SOL    HW112236   1.880   1.646   5.021
 3898SOL    HW212237   2.024   1.583   5.064
 3899SOL     OW12238   2.229   1.100   4.225
 3899SOL    HW112239   2.222   1.183   4.169
 3899SOL    HW212240   2.233   1.020   4.165
 3900SOL     OW12241   2.428   0.537   4.589
 3900SOL    HW112242   2.440   0.603   4.515
 3900SOL    HW212243   2.474   0.571   4.672
 3901SOL     OW12244   3.114   1.348   4.112
 3901SOL    HW112245   3.164   1.425   4.152
 3901SOL    HW212246   3.019   1.350   4.144
 3902SOL     OW12247   3.134   1.445   4.866
 3902SOL    HW112248   3.181   1.458   4.953
 3902SOL    HW212249   3.068   1.371   4.875
 3903SOL     OW12250   3.444   0.639   4.196
 3903SOL    HW112251   3.413   0.700   4.269
 3903SOL    HW212252   3.494   0.691   4.127
 3904SOL     OW12253   2.216   1.510   5.053
 3904SOL    HW112254   2.195   1.466   4.966
 3904SOL    HW212255   2.313   1.536   5.056
 3905SOL     OW12256   2.264   0.751   5.322
 3905SOL    HW112257   2.332   0.806   5.275
 3905SOL    HW212258   2.304   0.663   5.349
 3906SOL     OW12259   3.449   0.779   5.394
 3906SOL    HW112260   3.357   0.817   5.389
 3906SOL    HW212261   3.509   0.826   5.329
 3907SOL     OW12262   2.875   0.105   5.494
 3907SOL    HW112263   2.881   0.190   5.442
 3907SOL    HW212264   2.907   0.029   5.437
 3908SOL     OW12265   2.366   0.050   5.464
 3908SOL    HW112266   2.324  -0.007   5.394
 3908SOL    HW212267   2.300   0.119   5.496
 3909SOL     OW12268   2.435   0.870   4.753
 3909SOL    HW112269   2.479   0.959   4.744
 3909SOL    HW212270   2.372   0.870   4.830
 3910SOL     OW12271   3.222   0.862   4.769
 3910SOL    HW112272   3.147   0.862   4.703
 3910SOL    HW212273   3.259   0.770   4.778
 3911SOL     OW12274   3.071   0.525   3.999
 3911SOL    HW112275   3.084   0.441   4.053
 3911SOL    HW212276   3.042   0.599   4.059
 3912SOL     OW12277   2.169   0.213   4.955
 3912SOL    HW112278   2.146   0.250   5.045
 3912SOL    HW212279   2.139   0.118   4.949
 3913SOL     OW12280   1.899   1.310   5.006
 3913SOL    HW112281   1.952   1.261   5.074
 3913SOL    HW212282   1.921   1.408   5.011
 3914SOL     OW12283   2.594   0.634   4.788
 3914SOL    HW112284   2.653   0.608   4.712
 3914SOL    HW212285   2.566   0.730   4.777
 3915SOL     OW12286   3.590   0.935   5.578
 3915SOL    HW112287   3.544   0.928   5.489
 3915SOL    HW212288   3.528   0.979   5.644
 3916SOL     OW12289   2.169   0.063   4.342
 3916SOL    HW112290   2.158   0.157   4.375
 3916SOL    HW212291   2.164   0.000   4.419
 3917SOL     OW12292   3.484   0.367   4.098
 3917SOL    HW112293   3.486   0.291   4.162
 3917SOL    HW212294   3.436   0.444   4.138
 3918SOL     OW12295   2.885   0.766   4.690
 3918SOL    HW112296   2.900   0.787   4.786
 3918SOL    HW212297   2.855   0.671   4.681
 3919SOL     OW12298   2.842   1.573   5.424
 3919SOL    HW112299   2.822   1.617   5.336
 3919SOL    HW212300   2.881   1.482   5.408
 3920SOL     OW12301   3.721   1.518   5.329
 3920SOL    HW112302   3.735   1.545   5.234
 3920SOL    HW212303   3.804   1.540   5.382
 3921SOL     OW12304   2.212   0.898   5.528
 3921SOL    HW112305   2.288   0.942   5.576
 3921SOL    HW212306   2.247   0.851   5.446
 3922SOL     OW12307   3.402   0.274   3.849
 3922SOL    HW112308   3.341   0.199   3.872
 3922SOL    HW212309   3.424   0.326   3.932
 3923SOL     OW12310   3.165   0.838   3.766
 3923SOL    HW112311   3.199   0.745   3.781
 3923SOL    HW212312   3.183   0.865   3.671
 3924SOL     OW12313   2.930   1.333   4.573
 3924SOL    HW112314   2.937   1.249   4.518
 3924SOL    HW212315   2.992   1.402   4.537
 3925SOL     OW12316   2.181   0.810   4.673
 3925SOL    HW112317   2.274   0.846   4.678
 3925SOL    HW212318   2.175   0.725   4.725
 3926SOL     OW12319   2.201   0.509   4.730
 3926SOL    HW112320   2.149   0.426   4.713
 3926SOL    HW212321   2.278   0.514   4.666
 3927SOL     OW12322   3.000   0.380   5.402
 3927SOL    HW112323   2.955   0.443   5.466
 3927SOL    HW212324   3.093   0.411   5.385
 3928SOL     OW12325   3.022   0.207   5.201
 3928SOL    HW112326   3.022   0.271   5.278
 3928SOL    HW212327   3.050   0.255   5.118
 3929SOL     OW12328   1.870   1.326   3.924
 3929SOL    HW112329   1.777   1.347   3.893
 3929SOL    HW212330   1.880   1.227   3.937
 3930SOL     OW12331   1.950   1.801   4.651
 3930SOL    HW112332   1.908   1.715   4.624
 3930SOL    HW212333   2.044   1.804   4.617
 3931SOL     OW12334   2.366   1.568   4.634
 3931SOL    HW112335   2.432   1.642   4.643
 3931SOL    HW212336   2.410   1.489   4.592
 3932SOL     OW12337   2.864   0.796   4.962
 3932SOL    HW112338   2.905   0.764   5.048
 3932SOL    HW212339   2.768   0.769   4.959
 3933SOL     OW12340   1.902   0.544   4.838
 3933SOL    HW112341   1.987   0.511   4.797
 3933SOL    HW212342   1.915   0.559   4.936
 3934SOL     OW12343   2.051   0.520   5.446
 3934SOL    HW112344   2.110   0.480   5.376
 3934SOL    HW212345   1.993   0.591   5.405
 3935SOL     OW12346   3.231   0.950   5.384
 3935SOL    HW112347   3.270   1.039   5.404
 3935SOL    HW212348   3.241   0.930   5.287
 3936SOL     OW12349   2.677   0.572   4.049
 3936SOL    HW112350   2.684   0.483   4.003
 3936SOL    HW212351   2.583   0.606   4.041
 3937SOL     OW12352   3.519   0.604   4.930
 3937SOL    HW112353   3.481   0.535   4.992
 3937SOL    HW212354   3.601   0.568   4.886
 3938SOL     OW12355   2.114   1.564   5.468
 3938SOL    HW112356   2.084   1.621   5.544
 3938SOL    HW212357   2.107   1.467   5.494
 3939SOL     OW12358   2.533   0.464   4.993
 3939SOL    HW112359   2.499   0.375   4.963
 3939SOL    HW212360   2.559   0.518   4.913
 3940SOL     OW12361   2.792   1.678   5.189
 3940SOL    HW112362   2.768   1.660   5.094
 3940SOL    HW212363   2.822   1.772   5.199
 3941SOL     OW12364   2.335   0.500   3.915
 3941SOL    HW112365   2.396   0.580   3.919
 3941SOL    HW212366   2.240   0.531   3.922
 3942SOL     OW12367   2.021   1.137   5.190
 3942SOL    HW112368   2.043   1.076   5.266
 3942SOL    HW212369   2.031   1.088   5.104
 3943SOL     OW12370   3.209   1.059   4.958
 3943SOL    HW112371   3.233   0.996   4.884
 3943SOL    HW212372   3.119   1.099   4.940
 3944SOL     OW12373   3.164   0.855   4.033
 3944SOL    HW112374   3.078   0.824   4.075
 3944SOL    HW212375   3.160   0.841   3.934
 3945SOL     OW12376   3.621   1.747   4.878
 3945SOL    HW112377   3.682   1.777   4.805
 3945SOL    HW212378   3.583   1.658   4.856
 3946SOL     OW12379   3.114   1.731   4.852
 3946SOL    HW112380   3.198   1.736   4.798
 3946SOL    HW212381   3.091   1.635   4.870
 3947SOL     OW12382   1.945   1.258   4.746
 3947SOL    HW112383   1.940   1.257   4.846
 3947SOL    HW212384   1.862   1.217   4.708
 3948SOL     OW12385   2.550   1.662   5.440
 3948SOL    HW112386   2.494   1.743   5.449
 3948SOL    HW212387   2.602   1.666   5.354
 3949SOL     OW12388   3.588   0.135   4.247
 3949SOL    HW112389   3.661   0.118   4.180
 3949SOL    HW212390   3.557   0.048   4.285
 3950SOL     OW12391   3.250   1.573   4.201
 3950SOL    HW112392   3.317   1.585   4.127
 3950SOL    HW212393   3.210   1.662   4.224
 3951SOL     OW12394   1.992   1.794   5.575
 3951SOL    HW112395   1.951   1.720   5.628
 3951SOL    HW212396   2.056   1.845   5.633
 3952SOL     OW12397   3.142   0.927   4.396
 3952SOL    HW112398   3.202   0.846   4.398
 3952SOL    HW212399   3.182   0.996   4.336
 3953SOL     OW12400   2.692   1.273   5.146
 3953SOL    HW112401   2.687   1.306   5.241
 3953SOL    HW212402   2.606   1.292   5.100
 3954SOL     OW12403   2.534   1.616   3.878
 3954SOL    HW112404   2.543   1.626   3.779
 3954SOL    HW212405   2.494   1.527   3.899
 3955SOL     OW12406   3.512   1.720   5.118
 3955SOL    HW112407   3.565   1.730   5.034
 3955SOL    HW212408   3.485   1.810   5.152
 3956SOL     OW12409   3.703   0.175   4.687
 3956SOL    HW112410   3.742   0.090   4.651
 3956SOL    HW212411   3.605   0.177   4.668
 3957SOL     OW12412   2.125   0.326   4.444
 3957SOL    HW112413   2.046   0.377   4.410
 3957SOL    HW212414   2.116   0.311   4.542
 3958SOL     OW12415   3.056   1.612   3.755
 3958SOL    HW112416   3.062   1.519   3.792
 3958SOL    HW212417   2.997   1.612   3.675
 3959SOL     OW12418   2.684   1.002   5.096
 3959SOL    HW112419   2.724   1.001   5.004
 3959SOL    HW212420   2.694   1.094   5.136
 3960SOL     OW12421   2.778   0.910   4.015
 3960SOL    HW112422   2.841   0.948   3.947
 3960SOL    HW212423   2.818   0.827   4.054
 3961SOL     OW12424   3.366   1.607   3.768
 3961SOL    HW112425   3.274   1.644   3.775
 3961SOL    HW212426   3.404   1.627   3.678
 3962SOL     OW12427   2.234   1.288   5.214
 3962SOL    HW112428   2.221   1.381   5.180
 3962SOL    HW212429   2.150   1.236   5.201
 3963SOL     OW12430   3.476   1.292   5.013
 3963SOL    HW112431   3.536   1.295   5.093
 3963SOL    HW212432   3.401   1.356   5.026
 3964SOL     OW12433   2.901   1.098   4.420
 3964SOL    HW112434   2.831   1.051   4.474
 3964SOL    HW212435   2.960   1.030   4.377
 3965SOL     OW12436   2.876   0.236   4.695
 3965SOL    HW112437   2.868   0.200   4.602
 3965SOL    HW212438   2.874   0.160   4.760
 3966SOL     OW12439   2.452   1.487   4.215
 3966SOL    HW112440   2.494   1.429   4.145
 3966SOL    HW212441   2.408   1.566   4.171
 3967SOL     OW12442   3.571   0.385   5.105
 3967SOL    HW112443   3.644   0.454   5.109
 3967SOL    HW212444   3.599   0.310   5.046
 3968SOL     OW12445   2.117   1.348   4.014
 3968SOL    HW112446   2.021   1.349   3.987
 3968SOL    HW212447   2.129   1.401   4.098
 3969SOL     OW12448   1.967   1.013   5.450
 3969SOL    HW112449   1.890   0.980   5.504
 3969SOL    HW212450   2.052   0.983   5.492
 3970SOL     OW12451   2.534   0.203   5.213
 3970SOL    HW112452   2.624   0.187   5.173
 3970SOL    HW212453   2.542   0.208   5.312
 3971SOL     OW12454   1.937   0.345   3.757
 3971SOL    HW112455   1.845   0.317   3.728
 3971SOL    HW212456   1.968   0.422   3.701
 3972SOL     OW12457   3.302   0.856   5.122
 3972SOL    HW112458   3.245   0.908   5.059
 3972SOL    HW212459   3.398   0.868   5.098
 3973SOL     OW12460   1.934   0.166   4.042
 3973SOL    HW112461   1.917   0.249   3.988
 3973SOL    HW212462   2.024   0.129   4.020
 3974SOL     OW12463   3.045   1.335   3.843
 3974SOL    HW112464   2.946   1.324   3.845
 3974SOL    HW212465   3.079   1.350   3.936
 3975SOL     OW12466   2.475   0.842   5.155
 3975SOL    HW112467   2.531   0.923   5.138
 3975SOL    HW212468   2.534   0.762   5.158
 3976SOL     OW12469   3.355   1.767   4.683
 3976SOL    HW112470   3.388   1.831   4.614
 3976SOL    HW212471   3.421   1.761   4.758
 3977SOL     OW12472   2.578   0.565   5.432
 3977SOL    HW112473   2.597   0.630   5.506
 3977SOL    HW212474   2.638   0.485   5.441
 3978SOL     OW12475   3.312   1.220   5.357
 3978SOL    HW112476   3.303   1.210   5.456
 3978SOL    HW212477   3.408   1.213   5.331
 3979SOL     OW12478   2.252   1.741   5.284
 3979SOL    HW112479   2.161   1.782   5.282
 3979SOL    HW212480   2.245   1.647   5.316
 3980SOL     OW12481   3.536   0.883   4.978
 3980SOL    HW112482   3.509   0.794   4.941
 3980SOL    HW212483   3.537   0.951   4.905
 3981SOL     OW12484   3.087   0.325   4.173
 3981SOL    HW112485   3.152   0.251   4.162
 3981SOL    HW212486   3.107   0.375   4.257
 3982SOL     OW12487   2.456   0.745   4.376
 3982SOL    HW112488   2.506   0.830   4.357
 3982SOL    HW212489   2.368   0.747   4.328
 3983SOL     OW12490   3.639   0.342   5.366
 3983SOL    HW112491   3.622   0.373   5.272
 3983SOL    HW212492   3.555   0.305   5.404
 3984SOL     OW12493   3.592   0.934   5.241
 3984SOL    HW112494   3.630   1.025   5.256
 3984SOL    HW212495   3.584   0.917   5.142
 3985SOL     OW12496   2.721   1.374   3.740
 3985SOL    HW112497   2.675   1.389   3.828
 3985SOL    HW212498   2.765   1.459   3.710
 3986SOL     OW12499   2.523   1.790   4.677
 3986SOL    HW112500   2.477   1.878   4.664
 3986SOL    HW212501   2.622   1.802   4.670
 3987SOL     OW12502   2.721   0.956   4.585
 3987SOL    HW112503   2.775   0.887   4.633
 3987SOL    HW212504   2.689   1.025   4.651
 3988SOL     OW12505   2.945   0.984   3.811
 3988SOL    HW112506   2.922   1.037   3.729
 3988SOL    HW212507   3.026   0.928   3.792
 3989SOL     OW12508   3.723   1.569   4.575
 3989SOL    HW112509   3.652   1.557   4.505
 3989SOL    HW212510   3.724   1.490   4.635
 3990SOL     OW12511   2.083   1.314   5.568
 3990SOL    HW112512   2.018   1.241   5.547
 3990SOL    HW212513   2.087   1.328   5.666
 3991SOL     OW12514   1.941   1.240   4.377
 3991SOL    HW112515   1.940   1.193   4.465
 3991SOL    HW212516   2.023   1.212   4.326
 3992SOL     OW12517   2.534   1.391   5.348
 3992SOL    HW112518   2.456   1.341   5.386
 3992SOL    HW212519   2.531   1.486   5.379
 3993SOL     OW12520   3.686   0.192   4.951
 3993SOL    HW112521   3.682   0.102   4.995
 3993SOL    HW212522   3.689   0.181   4.852
 3994SOL     OW12523   2.290   0.424   4.244
 3994SOL    HW112524   2.320   0.352   4.182
 3994SOL    HW212525   2.251   0.384   4.327
 3995SOL     OW12526   3.567   1.487   4.828
 3995SOL    HW112527   3.474   1.462   4.801
 3995SOL    HW212528   3.593   1.437   4.910
 3996SOL     OW12529   2.179   0.547   5.004
 3996SOL    HW112530   2.217   0.488   5.076
 3996SOL    HW212531   2.219   0.521   4.916
 3997SOL     OW12532   2.674   1.586   4.411
 3997SOL    HW112533   2.706   1.596   4.317
 3997SOL    HW212534   2.595   1.524   4.413
 3998SOL     OW12535   3.286   0.214   4.836
 3998SOL    HW112536   3.338   0.149   4.891
 3998SOL    HW212537   3.237   0.277   4.897
 3999SOL     OW12538   2.863   0.034   4.878
 3999SOL    HW112539   2.800  -0.038   4.847
 3999SOL    HW212540   2.956  -0.002   4.878
 4000SOL     OW12541   2.632   1.330   4.025
 4000SOL    HW112542   2.586   1.243   4.042
 4000SOL    HW212543   2.723   1.327   4.066
 4001SOL     OW12544   2.480   1.567   5.008
 4001SOL    HW112545   2.475   1.649   5.065
 4001SOL    HW212546   2.569   1.564   4.963
 4002SOL     OW12547   3.214   0.052   3.892
 4002SOL    HW112548   3.249   0.011   3.808
 4002SOL    HW212549   3.124   0.014   3.912
 4003SOL     OW12550   3.162   0.453   4.415
 4003SOL    HW112551   3.103   0.533   4.419
 4003SOL    HW212552   3.177   0.418   4.508
 4004SOL     OW12553   3.455   0.221   4.606
 4004SOL    HW112554   3.371   0.220   4.660
 4004SOL    HW212555   3.457   0.304   4.550
 4005SOL     OW12556   1.901   1.077   4.024
 4005SOL    HW112557   2.000   1.066   4.015
 4005SOL    HW212558   1.861   0.991   4.056
 4006SOL     OW12559   2.737   1.646   4.061
 4006SOL    HW112560   2.660   1.611   4.007
 4006SOL    HW212561   2.705   1.717   4.123
 4007SOL     OW12562   2.092   0.628   5.699
 4007SOL    HW112563   1.999   0.626   5.736
 4007SOL    HW212564   2.093   0.589   5.607
 4008SOL     OW12565   2.087   0.275   6.582
 4008SOL    HW112566   2.122   0.258   6.674
 4008SOL    HW212567   1.999   0.230   6.570
 4009SOL     OW12568   1.881   0.368   6.233
 4009SOL    HW112569   1.799   0.411   6.272
 4009SOL    HW212570   1.853   0.295   6.170
 4010SOL     OW12571   2.431   1.275   6.751
 4010SOL    HW112572   2.338   1.268   6.714
 4010SOL    HW212573   2.442   1.364   6.795
 4011SOL     OW12574   3.417   1.511   6.289
 4011SOL    HW112575   3.360   1.495   6.370
 4011SOL    HW212576   3.358   1.521   6.209
 4012SOL     OW12577   2.997   0.703   6.303
 4012SOL    HW112578   3.054   0.781   6.278
 4012SOL    HW212579   2.937   0.729   6.379
 4013SOL     OW12580   3.617   0.607   5.817
 4013SOL    HW112581   3.605   0.594   5.718
 4013SOL    HW212582   3.587   0.526   5.866
 4014SOL     OW12583   2.630   1.144   6.609
 4014SOL    HW112584   2.552   1.161   6.669
 4014SOL    HW212585   2.664   1.231   6.573
 4015SOL     OW12586   2.712   0.798   7.409
 4015SOL    HW112587   2.708   0.874   7.474
 4015SOL    HW212588   2.734   0.834   7.318
 4016SOL     OW12589   2.547   1.012   6.251
 4016SOL    HW112590   2.616   0.996   6.321
 4016SOL    HW212591   2.474   1.069   6.289
 4017SOL     OW12592   2.548   1.161   7.389
 4017SOL    HW112593   2.608   1.240   7.403
 4017SOL    HW212594   2.462   1.192   7.348
 4018SOL     OW12595   3.322   1.505   6.925
 4018SOL    HW112596   3.346   1.599   6.951
 4018SOL    HW212597   3.306   1.451   7.007
 4019SOL     OW12598   2.300   0.392   7.085
 4019SOL    HW112599   2.382   0.336   7.094
 4019SOL    HW212600   2.219   0.334   7.089
 4020SOL     OW12601   3.465   0.447   6.323
 4020SOL    HW112602   3.391   0.493   6.273
 4020SOL    HW212603   3.516   0.515   6.376
 4021SOL     OW12604   2.093   1.713   6.069
 4021SOL    HW112605   2.127   1.790   6.123
 4021SOL    HW212606   2.137   1.713   5.979
 4022SOL     OW12607   2.989   1.341   7.276
 4022SOL    HW112608   3.036   1.341   7.364
 4022SOL    HW212609   2.941   1.254   7.265
 4023SOL     OW12610   2.102   1.091   6.472
 4023SOL    HW112611   2.116   1.007   6.524
 4023SOL    HW212612   2.047   1.155   6.527
 4024SOL     OW12613   2.482   1.786   7.025
 4024SOL    HW112614   2.390   1.769   7.060
 4024SOL    HW212615   2.510   1.878   7.051
 4025SOL     OW12616   2.468   0.964   5.709
 4025SOL    HW112617   2.475   1.048   5.655
 4025SOL    HW212618   2.514   0.977   5.797
 4026SOL     OW12619   3.456   0.114   7.066
 4026SOL    HW112620   3.438   0.181   6.994
 4026SOL    HW212621   3.453   0.160   7.155
 4027SOL     OW12622   1.984   0.643   6.149
 4027SOL    HW112623   1.939   0.555   6.166
 4027SOL    HW212624   1.983   0.697   6.233
 4028SOL     OW12625   3.704   1.767   5.945
 4028SOL    HW112626   3.758   1.738   6.025
 4028SOL    HW212627   3.734   1.857   5.916
 4029SOL     OW12628   1.889   1.596   5.703
 4029SOL    HW112629   1.870   1.500   5.724
 4029SOL    HW212630   1.856   1.654   5.778
 4030SOL     OW12631   3.551   0.922   6.198
 4030SOL    HW112632   3.646   0.893   6.206
 4030SOL    HW212633   3.543   0.987   6.123
 4031SOL     OW12634   3.503   1.108   6.018
 4031SOL    HW112635   3.589   1.110   5.966
 4031SOL    HW212636   3.517   1.155   6.106
 4032SOL     OW12637   1.975   0.737   7.183
 4032SOL    HW112638   2.063   0.724   7.228
 4032SOL    HW212639   1.962   0.834   7.161
 4033SOL     OW12640   3.155   1.228   7.009
 4033SOL    HW112641   3.192   1.155   6.951
 4033SOL    HW212642   3.207   1.233   7.094
 4034SOL     OW12643   2.671   0.004   6.088
 4034SOL    HW112644   2.711   0.095   6.079
 4034SOL    HW212645   2.571   0.012   6.094
 4035SOL     OW12646   2.059   0.976   6.850
 4035SOL    HW112647   2.148   0.931   6.836
 4035SOL    HW212648   1.986   0.911   6.831
 4036SOL     OW12649   3.387   0.999   5.776
 4036SOL    HW112650   3.324   0.923   5.789
 4036SOL    HW212651   3.435   1.017   5.862
 4037SOL     OW12652   3.049   1.792   7.202
 4037SOL    HW112653   3.073   1.852   7.126
 4037SOL    HW212654   3.056   1.697   7.172
 4038SOL     OW12655   2.179   0.251   7.387
 4038SOL    HW112656   2.250   0.322   7.393
 4038SOL    HW212657   2.091   0.290   7.415
 4039SOL     OW12658   3.328   1.417   6.539
 4039SOL    HW112659   3.269   1.423   6.619
 4039SOL    HW212660   3.313   1.329   6.493
 4040SOL     OW12661   3.529   1.714   6.158
 4040SOL    HW112662   3.488   1.691   6.070
 4040SOL    HW212663   3.511   1.640   6.223
 4041SOL     OW12664   2.460   0.729   5.856
 4041SOL    HW112665   2.484   0.798   5.788
 4041SOL    HW212666   2.382   0.762   5.910
 4042SOL     OW12667   3.143   0.345   6.530
 4042SOL    HW112668   3.057   0.295   6.517
 4042SOL    HW212669   3.205   0.291   6.586
 4043SOL     OW12670   3.438   1.662   5.893
 4043SOL    HW112671   3.527   1.708   5.896
 4043SOL    HW212672   3.417   1.638   5.798
 4044SOL     OW12673   2.669   0.605   7.051
 4044SOL    HW112674   2.622   0.602   7.140
 4044SOL    HW212675   2.618   0.550   6.985
 4045SOL     OW12676   3.256   0.469   7.260
 4045SOL    HW112677   3.236   0.512   7.348
 4045SOL    HW212678   3.334   0.407   7.269
 4046SOL     OW12679   2.835   0.890   7.158
 4046SOL    HW112680   2.881   0.806   7.129
 4046SOL    HW212681   2.779   0.924   7.083
 4047SOL     OW12682   2.853   0.410   6.828
 4047SOL    HW112683   2.776   0.444   6.882
 4047SOL    HW212684   2.819   0.359   6.749
 4048SOL     OW12685   2.903   0.701   6.015
 4048SOL    HW112686   2.929   0.697   6.111
 4048SOL    HW212687   2.818   0.650   6.001
 4049SOL     OW12688   1.938   0.811   6.375
 4049SOL    HW112689   2.037   0.799   6.384
 4049SOL    HW212690   1.914   0.906   6.396
 4050SOL     OW12691   2.727   0.348   5.781
 4050SOL    HW112692   2.786   0.411   5.732
 4050SOL    HW212693   2.746   0.254   5.752
 4051SOL     OW12694   3.581   0.585   7.417
 4051SOL    HW112695   3.555   0.674   7.381
 4051SOL    HW212696   3.579   0.517   7.344
 4052SOL     OW12697   3.224   1.144   6.131
 4052SOL    HW112698   3.307   1.115   6.083
 4052SOL    HW212699   3.175   1.211   6.075
 4053SOL     OW12700   2.412   0.196   6.471
 4053SOL    HW112701   2.407   0.191   6.571
 4053SOL    HW212702   2.414   0.292   6.442
 4054SOL     OW12703   2.870   1.456   6.063
 4054SOL    HW112704   2.824   1.528   6.011
 4054SOL    HW212705   2.866   1.476   6.161
 4055SOL     OW12706   2.213   1.801   6.439
 4055SOL    HW112707   2.263   1.715   6.445
 4055SOL    HW212708   2.278   1.878   6.436
 4056SOL     OW12709   3.657   1.066   6.459
 4056SOL    HW112710   3.595   1.051   6.383
 4056SOL    HW212711   3.605   1.077   6.544
 4057SOL     OW12712   3.089   1.550   7.092
 4057SOL    HW112713   3.095   1.473   7.156
 4057SOL    HW212714   3.037   1.524   7.012
 4058SOL     OW12715   2.183   0.943   5.828
 4058SOL    HW112716   2.265   0.982   5.786
 4058SOL    HW212717   2.156   0.861   5.779
 4059SOL     OW12718   3.320   0.735   6.314
 4059SOL    HW112719   3.315   0.670   6.389
 4059SOL    HW212720   3.400   0.794   6.327
 4060SOL     OW12721   2.973   1.776   5.823
 4060SOL    HW112722   2.913   1.714   5.873
 4060SOL    HW212723   3.004   1.732   5.738
 4061SOL     OW12724   2.064   0.285   7.084
 4061SOL    HW112725   1.984   0.345   7.071
 4061SOL    HW212726   2.054   0.236   7.170
 4062SOL     OW12727   3.494   1.377   5.667
 4062SOL    HW112728   3.462   1.471   5.657
 4062SOL    HW212729   3.418   1.314   5.655
 4063SOL     OW12730   2.326   1.743   5.909
 4063SOL    HW112731   2.359   1.782   5.995
 4063SOL    HW212732   2.402   1.736   5.844
 4064SOL     OW12733   3.262   0.107   6.012
 4064SOL    HW112734   3.238   0.070   5.922
 4064SOL    HW212735   3.361   0.123   6.016
 4065SOL     OW12736   2.111   1.785   6.827
 4065SOL    HW112737   2.168   1.720   6.877
 4065SOL    HW212738   2.095   1.752   6.734
 4066SOL     OW12739   2.244   0.700   6.066
 4066SOL    HW112740   2.289   0.610   6.063
 4066SOL    HW212741   2.150   0.689   6.099
 4067SOL     OW12742   3.409   0.222   7.315
 4067SOL    HW112743   3.404   0.259   7.407
 4067SOL    HW212744   3.337   0.153   7.303
 4068SOL     OW12745   2.476   0.122   5.703
 4068SOL    HW112746   2.574   0.100   5.710
 4068SOL    HW212747   2.445   0.105   5.610
 4069SOL     OW12748   2.643   0.264   7.335
 4069SOL    HW112749   2.710   0.203   7.378
 4069SOL    HW212750   2.570   0.283   7.400
 4070SOL     OW12751   3.213   0.590   7.019
 4070SOL    HW112752   3.241   0.547   7.104
 4070SOL    HW212753   3.238   0.686   7.020
 4071SOL     OW12754   2.784   0.503   6.485
 4071SOL    HW112755   2.759   0.494   6.389
 4071SOL    HW212756   2.832   0.421   6.516
 4072SOL     OW12757   2.401   0.064   6.098
 4072SOL    HW112758   2.320   0.065   6.156
 4072SOL    HW212759   2.404   0.147   6.043
 4073SOL     OW12760   3.296   1.188   5.627
 4073SOL    HW112761   3.328   1.112   5.684
 4073SOL    HW212762   3.204   1.215   5.657
 4074SOL     OW12763   2.159   0.035   5.757
 4074SOL    HW112764   2.208   0.119   5.736
 4074SOL    HW212765   2.221  -0.030   5.802
 4075SOL     OW12766   2.797   0.236   6.066
 4075SOL    HW112767   2.749   0.277   5.988
 4075SOL    HW212768   2.896   0.234   6.047
 4076SOL     OW12769   2.938   0.683   7.050
 4076SOL    HW112770   2.858   0.622   7.053
 4076SOL    HW212771   3.019   0.630   7.026
 4077SOL     OW12772   3.089   1.570   6.379
 4077SOL    HW112773   3.110   1.644   6.314
 4077SOL    HW212774   3.157   1.570   6.452
 4078SOL     OW12775   3.133   1.797   6.177
 4078SOL    HW112776   3.177   1.861   6.113
 4078SOL    HW212777   3.083   1.849   6.247
 4079SOL     OW12778   2.894   0.549   5.602
 4079SOL    HW112779   2.853   0.631   5.563
 4079SOL    HW212780   2.958   0.575   5.675
 4080SOL     OW12781   1.940   0.556   6.972
 4080SOL    HW112782   2.032   0.555   6.931
 4080SOL    HW212783   1.934   0.630   7.039
 4081SOL     OW12784   2.423   0.222   6.733
 4081SOL    HW112785   2.461   0.138   6.770
 4081SOL    HW212786   2.335   0.241   6.777
 4082SOL     OW12787   2.728   0.454   6.228
 4082SOL    HW112788   2.696   0.526   6.166
 4082SOL    HW212789   2.752   0.373   6.175
 4083SOL     OW12790   2.879   0.039   6.339
 4083SOL    HW112791   2.807   0.044   6.270
 4083SOL    HW212792   2.855  -0.030   6.408
 4084SOL     OW12793   3.291   1.173   6.453
 4084SOL    HW112794   3.236   1.089   6.446
 4084SOL    HW212795   3.317   1.202   6.361
 4085SOL     OW12796   3.328   0.590   6.578
 4085SOL    HW112797   3.298   0.495   6.585
 4085SOL    HW212798   3.401   0.606   6.644
 4086SOL     OW12799   3.719   0.833   5.963
 4086SOL    HW112800   3.761   0.769   6.027
 4086SOL    HW212801   3.681   0.782   5.885
 4087SOL     OW12802   2.350   1.385   5.760
 4087SOL    HW112803   2.263   1.370   5.807
 4087SOL    HW212804   2.333   1.411   5.665
 4088SOL     OW12805   3.526   1.280   6.243
 4088SOL    HW112806   3.625   1.288   6.257
 4088SOL    HW212807   3.481   1.364   6.274
 4089SOL     OW12808   3.252   0.575   5.664
 4089SOL    HW112809   3.198   0.554   5.745
 4089SOL    HW212810   3.343   0.534   5.673
 4090SOL     OW12811   2.389   0.256   5.914
 4090SOL    HW112812   2.416   0.197   5.839
 4090SOL    HW212813   2.389   0.351   5.883
 4091SOL     OW12814   3.616   1.223   7.174
 4091SOL    HW112815   3.707   1.184   7.161
 4091SOL    HW212816   3.624   1.319   7.198
 4092SOL     OW12817   2.926   1.347   6.926
 4092SOL    HW112818   2.846   1.324   6.981
 4092SOL    HW212819   3.009   1.321   6.975
 4093SOL     OW12820   3.454   1.629   7.211
 4093SOL    HW112821   3.481   1.663   7.121
 4093SOL    HW212822   3.533   1.591   7.257
 4094SOL     OW12823   2.973   1.195   6.686
 4094SOL    HW112824   2.933   1.239   6.767
 4094SOL    HW212825   2.932   1.232   6.603
 4095SOL     OW12826   3.500   1.099   6.665
 4095SOL    HW112827   3.505   1.180   6.724
 4095SOL    HW212828   3.414   1.101   6.614
 4096SOL     OW12829   2.777   0.089   6.988
 4096SOL    HW112830   2.802   0.069   6.893
 4096SOL    HW212831   2.849   0.145   7.030
 4097SOL     OW12832   2.842   1.116   7.305
 4097SOL    HW112833   2.743   1.122   7.315
 4097SOL    HW212834   2.865   1.036   7.249
 4098SOL     OW12835   2.567   1.050   5.954
 4098SOL    HW112836   2.553   1.057   6.053
 4098SOL    HW212837   2.651   0.999   5.936
 4099SOL     OW12838   2.272   0.813   6.837
 4099SOL    HW112839   2.358   0.825   6.887
 4099SOL    HW212840   2.230   0.726   6.864
 4100SOL     OW12841   3.136   0.386   6.848
 4100SOL    HW112842   3.157   0.460   6.912
 4100SOL    HW212843   3.047   0.403   6.805
 4101SOL     OW12844   1.926   1.564   6.917
 4101SOL    HW112845   1.880   1.646   6.883
 4101SOL    HW212846   2.024   1.583   6.926
 4102SOL     OW12847   2.229   1.100   6.087
 4102SOL    HW112848   2.222   1.183   6.031
 4102SOL    HW212849   2.233   1.020   6.027
 4103SOL     OW12850   2.428   0.537   6.451
 4103SOL    HW112851   2.440   0.603   6.377
 4103SOL    HW212852   2.474   0.571   6.534
 4104SOL     OW12853   3.114   1.348   5.974
 4104SOL    HW112854   3.164   1.425   6.014
 4104SOL    HW212855   3.019   1.350   6.006
 4105SOL     OW12856   3.134   1.445   6.728
 4105SOL    HW112857   3.181   1.458   6.815
 4105SOL    HW212858   3.068   1.371   6.737
 4106SOL     OW12859   3.444   0.639   6.058
 4106SOL    HW112860   3.413   0.700   6.131
 4106SOL    HW212861   3.494   0.691   5.989
 4107SOL     OW12862   2.216   1.510   6.915
 4107SOL    HW112863   2.195   1.466   6.828
 4107SOL    HW212864   2.313   1.536   6.918
 4108SOL     OW12865   2.264   0.751   7.184
 4108SOL    HW112866   2.332   0.806   7.137
 4108SOL    HW212867   2.304   0.663   7.211
 4109SOL     OW12868   3.449   0.779   7.256
 4109SOL    HW112869   3.357   0.817   7.251
 4109SOL    HW212870   3.509   0.826   7.191
 4110SOL     OW12871   2.875   0.105   7.356
 4110SOL    HW112872   2.881   0.190   7.304
 4110SOL    HW212873   2.907   0.029   7.299
 4111SOL     OW12874   2.366   0.050   7.326
 4111SOL    HW112875   2.324  -0.007   7.256
 4111SOL    HW212876   2.300   0.119   7.358
 4112SOL     OW12877   2.435   0.870   6.615
 4112SOL    HW112878   2.479   0.959   6.606
 4112SOL    HW212879   2.372   0.870   6.692
 4113SOL     OW12880   3.222   0.862   6.631
 4113SOL    HW112881   3.147   0.862   6.565
 4113SOL    HW212882   3.259   0.770   6.640
 4114SOL     OW12883   3.071   0.525   5.861
 4114SOL    HW112884   3.084   0.441   5.915
 4114SOL    HW212885   3.042   0.599   5.921
 4115SOL     OW12886   2.169   0.213   6.817
 4115SOL    HW112887   2.146   0.250   6.907
 4115SOL    HW212888   2.139   0.118   6.811
 4116SOL     OW12889   2.594   0.634   6.650
 4116SOL    HW112890   2.653   0.608   6.574
 4116SOL    HW212891   2.566   0.730   6.639
 4117SOL     OW12892   3.590   0.935   7.440
 4117SOL    HW112893   3.544   0.928   7.351
 4117SOL    HW212894   3.528   0.979   7.506
 4118SOL     OW12895   2.169   0.063   6.204
 4118SOL    HW112896   2.158   0.157   6.237
 4118SOL    HW212897   2.164   0.000   6.281
 4119SOL     OW12898   3.484   0.367   5.960
 4119SOL    HW112899   3.486   0.291   6.024
 4119SOL    HW212900   3.436   0.444   6.000
 4120SOL     OW12901   2.885   0.766   6.552
 4120SOL    HW112902   2.900   0.787   6.648
 4120SOL    HW212903   2.855   0.671   6.543
 4121SOL     OW12904   3.721   1.518   7.191
 4121SOL    HW112905   3.735   1.545   7.096
 4121SOL    HW212906   3.804   1.540   7.244
 4122SOL     OW12907   2.212   0.898   7.390
 4122SOL    HW112908   2.288   0.942   7.438
 4122SOL    HW212909   2.247   0.851   7.308
 4123SOL     OW12910   3.402   0.274   5.711
 4123SOL    HW112911   3.341   0.199   5.734
 4123SOL    HW212912   3.424   0.326   5.794
 4124SOL     OW12913   3.165   0.838   5.628
 4124SOL    HW112914   3.199   0.745   5.643
 4124SOL    HW212915   3.183   0.865   5.533
 4125SOL     OW12916   2.930   1.333   6.435
 4125SOL    HW112917   2.937   1.249   6.380
 4125SOL    HW212918   2.992   1.402   6.399
 4126SOL     OW12919   2.181   0.810   6.535
 4126SOL    HW112920   2.274   0.846   6.540
 4126SOL    HW212921   2.175   0.725   6.587
 4127SOL     OW12922   2.201   0.509   6.592
 4127SOL    HW112923   2.149   0.426   6.575
 4127SOL    HW212924   2.278   0.514   6.528
 4128SOL     OW12925   3.000   0.380   7.264
 4128SOL    HW112926   2.955   0.443   7.328
 4128SOL    HW212927   3.093   0.411   7.247
 4129SOL     OW12928   3.022   0.207   7.063
 4129SOL    HW112929   3.022   0.271   7.140
 4129SOL    HW212930   3.050   0.255   6.980
 4130SOL     OW12931   1.870   1.326   5.786
 4130SOL    HW112932   1.777   1.347   5.755
 4130SOL    HW212933   1.880   1.227   5.799
 4131SOL     OW12934   1.950   1.801   6.513
 4131SOL    HW112935   1.908   1.715   6.486
 4131SOL    HW212936   2.044   1.804   6.479
 4132SOL     OW12937   2.864   0.796   6.824
 4132SOL    HW112938   2.905   0.764   6.910
 4132SOL    HW212939   2.768   0.769   6.821
 4133SOL     OW12940   1.902   0.544   6.700
 4133SOL    HW112941   1.987   0.511   6.659
 4133SOL    HW212942   1.915   0.559   6.798
 4134SOL     OW12943   2.051   0.520   7.308
 4134SOL    HW112944   2.110   0.480   7.238
 4134SOL    HW212945   1.993   0.591   7.267
 4135SOL     OW12946   3.231   0.950   7.246
 4135SOL    HW112947   3.270   1.039   7.266
 4135SOL    HW212948   3.241   0.930   7.149
 4136SOL     OW12949   2.677   0.572   5.911
 4136SOL    HW112950   2.684   0.483   5.865
 4136SOL    HW212951   2.583   0.606   5.903
 4137SOL     OW12952   3.519   0.604   6.792
 4137SOL    HW112953   3.481   0.535   6.854
 4137SOL    HW212954   3.601   0.568   6.748
 4138SOL     OW12955   2.533   0.464   6.855
 4138SOL    HW112956   2.499   0.375   6.825
 4138SOL    HW212957   2.559   0.518   6.775
 4139SOL     OW12958   2.792   1.678   7.051
 4139SOL    HW112959   2.768   1.660   6.956
 4139SOL    HW212960   2.822   1.772   7.061
 4140SOL     OW12961   2.335   0.500   5.777
 4140SOL    HW112962   2.396   0.580   5.781
 4140SOL    HW212963   2.240   0.531   5.784
 4141SOL     OW12964   2.021   1.137   7.052
 4141SOL    HW112965   2.043   1.076   7.128
 4141SOL    HW212966   2.031   1.088   6.966
 4142SOL     OW12967   3.209   1.059   6.820
 4142SOL    HW112968   3.233   0.996   6.746
 4142SOL    HW212969   3.119   1.099   6.802
 4143SOL     OW12970   3.164   0.855   5.895
 4143SOL    HW112971   3.078   0.824   5.937
 4143SOL    HW212972   3.160   0.841   5.796
 4144SOL     OW12973   3.621   1.747   6.740
 4144SOL    HW112974   3.682   1.777   6.667
 4144SOL    HW212975   3.583   1.658   6.718
 4145SOL     OW12976   3.114   1.731   6.714
 4145SOL    HW112977   3.198   1.736   6.660
 4145SOL    HW212978   3.091   1.635   6.732
 4146SOL     OW12979   3.588   0.135   6.109
 4146SOL    HW112980   3.661   0.118   6.042
 4146SOL    HW212981   3.557   0.048   6.147
 4147SOL     OW12982   3.250   1.573   6.063
 4147SOL    HW112983   3.317   1.585   5.989
 4147SOL    HW212984   3.210   1.662   6.086
 4148SOL     OW12985   1.992   1.794   7.437
 4148SOL    HW112986   1.951   1.720   7.490
 4148SOL    HW212987   2.056   1.845   7.495
 4149SOL     OW12988   3.142   0.927   6.258
 4149SOL    HW112989   3.202   0.846   6.260
 4149SOL    HW212990   3.182   0.996   6.198
 4150SOL     OW12991   2.692   1.273   7.008
 4150SOL    HW112992   2.687   1.306   7.103
 4150SOL    HW212993   2.606   1.292   6.962
 4151SOL     OW12994   2.534   1.616   5.740
 4151SOL    HW112995   2.543   1.626   5.641
 4151SOL    HW212996   2.494   1.527   5.761
 4152SOL     OW12997   3.512   1.720   6.980
 4152SOL    HW112998   3.565   1.730   6.896
 4152SOL    HW212999   3.485   1.810   7.014
 4153SOL     OW13000   3.703   0.175   6.549
 4153SOL    HW113001   3.742   0.090   6.513
 4153SOL    HW213002   3.605   0.177   6.530
 4154SOL     OW13003   2.125   0.326   6.306
 4154SOL    HW113004   2.046   0.377   6.272
 4154SOL    HW213005   2.116   0.311   6.404
 4155SOL     OW13006   3.056   1.612   5.617
 4155SOL    HW113007   3.062   1.519   5.654
 4155SOL    HW213008   2.997   1.612   5.537
 4156SOL     OW13009   2.684   1.002   6.958
 4156SOL    HW113010   2.724   1.001   6.866
 4156SOL    HW213011   2.694   1.094   6.998
 4157SOL     OW13012   2.778   0.910   5.877
 4157SOL    HW113013   2.841   0.948   5.809
 4157SOL    HW213014   2.818   0.827   5.916
 4158SOL     OW13015   3.366   1.607   5.630
 4158SOL    HW113016   3.274   1.644   5.637
 4158SOL    HW213017   3.404   1.627   5.540
 4159SOL     OW13018   2.234   1.288   7.076
 4159SOL    HW113019   2.221   1.381   7.042
 4159SOL    HW213020   2.150   1.236   7.063
 4160SOL     OW13021   3.476   1.292   6.875
 4160SOL    HW113022   3.536   1.295   6.955
 4160SOL    HW213023   3.401   1.356   6.888
 4161SOL     OW13024   2.901   1.098   6.282
 4161SOL    HW113025   2.831   1.051   6.336
 4161SOL    HW213026   2.960   1.030   6.239
 4162SOL     OW13027   2.876   0.236   6.557
 4162SOL    HW113028   2.868   0.200   6.464
 4162SOL    HW213029   2.874   0.160   6.622
 4163SOL     OW13030   3.571   0.385   6.967
 4163SOL    HW113031   3.644   0.454   6.971
 4163SOL    HW213032   3.599   0.310   6.908
 4164SOL     OW13033   2.117   1.348   5.876
 4164SOL    HW113034   2.021   1.349   5.849
 4164SOL    HW213035   2.129   1.401   5.960
 4165SOL     OW13036   1.967   1.013   7.312
 4165SOL    HW113037   1.890   0.980   7.366
 4165SOL    HW213038   2.052   0.983   7.354
 4166SOL     OW13039   2.534   0.203   7.075
 4166SOL    HW113040   2.624   0.187   7.035
 4166SOL    HW213041   2.542   0.208   7.174
 4167SOL     OW13042   1.937   0.345   5.619
 4167SOL    HW113043   1.845   0.317   5.590
 4167SOL    HW213044   1.968   0.422   5.563
 4168SOL     OW13045   3.302   0.856   6.984
 4168SOL    HW113046   3.245   0.908   6.921
 4168SOL    HW213047   3.398   0.868   6.960
 4169SOL     OW13048   1.934   0.166   5.904
 4169SOL    HW113049   1.917   0.249   5.850
 4169SOL    HW213050   2.024   0.129   5.882
 4170SOL     OW13051   3.045   1.335   5.705
 4170SOL    HW113052   2.946   1.324   5.707
 4170SOL    HW213053   3.079   1.350   5.798
 4171SOL     OW13054   2.475   0.842   7.017
 4171SOL    HW113055   2.531   0.923   7.000
 4171SOL    HW213056   2.534   0.762   7.020
 4172SOL     OW13057   3.355   1.767   6.545
 4172SOL    HW113058   3.388   1.831   6.476
 4172SOL    HW213059   3.421   1.761   6.620
 4173SOL     OW13060   2.578   0.565   7.294
 4173SOL    HW113061   2.597   0.630   7.368
 4173SOL    HW213062   2.638   0.485   7.303
 4174SOL     OW13063   3.312   1.220   7.219
 4174SOL    HW113064   3.303   1.210   7.318
 4174SOL    HW213065   3.408   1.213   7.193
 4175SOL     OW13066   2.252   1.741   7.146
 4175SOL    HW113067   2.161   1.782   7.144
 4175SOL    HW213068   2.245   1.647   7.178
 4176SOL     OW13069   3.536   0.883   6.840
 4176SOL    HW113070   3.509   0.794   6.803
 4176SOL    HW213071   3.537   0.951   6.767
 4177SOL     OW13072   3.087   0.325   6.035
 4177SOL    HW113073   3.152   0.251   6.024
 4177SOL    HW213074   3.107   0.375   6.119
 4178SOL     OW13075   2.456   0.745   6.238
 4178SOL    HW113076   2.506   0.830   6.219
 4178SOL    HW213077   2.368   0.747   6.190
 4179SOL     OW13078   3.639   0.342   7.228
 4179SOL    HW113079   3.622   0.373   7.134
 4179SOL    HW213080   3.555   0.305   7.266
 4180SOL     OW13081   3.592   0.934   7.103
 4180SOL    HW113082   3.630   1.025   7.118
 4180SOL    HW213083   3.584   0.917   7.004
 4181SOL     OW13084   2.721   1.374   5.602
 4181SOL    HW113085   2.675   1.389   5.690
 4181SOL    HW213086   2.765   1.459   5.572
 4182SOL     OW13087   2.721   0.956   6.447
 4182SOL    HW113088   2.775   0.887   6.495
 4182SOL    HW213089   2.689   1.025   6.513
 4183SOL     OW13090   2.945   0.984   5.673
 4183SOL    HW113091   2.922   1.037   5.591
 4183SOL    HW213092   3.026   0.928   5.654
 4184SOL     OW13093   3.723   1.569   6.437
 4184SOL    HW113094   3.652   1.557   6.367
 4184SOL    HW213095   3.724   1.490   6.497
 4185SOL     OW13096   3.686   0.192   6.813
 4185SOL    HW113097   3.682   0.102   6.857
 4185SOL    HW213098   3.689   0.181   6.714
 4186SOL     OW13099   2.290   0.424   6.106
 4186SOL    HW113100   2.320   0.352   6.044
 4186SOL    HW213101   2.251   0.384   6.189
 4187SOL     OW13102   3.567   1.487   6.690
 4187SOL    HW113103   3.474   1.462   6.663
 4187SOL    HW213104   3.593   1.437   6.772
 4188SOL     OW13105   2.179   0.547   6.866
 4188SOL    HW113106   2.217   0.488   6.938
 4188SOL    HW213107   2.219   0.521   6.778
 4189SOL     OW13108   3.286   0.214   6.698
 4189SOL    HW113109   3.338   0.149   6.753
 4189SOL    HW213110   3.237   0.277   6.759
 4190SOL     OW13111   2.863   0.034   6.740
 4190SOL    HW113112   2.800  -0.038   6.709
 4190SOL    HW213113   2.956  -0.002   6.740
 4191SOL     OW13114   2.632   1.330   5.887
 4191SOL    HW113115   2.586   1.243   5.904
 4191SOL    HW213116   2.723   1.327   5.928
 4192SOL     OW13117   3.214   0.052   5.754
 4192SOL    HW113118   3.249   0.011   5.670
 4192SOL    HW213119   3.124   0.014   5.774
 4193SOL     OW13120   3.162   0.453   6.277
 4193SOL    HW113121   3.103   0.533   6.281
 4193SOL    HW213122   3.177   0.418   6.370
 4194SOL     OW13123   3.455   0.221   6.468
 4194SOL    HW113124   3.371   0.220   6.522
 4194SOL    HW213125   3.457   0.304   6.412
 4195SOL     OW13126   1.901   1.077   5.886
 4195SOL    HW113127   2.000   1.066   5.877
 4195SOL    HW213128   1.861   0.991   5.918
 4196SOL     OW13129   2.737   1.646   5.923
 4196SOL    HW113130   2.660   1.611   5.869
 4196SOL    HW213131   2.705   1.717   5.985
 4197SOL     OW13132   2.092   0.628   7.561
 4197SOL    HW113133   1.999   0.626   7.598
 4197SOL    HW213134   2.093   0.589   7.469
 4198SOL     OW13135   2.087   0.275   8.444
 4198SOL    HW113136   2.122   0.258   8.536
 4198SOL    HW213137   1.999   0.230   8.432
 4199SOL     OW13138   1.881   0.368   8.095
 4199SOL    HW113139   1.799   0.411   8.134
 4199SOL    HW213140   1.853   0.295   8.032
 4200SOL     OW13141   2.431   1.275   8.613
 4200SOL    HW113142   2.338   1.268   8.576
 4200SOL    HW213143   2.442   1.364   8.657
 4201SOL     OW13144   3.417   1.511   8.151
 4201SOL    HW113145   3.360   1.495   8.232
 4201SOL    HW213146   3.358   1.521   8.071
 4202SOL     OW13147   2.997   0.703   8.165
 4202SOL    HW113148   3.054   0.781   8.140
 4202SOL    HW213149   2.937   0.729   8.241
 4203SOL     OW13150   3.617   0.607   7.679
 4203SOL    HW113151   3.605   0.594   7.580
 4203SOL    HW213152   3.587   0.526   7.728
 4204SOL     OW13153   2.630   1.144   8.471
 4204SOL    HW113154   2.552   1.161   8.531
 4204SOL    HW213155   2.664   1.231   8.435
 4205SOL     OW13156   2.712   0.798   9.271
 4205SOL    HW113157   2.708   0.874   9.336
 4205SOL    HW213158   2.734   0.834   9.180
 4206SOL     OW13159   2.547   1.012   8.113
 4206SOL    HW113160   2.616   0.996   8.183
 4206SOL    HW213161   2.474   1.069   8.151
 4207SOL     OW13162   2.548   1.161   9.251
 4207SOL    HW113163   2.608   1.240   9.265
 4207SOL    HW213164   2.462   1.192   9.210
 4208SOL     OW13165   2.197   1.435   8.509
 4208SOL    HW113166   2.119   1.404   8.456
 4208SOL    HW213167   2.255   1.493   8.452
 4209SOL     OW13168   3.322   1.505   8.787
 4209SOL    HW113169   3.346   1.599   8.813
 4209SOL    HW213170   3.306   1.451   8.869
 4210SOL     OW13171   2.300   0.392   8.947
 4210SOL    HW113172   2.382   0.336   8.956
 4210SOL    HW213173   2.219   0.334   8.951
 4211SOL     OW13174   3.465   0.447   8.185
 4211SOL    HW113175   3.391   0.493   8.135
 4211SOL    HW213176   3.516   0.515   8.238
 4212SOL     OW13177   2.093   1.713   7.931
 4212SOL    HW113178   2.127   1.790   7.985
 4212SOL    HW213179   2.137   1.713   7.841
 4213SOL     OW13180   2.989   1.341   9.138
 4213SOL    HW113181   3.036   1.341   9.226
 4213SOL    HW213182   2.941   1.254   9.127
 4214SOL     OW13183   2.092   1.434   7.986
 4214SOL    HW113184   2.066   1.530   7.986
 4214SOL    HW213185   2.021   1.380   8.031
 4215SOL     OW13186   2.102   1.091   8.334
 4215SOL    HW113187   2.116   1.007   8.386
 4215SOL    HW213188   2.047   1.155   8.389
 4216SOL     OW13189   2.482   1.786   8.887
 4216SOL    HW113190   2.390   1.769   8.922
 4216SOL    HW213191   2.510   1.878   8.913
 4217SOL     OW13192   2.468   0.964   7.571
 4217SOL    HW113193   2.475   1.048   7.517
 4217SOL    HW213194   2.514   0.977   7.659
 4218SOL     OW13195   3.456   0.114   8.928
 4218SOL    HW113196   3.438   0.181   8.856
 4218SOL    HW213197   3.453   0.160   9.017
 4219SOL     OW13198   1.984   0.643   8.011
 4219SOL    HW113199   1.939   0.555   8.028
 4219SOL    HW213200   1.983   0.697   8.095
 4220SOL     OW13201   3.704   1.767   7.807
 4220SOL    HW113202   3.758   1.738   7.887
 4220SOL    HW213203   3.734   1.857   7.778
 4221SOL     OW13204   3.551   0.922   8.060
 4221SOL    HW113205   3.646   0.893   8.068
 4221SOL    HW213206   3.543   0.987   7.985
 4222SOL     OW13207   3.503   1.108   7.880
 4222SOL    HW113208   3.589   1.110   7.828
 4222SOL    HW213209   3.517   1.155   7.968
 4223SOL     OW13210   1.975   0.737   9.045
 4223SOL    HW113211   2.063   0.724   9.090
 4223SOL    HW213212   1.962   0.834   9.023
 4224SOL     OW13213   2.475   1.365   8.174
 4224SOL    HW113214   2.426   1.278   8.183
 4224SOL    HW213215   2.452   1.408   8.087
 4225SOL     OW13216   3.155   1.228   8.871
 4225SOL    HW113217   3.192   1.155   8.813
 4225SOL    HW213218   3.207   1.233   8.956
 4226SOL     OW13219   2.671   0.004   7.950
 4226SOL    HW113220   2.711   0.095   7.941
 4226SOL    HW213221   2.571   0.012   7.956
 4227SOL     OW13222   2.059   0.976   8.712
 4227SOL    HW113223   2.148   0.931   8.698
 4227SOL    HW213224   1.986   0.911   8.693
 4228SOL     OW13225   3.387   0.999   7.638
 4228SOL    HW113226   3.324   0.923   7.651
 4228SOL    HW213227   3.435   1.017   7.724
 4229SOL     OW13228   3.049   1.792   9.064
 4229SOL    HW113229   3.073   1.852   8.988
 4229SOL    HW213230   3.056   1.697   9.034
 4230SOL     OW13231   2.179   0.251   9.249
 4230SOL    HW113232   2.250   0.322   9.255
 4230SOL    HW213233   2.091   0.290   9.277
 4231SOL     OW13234   3.328   1.417   8.401
 4231SOL    HW113235   3.269   1.423   8.481
 4231SOL    HW213236   3.313   1.329   8.355
 4232SOL     OW13237   3.529   1.714   8.020
 4232SOL    HW113238   3.488   1.691   7.932
 4232SOL    HW213239   3.511   1.640   8.085
 4233SOL     OW13240   2.460   0.729   7.718
 4233SOL    HW113241   2.484   0.798   7.650
 4233SOL    HW213242   2.382   0.762   7.772
 4234SOL     OW13243   3.143   0.345   8.392
 4234SOL    HW113244   3.057   0.295   8.379
 4234SOL    HW213245   3.205   0.291   8.448
 4235SOL     OW13246   3.438   1.662   7.755
 4235SOL    HW113247   3.527   1.708   7.758
 4235SOL    HW213248   3.417   1.638   7.660
 4236SOL     OW13249   2.669   0.605   8.913
 4236SOL    HW113250   2.622   0.602   9.002
 4236SOL    HW213251   2.618   0.550   8.847
 4237SOL     OW13252   3.256   0.469   9.122
 4237SOL    HW113253   3.236   0.512   9.210
 4237SOL    HW213254   3.334   0.407   9.131
 4238SOL     OW13255   2.835   0.890   9.020
 4238SOL    HW113256   2.881   0.806   8.991
 4238SOL    HW213257   2.779   0.924   8.945
 4239SOL     OW13258   2.853   0.410   8.690
 4239SOL    HW113259   2.776   0.444   8.744
 4239SOL    HW213260   2.819   0.359   8.611
 4240SOL     OW13261   2.903   0.701   7.877
 4240SOL    HW113262   2.929   0.697   7.973
 4240SOL    HW213263   2.818   0.650   7.863
 4241SOL     OW13264   1.938   0.811   8.237
 4241SOL    HW113265   2.037   0.799   8.246
 4241SOL    HW213266   1.914   0.906   8.258
 4242SOL     OW13267   2.727   0.348   7.643
 4242SOL    HW113268   2.786   0.411   7.594
 4242SOL    HW213269   2.746   0.254   7.614
 4243SOL     OW13270   3.581   0.585   9.279
 4243SOL    HW113271   3.555   0.674   9.243
 4243SOL    HW213272   3.579   0.517   9.206
 4244SOL     OW13273   3.224   1.144   7.993
 4244SOL    HW113274   3.307   1.115   7.945
 4244SOL    HW213275   3.175   1.211   7.937
 4245SOL     OW13276   2.412   0.196   8.333
 4245SOL    HW113277   2.407   0.191   8.433
 4245SOL    HW213278   2.414   0.292   8.304
 4246SOL     OW13279   2.870   1.456   7.925
 4246SOL    HW113280   2.824   1.528   7.873
 4246SOL    HW213281   2.866   1.476   8.023
 4247SOL     OW13282   2.213   1.801   8.301
 4247SOL    HW113283   2.263   1.715   8.307
 4247SOL    HW213284   2.278   1.878   8.298
 4248SOL     OW13285   3.657   1.066   8.321
 4248SOL    HW113286   3.595   1.051   8.245
 4248SOL    HW213287   3.605   1.077   8.406
 4249SOL     OW13288   3.089   1.550   8.954
 4249SOL    HW113289   3.095   1.473   9.018
 4249SOL    HW213290   3.037   1.524   8.874
 4250SOL     OW13291   2.183   0.943   7.690
 4250SOL    HW113292   2.265   0.982   7.648
 4250SOL    HW213293   2.156   0.861   7.641
 4251SOL     OW13294   3.320   0.735   8.176
 4251SOL    HW113295   3.315   0.670   8.251
 4251SOL    HW213296   3.400   0.794   8.189
 4252SOL     OW13297   2.323   1.266   9.175
 4252SOL    HW113298   2.273   1.267   9.089
 4252SOL    HW213299   2.260   1.248   9.251
 4253SOL     OW13300   2.973   1.776   7.685
 4253SOL    HW113301   2.913   1.714   7.735
 4253SOL    HW213302   3.004   1.732   7.600
 4254SOL     OW13303   2.064   0.285   8.946
 4254SOL    HW113304   1.984   0.345   8.933
 4254SOL    HW213305   2.054   0.236   9.032
 4255SOL     OW13306   3.494   1.377   7.529
 4255SOL    HW113307   3.462   1.471   7.519
 4255SOL    HW213308   3.418   1.314   7.517
 4256SOL     OW13309   3.262   0.107   7.874
 4256SOL    HW113310   3.238   0.070   7.784
 4256SOL    HW213311   3.361   0.123   7.878
 4257SOL     OW13312   2.111   1.785   8.689
 4257SOL    HW113313   2.168   1.720   8.739
 4257SOL    HW213314   2.095   1.752   8.596
 4258SOL     OW13315   2.802   1.698   8.352
 4258SOL    HW113316   2.882   1.641   8.373
 4258SOL    HW213317   2.753   1.658   8.275
 4259SOL     OW13318   2.244   0.700   7.928
 4259SOL    HW113319   2.289   0.610   7.925
 4259SOL    HW213320   2.150   0.689   7.961
 4260SOL     OW13321   3.409   0.222   9.177
 4260SOL    HW113322   3.404   0.259   9.269
 4260SOL    HW213323   3.337   0.153   9.165
 4261SOL     OW13324   2.476   0.122   7.565
 4261SOL    HW113325   2.574   0.100   7.572
 4261SOL    HW213326   2.445   0.105   7.472
 4262SOL     OW13327   2.643   0.264   9.197
 4262SOL    HW113328   2.710   0.203   9.240
 4262SOL    HW213329   2.570   0.283   9.262
 4263SOL     OW13330   2.750   1.514   8.643
 4263SOL    HW113331   2.727   1.489   8.549
 4263SOL    HW213332   2.811   1.445   8.682
 4264SOL     OW13333   3.213   0.590   8.881
 4264SOL    HW113334   3.241   0.547   8.966
 4264SOL    HW213335   3.238   0.686   8.882
 4265SOL     OW13336   2.665   1.402   8.372
 4265SOL    HW113337   2.755   1.416   8.330
 4265SOL    HW213338   2.594   1.404   8.301
 4266SOL     OW13339   2.784   0.503   8.347
 4266SOL    HW113340   2.759   0.494   8.251
 4266SOL    HW213341   2.832   0.421   8.378
 4267SOL     OW13342   2.401   0.064   7.960
 4267SOL    HW113343   2.320   0.065   8.018
 4267SOL    HW213344   2.404   0.147   7.905
 4268SOL     OW13345   3.296   1.188   7.489
 4268SOL    HW113346   3.328   1.112   7.546
 4268SOL    HW213347   3.204   1.215   7.519
 4269SOL     OW13348   2.159   0.035   7.619
 4269SOL    HW113349   2.208   0.119   7.598
 4269SOL    HW213350   2.221  -0.030   7.664
 4270SOL     OW13351   2.797   0.236   7.928
 4270SOL    HW113352   2.749   0.277   7.850
 4270SOL    HW213353   2.896   0.234   7.909
 4271SOL     OW13354   2.938   0.683   8.912
 4271SOL    HW113355   2.858   0.622   8.915
 4271SOL    HW213356   3.019   0.630   8.888
 4272SOL     OW13357   3.089   1.570   8.241
 4272SOL    HW113358   3.110   1.644   8.176
 4272SOL    HW213359   3.157   1.570   8.314
 4273SOL     OW13360   2.321   1.152   8.189
 4273SOL    HW113361   2.250   1.125   8.254
 4273SOL    HW213362   2.295   1.124   8.096
 4274SOL     OW13363   3.133   1.797   8.039
 4274SOL    HW113364   3.177   1.861   7.975
 4274SOL    HW213365   3.083   1.849   8.109
 4275SOL     OW13366   2.894   0.549   7.464
 4275SOL    HW113367   2.853   0.631   7.425
 4275SOL    HW213368   2.958   0.575   7.537
 4276SOL     OW13369   1.940   0.556   8.834
 4276SOL    HW113370   2.032   0.555   8.793
 4276SOL    HW213371   1.934   0.630   8.901
 4277SOL     OW13372   2.423   0.222   8.595
 4277SOL    HW113373   2.461   0.138   8.632
 4277SOL    HW213374   2.335   0.241   8.639
 4278SOL     OW13375   2.728   0.454   8.090
 4278SOL    HW113376   2.696   0.526   8.028
 4278SOL    HW213377   2.752   0.373   8.037
 4279SOL     OW13378   2.879   0.039   8.201
 4279SOL    HW113379   2.807   0.044   8.132
 4279SOL    HW213380   2.855  -0.030   8.270
 4280SOL     OW13381   3.291   1.173   8.315
 4280SOL    HW113382   3.236   1.089   8.308
 4280SOL    HW213383   3.317   1.202   8.223
 4281SOL     OW13384   3.328   0.590   8.440
 4281SOL    HW113385   3.298   0.495   8.447
 4281SOL    HW213386   3.401   0.606   8.506
 4282SOL     OW13387   3.719   0.833   7.825
 4282SOL    HW113388   3.761   0.769   7.889
 4282SOL    HW213389   3.681   0.782   7.747
 4283SOL     OW13390   3.526   1.280   8.105
 4283SOL    HW113391   3.625   1.288   8.119
 4283SOL    HW213392   3.481   1.364   8.136
 4284SOL     OW13393   3.252   0.575   7.526
 4284SOL    HW113394   3.198   0.554   7.607
 4284SOL    HW213395   3.343   0.534   7.535
 4285SOL     OW13396   2.389   0.256   7.776
 4285SOL    HW113397   2.416   0.197   7.701
 4285SOL    HW213398   2.389   0.351   7.745
 4286SOL     OW13399   3.616   1.223   9.036
 4286SOL    HW113400   3.707   1.184   9.023
 4286SOL    HW213401   3.624   1.319   9.060
 4287SOL     OW13402   2.926   1.347   8.788
 4287SOL    HW113403   2.846   1.324   8.843
 4287SOL    HW213404   3.009   1.321   8.837
 4288SOL     OW13405   3.454   1.629   9.073
 4288SOL    HW113406   3.481   1.663   8.983
 4288SOL    HW213407   3.533   1.591   9.119
 4289SOL     OW13408   2.973   1.195   8.548
 4289SOL    HW113409   2.933   1.239   8.629
 4289SOL    HW213410   2.932   1.232   8.465
 4290SOL     OW13411   3.500   1.099   8.527
 4290SOL    HW113412   3.505   1.180   8.586
 4290SOL    HW213413   3.414   1.101   8.476
 4291SOL     OW13414   2.777   0.089   8.850
 4291SOL    HW113415   2.802   0.069   8.755
 4291SOL    HW213416   2.849   0.145   8.892
 4292SOL     OW13417   2.842   1.116   9.167
 4292SOL    HW113418   2.743   1.122   9.177
 4292SOL    HW213419   2.865   1.036   9.111
 4293SOL     OW13420   2.567   1.050   7.816
 4293SOL    HW113421   2.553   1.057   7.915
 4293SOL    HW213422   2.651   0.999   7.798
 4294SOL     OW13423   2.272   0.813   8.699
 4294SOL    HW113424   2.358   0.825   8.749
 4294SOL    HW213425   2.230   0.726   8.726
 4295SOL     OW13426   3.136   0.386   8.710
 4295SOL    HW113427   3.157   0.460   8.774
 4295SOL    HW213428   3.047   0.403   8.667
 4296SOL     OW13429   1.926   1.564   8.779
 4296SOL    HW113430   1.880   1.646   8.745
 4296SOL    HW213431   2.024   1.583   8.788
 4297SOL     OW13432   2.229   1.100   7.949
 4297SOL    HW113433   2.222   1.183   7.893
 4297SOL    HW213434   2.233   1.020   7.889
 4298SOL     OW13435   2.428   0.537   8.313
 4298SOL    HW113436   2.440   0.603   8.239
 4298SOL    HW213437   2.474   0.571   8.396
 4299SOL     OW13438   3.114   1.348   7.836
 4299SOL    HW113439   3.164   1.425   7.876
 4299SOL    HW213440   3.019   1.350   7.868
 4300SOL     OW13441   3.134   1.445   8.590
 4300SOL    HW113442   3.181   1.458   8.677
 4300SOL    HW213443   3.068   1.371   8.599
 4301SOL     OW13444   3.444   0.639   7.920
 4301SOL    HW113445   3.413   0.700   7.993
 4301SOL    HW213446   3.494   0.691   7.851
 4302SOL     OW13447   2.216   1.510   8.777
 4302SOL    HW113448   2.195   1.466   8.690
 4302SOL    HW213449   2.313   1.536   8.780
 4303SOL     OW13450   2.264   0.751   9.046
 4303SOL    HW113451   2.332   0.806   8.999
 4303SOL    HW213452   2.304   0.663   9.073
 4304SOL     OW13453   3.449   0.779   9.118
 4304SOL    HW113454   3.357   0.817   9.113
 4304SOL    HW213455   3.509   0.826   9.053
 4305SOL     OW13456   2.875   0.105   9.218
 4305SOL    HW113457   2.881   0.190   9.166
 4305SOL    HW213458   2.907   0.029   9.161
 4306SOL     OW13459   2.366   0.050   9.188
 4306SOL    HW113460   2.324  -0.007   9.118
 4306SOL    HW213461   2.300   0.119   9.220
 4307SOL     OW13462   2.435   0.870   8.477
 4307SOL    HW113463   2.479   0.959   8.468
 4307SOL    HW213464   2.372   0.870   8.554
 4308SOL     OW13465   3.222   0.862   8.493
 4308SOL    HW113466   3.147   0.862   8.427
 4308SOL    HW213467   3.259   0.770   8.502
 4309SOL     OW13468   3.071   0.525   7.723
 4309SOL    HW113469   3.084   0.441   7.777
 4309SOL    HW213470   3.042   0.599   7.783
 4310SOL     OW13471   2.169   0.213   8.679
 4310SOL    HW113472   2.146   0.250   8.769
 4310SOL    HW213473   2.139   0.118   8.673
 4311SOL     OW13474   1.899   1.310   8.730
 4311SOL    HW113475   1.952   1.261   8.798
 4311SOL    HW213476   1.921   1.408   8.735
 4312SOL     OW13477   2.594   0.634   8.512
 4312SOL    HW113478   2.653   0.608   8.436
 4312SOL    HW213479   2.566   0.730   8.501
 4313SOL     OW13480   3.590   0.935   9.302
 4313SOL    HW113481   3.544   0.928   9.213
 4313SOL    HW213482   3.528   0.979   9.368
 4314SOL     OW13483   2.169   0.063   8.066
 4314SOL    HW113484   2.158   0.157   8.099
 4314SOL    HW213485   2.164   0.000   8.143
 4315SOL     OW13486   3.484   0.367   7.822
 4315SOL    HW113487   3.486   0.291   7.886
 4315SOL    HW213488   3.436   0.444   7.862
 4316SOL     OW13489   2.885   0.766   8.414
 4316SOL    HW113490   2.900   0.787   8.510
 4316SOL    HW213491   2.855   0.671   8.405
 4317SOL     OW13492   2.842   1.573   9.148
 4317SOL    HW113493   2.822   1.617   9.060
 4317SOL    HW213494   2.881   1.482   9.132
 4318SOL     OW13495   3.721   1.518   9.053
 4318SOL    HW113496   3.735   1.545   8.958
 4318SOL    HW213497   3.804   1.540   9.106
 4319SOL     OW13498   2.212   0.898   9.252
 4319SOL    HW113499   2.288   0.942   9.300
 4319SOL    HW213500   2.247   0.851   9.170
 4320SOL     OW13501   3.402   0.274   7.573
 4320SOL    HW113502   3.341   0.199   7.596
 4320SOL    HW213503   3.424   0.326   7.656
 4321SOL     OW13504   3.165   0.838   7.490
 4321SOL    HW113505   3.199   0.745   7.505
 4321SOL    HW213506   3.183   0.865   7.395
 4322SOL     OW13507   2.930   1.333   8.297
 4322SOL    HW113508   2.937   1.249   8.242
 4322SOL    HW213509   2.992   1.402   8.261
 4323SOL     OW13510   2.181   0.810   8.397
 4323SOL    HW113511   2.274   0.846   8.402
 4323SOL    HW213512   2.175   0.725   8.449
 4324SOL     OW13513   2.201   0.509   8.454
 4324SOL    HW113514   2.149   0.426   8.437
 4324SOL    HW213515   2.278   0.514   8.390
 4325SOL     OW13516   3.000   0.380   9.126
 4325SOL    HW113517   2.955   0.443   9.190
 4325SOL    HW213518   3.093   0.411   9.109
 4326SOL     OW13519   3.022   0.207   8.925
 4326SOL    HW113520   3.022   0.271   9.002
 4326SOL    HW213521   3.050   0.255   8.842
 4327SOL     OW13522   1.950   1.801   8.375
 4327SOL    HW113523   1.908   1.715   8.348
 4327SOL    HW213524   2.044   1.804   8.341
 4328SOL     OW13525   2.366   1.568   8.358
 4328SOL    HW113526   2.432   1.642   8.367
 4328SOL    HW213527   2.410   1.489   8.316
 4329SOL     OW13528   2.864   0.796   8.686
 4329SOL    HW113529   2.905   0.764   8.772
 4329SOL    HW213530   2.768   0.769   8.683
 4330SOL     OW13531   1.902   0.544   8.562
 4330SOL    HW113532   1.987   0.511   8.521
 4330SOL    HW213533   1.915   0.559   8.660
 4331SOL     OW13534   2.051   0.520   9.170
 4331SOL    HW113535   2.110   0.480   9.100
 4331SOL    HW213536   1.993   0.591   9.129
 4332SOL     OW13537   3.231   0.950   9.108
 4332SOL    HW113538   3.270   1.039   9.128
 4332SOL    HW213539   3.241   0.930   9.011
 4333SOL     OW13540   2.677   0.572   7.773
 4333SOL    HW113541   2.684   0.483   7.727
 4333SOL    HW213542   2.583   0.606   7.765
 4334SOL     OW13543   3.519   0.604   8.654
 4334SOL    HW113544   3.481   0.535   8.716
 4334SOL    HW213545   3.601   0.568   8.610
 4335SOL     OW13546   2.114   1.564   9.192
 4335SOL    HW113547   2.084   1.621   9.268
 4335SOL    HW213548   2.107   1.467   9.218
 4336SOL     OW13549   2.533   0.464   8.717
 4336SOL    HW113550   2.499   0.375   8.687
 4336SOL    HW213551   2.559   0.518   8.637
 4337SOL     OW13552   2.792   1.678   8.913
 4337SOL    HW113553   2.768   1.660   8.818
 4337SOL    HW213554   2.822   1.772   8.923
 4338SOL     OW13555   2.335   0.500   7.639
 4338SOL    HW113556   2.396   0.580   7.643
 4338SOL    HW213557   2.240   0.531   7.646
 4339SOL     OW13558   2.021   1.137   8.914
 4339SOL    HW113559   2.043   1.076   8.990
 4339SOL    HW213560   2.031   1.088   8.828
 4340SOL     OW13561   3.209   1.059   8.682
 4340SOL    HW113562   3.233   0.996   8.608
 4340SOL    HW213563   3.119   1.099   8.664
 4341SOL     OW13564   3.164   0.855   7.757
 4341SOL    HW113565   3.078   0.824   7.799
 4341SOL    HW213566   3.160   0.841   7.658
 4342SOL     OW13567   3.621   1.747   8.602
 4342SOL    HW113568   3.682   1.777   8.529
 4342SOL    HW213569   3.583   1.658   8.580
 4343SOL     OW13570   3.114   1.731   8.576
 4343SOL    HW113571   3.198   1.736   8.522
 4343SOL    HW213572   3.091   1.635   8.594
 4344SOL     OW13573   1.945   1.258   8.470
 4344SOL    HW113574   1.940   1.257   8.570
 4344SOL    HW213575   1.862   1.217   8.432
 4345SOL     OW13576   2.550   1.662   9.164
 4345SOL    HW113577   2.494   1.743   9.173
 4345SOL    HW213578   2.602   1.666   9.078
 4346SOL     OW13579   3.588   0.135   7.971
 4346SOL    HW113580   3.661   0.118   7.904
 4346SOL    HW213581   3.557   0.048   8.009
 4347SOL     OW13582   3.250   1.573   7.925
 4347SOL    HW113583   3.317   1.585   7.851
 4347SOL    HW213584   3.210   1.662   7.948
 4348SOL     OW13585   1.992   1.794   9.299
 4348SOL    HW113586   1.951   1.720   9.352
 4348SOL    HW213587   2.056   1.845   9.357
 4349SOL     OW13588   3.142   0.927   8.120
 4349SOL    HW113589   3.202   0.846   8.122
 4349SOL    HW213590   3.182   0.996   8.060
 4350SOL     OW13591   2.692   1.273   8.870
 4350SOL    HW113592   2.687   1.306   8.965
 4350SOL    HW213593   2.606   1.292   8.824
 4351SOL     OW13594   3.512   1.720   8.842
 4351SOL    HW113595   3.565   1.730   8.758
 4351SOL    HW213596   3.485   1.810   8.876
 4352SOL     OW13597   3.703   0.175   8.411
 4352SOL    HW113598   3.742   0.090   8.375
 4352SOL    HW213599   3.605   0.177   8.392
 4353SOL     OW13600   2.125   0.326   8.168
 4353SOL    HW113601   2.046   0.377   8.134
 4353SOL    HW213602   2.116   0.311   8.266
 4354SOL     OW13603   3.056   1.612   7.479
 4354SOL    HW113604   3.062   1.519   7.516
 4354SOL    HW213605   2.997   1.612   7.399
 4355SOL     OW13606   2.684   1.002   8.820
 4355SOL    HW113607   2.724   1.001   8.728
 4355SOL    HW213608   2.694   1.094   8.860
 4356SOL     OW13609   2.778   0.910   7.739
 4356SOL    HW113610   2.841   0.948   7.671
 4356SOL    HW213611   2.818   0.827   7.778
 4357SOL     OW13612   3.366   1.607   7.492
 4357SOL    HW113613   3.274   1.644   7.499
 4357SOL    HW213614   3.404   1.627   7.402
 4358SOL     OW13615   2.234   1.288   8.938
 4358SOL    HW113616   2.221   1.381   8.904
 4358SOL    HW213617   2.150   1.236   8.925
 4359SOL     OW13618   3.476   1.292   8.737
 4359SOL    HW113619   3.536   1.295   8.817
 4359SOL    HW213620   3.401   1.356   8.750
 4360SOL     OW13621   2.901   1.098   8.144
 4360SOL    HW113622   2.831   1.051   8.198
 4360SOL    HW213623   2.960   1.030   8.101
 4361SOL     OW13624   2.876   0.236   8.419
 4361SOL    HW113625   2.868   0.200   8.326
 4361SOL    HW213626   2.874   0.160   8.484
 4362SOL     OW13627   3.571   0.385   8.829
 4362SOL    HW113628   3.644   0.454   8.833
 4362SOL    HW213629   3.599   0.310   8.770
 4363SOL     OW13630   1.967   1.013   9.174
 4363SOL    HW113631   1.890   0.980   9.228
 4363SOL    HW213632   2.052   0.983   9.216
 4364SOL     OW13633   2.534   0.203   8.937
 4364SOL    HW113634   2.624   0.187   8.897
 4364SOL    HW213635   2.542   0.208   9.036
 4365SOL     OW13636   1.937   0.345   7.481
 4365SOL    HW113637   1.845   0.317   7.452
 4365SOL    HW213638   1.968   0.422   7.425
 4366SOL     OW13639   3.302   0.856   8.846
 4366SOL    HW113640   3.245   0.908   8.783
 4366SOL    HW213641   3.398   0.868   8.822
 4367SOL     OW13642   1.934   0.166   7.766
 4367SOL    HW113643   1.917   0.249   7.712
 4367SOL    HW213644   2.024   0.129   7.744
 4368SOL     OW13645   3.045   1.335   7.567
 4368SOL    HW113646   2.946   1.324   7.569
 4368SOL    HW213647   3.079   1.350   7.660
 4369SOL     OW13648   2.475   0.842   8.879
 4369SOL    HW113649   2.531   0.923   8.862
 4369SOL    HW213650   2.534   0.762   8.882
 4370SOL     OW13651   3.355   1.767   8.407
 4370SOL    HW113652   3.388   1.831   8.338
 4370SOL    HW213653   3.421   1.761   8.482
 4371SOL     OW13654   2.578   0.565   9.156
 4371SOL    HW113655   2.597   0.630   9.230
 4371SOL    HW213656   2.638   0.485   9.165
 4372SOL     OW13657   3.312   1.220   9.081
 4372SOL    HW113658   3.303   1.210   9.180
 4372SOL    HW213659   3.408   1.213   9.055
 4373SOL     OW13660   2.252   1.741   9.008
 4373SOL    HW113661   2.161   1.782   9.006
 4373SOL    HW213662   2.245   1.647   9.040
 4374SOL     OW13663   3.536   0.883   8.702
 4374SOL    HW113664   3.509   0.794   8.665
 4374SOL    HW213665   3.537   0.951   8.629
 4375SOL     OW13666   3.087   0.325   7.897
 4375SOL    HW113667   3.152   0.251   7.886
 4375SOL    HW213668   3.107   0.375   7.981
 4376SOL     OW13669   2.456   0.745   8.100
 4376SOL    HW113670   2.506   0.830   8.081
 4376SOL    HW213671   2.368   0.747   8.052
 4377SOL     OW13672   3.639   0.342   9.090
 4377SOL    HW113673   3.622   0.373   8.996
 4377SOL    HW213674   3.555   0.305   9.128
 4378SOL     OW13675   3.592   0.934   8.965
 4378SOL    HW113676   3.630   1.025   8.980
 4378SOL    HW213677   3.584   0.917   8.866
 4379SOL     OW13678   2.721   1.374   7.464
 4379SOL    HW113679   2.675   1.389   7.552
 4379SOL    HW213680   2.765   1.459   7.434
 4380SOL     OW13681   2.523   1.790   8.401
 4380SOL    HW113682   2.477   1.878   8.388
 4380SOL    HW213683   2.622   1.802   8.394
 4381SOL     OW13684   2.721   0.956   8.309
 4381SOL    HW113685   2.775   0.887   8.357
 4381SOL    HW213686   2.689   1.025   8.375
 4382SOL     OW13687   2.945   0.984   7.535
 4382SOL    HW113688   2.922   1.037   7.453
 4382SOL    HW213689   3.026   0.928   7.516
 4383SOL     OW13690   3.723   1.569   8.299
 4383SOL    HW113691   3.652   1.557   8.229
 4383SOL    HW213692   3.724   1.490   8.359
 4384SOL     OW13693   2.083   1.314   9.292
 4384SOL    HW113694   2.018   1.241   9.271
 4384SOL    HW213695   2.087   1.328   9.390
 4385SOL     OW13696   1.941   1.240   8.101
 4385SOL    HW113697   1.940   1.193   8.189
 4385SOL    HW213698   2.023   1.212   8.050
 4386SOL     OW13699   2.534   1.391   9.072
 4386SOL    HW113700   2.456   1.341   9.110
 4386SOL    HW213701   2.531   1.486   9.103
 4387SOL     OW13702   3.686   0.192   8.675
 4387SOL    HW113703   3.682   0.102   8.719
 4387SOL    HW213704   3.689   0.181   8.576
 4388SOL     OW13705   2.290   0.424   7.968
 4388SOL    HW113706   2.320   0.352   7.906
 4388SOL    HW213707   2.251   0.384   8.051
 4389SOL     OW13708   3.567   1.487   8.552
 4389SOL    HW113709   3.474   1.462   8.525
 4389SOL    HW213710   3.593   1.437   8.634
 4390SOL     OW13711   2.179   0.547   8.728
 4390SOL    HW113712   2.217   0.488   8.800
 4390SOL    HW213713   2.219   0.521   8.640
 4391SOL     OW13714   2.674   1.586   8.135
 4391SOL    HW113715   2.706   1.596   8.041
 4391SOL    HW213716   2.595   1.524   8.137
 4392SOL     OW13717   3.286   0.214   8.560
 4392SOL    HW113718   3.338   0.149   8.615
 4392SOL    HW213719   3.237   0.277   8.621
 4393SOL     OW13720   2.863   0.034   8.602
 4393SOL    HW113721   2.800  -0.038   8.571
 4393SOL    HW213722   2.956  -0.002   8.602
 4394SOL     OW13723   2.632   1.330   7.749
 4394SOL    HW113724   2.586   1.243   7.766
 4394SOL    HW213725   2.723   1.327   7.790
 4395SOL     OW13726   2.480   1.567   8.732
 4395SOL    HW113727   2.475   1.649   8.789
 4395SOL    HW213728   2.569   1.564   8.687
 4396SOL     OW13729   3.214   0.052   7.616
 4396SOL    HW113730   3.249   0.011   7.532
 4396SOL    HW213731   3.124   0.014   7.636
 4397SOL     OW13732   3.162   0.453   8.139
 4397SOL    HW113733   3.103   0.533   8.143
 4397SOL    HW213734   3.177   0.418   8.232
 4398SOL     OW13735   3.455   0.221   8.330
 4398SOL    HW113736   3.371   0.220   8.384
 4398SOL    HW213737   3.457   0.304   8.274
 4399SOL     OW13738   1.901   1.077   7.748
 4399SOL    HW113739   2.000   1.066   7.739
 4399SOL    HW213740   1.861   0.991   7.780
 4400SOL     OW13741   2.092   0.628   9.423
 4400SOL    HW113742   1.999   0.626   9.460
 4400SOL    HW213743   2.093   0.589   9.331
 4401SOL     OW13744   2.087   0.275  10.306
 4401SOL    HW113745   2.122   0.258  10.398
 4401SOL    HW213746   1.999   0.230  10.294
 4402SOL     OW13747   1.881   0.368   9.957
 4402SOL    HW113748   1.799   0.411   9.996
 4402SOL    HW213749   1.853   0.295   9.894
 4403SOL     OW13750   2.431   1.275  10.475
 4403SOL    HW113751   2.338   1.268  10.438
 4403SOL    HW213752   2.442   1.364  10.519
 4404SOL     OW13753   3.417   1.511  10.013
 4404SOL    HW113754   3.360   1.495  10.094
 4404SOL    HW213755   3.358   1.521   9.933
 4405SOL     OW13756   2.997   0.703  10.027
 4405SOL    HW113757   3.054   0.781  10.002
 4405SOL    HW213758   2.937   0.729  10.103
 4406SOL     OW13759   3.617   0.607   9.541
 4406SOL    HW113760   3.605   0.594   9.442
 4406SOL    HW213761   3.587   0.526   9.590
 4407SOL     OW13762   2.630   1.144  10.333
 4407SOL    HW113763   2.552   1.161  10.393
 4407SOL    HW213764   2.664   1.231  10.297
 4408SOL     OW13765   2.712   0.798  11.133
 4408SOL    HW113766   2.708   0.874  11.198
 4408SOL    HW213767   2.734   0.834  11.042
 4409SOL     OW13768   2.547   1.012   9.975
 4409SOL    HW113769   2.616   0.996  10.045
 4409SOL    HW213770   2.474   1.069  10.013
 4410SOL     OW13771   2.548   1.161  11.113
 4410SOL    HW113772   2.608   1.240  11.127
 4410SOL    HW213773   2.462   1.192  11.072
 4411SOL     OW13774   2.197   1.435  10.371
 4411SOL    HW113775   2.119   1.404  10.318
 4411SOL    HW213776   2.255   1.493  10.314
 4412SOL     OW13777   3.322   1.505  10.649
 4412SOL    HW113778   3.346   1.599  10.675
 4412SOL    HW213779   3.306   1.451  10.731
 4413SOL     OW13780   2.300   0.392  10.809
 4413SOL    HW113781   2.382   0.336  10.818
 4413SOL    HW213782   2.219   0.334  10.813
 4414SOL     OW13783   3.465   0.447  10.047
 4414SOL    HW113784   3.391   0.493   9.997
 4414SOL    HW213785   3.516   0.515  10.100
 4415SOL     OW13786   2.093   1.713   9.793
 4415SOL    HW113787   2.127   1.790   9.847
 4415SOL    HW213788   2.137   1.713   9.703
 4416SOL     OW13789   2.989   1.341  11.000
 4416SOL    HW113790   3.036   1.341  11.088
 4416SOL    HW213791   2.941   1.254  10.989
 4417SOL     OW13792   2.092   1.434   9.848
 4417SOL    HW113793   2.066   1.530   9.848
 4417SOL    HW213794   2.021   1.380   9.893
 4418SOL     OW13795   2.102   1.091  10.196
 4418SOL    HW113796   2.116   1.007  10.248
 4418SOL    HW213797   2.047   1.155  10.251
 4419SOL     OW13798   2.482   1.786  10.749
 4419SOL    HW113799   2.390   1.769  10.784
 4419SOL    HW213800   2.510   1.878  10.775
 4420SOL     OW13801   2.468   0.964   9.433
 4420SOL    HW113802   2.475   1.048   9.379
 4420SOL    HW213803   2.514   0.977   9.521
 4421SOL     OW13804   3.456   0.114  10.790
 4421SOL    HW113805   3.438   0.181  10.718
 4421SOL    HW213806   3.453   0.160  10.879
 4422SOL     OW13807   1.984   0.643   9.873
 4422SOL    HW113808   1.939   0.555   9.890
 4422SOL    HW213809   1.983   0.697   9.957
 4423SOL     OW13810   3.704   1.767   9.669
 4423SOL    HW113811   3.758   1.738   9.749
 4423SOL    HW213812   3.734   1.857   9.640
 4424SOL     OW13813   1.889   1.596   9.427
 4424SOL    HW113814   1.870   1.500   9.448
 4424SOL    HW213815   1.856   1.654   9.502
 4425SOL     OW13816   3.551   0.922   9.922
 4425SOL    HW113817   3.646   0.893   9.930
 4425SOL    HW213818   3.543   0.987   9.847
 4426SOL     OW13819   3.503   1.108   9.742
 4426SOL    HW113820   3.589   1.110   9.690
 4426SOL    HW213821   3.517   1.155   9.830
 4427SOL     OW13822   1.975   0.737  10.907
 4427SOL    HW113823   2.063   0.724  10.952
 4427SOL    HW213824   1.962   0.834  10.885
 4428SOL     OW13825   2.475   1.365  10.036
 4428SOL    HW113826   2.426   1.278  10.045
 4428SOL    HW213827   2.452   1.408   9.949
 4429SOL     OW13828   3.155   1.228  10.733
 4429SOL    HW113829   3.192   1.155  10.675
 4429SOL    HW213830   3.207   1.233  10.818
 4430SOL     OW13831   2.671   0.004   9.812
 4430SOL    HW113832   2.711   0.095   9.803
 4430SOL    HW213833   2.571   0.012   9.818
 4431SOL     OW13834   2.059   0.976  10.574
 4431SOL    HW113835   2.148   0.931  10.560
 4431SOL    HW213836   1.986   0.911  10.555
 4432SOL     OW13837   3.387   0.999   9.500
 4432SOL    HW113838   3.324   0.923   9.513
 4432SOL    HW213839   3.435   1.017   9.586
 4433SOL     OW13840   3.049   1.792  10.926
 4433SOL    HW113841   3.073   1.852  10.850
 4433SOL    HW213842   3.056   1.697  10.896
 4434SOL     OW13843   2.179   0.251  11.111
 4434SOL    HW113844   2.250   0.322  11.117
 4434SOL    HW213845   2.091   0.290  11.139
 4435SOL     OW13846   3.328   1.417  10.263
 4435SOL    HW113847   3.269   1.423  10.343
 4435SOL    HW213848   3.313   1.329  10.217
 4436SOL     OW13849   3.529   1.714   9.882
 4436SOL    HW113850   3.488   1.691   9.794
 4436SOL    HW213851   3.511   1.640   9.947
 4437SOL     OW13852   2.460   0.729   9.580
 4437SOL    HW113853   2.484   0.798   9.512
 4437SOL    HW213854   2.382   0.762   9.634
 4438SOL     OW13855   3.143   0.345  10.254
 4438SOL    HW113856   3.057   0.295  10.241
 4438SOL    HW213857   3.205   0.291  10.310
 4439SOL     OW13858   3.438   1.662   9.617
 4439SOL    HW113859   3.527   1.708   9.620
 4439SOL    HW213860   3.417   1.638   9.522
 4440SOL     OW13861   2.669   0.605  10.775
 4440SOL    HW113862   2.622   0.602  10.864
 4440SOL    HW213863   2.618   0.550  10.709
 4441SOL     OW13864   3.256   0.469  10.984
 4441SOL    HW113865   3.236   0.512  11.072
 4441SOL    HW213866   3.334   0.407  10.993
 4442SOL     OW13867   2.835   0.890  10.882
 4442SOL    HW113868   2.881   0.806  10.853
 4442SOL    HW213869   2.779   0.924  10.807
 4443SOL     OW13870   2.853   0.410  10.552
 4443SOL    HW113871   2.776   0.444  10.606
 4443SOL    HW213872   2.819   0.359  10.473
 4444SOL     OW13873   2.903   0.701   9.739
 4444SOL    HW113874   2.929   0.697   9.835
 4444SOL    HW213875   2.818   0.650   9.725
 4445SOL     OW13876   1.938   0.811  10.099
 4445SOL    HW113877   2.037   0.799  10.108
 4445SOL    HW213878   1.914   0.906  10.120
 4446SOL     OW13879   2.727   0.348   9.505
 4446SOL    HW113880   2.786   0.411   9.456
 4446SOL    HW213881   2.746   0.254   9.476
 4447SOL     OW13882   3.581   0.585  11.141
 4447SOL    HW113883   3.555   0.674  11.105
 4447SOL    HW213884   3.579   0.517  11.068
 4448SOL     OW13885   3.224   1.144   9.855
 4448SOL    HW113886   3.307   1.115   9.807
 4448SOL    HW213887   3.175   1.211   9.799
 4449SOL     OW13888   2.412   0.196  10.195
 4449SOL    HW113889   2.407   0.191  10.295
 4449SOL    HW213890   2.414   0.292  10.166
 4450SOL     OW13891   2.870   1.456   9.787
 4450SOL    HW113892   2.824   1.528   9.735
 4450SOL    HW213893   2.866   1.476   9.885
 4451SOL     OW13894   2.213   1.801  10.163
 4451SOL    HW113895   2.263   1.715  10.169
 4451SOL    HW213896   2.278   1.878  10.160
 4452SOL     OW13897   3.657   1.066  10.183
 4452SOL    HW113898   3.595   1.051  10.107
 4452SOL    HW213899   3.605   1.077  10.268
 4453SOL     OW13900   3.089   1.550  10.816
 4453SOL    HW113901   3.095   1.473  10.880
 4453SOL    HW213902   3.037   1.524  10.736
 4454SOL     OW13903   2.183   0.943   9.552
 4454SOL    HW113904   2.265   0.982   9.510
 4454SOL    HW213905   2.156   0.861   9.503
 4455SOL     OW13906   3.320   0.735  10.038
 4455SOL    HW113907   3.315   0.670  10.113
 4455SOL    HW213908   3.400   0.794  10.051
 4456SOL     OW13909   2.323   1.266  11.037
 4456SOL    HW113910   2.273   1.267  10.951
 4456SOL    HW213911   2.260   1.248  11.113
 4457SOL     OW13912   2.973   1.776   9.547
 4457SOL    HW113913   2.913   1.714   9.597
 4457SOL    HW213914   3.004   1.732   9.462
 4458SOL     OW13915   2.064   0.285  10.808
 4458SOL    HW113916   1.984   0.345  10.795
 4458SOL    HW213917   2.054   0.236  10.894
 4459SOL     OW13918   3.494   1.377   9.391
 4459SOL    HW113919   3.462   1.471   9.381
 4459SOL    HW213920   3.418   1.314   9.379
 4460SOL     OW13921   2.326   1.743   9.633
 4460SOL    HW113922   2.359   1.782   9.719
 4460SOL    HW213923   2.402   1.736   9.568
 4461SOL     OW13924   3.262   0.107   9.736
 4461SOL    HW113925   3.238   0.070   9.646
 4461SOL    HW213926   3.361   0.123   9.740
 4462SOL     OW13927   2.111   1.785  10.551
 4462SOL    HW113928   2.168   1.720  10.601
 4462SOL    HW213929   2.095   1.752  10.458
 4463SOL     OW13930   2.802   1.698  10.214
 4463SOL    HW113931   2.882   1.641  10.235
 4463SOL    HW213932   2.753   1.658  10.137
 4464SOL     OW13933   2.244   0.700   9.790
 4464SOL    HW113934   2.289   0.610   9.787
 4464SOL    HW213935   2.150   0.689   9.823
 4465SOL     OW13936   3.409   0.222  11.039
 4465SOL    HW113937   3.404   0.259  11.131
 4465SOL    HW213938   3.337   0.153  11.027
 4466SOL     OW13939   2.476   0.122   9.427
 4466SOL    HW113940   2.574   0.100   9.434
 4466SOL    HW213941   2.445   0.105   9.334
 4467SOL     OW13942   2.643   0.264  11.059
 4467SOL    HW113943   2.710   0.203  11.102
 4467SOL    HW213944   2.570   0.283  11.124
 4468SOL     OW13945   2.750   1.514  10.505
 4468SOL    HW113946   2.727   1.489  10.411
 4468SOL    HW213947   2.811   1.445  10.544
 4469SOL     OW13948   3.213   0.590  10.743
 4469SOL    HW113949   3.241   0.547  10.828
 4469SOL    HW213950   3.238   0.686  10.744
 4470SOL     OW13951   2.665   1.402  10.234
 4470SOL    HW113952   2.755   1.416  10.192
 4470SOL    HW213953   2.594   1.404  10.163
 4471SOL     OW13954   2.784   0.503  10.209
 4471SOL    HW113955   2.759   0.494  10.113
 4471SOL    HW213956   2.832   0.421  10.240
 4472SOL     OW13957   2.401   0.064   9.822
 4472SOL    HW113958   2.320   0.065   9.880
 4472SOL    HW213959   2.404   0.147   9.767
 4473SOL     OW13960   3.296   1.188   9.351
 4473SOL    HW113961   3.328   1.112   9.408
 4473SOL    HW213962   3.204   1.215   9.381
 4474SOL     OW13963   2.159   0.035   9.481
 4474SOL    HW113964   2.208   0.119   9.460
 4474SOL    HW213965   2.221  -0.030   9.526
 4475SOL     OW13966   2.797   0.236   9.790
 4475SOL    HW113967   2.749   0.277   9.712
 4475SOL    HW213968   2.896   0.234   9.771
 4476SOL     OW13969   2.938   0.683  10.774
 4476SOL    HW113970   2.858   0.622  10.777
 4476SOL    HW213971   3.019   0.630  10.750
 4477SOL     OW13972   3.089   1.570  10.103
 4477SOL    HW113973   3.110   1.644  10.038
 4477SOL    HW213974   3.157   1.570  10.176
 4478SOL     OW13975   2.321   1.152  10.051
 4478SOL    HW113976   2.250   1.125  10.116
 4478SOL    HW213977   2.295   1.124   9.958
 4479SOL     OW13978   3.133   1.797   9.901
 4479SOL    HW113979   3.177   1.861   9.837
 4479SOL    HW213980   3.083   1.849   9.971
 4480SOL     OW13981   2.894   0.549   9.326
 4480SOL    HW113982   2.853   0.631   9.287
 4480SOL    HW213983   2.958   0.575   9.399
 4481SOL     OW13984   1.940   0.556  10.696
 4481SOL    HW113985   2.032   0.555  10.655
 4481SOL    HW213986   1.934   0.630  10.763
 4482SOL     OW13987   2.423   0.222  10.457
 4482SOL    HW113988   2.461   0.138  10.494
 4482SOL    HW213989   2.335   0.241  10.501
 4483SOL     OW13990   2.728   0.454   9.952
 4483SOL    HW113991   2.696   0.526   9.890
 4483SOL    HW213992   2.752   0.373   9.899
 4484SOL     OW13993   2.879   0.039  10.063
 4484SOL    HW113994   2.807   0.044   9.994
 4484SOL    HW213995   2.855  -0.030  10.132
 4485SOL     OW13996   3.291   1.173  10.177
 4485SOL    HW113997   3.236   1.089  10.170
 4485SOL    HW213998   3.317   1.202  10.085
 4486SOL     OW13999   3.328   0.590  10.302
 4486SOL    HW114000   3.298   0.495  10.309
 4486SOL    HW214001   3.401   0.606  10.368
 4487SOL     OW14002   3.719   0.833   9.687
 4487SOL    HW114003   3.761   0.769   9.751
 4487SOL    HW214004   3.681   0.782   9.609
 4488SOL     OW14005   2.350   1.385   9.484
 4488SOL    HW114006   2.263   1.370   9.531
 4488SOL    HW214007   2.333   1.411   9.389
 4489SOL     OW14008   3.526   1.280   9.967
 4489SOL    HW114009   3.625   1.288   9.981
 4489SOL    HW214010   3.481   1.364   9.998
 4490SOL     OW14011   3.252   0.575   9.388
 4490SOL    HW114012   3.198   0.554   9.469
 4490SOL    HW214013   3.343   0.534   9.397
 4491SOL     OW14014   2.389   0.256   9.638
 4491SOL    HW114015   2.416   0.197   9.563
 4491SOL    HW214016   2.389   0.351   9.607
 4492SOL     OW14017   3.616   1.223  10.898
 4492SOL    HW114018   3.707   1.184  10.885
 4492SOL    HW214019   3.624   1.319  10.922
 4493SOL     OW14020   2.926   1.347  10.650
 4493SOL    HW114021   2.846   1.324  10.705
 4493SOL    HW214022   3.009   1.321  10.699
 4494SOL     OW14023   3.454   1.629  10.935
 4494SOL    HW114024   3.481   1.663  10.845
 4494SOL    HW214025   3.533   1.591  10.981
 4495SOL     OW14026   2.973   1.195  10.410
 4495SOL    HW114027   2.933   1.239  10.491
 4495SOL    HW214028   2.932   1.232  10.327
 4496SOL     OW14029   3.500   1.099  10.389
 4496SOL    HW114030   3.505   1.180  10.448
 4496SOL    HW214031   3.414   1.101  10.338
 4497SOL     OW14032   2.777   0.089  10.712
 4497SOL    HW114033   2.802   0.069  10.617
 4497SOL    HW214034   2.849   0.145  10.754
 4498SOL     OW14035   2.842   1.116  11.029
 4498SOL    HW114036   2.743   1.122  11.039
 4498SOL    HW214037   2.865   1.036  10.973
 4499SOL     OW14038   2.567   1.050   9.678
 4499SOL    HW114039   2.553   1.057   9.777
 4499SOL    HW214040   2.651   0.999   9.660
 4500SOL     OW14041   2.272   0.813  10.561
 4500SOL    HW114042   2.358   0.825  10.611
 4500SOL    HW214043   2.230   0.726  10.588
 4501SOL     OW14044   3.136   0.386  10.572
 4501SOL    HW114045   3.157   0.460  10.636
 4501SOL    HW214046   3.047   0.403  10.529
 4502SOL     OW14047   1.926   1.564  10.641
 4502SOL    HW114048   1.880   1.646  10.607
 4502SOL    HW214049   2.024   1.583  10.650
 4503SOL     OW14050   2.229   1.100   9.811
 4503SOL    HW114051   2.222   1.183   9.755
 4503SOL    HW214052   2.233   1.020   9.751
 4504SOL     OW14053   2.428   0.537  10.175
 4504SOL    HW114054   2.440   0.603  10.101
 4504SOL    HW214055   2.474   0.571  10.258
 4505SOL     OW14056   3.114   1.348   9.698
 4505SOL    HW114057   3.164   1.425   9.738
 4505SOL    HW214058   3.019   1.350   9.730
 4506SOL     OW14059   3.134   1.445  10.452
 4506SOL    HW114060   3.181   1.458  10.539
 4506SOL    HW214061   3.068   1.371  10.461
 4507SOL     OW14062   3.444   0.639   9.782
 4507SOL    HW114063   3.413   0.700   9.855
 4507SOL    HW214064   3.494   0.691   9.713
 4508SOL     OW14065   2.216   1.510  10.639
 4508SOL    HW114066   2.195   1.466  10.552
 4508SOL    HW214067   2.313   1.536  10.642
 4509SOL     OW14068   2.264   0.751  10.908
 4509SOL    HW114069   2.332   0.806  10.861
 4509SOL    HW214070   2.304   0.663  10.935
 4510SOL     OW14071   3.449   0.779  10.980
 4510SOL    HW114072   3.357   0.817  10.975
 4510SOL    HW214073   3.509   0.826  10.915
 4511SOL     OW14074   2.875   0.105  11.080
 4511SOL    HW114075   2.881   0.190  11.028
 4511SOL    HW214076   2.907   0.029  11.023
 4512SOL     OW14077   2.366   0.050  11.050
 4512SOL    HW114078   2.324  -0.007  10.980
 4512SOL    HW214079   2.300   0.119  11.082
 4513SOL     OW14080   2.435   0.870  10.339
 4513SOL    HW114081   2.479   0.959  10.330
 4513SOL    HW214082   2.372   0.870  10.416
 4514SOL     OW14083   3.222   0.862  10.355
 4514SOL    HW114084   3.147   0.862  10.289
 4514SOL    HW214085   3.259   0.770  10.364
 4515SOL     OW14086   3.071   0.525   9.585
 4515SOL    HW114087   3.084   0.441   9.639
 4515SOL    HW214088   3.042   0.599   9.645
 4516SOL     OW14089   2.169   0.213  10.541
 4516SOL    HW114090   2.146   0.250  10.631
 4516SOL    HW214091   2.139   0.118  10.535
 4517SOL     OW14092   1.899   1.310  10.592
 4517SOL    HW114093   1.952   1.261  10.660
 4517SOL    HW214094   1.921   1.408  10.597
 4518SOL     OW14095   2.594   0.634  10.374
 4518SOL    HW114096   2.653   0.608  10.298
 4518SOL    HW214097   2.566   0.730  10.363
 4519SOL     OW14098   3.590   0.935  11.164
 4519SOL    HW114099   3.544   0.928  11.075
 4519SOL    HW214100   3.528   0.979  11.230
 4520SOL     OW14101   2.169   0.063   9.928
 4520SOL    HW114102   2.158   0.157   9.961
 4520SOL    HW214103   2.164   0.000  10.005
 4521SOL     OW14104   3.484   0.367   9.684
 4521SOL    HW114105   3.486   0.291   9.748
 4521SOL    HW214106   3.436   0.444   9.724
 4522SOL     OW14107   2.885   0.766  10.276
 4522SOL    HW114108   2.900   0.787  10.372
 4522SOL    HW214109   2.855   0.671  10.267
 4523SOL     OW14110   2.842   1.573  11.010
 4523SOL    HW114111   2.822   1.617  10.922
 4523SOL    HW214112   2.881   1.482  10.994
 4524SOL     OW14113   3.721   1.518  10.915
 4524SOL    HW114114   3.735   1.545  10.820
 4524SOL    HW214115   3.804   1.540  10.968
 4525SOL     OW14116   2.212   0.898  11.114
 4525SOL    HW114117   2.288   0.942  11.162
 4525SOL    HW214118   2.247   0.851  11.032
 4526SOL     OW14119   3.402   0.274   9.435
 4526SOL    HW114120   3.341   0.199   9.458
 4526SOL    HW214121   3.424   0.326   9.518
 4527SOL     OW14122   3.165   0.838   9.352
 4527SOL    HW114123   3.199   0.745   9.367
 4527SOL    HW214124   3.183   0.865   9.257
 4528SOL     OW14125   2.930   1.333  10.159
 4528SOL    HW114126   2.937   1.249  10.104
 4528SOL    HW214127   2.992   1.402  10.123
 4529SOL     OW14128   2.181   0.810  10.259
 4529SOL    HW114129   2.274   0.846  10.264
 4529SOL    HW214130   2.175   0.725  10.311
 4530SOL     OW14131   2.201   0.509  10.316
 4530SOL    HW114132   2.149   0.426  10.299
 4530SOL    HW214133   2.278   0.514  10.252
 4531SOL     OW14134   3.000   0.380  10.988
 4531SOL    HW114135   2.955   0.443  11.052
 4531SOL    HW214136   3.093   0.411  10.971
 4532SOL     OW14137   3.022   0.207  10.787
 4532SOL    HW114138   3.022   0.271  10.864
 4532SOL    HW214139   3.050   0.255  10.704
 4533SOL     OW14140   1.870   1.326   9.510
 4533SOL    HW114141   1.777   1.347   9.479
 4533SOL    HW214142   1.880   1.227   9.523
 4534SOL     OW14143   1.950   1.801  10.237
 4534SOL    HW114144   1.908   1.715  10.210
 4534SOL    HW214145   2.044   1.804  10.203
 4535SOL     OW14146   2.366   1.568  10.220
 4535SOL    HW114147   2.432   1.642  10.229
 4535SOL    HW214148   2.410   1.489  10.178
 4536SOL     OW14149   2.864   0.796  10.548
 4536SOL    HW114150   2.905   0.764  10.634
 4536SOL    HW214151   2.768   0.769  10.545
 4537SOL     OW14152   1.902   0.544  10.424
 4537SOL    HW114153   1.987   0.511  10.383
 4537SOL    HW214154   1.915   0.559  10.522
 4538SOL     OW14155   2.051   0.520  11.032
 4538SOL    HW114156   2.110   0.480  10.962
 4538SOL    HW214157   1.993   0.591  10.991
 4539SOL     OW14158   3.231   0.950  10.970
 4539SOL    HW114159   3.270   1.039  10.990
 4539SOL    HW214160   3.241   0.930  10.873
 4540SOL     OW14161   2.677   0.572   9.635
 4540SOL    HW114162   2.684   0.483   9.589
 4540SOL    HW214163   2.583   0.606   9.627
 4541SOL     OW14164   3.519   0.604  10.516
 4541SOL    HW114165   3.481   0.535  10.578
 4541SOL    HW214166   3.601   0.568  10.472
 4542SOL     OW14167   2.114   1.564  11.054
 4542SOL    HW114168   2.084   1.621  11.130
 4542SOL    HW214169   2.107   1.467  11.080
 4543SOL     OW14170   2.533   0.464  10.579
 4543SOL    HW114171   2.499   0.375  10.549
 4543SOL    HW214172   2.559   0.518  10.499
 4544SOL     OW14173   2.792   1.678  10.775
 4544SOL    HW114174   2.768   1.660  10.680
 4544SOL    HW214175   2.822   1.772  10.785
 4545SOL     OW14176   2.335   0.500   9.501
 4545SOL    HW114177   2.396   0.580   9.505
 4545SOL    HW214178   2.240   0.531   9.508
 4546SOL     OW14179   2.021   1.137  10.776
 4546SOL    HW114180   2.043   1.076  10.852
 4546SOL    HW214181   2.031   1.088  10.690
 4547SOL     OW14182   3.209   1.059  10.544
 4547SOL    HW114183   3.233   0.996  10.470
 4547SOL    HW214184   3.119   1.099  10.526
 4548SOL     OW14185   3.164   0.855   9.619
 4548SOL    HW114186   3.078   0.824   9.661
 4548SOL    HW214187   3.160   0.841   9.520
 4549SOL     OW14188   3.621   1.747  10.464
 4549SOL    HW114189   3.682   1.777  10.391
 4549SOL    HW214190   3.583   1.658  10.442
 4550SOL     OW14191   3.114   1.731  10.438
 4550SOL    HW114192   3.198   1.736  10.384
 4550SOL    HW214193   3.091   1.635  10.456
 4551SOL     OW14194   1.945   1.258  10.332
 4551SOL    HW114195   1.940   1.257  10.432
 4551SOL    HW214196   1.862   1.217  10.294
 4552SOL     OW14197   2.550   1.662  11.026
 4552SOL    HW114198   2.494   1.743  11.035
 4552SOL    HW214199   2.602   1.666  10.940
 4553SOL     OW14200   3.588   0.135   9.833
 4553SOL    HW114201   3.661   0.118   9.766
 4553SOL    HW214202   3.557   0.048   9.871
 4554SOL     OW14203   3.250   1.573   9.787
 4554SOL    HW114204   3.317   1.585   9.713
 4554SOL    HW214205   3.210   1.662   9.810
 4555SOL     OW14206   1.992   1.794  11.161
 4555SOL    HW114207   1.951   1.720  11.214
 4555SOL    HW214208   2.056   1.845  11.219
 4556SOL     OW14209   3.142   0.927   9.982
 4556SOL    HW114210   3.202   0.846   9.984
 4556SOL    HW214211   3.182   0.996   9.922
 4557SOL     OW14212   2.692   1.273  10.732
 4557SOL    HW114213   2.687   1.306  10.827
 4557SOL    HW214214   2.606   1.292  10.686
 4558SOL     OW14215   2.534   1.616   9.464
 4558SOL    HW114216   2.543   1.626   9.365
 4558SOL    HW214217   2.494   1.527   9.485
 4559SOL     OW14218   3.512   1.720  10.704
 4559SOL    HW114219   3.565   1.730  10.620
 4559SOL    HW214220   3.485   1.810  10.738
 4560SOL     OW14221   3.703   0.175  10.273
 4560SOL    HW114222   3.742   0.090  10.237
 4560SOL    HW214223   3.605   0.177  10.254
 4561SOL     OW14224   2.125   0.326  10.030
 4561SOL    HW114225   2.046   0.377   9.996
 4561SOL    HW214226   2.116   0.311  10.128
 4562SOL     OW14227   3.056   1.612   9.341
 4562SOL    HW114228   3.062   1.519   9.378
 4562SOL    HW214229   2.997   1.612   9.261
 4563SOL     OW14230   2.684   1.002  10.682
 4563SOL    HW114231   2.724   1.001  10.590
 4563SOL    HW214232   2.694   1.094  10.722
 4564SOL     OW14233   2.778   0.910   9.601
 4564SOL    HW114234   2.841   0.948   9.533
 4564SOL    HW214235   2.818   0.827   9.640
 4565SOL     OW14236   3.366   1.607   9.354
 4565SOL    HW114237   3.274   1.644   9.361
 4565SOL    HW214238   3.404   1.627   9.264
 4566SOL     OW14239   2.234   1.288  10.800
 4566SOL    HW114240   2.221   1.381  10.766
 4566SOL    HW214241   2.150   1.236  10.787
 4567SOL     OW14242   3.476   1.292  10.599
 4567SOL    HW114243   3.536   1.295  10.679
 4567SOL    HW214244   3.401   1.356  10.612
 4568SOL     OW14245   2.901   1.098  10.006
 4568SOL    HW114246   2.831   1.051  10.060
 4568SOL    HW214247   2.960   1.030   9.963
 4569SOL     OW14248   2.876   0.236  10.281
 4569SOL    HW114249   2.868   0.200  10.188
 4569SOL    HW214250   2.874   0.160  10.346
 4570SOL     OW14251   2.452   1.487   9.801
 4570SOL    HW114252   2.494   1.429   9.731
 4570SOL    HW214253   2.408   1.566   9.757
 4571SOL     OW14254   3.571   0.385  10.691
 4571SOL    HW114255   3.644   0.454  10.695
 4571SOL    HW214256   3.599   0.310  10.632
 4572SOL     OW14257   2.117   1.348   9.600
 4572SOL    HW114258   2.021   1.349   9.573
 4572SOL    HW214259   2.129   1.401   9.684
 4573SOL     OW14260   1.967   1.013  11.036
 4573SOL    HW114261   1.890   0.980  11.090
 4573SOL    HW214262   2.052   0.983  11.078
 4574SOL     OW14263   2.534   0.203  10.799
 4574SOL    HW114264   2.624   0.187  10.759
 4574SOL    HW214265   2.542   0.208  10.898
 4575SOL     OW14266   1.937   0.345   9.343
 4575SOL    HW114267   1.845   0.317   9.314
 4575SOL    HW214268   1.968   0.422   9.287
 4576SOL     OW14269   3.302   0.856  10.708
 4576SOL    HW114270   3.245   0.908  10.645
 4576SOL    HW214271   3.398   0.868  10.684
 4577SOL     OW14272   1.934   0.166   9.628
 4577SOL    HW114273   1.917   0.249   9.574
 4577SOL    HW214274   2.024   0.129   9.606
 4578SOL     OW14275   3.045   1.335   9.429
 4578SOL    HW114276   2.946   1.324   9.431
 4578SOL    HW214277   3.079   1.350   9.522
 4579SOL     OW14278   2.475   0.842  10.741
 4579SOL    HW114279   2.531   0.923  10.724
 4579SOL    HW214280   2.534   0.762  10.744
 4580SOL     OW14281   3.355   1.767  10.269
 4580SOL    HW114282   3.388   1.831  10.200
 4580SOL    HW214283   3.421   1.761  10.344
 4581SOL     OW14284   2.578   0.565  11.018
 4581SOL    HW114285   2.597   0.630  11.092
 4581SOL    HW214286   2.638   0.485  11.027
 4582SOL     OW14287   3.312   1.220  10.943
 4582SOL    HW114288   3.303   1.210  11.042
 4582SOL    HW214289   3.408   1.213  10.917
 4583SOL     OW14290   2.252   1.741  10.870
 4583SOL    HW114291   2.161   1.782  10.868
 4583SOL    HW214292   2.245   1.647  10.902
 4584SOL     OW14293   3.536   0.883  10.564
 4584SOL    HW114294   3.509   0.794  10.527
 4584SOL    HW214295   3.537   0.951  10.491
 4585SOL     OW14296   3.087   0.325   9.759
 4585SOL    HW114297   3.152   0.251   9.748
 4585SOL    HW214298   3.107   0.375   9.843
 4586SOL     OW14299   2.456   0.745   9.962
 4586SOL    HW114300   2.506   0.830   9.943
 4586SOL    HW214301   2.368   0.747   9.914
 4587SOL     OW14302   3.639   0.342  10.952
 4587SOL    HW114303   3.622   0.373  10.858
 4587SOL    HW214304   3.555   0.305  10.990
 4588SOL     OW14305   3.592   0.934  10.827
 4588SOL    HW114306   3.630   1.025  10.842
 4588SOL    HW214307   3.584   0.917  10.728
 4589SOL     OW14308   2.721   1.374   9.326
 4589SOL    HW114309   2.675   1.389   9.414
 4589SOL    HW214310   2.765   1.459   9.296
 4590SOL     OW14311   2.523   1.790  10.263
 4590SOL    HW114312   2.477   1.878  10.250
 4590SOL    HW214313   2.622   1.802  10.256
 4591SOL     OW14314   2.721   0.956  10.171
 4591SOL    HW114315   2.775   0.887  10.219
 4591SOL    HW214316   2.689   1.025  10.237
 4592SOL     OW14317   2.945   0.984   9.397
 4592SOL    HW114318   2.922   1.037   9.315
 4592SOL    HW214319   3.026   0.928   9.378
 4593SOL     OW14320   3.723   1.569  10.161
 4593SOL    HW114321   3.652   1.557  10.091
 4593SOL    HW214322   3.724   1.490  10.221
 4594SOL     OW14323   2.083   1.314  11.154
 4594SOL    HW114324   2.018   1.241  11.133
 4594SOL    HW214325   2.087   1.328  11.252
 4595SOL     OW14326   1.941   1.240   9.963
 4595SOL    HW114327   1.940   1.193  10.051
 4595SOL    HW214328   2.023   1.212   9.912
 4596SOL     OW14329   2.534   1.391  10.934
 4596SOL    HW114330   2.456   1.341  10.972
 4596SOL    HW214331   2.531   1.486  10.965
 4597SOL     OW14332   3.686   0.192  10.537
 4597SOL    HW114333   3.682   0.102  10.581
 4597SOL    HW214334   3.689   0.181  10.438
 4598SOL     OW14335   2.290   0.424   9.830
 4598SOL    HW114336   2.320   0.352   9.768
 4598SOL    HW214337   2.251   0.384   9.913
 4599SOL     OW14338   3.567   1.487  10.414
 4599SOL    HW114339   3.474   1.462  10.387
 4599SOL    HW214340   3.593   1.437  10.496
 4600SOL     OW14341   2.179   0.547  10.590
 4600SOL    HW114342   2.217   0.488  10.662
 4600SOL    HW214343   2.219   0.521  10.502
 4601SOL     OW14344   2.674   1.586   9.997
 4601SOL    HW114345   2.706   1.596   9.903
 4601SOL    HW214346   2.595   1.524   9.999
 4602SOL     OW14347   3.286   0.214  10.422
 4602SOL    HW114348   3.338   0.149  10.477
 4602SOL    HW214349   3.237   0.277  10.483
 4603SOL     OW14350   2.863   0.034  10.464
 4603SOL    HW114351   2.800  -0.038  10.433
 4603SOL    HW214352   2.956  -0.002  10.464
 4604SOL     OW14353   2.632   1.330   9.611
 4604SOL    HW114354   2.586   1.243   9.628
 4604SOL    HW214355   2.723   1.327   9.652
 4605SOL     OW14356   2.480   1.567  10.594
 4605SOL    HW114357   2.475   1.649  10.651
 4605SOL    HW214358   2.569   1.564  10.549
 4606SOL     OW14359   3.214   0.052   9.478
 4606SOL    HW114360   3.249   0.011   9.394
 4606SOL    HW214361   3.124   0.014   9.498
 4607SOL     OW14362   3.162   0.453  10.001
 4607SOL    HW114363   3.103   0.533  10.005
 4607SOL    HW214364   3.177   0.418  10.094
 4608SOL     OW14365   3.455   0.221  10.192
 4608SOL    HW114366   3.371   0.220  10.246
 4608SOL    HW214367   3.457   0.304  10.136
 4609SOL     OW14368   1.901   1.077   9.610
 4609SOL    HW114369   2.000   1.066   9.601
 4609SOL    HW214370   1.861   0.991   9.642
 4610SOL     OW14371   2.737   1.646   9.647
 4610SOL    HW114372   2.660   1.611   9.593
 4610SOL    HW214373   2.705   1.717   9.709
 4611SOL     OW14374   2.092   0.628  11.285
 4611SOL    HW114375   1.999   0.626  11.322
 4611SOL    HW214376   2.093   0.589  11.193
 4612SOL     OW14377   2.087   0.275  12.168
 4612SOL    HW114378   2.122   0.258  12.260
 4612SOL    HW214379   1.999   0.230  12.156
 4613SOL     OW14380   1.881   0.368  11.819
 4613SOL    HW114381   1.799   0.411  11.858
 4613SOL    HW214382   1.853   0.295  11.756
 4614SOL     OW14383   2.431   1.275  12.337
 4614SOL    HW114384   2.338   1.268  12.300
 4614SOL    HW214385   2.442   1.364  12.381
 4615SOL     OW14386   3.417   1.511  11.875
 4615SOL    HW114387   3.360   1.495  11.956
 4615SOL    HW214388   3.358   1.521  11.795
 4616SOL     OW14389   2.997   0.703  11.889
 4616SOL    HW114390   3.054   0.781  11.864
 4616SOL    HW214391   2.937   0.729  11.965
 4617SOL     OW14392   3.617   0.607  11.403
 4617SOL    HW114393   3.605   0.594  11.304
 4617SOL    HW214394   3.587   0.526  11.452
 4618SOL     OW14395   2.630   1.144  12.195
 4618SOL    HW114396   2.552   1.161  12.255
 4618SOL    HW214397   2.664   1.231  12.159
 4619SOL     OW14398   2.712   0.798  12.995
 4619SOL    HW114399   2.708   0.874  13.060
 4619SOL    HW214400   2.734   0.834  12.904
 4620SOL     OW14401   2.547   1.012  11.837
 4620SOL    HW114402   2.616   0.996  11.907
 4620SOL    HW214403   2.474   1.069  11.875
 4621SOL     OW14404   2.548   1.161  12.975
 4621SOL    HW114405   2.608   1.240  12.989
 4621SOL    HW214406   2.462   1.192  12.934
 4622SOL     OW14407   2.197   1.435  12.233
 4622SOL    HW114408   2.119   1.404  12.180
 4622SOL    HW214409   2.255   1.493  12.176
 4623SOL     OW14410   3.322   1.505  12.511
 4623SOL    HW114411   3.346   1.599  12.537
 4623SOL    HW214412   3.306   1.451  12.593
 4624SOL     OW14413   2.300   0.392  12.671
 4624SOL    HW114414   2.382   0.336  12.680
 4624SOL    HW214415   2.219   0.334  12.675
 4625SOL     OW14416   3.465   0.447  11.909
 4625SOL    HW114417   3.391   0.493  11.859
 4625SOL    HW214418   3.516   0.515  11.962
 4626SOL     OW14419   2.093   1.713  11.655
 4626SOL    HW114420   2.127   1.790  11.709
 4626SOL    HW214421   2.137   1.713  11.565
 4627SOL     OW14422   2.989   1.341  12.862
 4627SOL    HW114423   3.036   1.341  12.950
 4627SOL    HW214424   2.941   1.254  12.851
 4628SOL     OW14425   2.092   1.434  11.710
 4628SOL    HW114426   2.066   1.530  11.710
 4628SOL    HW214427   2.021   1.380  11.755
 4629SOL     OW14428   2.102   1.091  12.058
 4629SOL    HW114429   2.116   1.007  12.110
 4629SOL    HW214430   2.047   1.155  12.113
 4630SOL     OW14431   2.482   1.786  12.611
 4630SOL    HW114432   2.390   1.769  12.646
 4630SOL    HW214433   2.510   1.878  12.637
 4631SOL     OW14434   2.468   0.964  11.295
 4631SOL    HW114435   2.475   1.048  11.241
 4631SOL    HW214436   2.514   0.977  11.383
 4632SOL     OW14437   3.456   0.114  12.652
 4632SOL    HW114438   3.438   0.181  12.580
 4632SOL    HW214439   3.453   0.160  12.741
 4633SOL     OW14440   1.984   0.643  11.735
 4633SOL    HW114441   1.939   0.555  11.752
 4633SOL    HW214442   1.983   0.697  11.819
 4634SOL     OW14443   3.704   1.767  11.531
 4634SOL    HW114444   3.758   1.738  11.611
 4634SOL    HW214445   3.734   1.857  11.502
 4635SOL     OW14446   1.889   1.596  11.289
 4635SOL    HW114447   1.870   1.500  11.310
 4635SOL    HW214448   1.856   1.654  11.364
 4636SOL     OW14449   3.551   0.922  11.784
 4636SOL    HW114450   3.646   0.893  11.792
 4636SOL    HW214451   3.543   0.987  11.709
 4637SOL     OW14452   3.503   1.108  11.604
 4637SOL    HW114453   3.589   1.110  11.552
 4637SOL    HW214454   3.517   1.155  11.692
 4638SOL     OW14455   1.975   0.737  12.769
 4638SOL    HW114456   2.063   0.724  12.814
 4638SOL    HW214457   1.962   0.834  12.747
 4639SOL     OW14458   2.475   1.365  11.898
 4639SOL    HW114459   2.426   1.278  11.907
 4639SOL    HW214460   2.452   1.408  11.811
 4640SOL     OW14461   3.155   1.228  12.595
 4640SOL    HW114462   3.192   1.155  12.537
 4640SOL    HW214463   3.207   1.233  12.680
 4641SOL     OW14464   2.671   0.004  11.674
 4641SOL    HW114465   2.711   0.095  11.665
 4641SOL    HW214466   2.571   0.012  11.680
 4642SOL     OW14467   2.059   0.976  12.436
 4642SOL    HW114468   2.148   0.931  12.422
 4642SOL    HW214469   1.986   0.911  12.417
 4643SOL     OW14470   3.387   0.999  11.362
 4643SOL    HW114471   3.324   0.923  11.375
 4643SOL    HW214472   3.435   1.017  11.448
 4644SOL     OW14473   3.049   1.792  12.788
 4644SOL    HW114474   3.073   1.852  12.712
 4644SOL    HW214475   3.056   1.697  12.758
 4645SOL     OW14476   2.179   0.251  12.973
 4645SOL    HW114477   2.250   0.322  12.979
 4645SOL    HW214478   2.091   0.290  13.001
 4646SOL     OW14479   3.328   1.417  12.125
 4646SOL    HW114480   3.269   1.423  12.205
 4646SOL    HW214481   3.313   1.329  12.079
 4647SOL     OW14482   3.529   1.714  11.744
 4647SOL    HW114483   3.488   1.691  11.656
 4647SOL    HW214484   3.511   1.640  11.809
 4648SOL     OW14485   2.460   0.729  11.442
 4648SOL    HW114486   2.484   0.798  11.374
 4648SOL    HW214487   2.382   0.762  11.496
 4649SOL     OW14488   3.143   0.345  12.116
 4649SOL    HW114489   3.057   0.295  12.103
 4649SOL    HW214490   3.205   0.291  12.172
 4650SOL     OW14491   3.438   1.662  11.479
 4650SOL    HW114492   3.527   1.708  11.482
 4650SOL    HW214493   3.417   1.638  11.384
 4651SOL     OW14494   2.669   0.605  12.637
 4651SOL    HW114495   2.622   0.602  12.726
 4651SOL    HW214496   2.618   0.550  12.571
 4652SOL     OW14497   3.256   0.469  12.846
 4652SOL    HW114498   3.236   0.512  12.934
 4652SOL    HW214499   3.334   0.407  12.855
 4653SOL     OW14500   2.835   0.890  12.744
 4653SOL    HW114501   2.881   0.806  12.715
 4653SOL    HW214502   2.779   0.924  12.669
 4654SOL     OW14503   2.853   0.410  12.414
 4654SOL    HW114504   2.776   0.444  12.468
 4654SOL    HW214505   2.819   0.359  12.335
 4655SOL     OW14506   2.903   0.701  11.601
 4655SOL    HW114507   2.929   0.697  11.697
 4655SOL    HW214508   2.818   0.650  11.587
 4656SOL     OW14509   1.938   0.811  11.961
 4656SOL    HW114510   2.037   0.799  11.970
 4656SOL    HW214511   1.914   0.906  11.982
 4657SOL     OW14512   2.727   0.348  11.367
 4657SOL    HW114513   2.786   0.411  11.318
 4657SOL    HW214514   2.746   0.254  11.338
 4658SOL     OW14515   3.581   0.585  13.003
 4658SOL    HW114516   3.555   0.674  12.967
 4658SOL    HW214517   3.579   0.517  12.930
 4659SOL     OW14518   3.224   1.144  11.717
 4659SOL    HW114519   3.307   1.115  11.669
 4659SOL    HW214520   3.175   1.211  11.661
 4660SOL     OW14521   2.412   0.196  12.057
 4660SOL    HW114522   2.407   0.191  12.157
 4660SOL    HW214523   2.414   0.292  12.028
 4661SOL     OW14524   2.870   1.456  11.649
 4661SOL    HW114525   2.824   1.528  11.597
 4661SOL    HW214526   2.866   1.476  11.747
 4662SOL     OW14527   2.213   1.801  12.025
 4662SOL    HW114528   2.263   1.715  12.031
 4662SOL    HW214529   2.278   1.878  12.022
 4663SOL     OW14530   3.657   1.066  12.045
 4663SOL    HW114531   3.595   1.051  11.969
 4663SOL    HW214532   3.605   1.077  12.130
 4664SOL     OW14533   3.089   1.550  12.678
 4664SOL    HW114534   3.095   1.473  12.742
 4664SOL    HW214535   3.037   1.524  12.598
 4665SOL     OW14536   2.183   0.943  11.414
 4665SOL    HW114537   2.265   0.982  11.372
 4665SOL    HW214538   2.156   0.861  11.365
 4666SOL     OW14539   3.320   0.735  11.900
 4666SOL    HW114540   3.315   0.670  11.975
 4666SOL    HW214541   3.400   0.794  11.913
 4667SOL     OW14542   2.323   1.266  12.899
 4667SOL    HW114543   2.273   1.267  12.813
 4667SOL    HW214544   2.260   1.248  12.975
 4668SOL     OW14545   2.973   1.776  11.409
 4668SOL    HW114546   2.913   1.714  11.459
 4668SOL    HW214547   3.004   1.732  11.324
 4669SOL     OW14548   2.064   0.285  12.670
 4669SOL    HW114549   1.984   0.345  12.657
 4669SOL    HW214550   2.054   0.236  12.756
 4670SOL     OW14551   3.494   1.377  11.253
 4670SOL    HW114552   3.462   1.471  11.243
 4670SOL    HW214553   3.418   1.314  11.241
 4671SOL     OW14554   2.326   1.743  11.495
 4671SOL    HW114555   2.359   1.782  11.581
 4671SOL    HW214556   2.402   1.736  11.430
 4672SOL     OW14557   3.262   0.107  11.598
 4672SOL    HW114558   3.238   0.070  11.508
 4672SOL    HW214559   3.361   0.123  11.602
 4673SOL     OW14560   2.111   1.785  12.413
 4673SOL    HW114561   2.168   1.720  12.463
 4673SOL    HW214562   2.095   1.752  12.320
 4674SOL     OW14563   2.802   1.698  12.076
 4674SOL    HW114564   2.882   1.641  12.097
 4674SOL    HW214565   2.753   1.658  11.999
 4675SOL     OW14566   2.244   0.700  11.652
 4675SOL    HW114567   2.289   0.610  11.649
 4675SOL    HW214568   2.150   0.689  11.685
 4676SOL     OW14569   3.409   0.222  12.901
 4676SOL    HW114570   3.404   0.259  12.993
 4676SOL    HW214571   3.337   0.153  12.889
 4677SOL     OW14572   2.476   0.122  11.289
 4677SOL    HW114573   2.574   0.100  11.296
 4677SOL    HW214574   2.445   0.105  11.196
 4678SOL     OW14575   2.643   0.264  12.921
 4678SOL    HW114576   2.710   0.203  12.964
 4678SOL    HW214577   2.570   0.283  12.986
 4679SOL     OW14578   2.750   1.514  12.367
 4679SOL    HW114579   2.727   1.489  12.273
 4679SOL    HW214580   2.811   1.445  12.406
 4680SOL     OW14581   3.213   0.590  12.605
 4680SOL    HW114582   3.241   0.547  12.690
 4680SOL    HW214583   3.238   0.686  12.606
 4681SOL     OW14584   2.665   1.402  12.096
 4681SOL    HW114585   2.755   1.416  12.054
 4681SOL    HW214586   2.594   1.404  12.025
 4682SOL     OW14587   2.784   0.503  12.071
 4682SOL    HW114588   2.759   0.494  11.975
 4682SOL    HW214589   2.832   0.421  12.102
 4683SOL     OW14590   2.401   0.064  11.684
 4683SOL    HW114591   2.320   0.065  11.742
 4683SOL    HW214592   2.404   0.147  11.629
 4684SOL     OW14593   3.296   1.188  11.213
 4684SOL    HW114594   3.328   1.112  11.270
 4684SOL    HW214595   3.204   1.215  11.243
 4685SOL     OW14596   2.159   0.035  11.343
 4685SOL    HW114597   2.208   0.119  11.322
 4685SOL    HW214598   2.221  -0.030  11.388
 4686SOL     OW14599   2.797   0.236  11.652
 4686SOL    HW114600   2.749   0.277  11.574
 4686SOL    HW214601   2.896   0.234  11.633
 4687SOL     OW14602   2.938   0.683  12.636
 4687SOL    HW114603   2.858   0.622  12.639
 4687SOL    HW214604   3.019   0.630  12.612
 4688SOL     OW14605   3.089   1.570  11.965
 4688SOL    HW114606   3.110   1.644  11.900
 4688SOL    HW214607   3.157   1.570  12.038
 4689SOL     OW14608   2.321   1.152  11.913
 4689SOL    HW114609   2.250   1.125  11.978
 4689SOL    HW214610   2.295   1.124  11.820
 4690SOL     OW14611   3.133   1.797  11.763
 4690SOL    HW114612   3.177   1.861  11.699
 4690SOL    HW214613   3.083   1.849  11.833
 4691SOL     OW14614   2.894   0.549  11.188
 4691SOL    HW114615   2.853   0.631  11.149
 4691SOL    HW214616   2.958   0.575  11.261
 4692SOL     OW14617   1.940   0.556  12.558
 4692SOL    HW114618   2.032   0.555  12.517
 4692SOL    HW214619   1.934   0.630  12.625
 4693SOL     OW14620   2.423   0.222  12.319
 4693SOL    HW114621   2.461   0.138  12.356
 4693SOL    HW214622   2.335   0.241  12.363
 4694SOL     OW14623   2.728   0.454  11.814
 4694SOL    HW114624   2.696   0.526  11.752
 4694SOL    HW214625   2.752   0.373  11.761
 4695SOL     OW14626   2.879   0.039  11.925
 4695SOL    HW114627   2.807   0.044  11.856
 4695SOL    HW214628   2.855  -0.030  11.994
 4696SOL     OW14629   3.291   1.173  12.039
 4696SOL    HW114630   3.236   1.089  12.032
 4696SOL    HW214631   3.317   1.202  11.947
 4697SOL     OW14632   3.328   0.590  12.164
 4697SOL    HW114633   3.298   0.495  12.171
 4697SOL    HW214634   3.401   0.606  12.230
 4698SOL     OW14635   3.719   0.833  11.549
 4698SOL    HW114636   3.761   0.769  11.613
 4698SOL    HW214637   3.681   0.782  11.471
 4699SOL     OW14638   2.350   1.385  11.346
 4699SOL    HW114639   2.263   1.370  11.393
 4699SOL    HW214640   2.333   1.411  11.251
 4700SOL     OW14641   3.526   1.280  11.829
 4700SOL    HW114642   3.625   1.288  11.843
 4700SOL    HW214643   3.481   1.364  11.860
 4701SOL     OW14644   3.252   0.575  11.250
 4701SOL    HW114645   3.198   0.554  11.331
 4701SOL    HW214646   3.343   0.534  11.259
 4702SOL     OW14647   2.389   0.256  11.500
 4702SOL    HW114648   2.416   0.197  11.425
 4702SOL    HW214649   2.389   0.351  11.469
 4703SOL     OW14650   3.616   1.223  12.760
 4703SOL    HW114651   3.707   1.184  12.747
 4703SOL    HW214652   3.624   1.319  12.784
 4704SOL     OW14653   2.926   1.347  12.512
 4704SOL    HW114654   2.846   1.324  12.567
 4704SOL    HW214655   3.009   1.321  12.561
 4705SOL     OW14656   3.454   1.629  12.797
 4705SOL    HW114657   3.481   1.663  12.707
 4705SOL    HW214658   3.533   1.591  12.843
 4706SOL     OW14659   2.973   1.195  12.272
 4706SOL    HW114660   2.933   1.239  12.353
 4706SOL    HW214661   2.932   1.232  12.189
 4707SOL     OW14662   3.500   1.099  12.251
 4707SOL    HW114663   3.505   1.180  12.310
 4707SOL    HW214664   3.414   1.101  12.200
 4708SOL     OW14665   2.777   0.089  12.574
 4708SOL    HW114666   2.802   0.069  12.479
 4708SOL    HW214667   2.849   0.145  12.616
 4709SOL     OW14668   2.842   1.116  12.891
 4709SOL    HW114669   2.743   1.122  12.901
 4709SOL    HW214670   2.865   1.036  12.835
 4710SOL     OW14671   2.567   1.050  11.540
 4710SOL    HW114672   2.553   1.057  11.639
 4710SOL    HW214673   2.651   0.999  11.522
 4711SOL     OW14674   2.272   0.813  12.423
 4711SOL    HW114675   2.358   0.825  12.473
 4711SOL    HW214676   2.230   0.726  12.450
 4712SOL     OW14677   3.136   0.386  12.434
 4712SOL    HW114678   3.157   0.460  12.498
 4712SOL    HW214679   3.047   0.403  12.391
 4713SOL     OW14680   1.926   1.564  12.503
 4713SOL    HW114681   1.880   1.646  12.469
 4713SOL    HW214682   2.024   1.583  12.512
 4714SOL     OW14683   2.229   1.100  11.673
 4714SOL    HW114684   2.222   1.183  11.617
 4714SOL    HW214685   2.233   1.020  11.613
 4715SOL     OW14686   2.428   0.537  12.037
 4715SOL    HW114687   2.440   0.603  11.963
 4715SOL    HW214688   2.474   0.571  12.120
 4716SOL     OW14689   3.114   1.348  11.560
 4716SOL    HW114690   3.164   1.425  11.600
 4716SOL    HW214691   3.019   1.350  11.592
 4717SOL     OW14692   3.134   1.445  12.314
 4717SOL    HW114693   3.181   1.458  12.401
 4717SOL    HW214694   3.068   1.371  12.323
 4718SOL     OW14695   3.444   0.639  11.644
 4718SOL    HW114696   3.413   0.700  11.717
 4718SOL    HW214697   3.494   0.691  11.575
 4719SOL     OW14698   2.216   1.510  12.501
 4719SOL    HW114699   2.195   1.466  12.414
 4719SOL    HW214700   2.313   1.536  12.504
 4720SOL     OW14701   2.264   0.751  12.770
 4720SOL    HW114702   2.332   0.806  12.723
 4720SOL    HW214703   2.304   0.663  12.797
 4721SOL     OW14704   3.449   0.779  12.842
 4721SOL    HW114705   3.357   0.817  12.837
 4721SOL    HW214706   3.509   0.826  12.777
 4722SOL     OW14707   2.875   0.105  12.942
 4722SOL    HW114708   2.881   0.190  12.890
 4722SOL    HW214709   2.907   0.029  12.885
 4723SOL     OW14710   2.366   0.050  12.912
 4723SOL    HW114711   2.324  -0.007  12.842
 4723SOL    HW214712   2.300   0.119  12.944
 4724SOL     OW14713   2.435   0.870  12.201
 4724SOL    HW114714   2.479   0.959  12.192
 4724SOL    HW214715   2.372   0.870  12.278
 4725SOL     OW14716   3.222   0.862  12.217
 4725SOL    HW114717   3.147   0.862  12.151
 4725SOL    HW214718   3.259   0.770  12.226
 4726SOL     OW14719   3.071   0.525  11.447
 4726SOL    HW114720   3.084   0.441  11.501
 4726SOL    HW214721   3.042   0.599  11.507
 4727SOL     OW14722   2.169   0.213  12.403
 4727SOL    HW114723   2.146   0.250  12.493
 4727SOL    HW214724   2.139   0.118  12.397
 4728SOL     OW14725   1.899   1.310  12.454
 4728SOL    HW114726   1.952   1.261  12.522
 4728SOL    HW214727   1.921   1.408  12.459
 4729SOL     OW14728   2.594   0.634  12.236
 4729SOL    HW114729   2.653   0.608  12.160
 4729SOL    HW214730   2.566   0.730  12.225
 4730SOL     OW14731   3.590   0.935  13.026
 4730SOL    HW114732   3.544   0.928  12.937
 4730SOL    HW214733   3.528   0.979  13.092
 4731SOL     OW14734   2.169   0.063  11.790
 4731SOL    HW114735   2.158   0.157  11.823
 4731SOL    HW214736   2.164   0.000  11.867
 4732SOL     OW14737   3.484   0.367  11.546
 4732SOL    HW114738   3.486   0.291  11.610
 4732SOL    HW214739   3.436   0.444  11.586
 4733SOL     OW14740   2.885   0.766  12.138
 4733SOL    HW114741   2.900   0.787  12.234
 4733SOL    HW214742   2.855   0.671  12.129
 4734SOL     OW14743   2.842   1.573  12.872
 4734SOL    HW114744   2.822   1.617  12.784
 4734SOL    HW214745   2.881   1.482  12.856
 4735SOL     OW14746   3.721   1.518  12.777
 4735SOL    HW114747   3.735   1.545  12.682
 4735SOL    HW214748   3.804   1.540  12.830
 4736SOL     OW14749   2.212   0.898  12.976
 4736SOL    HW114750   2.288   0.942  13.024
 4736SOL    HW214751   2.247   0.851  12.894
 4737SOL     OW14752   3.402   0.274  11.297
 4737SOL    HW114753   3.341   0.199  11.320
 4737SOL    HW214754   3.424   0.326  11.380
 4738SOL     OW14755   3.165   0.838  11.214
 4738SOL    HW114756   3.199   0.745  11.229
 4738SOL    HW214757   3.183   0.865  11.119
 4739SOL     OW14758   2.930   1.333  12.021
 4739SOL    HW114759   2.937   1.249  11.966
 4739SOL    HW214760   2.992   1.402  11.985
 4740SOL     OW14761   2.181   0.810  12.121
 4740SOL    HW114762   2.274   0.846  12.126
 4740SOL    HW214763   2.175   0.725  12.173
 4741SOL     OW14764   2.201   0.509  12.178
 4741SOL    HW114765   2.149   0.426  12.161
 4741SOL    HW214766   2.278   0.514  12.114
 4742SOL     OW14767   3.000   0.380  12.850
 4742SOL    HW114768   2.955   0.443  12.914
 4742SOL    HW214769   3.093   0.411  12.833
 4743SOL     OW14770   3.022   0.207  12.649
 4743SOL    HW114771   3.022   0.271  12.726
 4743SOL    HW214772   3.050   0.255  12.566
 4744SOL     OW14773   1.870   1.326  11.372
 4744SOL    HW114774   1.777   1.347  11.341
 4744SOL    HW214775   1.880   1.227  11.385
 4745SOL     OW14776   1.950   1.801  12.099
 4745SOL    HW114777   1.908   1.715  12.072
 4745SOL    HW214778   2.044   1.804  12.065
 4746SOL     OW14779   2.366   1.568  12.082
 4746SOL    HW114780   2.432   1.642  12.091
 4746SOL    HW214781   2.410   1.489  12.040
 4747SOL     OW14782   2.864   0.796  12.410
 4747SOL    HW114783   2.905   0.764  12.496
 4747SOL    HW214784   2.768   0.769  12.407
 4748SOL     OW14785   1.902   0.544  12.286
 4748SOL    HW114786   1.987   0.511  12.245
 4748SOL    HW214787   1.915   0.559  12.384
 4749SOL     OW14788   2.051   0.520  12.894
 4749SOL    HW114789   2.110   0.480  12.824
 4749SOL    HW214790   1.993   0.591  12.853
 4750SOL     OW14791   3.231   0.950  12.832
 4750SOL    HW114792   3.270   1.039  12.852
 4750SOL    HW214793   3.241   0.930  12.735
 4751SOL     OW14794   2.677   0.572  11.497
 4751SOL    HW114795   2.684   0.483  11.451
 4751SOL    HW214796   2.583   0.606  11.489
 4752SOL     OW14797   3.519   0.604  12.378
 4752SOL    HW114798   3.481   0.535  12.440
 4752SOL    HW214799   3.601   0.568  12.334
 4753SOL     OW14800   2.114   1.564  12.916
 4753SOL    HW114801   2.084   1.621  12.992
 4753SOL    HW214802   2.107   1.467  12.942
 4754SOL     OW14803   2.533   0.464  12.441
 4754SOL    HW114804   2.499   0.375  12.411
 4754SOL    HW214805   2.559   0.518  12.361
 4755SOL     OW14806   2.792   1.678  12.637
 4755SOL    HW114807   2.768   1.660  12.542
 4755SOL    HW214808   2.822   1.772  12.647
 4756SOL     OW14809   2.335   0.500  11.363
 4756SOL    HW114810   2.396   0.580  11.367
 4756SOL    HW214811   2.240   0.531  11.370
 4757SOL     OW14812   2.021   1.137  12.638
 4757SOL    HW114813   2.043   1.076  12.714
 4757SOL    HW214814   2.031   1.088  12.552
 4758SOL     OW14815   3.209   1.059  12.406
 4758SOL    HW114816   3.233   0.996  12.332
 4758SOL    HW214817   3.119   1.099  12.388
 4759SOL     OW14818   3.164   0.855  11.481
 4759SOL    HW114819   3.078   0.824  11.523
 4759SOL    HW214820   3.160   0.841  11.382
 4760SOL     OW14821   3.621   1.747  12.326
 4760SOL    HW114822   3.682   1.777  12.253
 4760SOL    HW214823   3.583   1.658  12.304
 4761SOL     OW14824   3.114   1.731  12.300
 4761SOL    HW114825   3.198   1.736  12.246
 4761SOL    HW214826   3.091   1.635  12.318
 4762SOL     OW14827   1.945   1.258  12.194
 4762SOL    HW114828   1.940   1.257  12.294
 4762SOL    HW214829   1.862   1.217  12.156
 4763SOL     OW14830   2.550   1.662  12.888
 4763SOL    HW114831   2.494   1.743  12.897
 4763SOL    HW214832   2.602   1.666  12.802
 4764SOL     OW14833   3.588   0.135  11.695
 4764SOL    HW114834   3.661   0.118  11.628
 4764SOL    HW214835   3.557   0.048  11.733
 4765SOL     OW14836   3.250   1.573  11.649
 4765SOL    HW114837   3.317   1.585  11.575
 4765SOL    HW214838   3.210   1.662  11.672
 4766SOL     OW14839   1.992   1.794  13.023
 4766SOL    HW114840   1.951   1.720  13.076
 4766SOL    HW214841   2.056   1.845  13.081
 4767SOL     OW14842   3.142   0.927  11.844
 4767SOL    HW114843   3.202   0.846  11.846
 4767SOL    HW214844   3.182   0.996  11.784
 4768SOL     OW14845   2.692   1.273  12.594
 4768SOL    HW114846   2.687   1.306  12.689
 4768SOL    HW214847   2.606   1.292  12.548
 4769SOL     OW14848   2.534   1.616  11.326
 4769SOL    HW114849   2.543   1.626  11.227
 4769SOL    HW214850   2.494   1.527  11.347
 4770SOL     OW14851   3.512   1.720  12.566
 4770SOL    HW114852   3.565   1.730  12.482
 4770SOL    HW214853   3.485   1.810  12.600
 4771SOL     OW14854   3.703   0.175  12.135
 4771SOL    HW114855   3.742   0.090  12.099
 4771SOL    HW214856   3.605   0.177  12.116
 4772SOL     OW14857   2.125   0.326  11.892
 4772SOL    HW114858   2.046   0.377  11.858
 4772SOL    HW214859   2.116   0.311  11.990
 4773SOL     OW14860   3.056   1.612  11.203
 4773SOL    HW114861   3.062   1.519  11.240
 4773SOL    HW214862   2.997   1.612  11.123
 4774SOL     OW14863   2.684   1.002  12.544
 4774SOL    HW114864   2.724   1.001  12.452
 4774SOL    HW214865   2.694   1.094  12.584
 4775SOL     OW14866   2.778   0.910  11.463
 4775SOL    HW114867   2.841   0.948  11.395
 4775SOL    HW214868   2.818   0.827  11.502
 4776SOL     OW14869   3.366   1.607  11.216
 4776SOL    HW114870   3.274   1.644  11.223
 4776SOL    HW214871   3.404   1.627  11.126
 4777SOL     OW14872   2.234   1.288  12.662
 4777SOL    HW114873   2.221   1.381  12.628
 4777SOL    HW214874   2.150   1.236  12.649
 4778SOL     OW14875   3.476   1.292  12.461
 4778SOL    HW114876   3.536   1.295  12.541
 4778SOL    HW214877   3.401   1.356  12.474
 4779SOL     OW14878   2.901   1.098  11.868
 4779SOL    HW114879   2.831   1.051  11.922
 4779SOL    HW214880   2.960   1.030  11.825
 4780SOL     OW14881   2.876   0.236  12.143
 4780SOL    HW114882   2.868   0.200  12.050
 4780SOL    HW214883   2.874   0.160  12.208
 4781SOL     OW14884   2.452   1.487  11.663
 4781SOL    HW114885   2.494   1.429  11.593
 4781SOL    HW214886   2.408   1.566  11.619
 4782SOL     OW14887   3.571   0.385  12.553
 4782SOL    HW114888   3.644   0.454  12.557
 4782SOL    HW214889   3.599   0.310  12.494
 4783SOL     OW14890   2.117   1.348  11.462
 4783SOL    HW114891   2.021   1.349  11.435
 4783SOL    HW214892   2.129   1.401  11.546
 4784SOL     OW14893   1.967   1.013  12.898
 4784SOL    HW114894   1.890   0.980  12.952
 4784SOL    HW214895   2.052   0.983  12.940
 4785SOL     OW14896   2.534   0.203  12.661
 4785SOL    HW114897   2.624   0.187  12.621
 4785SOL    HW214898   2.542   0.208  12.760
 4786SOL     OW14899   1.937   0.345  11.205
 4786SOL    HW114900   1.845   0.317  11.176
 4786SOL    HW214901   1.968   0.422  11.149
 4787SOL     OW14902   3.302   0.856  12.570
 4787SOL    HW114903   3.245   0.908  12.507
 4787SOL    HW214904   3.398   0.868  12.546
 4788SOL     OW14905   1.934   0.166  11.490
 4788SOL    HW114906   1.917   0.249  11.436
 4788SOL    HW214907   2.024   0.129  11.468
 4789SOL     OW14908   3.045   1.335  11.291
 4789SOL    HW114909   2.946   1.324  11.293
 4789SOL    HW214910   3.079   1.350  11.384
 4790SOL     OW14911   2.475   0.842  12.603
 4790SOL    HW114912   2.531   0.923  12.586
 4790SOL    HW214913   2.534   0.762  12.606
 4791SOL     OW14914   3.355   1.767  12.131
 4791SOL    HW114915   3.388   1.831  12.062
 4791SOL    HW214916   3.421   1.761  12.206
 4792SOL     OW14917   2.578   0.565  12.880
 4792SOL    HW114918   2.597   0.630  12.954
 4792SOL    HW214919   2.638   0.485  12.889
 4793SOL     OW14920   3.312   1.220  12.805
 4793SOL    HW114921   3.303   1.210  12.904
 4793SOL    HW214922   3.408   1.213  12.779
 4794SOL     OW14923   2.252   1.741  12.732
 4794SOL    HW114924   2.161   1.782  12.730
 4794SOL    HW214925   2.245   1.647  12.764
 4795SOL     OW14926   3.536   0.883  12.426
 4795SOL    HW114927   3.509   0.794  12.389
 4795SOL    HW214928   3.537   0.951  12.353
 4796SOL     OW14929   3.087   0.325  11.621
 4796SOL    HW114930   3.152   0.251  11.610
 4796SOL    HW214931   3.107   0.375  11.705
 4797SOL     OW14932   2.456   0.745  11.824
 4797SOL    HW114933   2.506   0.830  11.805
 4797SOL    HW214934   2.368   0.747  11.776
 4798SOL     OW14935   3.639   0.342  12.814
 4798SOL    HW114936   3.622   0.373  12.720
 4798SOL    HW214937   3.555   0.305  12.852
 4799SOL     OW14938   3.592   0.934  12.689
 4799SOL    HW114939   3.630   1.025  12.704
 4799SOL    HW214940   3.584   0.917  12.590
 4800SOL     OW14941   2.721   1.374  11.188
 4800SOL    HW114942   2.675   1.389  11.276
 4800SOL    HW214943   2.765   1.459  11.158
 4801SOL     OW14944   2.523   1.790  12.125
 4801SOL    HW114945   2.477   1.878  12.112
 4801SOL    HW214946   2.622   1.802  12.118
 4802SOL     OW14947   2.721   0.956  12.033
 4802SOL    HW114948   2.775   0.887  12.081
 4802SOL    HW214949   2.689   1.025  12.099
 4803SOL     OW14950   2.945   0.984  11.259
 4803SOL    HW114951   2.922   1.037  11.177
 4803SOL    HW214952   3.026   0.928  11.240
 4804SOL     OW14953   3.723   1.569  12.023
 4804SOL    HW114954   3.652   1.557  11.953
 4804SOL    HW214955   3.724   1.490  12.083
 4805SOL     OW14956   2.083   1.314  13.016
 4805SOL    HW114957   2.018   1.241  12.995
 4805SOL    HW214958   2.087   1.328  13.114
 4806SOL     OW14959   1.941   1.240  11.825
 4806SOL    HW114960   1.940   1.193  11.913
 4806SOL    HW214961   2.023   1.212  11.774
 4807SOL     OW14962   2.534   1.391  12.796
 4807SOL    HW114963   2.456   1.341  12.834
 4807SOL    HW214964   2.531   1.486  12.827
 4808SOL     OW14965   3.686   0.192  12.399
 4808SOL    HW114966   3.682   0.102  12.443
 4808SOL    HW214967   3.689   0.181  12.300
 4809SOL     OW14968   2.290   0.424  11.692
 4809SOL    HW114969   2.320   0.352  11.630
 4809SOL    HW214970   2.251   0.384  11.775
 4810SOL     OW14971   3.567   1.487  12.276
 4810SOL    HW114972   3.474   1.462  12.249
 4810SOL    HW214973   3.593   1.437  12.358
 4811SOL     OW14974   2.179   0.547  12.452
 4811SOL    HW114975   2.217   0.488  12.524
 4811SOL    HW214976   2.219   0.521  12.364
 4812SOL     OW14977   2.674   1.586  11.859
 4812SOL    HW114978   2.706   1.596  11.765
 4812SOL    HW214979   2.595   1.524  11.861
 4813SOL     OW14980   3.286   0.214  12.284
 4813SOL    HW114981   3.338   0.149  12.339
 4813SOL    HW214982   3.237   0.277  12.345
 4814SOL     OW14983   2.863   0.034  12.326
 4814SOL    HW114984   2.800  -0.038  12.295
 4814SOL    HW214985   2.956  -0.002  12.326
 4815SOL     OW14986   2.632   1.330  11.473
 4815SOL    HW114987   2.586   1.243  11.490
 4815SOL    HW214988   2.723   1.327  11.514
 4816SOL     OW14989   2.480   1.567  12.456
 4816SOL    HW114990   2.475   1.649  12.513
 4816SOL    HW214991   2.569   1.564  12.411
 4817SOL     OW14992   3.214   0.052  11.340
 4817SOL    HW114993   3.249   0.011  11.256
 4817SOL    HW214994   3.124   0.014  11.360
 4818SOL     OW14995   3.162   0.453  11.863
 4818SOL    HW114996   3.103   0.533  11.867
 4818SOL    HW214997   3.177   0.418  11.956
 4819SOL     OW14998   3.455   0.221  12.054
 4819SOL    HW114999   3.371   0.220  12.108
 4819SOL    HW215000   3.457   0.304  11.998
 4820SOL     OW15001   1.901   1.077  11.472
 4820SOL    HW115002   2.000   1.066  11.463
 4820SOL    HW215003   1.861   0.991  11.504
 4821SOL     OW15004   2.737   1.646  11.509
 4821SOL    HW115005   2.660   1.611  11.455
 4821SOL    HW215006   2.705   1.717  11.571
 4822SOL     OW15007   2.092   0.628  13.147
 4822SOL    HW115008   1.999   0.626  13.184
 4822SOL    HW215009   2.093   0.589  13.055
 4823SOL     OW15010   2.087   0.275  14.030
 4823SOL    HW115011   2.122   0.258  14.122
 4823SOL    HW215012   1.999   0.230  14.018
 4824SOL     OW15013   1.881   0.368  13.681
 4824SOL    HW115014   1.799   0.411  13.720
 4824SOL    HW215015   1.853   0.295  13.618
 4825SOL     OW15016   3.417   1.511  13.737
 4825SOL    HW115017   3.360   1.495  13.818
 4825SOL    HW215018   3.358   1.521  13.657
 4826SOL     OW15019   2.997   0.703  13.751
 4826SOL    HW115020   3.054   0.781  13.726
 4826SOL    HW215021   2.937   0.729  13.827
 4827SOL     OW15022   3.617   0.607  13.265
 4827SOL    HW115023   3.605   0.594  13.166
 4827SOL    HW215024   3.587   0.526  13.314
 4828SOL     OW15025   2.547   1.012  13.699
 4828SOL    HW115026   2.616   0.996  13.769
 4828SOL    HW215027   2.474   1.069  13.737
 4829SOL     OW15028   3.465   0.447  13.771
 4829SOL    HW115029   3.391   0.493  13.721
 4829SOL    HW215030   3.516   0.515  13.824
 4830SOL     OW15031   2.093   1.713  13.517
 4830SOL    HW115032   2.127   1.790  13.571
 4830SOL    HW215033   2.137   1.713  13.427
 4831SOL     OW15034   2.092   1.434  13.572
 4831SOL    HW115035   2.066   1.530  13.572
 4831SOL    HW215036   2.021   1.380  13.617
 4832SOL     OW15037   2.102   1.091  13.920
 4832SOL    HW115038   2.116   1.007  13.972
 4832SOL    HW215039   2.047   1.155  13.975
 4833SOL     OW15040   2.468   0.964  13.157
 4833SOL    HW115041   2.475   1.048  13.103
 4833SOL    HW215042   2.514   0.977  13.245
 4834SOL     OW15043   1.984   0.643  13.597
 4834SOL    HW115044   1.939   0.555  13.614
 4834SOL    HW215045   1.983   0.697  13.681
 4835SOL     OW15046   3.704   1.767  13.393
 4835SOL    HW115047   3.758   1.738  13.473
 4835SOL    HW215048   3.734   1.857  13.364
 4836SOL     OW15049   1.889   1.596  13.151
 4836SOL    HW115050   1.870   1.500  13.172
 4836SOL    HW215051   1.856   1.654  13.226
 4837SOL     OW15052   3.551   0.922  13.646
 4837SOL    HW115053   3.646   0.893  13.654
 4837SOL    HW215054   3.543   0.987  13.571
 4838SOL     OW15055   3.503   1.108  13.466
 4838SOL    HW115056   3.589   1.110  13.414
 4838SOL    HW215057   3.517   1.155  13.554
 4839SOL     OW15058   2.475   1.365  13.760
 4839SOL    HW115059   2.426   1.278  13.769
 4839SOL    HW215060   2.452   1.408  13.673
 4840SOL     OW15061   2.671   0.004  13.536
 4840SOL    HW115062   2.711   0.095  13.527
 4840SOL    HW215063   2.571   0.012  13.542
 4841SOL     OW15064   3.387   0.999  13.224
 4841SOL    HW115065   3.324   0.923  13.237
 4841SOL    HW215066   3.435   1.017  13.310
 4842SOL     OW15067   3.529   1.714  13.606
 4842SOL    HW115068   3.488   1.691  13.518
 4842SOL    HW215069   3.511   1.640  13.671
 4843SOL     OW15070   2.460   0.729  13.304
 4843SOL    HW115071   2.484   0.798  13.236
 4843SOL    HW215072   2.382   0.762  13.358
 4844SOL     OW15073   3.143   0.345  13.978
 4844SOL    HW115074   3.057   0.295  13.965
 4844SOL    HW215075   3.205   0.291  14.034
 4845SOL     OW15076   3.438   1.662  13.341
 4845SOL    HW115077   3.527   1.708  13.344
 4845SOL    HW215078   3.417   1.638  13.246
 4846SOL     OW15079   2.903   0.701  13.463
 4846SOL    HW115080   2.929   0.697  13.559
 4846SOL    HW215081   2.818   0.650  13.449
 4847SOL     OW15082   1.938   0.811  13.823
 4847SOL    HW115083   2.037   0.799  13.832
 4847SOL    HW215084   1.914   0.906  13.844
 4848SOL     OW15085   2.727   0.348  13.229
 4848SOL    HW115086   2.786   0.411  13.180
 4848SOL    HW215087   2.746   0.254  13.200
 4849SOL     OW15088   3.224   1.144  13.579
 4849SOL    HW115089   3.307   1.115  13.531
 4849SOL    HW215090   3.175   1.211  13.523
 4850SOL     OW15091   2.870   1.456  13.511
 4850SOL    HW115092   2.824   1.528  13.459
 4850SOL    HW215093   2.866   1.476  13.609
 4851SOL     OW15094   2.213   1.801  13.887
 4851SOL    HW115095   2.263   1.715  13.893
 4851SOL    HW215096   2.278   1.878  13.884
 4852SOL     OW15097   3.657   1.066  13.907
 4852SOL    HW115098   3.595   1.051  13.831
 4852SOL    HW215099   3.605   1.077  13.992
 4853SOL     OW15100   2.183   0.943  13.276
 4853SOL    HW115101   2.265   0.982  13.234
 4853SOL    HW215102   2.156   0.861  13.227
 4854SOL     OW15103   3.320   0.735  13.762
 4854SOL    HW115104   3.315   0.670  13.837
 4854SOL    HW215105   3.400   0.794  13.775
 4855SOL     OW15106   2.973   1.776  13.271
 4855SOL    HW115107   2.913   1.714  13.321
 4855SOL    HW215108   3.004   1.732  13.186
 4856SOL     OW15109   3.494   1.377  13.115
 4856SOL    HW115110   3.462   1.471  13.105
 4856SOL    HW215111   3.418   1.314  13.103
 4857SOL     OW15112   2.326   1.743  13.357
 4857SOL    HW115113   2.359   1.782  13.443
 4857SOL    HW215114   2.402   1.736  13.292
 4858SOL     OW15115   3.262   0.107  13.460
 4858SOL    HW115116   3.238   0.070  13.370
 4858SOL    HW215117   3.361   0.123  13.464
 4859SOL     OW15118   2.802   1.698  13.938
 4859SOL    HW115119   2.882   1.641  13.959
 4859SOL    HW215120   2.753   1.658  13.861
 4860SOL     OW15121   2.244   0.700  13.514
 4860SOL    HW115122   2.289   0.610  13.511
 4860SOL    HW215123   2.150   0.689  13.547
 4861SOL     OW15124   2.476   0.122  13.151
 4861SOL    HW115125   2.574   0.100  13.158
 4861SOL    HW215126   2.445   0.105  13.058
 4862SOL     OW15127   2.401   0.064  13.546
 4862SOL    HW115128   2.320   0.065  13.604
 4862SOL    HW215129   2.404   0.147  13.491
 4863SOL     OW15130   3.296   1.188  13.075
 4863SOL    HW115131   3.328   1.112  13.132
 4863SOL    HW215132   3.204   1.215  13.105
 4864SOL     OW15133   2.159   0.035  13.205
 4864SOL    HW115134   2.208   0.119  13.184
 4864SOL    HW215135   2.221  -0.030  13.250
 4865SOL     OW15136   2.797   0.236  13.514
 4865SOL    HW115137   2.749   0.277  13.436
 4865SOL    HW215138   2.896   0.234  13.495
 4866SOL     OW15139   2.321   1.152  13.775
 4866SOL    HW115140   2.250   1.125  13.840
 4866SOL    HW215141   2.295   1.124  13.682
 4867SOL     OW15142   3.133   1.797  13.625
 4867SOL    HW115143   3.177   1.861  13.561
 4867SOL    HW215144   3.083   1.849  13.695
 4868SOL     OW15145   2.894   0.549  13.050
 4868SOL    HW115146   2.853   0.631  13.011
 4868SOL    HW215147   2.958   0.575  13.123
 4869SOL     OW15148   2.728   0.454  13.676
 4869SOL    HW115149   2.696   0.526  13.614
 4869SOL    HW215150   2.752   0.373  13.623
 4870SOL     OW15151   2.879   0.039  13.787
 4870SOL    HW115152   2.807   0.044  13.718
 4870SOL    HW215153   2.855  -0.030  13.856
 4871SOL     OW15154   3.719   0.833  13.411
 4871SOL    HW115155   3.761   0.769  13.475
 4871SOL    HW215156   3.681   0.782  13.333
 4872SOL     OW15157   2.350   1.385  13.208
 4872SOL    HW115158   2.263   1.370  13.255
 4872SOL    HW215159   2.333   1.411  13.113
 4873SOL     OW15160   3.526   1.280  13.691
 4873SOL    HW115161   3.625   1.288  13.705
 4873SOL    HW215162   3.481   1.364  13.722
 4874SOL     OW15163   3.252   0.575  13.112
 4874SOL    HW115164   3.198   0.554  13.193
 4874SOL    HW215165   3.343   0.534  13.121
 4875SOL     OW15166   2.389   0.256  13.362
 4875SOL    HW115167   2.416   0.197  13.287
 4875SOL    HW215168   2.389   0.351  13.331
 4876SOL     OW15169   2.567   1.050  13.402
 4876SOL    HW115170   2.553   1.057  13.501
 4876SOL    HW215171   2.651   0.999  13.384
 4877SOL     OW15172   2.229   1.100  13.535
 4877SOL    HW115173   2.222   1.183  13.479
 4877SOL    HW215174   2.233   1.020  13.475
 4878SOL     OW15175   2.428   0.537  13.899
 4878SOL    HW115176   2.440   0.603  13.825
 4878SOL    HW215177   2.474   0.571  13.982
 4879SOL     OW15178   3.114   1.348  13.422
 4879SOL    HW115179   3.164   1.425  13.462
 4879SOL    HW215180   3.019   1.350  13.454
 4880SOL     OW15181   3.444   0.639  13.506
 4880SOL    HW115182   3.413   0.700  13.579
 4880SOL    HW215183   3.494   0.691  13.437
 4881SOL     OW15184   3.071   0.525  13.309
 4881SOL    HW115185   3.084   0.441  13.363
 4881SOL    HW215186   3.042   0.599  13.369
 4882SOL     OW15187   2.169   0.063  13.652
 4882SOL    HW115188   2.158   0.157  13.685
 4882SOL    HW215189   2.164   0.000  13.729
 4883SOL     OW15190   3.484   0.367  13.408
 4883SOL    HW115191   3.486   0.291  13.472
 4883SOL    HW215192   3.436   0.444  13.448
 4884SOL     OW15193   3.402   0.274  13.159
 4884SOL    HW115194   3.341   0.199  13.182
 4884SOL    HW215195   3.424   0.326  13.242
 4885SOL     OW15196   3.165   0.838  13.076
 4885SOL    HW115197   3.199   0.745  13.091
 4885SOL    HW215198   3.183   0.865  12.981
 4886SOL     OW15199   1.870   1.326  13.234
 4886SOL    HW115200   1.777   1.347  13.203
 4886SOL    HW215201   1.880   1.227  13.247
 4887SOL     OW15202   2.677   0.572  13.359
 4887SOL    HW115203   2.684   0.483  13.313
 4887SOL    HW215204   2.583   0.606  13.351
 4888SOL     OW15205   2.335   0.500  13.225
 4888SOL    HW115206   2.396   0.580  13.229
 4888SOL    HW215207   2.240   0.531  13.232
 4889SOL     OW15208   3.164   0.855  13.343
 4889SOL    HW115209   3.078   0.824  13.385
 4889SOL    HW215210   3.160   0.841  13.244
 4890SOL     OW15211   3.588   0.135  13.557
 4890SOL    HW115212   3.661   0.118  13.490
 4890SOL    HW215213   3.557   0.048  13.595
 4891SOL     OW15214   3.250   1.573  13.511
 4891SOL    HW115215   3.317   1.585  13.437
 4891SOL    HW215216   3.210   1.662  13.534
 4892SOL     OW15217   3.142   0.927  13.706
 4892SOL    HW115218   3.202   0.846  13.708
 4892SOL    HW215219   3.182   0.996  13.646
 4893SOL     OW15220   2.534   1.616  13.188
 4893SOL    HW115221   2.543   1.626  13.089
 4893SOL    HW215222   2.494   1.527  13.209
 4894SOL     OW15223   3.703   0.175  13.997
 4894SOL    HW115224   3.742   0.090  13.961
 4894SOL    HW215225   3.605   0.177  13.978
 4895SOL     OW15226   2.125   0.326  13.754
 4895SOL    HW115227   2.046   0.377  13.720
 4895SOL    HW215228   2.116   0.311  13.852
 4896SOL     OW15229   3.056   1.612  13.065
 4896SOL    HW115230   3.062   1.519  13.102
 4896SOL    HW215231   2.997   1.612  12.985
 4897SOL     OW15232   2.778   0.910  13.325
 4897SOL    HW115233   2.841   0.948  13.257
 4897SOL    HW215234   2.818   0.827  13.364
 4898SOL     OW15235   3.366   1.607  13.078
 4898SOL    HW115236   3.274   1.644  13.085
 4898SOL    HW215237   3.404   1.627  12.988
 4899SOL     OW15238   2.901   1.098  13.730
 4899SOL    HW115239   2.831   1.051  13.784
 4899SOL    HW215240   2.960   1.030  13.687
 4900SOL     OW15241   2.452   1.487  13.525
 4900SOL    HW115242   2.494   1.429  13.455
 4900SOL    HW215243   2.408   1.566  13.481
 4901SOL     OW15244   2.117   1.348  13.324
 4901SOL    HW115245   2.021   1.349  13.297
 4901SOL    HW215246   2.129   1.401  13.408
 4902SOL     OW15247   1.937   0.345  13.067
 4902SOL    HW115248   1.845   0.317  13.038
 4902SOL    HW215249   1.968   0.422  13.011
 4903SOL     OW15250   1.934   0.166  13.352
 4903SOL    HW115251   1.917   0.249  13.298
 4903SOL    HW215252   2.024   0.129  13.330
 4904SOL     OW15253   3.045   1.335  13.153
 4904SOL    HW115254   2.946   1.324  13.155
 4904SOL    HW215255   3.079   1.350  13.246
 4905SOL     OW15256   3.087   0.325  13.483
 4905SOL    HW115257   3.152   0.251  13.472
 4905SOL    HW215258   3.107   0.375  13.567
 4906SOL     OW15259   2.456   0.745  13.686
 4906SOL    HW115260   2.506   0.830  13.667
 4906SOL    HW215261   2.368   0.747  13.638
 4907SOL     OW15262   2.721   1.374  13.050
 4907SOL    HW115263   2.675   1.389  13.138
 4907SOL    HW215264   2.765   1.459  13.020
 4908SOL     OW15265   2.523   1.790  13.987
 4908SOL    HW115266   2.477   1.878  13.974
 4908SOL    HW215267   2.622   1.802  13.980
 4909SOL     OW15268   2.721   0.956  13.895
 4909SOL    HW115269   2.775   0.887  13.943
 4909SOL    HW215270   2.689   1.025  13.961
 4910SOL     OW15271   2.945   0.984  13.121
 4910SOL    HW115272   2.922   1.037  13.039
 4910SOL    HW215273   3.026   0.928  13.102
 4911SOL     OW15274   1.941   1.240  13.687
 4911SOL    HW115275   1.940   1.193  13.775
 4911SOL    HW215276   2.023   1.212  13.636
 4912SOL     OW15277   2.290   0.424  13.554
 4912SOL    HW115278   2.320   0.352  13.492
 4912SOL    HW215279   2.251   0.384  13.637
 4913SOL     OW15280   3.567   1.487  14.138
 4913SOL    HW115281   3.474   1.462  14.111
 4913SOL    HW215282   3.593   1.437  14.220
 4914SOL     OW15283   2.674   1.586  13.721
 4914SOL    HW115284   2.706   1.596  13.627
 4914SOL    HW215285   2.595   1.524  13.723
 4915SOL     OW15286   2.632   1.330  13.335
 4915SOL    HW115287   2.586   1.243  13.352
 4915SOL    HW215288   2.723   1.327  13.376
 4916SOL     OW15289   3.214   0.052  13.202
 4916SOL    HW115290   3.249   0.011  13.118
 4916SOL    HW215291   3.124   0.014  13.222
 4917SOL     OW15292   3.162   0.453  13.725
 4917SOL    HW115293   3.103   0.533  13.729
 4917SOL    HW215294   3.177   0.418  13.818
 4918SOL     OW15295   1.901   1.077  13.334
 4918SOL    HW115296   2.000   1.066  13.325
 4918SOL    HW215297   1.861   0.991  13.366
 4919SOL     OW15298   2.737   1.646  13.371
 4919SOL    HW115299   2.660   1.611  13.317
 4919SOL    HW215300   2.705   1.717  13.433
 4920SOL     OW15301   2.092   2.490   0.113
 4920SOL    HW115302   1.999   2.488   0.150
 4920SOL    HW215303   2.093   2.451   0.021
 4921SOL     OW15304   1.881   2.230   0.647
 4921SOL    HW115305   1.799   2.273   0.686
 4921SOL    HW215306   1.853   2.157   0.584
 4922SOL     OW15307   2.431   3.137   1.165
 4922SOL    HW115308   2.338   3.130   1.128
 4922SOL    HW215309   2.442   3.226   1.209
 4923SOL     OW15310   3.417   3.373   0.703
 4923SOL    HW115311   3.360   3.357   0.784
 4923SOL    HW215312   3.358   3.383   0.623
 4924SOL     OW15313   2.997   2.565   0.717
 4924SOL    HW115314   3.054   2.643   0.692
 4924SOL    HW215315   2.937   2.591   0.793
 4925SOL     OW15316   3.617   2.469   0.231
 4925SOL    HW115317   3.605   2.456   0.132
 4925SOL    HW215318   3.587   2.388   0.280
 4926SOL     OW15319   2.630   3.006   1.023
 4926SOL    HW115320   2.552   3.023   1.083
 4926SOL    HW215321   2.664   3.093   0.987
 4927SOL     OW15322   2.712   2.660   1.823
 4927SOL    HW115323   2.708   2.736   1.888
 4927SOL    HW215324   2.734   2.696   1.732
 4928SOL     OW15325   2.547   2.874   0.665
 4928SOL    HW115326   2.616   2.858   0.735
 4928SOL    HW215327   2.474   2.931   0.703
 4929SOL     OW15328   2.548   3.023   1.803
 4929SOL    HW115329   2.608   3.102   1.817
 4929SOL    HW215330   2.462   3.054   1.762
 4930SOL     OW15331   2.197   3.297   1.061
 4930SOL    HW115332   2.119   3.266   1.008
 4930SOL    HW215333   2.255   3.355   1.004
 4931SOL     OW15334   3.322   3.367   1.339
 4931SOL    HW115335   3.346   3.461   1.365
 4931SOL    HW215336   3.306   3.313   1.421
 4932SOL     OW15337   2.300   2.254   1.499
 4932SOL    HW115338   2.382   2.198   1.508
 4932SOL    HW215339   2.219   2.196   1.503
 4933SOL     OW15340   3.465   2.309   0.737
 4933SOL    HW115341   3.391   2.355   0.687
 4933SOL    HW215342   3.516   2.377   0.790
 4934SOL     OW15343   2.093   3.575   0.483
 4934SOL    HW115344   2.127   3.652   0.537
 4934SOL    HW215345   2.137   3.575   0.393
 4935SOL     OW15346   2.989   3.203   1.690
 4935SOL    HW115347   3.036   3.203   1.778
 4935SOL    HW215348   2.941   3.116   1.679
 4936SOL     OW15349   2.092   3.296   0.538
 4936SOL    HW115350   2.066   3.392   0.538
 4936SOL    HW215351   2.021   3.242   0.583
 4937SOL     OW15352   2.102   2.953   0.886
 4937SOL    HW115353   2.116   2.869   0.938
 4937SOL    HW215354   2.047   3.017   0.941
 4938SOL     OW15355   2.482   3.648   1.439
 4938SOL    HW115356   2.390   3.631   1.474
 4938SOL    HW215357   2.510   3.740   1.465
 4939SOL     OW15358   2.468   2.826   0.123
 4939SOL    HW115359   2.475   2.910   0.069
 4939SOL    HW215360   2.514   2.839   0.211
 4940SOL     OW15361   3.456   1.976   1.480
 4940SOL    HW115362   3.438   2.043   1.408
 4940SOL    HW215363   3.453   2.022   1.569
 4941SOL     OW15364   1.984   2.505   0.563
 4941SOL    HW115365   1.939   2.417   0.580
 4941SOL    HW215366   1.983   2.559   0.647
 4942SOL     OW15367   3.704   3.629   0.359
 4942SOL    HW115368   3.758   3.600   0.439
 4942SOL    HW215369   3.734   3.719   0.330
 4943SOL     OW15370   1.889   3.458   0.117
 4943SOL    HW115371   1.870   3.362   0.138
 4943SOL    HW215372   1.856   3.516   0.192
 4944SOL     OW15373   3.551   2.784   0.612
 4944SOL    HW115374   3.646   2.755   0.620
 4944SOL    HW215375   3.543   2.849   0.537
 4945SOL     OW15376   3.503   2.970   0.432
 4945SOL    HW115377   3.589   2.972   0.380
 4945SOL    HW215378   3.517   3.017   0.520
 4946SOL     OW15379   1.975   2.599   1.597
 4946SOL    HW115380   2.063   2.586   1.642
 4946SOL    HW215381   1.962   2.696   1.575
 4947SOL     OW15382   2.475   3.227   0.726
 4947SOL    HW115383   2.426   3.140   0.735
 4947SOL    HW215384   2.452   3.270   0.639
 4948SOL     OW15385   3.155   3.090   1.423
 4948SOL    HW115386   3.192   3.017   1.365
 4948SOL    HW215387   3.207   3.095   1.508
 4949SOL     OW15388   2.671   1.866   0.502
 4949SOL    HW115389   2.711   1.957   0.493
 4949SOL    HW215390   2.571   1.874   0.508
 4950SOL     OW15391   2.059   2.838   1.264
 4950SOL    HW115392   2.148   2.793   1.250
 4950SOL    HW215393   1.986   2.773   1.245
 4951SOL     OW15394   3.387   2.861   0.190
 4951SOL    HW115395   3.324   2.785   0.203
 4951SOL    HW215396   3.435   2.879   0.276
 4952SOL     OW15397   3.049   3.654   1.616
 4952SOL    HW115398   3.073   3.714   1.540
 4952SOL    HW215399   3.056   3.559   1.586
 4953SOL     OW15400   3.328   3.279   0.953
 4953SOL    HW115401   3.269   3.285   1.033
 4953SOL    HW215402   3.313   3.191   0.907
 4954SOL     OW15403   3.529   3.576   0.572
 4954SOL    HW115404   3.488   3.553   0.484
 4954SOL    HW215405   3.511   3.502   0.637
 4955SOL     OW15406   2.460   2.591   0.270
 4955SOL    HW115407   2.484   2.660   0.202
 4955SOL    HW215408   2.382   2.624   0.324
 4956SOL     OW15409   3.143   2.207   0.944
 4956SOL    HW115410   3.057   2.157   0.931
 4956SOL    HW215411   3.205   2.153   1.000
 4957SOL     OW15412   3.438   3.524   0.307
 4957SOL    HW115413   3.527   3.570   0.310
 4957SOL    HW215414   3.417   3.500   0.212
 4958SOL     OW15415   2.669   2.467   1.465
 4958SOL    HW115416   2.622   2.464   1.554
 4958SOL    HW215417   2.618   2.412   1.399
 4959SOL     OW15418   3.256   2.331   1.674
 4959SOL    HW115419   3.236   2.374   1.762
 4959SOL    HW215420   3.334   2.269   1.683
 4960SOL     OW15421   2.835   2.752   1.572
 4960SOL    HW115422   2.881   2.668   1.543
 4960SOL    HW215423   2.779   2.786   1.497
 4961SOL     OW15424   2.853   2.272   1.242
 4961SOL    HW115425   2.776   2.306   1.296
 4961SOL    HW215426   2.819   2.221   1.163
 4962SOL     OW15427   2.903   2.563   0.429
 4962SOL    HW115428   2.929   2.559   0.525
 4962SOL    HW215429   2.818   2.512   0.415
 4963SOL     OW15430   1.938   2.673   0.789
 4963SOL    HW115431   2.037   2.661   0.798
 4963SOL    HW215432   1.914   2.768   0.810
 4964SOL     OW15433   1.992   3.683   1.571
 4964SOL    HW115434   1.982   3.668   1.670
 4964SOL    HW215435   1.906   3.719   1.535
 4965SOL     OW15436   2.727   2.210   0.195
 4965SOL    HW115437   2.786   2.273   0.146
 4965SOL    HW215438   2.746   2.116   0.166
 4966SOL     OW15439   3.581   2.447   1.831
 4966SOL    HW115440   3.555   2.536   1.795
 4966SOL    HW215441   3.579   2.379   1.758
 4967SOL     OW15442   3.224   3.006   0.545
 4967SOL    HW115443   3.307   2.977   0.497
 4967SOL    HW215444   3.175   3.073   0.489
 4968SOL     OW15445   2.412   2.058   0.885
 4968SOL    HW115446   2.407   2.053   0.985
 4968SOL    HW215447   2.414   2.154   0.856
 4969SOL     OW15448   2.870   3.318   0.477
 4969SOL    HW115449   2.824   3.390   0.425
 4969SOL    HW215450   2.866   3.338   0.575
 4970SOL     OW15451   2.213   3.663   0.853
 4970SOL    HW115452   2.263   3.577   0.859
 4970SOL    HW215453   2.278   3.740   0.850
 4971SOL     OW15454   3.657   2.928   0.873
 4971SOL    HW115455   3.595   2.913   0.797
 4971SOL    HW215456   3.605   2.939   0.958
 4972SOL     OW15457   3.089   3.412   1.506
 4972SOL    HW115458   3.095   3.335   1.570
 4972SOL    HW215459   3.037   3.386   1.426
 4973SOL     OW15460   2.183   2.805   0.242
 4973SOL    HW115461   2.265   2.844   0.200
 4973SOL    HW215462   2.156   2.723   0.193
 4974SOL     OW15463   3.320   2.597   0.728
 4974SOL    HW115464   3.315   2.532   0.803
 4974SOL    HW215465   3.400   2.656   0.741
 4975SOL     OW15466   2.323   3.128   1.727
 4975SOL    HW115467   2.273   3.129   1.641
 4975SOL    HW215468   2.260   3.110   1.803
 4976SOL     OW15469   2.973   3.638   0.237
 4976SOL    HW115470   2.913   3.576   0.287
 4976SOL    HW215471   3.004   3.594   0.152
 4977SOL     OW15472   3.494   3.239   0.081
 4977SOL    HW115473   3.462   3.333   0.071
 4977SOL    HW215474   3.418   3.176   0.069
 4978SOL     OW15475   2.326   3.605   0.323
 4978SOL    HW115476   2.359   3.644   0.409
 4978SOL    HW215477   2.402   3.598   0.258
 4979SOL     OW15478   3.262   1.969   0.426
 4979SOL    HW115479   3.238   1.932   0.336
 4979SOL    HW215480   3.361   1.985   0.430
 4980SOL     OW15481   2.111   3.647   1.241
 4980SOL    HW115482   2.168   3.582   1.291
 4980SOL    HW215483   2.095   3.614   1.148
 4981SOL     OW15484   2.802   3.560   0.904
 4981SOL    HW115485   2.882   3.503   0.925
 4981SOL    HW215486   2.753   3.520   0.827
 4982SOL     OW15487   2.244   2.562   0.480
 4982SOL    HW115488   2.289   2.472   0.477
 4982SOL    HW215489   2.150   2.551   0.513
 4983SOL     OW15490   3.409   2.084   1.729
 4983SOL    HW115491   3.404   2.121   1.821
 4983SOL    HW215492   3.337   2.015   1.717
 4984SOL     OW15493   2.643   2.126   1.749
 4984SOL    HW115494   2.710   2.065   1.792
 4984SOL    HW215495   2.570   2.145   1.814
 4985SOL     OW15496   2.750   3.376   1.195
 4985SOL    HW115497   2.727   3.351   1.101
 4985SOL    HW215498   2.811   3.307   1.234
 4986SOL     OW15499   3.213   2.452   1.433
 4986SOL    HW115500   3.241   2.409   1.518
 4986SOL    HW215501   3.238   2.548   1.434
 4987SOL     OW15502   2.665   3.264   0.924
 4987SOL    HW115503   2.755   3.278   0.882
 4987SOL    HW215504   2.594   3.266   0.853
 4988SOL     OW15505   2.784   2.365   0.899
 4988SOL    HW115506   2.759   2.356   0.803
 4988SOL    HW215507   2.832   2.283   0.930
 4989SOL     OW15508   2.401   1.926   0.512
 4989SOL    HW115509   2.320   1.927   0.570
 4989SOL    HW215510   2.404   2.009   0.457
 4990SOL     OW15511   3.296   3.050   0.041
 4990SOL    HW115512   3.328   2.974   0.098
 4990SOL    HW215513   3.204   3.077   0.071
 4991SOL     OW15514   2.797   2.098   0.480
 4991SOL    HW115515   2.749   2.139   0.402
 4991SOL    HW215516   2.896   2.096   0.461
 4992SOL     OW15517   2.938   2.545   1.464
 4992SOL    HW115518   2.858   2.484   1.467
 4992SOL    HW215519   3.019   2.492   1.440
 4993SOL     OW15520   3.089   3.432   0.793
 4993SOL    HW115521   3.110   3.506   0.728
 4993SOL    HW215522   3.157   3.432   0.866
 4994SOL     OW15523   2.321   3.014   0.741
 4994SOL    HW115524   2.250   2.987   0.806
 4994SOL    HW215525   2.295   2.986   0.648
 4995SOL     OW15526   3.133   3.659   0.591
 4995SOL    HW115527   3.177   3.723   0.527
 4995SOL    HW215528   3.083   3.711   0.661
 4996SOL     OW15529   2.894   2.411   0.016
 4996SOL    HW115530   2.853   2.493  -0.023
 4996SOL    HW215531   2.958   2.437   0.089
 4997SOL     OW15532   1.940   2.418   1.386
 4997SOL    HW115533   2.032   2.417   1.345
 4997SOL    HW215534   1.934   2.492   1.453
 4998SOL     OW15535   2.423   2.084   1.147
 4998SOL    HW115536   2.461   2.000   1.184
 4998SOL    HW215537   2.335   2.103   1.191
 4999SOL     OW15538   2.728   2.316   0.642
 4999SOL    HW115539   2.696   2.388   0.580
 4999SOL    HW215540   2.752   2.235   0.589
 5000SOL     OW15541   2.879   1.901   0.753
 5000SOL    HW115542   2.807   1.906   0.684
 5000SOL    HW215543   2.855   1.832   0.822
 5001SOL     OW15544   3.291   3.035   0.867
 5001SOL    HW115545   3.236   2.951   0.860
 5001SOL    HW215546   3.317   3.064   0.775
 5002SOL     OW15547   3.328   2.452   0.992
 5002SOL    HW115548   3.298   2.357   0.999
 5002SOL    HW215549   3.401   2.468   1.058
 5003SOL     OW15550   3.719   2.695   0.377
 5003SOL    HW115551   3.761   2.631   0.441
 5003SOL    HW215552   3.681   2.644   0.299
 5004SOL     OW15553   2.350   3.247   0.174
 5004SOL    HW115554   2.263   3.232   0.221
 5004SOL    HW215555   2.333   3.273   0.079
 5005SOL     OW15556   3.526   3.142   0.657
 5005SOL    HW115557   3.625   3.150   0.671
 5005SOL    HW215558   3.481   3.226   0.688
 5006SOL     OW15559   3.252   2.437   0.078
 5006SOL    HW115560   3.198   2.416   0.159
 5006SOL    HW215561   3.343   2.396   0.087
 5007SOL     OW15562   2.389   2.118   0.328
 5007SOL    HW115563   2.416   2.059   0.253
 5007SOL    HW215564   2.389   2.213   0.297
 5008SOL     OW15565   3.616   3.085   1.588
 5008SOL    HW115566   3.707   3.046   1.575
 5008SOL    HW215567   3.624   3.181   1.612
 5009SOL     OW15568   2.926   3.209   1.340
 5009SOL    HW115569   2.846   3.186   1.395
 5009SOL    HW215570   3.009   3.183   1.389
 5010SOL     OW15571   3.454   3.491   1.625
 5010SOL    HW115572   3.481   3.525   1.535
 5010SOL    HW215573   3.533   3.453   1.671
 5011SOL     OW15574   2.973   3.057   1.100
 5011SOL    HW115575   2.933   3.101   1.181
 5011SOL    HW215576   2.932   3.094   1.017
 5012SOL     OW15577   3.500   2.961   1.079
 5012SOL    HW115578   3.505   3.042   1.138
 5012SOL    HW215579   3.414   2.963   1.028
 5013SOL     OW15580   2.777   1.951   1.402
 5013SOL    HW115581   2.802   1.931   1.307
 5013SOL    HW215582   2.849   2.007   1.444
 5014SOL     OW15583   2.842   2.978   1.719
 5014SOL    HW115584   2.743   2.984   1.729
 5014SOL    HW215585   2.865   2.898   1.663
 5015SOL     OW15586   2.567   2.912   0.368
 5015SOL    HW115587   2.553   2.919   0.467
 5015SOL    HW215588   2.651   2.861   0.350
 5016SOL     OW15589   2.272   2.675   1.251
 5016SOL    HW115590   2.358   2.687   1.301
 5016SOL    HW215591   2.230   2.588   1.278
 5017SOL     OW15592   3.136   2.248   1.262
 5017SOL    HW115593   3.157   2.322   1.326
 5017SOL    HW215594   3.047   2.265   1.219
 5018SOL     OW15595   1.926   3.426   1.331
 5018SOL    HW115596   1.880   3.508   1.297
 5018SOL    HW215597   2.024   3.445   1.340
 5019SOL     OW15598   2.229   2.962   0.501
 5019SOL    HW115599   2.222   3.045   0.445
 5019SOL    HW215600   2.233   2.882   0.441
 5020SOL     OW15601   2.428   2.399   0.865
 5020SOL    HW115602   2.440   2.465   0.791
 5020SOL    HW215603   2.474   2.433   0.948
 5021SOL     OW15604   3.114   3.210   0.388
 5021SOL    HW115605   3.164   3.287   0.428
 5021SOL    HW215606   3.019   3.212   0.420
 5022SOL     OW15607   3.134   3.307   1.142
 5022SOL    HW115608   3.181   3.320   1.229
 5022SOL    HW215609   3.068   3.233   1.151
 5023SOL     OW15610   3.444   2.501   0.472
 5023SOL    HW115611   3.413   2.562   0.545
 5023SOL    HW215612   3.494   2.553   0.403
 5024SOL     OW15613   2.216   3.372   1.329
 5024SOL    HW115614   2.195   3.328   1.242
 5024SOL    HW215615   2.313   3.398   1.332
 5025SOL     OW15616   2.264   2.613   1.598
 5025SOL    HW115617   2.332   2.668   1.551
 5025SOL    HW215618   2.304   2.525   1.625
 5026SOL     OW15619   3.449   2.641   1.670
 5026SOL    HW115620   3.357   2.679   1.665
 5026SOL    HW215621   3.509   2.688   1.605
 5027SOL     OW15622   2.875   1.967   1.770
 5027SOL    HW115623   2.881   2.052   1.718
 5027SOL    HW215624   2.907   1.891   1.713
 5028SOL     OW15625   2.366   1.912   1.740
 5028SOL    HW115626   2.324   1.855   1.670
 5028SOL    HW215627   2.300   1.981   1.772
 5029SOL     OW15628   2.435   2.732   1.029
 5029SOL    HW115629   2.479   2.821   1.020
 5029SOL    HW215630   2.372   2.732   1.106
 5030SOL     OW15631   3.222   2.724   1.045
 5030SOL    HW115632   3.147   2.724   0.979
 5030SOL    HW215633   3.259   2.632   1.054
 5031SOL     OW15634   3.071   2.387   0.275
 5031SOL    HW115635   3.084   2.303   0.329
 5031SOL    HW215636   3.042   2.461   0.335
 5032SOL     OW15637   1.899   3.172   1.282
 5032SOL    HW115638   1.952   3.123   1.350
 5032SOL    HW215639   1.921   3.270   1.287
 5033SOL     OW15640   2.594   2.496   1.064
 5033SOL    HW115641   2.653   2.470   0.988
 5033SOL    HW215642   2.566   2.592   1.053
 5034SOL     OW15643   3.590   2.797   1.854
 5034SOL    HW115644   3.544   2.790   1.765
 5034SOL    HW215645   3.528   2.841   1.920
 5035SOL     OW15646   2.169   1.925   0.618
 5035SOL    HW115647   2.158   2.019   0.651
 5035SOL    HW215648   2.164   1.862   0.695
 5036SOL     OW15649   3.484   2.229   0.374
 5036SOL    HW115650   3.486   2.153   0.438
 5036SOL    HW215651   3.436   2.306   0.414
 5037SOL     OW15652   2.885   2.628   0.966
 5037SOL    HW115653   2.900   2.649   1.062
 5037SOL    HW215654   2.855   2.533   0.957
 5038SOL     OW15655   2.842   3.435   1.700
 5038SOL    HW115656   2.822   3.479   1.612
 5038SOL    HW215657   2.881   3.344   1.684
 5039SOL     OW15658   3.721   3.380   1.605
 5039SOL    HW115659   3.735   3.407   1.510
 5039SOL    HW215660   3.804   3.402   1.658
 5040SOL     OW15661   2.212   2.760   1.804
 5040SOL    HW115662   2.288   2.804   1.852
 5040SOL    HW215663   2.247   2.713   1.722
 5041SOL     OW15664   3.402   2.136   0.125
 5041SOL    HW115665   3.341   2.061   0.148
 5041SOL    HW215666   3.424   2.188   0.208
 5042SOL     OW15667   3.165   2.700   0.042
 5042SOL    HW115668   3.199   2.607   0.057
 5042SOL    HW215669   3.183   2.727  -0.053
 5043SOL     OW15670   2.930   3.195   0.849
 5043SOL    HW115671   2.937   3.111   0.794
 5043SOL    HW215672   2.992   3.264   0.813
 5044SOL     OW15673   2.181   2.672   0.949
 5044SOL    HW115674   2.274   2.708   0.954
 5044SOL    HW215675   2.175   2.587   1.001
 5045SOL     OW15676   2.201   2.371   1.006
 5045SOL    HW115677   2.149   2.288   0.989
 5045SOL    HW215678   2.278   2.376   0.942
 5046SOL     OW15679   3.000   2.242   1.678
 5046SOL    HW115680   2.955   2.305   1.742
 5046SOL    HW215681   3.093   2.273   1.661
 5047SOL     OW15682   3.022   2.069   1.477
 5047SOL    HW115683   3.022   2.133   1.554
 5047SOL    HW215684   3.050   2.117   1.394
 5048SOL     OW15685   1.870   3.188   0.200
 5048SOL    HW115686   1.777   3.209   0.169
 5048SOL    HW215687   1.880   3.089   0.213
 5049SOL     OW15688   1.950   3.663   0.927
 5049SOL    HW115689   1.908   3.577   0.900
 5049SOL    HW215690   2.044   3.666   0.893
 5050SOL     OW15691   2.366   3.430   0.910
 5050SOL    HW115692   2.432   3.504   0.919
 5050SOL    HW215693   2.410   3.351   0.868
 5051SOL     OW15694   2.864   2.658   1.238
 5051SOL    HW115695   2.905   2.626   1.324
 5051SOL    HW215696   2.768   2.631   1.235
 5052SOL     OW15697   1.902   2.406   1.114
 5052SOL    HW115698   1.987   2.373   1.073
 5052SOL    HW215699   1.915   2.421   1.212
 5053SOL     OW15700   2.051   2.382   1.722
 5053SOL    HW115701   2.110   2.342   1.652
 5053SOL    HW215702   1.993   2.453   1.681
 5054SOL     OW15703   3.231   2.812   1.660
 5054SOL    HW115704   3.270   2.901   1.680
 5054SOL    HW215705   3.241   2.792   1.563
 5055SOL     OW15706   2.677   2.434   0.325
 5055SOL    HW115707   2.684   2.345   0.279
 5055SOL    HW215708   2.583   2.468   0.317
 5056SOL     OW15709   3.519   2.466   1.206
 5056SOL    HW115710   3.481   2.397   1.268
 5056SOL    HW215711   3.601   2.430   1.162
 5057SOL     OW15712   2.114   3.426   1.744
 5057SOL    HW115713   2.084   3.483   1.820
 5057SOL    HW215714   2.107   3.329   1.770
 5058SOL     OW15715   2.533   2.326   1.269
 5058SOL    HW115716   2.499   2.237   1.239
 5058SOL    HW215717   2.559   2.380   1.189
 5059SOL     OW15718   2.792   3.540   1.465
 5059SOL    HW115719   2.768   3.522   1.370
 5059SOL    HW215720   2.822   3.634   1.475
 5060SOL     OW15721   2.335   2.362   0.191
 5060SOL    HW115722   2.396   2.442   0.195
 5060SOL    HW215723   2.240   2.393   0.198
 5061SOL     OW15724   2.021   2.999   1.466
 5061SOL    HW115725   2.043   2.938   1.542
 5061SOL    HW215726   2.031   2.950   1.380
 5062SOL     OW15727   3.209   2.921   1.234
 5062SOL    HW115728   3.233   2.858   1.160
 5062SOL    HW215729   3.119   2.961   1.216
 5063SOL     OW15730   3.164   2.717   0.309
 5063SOL    HW115731   3.078   2.686   0.351
 5063SOL    HW215732   3.160   2.703   0.210
 5064SOL     OW15733   3.621   3.609   1.154
 5064SOL    HW115734   3.682   3.639   1.081
 5064SOL    HW215735   3.583   3.520   1.132
 5065SOL     OW15736   3.114   3.593   1.128
 5065SOL    HW115737   3.198   3.598   1.074
 5065SOL    HW215738   3.091   3.497   1.146
 5066SOL     OW15739   1.945   3.120   1.022
 5066SOL    HW115740   1.940   3.119   1.122
 5066SOL    HW215741   1.862   3.079   0.984
 5067SOL     OW15742   2.550   3.524   1.716
 5067SOL    HW115743   2.494   3.605   1.725
 5067SOL    HW215744   2.602   3.528   1.630
 5068SOL     OW15745   2.765   1.948   0.133
 5068SOL    HW115746   2.816   1.949   0.047
 5068SOL    HW215747   2.821   1.906   0.204
 5069SOL     OW15748   3.588   1.997   0.523
 5069SOL    HW115749   3.661   1.980   0.456
 5069SOL    HW215750   3.557   1.910   0.561
 5070SOL     OW15751   3.250   3.435   0.477
 5070SOL    HW115752   3.317   3.447   0.403
 5070SOL    HW215753   3.210   3.524   0.500
 5071SOL     OW15754   1.992   3.656   1.851
 5071SOL    HW115755   1.951   3.582   1.904
 5071SOL    HW215756   2.056   3.707   1.909
 5072SOL     OW15757   3.142   2.789   0.672
 5072SOL    HW115758   3.202   2.708   0.674
 5072SOL    HW215759   3.182   2.858   0.612
 5073SOL     OW15760   2.692   3.135   1.422
 5073SOL    HW115761   2.687   3.168   1.517
 5073SOL    HW215762   2.606   3.154   1.376
 5074SOL     OW15763   2.534   3.478   0.154
 5074SOL    HW115764   2.543   3.488   0.055
 5074SOL    HW215765   2.494   3.389   0.175
 5075SOL     OW15766   3.512   3.582   1.394
 5075SOL    HW115767   3.565   3.592   1.310
 5075SOL    HW215768   3.485   3.672   1.428
 5076SOL     OW15769   3.703   2.037   0.963
 5076SOL    HW115770   3.742   1.952   0.927
 5076SOL    HW215771   3.605   2.039   0.944
 5077SOL     OW15772   3.056   3.474   0.031
 5077SOL    HW115773   3.062   3.381   0.068
 5077SOL    HW215774   2.997   3.474  -0.049
 5078SOL     OW15775   2.684   2.864   1.372
 5078SOL    HW115776   2.724   2.863   1.280
 5078SOL    HW215777   2.694   2.956   1.412
 5079SOL     OW15778   2.778   2.772   0.291
 5079SOL    HW115779   2.841   2.810   0.223
 5079SOL    HW215780   2.818   2.689   0.330
 5080SOL     OW15781   3.366   3.469   0.044
 5080SOL    HW115782   3.274   3.506   0.051
 5080SOL    HW215783   3.404   3.489  -0.046
 5081SOL     OW15784   2.234   3.150   1.490
 5081SOL    HW115785   2.221   3.243   1.456
 5081SOL    HW215786   2.150   3.098   1.477
 5082SOL     OW15787   3.476   3.154   1.289
 5082SOL    HW115788   3.536   3.157   1.369
 5082SOL    HW215789   3.401   3.218   1.302
 5083SOL     OW15790   2.901   2.960   0.696
 5083SOL    HW115791   2.831   2.913   0.750
 5083SOL    HW215792   2.960   2.892   0.653
 5084SOL     OW15793   2.876   2.098   0.971
 5084SOL    HW115794   2.868   2.062   0.878
 5084SOL    HW215795   2.874   2.022   1.036
 5085SOL     OW15796   2.452   3.349   0.491
 5085SOL    HW115797   2.494   3.291   0.421
 5085SOL    HW215798   2.408   3.428   0.447
 5086SOL     OW15799   3.571   2.247   1.381
 5086SOL    HW115800   3.644   2.316   1.385
 5086SOL    HW215801   3.599   2.172   1.322
 5087SOL     OW15802   2.117   3.210   0.290
 5087SOL    HW115803   2.021   3.211   0.263
 5087SOL    HW215804   2.129   3.263   0.374
 5088SOL     OW15805   1.967   2.875   1.726
 5088SOL    HW115806   1.890   2.842   1.780
 5088SOL    HW215807   2.052   2.845   1.768
 5089SOL     OW15808   2.534   2.065   1.489
 5089SOL    HW115809   2.624   2.049   1.449
 5089SOL    HW215810   2.542   2.070   1.588
 5090SOL     OW15811   1.937   2.207   0.033
 5090SOL    HW115812   1.845   2.179   0.004
 5090SOL    HW215813   1.968   2.284  -0.023
 5091SOL     OW15814   3.302   2.718   1.398
 5091SOL    HW115815   3.245   2.770   1.335
 5091SOL    HW215816   3.398   2.730   1.374
 5092SOL     OW15817   3.045   3.197   0.119
 5092SOL    HW115818   2.946   3.186   0.121
 5092SOL    HW215819   3.079   3.212   0.212
 5093SOL     OW15820   2.475   2.704   1.431
 5093SOL    HW115821   2.531   2.785   1.414
 5093SOL    HW215822   2.534   2.624   1.434
 5094SOL     OW15823   3.355   3.629   0.959
 5094SOL    HW115824   3.388   3.693   0.890
 5094SOL    HW215825   3.421   3.623   1.034
 5095SOL     OW15826   2.578   2.427   1.708
 5095SOL    HW115827   2.597   2.492   1.782
 5095SOL    HW215828   2.638   2.347   1.717
 5096SOL     OW15829   3.312   3.082   1.633
 5096SOL    HW115830   3.303   3.072   1.732
 5096SOL    HW215831   3.408   3.075   1.607
 5097SOL     OW15832   2.252   3.603   1.560
 5097SOL    HW115833   2.161   3.644   1.558
 5097SOL    HW215834   2.245   3.509   1.592
 5098SOL     OW15835   3.536   2.745   1.254
 5098SOL    HW115836   3.509   2.656   1.217
 5098SOL    HW215837   3.537   2.813   1.181
 5099SOL     OW15838   3.087   2.187   0.449
 5099SOL    HW115839   3.152   2.113   0.438
 5099SOL    HW215840   3.107   2.237   0.533
 5100SOL     OW15841   2.456   2.607   0.652
 5100SOL    HW115842   2.506   2.692   0.633
 5100SOL    HW215843   2.368   2.609   0.604
 5101SOL     OW15844   3.639   2.204   1.642
 5101SOL    HW115845   3.622   2.235   1.548
 5101SOL    HW215846   3.555   2.167   1.680
 5102SOL     OW15847   3.592   2.796   1.517
 5102SOL    HW115848   3.630   2.887   1.532
 5102SOL    HW215849   3.584   2.779   1.418
 5103SOL     OW15850   2.721   3.236   0.016
 5103SOL    HW115851   2.675   3.251   0.104
 5103SOL    HW215852   2.765   3.321  -0.014
 5104SOL     OW15853   2.523   3.652   0.953
 5104SOL    HW115854   2.477   3.740   0.940
 5104SOL    HW215855   2.622   3.664   0.946
 5105SOL     OW15856   2.721   2.818   0.861
 5105SOL    HW115857   2.775   2.749   0.909
 5105SOL    HW215858   2.689   2.887   0.927
 5106SOL     OW15859   2.945   2.846   0.087
 5106SOL    HW115860   2.922   2.899   0.005
 5106SOL    HW215861   3.026   2.790   0.068
 5107SOL     OW15862   3.723   3.431   0.851
 5107SOL    HW115863   3.652   3.419   0.781
 5107SOL    HW215864   3.724   3.352   0.911
 5108SOL     OW15865   2.083   3.176   1.844
 5108SOL    HW115866   2.018   3.103   1.823
 5108SOL    HW215867   2.087   3.190   1.942
 5109SOL     OW15868   1.941   3.102   0.653
 5109SOL    HW115869   1.940   3.055   0.741
 5109SOL    HW215870   2.023   3.074   0.602
 5110SOL     OW15871   2.534   3.253   1.624
 5110SOL    HW115872   2.456   3.203   1.662
 5110SOL    HW215873   2.531   3.348   1.655
 5111SOL     OW15874   3.686   2.054   1.227
 5111SOL    HW115875   3.682   1.964   1.271
 5111SOL    HW215876   3.689   2.043   1.128
 5112SOL     OW15877   2.290   2.286   0.520
 5112SOL    HW115878   2.320   2.214   0.458
 5112SOL    HW215879   2.251   2.246   0.603
 5113SOL     OW15880   3.567   3.349   1.104
 5113SOL    HW115881   3.474   3.324   1.077
 5113SOL    HW215882   3.593   3.299   1.186
 5114SOL     OW15883   2.179   2.409   1.280
 5114SOL    HW115884   2.217   2.350   1.352
 5114SOL    HW215885   2.219   2.383   1.192
 5115SOL     OW15886   2.674   3.448   0.687
 5115SOL    HW115887   2.706   3.458   0.593
 5115SOL    HW215888   2.595   3.386   0.689
 5116SOL     OW15889   3.286   2.076   1.112
 5116SOL    HW115890   3.338   2.011   1.167
 5116SOL    HW215891   3.237   2.139   1.173
 5117SOL     OW15892   2.863   1.896   1.154
 5117SOL    HW115893   2.800   1.824   1.123
 5117SOL    HW215894   2.956   1.860   1.154
 5118SOL     OW15895   2.632   3.192   0.301
 5118SOL    HW115896   2.586   3.105   0.318
 5118SOL    HW215897   2.723   3.189   0.342
 5119SOL     OW15898   2.480   3.429   1.284
 5119SOL    HW115899   2.475   3.511   1.341
 5119SOL    HW215900   2.569   3.426   1.239
 5120SOL     OW15901   3.214   1.914   0.168
 5120SOL    HW115902   3.249   1.873   0.084
 5120SOL    HW215903   3.124   1.876   0.188
 5121SOL     OW15904   3.162   2.315   0.691
 5121SOL    HW115905   3.103   2.395   0.695
 5121SOL    HW215906   3.177   2.280   0.784
 5122SOL     OW15907   3.455   2.083   0.882
 5122SOL    HW115908   3.371   2.082   0.936
 5122SOL    HW215909   3.457   2.166   0.826
 5123SOL     OW15910   1.901   2.939   0.300
 5123SOL    HW115911   2.000   2.928   0.291
 5123SOL    HW215912   1.861   2.853   0.332
 5124SOL     OW15913   2.737   3.508   0.337
 5124SOL    HW115914   2.660   3.473   0.283
 5124SOL    HW215915   2.705   3.579   0.399
 5125SOL     OW15916   2.092   2.490   1.975
 5125SOL    HW115917   1.999   2.488   2.012
 5125SOL    HW215918   2.093   2.451   1.883
 5126SOL     OW15919   1.881   2.230   2.509
 5126SOL    HW115920   1.799   2.273   2.548
 5126SOL    HW215921   1.853   2.157   2.446
 5127SOL     OW15922   2.431   3.137   3.027
 5127SOL    HW115923   2.338   3.130   2.990
 5127SOL    HW215924   2.442   3.226   3.071
 5128SOL     OW15925   3.417   3.373   2.565
 5128SOL    HW115926   3.360   3.357   2.646
 5128SOL    HW215927   3.358   3.383   2.485
 5129SOL     OW15928   2.997   2.565   2.579
 5129SOL    HW115929   3.054   2.643   2.554
 5129SOL    HW215930   2.937   2.591   2.655
 5130SOL     OW15931   3.617   2.469   2.093
 5130SOL    HW115932   3.605   2.456   1.994
 5130SOL    HW215933   3.587   2.388   2.142
 5131SOL     OW15934   2.630   3.006   2.885
 5131SOL    HW115935   2.552   3.023   2.945
 5131SOL    HW215936   2.664   3.093   2.849
 5132SOL     OW15937   2.712   2.660   3.685
 5132SOL    HW115938   2.708   2.736   3.750
 5132SOL    HW215939   2.734   2.696   3.594
 5133SOL     OW15940   2.547   2.874   2.527
 5133SOL    HW115941   2.616   2.858   2.597
 5133SOL    HW215942   2.474   2.931   2.565
 5134SOL     OW15943   2.548   3.023   3.665
 5134SOL    HW115944   2.608   3.102   3.679
 5134SOL    HW215945   2.462   3.054   3.624
 5135SOL     OW15946   2.197   3.297   2.923
 5135SOL    HW115947   2.119   3.266   2.870
 5135SOL    HW215948   2.255   3.355   2.866
 5136SOL     OW15949   3.322   3.367   3.201
 5136SOL    HW115950   3.346   3.461   3.227
 5136SOL    HW215951   3.306   3.313   3.283
 5137SOL     OW15952   2.300   2.254   3.361
 5137SOL    HW115953   2.382   2.198   3.370
 5137SOL    HW215954   2.219   2.196   3.365
 5138SOL     OW15955   3.465   2.309   2.599
 5138SOL    HW115956   3.391   2.355   2.549
 5138SOL    HW215957   3.516   2.377   2.652
 5139SOL     OW15958   2.093   3.575   2.345
 5139SOL    HW115959   2.127   3.652   2.399
 5139SOL    HW215960   2.137   3.575   2.255
 5140SOL     OW15961   2.989   3.203   3.552
 5140SOL    HW115962   3.036   3.203   3.640
 5140SOL    HW215963   2.941   3.116   3.541
 5141SOL     OW15964   2.092   3.296   2.400
 5141SOL    HW115965   2.066   3.392   2.400
 5141SOL    HW215966   2.021   3.242   2.445
 5142SOL     OW15967   2.102   2.953   2.748
 5142SOL    HW115968   2.116   2.869   2.800
 5142SOL    HW215969   2.047   3.017   2.803
 5143SOL     OW15970   2.482   3.648   3.301
 5143SOL    HW115971   2.390   3.631   3.336
 5143SOL    HW215972   2.510   3.740   3.327
 5144SOL     OW15973   2.468   2.826   1.985
 5144SOL    HW115974   2.475   2.910   1.931
 5144SOL    HW215975   2.514   2.839   2.073
 5145SOL     OW15976   3.456   1.976   3.342
 5145SOL    HW115977   3.438   2.043   3.270
 5145SOL    HW215978   3.453   2.022   3.431
 5146SOL     OW15979   1.984   2.505   2.425
 5146SOL    HW115980   1.939   2.417   2.442
 5146SOL    HW215981   1.983   2.559   2.509
 5147SOL     OW15982   3.704   3.629   2.221
 5147SOL    HW115983   3.758   3.600   2.301
 5147SOL    HW215984   3.734   3.719   2.192
 5148SOL     OW15985   1.889   3.458   1.979
 5148SOL    HW115986   1.870   3.362   2.000
 5148SOL    HW215987   1.856   3.516   2.054
 5149SOL     OW15988   3.551   2.784   2.474
 5149SOL    HW115989   3.646   2.755   2.482
 5149SOL    HW215990   3.543   2.849   2.399
 5150SOL     OW15991   3.503   2.970   2.294
 5150SOL    HW115992   3.589   2.972   2.242
 5150SOL    HW215993   3.517   3.017   2.382
 5151SOL     OW15994   1.975   2.599   3.459
 5151SOL    HW115995   2.063   2.586   3.504
 5151SOL    HW215996   1.962   2.696   3.437
 5152SOL     OW15997   2.475   3.227   2.588
 5152SOL    HW115998   2.426   3.140   2.597
 5152SOL    HW215999   2.452   3.270   2.501
 5153SOL     OW16000   3.155   3.090   3.285
 5153SOL    HW116001   3.192   3.017   3.227
 5153SOL    HW216002   3.207   3.095   3.370
 5154SOL     OW16003   2.671   1.866   2.364
 5154SOL    HW116004   2.711   1.957   2.355
 5154SOL    HW216005   2.571   1.874   2.370
 5155SOL     OW16006   2.059   2.838   3.126
 5155SOL    HW116007   2.148   2.793   3.112
 5155SOL    HW216008   1.986   2.773   3.107
 5156SOL     OW16009   3.387   2.861   2.052
 5156SOL    HW116010   3.324   2.785   2.065
 5156SOL    HW216011   3.435   2.879   2.138
 5157SOL     OW16012   3.049   3.654   3.478
 5157SOL    HW116013   3.073   3.714   3.402
 5157SOL    HW216014   3.056   3.559   3.448
 5158SOL     OW16015   3.328   3.279   2.815
 5158SOL    HW116016   3.269   3.285   2.895
 5158SOL    HW216017   3.313   3.191   2.769
 5159SOL     OW16018   3.529   3.576   2.434
 5159SOL    HW116019   3.488   3.553   2.346
 5159SOL    HW216020   3.511   3.502   2.499
 5160SOL     OW16021   2.460   2.591   2.132
 5160SOL    HW116022   2.484   2.660   2.064
 5160SOL    HW216023   2.382   2.624   2.186
 5161SOL     OW16024   3.143   2.207   2.806
 5161SOL    HW116025   3.057   2.157   2.793
 5161SOL    HW216026   3.205   2.153   2.862
 5162SOL     OW16027   3.438   3.524   2.169
 5162SOL    HW116028   3.527   3.570   2.172
 5162SOL    HW216029   3.417   3.500   2.074
 5163SOL     OW16030   2.669   2.467   3.327
 5163SOL    HW116031   2.622   2.464   3.416
 5163SOL    HW216032   2.618   2.412   3.261
 5164SOL     OW16033   3.256   2.331   3.536
 5164SOL    HW116034   3.236   2.374   3.624
 5164SOL    HW216035   3.334   2.269   3.545
 5165SOL     OW16036   2.835   2.752   3.434
 5165SOL    HW116037   2.881   2.668   3.405
 5165SOL    HW216038   2.779   2.786   3.359
 5166SOL     OW16039   2.853   2.272   3.104
 5166SOL    HW116040   2.776   2.306   3.158
 5166SOL    HW216041   2.819   2.221   3.025
 5167SOL     OW16042   2.903   2.563   2.291
 5167SOL    HW116043   2.929   2.559   2.387
 5167SOL    HW216044   2.818   2.512   2.277
 5168SOL     OW16045   1.938   2.673   2.651
 5168SOL    HW116046   2.037   2.661   2.660
 5168SOL    HW216047   1.914   2.768   2.672
 5169SOL     OW16048   1.992   3.683   3.433
 5169SOL    HW116049   1.982   3.668   3.532
 5169SOL    HW216050   1.906   3.719   3.397
 5170SOL     OW16051   2.727   2.210   2.057
 5170SOL    HW116052   2.786   2.273   2.008
 5170SOL    HW216053   2.746   2.116   2.028
 5171SOL     OW16054   3.581   2.447   3.693
 5171SOL    HW116055   3.555   2.536   3.657
 5171SOL    HW216056   3.579   2.379   3.620
 5172SOL     OW16057   3.224   3.006   2.407
 5172SOL    HW116058   3.307   2.977   2.359
 5172SOL    HW216059   3.175   3.073   2.351
 5173SOL     OW16060   2.412   2.058   2.747
 5173SOL    HW116061   2.407   2.053   2.847
 5173SOL    HW216062   2.414   2.154   2.718
 5174SOL     OW16063   2.870   3.318   2.339
 5174SOL    HW116064   2.824   3.390   2.287
 5174SOL    HW216065   2.866   3.338   2.437
 5175SOL     OW16066   2.213   3.663   2.715
 5175SOL    HW116067   2.263   3.577   2.721
 5175SOL    HW216068   2.278   3.740   2.712
 5176SOL     OW16069   3.657   2.928   2.735
 5176SOL    HW116070   3.595   2.913   2.659
 5176SOL    HW216071   3.605   2.939   2.820
 5177SOL     OW16072   3.089   3.412   3.368
 5177SOL    HW116073   3.095   3.335   3.432
 5177SOL    HW216074   3.037   3.386   3.288
 5178SOL     OW16075   2.183   2.805   2.104
 5178SOL    HW116076   2.265   2.844   2.062
 5178SOL    HW216077   2.156   2.723   2.055
 5179SOL     OW16078   3.320   2.597   2.590
 5179SOL    HW116079   3.315   2.532   2.665
 5179SOL    HW216080   3.400   2.656   2.603
 5180SOL     OW16081   2.323   3.128   3.589
 5180SOL    HW116082   2.273   3.129   3.503
 5180SOL    HW216083   2.260   3.110   3.665
 5181SOL     OW16084   2.973   3.638   2.099
 5181SOL    HW116085   2.913   3.576   2.149
 5181SOL    HW216086   3.004   3.594   2.014
 5182SOL     OW16087   3.494   3.239   1.943
 5182SOL    HW116088   3.462   3.333   1.933
 5182SOL    HW216089   3.418   3.176   1.931
 5183SOL     OW16090   2.326   3.605   2.185
 5183SOL    HW116091   2.359   3.644   2.271
 5183SOL    HW216092   2.402   3.598   2.120
 5184SOL     OW16093   3.262   1.969   2.288
 5184SOL    HW116094   3.238   1.932   2.198
 5184SOL    HW216095   3.361   1.985   2.292
 5185SOL     OW16096   2.111   3.647   3.103
 5185SOL    HW116097   2.168   3.582   3.153
 5185SOL    HW216098   2.095   3.614   3.010
 5186SOL     OW16099   2.802   3.560   2.766
 5186SOL    HW116100   2.882   3.503   2.787
 5186SOL    HW216101   2.753   3.520   2.689
 5187SOL     OW16102   2.244   2.562   2.342
 5187SOL    HW116103   2.289   2.472   2.339
 5187SOL    HW216104   2.150   2.551   2.375
 5188SOL     OW16105   3.409   2.084   3.591
 5188SOL    HW116106   3.404   2.121   3.683
 5188SOL    HW216107   3.337   2.015   3.579
 5189SOL     OW16108   2.476   1.984   1.979
 5189SOL    HW116109   2.574   1.962   1.986
 5189SOL    HW216110   2.445   1.967   1.886
 5190SOL     OW16111   2.643   2.126   3.611
 5190SOL    HW116112   2.710   2.065   3.654
 5190SOL    HW216113   2.570   2.145   3.676
 5191SOL     OW16114   2.750   3.376   3.057
 5191SOL    HW116115   2.727   3.351   2.963
 5191SOL    HW216116   2.811   3.307   3.096
 5192SOL     OW16117   3.213   2.452   3.295
 5192SOL    HW116118   3.241   2.409   3.380
 5192SOL    HW216119   3.238   2.548   3.296
 5193SOL     OW16120   2.665   3.264   2.786
 5193SOL    HW116121   2.755   3.278   2.744
 5193SOL    HW216122   2.594   3.266   2.715
 5194SOL     OW16123   2.784   2.365   2.761
 5194SOL    HW116124   2.759   2.356   2.665
 5194SOL    HW216125   2.832   2.283   2.792
 5195SOL     OW16126   2.401   1.926   2.374
 5195SOL    HW116127   2.320   1.927   2.432
 5195SOL    HW216128   2.404   2.009   2.319
 5196SOL     OW16129   3.296   3.050   1.903
 5196SOL    HW116130   3.328   2.974   1.960
 5196SOL    HW216131   3.204   3.077   1.933
 5197SOL     OW16132   2.797   2.098   2.342
 5197SOL    HW116133   2.749   2.139   2.264
 5197SOL    HW216134   2.896   2.096   2.323
 5198SOL     OW16135   2.938   2.545   3.326
 5198SOL    HW116136   2.858   2.484   3.329
 5198SOL    HW216137   3.019   2.492   3.302
 5199SOL     OW16138   3.089   3.432   2.655
 5199SOL    HW116139   3.110   3.506   2.590
 5199SOL    HW216140   3.157   3.432   2.728
 5200SOL     OW16141   2.321   3.014   2.603
 5200SOL    HW116142   2.250   2.987   2.668
 5200SOL    HW216143   2.295   2.986   2.510
 5201SOL     OW16144   3.133   3.659   2.453
 5201SOL    HW116145   3.177   3.723   2.389
 5201SOL    HW216146   3.083   3.711   2.523
 5202SOL     OW16147   2.894   2.411   1.878
 5202SOL    HW116148   2.853   2.493   1.839
 5202SOL    HW216149   2.958   2.437   1.951
 5203SOL     OW16150   1.940   2.418   3.248
 5203SOL    HW116151   2.032   2.417   3.207
 5203SOL    HW216152   1.934   2.492   3.315
 5204SOL     OW16153   2.423   2.084   3.009
 5204SOL    HW116154   2.461   2.000   3.046
 5204SOL    HW216155   2.335   2.103   3.053
 5205SOL     OW16156   2.728   2.316   2.504
 5205SOL    HW116157   2.696   2.388   2.442
 5205SOL    HW216158   2.752   2.235   2.451
 5206SOL     OW16159   2.879   1.901   2.615
 5206SOL    HW116160   2.807   1.906   2.546
 5206SOL    HW216161   2.855   1.832   2.684
 5207SOL     OW16162   3.291   3.035   2.729
 5207SOL    HW116163   3.236   2.951   2.722
 5207SOL    HW216164   3.317   3.064   2.637
 5208SOL     OW16165   3.328   2.452   2.854
 5208SOL    HW116166   3.298   2.357   2.861
 5208SOL    HW216167   3.401   2.468   2.920
 5209SOL     OW16168   3.719   2.695   2.239
 5209SOL    HW116169   3.761   2.631   2.303
 5209SOL    HW216170   3.681   2.644   2.161
 5210SOL     OW16171   2.350   3.247   2.036
 5210SOL    HW116172   2.263   3.232   2.083
 5210SOL    HW216173   2.333   3.273   1.941
 5211SOL     OW16174   3.526   3.142   2.519
 5211SOL    HW116175   3.625   3.150   2.533
 5211SOL    HW216176   3.481   3.226   2.550
 5212SOL     OW16177   3.252   2.437   1.940
 5212SOL    HW116178   3.198   2.416   2.021
 5212SOL    HW216179   3.343   2.396   1.949
 5213SOL     OW16180   2.389   2.118   2.190
 5213SOL    HW116181   2.416   2.059   2.115
 5213SOL    HW216182   2.389   2.213   2.159
 5214SOL     OW16183   3.616   3.085   3.450
 5214SOL    HW116184   3.707   3.046   3.437
 5214SOL    HW216185   3.624   3.181   3.474
 5215SOL     OW16186   2.926   3.209   3.202
 5215SOL    HW116187   2.846   3.186   3.257
 5215SOL    HW216188   3.009   3.183   3.251
 5216SOL     OW16189   3.454   3.491   3.487
 5216SOL    HW116190   3.481   3.525   3.397
 5216SOL    HW216191   3.533   3.453   3.533
 5217SOL     OW16192   2.973   3.057   2.962
 5217SOL    HW116193   2.933   3.101   3.043
 5217SOL    HW216194   2.932   3.094   2.879
 5218SOL     OW16195   3.500   2.961   2.941
 5218SOL    HW116196   3.505   3.042   3.000
 5218SOL    HW216197   3.414   2.963   2.890
 5219SOL     OW16198   2.777   1.951   3.264
 5219SOL    HW116199   2.802   1.931   3.169
 5219SOL    HW216200   2.849   2.007   3.306
 5220SOL     OW16201   2.842   2.978   3.581
 5220SOL    HW116202   2.743   2.984   3.591
 5220SOL    HW216203   2.865   2.898   3.525
 5221SOL     OW16204   2.567   2.912   2.230
 5221SOL    HW116205   2.553   2.919   2.329
 5221SOL    HW216206   2.651   2.861   2.212
 5222SOL     OW16207   2.272   2.675   3.113
 5222SOL    HW116208   2.358   2.687   3.163
 5222SOL    HW216209   2.230   2.588   3.140
 5223SOL     OW16210   3.136   2.248   3.124
 5223SOL    HW116211   3.157   2.322   3.188
 5223SOL    HW216212   3.047   2.265   3.081
 5224SOL     OW16213   1.926   3.426   3.193
 5224SOL    HW116214   1.880   3.508   3.159
 5224SOL    HW216215   2.024   3.445   3.202
 5225SOL     OW16216   2.229   2.962   2.363
 5225SOL    HW116217   2.222   3.045   2.307
 5225SOL    HW216218   2.233   2.882   2.303
 5226SOL     OW16219   2.428   2.399   2.727
 5226SOL    HW116220   2.440   2.465   2.653
 5226SOL    HW216221   2.474   2.433   2.810
 5227SOL     OW16222   3.114   3.210   2.250
 5227SOL    HW116223   3.164   3.287   2.290
 5227SOL    HW216224   3.019   3.212   2.282
 5228SOL     OW16225   3.134   3.307   3.004
 5228SOL    HW116226   3.181   3.320   3.091
 5228SOL    HW216227   3.068   3.233   3.013
 5229SOL     OW16228   3.444   2.501   2.334
 5229SOL    HW116229   3.413   2.562   2.407
 5229SOL    HW216230   3.494   2.553   2.265
 5230SOL     OW16231   2.216   3.372   3.191
 5230SOL    HW116232   2.195   3.328   3.104
 5230SOL    HW216233   2.313   3.398   3.194
 5231SOL     OW16234   2.264   2.613   3.460
 5231SOL    HW116235   2.332   2.668   3.413
 5231SOL    HW216236   2.304   2.525   3.487
 5232SOL     OW16237   3.449   2.641   3.532
 5232SOL    HW116238   3.357   2.679   3.527
 5232SOL    HW216239   3.509   2.688   3.467
 5233SOL     OW16240   2.875   1.967   3.632
 5233SOL    HW116241   2.881   2.052   3.580
 5233SOL    HW216242   2.907   1.891   3.575
 5234SOL     OW16243   2.366   1.912   3.602
 5234SOL    HW116244   2.324   1.855   3.532
 5234SOL    HW216245   2.300   1.981   3.634
 5235SOL     OW16246   2.435   2.732   2.891
 5235SOL    HW116247   2.479   2.821   2.882
 5235SOL    HW216248   2.372   2.732   2.968
 5236SOL     OW16249   3.222   2.724   2.907
 5236SOL    HW116250   3.147   2.724   2.841
 5236SOL    HW216251   3.259   2.632   2.916
 5237SOL     OW16252   3.071   2.387   2.137
 5237SOL    HW116253   3.084   2.303   2.191
 5237SOL    HW216254   3.042   2.461   2.197
 5238SOL     OW16255   1.899   3.172   3.144
 5238SOL    HW116256   1.952   3.123   3.212
 5238SOL    HW216257   1.921   3.270   3.149
 5239SOL     OW16258   2.594   2.496   2.926
 5239SOL    HW116259   2.653   2.470   2.850
 5239SOL    HW216260   2.566   2.592   2.915
 5240SOL     OW16261   3.590   2.797   3.716
 5240SOL    HW116262   3.544   2.790   3.627
 5240SOL    HW216263   3.528   2.841   3.782
 5241SOL     OW16264   2.169   1.925   2.480
 5241SOL    HW116265   2.158   2.019   2.513
 5241SOL    HW216266   2.164   1.862   2.557
 5242SOL     OW16267   3.484   2.229   2.236
 5242SOL    HW116268   3.486   2.153   2.300
 5242SOL    HW216269   3.436   2.306   2.276
 5243SOL     OW16270   2.885   2.628   2.828
 5243SOL    HW116271   2.900   2.649   2.924
 5243SOL    HW216272   2.855   2.533   2.819
 5244SOL     OW16273   2.842   3.435   3.562
 5244SOL    HW116274   2.822   3.479   3.474
 5244SOL    HW216275   2.881   3.344   3.546
 5245SOL     OW16276   3.721   3.380   3.467
 5245SOL    HW116277   3.735   3.407   3.372
 5245SOL    HW216278   3.804   3.402   3.520
 5246SOL     OW16279   2.212   2.760   3.666
 5246SOL    HW116280   2.288   2.804   3.714
 5246SOL    HW216281   2.247   2.713   3.584
 5247SOL     OW16282   3.402   2.136   1.987
 5247SOL    HW116283   3.341   2.061   2.010
 5247SOL    HW216284   3.424   2.188   2.070
 5248SOL     OW16285   3.165   2.700   1.904
 5248SOL    HW116286   3.199   2.607   1.919
 5248SOL    HW216287   3.183   2.727   1.809
 5249SOL     OW16288   2.930   3.195   2.711
 5249SOL    HW116289   2.937   3.111   2.656
 5249SOL    HW216290   2.992   3.264   2.675
 5250SOL     OW16291   2.181   2.672   2.811
 5250SOL    HW116292   2.274   2.708   2.816
 5250SOL    HW216293   2.175   2.587   2.863
 5251SOL     OW16294   2.201   2.371   2.868
 5251SOL    HW116295   2.149   2.288   2.851
 5251SOL    HW216296   2.278   2.376   2.804
 5252SOL     OW16297   3.000   2.242   3.540
 5252SOL    HW116298   2.955   2.305   3.604
 5252SOL    HW216299   3.093   2.273   3.523
 5253SOL     OW16300   3.022   2.069   3.339
 5253SOL    HW116301   3.022   2.133   3.416
 5253SOL    HW216302   3.050   2.117   3.256
 5254SOL     OW16303   1.870   3.188   2.062
 5254SOL    HW116304   1.777   3.209   2.031
 5254SOL    HW216305   1.880   3.089   2.075
 5255SOL     OW16306   1.950   3.663   2.789
 5255SOL    HW116307   1.908   3.577   2.762
 5255SOL    HW216308   2.044   3.666   2.755
 5256SOL     OW16309   2.366   3.430   2.772
 5256SOL    HW116310   2.432   3.504   2.781
 5256SOL    HW216311   2.410   3.351   2.730
 5257SOL     OW16312   2.864   2.658   3.100
 5257SOL    HW116313   2.905   2.626   3.186
 5257SOL    HW216314   2.768   2.631   3.097
 5258SOL     OW16315   1.902   2.406   2.976
 5258SOL    HW116316   1.987   2.373   2.935
 5258SOL    HW216317   1.915   2.421   3.074
 5259SOL     OW16318   2.051   2.382   3.584
 5259SOL    HW116319   2.110   2.342   3.514
 5259SOL    HW216320   1.993   2.453   3.543
 5260SOL     OW16321   3.231   2.812   3.522
 5260SOL    HW116322   3.270   2.901   3.542
 5260SOL    HW216323   3.241   2.792   3.425
 5261SOL     OW16324   2.677   2.434   2.187
 5261SOL    HW116325   2.684   2.345   2.141
 5261SOL    HW216326   2.583   2.468   2.179
 5262SOL     OW16327   3.519   2.466   3.068
 5262SOL    HW116328   3.481   2.397   3.130
 5262SOL    HW216329   3.601   2.430   3.024
 5263SOL     OW16330   2.114   3.426   3.606
 5263SOL    HW116331   2.084   3.483   3.682
 5263SOL    HW216332   2.107   3.329   3.632
 5264SOL     OW16333   2.533   2.326   3.131
 5264SOL    HW116334   2.499   2.237   3.101
 5264SOL    HW216335   2.559   2.380   3.051
 5265SOL     OW16336   2.792   3.540   3.327
 5265SOL    HW116337   2.768   3.522   3.232
 5265SOL    HW216338   2.822   3.634   3.337
 5266SOL     OW16339   2.335   2.362   2.053
 5266SOL    HW116340   2.396   2.442   2.057
 5266SOL    HW216341   2.240   2.393   2.060
 5267SOL     OW16342   2.021   2.999   3.328
 5267SOL    HW116343   2.043   2.938   3.404
 5267SOL    HW216344   2.031   2.950   3.242
 5268SOL     OW16345   3.209   2.921   3.096
 5268SOL    HW116346   3.233   2.858   3.022
 5268SOL    HW216347   3.119   2.961   3.078
 5269SOL     OW16348   3.164   2.717   2.171
 5269SOL    HW116349   3.078   2.686   2.213
 5269SOL    HW216350   3.160   2.703   2.072
 5270SOL     OW16351   3.621   3.609   3.016
 5270SOL    HW116352   3.682   3.639   2.943
 5270SOL    HW216353   3.583   3.520   2.994
 5271SOL     OW16354   3.114   3.593   2.990
 5271SOL    HW116355   3.198   3.598   2.936
 5271SOL    HW216356   3.091   3.497   3.008
 5272SOL     OW16357   1.945   3.120   2.884
 5272SOL    HW116358   1.940   3.119   2.984
 5272SOL    HW216359   1.862   3.079   2.846
 5273SOL     OW16360   2.550   3.524   3.578
 5273SOL    HW116361   2.494   3.605   3.587
 5273SOL    HW216362   2.602   3.528   3.492
 5274SOL     OW16363   3.588   1.997   2.385
 5274SOL    HW116364   3.661   1.980   2.318
 5274SOL    HW216365   3.557   1.910   2.423
 5275SOL     OW16366   3.250   3.435   2.339
 5275SOL    HW116367   3.317   3.447   2.265
 5275SOL    HW216368   3.210   3.524   2.362
 5276SOL     OW16369   1.992   3.656   3.713
 5276SOL    HW116370   1.951   3.582   3.766
 5276SOL    HW216371   2.056   3.707   3.771
 5277SOL     OW16372   3.142   2.789   2.534
 5277SOL    HW116373   3.202   2.708   2.536
 5277SOL    HW216374   3.182   2.858   2.474
 5278SOL     OW16375   2.692   3.135   3.284
 5278SOL    HW116376   2.687   3.168   3.379
 5278SOL    HW216377   2.606   3.154   3.238
 5279SOL     OW16378   2.534   3.478   2.016
 5279SOL    HW116379   2.543   3.488   1.917
 5279SOL    HW216380   2.494   3.389   2.037
 5280SOL     OW16381   3.512   3.582   3.256
 5280SOL    HW116382   3.565   3.592   3.172
 5280SOL    HW216383   3.485   3.672   3.290
 5281SOL     OW16384   3.703   2.037   2.825
 5281SOL    HW116385   3.742   1.952   2.789
 5281SOL    HW216386   3.605   2.039   2.806
 5282SOL     OW16387   3.056   3.474   1.893
 5282SOL    HW116388   3.062   3.381   1.930
 5282SOL    HW216389   2.997   3.474   1.813
 5283SOL     OW16390   2.684   2.864   3.234
 5283SOL    HW116391   2.724   2.863   3.142
 5283SOL    HW216392   2.694   2.956   3.274
 5284SOL     OW16393   2.778   2.772   2.153
 5284SOL    HW116394   2.841   2.810   2.085
 5284SOL    HW216395   2.818   2.689   2.192
 5285SOL     OW16396   3.366   3.469   1.906
 5285SOL    HW116397   3.274   3.506   1.913
 5285SOL    HW216398   3.404   3.489   1.816
 5286SOL     OW16399   2.234   3.150   3.352
 5286SOL    HW116400   2.221   3.243   3.318
 5286SOL    HW216401   2.150   3.098   3.339
 5287SOL     OW16402   3.476   3.154   3.151
 5287SOL    HW116403   3.536   3.157   3.231
 5287SOL    HW216404   3.401   3.218   3.164
 5288SOL     OW16405   2.901   2.960   2.558
 5288SOL    HW116406   2.831   2.913   2.612
 5288SOL    HW216407   2.960   2.892   2.515
 5289SOL     OW16408   2.876   2.098   2.833
 5289SOL    HW116409   2.868   2.062   2.740
 5289SOL    HW216410   2.874   2.022   2.898
 5290SOL     OW16411   2.452   3.349   2.353
 5290SOL    HW116412   2.494   3.291   2.283
 5290SOL    HW216413   2.408   3.428   2.309
 5291SOL     OW16414   3.571   2.247   3.243
 5291SOL    HW116415   3.644   2.316   3.247
 5291SOL    HW216416   3.599   2.172   3.184
 5292SOL     OW16417   2.117   3.210   2.152
 5292SOL    HW116418   2.021   3.211   2.125
 5292SOL    HW216419   2.129   3.263   2.236
 5293SOL     OW16420   1.967   2.875   3.588
 5293SOL    HW116421   1.890   2.842   3.642
 5293SOL    HW216422   2.052   2.845   3.630
 5294SOL     OW16423   2.534   2.065   3.351
 5294SOL    HW116424   2.624   2.049   3.311
 5294SOL    HW216425   2.542   2.070   3.450
 5295SOL     OW16426   1.937   2.207   1.895
 5295SOL    HW116427   1.845   2.179   1.866
 5295SOL    HW216428   1.968   2.284   1.839
 5296SOL     OW16429   3.302   2.718   3.260
 5296SOL    HW116430   3.245   2.770   3.197
 5296SOL    HW216431   3.398   2.730   3.236
 5297SOL     OW16432   3.045   3.197   1.981
 5297SOL    HW116433   2.946   3.186   1.983
 5297SOL    HW216434   3.079   3.212   2.074
 5298SOL     OW16435   2.475   2.704   3.293
 5298SOL    HW116436   2.531   2.785   3.276
 5298SOL    HW216437   2.534   2.624   3.296
 5299SOL     OW16438   3.355   3.629   2.821
 5299SOL    HW116439   3.388   3.693   2.752
 5299SOL    HW216440   3.421   3.623   2.896
 5300SOL     OW16441   2.578   2.427   3.570
 5300SOL    HW116442   2.597   2.492   3.644
 5300SOL    HW216443   2.638   2.347   3.579
 5301SOL     OW16444   3.312   3.082   3.495
 5301SOL    HW116445   3.303   3.072   3.594
 5301SOL    HW216446   3.408   3.075   3.469
 5302SOL     OW16447   2.252   3.603   3.422
 5302SOL    HW116448   2.161   3.644   3.420
 5302SOL    HW216449   2.245   3.509   3.454
 5303SOL     OW16450   3.536   2.745   3.116
 5303SOL    HW116451   3.509   2.656   3.079
 5303SOL    HW216452   3.537   2.813   3.043
 5304SOL     OW16453   3.087   2.187   2.311
 5304SOL    HW116454   3.152   2.113   2.300
 5304SOL    HW216455   3.107   2.237   2.395
 5305SOL     OW16456   2.456   2.607   2.514
 5305SOL    HW116457   2.506   2.692   2.495
 5305SOL    HW216458   2.368   2.609   2.466
 5306SOL     OW16459   3.639   2.204   3.504
 5306SOL    HW116460   3.622   2.235   3.410
 5306SOL    HW216461   3.555   2.167   3.542
 5307SOL     OW16462   3.592   2.796   3.379
 5307SOL    HW116463   3.630   2.887   3.394
 5307SOL    HW216464   3.584   2.779   3.280
 5308SOL     OW16465   2.721   3.236   1.878
 5308SOL    HW116466   2.675   3.251   1.966
 5308SOL    HW216467   2.765   3.321   1.848
 5309SOL     OW16468   2.523   3.652   2.815
 5309SOL    HW116469   2.477   3.740   2.802
 5309SOL    HW216470   2.622   3.664   2.808
 5310SOL     OW16471   2.721   2.818   2.723
 5310SOL    HW116472   2.775   2.749   2.771
 5310SOL    HW216473   2.689   2.887   2.789
 5311SOL     OW16474   2.945   2.846   1.949
 5311SOL    HW116475   2.922   2.899   1.867
 5311SOL    HW216476   3.026   2.790   1.930
 5312SOL     OW16477   3.723   3.431   2.713
 5312SOL    HW116478   3.652   3.419   2.643
 5312SOL    HW216479   3.724   3.352   2.773
 5313SOL     OW16480   2.083   3.176   3.706
 5313SOL    HW116481   2.018   3.103   3.685
 5313SOL    HW216482   2.087   3.190   3.804
 5314SOL     OW16483   1.941   3.102   2.515
 5314SOL    HW116484   1.940   3.055   2.603
 5314SOL    HW216485   2.023   3.074   2.464
 5315SOL     OW16486   2.534   3.253   3.486
 5315SOL    HW116487   2.456   3.203   3.524
 5315SOL    HW216488   2.531   3.348   3.517
 5316SOL     OW16489   3.686   2.054   3.089
 5316SOL    HW116490   3.682   1.964   3.133
 5316SOL    HW216491   3.689   2.043   2.990
 5317SOL     OW16492   2.290   2.286   2.382
 5317SOL    HW116493   2.320   2.214   2.320
 5317SOL    HW216494   2.251   2.246   2.465
 5318SOL     OW16495   3.567   3.349   2.966
 5318SOL    HW116496   3.474   3.324   2.939
 5318SOL    HW216497   3.593   3.299   3.048
 5319SOL     OW16498   2.179   2.409   3.142
 5319SOL    HW116499   2.217   2.350   3.214
 5319SOL    HW216500   2.219   2.383   3.054
 5320SOL     OW16501   2.674   3.448   2.549
 5320SOL    HW116502   2.706   3.458   2.455
 5320SOL    HW216503   2.595   3.386   2.551
 5321SOL     OW16504   3.286   2.076   2.974
 5321SOL    HW116505   3.338   2.011   3.029
 5321SOL    HW216506   3.237   2.139   3.035
 5322SOL     OW16507   2.863   1.896   3.016
 5322SOL    HW116508   2.800   1.824   2.985
 5322SOL    HW216509   2.956   1.860   3.016
 5323SOL     OW16510   2.632   3.192   2.163
 5323SOL    HW116511   2.586   3.105   2.180
 5323SOL    HW216512   2.723   3.189   2.204
 5324SOL     OW16513   2.480   3.429   3.146
 5324SOL    HW116514   2.475   3.511   3.203
 5324SOL    HW216515   2.569   3.426   3.101
 5325SOL     OW16516   3.214   1.914   2.030
 5325SOL    HW116517   3.249   1.873   1.946
 5325SOL    HW216518   3.124   1.876   2.050
 5326SOL     OW16519   3.162   2.315   2.553
 5326SOL    HW116520   3.103   2.395   2.557
 5326SOL    HW216521   3.177   2.280   2.646
 5327SOL     OW16522   3.455   2.083   2.744
 5327SOL    HW116523   3.371   2.082   2.798
 5327SOL    HW216524   3.457   2.166   2.688
 5328SOL     OW16525   1.901   2.939   2.162
 5328SOL    HW116526   2.000   2.928   2.153
 5328SOL    HW216527   1.861   2.853   2.194
 5329SOL     OW16528   2.737   3.508   2.199
 5329SOL    HW116529   2.660   3.473   2.145
 5329SOL    HW216530   2.705   3.579   2.261
 5330SOL     OW16531   2.092   2.490   3.837
 5330SOL    HW116532   1.999   2.488   3.874
 5330SOL    HW216533   2.093   2.451   3.745
 5331SOL     OW16534   1.881   2.230   4.371
 5331SOL    HW116535   1.799   2.273   4.410
 5331SOL    HW216536   1.853   2.157   4.308
 5332SOL     OW16537   2.431   3.137   4.889
 5332SOL    HW116538   2.338   3.130   4.852
 5332SOL    HW216539   2.442   3.226   4.933
 5333SOL     OW16540   3.417   3.373   4.427
 5333SOL    HW116541   3.360   3.357   4.508
 5333SOL    HW216542   3.358   3.383   4.347
 5334SOL     OW16543   2.997   2.565   4.441
 5334SOL    HW116544   3.054   2.643   4.416
 5334SOL    HW216545   2.937   2.591   4.517
 5335SOL     OW16546   3.617   2.469   3.955
 5335SOL    HW116547   3.605   2.456   3.856
 5335SOL    HW216548   3.587   2.388   4.004
 5336SOL     OW16549   2.630   3.006   4.747
 5336SOL    HW116550   2.552   3.023   4.807
 5336SOL    HW216551   2.664   3.093   4.711
 5337SOL     OW16552   2.712   2.660   5.547
 5337SOL    HW116553   2.708   2.736   5.612
 5337SOL    HW216554   2.734   2.696   5.456
 5338SOL     OW16555   2.547   2.874   4.389
 5338SOL    HW116556   2.616   2.858   4.459
 5338SOL    HW216557   2.474   2.931   4.427
 5339SOL     OW16558   2.548   3.023   5.527
 5339SOL    HW116559   2.608   3.102   5.541
 5339SOL    HW216560   2.462   3.054   5.486
 5340SOL     OW16561   2.197   3.297   4.785
 5340SOL    HW116562   2.119   3.266   4.732
 5340SOL    HW216563   2.255   3.355   4.728
 5341SOL     OW16564   3.322   3.367   5.063
 5341SOL    HW116565   3.346   3.461   5.089
 5341SOL    HW216566   3.306   3.313   5.145
 5342SOL     OW16567   2.300   2.254   5.223
 5342SOL    HW116568   2.382   2.198   5.232
 5342SOL    HW216569   2.219   2.196   5.227
 5343SOL     OW16570   3.465   2.309   4.461
 5343SOL    HW116571   3.391   2.355   4.411
 5343SOL    HW216572   3.516   2.377   4.514
 5344SOL     OW16573   2.093   3.575   4.207
 5344SOL    HW116574   2.127   3.652   4.261
 5344SOL    HW216575   2.137   3.575   4.117
 5345SOL     OW16576   2.989   3.203   5.414
 5345SOL    HW116577   3.036   3.203   5.502
 5345SOL    HW216578   2.941   3.116   5.403
 5346SOL     OW16579   2.092   3.296   4.262
 5346SOL    HW116580   2.066   3.392   4.262
 5346SOL    HW216581   2.021   3.242   4.307
 5347SOL     OW16582   2.102   2.953   4.610
 5347SOL    HW116583   2.116   2.869   4.662
 5347SOL    HW216584   2.047   3.017   4.665
 5348SOL     OW16585   2.482   3.648   5.163
 5348SOL    HW116586   2.390   3.631   5.198
 5348SOL    HW216587   2.510   3.740   5.189
 5349SOL     OW16588   2.468   2.826   3.847
 5349SOL    HW116589   2.475   2.910   3.793
 5349SOL    HW216590   2.514   2.839   3.935
 5350SOL     OW16591   3.456   1.976   5.204
 5350SOL    HW116592   3.438   2.043   5.132
 5350SOL    HW216593   3.453   2.022   5.293
 5351SOL     OW16594   1.984   2.505   4.287
 5351SOL    HW116595   1.939   2.417   4.304
 5351SOL    HW216596   1.983   2.559   4.371
 5352SOL     OW16597   3.704   3.629   4.083
 5352SOL    HW116598   3.758   3.600   4.163
 5352SOL    HW216599   3.734   3.719   4.054
 5353SOL     OW16600   1.889   3.458   3.841
 5353SOL    HW116601   1.870   3.362   3.862
 5353SOL    HW216602   1.856   3.516   3.916
 5354SOL     OW16603   3.551   2.784   4.336
 5354SOL    HW116604   3.646   2.755   4.344
 5354SOL    HW216605   3.543   2.849   4.261
 5355SOL     OW16606   3.503   2.970   4.156
 5355SOL    HW116607   3.589   2.972   4.104
 5355SOL    HW216608   3.517   3.017   4.244
 5356SOL     OW16609   1.975   2.599   5.321
 5356SOL    HW116610   2.063   2.586   5.366
 5356SOL    HW216611   1.962   2.696   5.299
 5357SOL     OW16612   2.475   3.227   4.450
 5357SOL    HW116613   2.426   3.140   4.459
 5357SOL    HW216614   2.452   3.270   4.363
 5358SOL     OW16615   3.155   3.090   5.147
 5358SOL    HW116616   3.192   3.017   5.089
 5358SOL    HW216617   3.207   3.095   5.232
 5359SOL     OW16618   2.671   1.866   4.226
 5359SOL    HW116619   2.711   1.957   4.217
 5359SOL    HW216620   2.571   1.874   4.232
 5360SOL     OW16621   2.059   2.838   4.988
 5360SOL    HW116622   2.148   2.793   4.974
 5360SOL    HW216623   1.986   2.773   4.969
 5361SOL     OW16624   3.387   2.861   3.914
 5361SOL    HW116625   3.324   2.785   3.927
 5361SOL    HW216626   3.435   2.879   4.000
 5362SOL     OW16627   3.049   3.654   5.340
 5362SOL    HW116628   3.073   3.714   5.264
 5362SOL    HW216629   3.056   3.559   5.310
 5363SOL     OW16630   3.328   3.279   4.677
 5363SOL    HW116631   3.269   3.285   4.757
 5363SOL    HW216632   3.313   3.191   4.631
 5364SOL     OW16633   3.529   3.576   4.296
 5364SOL    HW116634   3.488   3.553   4.208
 5364SOL    HW216635   3.511   3.502   4.361
 5365SOL     OW16636   2.460   2.591   3.994
 5365SOL    HW116637   2.484   2.660   3.926
 5365SOL    HW216638   2.382   2.624   4.048
 5366SOL     OW16639   3.143   2.207   4.668
 5366SOL    HW116640   3.057   2.157   4.655
 5366SOL    HW216641   3.205   2.153   4.724
 5367SOL     OW16642   3.438   3.524   4.031
 5367SOL    HW116643   3.527   3.570   4.034
 5367SOL    HW216644   3.417   3.500   3.936
 5368SOL     OW16645   2.669   2.467   5.189
 5368SOL    HW116646   2.622   2.464   5.278
 5368SOL    HW216647   2.618   2.412   5.123
 5369SOL     OW16648   3.256   2.331   5.398
 5369SOL    HW116649   3.236   2.374   5.486
 5369SOL    HW216650   3.334   2.269   5.407
 5370SOL     OW16651   2.835   2.752   5.296
 5370SOL    HW116652   2.881   2.668   5.267
 5370SOL    HW216653   2.779   2.786   5.221
 5371SOL     OW16654   2.853   2.272   4.966
 5371SOL    HW116655   2.776   2.306   5.020
 5371SOL    HW216656   2.819   2.221   4.887
 5372SOL     OW16657   2.903   2.563   4.153
 5372SOL    HW116658   2.929   2.559   4.249
 5372SOL    HW216659   2.818   2.512   4.139
 5373SOL     OW16660   1.938   2.673   4.513
 5373SOL    HW116661   2.037   2.661   4.522
 5373SOL    HW216662   1.914   2.768   4.534
 5374SOL     OW16663   1.992   3.683   5.295
 5374SOL    HW116664   1.982   3.668   5.394
 5374SOL    HW216665   1.906   3.719   5.259
 5375SOL     OW16666   2.727   2.210   3.919
 5375SOL    HW116667   2.786   2.273   3.870
 5375SOL    HW216668   2.746   2.116   3.890
 5376SOL     OW16669   3.581   2.447   5.555
 5376SOL    HW116670   3.555   2.536   5.519
 5376SOL    HW216671   3.579   2.379   5.482
 5377SOL     OW16672   3.224   3.006   4.269
 5377SOL    HW116673   3.307   2.977   4.221
 5377SOL    HW216674   3.175   3.073   4.213
 5378SOL     OW16675   2.412   2.058   4.609
 5378SOL    HW116676   2.407   2.053   4.709
 5378SOL    HW216677   2.414   2.154   4.580
 5379SOL     OW16678   2.870   3.318   4.201
 5379SOL    HW116679   2.824   3.390   4.149
 5379SOL    HW216680   2.866   3.338   4.299
 5380SOL     OW16681   2.213   3.663   4.577
 5380SOL    HW116682   2.263   3.577   4.583
 5380SOL    HW216683   2.278   3.740   4.574
 5381SOL     OW16684   3.657   2.928   4.597
 5381SOL    HW116685   3.595   2.913   4.521
 5381SOL    HW216686   3.605   2.939   4.682
 5382SOL     OW16687   3.089   3.412   5.230
 5382SOL    HW116688   3.095   3.335   5.294
 5382SOL    HW216689   3.037   3.386   5.150
 5383SOL     OW16690   2.183   2.805   3.966
 5383SOL    HW116691   2.265   2.844   3.924
 5383SOL    HW216692   2.156   2.723   3.917
 5384SOL     OW16693   3.320   2.597   4.452
 5384SOL    HW116694   3.315   2.532   4.527
 5384SOL    HW216695   3.400   2.656   4.465
 5385SOL     OW16696   2.323   3.128   5.451
 5385SOL    HW116697   2.273   3.129   5.365
 5385SOL    HW216698   2.260   3.110   5.527
 5386SOL     OW16699   2.973   3.638   3.961
 5386SOL    HW116700   2.913   3.576   4.011
 5386SOL    HW216701   3.004   3.594   3.876
 5387SOL     OW16702   3.494   3.239   3.805
 5387SOL    HW116703   3.462   3.333   3.795
 5387SOL    HW216704   3.418   3.176   3.793
 5388SOL     OW16705   2.326   3.605   4.047
 5388SOL    HW116706   2.359   3.644   4.133
 5388SOL    HW216707   2.402   3.598   3.982
 5389SOL     OW16708   3.262   1.969   4.150
 5389SOL    HW116709   3.238   1.932   4.060
 5389SOL    HW216710   3.361   1.985   4.154
 5390SOL     OW16711   2.111   3.647   4.965
 5390SOL    HW116712   2.168   3.582   5.015
 5390SOL    HW216713   2.095   3.614   4.872
 5391SOL     OW16714   2.802   3.560   4.628
 5391SOL    HW116715   2.882   3.503   4.649
 5391SOL    HW216716   2.753   3.520   4.551
 5392SOL     OW16717   2.244   2.562   4.204
 5392SOL    HW116718   2.289   2.472   4.201
 5392SOL    HW216719   2.150   2.551   4.237
 5393SOL     OW16720   3.409   2.084   5.453
 5393SOL    HW116721   3.404   2.121   5.545
 5393SOL    HW216722   3.337   2.015   5.441
 5394SOL     OW16723   2.476   1.984   3.841
 5394SOL    HW116724   2.574   1.962   3.848
 5394SOL    HW216725   2.445   1.967   3.748
 5395SOL     OW16726   2.643   2.126   5.473
 5395SOL    HW116727   2.710   2.065   5.516
 5395SOL    HW216728   2.570   2.145   5.538
 5396SOL     OW16729   2.750   3.376   4.919
 5396SOL    HW116730   2.727   3.351   4.825
 5396SOL    HW216731   2.811   3.307   4.958
 5397SOL     OW16732   3.213   2.452   5.157
 5397SOL    HW116733   3.241   2.409   5.242
 5397SOL    HW216734   3.238   2.548   5.158
 5398SOL     OW16735   2.665   3.264   4.648
 5398SOL    HW116736   2.755   3.278   4.606
 5398SOL    HW216737   2.594   3.266   4.577
 5399SOL     OW16738   2.784   2.365   4.623
 5399SOL    HW116739   2.759   2.356   4.527
 5399SOL    HW216740   2.832   2.283   4.654
 5400SOL     OW16741   2.401   1.926   4.236
 5400SOL    HW116742   2.320   1.927   4.294
 5400SOL    HW216743   2.404   2.009   4.181
 5401SOL     OW16744   3.296   3.050   3.765
 5401SOL    HW116745   3.328   2.974   3.822
 5401SOL    HW216746   3.204   3.077   3.795
 5402SOL     OW16747   2.797   2.098   4.204
 5402SOL    HW116748   2.749   2.139   4.126
 5402SOL    HW216749   2.896   2.096   4.185
 5403SOL     OW16750   2.938   2.545   5.188
 5403SOL    HW116751   2.858   2.484   5.191
 5403SOL    HW216752   3.019   2.492   5.164
 5404SOL     OW16753   3.089   3.432   4.517
 5404SOL    HW116754   3.110   3.506   4.452
 5404SOL    HW216755   3.157   3.432   4.590
 5405SOL     OW16756   2.321   3.014   4.465
 5405SOL    HW116757   2.250   2.987   4.530
 5405SOL    HW216758   2.295   2.986   4.372
 5406SOL     OW16759   3.133   3.659   4.315
 5406SOL    HW116760   3.177   3.723   4.251
 5406SOL    HW216761   3.083   3.711   4.385
 5407SOL     OW16762   2.894   2.411   3.740
 5407SOL    HW116763   2.853   2.493   3.701
 5407SOL    HW216764   2.958   2.437   3.813
 5408SOL     OW16765   1.940   2.418   5.110
 5408SOL    HW116766   2.032   2.417   5.069
 5408SOL    HW216767   1.934   2.492   5.177
 5409SOL     OW16768   2.423   2.084   4.871
 5409SOL    HW116769   2.461   2.000   4.908
 5409SOL    HW216770   2.335   2.103   4.915
 5410SOL     OW16771   2.728   2.316   4.366
 5410SOL    HW116772   2.696   2.388   4.304
 5410SOL    HW216773   2.752   2.235   4.313
 5411SOL     OW16774   2.879   1.901   4.477
 5411SOL    HW116775   2.807   1.906   4.408
 5411SOL    HW216776   2.855   1.832   4.546
 5412SOL     OW16777   3.291   3.035   4.591
 5412SOL    HW116778   3.236   2.951   4.584
 5412SOL    HW216779   3.317   3.064   4.499
 5413SOL     OW16780   3.328   2.452   4.716
 5413SOL    HW116781   3.298   2.357   4.723
 5413SOL    HW216782   3.401   2.468   4.782
 5414SOL     OW16783   3.719   2.695   4.101
 5414SOL    HW116784   3.761   2.631   4.165
 5414SOL    HW216785   3.681   2.644   4.023
 5415SOL     OW16786   2.350   3.247   3.898
 5415SOL    HW116787   2.263   3.232   3.945
 5415SOL    HW216788   2.333   3.273   3.803
 5416SOL     OW16789   3.526   3.142   4.381
 5416SOL    HW116790   3.625   3.150   4.395
 5416SOL    HW216791   3.481   3.226   4.412
 5417SOL     OW16792   3.252   2.437   3.802
 5417SOL    HW116793   3.198   2.416   3.883
 5417SOL    HW216794   3.343   2.396   3.811
 5418SOL     OW16795   2.389   2.118   4.052
 5418SOL    HW116796   2.416   2.059   3.977
 5418SOL    HW216797   2.389   2.213   4.021
 5419SOL     OW16798   3.616   3.085   5.312
 5419SOL    HW116799   3.707   3.046   5.299
 5419SOL    HW216800   3.624   3.181   5.336
 5420SOL     OW16801   2.926   3.209   5.064
 5420SOL    HW116802   2.846   3.186   5.119
 5420SOL    HW216803   3.009   3.183   5.113
 5421SOL     OW16804   3.454   3.491   5.349
 5421SOL    HW116805   3.481   3.525   5.259
 5421SOL    HW216806   3.533   3.453   5.395
 5422SOL     OW16807   2.973   3.057   4.824
 5422SOL    HW116808   2.933   3.101   4.905
 5422SOL    HW216809   2.932   3.094   4.741
 5423SOL     OW16810   3.500   2.961   4.803
 5423SOL    HW116811   3.505   3.042   4.862
 5423SOL    HW216812   3.414   2.963   4.752
 5424SOL     OW16813   2.777   1.951   5.126
 5424SOL    HW116814   2.802   1.931   5.031
 5424SOL    HW216815   2.849   2.007   5.168
 5425SOL     OW16816   2.842   2.978   5.443
 5425SOL    HW116817   2.743   2.984   5.453
 5425SOL    HW216818   2.865   2.898   5.387
 5426SOL     OW16819   2.567   2.912   4.092
 5426SOL    HW116820   2.553   2.919   4.191
 5426SOL    HW216821   2.651   2.861   4.074
 5427SOL     OW16822   2.272   2.675   4.975
 5427SOL    HW116823   2.358   2.687   5.025
 5427SOL    HW216824   2.230   2.588   5.002
 5428SOL     OW16825   3.136   2.248   4.986
 5428SOL    HW116826   3.157   2.322   5.050
 5428SOL    HW216827   3.047   2.265   4.943
 5429SOL     OW16828   1.926   3.426   5.055
 5429SOL    HW116829   1.880   3.508   5.021
 5429SOL    HW216830   2.024   3.445   5.064
 5430SOL     OW16831   2.229   2.962   4.225
 5430SOL    HW116832   2.222   3.045   4.169
 5430SOL    HW216833   2.233   2.882   4.165
 5431SOL     OW16834   2.428   2.399   4.589
 5431SOL    HW116835   2.440   2.465   4.515
 5431SOL    HW216836   2.474   2.433   4.672
 5432SOL     OW16837   3.114   3.210   4.112
 5432SOL    HW116838   3.164   3.287   4.152
 5432SOL    HW216839   3.019   3.212   4.144
 5433SOL     OW16840   3.134   3.307   4.866
 5433SOL    HW116841   3.181   3.320   4.953
 5433SOL    HW216842   3.068   3.233   4.875
 5434SOL     OW16843   3.444   2.501   4.196
 5434SOL    HW116844   3.413   2.562   4.269
 5434SOL    HW216845   3.494   2.553   4.127
 5435SOL     OW16846   2.216   3.372   5.053
 5435SOL    HW116847   2.195   3.328   4.966
 5435SOL    HW216848   2.313   3.398   5.056
 5436SOL     OW16849   2.264   2.613   5.322
 5436SOL    HW116850   2.332   2.668   5.275
 5436SOL    HW216851   2.304   2.525   5.349
 5437SOL     OW16852   3.449   2.641   5.394
 5437SOL    HW116853   3.357   2.679   5.389
 5437SOL    HW216854   3.509   2.688   5.329
 5438SOL     OW16855   2.875   1.967   5.494
 5438SOL    HW116856   2.881   2.052   5.442
 5438SOL    HW216857   2.907   1.891   5.437
 5439SOL     OW16858   2.366   1.912   5.464
 5439SOL    HW116859   2.324   1.855   5.394
 5439SOL    HW216860   2.300   1.981   5.496
 5440SOL     OW16861   2.435   2.732   4.753
 5440SOL    HW116862   2.479   2.821   4.744
 5440SOL    HW216863   2.372   2.732   4.830
 5441SOL     OW16864   3.222   2.724   4.769
 5441SOL    HW116865   3.147   2.724   4.703
 5441SOL    HW216866   3.259   2.632   4.778
 5442SOL     OW16867   3.071   2.387   3.999
 5442SOL    HW116868   3.084   2.303   4.053
 5442SOL    HW216869   3.042   2.461   4.059
 5443SOL     OW16870   1.899   3.172   5.006
 5443SOL    HW116871   1.952   3.123   5.074
 5443SOL    HW216872   1.921   3.270   5.011
 5444SOL     OW16873   2.594   2.496   4.788
 5444SOL    HW116874   2.653   2.470   4.712
 5444SOL    HW216875   2.566   2.592   4.777
 5445SOL     OW16876   3.590   2.797   5.578
 5445SOL    HW116877   3.544   2.790   5.489
 5445SOL    HW216878   3.528   2.841   5.644
 5446SOL     OW16879   2.169   1.925   4.342
 5446SOL    HW116880   2.158   2.019   4.375
 5446SOL    HW216881   2.164   1.862   4.419
 5447SOL     OW16882   3.484   2.229   4.098
 5447SOL    HW116883   3.486   2.153   4.162
 5447SOL    HW216884   3.436   2.306   4.138
 5448SOL     OW16885   2.885   2.628   4.690
 5448SOL    HW116886   2.900   2.649   4.786
 5448SOL    HW216887   2.855   2.533   4.681
 5449SOL     OW16888   2.842   3.435   5.424
 5449SOL    HW116889   2.822   3.479   5.336
 5449SOL    HW216890   2.881   3.344   5.408
 5450SOL     OW16891   3.721   3.380   5.329
 5450SOL    HW116892   3.735   3.407   5.234
 5450SOL    HW216893   3.804   3.402   5.382
 5451SOL     OW16894   2.212   2.760   5.528
 5451SOL    HW116895   2.288   2.804   5.576
 5451SOL    HW216896   2.247   2.713   5.446
 5452SOL     OW16897   3.402   2.136   3.849
 5452SOL    HW116898   3.341   2.061   3.872
 5452SOL    HW216899   3.424   2.188   3.932
 5453SOL     OW16900   3.165   2.700   3.766
 5453SOL    HW116901   3.199   2.607   3.781
 5453SOL    HW216902   3.183   2.727   3.671
 5454SOL     OW16903   2.930   3.195   4.573
 5454SOL    HW116904   2.937   3.111   4.518
 5454SOL    HW216905   2.992   3.264   4.537
 5455SOL     OW16906   2.181   2.672   4.673
 5455SOL    HW116907   2.274   2.708   4.678
 5455SOL    HW216908   2.175   2.587   4.725
 5456SOL     OW16909   2.201   2.371   4.730
 5456SOL    HW116910   2.149   2.288   4.713
 5456SOL    HW216911   2.278   2.376   4.666
 5457SOL     OW16912   3.000   2.242   5.402
 5457SOL    HW116913   2.955   2.305   5.466
 5457SOL    HW216914   3.093   2.273   5.385
 5458SOL     OW16915   3.022   2.069   5.201
 5458SOL    HW116916   3.022   2.133   5.278
 5458SOL    HW216917   3.050   2.117   5.118
 5459SOL     OW16918   1.870   3.188   3.924
 5459SOL    HW116919   1.777   3.209   3.893
 5459SOL    HW216920   1.880   3.089   3.937
 5460SOL     OW16921   1.950   3.663   4.651
 5460SOL    HW116922   1.908   3.577   4.624
 5460SOL    HW216923   2.044   3.666   4.617
 5461SOL     OW16924   2.366   3.430   4.634
 5461SOL    HW116925   2.432   3.504   4.643
 5461SOL    HW216926   2.410   3.351   4.592
 5462SOL     OW16927   2.864   2.658   4.962
 5462SOL    HW116928   2.905   2.626   5.048
 5462SOL    HW216929   2.768   2.631   4.959
 5463SOL     OW16930   1.902   2.406   4.838
 5463SOL    HW116931   1.987   2.373   4.797
 5463SOL    HW216932   1.915   2.421   4.936
 5464SOL     OW16933   2.051   2.382   5.446
 5464SOL    HW116934   2.110   2.342   5.376
 5464SOL    HW216935   1.993   2.453   5.405
 5465SOL     OW16936   3.231   2.812   5.384
 5465SOL    HW116937   3.270   2.901   5.404
 5465SOL    HW216938   3.241   2.792   5.287
 5466SOL     OW16939   2.677   2.434   4.049
 5466SOL    HW116940   2.684   2.345   4.003
 5466SOL    HW216941   2.583   2.468   4.041
 5467SOL     OW16942   3.519   2.466   4.930
 5467SOL    HW116943   3.481   2.397   4.992
 5467SOL    HW216944   3.601   2.430   4.886
 5468SOL     OW16945   2.114   3.426   5.468
 5468SOL    HW116946   2.084   3.483   5.544
 5468SOL    HW216947   2.107   3.329   5.494
 5469SOL     OW16948   2.533   2.326   4.993
 5469SOL    HW116949   2.499   2.237   4.963
 5469SOL    HW216950   2.559   2.380   4.913
 5470SOL     OW16951   2.792   3.540   5.189
 5470SOL    HW116952   2.768   3.522   5.094
 5470SOL    HW216953   2.822   3.634   5.199
 5471SOL     OW16954   2.335   2.362   3.915
 5471SOL    HW116955   2.396   2.442   3.919
 5471SOL    HW216956   2.240   2.393   3.922
 5472SOL     OW16957   2.021   2.999   5.190
 5472SOL    HW116958   2.043   2.938   5.266
 5472SOL    HW216959   2.031   2.950   5.104
 5473SOL     OW16960   3.209   2.921   4.958
 5473SOL    HW116961   3.233   2.858   4.884
 5473SOL    HW216962   3.119   2.961   4.940
 5474SOL     OW16963   3.164   2.717   4.033
 5474SOL    HW116964   3.078   2.686   4.075
 5474SOL    HW216965   3.160   2.703   3.934
 5475SOL     OW16966   3.621   3.609   4.878
 5475SOL    HW116967   3.682   3.639   4.805
 5475SOL    HW216968   3.583   3.520   4.856
 5476SOL     OW16969   3.114   3.593   4.852
 5476SOL    HW116970   3.198   3.598   4.798
 5476SOL    HW216971   3.091   3.497   4.870
 5477SOL     OW16972   1.945   3.120   4.746
 5477SOL    HW116973   1.940   3.119   4.846
 5477SOL    HW216974   1.862   3.079   4.708
 5478SOL     OW16975   2.550   3.524   5.440
 5478SOL    HW116976   2.494   3.605   5.449
 5478SOL    HW216977   2.602   3.528   5.354
 5479SOL     OW16978   3.588   1.997   4.247
 5479SOL    HW116979   3.661   1.980   4.180
 5479SOL    HW216980   3.557   1.910   4.285
 5480SOL     OW16981   3.250   3.435   4.201
 5480SOL    HW116982   3.317   3.447   4.127
 5480SOL    HW216983   3.210   3.524   4.224
 5481SOL     OW16984   1.992   3.656   5.575
 5481SOL    HW116985   1.951   3.582   5.628
 5481SOL    HW216986   2.056   3.707   5.633
 5482SOL     OW16987   3.142   2.789   4.396
 5482SOL    HW116988   3.202   2.708   4.398
 5482SOL    HW216989   3.182   2.858   4.336
 5483SOL     OW16990   2.692   3.135   5.146
 5483SOL    HW116991   2.687   3.168   5.241
 5483SOL    HW216992   2.606   3.154   5.100
 5484SOL     OW16993   2.534   3.478   3.878
 5484SOL    HW116994   2.543   3.488   3.779
 5484SOL    HW216995   2.494   3.389   3.899
 5485SOL     OW16996   3.512   3.582   5.118
 5485SOL    HW116997   3.565   3.592   5.034
 5485SOL    HW216998   3.485   3.672   5.152
 5486SOL     OW16999   3.703   2.037   4.687
 5486SOL    HW117000   3.742   1.952   4.651
 5486SOL    HW217001   3.605   2.039   4.668
 5487SOL     OW17002   3.056   3.474   3.755
 5487SOL    HW117003   3.062   3.381   3.792
 5487SOL    HW217004   2.997   3.474   3.675
 5488SOL     OW17005   2.684   2.864   5.096
 5488SOL    HW117006   2.724   2.863   5.004
 5488SOL    HW217007   2.694   2.956   5.136
 5489SOL     OW17008   2.778   2.772   4.015
 5489SOL    HW117009   2.841   2.810   3.947
 5489SOL    HW217010   2.818   2.689   4.054
 5490SOL     OW17011   3.366   3.469   3.768
 5490SOL    HW117012   3.274   3.506   3.775
 5490SOL    HW217013   3.404   3.489   3.678
 5491SOL     OW17014   2.234   3.150   5.214
 5491SOL    HW117015   2.221   3.243   5.180
 5491SOL    HW217016   2.150   3.098   5.201
 5492SOL     OW17017   3.476   3.154   5.013
 5492SOL    HW117018   3.536   3.157   5.093
 5492SOL    HW217019   3.401   3.218   5.026
 5493SOL     OW17020   2.901   2.960   4.420
 5493SOL    HW117021   2.831   2.913   4.474
 5493SOL    HW217022   2.960   2.892   4.377
 5494SOL     OW17023   2.876   2.098   4.695
 5494SOL    HW117024   2.868   2.062   4.602
 5494SOL    HW217025   2.874   2.022   4.760
 5495SOL     OW17026   2.452   3.349   4.215
 5495SOL    HW117027   2.494   3.291   4.145
 5495SOL    HW217028   2.408   3.428   4.171
 5496SOL     OW17029   3.571   2.247   5.105
 5496SOL    HW117030   3.644   2.316   5.109
 5496SOL    HW217031   3.599   2.172   5.046
 5497SOL     OW17032   2.117   3.210   4.014
 5497SOL    HW117033   2.021   3.211   3.987
 5497SOL    HW217034   2.129   3.263   4.098
 5498SOL     OW17035   1.967   2.875   5.450
 5498SOL    HW117036   1.890   2.842   5.504
 5498SOL    HW217037   2.052   2.845   5.492
 5499SOL     OW17038   2.534   2.065   5.213
 5499SOL    HW117039   2.624   2.049   5.173
 5499SOL    HW217040   2.542   2.070   5.312
 5500SOL     OW17041   1.937   2.207   3.757
 5500SOL    HW117042   1.845   2.179   3.728
 5500SOL    HW217043   1.968   2.284   3.701
 5501SOL     OW17044   3.302   2.718   5.122
 5501SOL    HW117045   3.245   2.770   5.059
 5501SOL    HW217046   3.398   2.730   5.098
 5502SOL     OW17047   3.045   3.197   3.843
 5502SOL    HW117048   2.946   3.186   3.845
 5502SOL    HW217049   3.079   3.212   3.936
 5503SOL     OW17050   2.475   2.704   5.155
 5503SOL    HW117051   2.531   2.785   5.138
 5503SOL    HW217052   2.534   2.624   5.158
 5504SOL     OW17053   3.355   3.629   4.683
 5504SOL    HW117054   3.388   3.693   4.614
 5504SOL    HW217055   3.421   3.623   4.758
 5505SOL     OW17056   2.578   2.427   5.432
 5505SOL    HW117057   2.597   2.492   5.506
 5505SOL    HW217058   2.638   2.347   5.441
 5506SOL     OW17059   3.312   3.082   5.357
 5506SOL    HW117060   3.303   3.072   5.456
 5506SOL    HW217061   3.408   3.075   5.331
 5507SOL     OW17062   2.252   3.603   5.284
 5507SOL    HW117063   2.161   3.644   5.282
 5507SOL    HW217064   2.245   3.509   5.316
 5508SOL     OW17065   3.536   2.745   4.978
 5508SOL    HW117066   3.509   2.656   4.941
 5508SOL    HW217067   3.537   2.813   4.905
 5509SOL     OW17068   3.087   2.187   4.173
 5509SOL    HW117069   3.152   2.113   4.162
 5509SOL    HW217070   3.107   2.237   4.257
 5510SOL     OW17071   2.456   2.607   4.376
 5510SOL    HW117072   2.506   2.692   4.357
 5510SOL    HW217073   2.368   2.609   4.328
 5511SOL     OW17074   3.639   2.204   5.366
 5511SOL    HW117075   3.622   2.235   5.272
 5511SOL    HW217076   3.555   2.167   5.404
 5512SOL     OW17077   3.592   2.796   5.241
 5512SOL    HW117078   3.630   2.887   5.256
 5512SOL    HW217079   3.584   2.779   5.142
 5513SOL     OW17080   2.721   3.236   3.740
 5513SOL    HW117081   2.675   3.251   3.828
 5513SOL    HW217082   2.765   3.321   3.710
 5514SOL     OW17083   2.523   3.652   4.677
 5514SOL    HW117084   2.477   3.740   4.664
 5514SOL    HW217085   2.622   3.664   4.670
 5515SOL     OW17086   2.721   2.818   4.585
 5515SOL    HW117087   2.775   2.749   4.633
 5515SOL    HW217088   2.689   2.887   4.651
 5516SOL     OW17089   2.945   2.846   3.811
 5516SOL    HW117090   2.922   2.899   3.729
 5516SOL    HW217091   3.026   2.790   3.792
 5517SOL     OW17092   3.723   3.431   4.575
 5517SOL    HW117093   3.652   3.419   4.505
 5517SOL    HW217094   3.724   3.352   4.635
 5518SOL     OW17095   2.083   3.176   5.568
 5518SOL    HW117096   2.018   3.103   5.547
 5518SOL    HW217097   2.087   3.190   5.666
 5519SOL     OW17098   1.941   3.102   4.377
 5519SOL    HW117099   1.940   3.055   4.465
 5519SOL    HW217100   2.023   3.074   4.326
 5520SOL     OW17101   2.534   3.253   5.348
 5520SOL    HW117102   2.456   3.203   5.386
 5520SOL    HW217103   2.531   3.348   5.379
 5521SOL     OW17104   3.686   2.054   4.951
 5521SOL    HW117105   3.682   1.964   4.995
 5521SOL    HW217106   3.689   2.043   4.852
 5522SOL     OW17107   2.290   2.286   4.244
 5522SOL    HW117108   2.320   2.214   4.182
 5522SOL    HW217109   2.251   2.246   4.327
 5523SOL     OW17110   3.567   3.349   4.828
 5523SOL    HW117111   3.474   3.324   4.801
 5523SOL    HW217112   3.593   3.299   4.910
 5524SOL     OW17113   2.179   2.409   5.004
 5524SOL    HW117114   2.217   2.350   5.076
 5524SOL    HW217115   2.219   2.383   4.916
 5525SOL     OW17116   2.674   3.448   4.411
 5525SOL    HW117117   2.706   3.458   4.317
 5525SOL    HW217118   2.595   3.386   4.413
 5526SOL     OW17119   3.286   2.076   4.836
 5526SOL    HW117120   3.338   2.011   4.891
 5526SOL    HW217121   3.237   2.139   4.897
 5527SOL     OW17122   2.863   1.896   4.878
 5527SOL    HW117123   2.800   1.824   4.847
 5527SOL    HW217124   2.956   1.860   4.878
 5528SOL     OW17125   2.632   3.192   4.025
 5528SOL    HW117126   2.586   3.105   4.042
 5528SOL    HW217127   2.723   3.189   4.066
 5529SOL     OW17128   2.480   3.429   5.008
 5529SOL    HW117129   2.475   3.511   5.065
 5529SOL    HW217130   2.569   3.426   4.963
 5530SOL     OW17131   3.214   1.914   3.892
 5530SOL    HW117132   3.249   1.873   3.808
 5530SOL    HW217133   3.124   1.876   3.912
 5531SOL     OW17134   3.162   2.315   4.415
 5531SOL    HW117135   3.103   2.395   4.419
 5531SOL    HW217136   3.177   2.280   4.508
 5532SOL     OW17137   3.455   2.083   4.606
 5532SOL    HW117138   3.371   2.082   4.660
 5532SOL    HW217139   3.457   2.166   4.550
 5533SOL     OW17140   1.901   2.939   4.024
 5533SOL    HW117141   2.000   2.928   4.015
 5533SOL    HW217142   1.861   2.853   4.056
 5534SOL     OW17143   2.737   3.508   4.061
 5534SOL    HW117144   2.660   3.473   4.007
 5534SOL    HW217145   2.705   3.579   4.123
 5535SOL     OW17146   2.092   2.490   5.699
 5535SOL    HW117147   1.999   2.488   5.736
 5535SOL    HW217148   2.093   2.451   5.607
 5536SOL     OW17149   1.881   2.230   6.233
 5536SOL    HW117150   1.799   2.273   6.272
 5536SOL    HW217151   1.853   2.157   6.170
 5537SOL     OW17152   2.431   3.137   6.751
 5537SOL    HW117153   2.338   3.130   6.714
 5537SOL    HW217154   2.442   3.226   6.795
 5538SOL     OW17155   3.417   3.373   6.289
 5538SOL    HW117156   3.360   3.357   6.370
 5538SOL    HW217157   3.358   3.383   6.209
 5539SOL     OW17158   2.997   2.565   6.303
 5539SOL    HW117159   3.054   2.643   6.278
 5539SOL    HW217160   2.937   2.591   6.379
 5540SOL     OW17161   3.617   2.469   5.817
 5540SOL    HW117162   3.605   2.456   5.718
 5540SOL    HW217163   3.587   2.388   5.866
 5541SOL     OW17164   2.630   3.006   6.609
 5541SOL    HW117165   2.552   3.023   6.669
 5541SOL    HW217166   2.664   3.093   6.573
 5542SOL     OW17167   2.712   2.660   7.409
 5542SOL    HW117168   2.708   2.736   7.474
 5542SOL    HW217169   2.734   2.696   7.318
 5543SOL     OW17170   2.547   2.874   6.251
 5543SOL    HW117171   2.616   2.858   6.321
 5543SOL    HW217172   2.474   2.931   6.289
 5544SOL     OW17173   2.548   3.023   7.389
 5544SOL    HW117174   2.608   3.102   7.403
 5544SOL    HW217175   2.462   3.054   7.348
 5545SOL     OW17176   2.197   3.297   6.647
 5545SOL    HW117177   2.119   3.266   6.594
 5545SOL    HW217178   2.255   3.355   6.590
 5546SOL     OW17179   3.322   3.367   6.925
 5546SOL    HW117180   3.346   3.461   6.951
 5546SOL    HW217181   3.306   3.313   7.007
 5547SOL     OW17182   2.300   2.254   7.085
 5547SOL    HW117183   2.382   2.198   7.094
 5547SOL    HW217184   2.219   2.196   7.089
 5548SOL     OW17185   3.465   2.309   6.323
 5548SOL    HW117186   3.391   2.355   6.273
 5548SOL    HW217187   3.516   2.377   6.376
 5549SOL     OW17188   2.093   3.575   6.069
 5549SOL    HW117189   2.127   3.652   6.123
 5549SOL    HW217190   2.137   3.575   5.979
 5550SOL     OW17191   2.989   3.203   7.276
 5550SOL    HW117192   3.036   3.203   7.364
 5550SOL    HW217193   2.941   3.116   7.265
 5551SOL     OW17194   2.092   3.296   6.124
 5551SOL    HW117195   2.066   3.392   6.124
 5551SOL    HW217196   2.021   3.242   6.169
 5552SOL     OW17197   2.482   3.648   7.025
 5552SOL    HW117198   2.390   3.631   7.060
 5552SOL    HW217199   2.510   3.740   7.051
 5553SOL     OW17200   2.468   2.826   5.709
 5553SOL    HW117201   2.475   2.910   5.655
 5553SOL    HW217202   2.514   2.839   5.797
 5554SOL     OW17203   3.456   1.976   7.066
 5554SOL    HW117204   3.438   2.043   6.994
 5554SOL    HW217205   3.453   2.022   7.155
 5555SOL     OW17206   1.984   2.505   6.149
 5555SOL    HW117207   1.939   2.417   6.166
 5555SOL    HW217208   1.983   2.559   6.233
 5556SOL     OW17209   3.704   3.629   5.945
 5556SOL    HW117210   3.758   3.600   6.025
 5556SOL    HW217211   3.734   3.719   5.916
 5557SOL     OW17212   1.889   3.458   5.703
 5557SOL    HW117213   1.870   3.362   5.724
 5557SOL    HW217214   1.856   3.516   5.778
 5558SOL     OW17215   3.551   2.784   6.198
 5558SOL    HW117216   3.646   2.755   6.206
 5558SOL    HW217217   3.543   2.849   6.123
 5559SOL     OW17218   3.503   2.970   6.018
 5559SOL    HW117219   3.589   2.972   5.966
 5559SOL    HW217220   3.517   3.017   6.106
 5560SOL     OW17221   2.475   3.227   6.312
 5560SOL    HW117222   2.426   3.140   6.321
 5560SOL    HW217223   2.452   3.270   6.225
 5561SOL     OW17224   3.155   3.090   7.009
 5561SOL    HW117225   3.192   3.017   6.951
 5561SOL    HW217226   3.207   3.095   7.094
 5562SOL     OW17227   2.059   2.838   6.850
 5562SOL    HW117228   2.148   2.793   6.836
 5562SOL    HW217229   1.986   2.773   6.831
 5563SOL     OW17230   3.387   2.861   5.776
 5563SOL    HW117231   3.324   2.785   5.789
 5563SOL    HW217232   3.435   2.879   5.862
 5564SOL     OW17233   3.049   3.654   7.202
 5564SOL    HW117234   3.073   3.714   7.126
 5564SOL    HW217235   3.056   3.559   7.172
 5565SOL     OW17236   3.328   3.279   6.539
 5565SOL    HW117237   3.269   3.285   6.619
 5565SOL    HW217238   3.313   3.191   6.493
 5566SOL     OW17239   3.529   3.576   6.158
 5566SOL    HW117240   3.488   3.553   6.070
 5566SOL    HW217241   3.511   3.502   6.223
 5567SOL     OW17242   2.460   2.591   5.856
 5567SOL    HW117243   2.484   2.660   5.788
 5567SOL    HW217244   2.382   2.624   5.910
 5568SOL     OW17245   3.143   2.207   6.530
 5568SOL    HW117246   3.057   2.157   6.517
 5568SOL    HW217247   3.205   2.153   6.586
 5569SOL     OW17248   3.438   3.524   5.893
 5569SOL    HW117249   3.527   3.570   5.896
 5569SOL    HW217250   3.417   3.500   5.798
 5570SOL     OW17251   3.256   2.331   7.260
 5570SOL    HW117252   3.236   2.374   7.348
 5570SOL    HW217253   3.334   2.269   7.269
 5571SOL     OW17254   2.835   2.752   7.158
 5571SOL    HW117255   2.881   2.668   7.129
 5571SOL    HW217256   2.779   2.786   7.083
 5572SOL     OW17257   2.853   2.272   6.828
 5572SOL    HW117258   2.776   2.306   6.882
 5572SOL    HW217259   2.819   2.221   6.749
 5573SOL     OW17260   2.903   2.563   6.015
 5573SOL    HW117261   2.929   2.559   6.111
 5573SOL    HW217262   2.818   2.512   6.001
 5574SOL     OW17263   1.992   3.683   7.157
 5574SOL    HW117264   1.982   3.668   7.256
 5574SOL    HW217265   1.906   3.719   7.121
 5575SOL     OW17266   2.727   2.210   5.781
 5575SOL    HW117267   2.786   2.273   5.732
 5575SOL    HW217268   2.746   2.116   5.752
 5576SOL     OW17269   3.581   2.447   7.417
 5576SOL    HW117270   3.555   2.536   7.381
 5576SOL    HW217271   3.579   2.379   7.344
 5577SOL     OW17272   3.224   3.006   6.131
 5577SOL    HW117273   3.307   2.977   6.083
 5577SOL    HW217274   3.175   3.073   6.075
 5578SOL     OW17275   2.870   3.318   6.063
 5578SOL    HW117276   2.824   3.390   6.011
 5578SOL    HW217277   2.866   3.338   6.161
 5579SOL     OW17278   2.213   3.663   6.439
 5579SOL    HW117279   2.263   3.577   6.445
 5579SOL    HW217280   2.278   3.740   6.436
 5580SOL     OW17281   3.657   2.928   6.459
 5580SOL    HW117282   3.595   2.913   6.383
 5580SOL    HW217283   3.605   2.939   6.544
 5581SOL     OW17284   3.089   3.412   7.092
 5581SOL    HW117285   3.095   3.335   7.156
 5581SOL    HW217286   3.037   3.386   7.012
 5582SOL     OW17287   2.183   2.805   5.828
 5582SOL    HW117288   2.265   2.844   5.786
 5582SOL    HW217289   2.156   2.723   5.779
 5583SOL     OW17290   3.320   2.597   6.314
 5583SOL    HW117291   3.315   2.532   6.389
 5583SOL    HW217292   3.400   2.656   6.327
 5584SOL     OW17293   2.323   3.128   7.313
 5584SOL    HW117294   2.273   3.129   7.227
 5584SOL    HW217295   2.260   3.110   7.389
 5585SOL     OW17296   2.973   3.638   5.823
 5585SOL    HW117297   2.913   3.576   5.873
 5585SOL    HW217298   3.004   3.594   5.738
 5586SOL     OW17299   3.494   3.239   5.667
 5586SOL    HW117300   3.462   3.333   5.657
 5586SOL    HW217301   3.418   3.176   5.655
 5587SOL     OW17302   2.326   3.605   5.909
 5587SOL    HW117303   2.359   3.644   5.995
 5587SOL    HW217304   2.402   3.598   5.844
 5588SOL     OW17305   3.262   1.969   6.012
 5588SOL    HW117306   3.238   1.932   5.922
 5588SOL    HW217307   3.361   1.985   6.016
 5589SOL     OW17308   2.111   3.647   6.827
 5589SOL    HW117309   2.168   3.582   6.877
 5589SOL    HW217310   2.095   3.614   6.734
 5590SOL     OW17311   2.802   3.560   6.490
 5590SOL    HW117312   2.882   3.503   6.511
 5590SOL    HW217313   2.753   3.520   6.413
 5591SOL     OW17314   3.409   2.084   7.315
 5591SOL    HW117315   3.404   2.121   7.407
 5591SOL    HW217316   3.337   2.015   7.303
 5592SOL     OW17317   2.476   1.984   5.703
 5592SOL    HW117318   2.574   1.962   5.710
 5592SOL    HW217319   2.445   1.967   5.610
 5593SOL     OW17320   2.750   3.376   6.781
 5593SOL    HW117321   2.727   3.351   6.687
 5593SOL    HW217322   2.811   3.307   6.820
 5594SOL     OW17323   3.213   2.452   7.019
 5594SOL    HW117324   3.241   2.409   7.104
 5594SOL    HW217325   3.238   2.548   7.020
 5595SOL     OW17326   2.665   3.264   6.510
 5595SOL    HW117327   2.755   3.278   6.468
 5595SOL    HW217328   2.594   3.266   6.439
 5596SOL     OW17329   2.401   1.926   6.098
 5596SOL    HW117330   2.320   1.927   6.156
 5596SOL    HW217331   2.404   2.009   6.043
 5597SOL     OW17332   3.296   3.050   5.627
 5597SOL    HW117333   3.328   2.974   5.684
 5597SOL    HW217334   3.204   3.077   5.657
 5598SOL     OW17335   2.938   2.545   7.050
 5598SOL    HW117336   2.858   2.484   7.053
 5598SOL    HW217337   3.019   2.492   7.026
 5599SOL     OW17338   3.089   3.432   6.379
 5599SOL    HW117339   3.110   3.506   6.314
 5599SOL    HW217340   3.157   3.432   6.452
 5600SOL     OW17341   2.321   3.014   6.327
 5600SOL    HW117342   2.250   2.987   6.392
 5600SOL    HW217343   2.295   2.986   6.234
 5601SOL     OW17344   3.133   3.659   6.177
 5601SOL    HW117345   3.177   3.723   6.113
 5601SOL    HW217346   3.083   3.711   6.247
 5602SOL     OW17347   2.894   2.411   5.602
 5602SOL    HW117348   2.853   2.493   5.563
 5602SOL    HW217349   2.958   2.437   5.675
 5603SOL     OW17350   1.940   2.418   6.972
 5603SOL    HW117351   2.032   2.417   6.931
 5603SOL    HW217352   1.934   2.492   7.039
 5604SOL     OW17353   3.291   3.035   6.453
 5604SOL    HW117354   3.236   2.951   6.446
 5604SOL    HW217355   3.317   3.064   6.361
 5605SOL     OW17356   3.328   2.452   6.578
 5605SOL    HW117357   3.298   2.357   6.585
 5605SOL    HW217358   3.401   2.468   6.644
 5606SOL     OW17359   3.719   2.695   5.963
 5606SOL    HW117360   3.761   2.631   6.027
 5606SOL    HW217361   3.681   2.644   5.885
 5607SOL     OW17362   2.350   3.247   5.760
 5607SOL    HW117363   2.263   3.232   5.807
 5607SOL    HW217364   2.333   3.273   5.665
 5608SOL     OW17365   3.526   3.142   6.243
 5608SOL    HW117366   3.625   3.150   6.257
 5608SOL    HW217367   3.481   3.226   6.274
 5609SOL     OW17368   3.252   2.437   5.664
 5609SOL    HW117369   3.198   2.416   5.745
 5609SOL    HW217370   3.343   2.396   5.673
 5610SOL     OW17371   2.389   2.118   5.914
 5610SOL    HW117372   2.416   2.059   5.839
 5610SOL    HW217373   2.389   2.213   5.883
 5611SOL     OW17374   3.616   3.085   7.174
 5611SOL    HW117375   3.707   3.046   7.161
 5611SOL    HW217376   3.624   3.181   7.198
 5612SOL     OW17377   2.926   3.209   6.926
 5612SOL    HW117378   2.846   3.186   6.981
 5612SOL    HW217379   3.009   3.183   6.975
 5613SOL     OW17380   3.454   3.491   7.211
 5613SOL    HW117381   3.481   3.525   7.121
 5613SOL    HW217382   3.533   3.453   7.257
 5614SOL     OW17383   2.973   3.057   6.686
 5614SOL    HW117384   2.933   3.101   6.767
 5614SOL    HW217385   2.932   3.094   6.603
 5615SOL     OW17386   3.500   2.961   6.665
 5615SOL    HW117387   3.505   3.042   6.724
 5615SOL    HW217388   3.414   2.963   6.614
 5616SOL     OW17389   2.777   1.951   6.988
 5616SOL    HW117390   2.802   1.931   6.893
 5616SOL    HW217391   2.849   2.007   7.030
 5617SOL     OW17392   2.842   2.978   7.305
 5617SOL    HW117393   2.743   2.984   7.315
 5617SOL    HW217394   2.865   2.898   7.249
 5618SOL     OW17395   2.567   2.912   5.954
 5618SOL    HW117396   2.553   2.919   6.053
 5618SOL    HW217397   2.651   2.861   5.936
 5619SOL     OW17398   2.272   2.675   6.837
 5619SOL    HW117399   2.358   2.687   6.887
 5619SOL    HW217400   2.230   2.588   6.864
 5620SOL     OW17401   3.136   2.248   6.848
 5620SOL    HW117402   3.157   2.322   6.912
 5620SOL    HW217403   3.047   2.265   6.805
 5621SOL     OW17404   1.926   3.426   6.917
 5621SOL    HW117405   1.880   3.508   6.883
 5621SOL    HW217406   2.024   3.445   6.926
 5622SOL     OW17407   2.229   2.962   6.087
 5622SOL    HW117408   2.222   3.045   6.031
 5622SOL    HW217409   2.233   2.882   6.027
 5623SOL     OW17410   3.114   3.210   5.974
 5623SOL    HW117411   3.164   3.287   6.014
 5623SOL    HW217412   3.019   3.212   6.006
 5624SOL     OW17413   3.134   3.307   6.728
 5624SOL    HW117414   3.181   3.320   6.815
 5624SOL    HW217415   3.068   3.233   6.737
 5625SOL     OW17416   3.444   2.501   6.058
 5625SOL    HW117417   3.413   2.562   6.131
 5625SOL    HW217418   3.494   2.553   5.989
 5626SOL     OW17419   2.216   3.372   6.915
 5626SOL    HW117420   2.195   3.328   6.828
 5626SOL    HW217421   2.313   3.398   6.918
 5627SOL     OW17422   3.449   2.641   7.256
 5627SOL    HW117423   3.357   2.679   7.251
 5627SOL    HW217424   3.509   2.688   7.191
 5628SOL     OW17425   2.366   1.912   7.326
 5628SOL    HW117426   2.324   1.855   7.256
 5628SOL    HW217427   2.300   1.981   7.358
 5629SOL     OW17428   2.435   2.732   6.615
 5629SOL    HW117429   2.479   2.821   6.606
 5629SOL    HW217430   2.372   2.732   6.692
 5630SOL     OW17431   3.222   2.724   6.631
 5630SOL    HW117432   3.147   2.724   6.565
 5630SOL    HW217433   3.259   2.632   6.640
 5631SOL     OW17434   3.071   2.387   5.861
 5631SOL    HW117435   3.084   2.303   5.915
 5631SOL    HW217436   3.042   2.461   5.921
 5632SOL     OW17437   2.169   2.075   6.817
 5632SOL    HW117438   2.146   2.112   6.907
 5632SOL    HW217439   2.139   1.980   6.811
 5633SOL     OW17440   1.899   3.172   6.868
 5633SOL    HW117441   1.952   3.123   6.936
 5633SOL    HW217442   1.921   3.270   6.873
 5634SOL     OW17443   3.590   2.797   7.440
 5634SOL    HW117444   3.544   2.790   7.351
 5634SOL    HW217445   3.528   2.841   7.506
 5635SOL     OW17446   3.484   2.229   5.960
 5635SOL    HW117447   3.486   2.153   6.024
 5635SOL    HW217448   3.436   2.306   6.000
 5636SOL     OW17449   2.885   2.628   6.552
 5636SOL    HW117450   2.900   2.649   6.648
 5636SOL    HW217451   2.855   2.533   6.543
 5637SOL     OW17452   2.842   3.435   7.286
 5637SOL    HW117453   2.822   3.479   7.198
 5637SOL    HW217454   2.881   3.344   7.270
 5638SOL     OW17455   3.721   3.380   7.191
 5638SOL    HW117456   3.735   3.407   7.096
 5638SOL    HW217457   3.804   3.402   7.244
 5639SOL     OW17458   3.402   2.136   5.711
 5639SOL    HW117459   3.341   2.061   5.734
 5639SOL    HW217460   3.424   2.188   5.794
 5640SOL     OW17461   3.165   2.700   5.628
 5640SOL    HW117462   3.199   2.607   5.643
 5640SOL    HW217463   3.183   2.727   5.533
 5641SOL     OW17464   2.930   3.195   6.435
 5641SOL    HW117465   2.937   3.111   6.380
 5641SOL    HW217466   2.992   3.264   6.399
 5642SOL     OW17467   3.000   2.242   7.264
 5642SOL    HW117468   2.955   2.305   7.328
 5642SOL    HW217469   3.093   2.273   7.247
 5643SOL     OW17470   3.022   2.069   7.063
 5643SOL    HW117471   3.022   2.133   7.140
 5643SOL    HW217472   3.050   2.117   6.980
 5644SOL     OW17473   1.870   3.188   5.786
 5644SOL    HW117474   1.777   3.209   5.755
 5644SOL    HW217475   1.880   3.089   5.799
 5645SOL     OW17476   1.950   3.663   6.513
 5645SOL    HW117477   1.908   3.577   6.486
 5645SOL    HW217478   2.044   3.666   6.479
 5646SOL     OW17479   2.366   3.430   6.496
 5646SOL    HW117480   2.432   3.504   6.505
 5646SOL    HW217481   2.410   3.351   6.454
 5647SOL     OW17482   2.864   2.658   6.824
 5647SOL    HW117483   2.905   2.626   6.910
 5647SOL    HW217484   2.768   2.631   6.821
 5648SOL     OW17485   2.051   2.382   7.308
 5648SOL    HW117486   2.110   2.342   7.238
 5648SOL    HW217487   1.993   2.453   7.267
 5649SOL     OW17488   3.231   2.812   7.246
 5649SOL    HW117489   3.270   2.901   7.266
 5649SOL    HW217490   3.241   2.792   7.149
 5650SOL     OW17491   2.677   2.434   5.911
 5650SOL    HW117492   2.684   2.345   5.865
 5650SOL    HW217493   2.583   2.468   5.903
 5651SOL     OW17494   3.519   2.466   6.792
 5651SOL    HW117495   3.481   2.397   6.854
 5651SOL    HW217496   3.601   2.430   6.748
 5652SOL     OW17497   2.114   3.426   7.330
 5652SOL    HW117498   2.084   3.483   7.406
 5652SOL    HW217499   2.107   3.329   7.356
 5653SOL     OW17500   2.792   3.540   7.051
 5653SOL    HW117501   2.768   3.522   6.956
 5653SOL    HW217502   2.822   3.634   7.061
 5654SOL     OW17503   2.335   2.362   5.777
 5654SOL    HW117504   2.396   2.442   5.781
 5654SOL    HW217505   2.240   2.393   5.784
 5655SOL     OW17506   2.021   2.999   7.052
 5655SOL    HW117507   2.043   2.938   7.128
 5655SOL    HW217508   2.031   2.950   6.966
 5656SOL     OW17509   3.209   2.921   6.820
 5656SOL    HW117510   3.233   2.858   6.746
 5656SOL    HW217511   3.119   2.961   6.802
 5657SOL     OW17512   3.164   2.717   5.895
 5657SOL    HW117513   3.078   2.686   5.937
 5657SOL    HW217514   3.160   2.703   5.796
 5658SOL     OW17515   3.621   3.609   6.740
 5658SOL    HW117516   3.682   3.639   6.667
 5658SOL    HW217517   3.583   3.520   6.718
 5659SOL     OW17518   3.114   3.593   6.714
 5659SOL    HW117519   3.198   3.598   6.660
 5659SOL    HW217520   3.091   3.497   6.732
 5660SOL     OW17521   1.945   3.120   6.608
 5660SOL    HW117522   1.940   3.119   6.708
 5660SOL    HW217523   1.862   3.079   6.570
 5661SOL     OW17524   2.550   3.524   7.302
 5661SOL    HW117525   2.494   3.605   7.311
 5661SOL    HW217526   2.602   3.528   7.216
 5662SOL     OW17527   3.588   1.997   6.109
 5662SOL    HW117528   3.661   1.980   6.042
 5662SOL    HW217529   3.557   1.910   6.147
 5663SOL     OW17530   3.250   3.435   6.063
 5663SOL    HW117531   3.317   3.447   5.989
 5663SOL    HW217532   3.210   3.524   6.086
 5664SOL     OW17533   1.992   3.656   7.437
 5664SOL    HW117534   1.951   3.582   7.490
 5664SOL    HW217535   2.056   3.707   7.495
 5665SOL     OW17536   3.142   2.789   6.258
 5665SOL    HW117537   3.202   2.708   6.260
 5665SOL    HW217538   3.182   2.858   6.198
 5666SOL     OW17539   2.692   3.135   7.008
 5666SOL    HW117540   2.687   3.168   7.103
 5666SOL    HW217541   2.606   3.154   6.962
 5667SOL     OW17542   2.534   3.478   5.740
 5667SOL    HW117543   2.543   3.488   5.641
 5667SOL    HW217544   2.494   3.389   5.761
 5668SOL     OW17545   3.512   3.582   6.980
 5668SOL    HW117546   3.565   3.592   6.896
 5668SOL    HW217547   3.485   3.672   7.014
 5669SOL     OW17548   3.703   2.037   6.549
 5669SOL    HW117549   3.742   1.952   6.513
 5669SOL    HW217550   3.605   2.039   6.530
 5670SOL     OW17551   3.056   3.474   5.617
 5670SOL    HW117552   3.062   3.381   5.654
 5670SOL    HW217553   2.997   3.474   5.537
 5671SOL     OW17554   2.684   2.864   6.958
 5671SOL    HW117555   2.724   2.863   6.866
 5671SOL    HW217556   2.694   2.956   6.998
 5672SOL     OW17557   2.778   2.772   5.877
 5672SOL    HW117558   2.841   2.810   5.809
 5672SOL    HW217559   2.818   2.689   5.916
 5673SOL     OW17560   3.366   3.469   5.630
 5673SOL    HW117561   3.274   3.506   5.637
 5673SOL    HW217562   3.404   3.489   5.540
 5674SOL     OW17563   2.234   3.150   7.076
 5674SOL    HW117564   2.221   3.243   7.042
 5674SOL    HW217565   2.150   3.098   7.063
 5675SOL     OW17566   3.476   3.154   6.875
 5675SOL    HW117567   3.536   3.157   6.955
 5675SOL    HW217568   3.401   3.218   6.888
 5676SOL     OW17569   2.901   2.960   6.282
 5676SOL    HW117570   2.831   2.913   6.336
 5676SOL    HW217571   2.960   2.892   6.239
 5677SOL     OW17572   2.452   3.349   6.077
 5677SOL    HW117573   2.494   3.291   6.007
 5677SOL    HW217574   2.408   3.428   6.033
 5678SOL     OW17575   3.571   2.247   6.967
 5678SOL    HW117576   3.644   2.316   6.971
 5678SOL    HW217577   3.599   2.172   6.908
 5679SOL     OW17578   2.117   3.210   5.876
 5679SOL    HW117579   2.021   3.211   5.849
 5679SOL    HW217580   2.129   3.263   5.960
 5680SOL     OW17581   1.937   2.207   5.619
 5680SOL    HW117582   1.845   2.179   5.590
 5680SOL    HW217583   1.968   2.284   5.563
 5681SOL     OW17584   3.302   2.718   6.984
 5681SOL    HW117585   3.245   2.770   6.921
 5681SOL    HW217586   3.398   2.730   6.960
 5682SOL     OW17587   3.045   3.197   5.705
 5682SOL    HW117588   2.946   3.186   5.707
 5682SOL    HW217589   3.079   3.212   5.798
 5683SOL     OW17590   2.475   2.704   7.017
 5683SOL    HW117591   2.531   2.785   7.000
 5683SOL    HW217592   2.534   2.624   7.020
 5684SOL     OW17593   3.355   3.629   6.545
 5684SOL    HW117594   3.388   3.693   6.476
 5684SOL    HW217595   3.421   3.623   6.620
 5685SOL     OW17596   3.312   3.082   7.219
 5685SOL    HW117597   3.303   3.072   7.318
 5685SOL    HW217598   3.408   3.075   7.193
 5686SOL     OW17599   2.252   3.603   7.146
 5686SOL    HW117600   2.161   3.644   7.144
 5686SOL    HW217601   2.245   3.509   7.178
 5687SOL     OW17602   3.536   2.745   6.840
 5687SOL    HW117603   3.509   2.656   6.803
 5687SOL    HW217604   3.537   2.813   6.767
 5688SOL     OW17605   3.087   2.187   6.035
 5688SOL    HW117606   3.152   2.113   6.024
 5688SOL    HW217607   3.107   2.237   6.119
 5689SOL     OW17608   3.639   2.204   7.228
 5689SOL    HW117609   3.622   2.235   7.134
 5689SOL    HW217610   3.555   2.167   7.266
 5690SOL     OW17611   3.592   2.796   7.103
 5690SOL    HW117612   3.630   2.887   7.118
 5690SOL    HW217613   3.584   2.779   7.004
 5691SOL     OW17614   2.721   3.236   5.602
 5691SOL    HW117615   2.675   3.251   5.690
 5691SOL    HW217616   2.765   3.321   5.572
 5692SOL     OW17617   2.523   3.652   6.539
 5692SOL    HW117618   2.477   3.740   6.526
 5692SOL    HW217619   2.622   3.664   6.532
 5693SOL     OW17620   2.721   2.818   6.447
 5693SOL    HW117621   2.775   2.749   6.495
 5693SOL    HW217622   2.689   2.887   6.513
 5694SOL     OW17623   2.945   2.846   5.673
 5694SOL    HW117624   2.922   2.899   5.591
 5694SOL    HW217625   3.026   2.790   5.654
 5695SOL     OW17626   3.723   3.431   6.437
 5695SOL    HW117627   3.652   3.419   6.367
 5695SOL    HW217628   3.724   3.352   6.497
 5696SOL     OW17629   2.083   3.176   7.430
 5696SOL    HW117630   2.018   3.103   7.409
 5696SOL    HW217631   2.087   3.190   7.528
 5697SOL     OW17632   1.941   3.102   6.239
 5697SOL    HW117633   1.940   3.055   6.327
 5697SOL    HW217634   2.023   3.074   6.188
 5698SOL     OW17635   2.534   3.253   7.210
 5698SOL    HW117636   2.456   3.203   7.248
 5698SOL    HW217637   2.531   3.348   7.241
 5699SOL     OW17638   3.686   2.054   6.813
 5699SOL    HW117639   3.682   1.964   6.857
 5699SOL    HW217640   3.689   2.043   6.714
 5700SOL     OW17641   2.290   2.286   6.106
 5700SOL    HW117642   2.320   2.214   6.044
 5700SOL    HW217643   2.251   2.246   6.189
 5701SOL     OW17644   3.567   3.349   6.690
 5701SOL    HW117645   3.474   3.324   6.663
 5701SOL    HW217646   3.593   3.299   6.772
 5702SOL     OW17647   2.179   2.409   6.866
 5702SOL    HW117648   2.217   2.350   6.938
 5702SOL    HW217649   2.219   2.383   6.778
 5703SOL     OW17650   2.674   3.448   6.273
 5703SOL    HW117651   2.706   3.458   6.179
 5703SOL    HW217652   2.595   3.386   6.275
 5704SOL     OW17653   3.286   2.076   6.698
 5704SOL    HW117654   3.338   2.011   6.753
 5704SOL    HW217655   3.237   2.139   6.759
 5705SOL     OW17656   2.632   3.192   5.887
 5705SOL    HW117657   2.586   3.105   5.904
 5705SOL    HW217658   2.723   3.189   5.928
 5706SOL     OW17659   2.480   3.429   6.870
 5706SOL    HW117660   2.475   3.511   6.927
 5706SOL    HW217661   2.569   3.426   6.825
 5707SOL     OW17662   3.214   1.914   5.754
 5707SOL    HW117663   3.249   1.873   5.670
 5707SOL    HW217664   3.124   1.876   5.774
 5708SOL     OW17665   3.162   2.315   6.277
 5708SOL    HW117666   3.103   2.395   6.281
 5708SOL    HW217667   3.177   2.280   6.370
 5709SOL     OW17668   3.455   2.083   6.468
 5709SOL    HW117669   3.371   2.082   6.522
 5709SOL    HW217670   3.457   2.166   6.412
 5710SOL     OW17671   1.901   2.939   5.886
 5710SOL    HW117672   2.000   2.928   5.877
 5710SOL    HW217673   1.861   2.853   5.918
 5711SOL     OW17674   2.737   3.508   5.923
 5711SOL    HW117675   2.660   3.473   5.869
 5711SOL    HW217676   2.705   3.579   5.985
 5712SOL     OW17677   1.881   2.230   8.095
 5712SOL    HW117678   1.799   2.273   8.134
 5712SOL    HW217679   1.853   2.157   8.032
 5713SOL     OW17680   2.431   3.137   8.613
 5713SOL    HW117681   2.338   3.130   8.576
 5713SOL    HW217682   2.442   3.226   8.657
 5714SOL     OW17683   3.417   3.373   8.151
 5714SOL    HW117684   3.360   3.357   8.232
 5714SOL    HW217685   3.358   3.383   8.071
 5715SOL     OW17686   2.997   2.565   8.165
 5715SOL    HW117687   3.054   2.643   8.140
 5715SOL    HW217688   2.937   2.591   8.241
 5716SOL     OW17689   3.617   2.469   7.679
 5716SOL    HW117690   3.605   2.456   7.580
 5716SOL    HW217691   3.587   2.388   7.728
 5717SOL     OW17692   2.630   3.006   8.471
 5717SOL    HW117693   2.552   3.023   8.531
 5717SOL    HW217694   2.664   3.093   8.435
 5718SOL     OW17695   2.712   2.660   9.271
 5718SOL    HW117696   2.708   2.736   9.336
 5718SOL    HW217697   2.734   2.696   9.180
 5719SOL     OW17698   2.547   2.874   8.113
 5719SOL    HW117699   2.616   2.858   8.183
 5719SOL    HW217700   2.474   2.931   8.151
 5720SOL     OW17701   2.548   3.023   9.251
 5720SOL    HW117702   2.608   3.102   9.265
 5720SOL    HW217703   2.462   3.054   9.210
 5721SOL     OW17704   2.197   3.297   8.509
 5721SOL    HW117705   2.119   3.266   8.456
 5721SOL    HW217706   2.255   3.355   8.452
 5722SOL     OW17707   3.322   3.367   8.787
 5722SOL    HW117708   3.346   3.461   8.813
 5722SOL    HW217709   3.306   3.313   8.869
 5723SOL     OW17710   2.300   2.254   8.947
 5723SOL    HW117711   2.382   2.198   8.956
 5723SOL    HW217712   2.219   2.196   8.951
 5724SOL     OW17713   3.465   2.309   8.185
 5724SOL    HW117714   3.391   2.355   8.135
 5724SOL    HW217715   3.516   2.377   8.238
 5725SOL     OW17716   2.093   3.575   7.931
 5725SOL    HW117717   2.127   3.652   7.985
 5725SOL    HW217718   2.137   3.575   7.841
 5726SOL     OW17719   2.989   3.203   9.138
 5726SOL    HW117720   3.036   3.203   9.226
 5726SOL    HW217721   2.941   3.116   9.127
 5727SOL     OW17722   2.092   3.296   7.986
 5727SOL    HW117723   2.066   3.392   7.986
 5727SOL    HW217724   2.021   3.242   8.031
 5728SOL     OW17725   2.102   2.953   8.334
 5728SOL    HW117726   2.116   2.869   8.386
 5728SOL    HW217727   2.047   3.017   8.389
 5729SOL     OW17728   2.482   3.648   8.887
 5729SOL    HW117729   2.390   3.631   8.922
 5729SOL    HW217730   2.510   3.740   8.913
 5730SOL     OW17731   2.468   2.826   7.571
 5730SOL    HW117732   2.475   2.910   7.517
 5730SOL    HW217733   2.514   2.839   7.659
 5731SOL     OW17734   3.456   1.976   8.928
 5731SOL    HW117735   3.438   2.043   8.856
 5731SOL    HW217736   3.453   2.022   9.017
 5732SOL     OW17737   1.984   2.505   8.011
 5732SOL    HW117738   1.939   2.417   8.028
 5732SOL    HW217739   1.983   2.559   8.095
 5733SOL     OW17740   3.704   3.629   7.807
 5733SOL    HW117741   3.758   3.600   7.887
 5733SOL    HW217742   3.734   3.719   7.778
 5734SOL     OW17743   1.889   3.458   7.565
 5734SOL    HW117744   1.870   3.362   7.586
 5734SOL    HW217745   1.856   3.516   7.640
 5735SOL     OW17746   3.551   2.784   8.060
 5735SOL    HW117747   3.646   2.755   8.068
 5735SOL    HW217748   3.543   2.849   7.985
 5736SOL     OW17749   3.503   2.970   7.880
 5736SOL    HW117750   3.589   2.972   7.828
 5736SOL    HW217751   3.517   3.017   7.968
 5737SOL     OW17752   1.975   2.599   9.045
 5737SOL    HW117753   2.063   2.586   9.090
 5737SOL    HW217754   1.962   2.696   9.023
 5738SOL     OW17755   2.475   3.227   8.174
 5738SOL    HW117756   2.426   3.140   8.183
 5738SOL    HW217757   2.452   3.270   8.087
 5739SOL     OW17758   3.155   3.090   8.871
 5739SOL    HW117759   3.192   3.017   8.813
 5739SOL    HW217760   3.207   3.095   8.956
 5740SOL     OW17761   2.671   1.866   7.950
 5740SOL    HW117762   2.711   1.957   7.941
 5740SOL    HW217763   2.571   1.874   7.956
 5741SOL     OW17764   2.059   2.838   8.712
 5741SOL    HW117765   2.148   2.793   8.698
 5741SOL    HW217766   1.986   2.773   8.693
 5742SOL     OW17767   3.387   2.861   7.638
 5742SOL    HW117768   3.324   2.785   7.651
 5742SOL    HW217769   3.435   2.879   7.724
 5743SOL     OW17770   3.049   3.654   9.064
 5743SOL    HW117771   3.073   3.714   8.988
 5743SOL    HW217772   3.056   3.559   9.034
 5744SOL     OW17773   2.179   2.113   9.249
 5744SOL    HW117774   2.250   2.184   9.255
 5744SOL    HW217775   2.091   2.152   9.277
 5745SOL     OW17776   3.328   3.279   8.401
 5745SOL    HW117777   3.269   3.285   8.481
 5745SOL    HW217778   3.313   3.191   8.355
 5746SOL     OW17779   3.529   3.576   8.020
 5746SOL    HW117780   3.488   3.553   7.932
 5746SOL    HW217781   3.511   3.502   8.085
 5747SOL     OW17782   3.143   2.207   8.392
 5747SOL    HW117783   3.057   2.157   8.379
 5747SOL    HW217784   3.205   2.153   8.448
 5748SOL     OW17785   3.438   3.524   7.755
 5748SOL    HW117786   3.527   3.570   7.758
 5748SOL    HW217787   3.417   3.500   7.660
 5749SOL     OW17788   2.669   2.467   8.913
 5749SOL    HW117789   2.622   2.464   9.002
 5749SOL    HW217790   2.618   2.412   8.847
 5750SOL     OW17791   3.256   2.331   9.122
 5750SOL    HW117792   3.236   2.374   9.210
 5750SOL    HW217793   3.334   2.269   9.131
 5751SOL     OW17794   2.835   2.752   9.020
 5751SOL    HW117795   2.881   2.668   8.991
 5751SOL    HW217796   2.779   2.786   8.945
 5752SOL     OW17797   2.853   2.272   8.690
 5752SOL    HW117798   2.776   2.306   8.744
 5752SOL    HW217799   2.819   2.221   8.611
 5753SOL     OW17800   2.903   2.563   7.877
 5753SOL    HW117801   2.929   2.559   7.973
 5753SOL    HW217802   2.818   2.512   7.863
 5754SOL     OW17803   1.938   2.673   8.237
 5754SOL    HW117804   2.037   2.661   8.246
 5754SOL    HW217805   1.914   2.768   8.258
 5755SOL     OW17806   1.992   3.683   9.019
 5755SOL    HW117807   1.982   3.668   9.118
 5755SOL    HW217808   1.906   3.719   8.983
 5756SOL     OW17809   3.581   2.447   9.279
 5756SOL    HW117810   3.555   2.536   9.243
 5756SOL    HW217811   3.579   2.379   9.206
 5757SOL     OW17812   3.224   3.006   7.993
 5757SOL    HW117813   3.307   2.977   7.945
 5757SOL    HW217814   3.175   3.073   7.937
 5758SOL     OW17815   2.412   2.058   8.333
 5758SOL    HW117816   2.407   2.053   8.433
 5758SOL    HW217817   2.414   2.154   8.304
 5759SOL     OW17818   2.870   3.318   7.925
 5759SOL    HW117819   2.824   3.390   7.873
 5759SOL    HW217820   2.866   3.338   8.023
 5760SOL     OW17821   2.213   3.663   8.301
 5760SOL    HW117822   2.263   3.577   8.307
 5760SOL    HW217823   2.278   3.740   8.298
 5761SOL     OW17824   3.657   2.928   8.321
 5761SOL    HW117825   3.595   2.913   8.245
 5761SOL    HW217826   3.605   2.939   8.406
 5762SOL     OW17827   3.089   3.412   8.954
 5762SOL    HW117828   3.095   3.335   9.018
 5762SOL    HW217829   3.037   3.386   8.874
 5763SOL     OW17830   3.320   2.597   8.176
 5763SOL    HW117831   3.315   2.532   8.251
 5763SOL    HW217832   3.400   2.656   8.189
 5764SOL     OW17833   2.323   3.128   9.175
 5764SOL    HW117834   2.273   3.129   9.089
 5764SOL    HW217835   2.260   3.110   9.251
 5765SOL     OW17836   2.973   3.638   7.685
 5765SOL    HW117837   2.913   3.576   7.735
 5765SOL    HW217838   3.004   3.594   7.600
 5766SOL     OW17839   3.494   3.239   7.529
 5766SOL    HW117840   3.462   3.333   7.519
 5766SOL    HW217841   3.418   3.176   7.517
 5767SOL     OW17842   2.326   3.605   7.771
 5767SOL    HW117843   2.359   3.644   7.857
 5767SOL    HW217844   2.402   3.598   7.706
 5768SOL     OW17845   3.262   1.969   7.874
 5768SOL    HW117846   3.238   1.932   7.784
 5768SOL    HW217847   3.361   1.985   7.878
 5769SOL     OW17848   2.111   3.647   8.689
 5769SOL    HW117849   2.168   3.582   8.739
 5769SOL    HW217850   2.095   3.614   8.596
 5770SOL     OW17851   2.802   3.560   8.352
 5770SOL    HW117852   2.882   3.503   8.373
 5770SOL    HW217853   2.753   3.520   8.275
 5771SOL     OW17854   2.244   2.562   7.928
 5771SOL    HW117855   2.289   2.472   7.925
 5771SOL    HW217856   2.150   2.551   7.961
 5772SOL     OW17857   3.409   2.084   9.177
 5772SOL    HW117858   3.404   2.121   9.269
 5772SOL    HW217859   3.337   2.015   9.165
 5773SOL     OW17860   2.643   2.126   9.197
 5773SOL    HW117861   2.710   2.065   9.240
 5773SOL    HW217862   2.570   2.145   9.262
 5774SOL     OW17863   2.750   3.376   8.643
 5774SOL    HW117864   2.727   3.351   8.549
 5774SOL    HW217865   2.811   3.307   8.682
 5775SOL     OW17866   3.213   2.452   8.881
 5775SOL    HW117867   3.241   2.409   8.966
 5775SOL    HW217868   3.238   2.548   8.882
 5776SOL     OW17869   2.665   3.264   8.372
 5776SOL    HW117870   2.755   3.278   8.330
 5776SOL    HW217871   2.594   3.266   8.301
 5777SOL     OW17872   2.784   2.365   8.347
 5777SOL    HW117873   2.759   2.356   8.251
 5777SOL    HW217874   2.832   2.283   8.378
 5778SOL     OW17875   2.401   1.926   7.960
 5778SOL    HW117876   2.320   1.927   8.018
 5778SOL    HW217877   2.404   2.009   7.905
 5779SOL     OW17878   3.296   3.050   7.489
 5779SOL    HW117879   3.328   2.974   7.546
 5779SOL    HW217880   3.204   3.077   7.519
 5780SOL     OW17881   2.797   2.098   7.928
 5780SOL    HW117882   2.749   2.139   7.850
 5780SOL    HW217883   2.896   2.096   7.909
 5781SOL     OW17884   2.938   2.545   8.912
 5781SOL    HW117885   2.858   2.484   8.915
 5781SOL    HW217886   3.019   2.492   8.888
 5782SOL     OW17887   3.089   3.432   8.241
 5782SOL    HW117888   3.110   3.506   8.176
 5782SOL    HW217889   3.157   3.432   8.314
 5783SOL     OW17890   2.321   3.014   8.189
 5783SOL    HW117891   2.250   2.987   8.254
 5783SOL    HW217892   2.295   2.986   8.096
 5784SOL     OW17893   3.133   3.659   8.039
 5784SOL    HW117894   3.177   3.723   7.975
 5784SOL    HW217895   3.083   3.711   8.109
 5785SOL     OW17896   2.894   2.411   7.464
 5785SOL    HW117897   2.853   2.493   7.425
 5785SOL    HW217898   2.958   2.437   7.537
 5786SOL     OW17899   1.940   2.418   8.834
 5786SOL    HW117900   2.032   2.417   8.793
 5786SOL    HW217901   1.934   2.492   8.901
 5787SOL     OW17902   2.423   2.084   8.595
 5787SOL    HW117903   2.461   2.000   8.632
 5787SOL    HW217904   2.335   2.103   8.639
 5788SOL     OW17905   2.728   2.316   8.090
 5788SOL    HW117906   2.696   2.388   8.028
 5788SOL    HW217907   2.752   2.235   8.037
 5789SOL     OW17908   2.879   1.901   8.201
 5789SOL    HW117909   2.807   1.906   8.132
 5789SOL    HW217910   2.855   1.832   8.270
 5790SOL     OW17911   3.291   3.035   8.315
 5790SOL    HW117912   3.236   2.951   8.308
 5790SOL    HW217913   3.317   3.064   8.223
 5791SOL     OW17914   3.328   2.452   8.440
 5791SOL    HW117915   3.298   2.357   8.447
 5791SOL    HW217916   3.401   2.468   8.506
 5792SOL     OW17917   3.719   2.695   7.825
 5792SOL    HW117918   3.761   2.631   7.889
 5792SOL    HW217919   3.681   2.644   7.747
 5793SOL     OW17920   2.350   3.247   7.622
 5793SOL    HW117921   2.263   3.232   7.669
 5793SOL    HW217922   2.333   3.273   7.527
 5794SOL     OW17923   3.526   3.142   8.105
 5794SOL    HW117924   3.625   3.150   8.119
 5794SOL    HW217925   3.481   3.226   8.136
 5795SOL     OW17926   3.252   2.437   7.526
 5795SOL    HW117927   3.198   2.416   7.607
 5795SOL    HW217928   3.343   2.396   7.535
 5796SOL     OW17929   3.616   3.085   9.036
 5796SOL    HW117930   3.707   3.046   9.023
 5796SOL    HW217931   3.624   3.181   9.060
 5797SOL     OW17932   2.926   3.209   8.788
 5797SOL    HW117933   2.846   3.186   8.843
 5797SOL    HW217934   3.009   3.183   8.837
 5798SOL     OW17935   3.454   3.491   9.073
 5798SOL    HW117936   3.481   3.525   8.983
 5798SOL    HW217937   3.533   3.453   9.119
 5799SOL     OW17938   2.973   3.057   8.548
 5799SOL    HW117939   2.933   3.101   8.629
 5799SOL    HW217940   2.932   3.094   8.465
 5800SOL     OW17941   3.500   2.961   8.527
 5800SOL    HW117942   3.505   3.042   8.586
 5800SOL    HW217943   3.414   2.963   8.476
 5801SOL     OW17944   2.777   1.951   8.850
 5801SOL    HW117945   2.802   1.931   8.755
 5801SOL    HW217946   2.849   2.007   8.892
 5802SOL     OW17947   2.842   2.978   9.167
 5802SOL    HW117948   2.743   2.984   9.177
 5802SOL    HW217949   2.865   2.898   9.111
 5803SOL     OW17950   2.567   2.912   7.816
 5803SOL    HW117951   2.553   2.919   7.915
 5803SOL    HW217952   2.651   2.861   7.798
 5804SOL     OW17953   2.272   2.675   8.699
 5804SOL    HW117954   2.358   2.687   8.749
 5804SOL    HW217955   2.230   2.588   8.726
 5805SOL     OW17956   3.136   2.248   8.710
 5805SOL    HW117957   3.157   2.322   8.774
 5805SOL    HW217958   3.047   2.265   8.667
 5806SOL     OW17959   1.926   3.426   8.779
 5806SOL    HW117960   1.880   3.508   8.745
 5806SOL    HW217961   2.024   3.445   8.788
 5807SOL     OW17962   2.229   2.962   7.949
 5807SOL    HW117963   2.222   3.045   7.893
 5807SOL    HW217964   2.233   2.882   7.889
 5808SOL     OW17965   2.428   2.399   8.313
 5808SOL    HW117966   2.440   2.465   8.239
 5808SOL    HW217967   2.474   2.433   8.396
 5809SOL     OW17968   3.114   3.210   7.836
 5809SOL    HW117969   3.164   3.287   7.876
 5809SOL    HW217970   3.019   3.212   7.868
 5810SOL     OW17971   3.134   3.307   8.590
 5810SOL    HW117972   3.181   3.320   8.677
 5810SOL    HW217973   3.068   3.233   8.599
 5811SOL     OW17974   3.444   2.501   7.920
 5811SOL    HW117975   3.413   2.562   7.993
 5811SOL    HW217976   3.494   2.553   7.851
 5812SOL     OW17977   2.216   3.372   8.777
 5812SOL    HW117978   2.195   3.328   8.690
 5812SOL    HW217979   2.313   3.398   8.780
 5813SOL     OW17980   2.264   2.613   9.046
 5813SOL    HW117981   2.332   2.668   8.999
 5813SOL    HW217982   2.304   2.525   9.073
 5814SOL     OW17983   3.449   2.641   9.118
 5814SOL    HW117984   3.357   2.679   9.113
 5814SOL    HW217985   3.509   2.688   9.053
 5815SOL     OW17986   2.875   1.967   9.218
 5815SOL    HW117987   2.881   2.052   9.166
 5815SOL    HW217988   2.907   1.891   9.161
 5816SOL     OW17989   2.366   1.912   9.188
 5816SOL    HW117990   2.324   1.855   9.118
 5816SOL    HW217991   2.300   1.981   9.220
 5817SOL     OW17992   2.435   2.732   8.477
 5817SOL    HW117993   2.479   2.821   8.468
 5817SOL    HW217994   2.372   2.732   8.554
 5818SOL     OW17995   3.222   2.724   8.493
 5818SOL    HW117996   3.147   2.724   8.427
 5818SOL    HW217997   3.259   2.632   8.502
 5819SOL     OW17998   3.071   2.387   7.723
 5819SOL    HW117999   3.084   2.303   7.777
 5819SOL    HW218000   3.042   2.461   7.783
 5820SOL     OW18001   2.169   2.075   8.679
 5820SOL    HW118002   2.146   2.112   8.769
 5820SOL    HW218003   2.139   1.980   8.673
 5821SOL     OW18004   1.899   3.172   8.730
 5821SOL    HW118005   1.952   3.123   8.798
 5821SOL    HW218006   1.921   3.270   8.735
 5822SOL     OW18007   2.594   2.496   8.512
 5822SOL    HW118008   2.653   2.470   8.436
 5822SOL    HW218009   2.566   2.592   8.501
 5823SOL     OW18010   3.590   2.797   9.302
 5823SOL    HW118011   3.544   2.790   9.213
 5823SOL    HW218012   3.528   2.841   9.368
 5824SOL     OW18013   3.484   2.229   7.822
 5824SOL    HW118014   3.486   2.153   7.886
 5824SOL    HW218015   3.436   2.306   7.862
 5825SOL     OW18016   2.885   2.628   8.414
 5825SOL    HW118017   2.900   2.649   8.510
 5825SOL    HW218018   2.855   2.533   8.405
 5826SOL     OW18019   2.842   3.435   9.148
 5826SOL    HW118020   2.822   3.479   9.060
 5826SOL    HW218021   2.881   3.344   9.132
 5827SOL     OW18022   3.721   3.380   9.053
 5827SOL    HW118023   3.735   3.407   8.958
 5827SOL    HW218024   3.804   3.402   9.106
 5828SOL     OW18025   2.212   2.760   9.252
 5828SOL    HW118026   2.288   2.804   9.300
 5828SOL    HW218027   2.247   2.713   9.170
 5829SOL     OW18028   3.402   2.136   7.573
 5829SOL    HW118029   3.341   2.061   7.596
 5829SOL    HW218030   3.424   2.188   7.656
 5830SOL     OW18031   3.165   2.700   7.490
 5830SOL    HW118032   3.199   2.607   7.505
 5830SOL    HW218033   3.183   2.727   7.395
 5831SOL     OW18034   2.930   3.195   8.297
 5831SOL    HW118035   2.937   3.111   8.242
 5831SOL    HW218036   2.992   3.264   8.261
 5832SOL     OW18037   2.181   2.672   8.397
 5832SOL    HW118038   2.274   2.708   8.402
 5832SOL    HW218039   2.175   2.587   8.449
 5833SOL     OW18040   2.201   2.371   8.454
 5833SOL    HW118041   2.149   2.288   8.437
 5833SOL    HW218042   2.278   2.376   8.390
 5834SOL     OW18043   3.000   2.242   9.126
 5834SOL    HW118044   2.955   2.305   9.190
 5834SOL    HW218045   3.093   2.273   9.109
 5835SOL     OW18046   3.022   2.069   8.925
 5835SOL    HW118047   3.022   2.133   9.002
 5835SOL    HW218048   3.050   2.117   8.842
 5836SOL     OW18049   1.870   3.188   7.648
 5836SOL    HW118050   1.777   3.209   7.617
 5836SOL    HW218051   1.880   3.089   7.661
 5837SOL     OW18052   1.950   3.663   8.375
 5837SOL    HW118053   1.908   3.577   8.348
 5837SOL    HW218054   2.044   3.666   8.341
 5838SOL     OW18055   2.366   3.430   8.358
 5838SOL    HW118056   2.432   3.504   8.367
 5838SOL    HW218057   2.410   3.351   8.316
 5839SOL     OW18058   2.864   2.658   8.686
 5839SOL    HW118059   2.905   2.626   8.772
 5839SOL    HW218060   2.768   2.631   8.683
 5840SOL     OW18061   1.902   2.406   8.562
 5840SOL    HW118062   1.987   2.373   8.521
 5840SOL    HW218063   1.915   2.421   8.660
 5841SOL     OW18064   2.051   2.382   9.170
 5841SOL    HW118065   2.110   2.342   9.100
 5841SOL    HW218066   1.993   2.453   9.129
 5842SOL     OW18067   3.231   2.812   9.108
 5842SOL    HW118068   3.270   2.901   9.128
 5842SOL    HW218069   3.241   2.792   9.011
 5843SOL     OW18070   3.519   2.466   8.654
 5843SOL    HW118071   3.481   2.397   8.716
 5843SOL    HW218072   3.601   2.430   8.610
 5844SOL     OW18073   2.114   3.426   9.192
 5844SOL    HW118074   2.084   3.483   9.268
 5844SOL    HW218075   2.107   3.329   9.218
 5845SOL     OW18076   2.533   2.326   8.717
 5845SOL    HW118077   2.499   2.237   8.687
 5845SOL    HW218078   2.559   2.380   8.637
 5846SOL     OW18079   2.792   3.540   8.913
 5846SOL    HW118080   2.768   3.522   8.818
 5846SOL    HW218081   2.822   3.634   8.923
 5847SOL     OW18082   2.021   2.999   8.914
 5847SOL    HW118083   2.043   2.938   8.990
 5847SOL    HW218084   2.031   2.950   8.828
 5848SOL     OW18085   3.209   2.921   8.682
 5848SOL    HW118086   3.233   2.858   8.608
 5848SOL    HW218087   3.119   2.961   8.664
 5849SOL     OW18088   3.164   2.717   7.757
 5849SOL    HW118089   3.078   2.686   7.799
 5849SOL    HW218090   3.160   2.703   7.658
 5850SOL     OW18091   3.621   3.609   8.602
 5850SOL    HW118092   3.682   3.639   8.529
 5850SOL    HW218093   3.583   3.520   8.580
 5851SOL     OW18094   3.114   3.593   8.576
 5851SOL    HW118095   3.198   3.598   8.522
 5851SOL    HW218096   3.091   3.497   8.594
 5852SOL     OW18097   1.945   3.120   8.470
 5852SOL    HW118098   1.940   3.119   8.570
 5852SOL    HW218099   1.862   3.079   8.432
 5853SOL     OW18100   2.550   3.524   9.164
 5853SOL    HW118101   2.494   3.605   9.173
 5853SOL    HW218102   2.602   3.528   9.078
 5854SOL     OW18103   3.588   1.997   7.971
 5854SOL    HW118104   3.661   1.980   7.904
 5854SOL    HW218105   3.557   1.910   8.009
 5855SOL     OW18106   3.250   3.435   7.925
 5855SOL    HW118107   3.317   3.447   7.851
 5855SOL    HW218108   3.210   3.524   7.948
 5856SOL     OW18109   1.992   3.656   9.299
 5856SOL    HW118110   1.951   3.582   9.352
 5856SOL    HW218111   2.056   3.707   9.357
 5857SOL     OW18112   3.142   2.789   8.120
 5857SOL    HW118113   3.202   2.708   8.122
 5857SOL    HW218114   3.182   2.858   8.060
 5858SOL     OW18115   2.692   3.135   8.870
 5858SOL    HW118116   2.687   3.168   8.965
 5858SOL    HW218117   2.606   3.154   8.824
 5859SOL     OW18118   2.534   3.478   7.602
 5859SOL    HW118119   2.543   3.488   7.503
 5859SOL    HW218120   2.494   3.389   7.623
 5860SOL     OW18121   3.512   3.582   8.842
 5860SOL    HW118122   3.565   3.592   8.758
 5860SOL    HW218123   3.485   3.672   8.876
 5861SOL     OW18124   3.703   2.037   8.411
 5861SOL    HW118125   3.742   1.952   8.375
 5861SOL    HW218126   3.605   2.039   8.392
 5862SOL     OW18127   3.056   3.474   7.479
 5862SOL    HW118128   3.062   3.381   7.516
 5862SOL    HW218129   2.997   3.474   7.399
 5863SOL     OW18130   2.684   2.864   8.820
 5863SOL    HW118131   2.724   2.863   8.728
 5863SOL    HW218132   2.694   2.956   8.860
 5864SOL     OW18133   2.778   2.772   7.739
 5864SOL    HW118134   2.841   2.810   7.671
 5864SOL    HW218135   2.818   2.689   7.778
 5865SOL     OW18136   3.366   3.469   7.492
 5865SOL    HW118137   3.274   3.506   7.499
 5865SOL    HW218138   3.404   3.489   7.402
 5866SOL     OW18139   2.234   3.150   8.938
 5866SOL    HW118140   2.221   3.243   8.904
 5866SOL    HW218141   2.150   3.098   8.925
 5867SOL     OW18142   3.476   3.154   8.737
 5867SOL    HW118143   3.536   3.157   8.817
 5867SOL    HW218144   3.401   3.218   8.750
 5868SOL     OW18145   2.901   2.960   8.144
 5868SOL    HW118146   2.831   2.913   8.198
 5868SOL    HW218147   2.960   2.892   8.101
 5869SOL     OW18148   2.876   2.098   8.419
 5869SOL    HW118149   2.868   2.062   8.326
 5869SOL    HW218150   2.874   2.022   8.484
 5870SOL     OW18151   2.452   3.349   7.939
 5870SOL    HW118152   2.494   3.291   7.869
 5870SOL    HW218153   2.408   3.428   7.895
 5871SOL     OW18154   3.571   2.247   8.829
 5871SOL    HW118155   3.644   2.316   8.833
 5871SOL    HW218156   3.599   2.172   8.770
 5872SOL     OW18157   2.117   3.210   7.738
 5872SOL    HW118158   2.021   3.211   7.711
 5872SOL    HW218159   2.129   3.263   7.822
 5873SOL     OW18160   1.967   2.875   9.174
 5873SOL    HW118161   1.890   2.842   9.228
 5873SOL    HW218162   2.052   2.845   9.216
 5874SOL     OW18163   2.534   2.065   8.937
 5874SOL    HW118164   2.624   2.049   8.897
 5874SOL    HW218165   2.542   2.070   9.036
 5875SOL     OW18166   1.937   2.207   7.481
 5875SOL    HW118167   1.845   2.179   7.452
 5875SOL    HW218168   1.968   2.284   7.425
 5876SOL     OW18169   3.302   2.718   8.846
 5876SOL    HW118170   3.245   2.770   8.783
 5876SOL    HW218171   3.398   2.730   8.822
 5877SOL     OW18172   3.045   3.197   7.567
 5877SOL    HW118173   2.946   3.186   7.569
 5877SOL    HW218174   3.079   3.212   7.660
 5878SOL     OW18175   2.475   2.704   8.879
 5878SOL    HW118176   2.531   2.785   8.862
 5878SOL    HW218177   2.534   2.624   8.882
 5879SOL     OW18178   3.355   3.629   8.407
 5879SOL    HW118179   3.388   3.693   8.338
 5879SOL    HW218180   3.421   3.623   8.482
 5880SOL     OW18181   2.578   2.427   9.156
 5880SOL    HW118182   2.597   2.492   9.230
 5880SOL    HW218183   2.638   2.347   9.165
 5881SOL     OW18184   3.312   3.082   9.081
 5881SOL    HW118185   3.303   3.072   9.180
 5881SOL    HW218186   3.408   3.075   9.055
 5882SOL     OW18187   2.252   3.603   9.008
 5882SOL    HW118188   2.161   3.644   9.006
 5882SOL    HW218189   2.245   3.509   9.040
 5883SOL     OW18190   3.536   2.745   8.702
 5883SOL    HW118191   3.509   2.656   8.665
 5883SOL    HW218192   3.537   2.813   8.629
 5884SOL     OW18193   3.087   2.187   7.897
 5884SOL    HW118194   3.152   2.113   7.886
 5884SOL    HW218195   3.107   2.237   7.981
 5885SOL     OW18196   2.456   2.607   8.100
 5885SOL    HW118197   2.506   2.692   8.081
 5885SOL    HW218198   2.368   2.609   8.052
 5886SOL     OW18199   3.639   2.204   9.090
 5886SOL    HW118200   3.622   2.235   8.996
 5886SOL    HW218201   3.555   2.167   9.128
 5887SOL     OW18202   3.592   2.796   8.965
 5887SOL    HW118203   3.630   2.887   8.980
 5887SOL    HW218204   3.584   2.779   8.866
 5888SOL     OW18205   2.721   3.236   7.464
 5888SOL    HW118206   2.675   3.251   7.552
 5888SOL    HW218207   2.765   3.321   7.434
 5889SOL     OW18208   2.523   3.652   8.401
 5889SOL    HW118209   2.477   3.740   8.388
 5889SOL    HW218210   2.622   3.664   8.394
 5890SOL     OW18211   2.721   2.818   8.309
 5890SOL    HW118212   2.775   2.749   8.357
 5890SOL    HW218213   2.689   2.887   8.375
 5891SOL     OW18214   2.945   2.846   7.535
 5891SOL    HW118215   2.922   2.899   7.453
 5891SOL    HW218216   3.026   2.790   7.516
 5892SOL     OW18217   3.723   3.431   8.299
 5892SOL    HW118218   3.652   3.419   8.229
 5892SOL    HW218219   3.724   3.352   8.359
 5893SOL     OW18220   2.083   3.176   9.292
 5893SOL    HW118221   2.018   3.103   9.271
 5893SOL    HW218222   2.087   3.190   9.390
 5894SOL     OW18223   1.941   3.102   8.101
 5894SOL    HW118224   1.940   3.055   8.189
 5894SOL    HW218225   2.023   3.074   8.050
 5895SOL     OW18226   2.534   3.253   9.072
 5895SOL    HW118227   2.456   3.203   9.110
 5895SOL    HW218228   2.531   3.348   9.103
 5896SOL     OW18229   3.686   2.054   8.675
 5896SOL    HW118230   3.682   1.964   8.719
 5896SOL    HW218231   3.689   2.043   8.576
 5897SOL     OW18232   2.290   2.286   7.968
 5897SOL    HW118233   2.320   2.214   7.906
 5897SOL    HW218234   2.251   2.246   8.051
 5898SOL     OW18235   3.567   3.349   8.552
 5898SOL    HW118236   3.474   3.324   8.525
 5898SOL    HW218237   3.593   3.299   8.634
 5899SOL     OW18238   2.179   2.409   8.728
 5899SOL    HW118239   2.217   2.350   8.800
 5899SOL    HW218240   2.219   2.383   8.640
 5900SOL     OW18241   2.674   3.448   8.135
 5900SOL    HW118242   2.706   3.458   8.041
 5900SOL    HW218243   2.595   3.386   8.137
 5901SOL     OW18244   3.286   2.076   8.560
 5901SOL    HW118245   3.338   2.011   8.615
 5901SOL    HW218246   3.237   2.139   8.621
 5902SOL     OW18247   2.863   1.896   8.602
 5902SOL    HW118248   2.800   1.824   8.571
 5902SOL    HW218249   2.956   1.860   8.602
 5903SOL     OW18250   2.632   3.192   7.749
 5903SOL    HW118251   2.586   3.105   7.766
 5903SOL    HW218252   2.723   3.189   7.790
 5904SOL     OW18253   2.480   3.429   8.732
 5904SOL    HW118254   2.475   3.511   8.789
 5904SOL    HW218255   2.569   3.426   8.687
 5905SOL     OW18256   3.214   1.914   7.616
 5905SOL    HW118257   3.249   1.873   7.532
 5905SOL    HW218258   3.124   1.876   7.636
 5906SOL     OW18259   3.162   2.315   8.139
 5906SOL    HW118260   3.103   2.395   8.143
 5906SOL    HW218261   3.177   2.280   8.232
 5907SOL     OW18262   3.455   2.083   8.330
 5907SOL    HW118263   3.371   2.082   8.384
 5907SOL    HW218264   3.457   2.166   8.274
 5908SOL     OW18265   1.901   2.939   7.748
 5908SOL    HW118266   2.000   2.928   7.739
 5908SOL    HW218267   1.861   2.853   7.780
 5909SOL     OW18268   2.737   3.508   7.785
 5909SOL    HW118269   2.660   3.473   7.731
 5909SOL    HW218270   2.705   3.579   7.847
 5910SOL     OW18271   2.092   2.490   9.423
 5910SOL    HW118272   1.999   2.488   9.460
 5910SOL    HW218273   2.093   2.451   9.331
 5911SOL     OW18274   1.881   2.230   9.957
 5911SOL    HW118275   1.799   2.273   9.996
 5911SOL    HW218276   1.853   2.157   9.894
 5912SOL     OW18277   2.431   3.137  10.475
 5912SOL    HW118278   2.338   3.130  10.438
 5912SOL    HW218279   2.442   3.226  10.519
 5913SOL     OW18280   3.417   3.373  10.013
 5913SOL    HW118281   3.360   3.357  10.094
 5913SOL    HW218282   3.358   3.383   9.933
 5914SOL     OW18283   2.997   2.565  10.027
 5914SOL    HW118284   3.054   2.643  10.002
 5914SOL    HW218285   2.937   2.591  10.103
 5915SOL     OW18286   3.617   2.469   9.541
 5915SOL    HW118287   3.605   2.456   9.442
 5915SOL    HW218288   3.587   2.388   9.590
 5916SOL     OW18289   2.630   3.006  10.333
 5916SOL    HW118290   2.552   3.023  10.393
 5916SOL    HW218291   2.664   3.093  10.297
 5917SOL     OW18292   2.712   2.660  11.133
 5917SOL    HW118293   2.708   2.736  11.198
 5917SOL    HW218294   2.734   2.696  11.042
 5918SOL     OW18295   2.547   2.874   9.975
 5918SOL    HW118296   2.616   2.858  10.045
 5918SOL    HW218297   2.474   2.931  10.013
 5919SOL     OW18298   2.548   3.023  11.113
 5919SOL    HW118299   2.608   3.102  11.127
 5919SOL    HW218300   2.462   3.054  11.072
 5920SOL     OW18301   2.197   3.297  10.371
 5920SOL    HW118302   2.119   3.266  10.318
 5920SOL    HW218303   2.255   3.355  10.314
 5921SOL     OW18304   3.322   3.367  10.649
 5921SOL    HW118305   3.346   3.461  10.675
 5921SOL    HW218306   3.306   3.313  10.731
 5922SOL     OW18307   2.300   2.254  10.809
 5922SOL    HW118308   2.382   2.198  10.818
 5922SOL    HW218309   2.219   2.196  10.813
 5923SOL     OW18310   3.465   2.309  10.047
 5923SOL    HW118311   3.391   2.355   9.997
 5923SOL    HW218312   3.516   2.377  10.100
 5924SOL     OW18313   2.093   3.575   9.793
 5924SOL    HW118314   2.127   3.652   9.847
 5924SOL    HW218315   2.137   3.575   9.703
 5925SOL     OW18316   2.989   3.203  11.000
 5925SOL    HW118317   3.036   3.203  11.088
 5925SOL    HW218318   2.941   3.116  10.989
 5926SOL     OW18319   2.092   3.296   9.848
 5926SOL    HW118320   2.066   3.392   9.848
 5926SOL    HW218321   2.021   3.242   9.893
 5927SOL     OW18322   2.102   2.953  10.196
 5927SOL    HW118323   2.116   2.869  10.248
 5927SOL    HW218324   2.047   3.017  10.251
 5928SOL     OW18325   2.482   3.648  10.749
 5928SOL    HW118326   2.390   3.631  10.784
 5928SOL    HW218327   2.510   3.740  10.775
 5929SOL     OW18328   2.468   2.826   9.433
 5929SOL    HW118329   2.475   2.910   9.379
 5929SOL    HW218330   2.514   2.839   9.521
 5930SOL     OW18331   3.456   1.976  10.790
 5930SOL    HW118332   3.438   2.043  10.718
 5930SOL    HW218333   3.453   2.022  10.879
 5931SOL     OW18334   1.984   2.505   9.873
 5931SOL    HW118335   1.939   2.417   9.890
 5931SOL    HW218336   1.983   2.559   9.957
 5932SOL     OW18337   3.704   3.629   9.669
 5932SOL    HW118338   3.758   3.600   9.749
 5932SOL    HW218339   3.734   3.719   9.640
 5933SOL     OW18340   1.889   3.458   9.427
 5933SOL    HW118341   1.870   3.362   9.448
 5933SOL    HW218342   1.856   3.516   9.502
 5934SOL     OW18343   3.551   2.784   9.922
 5934SOL    HW118344   3.646   2.755   9.930
 5934SOL    HW218345   3.543   2.849   9.847
 5935SOL     OW18346   3.503   2.970   9.742
 5935SOL    HW118347   3.589   2.972   9.690
 5935SOL    HW218348   3.517   3.017   9.830
 5936SOL     OW18349   1.975   2.599  10.907
 5936SOL    HW118350   2.063   2.586  10.952
 5936SOL    HW218351   1.962   2.696  10.885
 5937SOL     OW18352   2.475   3.227  10.036
 5937SOL    HW118353   2.426   3.140  10.045
 5937SOL    HW218354   2.452   3.270   9.949
 5938SOL     OW18355   3.155   3.090  10.733
 5938SOL    HW118356   3.192   3.017  10.675
 5938SOL    HW218357   3.207   3.095  10.818
 5939SOL     OW18358   2.671   1.866   9.812
 5939SOL    HW118359   2.711   1.957   9.803
 5939SOL    HW218360   2.571   1.874   9.818
 5940SOL     OW18361   2.059   2.838  10.574
 5940SOL    HW118362   2.148   2.793  10.560
 5940SOL    HW218363   1.986   2.773  10.555
 5941SOL     OW18364   3.387   2.861   9.500
 5941SOL    HW118365   3.324   2.785   9.513
 5941SOL    HW218366   3.435   2.879   9.586
 5942SOL     OW18367   3.049   3.654  10.926
 5942SOL    HW118368   3.073   3.714  10.850
 5942SOL    HW218369   3.056   3.559  10.896
 5943SOL     OW18370   2.179   2.113  11.111
 5943SOL    HW118371   2.250   2.184  11.117
 5943SOL    HW218372   2.091   2.152  11.139
 5944SOL     OW18373   3.328   3.279  10.263
 5944SOL    HW118374   3.269   3.285  10.343
 5944SOL    HW218375   3.313   3.191  10.217
 5945SOL     OW18376   3.529   3.576   9.882
 5945SOL    HW118377   3.488   3.553   9.794
 5945SOL    HW218378   3.511   3.502   9.947
 5946SOL     OW18379   2.460   2.591   9.580
 5946SOL    HW118380   2.484   2.660   9.512
 5946SOL    HW218381   2.382   2.624   9.634
 5947SOL     OW18382   3.143   2.207  10.254
 5947SOL    HW118383   3.057   2.157  10.241
 5947SOL    HW218384   3.205   2.153  10.310
 5948SOL     OW18385   3.438   3.524   9.617
 5948SOL    HW118386   3.527   3.570   9.620
 5948SOL    HW218387   3.417   3.500   9.522
 5949SOL     OW18388   2.669   2.467  10.775
 5949SOL    HW118389   2.622   2.464  10.864
 5949SOL    HW218390   2.618   2.412  10.709
 5950SOL     OW18391   3.256   2.331  10.984
 5950SOL    HW118392   3.236   2.374  11.072
 5950SOL    HW218393   3.334   2.269  10.993
 5951SOL     OW18394   2.835   2.752  10.882
 5951SOL    HW118395   2.881   2.668  10.853
 5951SOL    HW218396   2.779   2.786  10.807
 5952SOL     OW18397   2.853   2.272  10.552
 5952SOL    HW118398   2.776   2.306  10.606
 5952SOL    HW218399   2.819   2.221  10.473
 5953SOL     OW18400   2.903   2.563   9.739
 5953SOL    HW118401   2.929   2.559   9.835
 5953SOL    HW218402   2.818   2.512   9.725
 5954SOL     OW18403   1.938   2.673  10.099
 5954SOL    HW118404   2.037   2.661  10.108
 5954SOL    HW218405   1.914   2.768  10.120
 5955SOL     OW18406   1.992   3.683  10.881
 5955SOL    HW118407   1.982   3.668  10.980
 5955SOL    HW218408   1.906   3.719  10.845
 5956SOL     OW18409   2.727   2.210   9.505
 5956SOL    HW118410   2.786   2.273   9.456
 5956SOL    HW218411   2.746   2.116   9.476
 5957SOL     OW18412   3.581   2.447  11.141
 5957SOL    HW118413   3.555   2.536  11.105
 5957SOL    HW218414   3.579   2.379  11.068
 5958SOL     OW18415   3.224   3.006   9.855
 5958SOL    HW118416   3.307   2.977   9.807
 5958SOL    HW218417   3.175   3.073   9.799
 5959SOL     OW18418   2.412   2.058  10.195
 5959SOL    HW118419   2.407   2.053  10.295
 5959SOL    HW218420   2.414   2.154  10.166
 5960SOL     OW18421   2.870   3.318   9.787
 5960SOL    HW118422   2.824   3.390   9.735
 5960SOL    HW218423   2.866   3.338   9.885
 5961SOL     OW18424   2.213   3.663  10.163
 5961SOL    HW118425   2.263   3.577  10.169
 5961SOL    HW218426   2.278   3.740  10.160
 5962SOL     OW18427   3.657   2.928  10.183
 5962SOL    HW118428   3.595   2.913  10.107
 5962SOL    HW218429   3.605   2.939  10.268
 5963SOL     OW18430   3.089   3.412  10.816
 5963SOL    HW118431   3.095   3.335  10.880
 5963SOL    HW218432   3.037   3.386  10.736
 5964SOL     OW18433   2.183   2.805   9.552
 5964SOL    HW118434   2.265   2.844   9.510
 5964SOL    HW218435   2.156   2.723   9.503
 5965SOL     OW18436   3.320   2.597  10.038
 5965SOL    HW118437   3.315   2.532  10.113
 5965SOL    HW218438   3.400   2.656  10.051
 5966SOL     OW18439   2.323   3.128  11.037
 5966SOL    HW118440   2.273   3.129  10.951
 5966SOL    HW218441   2.260   3.110  11.113
 5967SOL     OW18442   2.973   3.638   9.547
 5967SOL    HW118443   2.913   3.576   9.597
 5967SOL    HW218444   3.004   3.594   9.462
 5968SOL     OW18445   3.494   3.239   9.391
 5968SOL    HW118446   3.462   3.333   9.381
 5968SOL    HW218447   3.418   3.176   9.379
 5969SOL     OW18448   2.326   3.605   9.633
 5969SOL    HW118449   2.359   3.644   9.719
 5969SOL    HW218450   2.402   3.598   9.568
 5970SOL     OW18451   3.262   1.969   9.736
 5970SOL    HW118452   3.238   1.932   9.646
 5970SOL    HW218453   3.361   1.985   9.740
 5971SOL     OW18454   2.111   3.647  10.551
 5971SOL    HW118455   2.168   3.582  10.601
 5971SOL    HW218456   2.095   3.614  10.458
 5972SOL     OW18457   2.802   3.560  10.214
 5972SOL    HW118458   2.882   3.503  10.235
 5972SOL    HW218459   2.753   3.520  10.137
 5973SOL     OW18460   2.244   2.562   9.790
 5973SOL    HW118461   2.289   2.472   9.787
 5973SOL    HW218462   2.150   2.551   9.823
 5974SOL     OW18463   3.409   2.084  11.039
 5974SOL    HW118464   3.404   2.121  11.131
 5974SOL    HW218465   3.337   2.015  11.027
 5975SOL     OW18466   2.476   1.984   9.427
 5975SOL    HW118467   2.574   1.962   9.434
 5975SOL    HW218468   2.445   1.967   9.334
 5976SOL     OW18469   2.643   2.126  11.059
 5976SOL    HW118470   2.710   2.065  11.102
 5976SOL    HW218471   2.570   2.145  11.124
 5977SOL     OW18472   2.750   3.376  10.505
 5977SOL    HW118473   2.727   3.351  10.411
 5977SOL    HW218474   2.811   3.307  10.544
 5978SOL     OW18475   3.213   2.452  10.743
 5978SOL    HW118476   3.241   2.409  10.828
 5978SOL    HW218477   3.238   2.548  10.744
 5979SOL     OW18478   2.665   3.264  10.234
 5979SOL    HW118479   2.755   3.278  10.192
 5979SOL    HW218480   2.594   3.266  10.163
 5980SOL     OW18481   2.784   2.365  10.209
 5980SOL    HW118482   2.759   2.356  10.113
 5980SOL    HW218483   2.832   2.283  10.240
 5981SOL     OW18484   2.401   1.926   9.822
 5981SOL    HW118485   2.320   1.927   9.880
 5981SOL    HW218486   2.404   2.009   9.767
 5982SOL     OW18487   3.296   3.050   9.351
 5982SOL    HW118488   3.328   2.974   9.408
 5982SOL    HW218489   3.204   3.077   9.381
 5983SOL     OW18490   2.797   2.098   9.790
 5983SOL    HW118491   2.749   2.139   9.712
 5983SOL    HW218492   2.896   2.096   9.771
 5984SOL     OW18493   2.938   2.545  10.774
 5984SOL    HW118494   2.858   2.484  10.777
 5984SOL    HW218495   3.019   2.492  10.750
 5985SOL     OW18496   3.089   3.432  10.103
 5985SOL    HW118497   3.110   3.506  10.038
 5985SOL    HW218498   3.157   3.432  10.176
 5986SOL     OW18499   2.321   3.014  10.051
 5986SOL    HW118500   2.250   2.987  10.116
 5986SOL    HW218501   2.295   2.986   9.958
 5987SOL     OW18502   3.133   3.659   9.901
 5987SOL    HW118503   3.177   3.723   9.837
 5987SOL    HW218504   3.083   3.711   9.971
 5988SOL     OW18505   2.894   2.411   9.326
 5988SOL    HW118506   2.853   2.493   9.287
 5988SOL    HW218507   2.958   2.437   9.399
 5989SOL     OW18508   1.940   2.418  10.696
 5989SOL    HW118509   2.032   2.417  10.655
 5989SOL    HW218510   1.934   2.492  10.763
 5990SOL     OW18511   2.423   2.084  10.457
 5990SOL    HW118512   2.461   2.000  10.494
 5990SOL    HW218513   2.335   2.103  10.501
 5991SOL     OW18514   2.728   2.316   9.952
 5991SOL    HW118515   2.696   2.388   9.890
 5991SOL    HW218516   2.752   2.235   9.899
 5992SOL     OW18517   2.879   1.901  10.063
 5992SOL    HW118518   2.807   1.906   9.994
 5992SOL    HW218519   2.855   1.832  10.132
 5993SOL     OW18520   3.291   3.035  10.177
 5993SOL    HW118521   3.236   2.951  10.170
 5993SOL    HW218522   3.317   3.064  10.085
 5994SOL     OW18523   3.328   2.452  10.302
 5994SOL    HW118524   3.298   2.357  10.309
 5994SOL    HW218525   3.401   2.468  10.368
 5995SOL     OW18526   3.719   2.695   9.687
 5995SOL    HW118527   3.761   2.631   9.751
 5995SOL    HW218528   3.681   2.644   9.609
 5996SOL     OW18529   2.350   3.247   9.484
 5996SOL    HW118530   2.263   3.232   9.531
 5996SOL    HW218531   2.333   3.273   9.389
 5997SOL     OW18532   3.526   3.142   9.967
 5997SOL    HW118533   3.625   3.150   9.981
 5997SOL    HW218534   3.481   3.226   9.998
 5998SOL     OW18535   3.252   2.437   9.388
 5998SOL    HW118536   3.198   2.416   9.469
 5998SOL    HW218537   3.343   2.396   9.397
 5999SOL     OW18538   2.389   2.118   9.638
 5999SOL    HW118539   2.416   2.059   9.563
 5999SOL    HW218540   2.389   2.213   9.607
 6000SOL     OW18541   3.616   3.085  10.898
 6000SOL    HW118542   3.707   3.046  10.885
 6000SOL    HW218543   3.624   3.181  10.922
 6001SOL     OW18544   2.926   3.209  10.650
 6001SOL    HW118545   2.846   3.186  10.705
 6001SOL    HW218546   3.009   3.183  10.699
 6002SOL     OW18547   3.454   3.491  10.935
 6002SOL    HW118548   3.481   3.525  10.845
 6002SOL    HW218549   3.533   3.453  10.981
 6003SOL     OW18550   2.973   3.057  10.410
 6003SOL    HW118551   2.933   3.101  10.491
 6003SOL    HW218552   2.932   3.094  10.327
 6004SOL     OW18553   3.500   2.961  10.389
 6004SOL    HW118554   3.505   3.042  10.448
 6004SOL    HW218555   3.414   2.963  10.338
 6005SOL     OW18556   2.777   1.951  10.712
 6005SOL    HW118557   2.802   1.931  10.617
 6005SOL    HW218558   2.849   2.007  10.754
 6006SOL     OW18559   2.842   2.978  11.029
 6006SOL    HW118560   2.743   2.984  11.039
 6006SOL    HW218561   2.865   2.898  10.973
 6007SOL     OW18562   2.567   2.912   9.678
 6007SOL    HW118563   2.553   2.919   9.777
 6007SOL    HW218564   2.651   2.861   9.660
 6008SOL     OW18565   2.272   2.675  10.561
 6008SOL    HW118566   2.358   2.687  10.611
 6008SOL    HW218567   2.230   2.588  10.588
 6009SOL     OW18568   3.136   2.248  10.572
 6009SOL    HW118569   3.157   2.322  10.636
 6009SOL    HW218570   3.047   2.265  10.529
 6010SOL     OW18571   1.926   3.426  10.641
 6010SOL    HW118572   1.880   3.508  10.607
 6010SOL    HW218573   2.024   3.445  10.650
 6011SOL     OW18574   2.229   2.962   9.811
 6011SOL    HW118575   2.222   3.045   9.755
 6011SOL    HW218576   2.233   2.882   9.751
 6012SOL     OW18577   2.428   2.399  10.175
 6012SOL    HW118578   2.440   2.465  10.101
 6012SOL    HW218579   2.474   2.433  10.258
 6013SOL     OW18580   3.114   3.210   9.698
 6013SOL    HW118581   3.164   3.287   9.738
 6013SOL    HW218582   3.019   3.212   9.730
 6014SOL     OW18583   3.134   3.307  10.452
 6014SOL    HW118584   3.181   3.320  10.539
 6014SOL    HW218585   3.068   3.233  10.461
 6015SOL     OW18586   3.444   2.501   9.782
 6015SOL    HW118587   3.413   2.562   9.855
 6015SOL    HW218588   3.494   2.553   9.713
 6016SOL     OW18589   2.216   3.372  10.639
 6016SOL    HW118590   2.195   3.328  10.552
 6016SOL    HW218591   2.313   3.398  10.642
 6017SOL     OW18592   2.264   2.613  10.908
 6017SOL    HW118593   2.332   2.668  10.861
 6017SOL    HW218594   2.304   2.525  10.935
 6018SOL     OW18595   3.449   2.641  10.980
 6018SOL    HW118596   3.357   2.679  10.975
 6018SOL    HW218597   3.509   2.688  10.915
 6019SOL     OW18598   2.875   1.967  11.080
 6019SOL    HW118599   2.881   2.052  11.028
 6019SOL    HW218600   2.907   1.891  11.023
 6020SOL     OW18601   2.366   1.912  11.050
 6020SOL    HW118602   2.324   1.855  10.980
 6020SOL    HW218603   2.300   1.981  11.082
 6021SOL     OW18604   2.435   2.732  10.339
 6021SOL    HW118605   2.479   2.821  10.330
 6021SOL    HW218606   2.372   2.732  10.416
 6022SOL     OW18607   3.222   2.724  10.355
 6022SOL    HW118608   3.147   2.724  10.289
 6022SOL    HW218609   3.259   2.632  10.364
 6023SOL     OW18610   3.071   2.387   9.585
 6023SOL    HW118611   3.084   2.303   9.639
 6023SOL    HW218612   3.042   2.461   9.645
 6024SOL     OW18613   1.899   3.172  10.592
 6024SOL    HW118614   1.952   3.123  10.660
 6024SOL    HW218615   1.921   3.270  10.597
 6025SOL     OW18616   2.594   2.496  10.374
 6025SOL    HW118617   2.653   2.470  10.298
 6025SOL    HW218618   2.566   2.592  10.363
 6026SOL     OW18619   3.590   2.797  11.164
 6026SOL    HW118620   3.544   2.790  11.075
 6026SOL    HW218621   3.528   2.841  11.230
 6027SOL     OW18622   3.484   2.229   9.684
 6027SOL    HW118623   3.486   2.153   9.748
 6027SOL    HW218624   3.436   2.306   9.724
 6028SOL     OW18625   2.885   2.628  10.276
 6028SOL    HW118626   2.900   2.649  10.372
 6028SOL    HW218627   2.855   2.533  10.267
 6029SOL     OW18628   2.842   3.435  11.010
 6029SOL    HW118629   2.822   3.479  10.922
 6029SOL    HW218630   2.881   3.344  10.994
 6030SOL     OW18631   3.721   3.380  10.915
 6030SOL    HW118632   3.735   3.407  10.820
 6030SOL    HW218633   3.804   3.402  10.968
 6031SOL     OW18634   2.212   2.760  11.114
 6031SOL    HW118635   2.288   2.804  11.162
 6031SOL    HW218636   2.247   2.713  11.032
 6032SOL     OW18637   3.402   2.136   9.435
 6032SOL    HW118638   3.341   2.061   9.458
 6032SOL    HW218639   3.424   2.188   9.518
 6033SOL     OW18640   3.165   2.700   9.352
 6033SOL    HW118641   3.199   2.607   9.367
 6033SOL    HW218642   3.183   2.727   9.257
 6034SOL     OW18643   2.930   3.195  10.159
 6034SOL    HW118644   2.937   3.111  10.104
 6034SOL    HW218645   2.992   3.264  10.123
 6035SOL     OW18646   2.181   2.672  10.259
 6035SOL    HW118647   2.274   2.708  10.264
 6035SOL    HW218648   2.175   2.587  10.311
 6036SOL     OW18649   2.201   2.371  10.316
 6036SOL    HW118650   2.149   2.288  10.299
 6036SOL    HW218651   2.278   2.376  10.252
 6037SOL     OW18652   3.000   2.242  10.988
 6037SOL    HW118653   2.955   2.305  11.052
 6037SOL    HW218654   3.093   2.273  10.971
 6038SOL     OW18655   3.022   2.069  10.787
 6038SOL    HW118656   3.022   2.133  10.864
 6038SOL    HW218657   3.050   2.117  10.704
 6039SOL     OW18658   1.870   3.188   9.510
 6039SOL    HW118659   1.777   3.209   9.479
 6039SOL    HW218660   1.880   3.089   9.523
 6040SOL     OW18661   1.950   3.663  10.237
 6040SOL    HW118662   1.908   3.577  10.210
 6040SOL    HW218663   2.044   3.666  10.203
 6041SOL     OW18664   2.366   3.430  10.220
 6041SOL    HW118665   2.432   3.504  10.229
 6041SOL    HW218666   2.410   3.351  10.178
 6042SOL     OW18667   2.864   2.658  10.548
 6042SOL    HW118668   2.905   2.626  10.634
 6042SOL    HW218669   2.768   2.631  10.545
 6043SOL     OW18670   1.902   2.406  10.424
 6043SOL    HW118671   1.987   2.373  10.383
 6043SOL    HW218672   1.915   2.421  10.522
 6044SOL     OW18673   2.051   2.382  11.032
 6044SOL    HW118674   2.110   2.342  10.962
 6044SOL    HW218675   1.993   2.453  10.991
 6045SOL     OW18676   3.231   2.812  10.970
 6045SOL    HW118677   3.270   2.901  10.990
 6045SOL    HW218678   3.241   2.792  10.873
 6046SOL     OW18679   2.677   2.434   9.635
 6046SOL    HW118680   2.684   2.345   9.589
 6046SOL    HW218681   2.583   2.468   9.627
 6047SOL     OW18682   3.519   2.466  10.516
 6047SOL    HW118683   3.481   2.397  10.578
 6047SOL    HW218684   3.601   2.430  10.472
 6048SOL     OW18685   2.114   3.426  11.054
 6048SOL    HW118686   2.084   3.483  11.130
 6048SOL    HW218687   2.107   3.329  11.080
 6049SOL     OW18688   2.533   2.326  10.579
 6049SOL    HW118689   2.499   2.237  10.549
 6049SOL    HW218690   2.559   2.380  10.499
 6050SOL     OW18691   2.792   3.540  10.775
 6050SOL    HW118692   2.768   3.522  10.680
 6050SOL    HW218693   2.822   3.634  10.785
 6051SOL     OW18694   2.335   2.362   9.501
 6051SOL    HW118695   2.396   2.442   9.505
 6051SOL    HW218696   2.240   2.393   9.508
 6052SOL     OW18697   2.021   2.999  10.776
 6052SOL    HW118698   2.043   2.938  10.852
 6052SOL    HW218699   2.031   2.950  10.690
 6053SOL     OW18700   3.209   2.921  10.544
 6053SOL    HW118701   3.233   2.858  10.470
 6053SOL    HW218702   3.119   2.961  10.526
 6054SOL     OW18703   3.164   2.717   9.619
 6054SOL    HW118704   3.078   2.686   9.661
 6054SOL    HW218705   3.160   2.703   9.520
 6055SOL     OW18706   3.621   3.609  10.464
 6055SOL    HW118707   3.682   3.639  10.391
 6055SOL    HW218708   3.583   3.520  10.442
 6056SOL     OW18709   3.114   3.593  10.438
 6056SOL    HW118710   3.198   3.598  10.384
 6056SOL    HW218711   3.091   3.497  10.456
 6057SOL     OW18712   1.945   3.120  10.332
 6057SOL    HW118713   1.940   3.119  10.432
 6057SOL    HW218714   1.862   3.079  10.294
 6058SOL     OW18715   2.550   3.524  11.026
 6058SOL    HW118716   2.494   3.605  11.035
 6058SOL    HW218717   2.602   3.528  10.940
 6059SOL     OW18718   3.588   1.997   9.833
 6059SOL    HW118719   3.661   1.980   9.766
 6059SOL    HW218720   3.557   1.910   9.871
 6060SOL     OW18721   3.250   3.435   9.787
 6060SOL    HW118722   3.317   3.447   9.713
 6060SOL    HW218723   3.210   3.524   9.810
 6061SOL     OW18724   1.992   3.656  11.161
 6061SOL    HW118725   1.951   3.582  11.214
 6061SOL    HW218726   2.056   3.707  11.219
 6062SOL     OW18727   3.142   2.789   9.982
 6062SOL    HW118728   3.202   2.708   9.984
 6062SOL    HW218729   3.182   2.858   9.922
 6063SOL     OW18730   2.692   3.135  10.732
 6063SOL    HW118731   2.687   3.168  10.827
 6063SOL    HW218732   2.606   3.154  10.686
 6064SOL     OW18733   2.534   3.478   9.464
 6064SOL    HW118734   2.543   3.488   9.365
 6064SOL    HW218735   2.494   3.389   9.485
 6065SOL     OW18736   3.512   3.582  10.704
 6065SOL    HW118737   3.565   3.592  10.620
 6065SOL    HW218738   3.485   3.672  10.738
 6066SOL     OW18739   3.703   2.037  10.273
 6066SOL    HW118740   3.742   1.952  10.237
 6066SOL    HW218741   3.605   2.039  10.254
 6067SOL     OW18742   3.056   3.474   9.341
 6067SOL    HW118743   3.062   3.381   9.378
 6067SOL    HW218744   2.997   3.474   9.261
 6068SOL     OW18745   2.684   2.864  10.682
 6068SOL    HW118746   2.724   2.863  10.590
 6068SOL    HW218747   2.694   2.956  10.722
 6069SOL     OW18748   2.778   2.772   9.601
 6069SOL    HW118749   2.841   2.810   9.533
 6069SOL    HW218750   2.818   2.689   9.640
 6070SOL     OW18751   3.366   3.469   9.354
 6070SOL    HW118752   3.274   3.506   9.361
 6070SOL    HW218753   3.404   3.489   9.264
 6071SOL     OW18754   2.234   3.150  10.800
 6071SOL    HW118755   2.221   3.243  10.766
 6071SOL    HW218756   2.150   3.098  10.787
 6072SOL     OW18757   3.476   3.154  10.599
 6072SOL    HW118758   3.536   3.157  10.679
 6072SOL    HW218759   3.401   3.218  10.612
 6073SOL     OW18760   2.901   2.960  10.006
 6073SOL    HW118761   2.831   2.913  10.060
 6073SOL    HW218762   2.960   2.892   9.963
 6074SOL     OW18763   2.876   2.098  10.281
 6074SOL    HW118764   2.868   2.062  10.188
 6074SOL    HW218765   2.874   2.022  10.346
 6075SOL     OW18766   2.452   3.349   9.801
 6075SOL    HW118767   2.494   3.291   9.731
 6075SOL    HW218768   2.408   3.428   9.757
 6076SOL     OW18769   3.571   2.247  10.691
 6076SOL    HW118770   3.644   2.316  10.695
 6076SOL    HW218771   3.599   2.172  10.632
 6077SOL     OW18772   2.117   3.210   9.600
 6077SOL    HW118773   2.021   3.211   9.573
 6077SOL    HW218774   2.129   3.263   9.684
 6078SOL     OW18775   1.967   2.875  11.036
 6078SOL    HW118776   1.890   2.842  11.090
 6078SOL    HW218777   2.052   2.845  11.078
 6079SOL     OW18778   2.534   2.065  10.799
 6079SOL    HW118779   2.624   2.049  10.759
 6079SOL    HW218780   2.542   2.070  10.898
 6080SOL     OW18781   3.302   2.718  10.708
 6080SOL    HW118782   3.245   2.770  10.645
 6080SOL    HW218783   3.398   2.730  10.684
 6081SOL     OW18784   3.045   3.197   9.429
 6081SOL    HW118785   2.946   3.186   9.431
 6081SOL    HW218786   3.079   3.212   9.522
 6082SOL     OW18787   2.475   2.704  10.741
 6082SOL    HW118788   2.531   2.785  10.724
 6082SOL    HW218789   2.534   2.624  10.744
 6083SOL     OW18790   3.355   3.629  10.269
 6083SOL    HW118791   3.388   3.693  10.200
 6083SOL    HW218792   3.421   3.623  10.344
 6084SOL     OW18793   2.578   2.427  11.018
 6084SOL    HW118794   2.597   2.492  11.092
 6084SOL    HW218795   2.638   2.347  11.027
 6085SOL     OW18796   3.312   3.082  10.943
 6085SOL    HW118797   3.303   3.072  11.042
 6085SOL    HW218798   3.408   3.075  10.917
 6086SOL     OW18799   2.252   3.603  10.870
 6086SOL    HW118800   2.161   3.644  10.868
 6086SOL    HW218801   2.245   3.509  10.902
 6087SOL     OW18802   3.536   2.745  10.564
 6087SOL    HW118803   3.509   2.656  10.527
 6087SOL    HW218804   3.537   2.813  10.491
 6088SOL     OW18805   3.087   2.187   9.759
 6088SOL    HW118806   3.152   2.113   9.748
 6088SOL    HW218807   3.107   2.237   9.843
 6089SOL     OW18808   2.456   2.607   9.962
 6089SOL    HW118809   2.506   2.692   9.943
 6089SOL    HW218810   2.368   2.609   9.914
 6090SOL     OW18811   3.639   2.204  10.952
 6090SOL    HW118812   3.622   2.235  10.858
 6090SOL    HW218813   3.555   2.167  10.990
 6091SOL     OW18814   3.592   2.796  10.827
 6091SOL    HW118815   3.630   2.887  10.842
 6091SOL    HW218816   3.584   2.779  10.728
 6092SOL     OW18817   2.721   3.236   9.326
 6092SOL    HW118818   2.675   3.251   9.414
 6092SOL    HW218819   2.765   3.321   9.296
 6093SOL     OW18820   2.523   3.652  10.263
 6093SOL    HW118821   2.477   3.740  10.250
 6093SOL    HW218822   2.622   3.664  10.256
 6094SOL     OW18823   2.721   2.818  10.171
 6094SOL    HW118824   2.775   2.749  10.219
 6094SOL    HW218825   2.689   2.887  10.237
 6095SOL     OW18826   2.945   2.846   9.397
 6095SOL    HW118827   2.922   2.899   9.315
 6095SOL    HW218828   3.026   2.790   9.378
 6096SOL     OW18829   3.723   3.431  10.161
 6096SOL    HW118830   3.652   3.419  10.091
 6096SOL    HW218831   3.724   3.352  10.221
 6097SOL     OW18832   2.083   3.176  11.154
 6097SOL    HW118833   2.018   3.103  11.133
 6097SOL    HW218834   2.087   3.190  11.252
 6098SOL     OW18835   1.941   3.102   9.963
 6098SOL    HW118836   1.940   3.055  10.051
 6098SOL    HW218837   2.023   3.074   9.912
 6099SOL     OW18838   2.534   3.253  10.934
 6099SOL    HW118839   2.456   3.203  10.972
 6099SOL    HW218840   2.531   3.348  10.965
 6100SOL     OW18841   3.686   2.054  10.537
 6100SOL    HW118842   3.682   1.964  10.581
 6100SOL    HW218843   3.689   2.043  10.438
 6101SOL     OW18844   2.290   2.286   9.830
 6101SOL    HW118845   2.320   2.214   9.768
 6101SOL    HW218846   2.251   2.246   9.913
 6102SOL     OW18847   3.567   3.349  10.414
 6102SOL    HW118848   3.474   3.324  10.387
 6102SOL    HW218849   3.593   3.299  10.496
 6103SOL     OW18850   2.179   2.409  10.590
 6103SOL    HW118851   2.217   2.350  10.662
 6103SOL    HW218852   2.219   2.383  10.502
 6104SOL     OW18853   2.674   3.448   9.997
 6104SOL    HW118854   2.706   3.458   9.903
 6104SOL    HW218855   2.595   3.386   9.999
 6105SOL     OW18856   3.286   2.076  10.422
 6105SOL    HW118857   3.338   2.011  10.477
 6105SOL    HW218858   3.237   2.139  10.483
 6106SOL     OW18859   2.863   1.896  10.464
 6106SOL    HW118860   2.800   1.824  10.433
 6106SOL    HW218861   2.956   1.860  10.464
 6107SOL     OW18862   2.632   3.192   9.611
 6107SOL    HW118863   2.586   3.105   9.628
 6107SOL    HW218864   2.723   3.189   9.652
 6108SOL     OW18865   2.480   3.429  10.594
 6108SOL    HW118866   2.475   3.511  10.651
 6108SOL    HW218867   2.569   3.426  10.549
 6109SOL     OW18868   3.214   1.914   9.478
 6109SOL    HW118869   3.249   1.873   9.394
 6109SOL    HW218870   3.124   1.876   9.498
 6110SOL     OW18871   3.162   2.315  10.001
 6110SOL    HW118872   3.103   2.395  10.005
 6110SOL    HW218873   3.177   2.280  10.094
 6111SOL     OW18874   3.455   2.083  10.192
 6111SOL    HW118875   3.371   2.082  10.246
 6111SOL    HW218876   3.457   2.166  10.136
 6112SOL     OW18877   1.901   2.939   9.610
 6112SOL    HW118878   2.000   2.928   9.601
 6112SOL    HW218879   1.861   2.853   9.642
 6113SOL     OW18880   2.737   3.508   9.647
 6113SOL    HW118881   2.660   3.473   9.593
 6113SOL    HW218882   2.705   3.579   9.709
 6114SOL     OW18883   2.092   2.490  11.285
 6114SOL    HW118884   1.999   2.488  11.322
 6114SOL    HW218885   2.093   2.451  11.193
 6115SOL     OW18886   1.881   2.230  11.819
 6115SOL    HW118887   1.799   2.273  11.858
 6115SOL    HW218888   1.853   2.157  11.756
 6116SOL     OW18889   2.431   3.137  12.337
 6116SOL    HW118890   2.338   3.130  12.300
 6116SOL    HW218891   2.442   3.226  12.381
 6117SOL     OW18892   3.417   3.373  11.875
 6117SOL    HW118893   3.360   3.357  11.956
 6117SOL    HW218894   3.358   3.383  11.795
 6118SOL     OW18895   2.997   2.565  11.889
 6118SOL    HW118896   3.054   2.643  11.864
 6118SOL    HW218897   2.937   2.591  11.965
 6119SOL     OW18898   3.617   2.469  11.403
 6119SOL    HW118899   3.605   2.456  11.304
 6119SOL    HW218900   3.587   2.388  11.452
 6120SOL     OW18901   2.630   3.006  12.195
 6120SOL    HW118902   2.552   3.023  12.255
 6120SOL    HW218903   2.664   3.093  12.159
 6121SOL     OW18904   2.712   2.660  12.995
 6121SOL    HW118905   2.708   2.736  13.060
 6121SOL    HW218906   2.734   2.696  12.904
 6122SOL     OW18907   2.547   2.874  11.837
 6122SOL    HW118908   2.616   2.858  11.907
 6122SOL    HW218909   2.474   2.931  11.875
 6123SOL     OW18910   2.548   3.023  12.975
 6123SOL    HW118911   2.608   3.102  12.989
 6123SOL    HW218912   2.462   3.054  12.934
 6124SOL     OW18913   2.197   3.297  12.233
 6124SOL    HW118914   2.119   3.266  12.180
 6124SOL    HW218915   2.255   3.355  12.176
 6125SOL     OW18916   3.322   3.367  12.511
 6125SOL    HW118917   3.346   3.461  12.537
 6125SOL    HW218918   3.306   3.313  12.593
 6126SOL     OW18919   2.300   2.254  12.671
 6126SOL    HW118920   2.382   2.198  12.680
 6126SOL    HW218921   2.219   2.196  12.675
 6127SOL     OW18922   3.465   2.309  11.909
 6127SOL    HW118923   3.391   2.355  11.859
 6127SOL    HW218924   3.516   2.377  11.962
 6128SOL     OW18925   2.093   3.575  11.655
 6128SOL    HW118926   2.127   3.652  11.709
 6128SOL    HW218927   2.137   3.575  11.565
 6129SOL     OW18928   2.989   3.203  12.862
 6129SOL    HW118929   3.036   3.203  12.950
 6129SOL    HW218930   2.941   3.116  12.851
 6130SOL     OW18931   2.092   3.296  11.710
 6130SOL    HW118932   2.066   3.392  11.710
 6130SOL    HW218933   2.021   3.242  11.755
 6131SOL     OW18934   2.102   2.953  12.058
 6131SOL    HW118935   2.116   2.869  12.110
 6131SOL    HW218936   2.047   3.017  12.113
 6132SOL     OW18937   2.482   3.648  12.611
 6132SOL    HW118938   2.390   3.631  12.646
 6132SOL    HW218939   2.510   3.740  12.637
 6133SOL     OW18940   2.468   2.826  11.295
 6133SOL    HW118941   2.475   2.910  11.241
 6133SOL    HW218942   2.514   2.839  11.383
 6134SOL     OW18943   3.456   1.976  12.652
 6134SOL    HW118944   3.438   2.043  12.580
 6134SOL    HW218945   3.453   2.022  12.741
 6135SOL     OW18946   1.984   2.505  11.735
 6135SOL    HW118947   1.939   2.417  11.752
 6135SOL    HW218948   1.983   2.559  11.819
 6136SOL     OW18949   3.704   3.629  11.531
 6136SOL    HW118950   3.758   3.600  11.611
 6136SOL    HW218951   3.734   3.719  11.502
 6137SOL     OW18952   1.889   3.458  11.289
 6137SOL    HW118953   1.870   3.362  11.310
 6137SOL    HW218954   1.856   3.516  11.364
 6138SOL     OW18955   3.551   2.784  11.784
 6138SOL    HW118956   3.646   2.755  11.792
 6138SOL    HW218957   3.543   2.849  11.709
 6139SOL     OW18958   3.503   2.970  11.604
 6139SOL    HW118959   3.589   2.972  11.552
 6139SOL    HW218960   3.517   3.017  11.692
 6140SOL     OW18961   1.975   2.599  12.769
 6140SOL    HW118962   2.063   2.586  12.814
 6140SOL    HW218963   1.962   2.696  12.747
 6141SOL     OW18964   2.475   3.227  11.898
 6141SOL    HW118965   2.426   3.140  11.907
 6141SOL    HW218966   2.452   3.270  11.811
 6142SOL     OW18967   3.155   3.090  12.595
 6142SOL    HW118968   3.192   3.017  12.537
 6142SOL    HW218969   3.207   3.095  12.680
 6143SOL     OW18970   2.671   1.866  11.674
 6143SOL    HW118971   2.711   1.957  11.665
 6143SOL    HW218972   2.571   1.874  11.680
 6144SOL     OW18973   2.059   2.838  12.436
 6144SOL    HW118974   2.148   2.793  12.422
 6144SOL    HW218975   1.986   2.773  12.417
 6145SOL     OW18976   3.387   2.861  11.362
 6145SOL    HW118977   3.324   2.785  11.375
 6145SOL    HW218978   3.435   2.879  11.448
 6146SOL     OW18979   3.049   3.654  12.788
 6146SOL    HW118980   3.073   3.714  12.712
 6146SOL    HW218981   3.056   3.559  12.758
 6147SOL     OW18982   2.179   2.113  12.973
 6147SOL    HW118983   2.250   2.184  12.979
 6147SOL    HW218984   2.091   2.152  13.001
 6148SOL     OW18985   3.328   3.279  12.125
 6148SOL    HW118986   3.269   3.285  12.205
 6148SOL    HW218987   3.313   3.191  12.079
 6149SOL     OW18988   3.529   3.576  11.744
 6149SOL    HW118989   3.488   3.553  11.656
 6149SOL    HW218990   3.511   3.502  11.809
 6150SOL     OW18991   2.460   2.591  11.442
 6150SOL    HW118992   2.484   2.660  11.374
 6150SOL    HW218993   2.382   2.624  11.496
 6151SOL     OW18994   3.143   2.207  12.116
 6151SOL    HW118995   3.057   2.157  12.103
 6151SOL    HW218996   3.205   2.153  12.172
 6152SOL     OW18997   3.438   3.524  11.479
 6152SOL    HW118998   3.527   3.570  11.482
 6152SOL    HW218999   3.417   3.500  11.384
 6153SOL     OW19000   2.669   2.467  12.637
 6153SOL    HW119001   2.622   2.464  12.726
 6153SOL    HW219002   2.618   2.412  12.571
 6154SOL     OW19003   3.256   2.331  12.846
 6154SOL    HW119004   3.236   2.374  12.934
 6154SOL    HW219005   3.334   2.269  12.855
 6155SOL     OW19006   2.835   2.752  12.744
 6155SOL    HW119007   2.881   2.668  12.715
 6155SOL    HW219008   2.779   2.786  12.669
 6156SOL     OW19009   2.853   2.272  12.414
 6156SOL    HW119010   2.776   2.306  12.468
 6156SOL    HW219011   2.819   2.221  12.335
 6157SOL     OW19012   2.903   2.563  11.601
 6157SOL    HW119013   2.929   2.559  11.697
 6157SOL    HW219014   2.818   2.512  11.587
 6158SOL     OW19015   1.938   2.673  11.961
 6158SOL    HW119016   2.037   2.661  11.970
 6158SOL    HW219017   1.914   2.768  11.982
 6159SOL     OW19018   1.992   3.683  12.743
 6159SOL    HW119019   1.982   3.668  12.842
 6159SOL    HW219020   1.906   3.719  12.707
 6160SOL     OW19021   2.727   2.210  11.367
 6160SOL    HW119022   2.786   2.273  11.318
 6160SOL    HW219023   2.746   2.116  11.338
 6161SOL     OW19024   3.581   2.447  13.003
 6161SOL    HW119025   3.555   2.536  12.967
 6161SOL    HW219026   3.579   2.379  12.930
 6162SOL     OW19027   3.224   3.006  11.717
 6162SOL    HW119028   3.307   2.977  11.669
 6162SOL    HW219029   3.175   3.073  11.661
 6163SOL     OW19030   2.412   2.058  12.057
 6163SOL    HW119031   2.407   2.053  12.157
 6163SOL    HW219032   2.414   2.154  12.028
 6164SOL     OW19033   2.870   3.318  11.649
 6164SOL    HW119034   2.824   3.390  11.597
 6164SOL    HW219035   2.866   3.338  11.747
 6165SOL     OW19036   2.213   3.663  12.025
 6165SOL    HW119037   2.263   3.577  12.031
 6165SOL    HW219038   2.278   3.740  12.022
 6166SOL     OW19039   3.657   2.928  12.045
 6166SOL    HW119040   3.595   2.913  11.969
 6166SOL    HW219041   3.605   2.939  12.130
 6167SOL     OW19042   3.089   3.412  12.678
 6167SOL    HW119043   3.095   3.335  12.742
 6167SOL    HW219044   3.037   3.386  12.598
 6168SOL     OW19045   2.183   2.805  11.414
 6168SOL    HW119046   2.265   2.844  11.372
 6168SOL    HW219047   2.156   2.723  11.365
 6169SOL     OW19048   3.320   2.597  11.900
 6169SOL    HW119049   3.315   2.532  11.975
 6169SOL    HW219050   3.400   2.656  11.913
 6170SOL     OW19051   2.323   3.128  12.899
 6170SOL    HW119052   2.273   3.129  12.813
 6170SOL    HW219053   2.260   3.110  12.975
 6171SOL     OW19054   2.973   3.638  11.409
 6171SOL    HW119055   2.913   3.576  11.459
 6171SOL    HW219056   3.004   3.594  11.324
 6172SOL     OW19057   3.494   3.239  11.253
 6172SOL    HW119058   3.462   3.333  11.243
 6172SOL    HW219059   3.418   3.176  11.241
 6173SOL     OW19060   2.326   3.605  11.495
 6173SOL    HW119061   2.359   3.644  11.581
 6173SOL    HW219062   2.402   3.598  11.430
 6174SOL     OW19063   3.262   1.969  11.598
 6174SOL    HW119064   3.238   1.932  11.508
 6174SOL    HW219065   3.361   1.985  11.602
 6175SOL     OW19066   2.111   3.647  12.413
 6175SOL    HW119067   2.168   3.582  12.463
 6175SOL    HW219068   2.095   3.614  12.320
 6176SOL     OW19069   2.802   3.560  12.076
 6176SOL    HW119070   2.882   3.503  12.097
 6176SOL    HW219071   2.753   3.520  11.999
 6177SOL     OW19072   2.244   2.562  11.652
 6177SOL    HW119073   2.289   2.472  11.649
 6177SOL    HW219074   2.150   2.551  11.685
 6178SOL     OW19075   3.409   2.084  12.901
 6178SOL    HW119076   3.404   2.121  12.993
 6178SOL    HW219077   3.337   2.015  12.889
 6179SOL     OW19078   2.476   1.984  11.289
 6179SOL    HW119079   2.574   1.962  11.296
 6179SOL    HW219080   2.445   1.967  11.196
 6180SOL     OW19081   2.643   2.126  12.921
 6180SOL    HW119082   2.710   2.065  12.964
 6180SOL    HW219083   2.570   2.145  12.986
 6181SOL     OW19084   2.750   3.376  12.367
 6181SOL    HW119085   2.727   3.351  12.273
 6181SOL    HW219086   2.811   3.307  12.406
 6182SOL     OW19087   3.213   2.452  12.605
 6182SOL    HW119088   3.241   2.409  12.690
 6182SOL    HW219089   3.238   2.548  12.606
 6183SOL     OW19090   2.665   3.264  12.096
 6183SOL    HW119091   2.755   3.278  12.054
 6183SOL    HW219092   2.594   3.266  12.025
 6184SOL     OW19093   2.784   2.365  12.071
 6184SOL    HW119094   2.759   2.356  11.975
 6184SOL    HW219095   2.832   2.283  12.102
 6185SOL     OW19096   2.401   1.926  11.684
 6185SOL    HW119097   2.320   1.927  11.742
 6185SOL    HW219098   2.404   2.009  11.629
 6186SOL     OW19099   3.296   3.050  11.213
 6186SOL    HW119100   3.328   2.974  11.270
 6186SOL    HW219101   3.204   3.077  11.243
 6187SOL     OW19102   2.797   2.098  11.652
 6187SOL    HW119103   2.749   2.139  11.574
 6187SOL    HW219104   2.896   2.096  11.633
 6188SOL     OW19105   2.938   2.545  12.636
 6188SOL    HW119106   2.858   2.484  12.639
 6188SOL    HW219107   3.019   2.492  12.612
 6189SOL     OW19108   3.089   3.432  11.965
 6189SOL    HW119109   3.110   3.506  11.900
 6189SOL    HW219110   3.157   3.432  12.038
 6190SOL     OW19111   2.321   3.014  11.913
 6190SOL    HW119112   2.250   2.987  11.978
 6190SOL    HW219113   2.295   2.986  11.820
 6191SOL     OW19114   3.133   3.659  11.763
 6191SOL    HW119115   3.177   3.723  11.699
 6191SOL    HW219116   3.083   3.711  11.833
 6192SOL     OW19117   2.894   2.411  11.188
 6192SOL    HW119118   2.853   2.493  11.149
 6192SOL    HW219119   2.958   2.437  11.261
 6193SOL     OW19120   1.940   2.418  12.558
 6193SOL    HW119121   2.032   2.417  12.517
 6193SOL    HW219122   1.934   2.492  12.625
 6194SOL     OW19123   2.423   2.084  12.319
 6194SOL    HW119124   2.461   2.000  12.356
 6194SOL    HW219125   2.335   2.103  12.363
 6195SOL     OW19126   2.728   2.316  11.814
 6195SOL    HW119127   2.696   2.388  11.752
 6195SOL    HW219128   2.752   2.235  11.761
 6196SOL     OW19129   2.879   1.901  11.925
 6196SOL    HW119130   2.807   1.906  11.856
 6196SOL    HW219131   2.855   1.832  11.994
 6197SOL     OW19132   3.291   3.035  12.039
 6197SOL    HW119133   3.236   2.951  12.032
 6197SOL    HW219134   3.317   3.064  11.947
 6198SOL     OW19135   3.328   2.452  12.164
 6198SOL    HW119136   3.298   2.357  12.171
 6198SOL    HW219137   3.401   2.468  12.230
 6199SOL     OW19138   3.719   2.695  11.549
 6199SOL    HW119139   3.761   2.631  11.613
 6199SOL    HW219140   3.681   2.644  11.471
 6200SOL     OW19141   2.350   3.247  11.346
 6200SOL    HW119142   2.263   3.232  11.393
 6200SOL    HW219143   2.333   3.273  11.251
 6201SOL     OW19144   3.526   3.142  11.829
 6201SOL    HW119145   3.625   3.150  11.843
 6201SOL    HW219146   3.481   3.226  11.860
 6202SOL     OW19147   3.252   2.437  11.250
 6202SOL    HW119148   3.198   2.416  11.331
 6202SOL    HW219149   3.343   2.396  11.259
 6203SOL     OW19150   2.389   2.118  11.500
 6203SOL    HW119151   2.416   2.059  11.425
 6203SOL    HW219152   2.389   2.213  11.469
 6204SOL     OW19153   3.616   3.085  12.760
 6204SOL    HW119154   3.707   3.046  12.747
 6204SOL    HW219155   3.624   3.181  12.784
 6205SOL     OW19156   2.926   3.209  12.512
 6205SOL    HW119157   2.846   3.186  12.567
 6205SOL    HW219158   3.009   3.183  12.561
 6206SOL     OW19159   3.454   3.491  12.797
 6206SOL    HW119160   3.481   3.525  12.707
 6206SOL    HW219161   3.533   3.453  12.843
 6207SOL     OW19162   2.973   3.057  12.272
 6207SOL    HW119163   2.933   3.101  12.353
 6207SOL    HW219164   2.932   3.094  12.189
 6208SOL     OW19165   3.500   2.961  12.251
 6208SOL    HW119166   3.505   3.042  12.310
 6208SOL    HW219167   3.414   2.963  12.200
 6209SOL     OW19168   2.777   1.951  12.574
 6209SOL    HW119169   2.802   1.931  12.479
 6209SOL    HW219170   2.849   2.007  12.616
 6210SOL     OW19171   2.842   2.978  12.891
 6210SOL    HW119172   2.743   2.984  12.901
 6210SOL    HW219173   2.865   2.898  12.835
 6211SOL     OW19174   2.567   2.912  11.540
 6211SOL    HW119175   2.553   2.919  11.639
 6211SOL    HW219176   2.651   2.861  11.522
 6212SOL     OW19177   2.272   2.675  12.423
 6212SOL    HW119178   2.358   2.687  12.473
 6212SOL    HW219179   2.230   2.588  12.450
 6213SOL     OW19180   3.136   2.248  12.434
 6213SOL    HW119181   3.157   2.322  12.498
 6213SOL    HW219182   3.047   2.265  12.391
 6214SOL     OW19183   1.926   3.426  12.503
 6214SOL    HW119184   1.880   3.508  12.469
 6214SOL    HW219185   2.024   3.445  12.512
 6215SOL     OW19186   2.229   2.962  11.673
 6215SOL    HW119187   2.222   3.045  11.617
 6215SOL    HW219188   2.233   2.882  11.613
 6216SOL     OW19189   2.428   2.399  12.037
 6216SOL    HW119190   2.440   2.465  11.963
 6216SOL    HW219191   2.474   2.433  12.120
 6217SOL     OW19192   3.114   3.210  11.560
 6217SOL    HW119193   3.164   3.287  11.600
 6217SOL    HW219194   3.019   3.212  11.592
 6218SOL     OW19195   3.134   3.307  12.314
 6218SOL    HW119196   3.181   3.320  12.401
 6218SOL    HW219197   3.068   3.233  12.323
 6219SOL     OW19198   3.444   2.501  11.644
 6219SOL    HW119199   3.413   2.562  11.717
 6219SOL    HW219200   3.494   2.553  11.575
 6220SOL     OW19201   2.216   3.372  12.501
 6220SOL    HW119202   2.195   3.328  12.414
 6220SOL    HW219203   2.313   3.398  12.504
 6221SOL     OW19204   2.264   2.613  12.770
 6221SOL    HW119205   2.332   2.668  12.723
 6221SOL    HW219206   2.304   2.525  12.797
 6222SOL     OW19207   3.449   2.641  12.842
 6222SOL    HW119208   3.357   2.679  12.837
 6222SOL    HW219209   3.509   2.688  12.777
 6223SOL     OW19210   2.875   1.967  12.942
 6223SOL    HW119211   2.881   2.052  12.890
 6223SOL    HW219212   2.907   1.891  12.885
 6224SOL     OW19213   2.366   1.912  12.912
 6224SOL    HW119214   2.324   1.855  12.842
 6224SOL    HW219215   2.300   1.981  12.944
 6225SOL     OW19216   2.435   2.732  12.201
 6225SOL    HW119217   2.479   2.821  12.192
 6225SOL    HW219218   2.372   2.732  12.278
 6226SOL     OW19219   3.222   2.724  12.217
 6226SOL    HW119220   3.147   2.724  12.151
 6226SOL    HW219221   3.259   2.632  12.226
 6227SOL     OW19222   3.071   2.387  11.447
 6227SOL    HW119223   3.084   2.303  11.501
 6227SOL    HW219224   3.042   2.461  11.507
 6228SOL     OW19225   1.899   3.172  12.454
 6228SOL    HW119226   1.952   3.123  12.522
 6228SOL    HW219227   1.921   3.270  12.459
 6229SOL     OW19228   2.594   2.496  12.236
 6229SOL    HW119229   2.653   2.470  12.160
 6229SOL    HW219230   2.566   2.592  12.225
 6230SOL     OW19231   3.590   2.797  13.026
 6230SOL    HW119232   3.544   2.790  12.937
 6230SOL    HW219233   3.528   2.841  13.092
 6231SOL     OW19234   3.484   2.229  11.546
 6231SOL    HW119235   3.486   2.153  11.610
 6231SOL    HW219236   3.436   2.306  11.586
 6232SOL     OW19237   2.885   2.628  12.138
 6232SOL    HW119238   2.900   2.649  12.234
 6232SOL    HW219239   2.855   2.533  12.129
 6233SOL     OW19240   2.842   3.435  12.872
 6233SOL    HW119241   2.822   3.479  12.784
 6233SOL    HW219242   2.881   3.344  12.856
 6234SOL     OW19243   3.721   3.380  12.777
 6234SOL    HW119244   3.735   3.407  12.682
 6234SOL    HW219245   3.804   3.402  12.830
 6235SOL     OW19246   2.212   2.760  12.976
 6235SOL    HW119247   2.288   2.804  13.024
 6235SOL    HW219248   2.247   2.713  12.894
 6236SOL     OW19249   3.402   2.136  11.297
 6236SOL    HW119250   3.341   2.061  11.320
 6236SOL    HW219251   3.424   2.188  11.380
 6237SOL     OW19252   3.165   2.700  11.214
 6237SOL    HW119253   3.199   2.607  11.229
 6237SOL    HW219254   3.183   2.727  11.119
 6238SOL     OW19255   2.930   3.195  12.021
 6238SOL    HW119256   2.937   3.111  11.966
 6238SOL    HW219257   2.992   3.264  11.985
 6239SOL     OW19258   2.181   2.672  12.121
 6239SOL    HW119259   2.274   2.708  12.126
 6239SOL    HW219260   2.175   2.587  12.173
 6240SOL     OW19261   2.201   2.371  12.178
 6240SOL    HW119262   2.149   2.288  12.161
 6240SOL    HW219263   2.278   2.376  12.114
 6241SOL     OW19264   3.000   2.242  12.850
 6241SOL    HW119265   2.955   2.305  12.914
 6241SOL    HW219266   3.093   2.273  12.833
 6242SOL     OW19267   3.022   2.069  12.649
 6242SOL    HW119268   3.022   2.133  12.726
 6242SOL    HW219269   3.050   2.117  12.566
 6243SOL     OW19270   1.870   3.188  11.372
 6243SOL    HW119271   1.777   3.209  11.341
 6243SOL    HW219272   1.880   3.089  11.385
 6244SOL     OW19273   1.950   3.663  12.099
 6244SOL    HW119274   1.908   3.577  12.072
 6244SOL    HW219275   2.044   3.666  12.065
 6245SOL     OW19276   2.366   3.430  12.082
 6245SOL    HW119277   2.432   3.504  12.091
 6245SOL    HW219278   2.410   3.351  12.040
 6246SOL     OW19279   2.864   2.658  12.410
 6246SOL    HW119280   2.905   2.626  12.496
 6246SOL    HW219281   2.768   2.631  12.407
 6247SOL     OW19282   1.902   2.406  12.286
 6247SOL    HW119283   1.987   2.373  12.245
 6247SOL    HW219284   1.915   2.421  12.384
 6248SOL     OW19285   2.051   2.382  12.894
 6248SOL    HW119286   2.110   2.342  12.824
 6248SOL    HW219287   1.993   2.453  12.853
 6249SOL     OW19288   3.231   2.812  12.832
 6249SOL    HW119289   3.270   2.901  12.852
 6249SOL    HW219290   3.241   2.792  12.735
 6250SOL     OW19291   2.677   2.434  11.497
 6250SOL    HW119292   2.684   2.345  11.451
 6250SOL    HW219293   2.583   2.468  11.489
 6251SOL     OW19294   3.519   2.466  12.378
 6251SOL    HW119295   3.481   2.397  12.440
 6251SOL    HW219296   3.601   2.430  12.334
 6252SOL     OW19297   2.114   3.426  12.916
 6252SOL    HW119298   2.084   3.483  12.992
 6252SOL    HW219299   2.107   3.329  12.942
 6253SOL     OW19300   2.533   2.326  12.441
 6253SOL    HW119301   2.499   2.237  12.411
 6253SOL    HW219302   2.559   2.380  12.361
 6254SOL     OW19303   2.792   3.540  12.637
 6254SOL    HW119304   2.768   3.522  12.542
 6254SOL    HW219305   2.822   3.634  12.647
 6255SOL     OW19306   2.335   2.362  11.363
 6255SOL    HW119307   2.396   2.442  11.367
 6255SOL    HW219308   2.240   2.393  11.370
 6256SOL     OW19309   2.021   2.999  12.638
 6256SOL    HW119310   2.043   2.938  12.714
 6256SOL    HW219311   2.031   2.950  12.552
 6257SOL     OW19312   3.209   2.921  12.406
 6257SOL    HW119313   3.233   2.858  12.332
 6257SOL    HW219314   3.119   2.961  12.388
 6258SOL     OW19315   3.164   2.717  11.481
 6258SOL    HW119316   3.078   2.686  11.523
 6258SOL    HW219317   3.160   2.703  11.382
 6259SOL     OW19318   3.621   3.609  12.326
 6259SOL    HW119319   3.682   3.639  12.253
 6259SOL    HW219320   3.583   3.520  12.304
 6260SOL     OW19321   3.114   3.593  12.300
 6260SOL    HW119322   3.198   3.598  12.246
 6260SOL    HW219323   3.091   3.497  12.318
 6261SOL     OW19324   1.945   3.120  12.194
 6261SOL    HW119325   1.940   3.119  12.294
 6261SOL    HW219326   1.862   3.079  12.156
 6262SOL     OW19327   2.550   3.524  12.888
 6262SOL    HW119328   2.494   3.605  12.897
 6262SOL    HW219329   2.602   3.528  12.802
 6263SOL     OW19330   3.588   1.997  11.695
 6263SOL    HW119331   3.661   1.980  11.628
 6263SOL    HW219332   3.557   1.910  11.733
 6264SOL     OW19333   3.250   3.435  11.649
 6264SOL    HW119334   3.317   3.447  11.575
 6264SOL    HW219335   3.210   3.524  11.672
 6265SOL     OW19336   1.992   3.656  13.023
 6265SOL    HW119337   1.951   3.582  13.076
 6265SOL    HW219338   2.056   3.707  13.081
 6266SOL     OW19339   3.142   2.789  11.844
 6266SOL    HW119340   3.202   2.708  11.846
 6266SOL    HW219341   3.182   2.858  11.784
 6267SOL     OW19342   2.692   3.135  12.594
 6267SOL    HW119343   2.687   3.168  12.689
 6267SOL    HW219344   2.606   3.154  12.548
 6268SOL     OW19345   2.534   3.478  11.326
 6268SOL    HW119346   2.543   3.488  11.227
 6268SOL    HW219347   2.494   3.389  11.347
 6269SOL     OW19348   3.512   3.582  12.566
 6269SOL    HW119349   3.565   3.592  12.482
 6269SOL    HW219350   3.485   3.672  12.600
 6270SOL     OW19351   3.703   2.037  12.135
 6270SOL    HW119352   3.742   1.952  12.099
 6270SOL    HW219353   3.605   2.039  12.116
 6271SOL     OW19354   3.056   3.474  11.203
 6271SOL    HW119355   3.062   3.381  11.240
 6271SOL    HW219356   2.997   3.474  11.123
 6272SOL     OW19357   2.684   2.864  12.544
 6272SOL    HW119358   2.724   2.863  12.452
 6272SOL    HW219359   2.694   2.956  12.584
 6273SOL     OW19360   2.778   2.772  11.463
 6273SOL    HW119361   2.841   2.810  11.395
 6273SOL    HW219362   2.818   2.689  11.502
 6274SOL     OW19363   3.366   3.469  11.216
 6274SOL    HW119364   3.274   3.506  11.223
 6274SOL    HW219365   3.404   3.489  11.126
 6275SOL     OW19366   2.234   3.150  12.662
 6275SOL    HW119367   2.221   3.243  12.628
 6275SOL    HW219368   2.150   3.098  12.649
 6276SOL     OW19369   3.476   3.154  12.461
 6276SOL    HW119370   3.536   3.157  12.541
 6276SOL    HW219371   3.401   3.218  12.474
 6277SOL     OW19372   2.901   2.960  11.868
 6277SOL    HW119373   2.831   2.913  11.922
 6277SOL    HW219374   2.960   2.892  11.825
 6278SOL     OW19375   2.876   2.098  12.143
 6278SOL    HW119376   2.868   2.062  12.050
 6278SOL    HW219377   2.874   2.022  12.208
 6279SOL     OW19378   2.452   3.349  11.663
 6279SOL    HW119379   2.494   3.291  11.593
 6279SOL    HW219380   2.408   3.428  11.619
 6280SOL     OW19381   3.571   2.247  12.553
 6280SOL    HW119382   3.644   2.316  12.557
 6280SOL    HW219383   3.599   2.172  12.494
 6281SOL     OW19384   2.117   3.210  11.462
 6281SOL    HW119385   2.021   3.211  11.435
 6281SOL    HW219386   2.129   3.263  11.546
 6282SOL     OW19387   1.967   2.875  12.898
 6282SOL    HW119388   1.890   2.842  12.952
 6282SOL    HW219389   2.052   2.845  12.940
 6283SOL     OW19390   2.534   2.065  12.661
 6283SOL    HW119391   2.624   2.049  12.621
 6283SOL    HW219392   2.542   2.070  12.760
 6284SOL     OW19393   3.302   2.718  12.570
 6284SOL    HW119394   3.245   2.770  12.507
 6284SOL    HW219395   3.398   2.730  12.546
 6285SOL     OW19396   3.045   3.197  11.291
 6285SOL    HW119397   2.946   3.186  11.293
 6285SOL    HW219398   3.079   3.212  11.384
 6286SOL     OW19399   2.475   2.704  12.603
 6286SOL    HW119400   2.531   2.785  12.586
 6286SOL    HW219401   2.534   2.624  12.606
 6287SOL     OW19402   3.355   3.629  12.131
 6287SOL    HW119403   3.388   3.693  12.062
 6287SOL    HW219404   3.421   3.623  12.206
 6288SOL     OW19405   2.578   2.427  12.880
 6288SOL    HW119406   2.597   2.492  12.954
 6288SOL    HW219407   2.638   2.347  12.889
 6289SOL     OW19408   3.312   3.082  12.805
 6289SOL    HW119409   3.303   3.072  12.904
 6289SOL    HW219410   3.408   3.075  12.779
 6290SOL     OW19411   2.252   3.603  12.732
 6290SOL    HW119412   2.161   3.644  12.730
 6290SOL    HW219413   2.245   3.509  12.764
 6291SOL     OW19414   3.536   2.745  12.426
 6291SOL    HW119415   3.509   2.656  12.389
 6291SOL    HW219416   3.537   2.813  12.353
 6292SOL     OW19417   3.087   2.187  11.621
 6292SOL    HW119418   3.152   2.113  11.610
 6292SOL    HW219419   3.107   2.237  11.705
 6293SOL     OW19420   2.456   2.607  11.824
 6293SOL    HW119421   2.506   2.692  11.805
 6293SOL    HW219422   2.368   2.609  11.776
 6294SOL     OW19423   3.639   2.204  12.814
 6294SOL    HW119424   3.622   2.235  12.720
 6294SOL    HW219425   3.555   2.167  12.852
 6295SOL     OW19426   3.592   2.796  12.689
 6295SOL    HW119427   3.630   2.887  12.704
 6295SOL    HW219428   3.584   2.779  12.590
 6296SOL     OW19429   2.721   3.236  11.188
 6296SOL    HW119430   2.675   3.251  11.276
 6296SOL    HW219431   2.765   3.321  11.158
 6297SOL     OW19432   2.523   3.652  12.125
 6297SOL    HW119433   2.477   3.740  12.112
 6297SOL    HW219434   2.622   3.664  12.118
 6298SOL     OW19435   2.721   2.818  12.033
 6298SOL    HW119436   2.775   2.749  12.081
 6298SOL    HW219437   2.689   2.887  12.099
 6299SOL     OW19438   2.945   2.846  11.259
 6299SOL    HW119439   2.922   2.899  11.177
 6299SOL    HW219440   3.026   2.790  11.240
 6300SOL     OW19441   3.723   3.431  12.023
 6300SOL    HW119442   3.652   3.419  11.953
 6300SOL    HW219443   3.724   3.352  12.083
 6301SOL     OW19444   2.083   3.176  13.016
 6301SOL    HW119445   2.018   3.103  12.995
 6301SOL    HW219446   2.087   3.190  13.114
 6302SOL     OW19447   1.941   3.102  11.825
 6302SOL    HW119448   1.940   3.055  11.913
 6302SOL    HW219449   2.023   3.074  11.774
 6303SOL     OW19450   2.534   3.253  12.796
 6303SOL    HW119451   2.456   3.203  12.834
 6303SOL    HW219452   2.531   3.348  12.827
 6304SOL     OW19453   3.686   2.054  12.399
 6304SOL    HW119454   3.682   1.964  12.443
 6304SOL    HW219455   3.689   2.043  12.300
 6305SOL     OW19456   2.290   2.286  11.692
 6305SOL    HW119457   2.320   2.214  11.630
 6305SOL    HW219458   2.251   2.246  11.775
 6306SOL     OW19459   3.567   3.349  12.276
 6306SOL    HW119460   3.474   3.324  12.249
 6306SOL    HW219461   3.593   3.299  12.358
 6307SOL     OW19462   2.179   2.409  12.452
 6307SOL    HW119463   2.217   2.350  12.524
 6307SOL    HW219464   2.219   2.383  12.364
 6308SOL     OW19465   2.674   3.448  11.859
 6308SOL    HW119466   2.706   3.458  11.765
 6308SOL    HW219467   2.595   3.386  11.861
 6309SOL     OW19468   3.286   2.076  12.284
 6309SOL    HW119469   3.338   2.011  12.339
 6309SOL    HW219470   3.237   2.139  12.345
 6310SOL     OW19471   2.863   1.896  12.326
 6310SOL    HW119472   2.800   1.824  12.295
 6310SOL    HW219473   2.956   1.860  12.326
 6311SOL     OW19474   2.632   3.192  11.473
 6311SOL    HW119475   2.586   3.105  11.490
 6311SOL    HW219476   2.723   3.189  11.514
 6312SOL     OW19477   2.480   3.429  12.456
 6312SOL    HW119478   2.475   3.511  12.513
 6312SOL    HW219479   2.569   3.426  12.411
 6313SOL     OW19480   3.214   1.914  11.340
 6313SOL    HW119481   3.249   1.873  11.256
 6313SOL    HW219482   3.124   1.876  11.360
 6314SOL     OW19483   3.162   2.315  11.863
 6314SOL    HW119484   3.103   2.395  11.867
 6314SOL    HW219485   3.177   2.280  11.956
 6315SOL     OW19486   3.455   2.083  12.054
 6315SOL    HW119487   3.371   2.082  12.108
 6315SOL    HW219488   3.457   2.166  11.998
 6316SOL     OW19489   1.901   2.939  11.472
 6316SOL    HW119490   2.000   2.928  11.463
 6316SOL    HW219491   1.861   2.853  11.504
 6317SOL     OW19492   2.737   3.508  11.509
 6317SOL    HW119493   2.660   3.473  11.455
 6317SOL    HW219494   2.705   3.579  11.571
 6318SOL     OW19495   2.092   2.490  13.147
 6318SOL    HW119496   1.999   2.488  13.184
 6318SOL    HW219497   2.093   2.451  13.055
 6319SOL     OW19498   1.881   2.230  13.681
 6319SOL    HW119499   1.799   2.273  13.720
 6319SOL    HW219500   1.853   2.157  13.618
 6320SOL     OW19501   3.417   3.373  13.737
 6320SOL    HW119502   3.360   3.357  13.818
 6320SOL    HW219503   3.358   3.383  13.657
 6321SOL     OW19504   2.997   2.565  13.751
 6321SOL    HW119505   3.054   2.643  13.726
 6321SOL    HW219506   2.937   2.591  13.827
 6322SOL     OW19507   3.617   2.469  13.265
 6322SOL    HW119508   3.605   2.456  13.166
 6322SOL    HW219509   3.587   2.388  13.314
 6323SOL     OW19510   2.547   2.874  13.699
 6323SOL    HW119511   2.616   2.858  13.769
 6323SOL    HW219512   2.474   2.931  13.737
 6324SOL     OW19513   3.465   2.309  13.771
 6324SOL    HW119514   3.391   2.355  13.721
 6324SOL    HW219515   3.516   2.377  13.824
 6325SOL     OW19516   2.093   3.575  13.517
 6325SOL    HW119517   2.127   3.652  13.571
 6325SOL    HW219518   2.137   3.575  13.427
 6326SOL     OW19519   2.092   3.296  13.572
 6326SOL    HW119520   2.066   3.392  13.572
 6326SOL    HW219521   2.021   3.242  13.617
 6327SOL     OW19522   2.102   2.953  13.920
 6327SOL    HW119523   2.116   2.869  13.972
 6327SOL    HW219524   2.047   3.017  13.975
 6328SOL     OW19525   2.468   2.826  13.157
 6328SOL    HW119526   2.475   2.910  13.103
 6328SOL    HW219527   2.514   2.839  13.245
 6329SOL     OW19528   1.984   2.505  13.597
 6329SOL    HW119529   1.939   2.417  13.614
 6329SOL    HW219530   1.983   2.559  13.681
 6330SOL     OW19531   3.704   3.629  13.393
 6330SOL    HW119532   3.758   3.600  13.473
 6330SOL    HW219533   3.734   3.719  13.364
 6331SOL     OW19534   1.889   3.458  13.151
 6331SOL    HW119535   1.870   3.362  13.172
 6331SOL    HW219536   1.856   3.516  13.226
 6332SOL     OW19537   3.551   2.784  13.646
 6332SOL    HW119538   3.646   2.755  13.654
 6332SOL    HW219539   3.543   2.849  13.571
 6333SOL     OW19540   3.503   2.970  13.466
 6333SOL    HW119541   3.589   2.972  13.414
 6333SOL    HW219542   3.517   3.017  13.554
 6334SOL     OW19543   2.475   3.227  13.760
 6334SOL    HW119544   2.426   3.140  13.769
 6334SOL    HW219545   2.452   3.270  13.673
 6335SOL     OW19546   2.671   1.866  13.536
 6335SOL    HW119547   2.711   1.957  13.527
 6335SOL    HW219548   2.571   1.874  13.542
 6336SOL     OW19549   3.387   2.861  13.224
 6336SOL    HW119550   3.324   2.785  13.237
 6336SOL    HW219551   3.435   2.879  13.310
 6337SOL     OW19552   3.529   3.576  13.606
 6337SOL    HW119553   3.488   3.553  13.518
 6337SOL    HW219554   3.511   3.502  13.671
 6338SOL     OW19555   2.460   2.591  13.304
 6338SOL    HW119556   2.484   2.660  13.236
 6338SOL    HW219557   2.382   2.624  13.358
 6339SOL     OW19558   3.143   2.207  13.978
 6339SOL    HW119559   3.057   2.157  13.965
 6339SOL    HW219560   3.205   2.153  14.034
 6340SOL     OW19561   3.438   3.524  13.341
 6340SOL    HW119562   3.527   3.570  13.344
 6340SOL    HW219563   3.417   3.500  13.246
 6341SOL     OW19564   2.903   2.563  13.463
 6341SOL    HW119565   2.929   2.559  13.559
 6341SOL    HW219566   2.818   2.512  13.449
 6342SOL     OW19567   1.938   2.673  13.823
 6342SOL    HW119568   2.037   2.661  13.832
 6342SOL    HW219569   1.914   2.768  13.844
 6343SOL     OW19570   2.727   2.210  13.229
 6343SOL    HW119571   2.786   2.273  13.180
 6343SOL    HW219572   2.746   2.116  13.200
 6344SOL     OW19573   3.224   3.006  13.579
 6344SOL    HW119574   3.307   2.977  13.531
 6344SOL    HW219575   3.175   3.073  13.523
 6345SOL     OW19576   2.870   3.318  13.511
 6345SOL    HW119577   2.824   3.390  13.459
 6345SOL    HW219578   2.866   3.338  13.609
 6346SOL     OW19579   2.213   3.663  13.887
 6346SOL    HW119580   2.263   3.577  13.893
 6346SOL    HW219581   2.278   3.740  13.884
 6347SOL     OW19582   3.657   2.928  13.907
 6347SOL    HW119583   3.595   2.913  13.831
 6347SOL    HW219584   3.605   2.939  13.992
 6348SOL     OW19585   2.183   2.805  13.276
 6348SOL    HW119586   2.265   2.844  13.234
 6348SOL    HW219587   2.156   2.723  13.227
 6349SOL     OW19588   3.320   2.597  13.762
 6349SOL    HW119589   3.315   2.532  13.837
 6349SOL    HW219590   3.400   2.656  13.775
 6350SOL     OW19591   2.973   3.638  13.271
 6350SOL    HW119592   2.913   3.576  13.321
 6350SOL    HW219593   3.004   3.594  13.186
 6351SOL     OW19594   3.494   3.239  13.115
 6351SOL    HW119595   3.462   3.333  13.105
 6351SOL    HW219596   3.418   3.176  13.103
 6352SOL     OW19597   2.326   3.605  13.357
 6352SOL    HW119598   2.359   3.644  13.443
 6352SOL    HW219599   2.402   3.598  13.292
 6353SOL     OW19600   3.262   1.969  13.460
 6353SOL    HW119601   3.238   1.932  13.370
 6353SOL    HW219602   3.361   1.985  13.464
 6354SOL     OW19603   2.802   3.560  13.938
 6354SOL    HW119604   2.882   3.503  13.959
 6354SOL    HW219605   2.753   3.520  13.861
 6355SOL     OW19606   2.244   2.562  13.514
 6355SOL    HW119607   2.289   2.472  13.511
 6355SOL    HW219608   2.150   2.551  13.547
 6356SOL     OW19609   2.476   1.984  13.151
 6356SOL    HW119610   2.574   1.962  13.158
 6356SOL    HW219611   2.445   1.967  13.058
 6357SOL     OW19612   2.401   1.926  13.546
 6357SOL    HW119613   2.320   1.927  13.604
 6357SOL    HW219614   2.404   2.009  13.491
 6358SOL     OW19615   3.296   3.050  13.075
 6358SOL    HW119616   3.328   2.974  13.132
 6358SOL    HW219617   3.204   3.077  13.105
 6359SOL     OW19618   2.797   2.098  13.514
 6359SOL    HW119619   2.749   2.139  13.436
 6359SOL    HW219620   2.896   2.096  13.495
 6360SOL     OW19621   2.321   3.014  13.775
 6360SOL    HW119622   2.250   2.987  13.840
 6360SOL    HW219623   2.295   2.986  13.682
 6361SOL     OW19624   3.133   3.659  13.625
 6361SOL    HW119625   3.177   3.723  13.561
 6361SOL    HW219626   3.083   3.711  13.695
 6362SOL     OW19627   2.894   2.411  13.050
 6362SOL    HW119628   2.853   2.493  13.011
 6362SOL    HW219629   2.958   2.437  13.123
 6363SOL     OW19630   2.728   2.316  13.676
 6363SOL    HW119631   2.696   2.388  13.614
 6363SOL    HW219632   2.752   2.235  13.623
 6364SOL     OW19633   2.879   1.901  13.787
 6364SOL    HW119634   2.807   1.906  13.718
 6364SOL    HW219635   2.855   1.832  13.856
 6365SOL     OW19636   3.719   2.695  13.411
 6365SOL    HW119637   3.761   2.631  13.475
 6365SOL    HW219638   3.681   2.644  13.333
 6366SOL     OW19639   2.350   3.247  13.208
 6366SOL    HW119640   2.263   3.232  13.255
 6366SOL    HW219641   2.333   3.273  13.113
 6367SOL     OW19642   3.526   3.142  13.691
 6367SOL    HW119643   3.625   3.150  13.705
 6367SOL    HW219644   3.481   3.226  13.722
 6368SOL     OW19645   3.252   2.437  13.112
 6368SOL    HW119646   3.198   2.416  13.193
 6368SOL    HW219647   3.343   2.396  13.121
 6369SOL     OW19648   2.389   2.118  13.362
 6369SOL    HW119649   2.416   2.059  13.287
 6369SOL    HW219650   2.389   2.213  13.331
 6370SOL     OW19651   2.567   2.912  13.402
 6370SOL    HW119652   2.553   2.919  13.501
 6370SOL    HW219653   2.651   2.861  13.384
 6371SOL     OW19654   2.229   2.962  13.535
 6371SOL    HW119655   2.222   3.045  13.479
 6371SOL    HW219656   2.233   2.882  13.475
 6372SOL     OW19657   2.428   2.399  13.899
 6372SOL    HW119658   2.440   2.465  13.825
 6372SOL    HW219659   2.474   2.433  13.982
 6373SOL     OW19660   3.114   3.210  13.422
 6373SOL    HW119661   3.164   3.287  13.462
 6373SOL    HW219662   3.019   3.212  13.454
 6374SOL     OW19663   3.444   2.501  13.506
 6374SOL    HW119664   3.413   2.562  13.579
 6374SOL    HW219665   3.494   2.553  13.437
 6375SOL     OW19666   3.071   2.387  13.309
 6375SOL    HW119667   3.084   2.303  13.363
 6375SOL    HW219668   3.042   2.461  13.369
 6376SOL     OW19669   3.484   2.229  13.408
 6376SOL    HW119670   3.486   2.153  13.472
 6376SOL    HW219671   3.436   2.306  13.448
 6377SOL     OW19672   3.402   2.136  13.159
 6377SOL    HW119673   3.341   2.061  13.182
 6377SOL    HW219674   3.424   2.188  13.242
 6378SOL     OW19675   3.165   2.700  13.076
 6378SOL    HW119676   3.199   2.607  13.091
 6378SOL    HW219677   3.183   2.727  12.981
 6379SOL     OW19678   1.870   3.188  13.234
 6379SOL    HW119679   1.777   3.209  13.203
 6379SOL    HW219680   1.880   3.089  13.247
 6380SOL     OW19681   2.677   2.434  13.359
 6380SOL    HW119682   2.684   2.345  13.313
 6380SOL    HW219683   2.583   2.468  13.351
 6381SOL     OW19684   2.335   2.362  13.225
 6381SOL    HW119685   2.396   2.442  13.229
 6381SOL    HW219686   2.240   2.393  13.232
 6382SOL     OW19687   3.164   2.717  13.343
 6382SOL    HW119688   3.078   2.686  13.385
 6382SOL    HW219689   3.160   2.703  13.244
 6383SOL     OW19690   3.588   1.997  13.557
 6383SOL    HW119691   3.661   1.980  13.490
 6383SOL    HW219692   3.557   1.910  13.595
 6384SOL     OW19693   3.250   3.435  13.511
 6384SOL    HW119694   3.317   3.447  13.437
 6384SOL    HW219695   3.210   3.524  13.534
 6385SOL     OW19696   3.142   2.789  13.706
 6385SOL    HW119697   3.202   2.708  13.708
 6385SOL    HW219698   3.182   2.858  13.646
 6386SOL     OW19699   2.534   3.478  13.188
 6386SOL    HW119700   2.543   3.488  13.089
 6386SOL    HW219701   2.494   3.389  13.209
 6387SOL     OW19702   3.703   2.037  13.997
 6387SOL    HW119703   3.742   1.952  13.961
 6387SOL    HW219704   3.605   2.039  13.978
 6388SOL     OW19705   2.125   2.188  13.754
 6388SOL    HW119706   2.046   2.239  13.720
 6388SOL    HW219707   2.116   2.173  13.852
 6389SOL     OW19708   3.056   3.474  13.065
 6389SOL    HW119709   3.062   3.381  13.102
 6389SOL    HW219710   2.997   3.474  12.985
 6390SOL     OW19711   2.778   2.772  13.325
 6390SOL    HW119712   2.841   2.810  13.257
 6390SOL    HW219713   2.818   2.689  13.364
 6391SOL     OW19714   3.366   3.469  13.078
 6391SOL    HW119715   3.274   3.506  13.085
 6391SOL    HW219716   3.404   3.489  12.988
 6392SOL     OW19717   2.901   2.960  13.730
 6392SOL    HW119718   2.831   2.913  13.784
 6392SOL    HW219719   2.960   2.892  13.687
 6393SOL     OW19720   2.452   3.349  13.525
 6393SOL    HW119721   2.494   3.291  13.455
 6393SOL    HW219722   2.408   3.428  13.481
 6394SOL     OW19723   2.117   3.210  13.324
 6394SOL    HW119724   2.021   3.211  13.297
 6394SOL    HW219725   2.129   3.263  13.408
 6395SOL     OW19726   3.045   3.197  13.153
 6395SOL    HW119727   2.946   3.186  13.155
 6395SOL    HW219728   3.079   3.212  13.246
 6396SOL     OW19729   3.087   2.187  13.483
 6396SOL    HW119730   3.152   2.113  13.472
 6396SOL    HW219731   3.107   2.237  13.567
 6397SOL     OW19732   2.456   2.607  13.686
 6397SOL    HW119733   2.506   2.692  13.667
 6397SOL    HW219734   2.368   2.609  13.638
 6398SOL     OW19735   2.721   3.236  13.050
 6398SOL    HW119736   2.675   3.251  13.138
 6398SOL    HW219737   2.765   3.321  13.020
 6399SOL     OW19738   2.523   3.652  13.987
 6399SOL    HW119739   2.477   3.740  13.974
 6399SOL    HW219740   2.622   3.664  13.980
 6400SOL     OW19741   2.721   2.818  13.895
 6400SOL    HW119742   2.775   2.749  13.943
 6400SOL    HW219743   2.689   2.887  13.961
 6401SOL     OW19744   2.945   2.846  13.121
 6401SOL    HW119745   2.922   2.899  13.039
 6401SOL    HW219746   3.026   2.790  13.102
 6402SOL     OW19747   1.941   3.102  13.687
 6402SOL    HW119748   1.940   3.055  13.775
 6402SOL    HW219749   2.023   3.074  13.636
 6403SOL     OW19750   2.290   2.286  13.554
 6403SOL    HW119751   2.320   2.214  13.492
 6403SOL    HW219752   2.251   2.246  13.637
 6404SOL     OW19753   3.567   3.349  14.138
 6404SOL    HW119754   3.474   3.324  14.111
 6404SOL    HW219755   3.593   3.299  14.220
 6405SOL     OW19756   2.674   3.448  13.721
 6405SOL    HW119757   2.706   3.458  13.627
 6405SOL    HW219758   2.595   3.386  13.723
 6406SOL     OW19759   2.632   3.192  13.335
 6406SOL    HW119760   2.586   3.105  13.352
 6406SOL    HW219761   2.723   3.189  13.376
 6407SOL     OW19762   3.214   1.914  13.202
 6407SOL    HW119763   3.249   1.873  13.118
 6407SOL    HW219764   3.124   1.876  13.222
 6408SOL     OW19765   3.162   2.315  13.725
 6408SOL    HW119766   3.103   2.395  13.729
 6408SOL    HW219767   3.177   2.280  13.818
 6409SOL     OW19768   1.901   2.939  13.334
 6409SOL    HW119769   2.000   2.928  13.325
 6409SOL    HW219770   1.861   2.853  13.366
 6410SOL     OW19771   2.737   3.508  13.371
 6410SOL    HW119772   2.660   3.473  13.317
 6410SOL    HW219773   2.705   3.579  13.433
 6411SOL     OW19774   2.087   3.999   0.996
 6411SOL    HW119775   2.122   3.982   1.088
 6411SOL    HW219776   1.999   3.954   0.984
 6412SOL     OW19777   1.881   4.092   0.647
 6412SOL    HW119778   1.799   4.135   0.686
 6412SOL    HW219779   1.853   4.019   0.584
 6413SOL     OW19780   3.617   4.331   0.231
 6413SOL    HW119781   3.605   4.318   0.132
 6413SOL    HW219782   3.587   4.250   0.280
 6414SOL     OW19783   2.300   4.116   1.499
 6414SOL    HW119784   2.382   4.060   1.508
 6414SOL    HW219785   2.219   4.058   1.503
 6415SOL     OW19786   3.456   3.838   1.480
 6415SOL    HW119787   3.438   3.905   1.408
 6415SOL    HW219788   3.453   3.884   1.569
 6416SOL     OW19789   2.671   3.728   0.502
 6416SOL    HW119790   2.711   3.819   0.493
 6416SOL    HW219791   2.571   3.736   0.508
 6417SOL     OW19792   3.143   4.069   0.944
 6417SOL    HW119793   3.057   4.019   0.931
 6417SOL    HW219794   3.205   4.015   1.000
 6418SOL     OW19795   2.412   3.920   0.885
 6418SOL    HW119796   2.407   3.915   0.985
 6418SOL    HW219797   2.414   4.016   0.856
 6419SOL     OW19798   2.064   4.009   1.498
 6419SOL    HW119799   1.984   4.069   1.485
 6419SOL    HW219800   2.054   3.960   1.584
 6420SOL     OW19801   3.262   3.831   0.426
 6420SOL    HW119802   3.238   3.794   0.336
 6420SOL    HW219803   3.361   3.847   0.430
 6421SOL     OW19804   3.409   3.946   1.729
 6421SOL    HW119805   3.404   3.983   1.821
 6421SOL    HW219806   3.337   3.877   1.717
 6422SOL     OW19807   2.643   3.988   1.749
 6422SOL    HW119808   2.710   3.927   1.792
 6422SOL    HW219809   2.570   4.007   1.814
 6423SOL     OW19810   2.401   3.788   0.512
 6423SOL    HW119811   2.320   3.789   0.570
 6423SOL    HW219812   2.404   3.871   0.457
 6424SOL     OW19813   2.159   3.759   0.171
 6424SOL    HW119814   2.208   3.843   0.150
 6424SOL    HW219815   2.221   3.694   0.216
 6425SOL     OW19816   2.423   3.946   1.147
 6425SOL    HW119817   2.461   3.862   1.184
 6425SOL    HW219818   2.335   3.965   1.191
 6426SOL     OW19819   2.879   3.763   0.753
 6426SOL    HW119820   2.807   3.768   0.684
 6426SOL    HW219821   2.855   3.694   0.822
 6427SOL     OW19822   2.777   3.813   1.402
 6427SOL    HW119823   2.802   3.793   1.307
 6427SOL    HW219824   2.849   3.869   1.444
 6428SOL     OW19825   3.136   4.110   1.262
 6428SOL    HW119826   3.157   4.184   1.326
 6428SOL    HW219827   3.047   4.127   1.219
 6429SOL     OW19828   2.366   3.774   1.740
 6429SOL    HW119829   2.324   3.717   1.670
 6429SOL    HW219830   2.300   3.843   1.772
 6430SOL     OW19831   2.169   3.937   1.231
 6430SOL    HW119832   2.146   3.974   1.321
 6430SOL    HW219833   2.139   3.842   1.225
 6431SOL     OW19834   3.402   3.998   0.125
 6431SOL    HW119835   3.341   3.923   0.148
 6431SOL    HW219836   3.424   4.050   0.208
 6432SOL     OW19837   3.022   3.931   1.477
 6432SOL    HW119838   3.022   3.995   1.554
 6432SOL    HW219839   3.050   3.979   1.394
 6433SOL     OW19840   2.765   3.810   0.133
 6433SOL    HW119841   2.816   3.811   0.047
 6433SOL    HW219842   2.821   3.768   0.204
 6434SOL     OW19843   3.588   3.859   0.523
 6434SOL    HW119844   3.661   3.842   0.456
 6434SOL    HW219845   3.557   3.772   0.561
 6435SOL     OW19846   3.703   3.899   0.963
 6435SOL    HW119847   3.742   3.814   0.927
 6435SOL    HW219848   3.605   3.901   0.944
 6436SOL     OW19849   2.534   3.927   1.489
 6436SOL    HW119850   2.624   3.911   1.449
 6436SOL    HW219851   2.542   3.932   1.588
 6437SOL     OW19852   1.934   3.890   0.318
 6437SOL    HW119853   1.917   3.973   0.264
 6437SOL    HW219854   2.024   3.853   0.296
 6438SOL     OW19855   3.087   4.049   0.449
 6438SOL    HW119856   3.152   3.975   0.438
 6438SOL    HW219857   3.107   4.099   0.533
 6439SOL     OW19858   3.639   4.066   1.642
 6439SOL    HW119859   3.622   4.097   1.548
 6439SOL    HW219860   3.555   4.029   1.680
 6440SOL     OW19861   3.686   3.916   1.227
 6440SOL    HW119862   3.682   3.826   1.271
 6440SOL    HW219863   3.689   3.905   1.128
 6441SOL     OW19864   3.286   3.938   1.112
 6441SOL    HW119865   3.338   3.873   1.167
 6441SOL    HW219866   3.237   4.001   1.173
 6442SOL     OW19867   2.863   3.758   1.154
 6442SOL    HW119868   2.800   3.686   1.123
 6442SOL    HW219869   2.956   3.722   1.154
 6443SOL     OW19870   3.214   3.776   0.168
 6443SOL    HW119871   3.249   3.735   0.084
 6443SOL    HW219872   3.124   3.738   0.188
 6444SOL     OW19873   3.162   4.177   0.691
 6444SOL    HW119874   3.103   4.257   0.695
 6444SOL    HW219875   3.177   4.142   0.784
 6445SOL     OW19876   3.455   3.945   0.882
 6445SOL    HW119877   3.371   3.944   0.936
 6445SOL    HW219878   3.457   4.028   0.826
 6446SOL     OW19879   2.087   3.999   2.858
 6446SOL    HW119880   2.122   3.982   2.950
 6446SOL    HW219881   1.999   3.954   2.846
 6447SOL     OW19882   1.881   4.092   2.509
 6447SOL    HW119883   1.799   4.135   2.548
 6447SOL    HW219884   1.853   4.019   2.446
 6448SOL     OW19885   3.617   4.331   2.093
 6448SOL    HW119886   3.605   4.318   1.994
 6448SOL    HW219887   3.587   4.250   2.142
 6449SOL     OW19888   2.300   4.116   3.361
 6449SOL    HW119889   2.382   4.060   3.370
 6449SOL    HW219890   2.219   4.058   3.365
 6450SOL     OW19891   3.456   3.838   3.342
 6450SOL    HW119892   3.438   3.905   3.270
 6450SOL    HW219893   3.453   3.884   3.431
 6451SOL     OW19894   2.671   3.728   2.364
 6451SOL    HW119895   2.711   3.819   2.355
 6451SOL    HW219896   2.571   3.736   2.370
 6452SOL     OW19897   3.143   4.069   2.806
 6452SOL    HW119898   3.057   4.019   2.793
 6452SOL    HW219899   3.205   4.015   2.862
 6453SOL     OW19900   2.412   3.920   2.747
 6453SOL    HW119901   2.407   3.915   2.847
 6453SOL    HW219902   2.414   4.016   2.718
 6454SOL     OW19903   2.064   4.009   3.360
 6454SOL    HW119904   1.984   4.069   3.347
 6454SOL    HW219905   2.054   3.960   3.446
 6455SOL     OW19906   3.262   3.831   2.288
 6455SOL    HW119907   3.238   3.794   2.198
 6455SOL    HW219908   3.361   3.847   2.292
 6456SOL     OW19909   3.409   3.946   3.591
 6456SOL    HW119910   3.404   3.983   3.683
 6456SOL    HW219911   3.337   3.877   3.579
 6457SOL     OW19912   2.476   3.846   1.979
 6457SOL    HW119913   2.574   3.824   1.986
 6457SOL    HW219914   2.445   3.829   1.886
 6458SOL     OW19915   2.643   3.988   3.611
 6458SOL    HW119916   2.710   3.927   3.654
 6458SOL    HW219917   2.570   4.007   3.676
 6459SOL     OW19918   2.401   3.788   2.374
 6459SOL    HW119919   2.320   3.789   2.432
 6459SOL    HW219920   2.404   3.871   2.319
 6460SOL     OW19921   2.159   3.759   2.033
 6460SOL    HW119922   2.208   3.843   2.012
 6460SOL    HW219923   2.221   3.694   2.078
 6461SOL     OW19924   2.423   3.946   3.009
 6461SOL    HW119925   2.461   3.862   3.046
 6461SOL    HW219926   2.335   3.965   3.053
 6462SOL     OW19927   2.879   3.763   2.615
 6462SOL    HW119928   2.807   3.768   2.546
 6462SOL    HW219929   2.855   3.694   2.684
 6463SOL     OW19930   2.777   3.813   3.264
 6463SOL    HW119931   2.802   3.793   3.169
 6463SOL    HW219932   2.849   3.869   3.306
 6464SOL     OW19933   3.136   4.110   3.124
 6464SOL    HW119934   3.157   4.184   3.188
 6464SOL    HW219935   3.047   4.127   3.081
 6465SOL     OW19936   2.366   3.774   3.602
 6465SOL    HW119937   2.324   3.717   3.532
 6465SOL    HW219938   2.300   3.843   3.634
 6466SOL     OW19939   2.169   3.937   3.093
 6466SOL    HW119940   2.146   3.974   3.183
 6466SOL    HW219941   2.139   3.842   3.087
 6467SOL     OW19942   3.402   3.998   1.987
 6467SOL    HW119943   3.341   3.923   2.010
 6467SOL    HW219944   3.424   4.050   2.070
 6468SOL     OW19945   3.022   3.931   3.339
 6468SOL    HW119946   3.022   3.995   3.416
 6468SOL    HW219947   3.050   3.979   3.256
 6469SOL     OW19948   2.765   3.810   1.995
 6469SOL    HW119949   2.816   3.811   1.909
 6469SOL    HW219950   2.821   3.768   2.066
 6470SOL     OW19951   3.588   3.859   2.385
 6470SOL    HW119952   3.661   3.842   2.318
 6470SOL    HW219953   3.557   3.772   2.423
 6471SOL     OW19954   3.703   3.899   2.825
 6471SOL    HW119955   3.742   3.814   2.789
 6471SOL    HW219956   3.605   3.901   2.806
 6472SOL     OW19957   2.534   3.927   3.351
 6472SOL    HW119958   2.624   3.911   3.311
 6472SOL    HW219959   2.542   3.932   3.450
 6473SOL     OW19960   1.937   4.069   1.895
 6473SOL    HW119961   1.845   4.041   1.866
 6473SOL    HW219962   1.968   4.146   1.839
 6474SOL     OW19963   1.934   3.890   2.180
 6474SOL    HW119964   1.917   3.973   2.126
 6474SOL    HW219965   2.024   3.853   2.158
 6475SOL     OW19966   3.087   4.049   2.311
 6475SOL    HW119967   3.152   3.975   2.300
 6475SOL    HW219968   3.107   4.099   2.395
 6476SOL     OW19969   3.639   4.066   3.504
 6476SOL    HW119970   3.622   4.097   3.410
 6476SOL    HW219971   3.555   4.029   3.542
 6477SOL     OW19972   3.686   3.916   3.089
 6477SOL    HW119973   3.682   3.826   3.133
 6477SOL    HW219974   3.689   3.905   2.990
 6478SOL     OW19975   3.286   3.938   2.974
 6478SOL    HW119976   3.338   3.873   3.029
 6478SOL    HW219977   3.237   4.001   3.035
 6479SOL     OW19978   2.863   3.758   3.016
 6479SOL    HW119979   2.800   3.686   2.985
 6479SOL    HW219980   2.956   3.722   3.016
 6480SOL     OW19981   3.214   3.776   2.030
 6480SOL    HW119982   3.249   3.735   1.946
 6480SOL    HW219983   3.124   3.738   2.050
 6481SOL     OW19984   3.162   4.177   2.553
 6481SOL    HW119985   3.103   4.257   2.557
 6481SOL    HW219986   3.177   4.142   2.646
 6482SOL     OW19987   3.455   3.945   2.744
 6482SOL    HW119988   3.371   3.944   2.798
 6482SOL    HW219989   3.457   4.028   2.688
 6483SOL     OW19990   2.087   3.999   4.720
 6483SOL    HW119991   2.122   3.982   4.812
 6483SOL    HW219992   1.999   3.954   4.708
 6484SOL     OW19993   1.881   4.092   4.371
 6484SOL    HW119994   1.799   4.135   4.410
 6484SOL    HW219995   1.853   4.019   4.308
 6485SOL     OW19996   3.617   4.331   3.955
 6485SOL    HW119997   3.605   4.318   3.856
 6485SOL    HW219998   3.587   4.250   4.004
 6486SOL     OW19999   2.300   4.116   5.223
 6486SOL    HW120000   2.382   4.060   5.232
 6486SOL    HW220001   2.219   4.058   5.227
 6487SOL     OW20002   3.456   3.838   5.204
 6487SOL    HW120003   3.438   3.905   5.132
 6487SOL    HW220004   3.453   3.884   5.293
 6488SOL     OW20005   2.671   3.728   4.226
 6488SOL    HW120006   2.711   3.819   4.217
 6488SOL    HW220007   2.571   3.736   4.232
 6489SOL     OW20008   3.143   4.069   4.668
 6489SOL    HW120009   3.057   4.019   4.655
 6489SOL    HW220010   3.205   4.015   4.724
 6490SOL     OW20011   2.412   3.920   4.609
 6490SOL    HW120012   2.407   3.915   4.709
 6490SOL    HW220013   2.414   4.016   4.580
 6491SOL     OW20014   2.064   4.009   5.222
 6491SOL    HW120015   1.984   4.069   5.209
 6491SOL    HW220016   2.054   3.960   5.308
 6492SOL     OW20017   3.262   3.831   4.150
 6492SOL    HW120018   3.238   3.794   4.060
 6492SOL    HW220019   3.361   3.847   4.154
 6493SOL     OW20020   3.409   3.946   5.453
 6493SOL    HW120021   3.404   3.983   5.545
 6493SOL    HW220022   3.337   3.877   5.441
 6494SOL     OW20023   2.476   3.846   3.841
 6494SOL    HW120024   2.574   3.824   3.848
 6494SOL    HW220025   2.445   3.829   3.748
 6495SOL     OW20026   2.643   3.988   5.473
 6495SOL    HW120027   2.710   3.927   5.516
 6495SOL    HW220028   2.570   4.007   5.538
 6496SOL     OW20029   2.401   3.788   4.236
 6496SOL    HW120030   2.320   3.789   4.294
 6496SOL    HW220031   2.404   3.871   4.181
 6497SOL     OW20032   2.159   3.759   3.895
 6497SOL    HW120033   2.208   3.843   3.874
 6497SOL    HW220034   2.221   3.694   3.940
 6498SOL     OW20035   2.423   3.946   4.871
 6498SOL    HW120036   2.461   3.862   4.908
 6498SOL    HW220037   2.335   3.965   4.915
 6499SOL     OW20038   2.879   3.763   4.477
 6499SOL    HW120039   2.807   3.768   4.408
 6499SOL    HW220040   2.855   3.694   4.546
 6500SOL     OW20041   2.777   3.813   5.126
 6500SOL    HW120042   2.802   3.793   5.031
 6500SOL    HW220043   2.849   3.869   5.168
 6501SOL     OW20044   3.136   4.110   4.986
 6501SOL    HW120045   3.157   4.184   5.050
 6501SOL    HW220046   3.047   4.127   4.943
 6502SOL     OW20047   2.366   3.774   5.464
 6502SOL    HW120048   2.324   3.717   5.394
 6502SOL    HW220049   2.300   3.843   5.496
 6503SOL     OW20050   2.169   3.937   4.955
 6503SOL    HW120051   2.146   3.974   5.045
 6503SOL    HW220052   2.139   3.842   4.949
 6504SOL     OW20053   3.402   3.998   3.849
 6504SOL    HW120054   3.341   3.923   3.872
 6504SOL    HW220055   3.424   4.050   3.932
 6505SOL     OW20056   3.022   3.931   5.201
 6505SOL    HW120057   3.022   3.995   5.278
 6505SOL    HW220058   3.050   3.979   5.118
 6506SOL     OW20059   2.765   3.810   3.857
 6506SOL    HW120060   2.816   3.811   3.771
 6506SOL    HW220061   2.821   3.768   3.928
 6507SOL     OW20062   3.588   3.859   4.247
 6507SOL    HW120063   3.661   3.842   4.180
 6507SOL    HW220064   3.557   3.772   4.285
 6508SOL     OW20065   3.703   3.899   4.687
 6508SOL    HW120066   3.742   3.814   4.651
 6508SOL    HW220067   3.605   3.901   4.668
 6509SOL     OW20068   2.534   3.927   5.213
 6509SOL    HW120069   2.624   3.911   5.173
 6509SOL    HW220070   2.542   3.932   5.312
 6510SOL     OW20071   1.937   4.069   3.757
 6510SOL    HW120072   1.845   4.041   3.728
 6510SOL    HW220073   1.968   4.146   3.701
 6511SOL     OW20074   1.934   3.890   4.042
 6511SOL    HW120075   1.917   3.973   3.988
 6511SOL    HW220076   2.024   3.853   4.020
 6512SOL     OW20077   3.087   4.049   4.173
 6512SOL    HW120078   3.152   3.975   4.162
 6512SOL    HW220079   3.107   4.099   4.257
 6513SOL     OW20080   3.639   4.066   5.366
 6513SOL    HW120081   3.622   4.097   5.272
 6513SOL    HW220082   3.555   4.029   5.404
 6514SOL     OW20083   3.686   3.916   4.951
 6514SOL    HW120084   3.682   3.826   4.995
 6514SOL    HW220085   3.689   3.905   4.852
 6515SOL     OW20086   3.286   3.938   4.836
 6515SOL    HW120087   3.338   3.873   4.891
 6515SOL    HW220088   3.237   4.001   4.897
 6516SOL     OW20089   2.863   3.758   4.878
 6516SOL    HW120090   2.800   3.686   4.847
 6516SOL    HW220091   2.956   3.722   4.878
 6517SOL     OW20092   3.214   3.776   3.892
 6517SOL    HW120093   3.249   3.735   3.808
 6517SOL    HW220094   3.124   3.738   3.912
 6518SOL     OW20095   3.162   4.177   4.415
 6518SOL    HW120096   3.103   4.257   4.419
 6518SOL    HW220097   3.177   4.142   4.508
 6519SOL     OW20098   3.455   3.945   4.606
 6519SOL    HW120099   3.371   3.944   4.660
 6519SOL    HW220100   3.457   4.028   4.550
 6520SOL     OW20101   2.087   3.999   6.582
 6520SOL    HW120102   2.122   3.982   6.674
 6520SOL    HW220103   1.999   3.954   6.570
 6521SOL     OW20104   1.881   4.092   6.233
 6521SOL    HW120105   1.799   4.135   6.272
 6521SOL    HW220106   1.853   4.019   6.170
 6522SOL     OW20107   3.617   4.331   5.817
 6522SOL    HW120108   3.605   4.318   5.718
 6522SOL    HW220109   3.587   4.250   5.866
 6523SOL     OW20110   2.300   4.116   7.085
 6523SOL    HW120111   2.382   4.060   7.094
 6523SOL    HW220112   2.219   4.058   7.089
 6524SOL     OW20113   3.456   3.838   7.066
 6524SOL    HW120114   3.438   3.905   6.994
 6524SOL    HW220115   3.453   3.884   7.155
 6525SOL     OW20116   2.671   3.728   6.088
 6525SOL    HW120117   2.711   3.819   6.079
 6525SOL    HW220118   2.571   3.736   6.094
 6526SOL     OW20119   3.143   4.069   6.530
 6526SOL    HW120120   3.057   4.019   6.517
 6526SOL    HW220121   3.205   4.015   6.586
 6527SOL     OW20122   2.412   3.920   6.471
 6527SOL    HW120123   2.407   3.915   6.571
 6527SOL    HW220124   2.414   4.016   6.442
 6528SOL     OW20125   2.064   4.009   7.084
 6528SOL    HW120126   1.984   4.069   7.071
 6528SOL    HW220127   2.054   3.960   7.170
 6529SOL     OW20128   3.262   3.831   6.012
 6529SOL    HW120129   3.238   3.794   5.922
 6529SOL    HW220130   3.361   3.847   6.016
 6530SOL     OW20131   3.409   3.946   7.315
 6530SOL    HW120132   3.404   3.983   7.407
 6530SOL    HW220133   3.337   3.877   7.303
 6531SOL     OW20134   2.476   3.846   5.703
 6531SOL    HW120135   2.574   3.824   5.710
 6531SOL    HW220136   2.445   3.829   5.610
 6532SOL     OW20137   2.643   3.988   7.335
 6532SOL    HW120138   2.710   3.927   7.378
 6532SOL    HW220139   2.570   4.007   7.400
 6533SOL     OW20140   2.401   3.788   6.098
 6533SOL    HW120141   2.320   3.789   6.156
 6533SOL    HW220142   2.404   3.871   6.043
 6534SOL     OW20143   2.159   3.759   5.757
 6534SOL    HW120144   2.208   3.843   5.736
 6534SOL    HW220145   2.221   3.694   5.802
 6535SOL     OW20146   2.423   3.946   6.733
 6535SOL    HW120147   2.461   3.862   6.770
 6535SOL    HW220148   2.335   3.965   6.777
 6536SOL     OW20149   2.879   3.763   6.339
 6536SOL    HW120150   2.807   3.768   6.270
 6536SOL    HW220151   2.855   3.694   6.408
 6537SOL     OW20152   2.777   3.813   6.988
 6537SOL    HW120153   2.802   3.793   6.893
 6537SOL    HW220154   2.849   3.869   7.030
 6538SOL     OW20155   3.136   4.110   6.848
 6538SOL    HW120156   3.157   4.184   6.912
 6538SOL    HW220157   3.047   4.127   6.805
 6539SOL     OW20158   2.366   3.774   7.326
 6539SOL    HW120159   2.324   3.717   7.256
 6539SOL    HW220160   2.300   3.843   7.358
 6540SOL     OW20161   2.169   3.937   6.817
 6540SOL    HW120162   2.146   3.974   6.907
 6540SOL    HW220163   2.139   3.842   6.811
 6541SOL     OW20164   3.402   3.998   5.711
 6541SOL    HW120165   3.341   3.923   5.734
 6541SOL    HW220166   3.424   4.050   5.794
 6542SOL     OW20167   3.022   3.931   7.063
 6542SOL    HW120168   3.022   3.995   7.140
 6542SOL    HW220169   3.050   3.979   6.980
 6543SOL     OW20170   2.765   3.810   5.719
 6543SOL    HW120171   2.816   3.811   5.633
 6543SOL    HW220172   2.821   3.768   5.790
 6544SOL     OW20173   3.588   3.859   6.109
 6544SOL    HW120174   3.661   3.842   6.042
 6544SOL    HW220175   3.557   3.772   6.147
 6545SOL     OW20176   3.703   3.899   6.549
 6545SOL    HW120177   3.742   3.814   6.513
 6545SOL    HW220178   3.605   3.901   6.530
 6546SOL     OW20179   2.534   3.927   7.075
 6546SOL    HW120180   2.624   3.911   7.035
 6546SOL    HW220181   2.542   3.932   7.174
 6547SOL     OW20182   1.937   4.069   5.619
 6547SOL    HW120183   1.845   4.041   5.590
 6547SOL    HW220184   1.968   4.146   5.563
 6548SOL     OW20185   1.934   3.890   5.904
 6548SOL    HW120186   1.917   3.973   5.850
 6548SOL    HW220187   2.024   3.853   5.882
 6549SOL     OW20188   3.087   4.049   6.035
 6549SOL    HW120189   3.152   3.975   6.024
 6549SOL    HW220190   3.107   4.099   6.119
 6550SOL     OW20191   3.639   4.066   7.228
 6550SOL    HW120192   3.622   4.097   7.134
 6550SOL    HW220193   3.555   4.029   7.266
 6551SOL     OW20194   3.686   3.916   6.813
 6551SOL    HW120195   3.682   3.826   6.857
 6551SOL    HW220196   3.689   3.905   6.714
 6552SOL     OW20197   3.286   3.938   6.698
 6552SOL    HW120198   3.338   3.873   6.753
 6552SOL    HW220199   3.237   4.001   6.759
 6553SOL     OW20200   2.863   3.758   6.740
 6553SOL    HW120201   2.800   3.686   6.709
 6553SOL    HW220202   2.956   3.722   6.740
 6554SOL     OW20203   3.214   3.776   5.754
 6554SOL    HW120204   3.249   3.735   5.670
 6554SOL    HW220205   3.124   3.738   5.774
 6555SOL     OW20206   3.162   4.177   6.277
 6555SOL    HW120207   3.103   4.257   6.281
 6555SOL    HW220208   3.177   4.142   6.370
 6556SOL     OW20209   3.455   3.945   6.468
 6556SOL    HW120210   3.371   3.944   6.522
 6556SOL    HW220211   3.457   4.028   6.412
 6557SOL     OW20212   2.087   3.999   8.444
 6557SOL    HW120213   2.122   3.982   8.536
 6557SOL    HW220214   1.999   3.954   8.432
 6558SOL     OW20215   1.881   4.092   8.095
 6558SOL    HW120216   1.799   4.135   8.134
 6558SOL    HW220217   1.853   4.019   8.032
 6559SOL     OW20218   3.617   4.331   7.679
 6559SOL    HW120219   3.605   4.318   7.580
 6559SOL    HW220220   3.587   4.250   7.728
 6560SOL     OW20221   2.300   4.116   8.947
 6560SOL    HW120222   2.382   4.060   8.956
 6560SOL    HW220223   2.219   4.058   8.951
 6561SOL     OW20224   3.456   3.838   8.928
 6561SOL    HW120225   3.438   3.905   8.856
 6561SOL    HW220226   3.453   3.884   9.017
 6562SOL     OW20227   2.671   3.728   7.950
 6562SOL    HW120228   2.711   3.819   7.941
 6562SOL    HW220229   2.571   3.736   7.956
 6563SOL     OW20230   3.143   4.069   8.392
 6563SOL    HW120231   3.057   4.019   8.379
 6563SOL    HW220232   3.205   4.015   8.448
 6564SOL     OW20233   2.412   3.920   8.333
 6564SOL    HW120234   2.407   3.915   8.433
 6564SOL    HW220235   2.414   4.016   8.304
 6565SOL     OW20236   2.064   4.009   8.946
 6565SOL    HW120237   1.984   4.069   8.933
 6565SOL    HW220238   2.054   3.960   9.032
 6566SOL     OW20239   3.262   3.831   7.874
 6566SOL    HW120240   3.238   3.794   7.784
 6566SOL    HW220241   3.361   3.847   7.878
 6567SOL     OW20242   3.409   3.946   9.177
 6567SOL    HW120243   3.404   3.983   9.269
 6567SOL    HW220244   3.337   3.877   9.165
 6568SOL     OW20245   2.476   3.846   7.565
 6568SOL    HW120246   2.574   3.824   7.572
 6568SOL    HW220247   2.445   3.829   7.472
 6569SOL     OW20248   2.643   3.988   9.197
 6569SOL    HW120249   2.710   3.927   9.240
 6569SOL    HW220250   2.570   4.007   9.262
 6570SOL     OW20251   2.401   3.788   7.960
 6570SOL    HW120252   2.320   3.789   8.018
 6570SOL    HW220253   2.404   3.871   7.905
 6571SOL     OW20254   2.159   3.759   7.619
 6571SOL    HW120255   2.208   3.843   7.598
 6571SOL    HW220256   2.221   3.694   7.664
 6572SOL     OW20257   2.423   3.946   8.595
 6572SOL    HW120258   2.461   3.862   8.632
 6572SOL    HW220259   2.335   3.965   8.639
 6573SOL     OW20260   2.879   3.763   8.201
 6573SOL    HW120261   2.807   3.768   8.132
 6573SOL    HW220262   2.855   3.694   8.270
 6574SOL     OW20263   2.777   3.813   8.850
 6574SOL    HW120264   2.802   3.793   8.755
 6574SOL    HW220265   2.849   3.869   8.892
 6575SOL     OW20266   3.136   4.110   8.710
 6575SOL    HW120267   3.157   4.184   8.774
 6575SOL    HW220268   3.047   4.127   8.667
 6576SOL     OW20269   2.366   3.774   9.188
 6576SOL    HW120270   2.324   3.717   9.118
 6576SOL    HW220271   2.300   3.843   9.220
 6577SOL     OW20272   2.169   3.937   8.679
 6577SOL    HW120273   2.146   3.974   8.769
 6577SOL    HW220274   2.139   3.842   8.673
 6578SOL     OW20275   3.402   3.998   7.573
 6578SOL    HW120276   3.341   3.923   7.596
 6578SOL    HW220277   3.424   4.050   7.656
 6579SOL     OW20278   3.022   3.931   8.925
 6579SOL    HW120279   3.022   3.995   9.002
 6579SOL    HW220280   3.050   3.979   8.842
 6580SOL     OW20281   2.765   3.810   7.581
 6580SOL    HW120282   2.816   3.811   7.495
 6580SOL    HW220283   2.821   3.768   7.652
 6581SOL     OW20284   3.588   3.859   7.971
 6581SOL    HW120285   3.661   3.842   7.904
 6581SOL    HW220286   3.557   3.772   8.009
 6582SOL     OW20287   3.703   3.899   8.411
 6582SOL    HW120288   3.742   3.814   8.375
 6582SOL    HW220289   3.605   3.901   8.392
 6583SOL     OW20290   2.534   3.927   8.937
 6583SOL    HW120291   2.624   3.911   8.897
 6583SOL    HW220292   2.542   3.932   9.036
 6584SOL     OW20293   1.937   4.069   7.481
 6584SOL    HW120294   1.845   4.041   7.452
 6584SOL    HW220295   1.968   4.146   7.425
 6585SOL     OW20296   1.934   3.890   7.766
 6585SOL    HW120297   1.917   3.973   7.712
 6585SOL    HW220298   2.024   3.853   7.744
 6586SOL     OW20299   3.087   4.049   7.897
 6586SOL    HW120300   3.152   3.975   7.886
 6586SOL    HW220301   3.107   4.099   7.981
 6587SOL     OW20302   3.639   4.066   9.090
 6587SOL    HW120303   3.622   4.097   8.996
 6587SOL    HW220304   3.555   4.029   9.128
 6588SOL     OW20305   3.686   3.916   8.675
 6588SOL    HW120306   3.682   3.826   8.719
 6588SOL    HW220307   3.689   3.905   8.576
 6589SOL     OW20308   3.286   3.938   8.560
 6589SOL    HW120309   3.338   3.873   8.615
 6589SOL    HW220310   3.237   4.001   8.621
 6590SOL     OW20311   2.863   3.758   8.602
 6590SOL    HW120312   2.800   3.686   8.571
 6590SOL    HW220313   2.956   3.722   8.602
 6591SOL     OW20314   3.214   3.776   7.616
 6591SOL    HW120315   3.249   3.735   7.532
 6591SOL    HW220316   3.124   3.738   7.636
 6592SOL     OW20317   3.162   4.177   8.139
 6592SOL    HW120318   3.103   4.257   8.143
 6592SOL    HW220319   3.177   4.142   8.232
 6593SOL     OW20320   3.455   3.945   8.330
 6593SOL    HW120321   3.371   3.944   8.384
 6593SOL    HW220322   3.457   4.028   8.274
 6594SOL     OW20323   2.087   3.999  10.306
 6594SOL    HW120324   2.122   3.982  10.398
 6594SOL    HW220325   1.999   3.954  10.294
 6595SOL     OW20326   1.881   4.092   9.957
 6595SOL    HW120327   1.799   4.135   9.996
 6595SOL    HW220328   1.853   4.019   9.894
 6596SOL     OW20329   3.617   4.331   9.541
 6596SOL    HW120330   3.605   4.318   9.442
 6596SOL    HW220331   3.587   4.250   9.590
 6597SOL     OW20332   2.300   4.116  10.809
 6597SOL    HW120333   2.382   4.060  10.818
 6597SOL    HW220334   2.219   4.058  10.813
 6598SOL     OW20335   3.456   3.838  10.790
 6598SOL    HW120336   3.438   3.905  10.718
 6598SOL    HW220337   3.453   3.884  10.879
 6599SOL     OW20338   2.671   3.728   9.812
 6599SOL    HW120339   2.711   3.819   9.803
 6599SOL    HW220340   2.571   3.736   9.818
 6600SOL     OW20341   3.143   4.069  10.254
 6600SOL    HW120342   3.057   4.019  10.241
 6600SOL    HW220343   3.205   4.015  10.310
 6601SOL     OW20344   2.412   3.920  10.195
 6601SOL    HW120345   2.407   3.915  10.295
 6601SOL    HW220346   2.414   4.016  10.166
 6602SOL     OW20347   2.064   4.009  10.808
 6602SOL    HW120348   1.984   4.069  10.795
 6602SOL    HW220349   2.054   3.960  10.894
 6603SOL     OW20350   3.262   3.831   9.736
 6603SOL    HW120351   3.238   3.794   9.646
 6603SOL    HW220352   3.361   3.847   9.740
 6604SOL     OW20353   3.409   3.946  11.039
 6604SOL    HW120354   3.404   3.983  11.131
 6604SOL    HW220355   3.337   3.877  11.027
 6605SOL     OW20356   2.476   3.846   9.427
 6605SOL    HW120357   2.574   3.824   9.434
 6605SOL    HW220358   2.445   3.829   9.334
 6606SOL     OW20359   2.643   3.988  11.059
 6606SOL    HW120360   2.710   3.927  11.102
 6606SOL    HW220361   2.570   4.007  11.124
 6607SOL     OW20362   2.401   3.788   9.822
 6607SOL    HW120363   2.320   3.789   9.880
 6607SOL    HW220364   2.404   3.871   9.767
 6608SOL     OW20365   2.159   3.759   9.481
 6608SOL    HW120366   2.208   3.843   9.460
 6608SOL    HW220367   2.221   3.694   9.526
 6609SOL     OW20368   2.423   3.946  10.457
 6609SOL    HW120369   2.461   3.862  10.494
 6609SOL    HW220370   2.335   3.965  10.501
 6610SOL     OW20371   2.879   3.763  10.063
 6610SOL    HW120372   2.807   3.768   9.994
 6610SOL    HW220373   2.855   3.694  10.132
 6611SOL     OW20374   2.777   3.813  10.712
 6611SOL    HW120375   2.802   3.793  10.617
 6611SOL    HW220376   2.849   3.869  10.754
 6612SOL     OW20377   3.136   4.110  10.572
 6612SOL    HW120378   3.157   4.184  10.636
 6612SOL    HW220379   3.047   4.127  10.529
 6613SOL     OW20380   2.366   3.774  11.050
 6613SOL    HW120381   2.324   3.717  10.980
 6613SOL    HW220382   2.300   3.843  11.082
 6614SOL     OW20383   2.169   3.937  10.541
 6614SOL    HW120384   2.146   3.974  10.631
 6614SOL    HW220385   2.139   3.842  10.535
 6615SOL     OW20386   3.402   3.998   9.435
 6615SOL    HW120387   3.341   3.923   9.458
 6615SOL    HW220388   3.424   4.050   9.518
 6616SOL     OW20389   3.022   3.931  10.787
 6616SOL    HW120390   3.022   3.995  10.864
 6616SOL    HW220391   3.050   3.979  10.704
 6617SOL     OW20392   2.765   3.810   9.443
 6617SOL    HW120393   2.816   3.811   9.357
 6617SOL    HW220394   2.821   3.768   9.514
 6618SOL     OW20395   3.588   3.859   9.833
 6618SOL    HW120396   3.661   3.842   9.766
 6618SOL    HW220397   3.557   3.772   9.871
 6619SOL     OW20398   3.703   3.899  10.273
 6619SOL    HW120399   3.742   3.814  10.237
 6619SOL    HW220400   3.605   3.901  10.254
 6620SOL     OW20401   2.534   3.927  10.799
 6620SOL    HW120402   2.624   3.911  10.759
 6620SOL    HW220403   2.542   3.932  10.898
 6621SOL     OW20404   1.937   4.069   9.343
 6621SOL    HW120405   1.845   4.041   9.314
 6621SOL    HW220406   1.968   4.146   9.287
 6622SOL     OW20407   1.934   3.890   9.628
 6622SOL    HW120408   1.917   3.973   9.574
 6622SOL    HW220409   2.024   3.853   9.606
 6623SOL     OW20410   3.087   4.049   9.759
 6623SOL    HW120411   3.152   3.975   9.748
 6623SOL    HW220412   3.107   4.099   9.843
 6624SOL     OW20413   3.639   4.066  10.952
 6624SOL    HW120414   3.622   4.097  10.858
 6624SOL    HW220415   3.555   4.029  10.990
 6625SOL     OW20416   3.686   3.916  10.537
 6625SOL    HW120417   3.682   3.826  10.581
 6625SOL    HW220418   3.689   3.905  10.438
 6626SOL     OW20419   3.286   3.938  10.422
 6626SOL    HW120420   3.338   3.873  10.477
 6626SOL    HW220421   3.237   4.001  10.483
 6627SOL     OW20422   2.863   3.758  10.464
 6627SOL    HW120423   2.800   3.686  10.433
 6627SOL    HW220424   2.956   3.722  10.464
 6628SOL     OW20425   3.214   3.776   9.478
 6628SOL    HW120426   3.249   3.735   9.394
 6628SOL    HW220427   3.124   3.738   9.498
 6629SOL     OW20428   3.162   4.177  10.001
 6629SOL    HW120429   3.103   4.257  10.005
 6629SOL    HW220430   3.177   4.142  10.094
 6630SOL     OW20431   3.455   3.945  10.192
 6630SOL    HW120432   3.371   3.944  10.246
 6630SOL    HW220433   3.457   4.028  10.136
 6631SOL     OW20434   2.087   3.999  12.168
 6631SOL    HW120435   2.122   3.982  12.260
 6631SOL    HW220436   1.999   3.954  12.156
 6632SOL     OW20437   1.881   4.092  11.819
 6632SOL    HW120438   1.799   4.135  11.858
 6632SOL    HW220439   1.853   4.019  11.756
 6633SOL     OW20440   3.617   4.331  11.403
 6633SOL    HW120441   3.605   4.318  11.304
 6633SOL    HW220442   3.587   4.250  11.452
 6634SOL     OW20443   2.300   4.116  12.671
 6634SOL    HW120444   2.382   4.060  12.680
 6634SOL    HW220445   2.219   4.058  12.675
 6635SOL     OW20446   3.456   3.838  12.652
 6635SOL    HW120447   3.438   3.905  12.580
 6635SOL    HW220448   3.453   3.884  12.741
 6636SOL     OW20449   2.671   3.728  11.674
 6636SOL    HW120450   2.711   3.819  11.665
 6636SOL    HW220451   2.571   3.736  11.680
 6637SOL     OW20452   3.143   4.069  12.116
 6637SOL    HW120453   3.057   4.019  12.103
 6637SOL    HW220454   3.205   4.015  12.172
 6638SOL     OW20455   2.412   3.920  12.057
 6638SOL    HW120456   2.407   3.915  12.157
 6638SOL    HW220457   2.414   4.016  12.028
 6639SOL     OW20458   2.064   4.009  12.670
 6639SOL    HW120459   1.984   4.069  12.657
 6639SOL    HW220460   2.054   3.960  12.756
 6640SOL     OW20461   3.262   3.831  11.598
 6640SOL    HW120462   3.238   3.794  11.508
 6640SOL    HW220463   3.361   3.847  11.602
 6641SOL     OW20464   3.409   3.946  12.901
 6641SOL    HW120465   3.404   3.983  12.993
 6641SOL    HW220466   3.337   3.877  12.889
 6642SOL     OW20467   2.476   3.846  11.289
 6642SOL    HW120468   2.574   3.824  11.296
 6642SOL    HW220469   2.445   3.829  11.196
 6643SOL     OW20470   2.643   3.988  12.921
 6643SOL    HW120471   2.710   3.927  12.964
 6643SOL    HW220472   2.570   4.007  12.986
 6644SOL     OW20473   2.401   3.788  11.684
 6644SOL    HW120474   2.320   3.789  11.742
 6644SOL    HW220475   2.404   3.871  11.629
 6645SOL     OW20476   2.159   3.759  11.343
 6645SOL    HW120477   2.208   3.843  11.322
 6645SOL    HW220478   2.221   3.694  11.388
 6646SOL     OW20479   2.423   3.946  12.319
 6646SOL    HW120480   2.461   3.862  12.356
 6646SOL    HW220481   2.335   3.965  12.363
 6647SOL     OW20482   2.879   3.763  11.925
 6647SOL    HW120483   2.807   3.768  11.856
 6647SOL    HW220484   2.855   3.694  11.994
 6648SOL     OW20485   2.777   3.813  12.574
 6648SOL    HW120486   2.802   3.793  12.479
 6648SOL    HW220487   2.849   3.869  12.616
 6649SOL     OW20488   3.136   4.110  12.434
 6649SOL    HW120489   3.157   4.184  12.498
 6649SOL    HW220490   3.047   4.127  12.391
 6650SOL     OW20491   2.366   3.774  12.912
 6650SOL    HW120492   2.324   3.717  12.842
 6650SOL    HW220493   2.300   3.843  12.944
 6651SOL     OW20494   2.169   3.937  12.403
 6651SOL    HW120495   2.146   3.974  12.493
 6651SOL    HW220496   2.139   3.842  12.397
 6652SOL     OW20497   3.402   3.998  11.297
 6652SOL    HW120498   3.341   3.923  11.320
 6652SOL    HW220499   3.424   4.050  11.380
 6653SOL     OW20500   3.022   3.931  12.649
 6653SOL    HW120501   3.022   3.995  12.726
 6653SOL    HW220502   3.050   3.979  12.566
 6654SOL     OW20503   2.765   3.810  11.305
 6654SOL    HW120504   2.816   3.811  11.219
 6654SOL    HW220505   2.821   3.768  11.376
 6655SOL     OW20506   3.588   3.859  11.695
 6655SOL    HW120507   3.661   3.842  11.628
 6655SOL    HW220508   3.557   3.772  11.733
 6656SOL     OW20509   3.703   3.899  12.135
 6656SOL    HW120510   3.742   3.814  12.099
 6656SOL    HW220511   3.605   3.901  12.116
 6657SOL     OW20512   2.534   3.927  12.661
 6657SOL    HW120513   2.624   3.911  12.621
 6657SOL    HW220514   2.542   3.932  12.760
 6658SOL     OW20515   1.937   4.069  11.205
 6658SOL    HW120516   1.845   4.041  11.176
 6658SOL    HW220517   1.968   4.146  11.149
 6659SOL     OW20518   1.934   3.890  11.490
 6659SOL    HW120519   1.917   3.973  11.436
 6659SOL    HW220520   2.024   3.853  11.468
 6660SOL     OW20521   3.087   4.049  11.621
 6660SOL    HW120522   3.152   3.975  11.610
 6660SOL    HW220523   3.107   4.099  11.705
 6661SOL     OW20524   3.639   4.066  12.814
 6661SOL    HW120525   3.622   4.097  12.720
 6661SOL    HW220526   3.555   4.029  12.852
 6662SOL     OW20527   3.686   3.916  12.399
 6662SOL    HW120528   3.682   3.826  12.443
 6662SOL    HW220529   3.689   3.905  12.300
 6663SOL     OW20530   3.286   3.938  12.284
 6663SOL    HW120531   3.338   3.873  12.339
 6663SOL    HW220532   3.237   4.001  12.345
 6664SOL     OW20533   2.863   3.758  12.326
 6664SOL    HW120534   2.800   3.686  12.295
 6664SOL    HW220535   2.956   3.722  12.326
 6665SOL     OW20536   3.214   3.776  11.340
 6665SOL    HW120537   3.249   3.735  11.256
 6665SOL    HW220538   3.124   3.738  11.360
 6666SOL     OW20539   3.162   4.177  11.863
 6666SOL    HW120540   3.103   4.257  11.867
 6666SOL    HW220541   3.177   4.142  11.956
 6667SOL     OW20542   3.455   3.945  12.054
 6667SOL    HW120543   3.371   3.944  12.108
 6667SOL    HW220544   3.457   4.028  11.998
 6668SOL     OW20545   1.881   4.092  13.681
 6668SOL    HW120546   1.799   4.135  13.720
 6668SOL    HW220547   1.853   4.019  13.618
 6669SOL     OW20548   3.617   4.331  13.265
 6669SOL    HW120549   3.605   4.318  13.166
 6669SOL    HW220550   3.587   4.250  13.314
 6670SOL     OW20551   3.465   4.171  13.771
 6670SOL    HW120552   3.391   4.217  13.721
 6670SOL    HW220553   3.516   4.239  13.824
 6671SOL     OW20554   2.671   3.728  13.536
 6671SOL    HW120555   2.711   3.819  13.527
 6671SOL    HW220556   2.571   3.736  13.542
 6672SOL     OW20557   3.262   3.831  13.460
 6672SOL    HW120558   3.238   3.794  13.370
 6672SOL    HW220559   3.361   3.847  13.464
 6673SOL     OW20560   2.476   3.846  13.151
 6673SOL    HW120561   2.574   3.824  13.158
 6673SOL    HW220562   2.445   3.829  13.058
 6674SOL     OW20563   2.401   3.788  13.546
 6674SOL    HW120564   2.320   3.789  13.604
 6674SOL    HW220565   2.404   3.871  13.491
 6675SOL     OW20566   2.159   3.759  13.205
 6675SOL    HW120567   2.208   3.843  13.184
 6675SOL    HW220568   2.221   3.694  13.250
 6676SOL     OW20569   2.879   3.763  13.787
 6676SOL    HW120570   2.807   3.768  13.718
 6676SOL    HW220571   2.855   3.694  13.856
 6677SOL     OW20572   3.402   3.998  13.159
 6677SOL    HW120573   3.341   3.923  13.182
 6677SOL    HW220574   3.424   4.050  13.242
 6678SOL     OW20575   2.765   3.810  13.167
 6678SOL    HW120576   2.816   3.811  13.081
 6678SOL    HW220577   2.821   3.768  13.238
 6679SOL     OW20578   3.588   3.859  13.557
 6679SOL    HW120579   3.661   3.842  13.490
 6679SOL    HW220580   3.557   3.772  13.595
 6680SOL     OW20581   3.703   3.899  13.997
 6680SOL    HW120582   3.742   3.814  13.961
 6680SOL    HW220583   3.605   3.901  13.978
 6681SOL     OW20584   1.937   4.069  13.067
 6681SOL    HW120585   1.845   4.041  13.038
 6681SOL    HW220586   1.968   4.146  13.011
 6682SOL     OW20587   1.934   3.890  13.352
 6682SOL    HW120588   1.917   3.973  13.298
 6682SOL    HW220589   2.024   3.853  13.330
 6683SOL     OW20590   3.087   4.049  13.483
 6683SOL    HW120591   3.152   3.975  13.472
 6683SOL    HW220592   3.107   4.099  13.567
 6684SOL     OW20593   3.214   3.776  13.202
 6684SOL    HW120594   3.249   3.735  13.118
 6684SOL    HW220595   3.124   3.738  13.222
 6685SOL     OW20596   3.162   4.177  13.725
 6685SOL    HW120597   3.103   4.257  13.729
 6685SOL    HW220598   3.177   4.142  13.818
 6686SOL     OW20599   3.954   0.628   0.113
 6686SOL    HW120600   3.861   0.626   0.150
 6686SOL    HW220601   3.955   0.589   0.021
 6687SOL     OW20602   3.949   0.275   0.996
 6687SOL    HW120603   3.984   0.258   1.088
 6687SOL    HW220604   3.861   0.230   0.984
 6688SOL     OW20605   3.743   0.368   0.647
 6688SOL    HW120606   3.661   0.411   0.686
 6688SOL    HW220607   3.715   0.295   0.584
 6689SOL     OW20608   4.059   1.435   1.061
 6689SOL    HW120609   3.981   1.404   1.008
 6689SOL    HW220610   4.117   1.493   1.004
 6690SOL     OW20611   3.955   1.713   0.483
 6690SOL    HW120612   3.989   1.790   0.537
 6690SOL    HW220613   3.999   1.713   0.393
 6691SOL     OW20614   3.954   1.434   0.538
 6691SOL    HW120615   3.928   1.530   0.538
 6691SOL    HW220616   3.883   1.380   0.583
 6692SOL     OW20617   3.846   0.643   0.563
 6692SOL    HW120618   3.801   0.555   0.580
 6692SOL    HW220619   3.845   0.697   0.647
 6693SOL     OW20620   3.751   1.596   0.117
 6693SOL    HW120621   3.732   1.500   0.138
 6693SOL    HW220622   3.718   1.654   0.192
 6694SOL     OW20623   3.837   0.737   1.597
 6694SOL    HW120624   3.925   0.724   1.642
 6694SOL    HW220625   3.824   0.834   1.575
 6695SOL     OW20626   3.800   0.811   0.789
 6695SOL    HW120627   3.899   0.799   0.798
 6695SOL    HW220628   3.776   0.906   0.810
 6696SOL     OW20629   3.854   1.821   1.571
 6696SOL    HW120630   3.844   1.806   1.670
 6696SOL    HW220631   3.768   1.857   1.535
 6697SOL     OW20632   3.926   0.285   1.498
 6697SOL    HW120633   3.846   0.345   1.485
 6697SOL    HW220634   3.916   0.236   1.584
 6698SOL     OW20635   3.802   0.556   1.386
 6698SOL    HW120636   3.894   0.555   1.345
 6698SOL    HW220637   3.796   0.630   1.453
 6699SOL     OW20638   3.788   1.564   1.331
 6699SOL    HW120639   3.742   1.646   1.297
 6699SOL    HW220640   3.886   1.583   1.340
 6700SOL     OW20641   4.091   1.100   0.501
 6700SOL    HW120642   4.084   1.183   0.445
 6700SOL    HW220643   4.095   1.020   0.441
 6701SOL     OW20644   4.031   0.213   1.231
 6701SOL    HW120645   4.008   0.250   1.321
 6701SOL    HW220646   4.001   0.118   1.225
 6702SOL     OW20647   3.761   1.310   1.282
 6702SOL    HW120648   3.814   1.261   1.350
 6702SOL    HW220649   3.783   1.408   1.287
 6703SOL     OW20650   3.732   1.326   0.200
 6703SOL    HW120651   3.639   1.347   0.169
 6703SOL    HW220652   3.742   1.227   0.213
 6704SOL     OW20653   3.812   1.801   0.927
 6704SOL    HW120654   3.770   1.715   0.900
 6704SOL    HW220655   3.906   1.804   0.893
 6705SOL     OW20656   4.228   1.568   0.910
 6705SOL    HW120657   4.294   1.642   0.919
 6705SOL    HW220658   4.272   1.489   0.868
 6706SOL     OW20659   3.764   0.544   1.114
 6706SOL    HW120660   3.849   0.511   1.073
 6706SOL    HW220661   3.777   0.559   1.212
 6707SOL     OW20662   3.913   0.520   1.722
 6707SOL    HW120663   3.972   0.480   1.652
 6707SOL    HW220664   3.855   0.591   1.681
 6708SOL     OW20665   3.976   1.564   1.744
 6708SOL    HW120666   3.946   1.621   1.820
 6708SOL    HW220667   3.969   1.467   1.770
 6709SOL     OW20668   3.883   1.137   1.466
 6709SOL    HW120669   3.905   1.076   1.542
 6709SOL    HW220670   3.893   1.088   1.380
 6710SOL     OW20671   3.807   1.258   1.022
 6710SOL    HW120672   3.802   1.257   1.122
 6710SOL    HW220673   3.724   1.217   0.984
 6711SOL     OW20674   3.854   1.794   1.851
 6711SOL    HW120675   3.813   1.720   1.904
 6711SOL    HW220676   3.918   1.845   1.909
 6712SOL     OW20677   3.799   0.345   0.033
 6712SOL    HW120678   3.707   0.317   0.004
 6712SOL    HW220679   3.830   0.422  -0.023
 6713SOL     OW20680   3.796   0.166   0.318
 6713SOL    HW120681   3.779   0.249   0.264
 6713SOL    HW220682   3.886   0.129   0.296
 6714SOL     OW20683   3.803   1.240   0.653
 6714SOL    HW120684   3.802   1.193   0.741
 6714SOL    HW220685   3.885   1.212   0.602
 6715SOL     OW20686   3.763   1.077   0.300
 6715SOL    HW120687   3.862   1.066   0.291
 6715SOL    HW220688   3.723   0.991   0.332
 6716SOL     OW20689   3.954   0.628   1.975
 6716SOL    HW120690   3.861   0.626   2.012
 6716SOL    HW220691   3.955   0.589   1.883
 6717SOL     OW20692   3.949   0.275   2.858
 6717SOL    HW120693   3.984   0.258   2.950
 6717SOL    HW220694   3.861   0.230   2.846
 6718SOL     OW20695   3.743   0.368   2.509
 6718SOL    HW120696   3.661   0.411   2.548
 6718SOL    HW220697   3.715   0.295   2.446
 6719SOL     OW20698   4.059   1.435   2.923
 6719SOL    HW120699   3.981   1.404   2.870
 6719SOL    HW220700   4.117   1.493   2.866
 6720SOL     OW20701   3.955   1.713   2.345
 6720SOL    HW120702   3.989   1.790   2.399
 6720SOL    HW220703   3.999   1.713   2.255
 6721SOL     OW20704   3.954   1.434   2.400
 6721SOL    HW120705   3.928   1.530   2.400
 6721SOL    HW220706   3.883   1.380   2.445
 6722SOL     OW20707   3.846   0.643   2.425
 6722SOL    HW120708   3.801   0.555   2.442
 6722SOL    HW220709   3.845   0.697   2.509
 6723SOL     OW20710   3.751   1.596   1.979
 6723SOL    HW120711   3.732   1.500   2.000
 6723SOL    HW220712   3.718   1.654   2.054
 6724SOL     OW20713   3.837   0.737   3.459
 6724SOL    HW120714   3.925   0.724   3.504
 6724SOL    HW220715   3.824   0.834   3.437
 6725SOL     OW20716   3.800   0.811   2.651
 6725SOL    HW120717   3.899   0.799   2.660
 6725SOL    HW220718   3.776   0.906   2.672
 6726SOL     OW20719   3.854   1.821   3.433
 6726SOL    HW120720   3.844   1.806   3.532
 6726SOL    HW220721   3.768   1.857   3.397
 6727SOL     OW20722   3.926   0.285   3.360
 6727SOL    HW120723   3.846   0.345   3.347
 6727SOL    HW220724   3.916   0.236   3.446
 6728SOL     OW20725   3.802   0.556   3.248
 6728SOL    HW120726   3.894   0.555   3.207
 6728SOL    HW220727   3.796   0.630   3.315
 6729SOL     OW20728   4.251   0.256   2.190
 6729SOL    HW120729   4.278   0.197   2.115
 6729SOL    HW220730   4.251   0.351   2.159
 6730SOL     OW20731   3.788   1.564   3.193
 6730SOL    HW120732   3.742   1.646   3.159
 6730SOL    HW220733   3.886   1.583   3.202
 6731SOL     OW20734   4.091   1.100   2.363
 6731SOL    HW120735   4.084   1.183   2.307
 6731SOL    HW220736   4.095   1.020   2.303
 6732SOL     OW20737   4.031   0.213   3.093
 6732SOL    HW120738   4.008   0.250   3.183
 6732SOL    HW220739   4.001   0.118   3.087
 6733SOL     OW20740   3.761   1.310   3.144
 6733SOL    HW120741   3.814   1.261   3.212
 6733SOL    HW220742   3.783   1.408   3.149
 6734SOL     OW20743   3.732   1.326   2.062
 6734SOL    HW120744   3.639   1.347   2.031
 6734SOL    HW220745   3.742   1.227   2.075
 6735SOL     OW20746   3.812   1.801   2.789
 6735SOL    HW120747   3.770   1.715   2.762
 6735SOL    HW220748   3.906   1.804   2.755
 6736SOL     OW20749   4.228   1.568   2.772
 6736SOL    HW120750   4.294   1.642   2.781
 6736SOL    HW220751   4.272   1.489   2.730
 6737SOL     OW20752   3.764   0.544   2.976
 6737SOL    HW120753   3.849   0.511   2.935
 6737SOL    HW220754   3.777   0.559   3.074
 6738SOL     OW20755   3.913   0.520   3.584
 6738SOL    HW120756   3.972   0.480   3.514
 6738SOL    HW220757   3.855   0.591   3.543
 6739SOL     OW20758   3.976   1.564   3.606
 6739SOL    HW120759   3.946   1.621   3.682
 6739SOL    HW220760   3.969   1.467   3.632
 6740SOL     OW20761   3.883   1.137   3.328
 6740SOL    HW120762   3.905   1.076   3.404
 6740SOL    HW220763   3.893   1.088   3.242
 6741SOL     OW20764   3.807   1.258   2.884
 6741SOL    HW120765   3.802   1.257   2.984
 6741SOL    HW220766   3.724   1.217   2.846
 6742SOL     OW20767   3.854   1.794   3.713
 6742SOL    HW120768   3.813   1.720   3.766
 6742SOL    HW220769   3.918   1.845   3.771
 6743SOL     OW20770   3.799   0.345   1.895
 6743SOL    HW120771   3.707   0.317   1.866
 6743SOL    HW220772   3.830   0.422   1.839
 6744SOL     OW20773   3.796   0.166   2.180
 6744SOL    HW120774   3.779   0.249   2.126
 6744SOL    HW220775   3.886   0.129   2.158
 6745SOL     OW20776   3.803   1.240   2.515
 6745SOL    HW120777   3.802   1.193   2.603
 6745SOL    HW220778   3.885   1.212   2.464
 6746SOL     OW20779   3.763   1.077   2.162
 6746SOL    HW120780   3.862   1.066   2.153
 6746SOL    HW220781   3.723   0.991   2.194
 6747SOL     OW20782   3.954   0.628   3.837
 6747SOL    HW120783   3.861   0.626   3.874
 6747SOL    HW220784   3.955   0.589   3.745
 6748SOL     OW20785   3.949   0.275   4.720
 6748SOL    HW120786   3.984   0.258   4.812
 6748SOL    HW220787   3.861   0.230   4.708
 6749SOL     OW20788   3.743   0.368   4.371
 6749SOL    HW120789   3.661   0.411   4.410
 6749SOL    HW220790   3.715   0.295   4.308
 6750SOL     OW20791   4.059   1.435   4.785
 6750SOL    HW120792   3.981   1.404   4.732
 6750SOL    HW220793   4.117   1.493   4.728
 6751SOL     OW20794   3.955   1.713   4.207
 6751SOL    HW120795   3.989   1.790   4.261
 6751SOL    HW220796   3.999   1.713   4.117
 6752SOL     OW20797   3.954   1.434   4.262
 6752SOL    HW120798   3.928   1.530   4.262
 6752SOL    HW220799   3.883   1.380   4.307
 6753SOL     OW20800   3.846   0.643   4.287
 6753SOL    HW120801   3.801   0.555   4.304
 6753SOL    HW220802   3.845   0.697   4.371
 6754SOL     OW20803   3.751   1.596   3.841
 6754SOL    HW120804   3.732   1.500   3.862
 6754SOL    HW220805   3.718   1.654   3.916
 6755SOL     OW20806   3.837   0.737   5.321
 6755SOL    HW120807   3.925   0.724   5.366
 6755SOL    HW220808   3.824   0.834   5.299
 6756SOL     OW20809   3.800   0.811   4.513
 6756SOL    HW120810   3.899   0.799   4.522
 6756SOL    HW220811   3.776   0.906   4.534
 6757SOL     OW20812   3.854   1.821   5.295
 6757SOL    HW120813   3.844   1.806   5.394
 6757SOL    HW220814   3.768   1.857   5.259
 6758SOL     OW20815   3.926   0.285   5.222
 6758SOL    HW120816   3.846   0.345   5.209
 6758SOL    HW220817   3.916   0.236   5.308
 6759SOL     OW20818   3.802   0.556   5.110
 6759SOL    HW120819   3.894   0.555   5.069
 6759SOL    HW220820   3.796   0.630   5.177
 6760SOL     OW20821   4.251   0.256   4.052
 6760SOL    HW120822   4.278   0.197   3.977
 6760SOL    HW220823   4.251   0.351   4.021
 6761SOL     OW20824   3.788   1.564   5.055
 6761SOL    HW120825   3.742   1.646   5.021
 6761SOL    HW220826   3.886   1.583   5.064
 6762SOL     OW20827   4.091   1.100   4.225
 6762SOL    HW120828   4.084   1.183   4.169
 6762SOL    HW220829   4.095   1.020   4.165
 6763SOL     OW20830   4.031   0.213   4.955
 6763SOL    HW120831   4.008   0.250   5.045
 6763SOL    HW220832   4.001   0.118   4.949
 6764SOL     OW20833   3.761   1.310   5.006
 6764SOL    HW120834   3.814   1.261   5.074
 6764SOL    HW220835   3.783   1.408   5.011
 6765SOL     OW20836   3.732   1.326   3.924
 6765SOL    HW120837   3.639   1.347   3.893
 6765SOL    HW220838   3.742   1.227   3.937
 6766SOL     OW20839   3.812   1.801   4.651
 6766SOL    HW120840   3.770   1.715   4.624
 6766SOL    HW220841   3.906   1.804   4.617
 6767SOL     OW20842   4.228   1.568   4.634
 6767SOL    HW120843   4.294   1.642   4.643
 6767SOL    HW220844   4.272   1.489   4.592
 6768SOL     OW20845   3.764   0.544   4.838
 6768SOL    HW120846   3.849   0.511   4.797
 6768SOL    HW220847   3.777   0.559   4.936
 6769SOL     OW20848   3.913   0.520   5.446
 6769SOL    HW120849   3.972   0.480   5.376
 6769SOL    HW220850   3.855   0.591   5.405
 6770SOL     OW20851   3.976   1.564   5.468
 6770SOL    HW120852   3.946   1.621   5.544
 6770SOL    HW220853   3.969   1.467   5.494
 6771SOL     OW20854   3.883   1.137   5.190
 6771SOL    HW120855   3.905   1.076   5.266
 6771SOL    HW220856   3.893   1.088   5.104
 6772SOL     OW20857   3.807   1.258   4.746
 6772SOL    HW120858   3.802   1.257   4.846
 6772SOL    HW220859   3.724   1.217   4.708
 6773SOL     OW20860   3.854   1.794   5.575
 6773SOL    HW120861   3.813   1.720   5.628
 6773SOL    HW220862   3.918   1.845   5.633
 6774SOL     OW20863   3.799   0.345   3.757
 6774SOL    HW120864   3.707   0.317   3.728
 6774SOL    HW220865   3.830   0.422   3.701
 6775SOL     OW20866   3.796   0.166   4.042
 6775SOL    HW120867   3.779   0.249   3.988
 6775SOL    HW220868   3.886   0.129   4.020
 6776SOL     OW20869   3.803   1.240   4.377
 6776SOL    HW120870   3.802   1.193   4.465
 6776SOL    HW220871   3.885   1.212   4.326
 6777SOL     OW20872   3.763   1.077   4.024
 6777SOL    HW120873   3.862   1.066   4.015
 6777SOL    HW220874   3.723   0.991   4.056
 6778SOL     OW20875   3.954   0.628   5.699
 6778SOL    HW120876   3.861   0.626   5.736
 6778SOL    HW220877   3.955   0.589   5.607
 6779SOL     OW20878   3.949   0.275   6.582
 6779SOL    HW120879   3.984   0.258   6.674
 6779SOL    HW220880   3.861   0.230   6.570
 6780SOL     OW20881   3.743   0.368   6.233
 6780SOL    HW120882   3.661   0.411   6.272
 6780SOL    HW220883   3.715   0.295   6.170
 6781SOL     OW20884   4.059   1.435   6.647
 6781SOL    HW120885   3.981   1.404   6.594
 6781SOL    HW220886   4.117   1.493   6.590
 6782SOL     OW20887   3.955   1.713   6.069
 6782SOL    HW120888   3.989   1.790   6.123
 6782SOL    HW220889   3.999   1.713   5.979
 6783SOL     OW20890   3.954   1.434   6.124
 6783SOL    HW120891   3.928   1.530   6.124
 6783SOL    HW220892   3.883   1.380   6.169
 6784SOL     OW20893   3.846   0.643   6.149
 6784SOL    HW120894   3.801   0.555   6.166
 6784SOL    HW220895   3.845   0.697   6.233
 6785SOL     OW20896   3.751   1.596   5.703
 6785SOL    HW120897   3.732   1.500   5.724
 6785SOL    HW220898   3.718   1.654   5.778
 6786SOL     OW20899   3.837   0.737   7.183
 6786SOL    HW120900   3.925   0.724   7.228
 6786SOL    HW220901   3.824   0.834   7.161
 6787SOL     OW20902   3.800   0.811   6.375
 6787SOL    HW120903   3.899   0.799   6.384
 6787SOL    HW220904   3.776   0.906   6.396
 6788SOL     OW20905   3.854   1.821   7.157
 6788SOL    HW120906   3.844   1.806   7.256
 6788SOL    HW220907   3.768   1.857   7.121
 6789SOL     OW20908   3.926   0.285   7.084
 6789SOL    HW120909   3.846   0.345   7.071
 6789SOL    HW220910   3.916   0.236   7.170
 6790SOL     OW20911   3.802   0.556   6.972
 6790SOL    HW120912   3.894   0.555   6.931
 6790SOL    HW220913   3.796   0.630   7.039
 6791SOL     OW20914   4.251   0.256   5.914
 6791SOL    HW120915   4.278   0.197   5.839
 6791SOL    HW220916   4.251   0.351   5.883
 6792SOL     OW20917   3.788   1.564   6.917
 6792SOL    HW120918   3.742   1.646   6.883
 6792SOL    HW220919   3.886   1.583   6.926
 6793SOL     OW20920   4.091   1.100   6.087
 6793SOL    HW120921   4.084   1.183   6.031
 6793SOL    HW220922   4.095   1.020   6.027
 6794SOL     OW20923   4.031   0.213   6.817
 6794SOL    HW120924   4.008   0.250   6.907
 6794SOL    HW220925   4.001   0.118   6.811
 6795SOL     OW20926   3.761   1.310   6.868
 6795SOL    HW120927   3.814   1.261   6.936
 6795SOL    HW220928   3.783   1.408   6.873
 6796SOL     OW20929   3.732   1.326   5.786
 6796SOL    HW120930   3.639   1.347   5.755
 6796SOL    HW220931   3.742   1.227   5.799
 6797SOL     OW20932   3.812   1.801   6.513
 6797SOL    HW120933   3.770   1.715   6.486
 6797SOL    HW220934   3.906   1.804   6.479
 6798SOL     OW20935   4.228   1.568   6.496
 6798SOL    HW120936   4.294   1.642   6.505
 6798SOL    HW220937   4.272   1.489   6.454
 6799SOL     OW20938   3.764   0.544   6.700
 6799SOL    HW120939   3.849   0.511   6.659
 6799SOL    HW220940   3.777   0.559   6.798
 6800SOL     OW20941   3.913   0.520   7.308
 6800SOL    HW120942   3.972   0.480   7.238
 6800SOL    HW220943   3.855   0.591   7.267
 6801SOL     OW20944   3.976   1.564   7.330
 6801SOL    HW120945   3.946   1.621   7.406
 6801SOL    HW220946   3.969   1.467   7.356
 6802SOL     OW20947   3.883   1.137   7.052
 6802SOL    HW120948   3.905   1.076   7.128
 6802SOL    HW220949   3.893   1.088   6.966
 6803SOL     OW20950   3.807   1.258   6.608
 6803SOL    HW120951   3.802   1.257   6.708
 6803SOL    HW220952   3.724   1.217   6.570
 6804SOL     OW20953   3.854   1.794   7.437
 6804SOL    HW120954   3.813   1.720   7.490
 6804SOL    HW220955   3.918   1.845   7.495
 6805SOL     OW20956   3.799   0.345   5.619
 6805SOL    HW120957   3.707   0.317   5.590
 6805SOL    HW220958   3.830   0.422   5.563
 6806SOL     OW20959   3.796   0.166   5.904
 6806SOL    HW120960   3.779   0.249   5.850
 6806SOL    HW220961   3.886   0.129   5.882
 6807SOL     OW20962   3.803   1.240   6.239
 6807SOL    HW120963   3.802   1.193   6.327
 6807SOL    HW220964   3.885   1.212   6.188
 6808SOL     OW20965   3.763   1.077   5.886
 6808SOL    HW120966   3.862   1.066   5.877
 6808SOL    HW220967   3.723   0.991   5.918
 6809SOL     OW20968   3.954   0.628   7.561
 6809SOL    HW120969   3.861   0.626   7.598
 6809SOL    HW220970   3.955   0.589   7.469
 6810SOL     OW20971   3.949   0.275   8.444
 6810SOL    HW120972   3.984   0.258   8.536
 6810SOL    HW220973   3.861   0.230   8.432
 6811SOL     OW20974   3.743   0.368   8.095
 6811SOL    HW120975   3.661   0.411   8.134
 6811SOL    HW220976   3.715   0.295   8.032
 6812SOL     OW20977   4.059   1.435   8.509
 6812SOL    HW120978   3.981   1.404   8.456
 6812SOL    HW220979   4.117   1.493   8.452
 6813SOL     OW20980   3.955   1.713   7.931
 6813SOL    HW120981   3.989   1.790   7.985
 6813SOL    HW220982   3.999   1.713   7.841
 6814SOL     OW20983   3.954   1.434   7.986
 6814SOL    HW120984   3.928   1.530   7.986
 6814SOL    HW220985   3.883   1.380   8.031
 6815SOL     OW20986   3.846   0.643   8.011
 6815SOL    HW120987   3.801   0.555   8.028
 6815SOL    HW220988   3.845   0.697   8.095
 6816SOL     OW20989   3.751   1.596   7.565
 6816SOL    HW120990   3.732   1.500   7.586
 6816SOL    HW220991   3.718   1.654   7.640
 6817SOL     OW20992   3.837   0.737   9.045
 6817SOL    HW120993   3.925   0.724   9.090
 6817SOL    HW220994   3.824   0.834   9.023
 6818SOL     OW20995   3.800   0.811   8.237
 6818SOL    HW120996   3.899   0.799   8.246
 6818SOL    HW220997   3.776   0.906   8.258
 6819SOL     OW20998   3.854   1.821   9.019
 6819SOL    HW120999   3.844   1.806   9.118
 6819SOL    HW221000   3.768   1.857   8.983
 6820SOL     OW21001   3.926   0.285   8.946
 6820SOL    HW121002   3.846   0.345   8.933
 6820SOL    HW221003   3.916   0.236   9.032
 6821SOL     OW21004   3.802   0.556   8.834
 6821SOL    HW121005   3.894   0.555   8.793
 6821SOL    HW221006   3.796   0.630   8.901
 6822SOL     OW21007   4.251   0.256   7.776
 6822SOL    HW121008   4.278   0.197   7.701
 6822SOL    HW221009   4.251   0.351   7.745
 6823SOL     OW21010   3.788   1.564   8.779
 6823SOL    HW121011   3.742   1.646   8.745
 6823SOL    HW221012   3.886   1.583   8.788
 6824SOL     OW21013   4.091   1.100   7.949
 6824SOL    HW121014   4.084   1.183   7.893
 6824SOL    HW221015   4.095   1.020   7.889
 6825SOL     OW21016   4.031   0.213   8.679
 6825SOL    HW121017   4.008   0.250   8.769
 6825SOL    HW221018   4.001   0.118   8.673
 6826SOL     OW21019   3.761   1.310   8.730
 6826SOL    HW121020   3.814   1.261   8.798
 6826SOL    HW221021   3.783   1.408   8.735
 6827SOL     OW21022   3.732   1.326   7.648
 6827SOL    HW121023   3.639   1.347   7.617
 6827SOL    HW221024   3.742   1.227   7.661
 6828SOL     OW21025   3.812   1.801   8.375
 6828SOL    HW121026   3.770   1.715   8.348
 6828SOL    HW221027   3.906   1.804   8.341
 6829SOL     OW21028   4.228   1.568   8.358
 6829SOL    HW121029   4.294   1.642   8.367
 6829SOL    HW221030   4.272   1.489   8.316
 6830SOL     OW21031   3.764   0.544   8.562
 6830SOL    HW121032   3.849   0.511   8.521
 6830SOL    HW221033   3.777   0.559   8.660
 6831SOL     OW21034   3.913   0.520   9.170
 6831SOL    HW121035   3.972   0.480   9.100
 6831SOL    HW221036   3.855   0.591   9.129
 6832SOL     OW21037   3.976   1.564   9.192
 6832SOL    HW121038   3.946   1.621   9.268
 6832SOL    HW221039   3.969   1.467   9.218
 6833SOL     OW21040   3.883   1.137   8.914
 6833SOL    HW121041   3.905   1.076   8.990
 6833SOL    HW221042   3.893   1.088   8.828
 6834SOL     OW21043   3.807   1.258   8.470
 6834SOL    HW121044   3.802   1.257   8.570
 6834SOL    HW221045   3.724   1.217   8.432
 6835SOL     OW21046   3.854   1.794   9.299
 6835SOL    HW121047   3.813   1.720   9.352
 6835SOL    HW221048   3.918   1.845   9.357
 6836SOL     OW21049   3.799   0.345   7.481
 6836SOL    HW121050   3.707   0.317   7.452
 6836SOL    HW221051   3.830   0.422   7.425
 6837SOL     OW21052   3.796   0.166   7.766
 6837SOL    HW121053   3.779   0.249   7.712
 6837SOL    HW221054   3.886   0.129   7.744
 6838SOL     OW21055   3.803   1.240   8.101
 6838SOL    HW121056   3.802   1.193   8.189
 6838SOL    HW221057   3.885   1.212   8.050
 6839SOL     OW21058   3.763   1.077   7.748
 6839SOL    HW121059   3.862   1.066   7.739
 6839SOL    HW221060   3.723   0.991   7.780
 6840SOL     OW21061   3.954   0.628   9.423
 6840SOL    HW121062   3.861   0.626   9.460
 6840SOL    HW221063   3.955   0.589   9.331
 6841SOL     OW21064   3.949   0.275  10.306
 6841SOL    HW121065   3.984   0.258  10.398
 6841SOL    HW221066   3.861   0.230  10.294
 6842SOL     OW21067   3.743   0.368   9.957
 6842SOL    HW121068   3.661   0.411   9.996
 6842SOL    HW221069   3.715   0.295   9.894
 6843SOL     OW21070   4.059   1.435  10.371
 6843SOL    HW121071   3.981   1.404  10.318
 6843SOL    HW221072   4.117   1.493  10.314
 6844SOL     OW21073   3.955   1.713   9.793
 6844SOL    HW121074   3.989   1.790   9.847
 6844SOL    HW221075   3.999   1.713   9.703
 6845SOL     OW21076   3.954   1.434   9.848
 6845SOL    HW121077   3.928   1.530   9.848
 6845SOL    HW221078   3.883   1.380   9.893
 6846SOL     OW21079   3.846   0.643   9.873
 6846SOL    HW121080   3.801   0.555   9.890
 6846SOL    HW221081   3.845   0.697   9.957
 6847SOL     OW21082   3.751   1.596   9.427
 6847SOL    HW121083   3.732   1.500   9.448
 6847SOL    HW221084   3.718   1.654   9.502
 6848SOL     OW21085   3.837   0.737  10.907
 6848SOL    HW121086   3.925   0.724  10.952
 6848SOL    HW221087   3.824   0.834  10.885
 6849SOL     OW21088   3.800   0.811  10.099
 6849SOL    HW121089   3.899   0.799  10.108
 6849SOL    HW221090   3.776   0.906  10.120
 6850SOL     OW21091   3.854   1.821  10.881
 6850SOL    HW121092   3.844   1.806  10.980
 6850SOL    HW221093   3.768   1.857  10.845
 6851SOL     OW21094   3.926   0.285  10.808
 6851SOL    HW121095   3.846   0.345  10.795
 6851SOL    HW221096   3.916   0.236  10.894
 6852SOL     OW21097   3.802   0.556  10.696
 6852SOL    HW121098   3.894   0.555  10.655
 6852SOL    HW221099   3.796   0.630  10.763
 6853SOL     OW21100   4.251   0.256   9.638
 6853SOL    HW121101   4.278   0.197   9.563
 6853SOL    HW221102   4.251   0.351   9.607
 6854SOL     OW21103   3.788   1.564  10.641
 6854SOL    HW121104   3.742   1.646  10.607
 6854SOL    HW221105   3.886   1.583  10.650
 6855SOL     OW21106   4.091   1.100   9.811
 6855SOL    HW121107   4.084   1.183   9.755
 6855SOL    HW221108   4.095   1.020   9.751
 6856SOL     OW21109   4.031   0.213  10.541
 6856SOL    HW121110   4.008   0.250  10.631
 6856SOL    HW221111   4.001   0.118  10.535
 6857SOL     OW21112   3.761   1.310  10.592
 6857SOL    HW121113   3.814   1.261  10.660
 6857SOL    HW221114   3.783   1.408  10.597
 6858SOL     OW21115   3.732   1.326   9.510
 6858SOL    HW121116   3.639   1.347   9.479
 6858SOL    HW221117   3.742   1.227   9.523
 6859SOL     OW21118   3.812   1.801  10.237
 6859SOL    HW121119   3.770   1.715  10.210
 6859SOL    HW221120   3.906   1.804  10.203
 6860SOL     OW21121   4.228   1.568  10.220
 6860SOL    HW121122   4.294   1.642  10.229
 6860SOL    HW221123   4.272   1.489  10.178
 6861SOL     OW21124   3.764   0.544  10.424
 6861SOL    HW121125   3.849   0.511  10.383
 6861SOL    HW221126   3.777   0.559  10.522
 6862SOL     OW21127   3.913   0.520  11.032
 6862SOL    HW121128   3.972   0.480  10.962
 6862SOL    HW221129   3.855   0.591  10.991
 6863SOL     OW21130   3.976   1.564  11.054
 6863SOL    HW121131   3.946   1.621  11.130
 6863SOL    HW221132   3.969   1.467  11.080
 6864SOL     OW21133   3.883   1.137  10.776
 6864SOL    HW121134   3.905   1.076  10.852
 6864SOL    HW221135   3.893   1.088  10.690
 6865SOL     OW21136   3.807   1.258  10.332
 6865SOL    HW121137   3.802   1.257  10.432
 6865SOL    HW221138   3.724   1.217  10.294
 6866SOL     OW21139   3.854   1.794  11.161
 6866SOL    HW121140   3.813   1.720  11.214
 6866SOL    HW221141   3.918   1.845  11.219
 6867SOL     OW21142   3.799   0.345   9.343
 6867SOL    HW121143   3.707   0.317   9.314
 6867SOL    HW221144   3.830   0.422   9.287
 6868SOL     OW21145   3.796   0.166   9.628
 6868SOL    HW121146   3.779   0.249   9.574
 6868SOL    HW221147   3.886   0.129   9.606
 6869SOL     OW21148   3.803   1.240   9.963
 6869SOL    HW121149   3.802   1.193  10.051
 6869SOL    HW221150   3.885   1.212   9.912
 6870SOL     OW21151   3.763   1.077   9.610
 6870SOL    HW121152   3.862   1.066   9.601
 6870SOL    HW221153   3.723   0.991   9.642
 6871SOL     OW21154   3.954   0.628  11.285
 6871SOL    HW121155   3.861   0.626  11.322
 6871SOL    HW221156   3.955   0.589  11.193
 6872SOL     OW21157   3.949   0.275  12.168
 6872SOL    HW121158   3.984   0.258  12.260
 6872SOL    HW221159   3.861   0.230  12.156
 6873SOL     OW21160   3.743   0.368  11.819
 6873SOL    HW121161   3.661   0.411  11.858
 6873SOL    HW221162   3.715   0.295  11.756
 6874SOL     OW21163   4.059   1.435  12.233
 6874SOL    HW121164   3.981   1.404  12.180
 6874SOL    HW221165   4.117   1.493  12.176
 6875SOL     OW21166   3.955   1.713  11.655
 6875SOL    HW121167   3.989   1.790  11.709
 6875SOL    HW221168   3.999   1.713  11.565
 6876SOL     OW21169   3.954   1.434  11.710
 6876SOL    HW121170   3.928   1.530  11.710
 6876SOL    HW221171   3.883   1.380  11.755
 6877SOL     OW21172   3.846   0.643  11.735
 6877SOL    HW121173   3.801   0.555  11.752
 6877SOL    HW221174   3.845   0.697  11.819
 6878SOL     OW21175   3.751   1.596  11.289
 6878SOL    HW121176   3.732   1.500  11.310
 6878SOL    HW221177   3.718   1.654  11.364
 6879SOL     OW21178   3.837   0.737  12.769
 6879SOL    HW121179   3.925   0.724  12.814
 6879SOL    HW221180   3.824   0.834  12.747
 6880SOL     OW21181   3.800   0.811  11.961
 6880SOL    HW121182   3.899   0.799  11.970
 6880SOL    HW221183   3.776   0.906  11.982
 6881SOL     OW21184   3.854   1.821  12.743
 6881SOL    HW121185   3.844   1.806  12.842
 6881SOL    HW221186   3.768   1.857  12.707
 6882SOL     OW21187   3.926   0.285  12.670
 6882SOL    HW121188   3.846   0.345  12.657
 6882SOL    HW221189   3.916   0.236  12.756
 6883SOL     OW21190   3.802   0.556  12.558
 6883SOL    HW121191   3.894   0.555  12.517
 6883SOL    HW221192   3.796   0.630  12.625
 6884SOL     OW21193   4.251   0.256  11.500
 6884SOL    HW121194   4.278   0.197  11.425
 6884SOL    HW221195   4.251   0.351  11.469
 6885SOL     OW21196   3.788   1.564  12.503
 6885SOL    HW121197   3.742   1.646  12.469
 6885SOL    HW221198   3.886   1.583  12.512
 6886SOL     OW21199   4.091   1.100  11.673
 6886SOL    HW121200   4.084   1.183  11.617
 6886SOL    HW221201   4.095   1.020  11.613
 6887SOL     OW21202   4.031   0.213  12.403
 6887SOL    HW121203   4.008   0.250  12.493
 6887SOL    HW221204   4.001   0.118  12.397
 6888SOL     OW21205   3.761   1.310  12.454
 6888SOL    HW121206   3.814   1.261  12.522
 6888SOL    HW221207   3.783   1.408  12.459
 6889SOL     OW21208   3.732   1.326  11.372
 6889SOL    HW121209   3.639   1.347  11.341
 6889SOL    HW221210   3.742   1.227  11.385
 6890SOL     OW21211   3.812   1.801  12.099
 6890SOL    HW121212   3.770   1.715  12.072
 6890SOL    HW221213   3.906   1.804  12.065
 6891SOL     OW21214   4.228   1.568  12.082
 6891SOL    HW121215   4.294   1.642  12.091
 6891SOL    HW221216   4.272   1.489  12.040
 6892SOL     OW21217   3.764   0.544  12.286
 6892SOL    HW121218   3.849   0.511  12.245
 6892SOL    HW221219   3.777   0.559  12.384
 6893SOL     OW21220   3.913   0.520  12.894
 6893SOL    HW121221   3.972   0.480  12.824
 6893SOL    HW221222   3.855   0.591  12.853
 6894SOL     OW21223   3.976   1.564  12.916
 6894SOL    HW121224   3.946   1.621  12.992
 6894SOL    HW221225   3.969   1.467  12.942
 6895SOL     OW21226   3.883   1.137  12.638
 6895SOL    HW121227   3.905   1.076  12.714
 6895SOL    HW221228   3.893   1.088  12.552
 6896SOL     OW21229   3.807   1.258  12.194
 6896SOL    HW121230   3.802   1.257  12.294
 6896SOL    HW221231   3.724   1.217  12.156
 6897SOL     OW21232   3.854   1.794  13.023
 6897SOL    HW121233   3.813   1.720  13.076
 6897SOL    HW221234   3.918   1.845  13.081
 6898SOL     OW21235   3.799   0.345  11.205
 6898SOL    HW121236   3.707   0.317  11.176
 6898SOL    HW221237   3.830   0.422  11.149
 6899SOL     OW21238   3.796   0.166  11.490
 6899SOL    HW121239   3.779   0.249  11.436
 6899SOL    HW221240   3.886   0.129  11.468
 6900SOL     OW21241   3.803   1.240  11.825
 6900SOL    HW121242   3.802   1.193  11.913
 6900SOL    HW221243   3.885   1.212  11.774
 6901SOL     OW21244   3.763   1.077  11.472
 6901SOL    HW121245   3.862   1.066  11.463
 6901SOL    HW221246   3.723   0.991  11.504
 6902SOL     OW21247   3.954   0.628  13.147
 6902SOL    HW121248   3.861   0.626  13.184
 6902SOL    HW221249   3.955   0.589  13.055
 6903SOL     OW21250   3.743   0.368  13.681
 6903SOL    HW121251   3.661   0.411  13.720
 6903SOL    HW221252   3.715   0.295  13.618
 6904SOL     OW21253   3.955   1.713  13.517
 6904SOL    HW121254   3.989   1.790  13.571
 6904SOL    HW221255   3.999   1.713  13.427
 6905SOL     OW21256   3.954   1.434  13.572
 6905SOL    HW121257   3.928   1.530  13.572
 6905SOL    HW221258   3.883   1.380  13.617
 6906SOL     OW21259   3.964   1.091  13.920
 6906SOL    HW121260   3.978   1.007  13.972
 6906SOL    HW221261   3.909   1.155  13.975
 6907SOL     OW21262   3.846   0.643  13.597
 6907SOL    HW121263   3.801   0.555  13.614
 6907SOL    HW221264   3.845   0.697  13.681
 6908SOL     OW21265   3.751   1.596  13.151
 6908SOL    HW121266   3.732   1.500  13.172
 6908SOL    HW221267   3.718   1.654  13.226
 6909SOL     OW21268   3.800   0.811  13.823
 6909SOL    HW121269   3.899   0.799  13.832
 6909SOL    HW221270   3.776   0.906  13.844
 6910SOL     OW21271   4.075   1.801  13.887
 6910SOL    HW121272   4.125   1.715  13.893
 6910SOL    HW221273   4.140   1.878  13.884
 6911SOL     OW21274   4.251   0.256  13.362
 6911SOL    HW121275   4.278   0.197  13.287
 6911SOL    HW221276   4.251   0.351  13.331
 6912SOL     OW21277   4.091   1.100  13.535
 6912SOL    HW121278   4.084   1.183  13.479
 6912SOL    HW221279   4.095   1.020  13.475
 6913SOL     OW21280   3.732   1.326  13.234
 6913SOL    HW121281   3.639   1.347  13.203
 6913SOL    HW221282   3.742   1.227  13.247
 6914SOL     OW21283   4.228   1.568  13.944
 6914SOL    HW121284   4.294   1.642  13.953
 6914SOL    HW221285   4.272   1.489  13.902
 6915SOL     OW21286   3.799   0.345  13.067
 6915SOL    HW121287   3.707   0.317  13.038
 6915SOL    HW221288   3.830   0.422  13.011
 6916SOL     OW21289   3.796   0.166  13.352
 6916SOL    HW121290   3.779   0.249  13.298
 6916SOL    HW221291   3.886   0.129  13.330
 6917SOL     OW21292   3.803   1.240  13.687
 6917SOL    HW121293   3.802   1.193  13.775
 6917SOL    HW221294   3.885   1.212  13.636
 6918SOL     OW21295   3.763   1.077  13.334
 6918SOL    HW121296   3.862   1.066  13.325
 6918SOL    HW221297   3.723   0.991  13.366
 6919SOL     OW21298   3.954   2.490   0.113
 6919SOL    HW121299   3.861   2.488   0.150
 6919SOL    HW221300   3.955   2.451   0.021
 6920SOL     OW21301   3.949   2.137   0.996
 6920SOL    HW121302   3.984   2.120   1.088
 6920SOL    HW221303   3.861   2.092   0.984
 6921SOL     OW21304   3.743   2.230   0.647
 6921SOL    HW121305   3.661   2.273   0.686
 6921SOL    HW221306   3.715   2.157   0.584
 6922SOL     OW21307   4.059   3.297   1.061
 6922SOL    HW121308   3.981   3.266   1.008
 6922SOL    HW221309   4.117   3.355   1.004
 6923SOL     OW21310   3.955   3.575   0.483
 6923SOL    HW121311   3.989   3.652   0.537
 6923SOL    HW221312   3.999   3.575   0.393
 6924SOL     OW21313   3.954   3.296   0.538
 6924SOL    HW121314   3.928   3.392   0.538
 6924SOL    HW221315   3.883   3.242   0.583
 6925SOL     OW21316   3.846   2.505   0.563
 6925SOL    HW121317   3.801   2.417   0.580
 6925SOL    HW221318   3.845   2.559   0.647
 6926SOL     OW21319   3.751   3.458   0.117
 6926SOL    HW121320   3.732   3.362   0.138
 6926SOL    HW221321   3.718   3.516   0.192
 6927SOL     OW21322   3.837   2.599   1.597
 6927SOL    HW121323   3.925   2.586   1.642
 6927SOL    HW221324   3.824   2.696   1.575
 6928SOL     OW21325   3.800   2.673   0.789
 6928SOL    HW121326   3.899   2.661   0.798
 6928SOL    HW221327   3.776   2.768   0.810
 6929SOL     OW21328   3.854   3.683   1.571
 6929SOL    HW121329   3.844   3.668   1.670
 6929SOL    HW221330   3.768   3.719   1.535
 6930SOL     OW21331   3.926   2.147   1.498
 6930SOL    HW121332   3.846   2.207   1.485
 6930SOL    HW221333   3.916   2.098   1.584
 6931SOL     OW21334   3.802   2.418   1.386
 6931SOL    HW121335   3.894   2.417   1.345
 6931SOL    HW221336   3.796   2.492   1.453
 6932SOL     OW21337   3.788   3.426   1.331
 6932SOL    HW121338   3.742   3.508   1.297
 6932SOL    HW221339   3.886   3.445   1.340
 6933SOL     OW21340   4.091   2.962   0.501
 6933SOL    HW121341   4.084   3.045   0.445
 6933SOL    HW221342   4.095   2.882   0.441
 6934SOL     OW21343   4.031   2.075   1.231
 6934SOL    HW121344   4.008   2.112   1.321
 6934SOL    HW221345   4.001   1.980   1.225
 6935SOL     OW21346   3.761   3.172   1.282
 6935SOL    HW121347   3.814   3.123   1.350
 6935SOL    HW221348   3.783   3.270   1.287
 6936SOL     OW21349   4.031   1.925   0.618
 6936SOL    HW121350   4.020   2.019   0.651
 6936SOL    HW221351   4.026   1.862   0.695
 6937SOL     OW21352   3.732   3.188   0.200
 6937SOL    HW121353   3.639   3.209   0.169
 6937SOL    HW221354   3.742   3.089   0.213
 6938SOL     OW21355   3.812   3.663   0.927
 6938SOL    HW121356   3.770   3.577   0.900
 6938SOL    HW221357   3.906   3.666   0.893
 6939SOL     OW21358   4.228   3.430   0.910
 6939SOL    HW121359   4.294   3.504   0.919
 6939SOL    HW221360   4.272   3.351   0.868
 6940SOL     OW21361   3.764   2.406   1.114
 6940SOL    HW121362   3.849   2.373   1.073
 6940SOL    HW221363   3.777   2.421   1.212
 6941SOL     OW21364   3.913   2.382   1.722
 6941SOL    HW121365   3.972   2.342   1.652
 6941SOL    HW221366   3.855   2.453   1.681
 6942SOL     OW21367   3.976   3.426   1.744
 6942SOL    HW121368   3.946   3.483   1.820
 6942SOL    HW221369   3.969   3.329   1.770
 6943SOL     OW21370   3.883   2.999   1.466
 6943SOL    HW121371   3.905   2.938   1.542
 6943SOL    HW221372   3.893   2.950   1.380
 6944SOL     OW21373   3.807   3.120   1.022
 6944SOL    HW121374   3.802   3.119   1.122
 6944SOL    HW221375   3.724   3.079   0.984
 6945SOL     OW21376   3.854   3.656   1.851
 6945SOL    HW121377   3.813   3.582   1.904
 6945SOL    HW221378   3.918   3.707   1.909
 6946SOL     OW21379   3.799   2.207   0.033
 6946SOL    HW121380   3.707   2.179   0.004
 6946SOL    HW221381   3.830   2.284  -0.023
 6947SOL     OW21382   3.796   2.028   0.318
 6947SOL    HW121383   3.779   2.111   0.264
 6947SOL    HW221384   3.886   1.991   0.296
 6948SOL     OW21385   3.803   3.102   0.653
 6948SOL    HW121386   3.802   3.055   0.741
 6948SOL    HW221387   3.885   3.074   0.602
 6949SOL     OW21388   3.763   2.939   0.300
 6949SOL    HW121389   3.862   2.928   0.291
 6949SOL    HW221390   3.723   2.853   0.332
 6950SOL     OW21391   3.954   2.490   1.975
 6950SOL    HW121392   3.861   2.488   2.012
 6950SOL    HW221393   3.955   2.451   1.883
 6951SOL     OW21394   3.949   2.137   2.858
 6951SOL    HW121395   3.984   2.120   2.950
 6951SOL    HW221396   3.861   2.092   2.846
 6952SOL     OW21397   3.743   2.230   2.509
 6952SOL    HW121398   3.661   2.273   2.548
 6952SOL    HW221399   3.715   2.157   2.446
 6953SOL     OW21400   4.059   3.297   2.923
 6953SOL    HW121401   3.981   3.266   2.870
 6953SOL    HW221402   4.117   3.355   2.866
 6954SOL     OW21403   3.955   3.575   2.345
 6954SOL    HW121404   3.989   3.652   2.399
 6954SOL    HW221405   3.999   3.575   2.255
 6955SOL     OW21406   3.954   3.296   2.400
 6955SOL    HW121407   3.928   3.392   2.400
 6955SOL    HW221408   3.883   3.242   2.445
 6956SOL     OW21409   3.846   2.505   2.425
 6956SOL    HW121410   3.801   2.417   2.442
 6956SOL    HW221411   3.845   2.559   2.509
 6957SOL     OW21412   3.751   3.458   1.979
 6957SOL    HW121413   3.732   3.362   2.000
 6957SOL    HW221414   3.718   3.516   2.054
 6958SOL     OW21415   3.837   2.599   3.459
 6958SOL    HW121416   3.925   2.586   3.504
 6958SOL    HW221417   3.824   2.696   3.437
 6959SOL     OW21418   3.800   2.673   2.651
 6959SOL    HW121419   3.899   2.661   2.660
 6959SOL    HW221420   3.776   2.768   2.672
 6960SOL     OW21421   3.854   3.683   3.433
 6960SOL    HW121422   3.844   3.668   3.532
 6960SOL    HW221423   3.768   3.719   3.397
 6961SOL     OW21424   3.926   2.147   3.360
 6961SOL    HW121425   3.846   2.207   3.347
 6961SOL    HW221426   3.916   2.098   3.446
 6962SOL     OW21427   4.021   1.897   2.033
 6962SOL    HW121428   4.070   1.981   2.012
 6962SOL    HW221429   4.083   1.832   2.078
 6963SOL     OW21430   3.802   2.418   3.248
 6963SOL    HW121431   3.894   2.417   3.207
 6963SOL    HW221432   3.796   2.492   3.315
 6964SOL     OW21433   4.251   2.118   2.190
 6964SOL    HW121434   4.278   2.059   2.115
 6964SOL    HW221435   4.251   2.213   2.159
 6965SOL     OW21436   3.788   3.426   3.193
 6965SOL    HW121437   3.742   3.508   3.159
 6965SOL    HW221438   3.886   3.445   3.202
 6966SOL     OW21439   4.091   2.962   2.363
 6966SOL    HW121440   4.084   3.045   2.307
 6966SOL    HW221441   4.095   2.882   2.303
 6967SOL     OW21442   4.031   2.075   3.093
 6967SOL    HW121443   4.008   2.112   3.183
 6967SOL    HW221444   4.001   1.980   3.087
 6968SOL     OW21445   3.761   3.172   3.144
 6968SOL    HW121446   3.814   3.123   3.212
 6968SOL    HW221447   3.783   3.270   3.149
 6969SOL     OW21448   4.031   1.925   2.480
 6969SOL    HW121449   4.020   2.019   2.513
 6969SOL    HW221450   4.026   1.862   2.557
 6970SOL     OW21451   3.732   3.188   2.062
 6970SOL    HW121452   3.639   3.209   2.031
 6970SOL    HW221453   3.742   3.089   2.075
 6971SOL     OW21454   3.812   3.663   2.789
 6971SOL    HW121455   3.770   3.577   2.762
 6971SOL    HW221456   3.906   3.666   2.755
 6972SOL     OW21457   4.228   3.430   2.772
 6972SOL    HW121458   4.294   3.504   2.781
 6972SOL    HW221459   4.272   3.351   2.730
 6973SOL     OW21460   3.764   2.406   2.976
 6973SOL    HW121461   3.849   2.373   2.935
 6973SOL    HW221462   3.777   2.421   3.074
 6974SOL     OW21463   3.913   2.382   3.584
 6974SOL    HW121464   3.972   2.342   3.514
 6974SOL    HW221465   3.855   2.453   3.543
 6975SOL     OW21466   3.976   3.426   3.606
 6975SOL    HW121467   3.946   3.483   3.682
 6975SOL    HW221468   3.969   3.329   3.632
 6976SOL     OW21469   3.883   2.999   3.328
 6976SOL    HW121470   3.905   2.938   3.404
 6976SOL    HW221471   3.893   2.950   3.242
 6977SOL     OW21472   3.807   3.120   2.884
 6977SOL    HW121473   3.802   3.119   2.984
 6977SOL    HW221474   3.724   3.079   2.846
 6978SOL     OW21475   3.854   3.656   3.713
 6978SOL    HW121476   3.813   3.582   3.766
 6978SOL    HW221477   3.918   3.707   3.771
 6979SOL     OW21478   3.799   2.207   1.895
 6979SOL    HW121479   3.707   2.179   1.866
 6979SOL    HW221480   3.830   2.284   1.839
 6980SOL     OW21481   3.796   2.028   2.180
 6980SOL    HW121482   3.779   2.111   2.126
 6980SOL    HW221483   3.886   1.991   2.158
 6981SOL     OW21484   3.803   3.102   2.515
 6981SOL    HW121485   3.802   3.055   2.603
 6981SOL    HW221486   3.885   3.074   2.464
 6982SOL     OW21487   3.763   2.939   2.162
 6982SOL    HW121488   3.862   2.928   2.153
 6982SOL    HW221489   3.723   2.853   2.194
 6983SOL     OW21490   3.954   2.490   3.837
 6983SOL    HW121491   3.861   2.488   3.874
 6983SOL    HW221492   3.955   2.451   3.745
 6984SOL     OW21493   3.949   2.137   4.720
 6984SOL    HW121494   3.984   2.120   4.812
 6984SOL    HW221495   3.861   2.092   4.708
 6985SOL     OW21496   3.743   2.230   4.371
 6985SOL    HW121497   3.661   2.273   4.410
 6985SOL    HW221498   3.715   2.157   4.308
 6986SOL     OW21499   4.059   3.297   4.785
 6986SOL    HW121500   3.981   3.266   4.732
 6986SOL    HW221501   4.117   3.355   4.728
 6987SOL     OW21502   3.955   3.575   4.207
 6987SOL    HW121503   3.989   3.652   4.261
 6987SOL    HW221504   3.999   3.575   4.117
 6988SOL     OW21505   3.954   3.296   4.262
 6988SOL    HW121506   3.928   3.392   4.262
 6988SOL    HW221507   3.883   3.242   4.307
 6989SOL     OW21508   3.846   2.505   4.287
 6989SOL    HW121509   3.801   2.417   4.304
 6989SOL    HW221510   3.845   2.559   4.371
 6990SOL     OW21511   3.751   3.458   3.841
 6990SOL    HW121512   3.732   3.362   3.862
 6990SOL    HW221513   3.718   3.516   3.916
 6991SOL     OW21514   3.837   2.599   5.321
 6991SOL    HW121515   3.925   2.586   5.366
 6991SOL    HW221516   3.824   2.696   5.299
 6992SOL     OW21517   3.800   2.673   4.513
 6992SOL    HW121518   3.899   2.661   4.522
 6992SOL    HW221519   3.776   2.768   4.534
 6993SOL     OW21520   3.854   3.683   5.295
 6993SOL    HW121521   3.844   3.668   5.394
 6993SOL    HW221522   3.768   3.719   5.259
 6994SOL     OW21523   3.926   2.147   5.222
 6994SOL    HW121524   3.846   2.207   5.209
 6994SOL    HW221525   3.916   2.098   5.308
 6995SOL     OW21526   4.021   1.897   3.895
 6995SOL    HW121527   4.070   1.981   3.874
 6995SOL    HW221528   4.083   1.832   3.940
 6996SOL     OW21529   3.802   2.418   5.110
 6996SOL    HW121530   3.894   2.417   5.069
 6996SOL    HW221531   3.796   2.492   5.177
 6997SOL     OW21532   4.251   2.118   4.052
 6997SOL    HW121533   4.278   2.059   3.977
 6997SOL    HW221534   4.251   2.213   4.021
 6998SOL     OW21535   3.788   3.426   5.055
 6998SOL    HW121536   3.742   3.508   5.021
 6998SOL    HW221537   3.886   3.445   5.064
 6999SOL     OW21538   4.091   2.962   4.225
 6999SOL    HW121539   4.084   3.045   4.169
 6999SOL    HW221540   4.095   2.882   4.165
 7000SOL     OW21541   4.031   2.075   4.955
 7000SOL    HW121542   4.008   2.112   5.045
 7000SOL    HW221543   4.001   1.980   4.949
 7001SOL     OW21544   3.761   3.172   5.006
 7001SOL    HW121545   3.814   3.123   5.074
 7001SOL    HW221546   3.783   3.270   5.011
 7002SOL     OW21547   4.031   1.925   4.342
 7002SOL    HW121548   4.020   2.019   4.375
 7002SOL    HW221549   4.026   1.862   4.419
 7003SOL     OW21550   3.732   3.188   3.924
 7003SOL    HW121551   3.639   3.209   3.893
 7003SOL    HW221552   3.742   3.089   3.937
 7004SOL     OW21553   3.812   3.663   4.651
 7004SOL    HW121554   3.770   3.577   4.624
 7004SOL    HW221555   3.906   3.666   4.617
 7005SOL     OW21556   4.228   3.430   4.634
 7005SOL    HW121557   4.294   3.504   4.643
 7005SOL    HW221558   4.272   3.351   4.592
 7006SOL     OW21559   3.764   2.406   4.838
 7006SOL    HW121560   3.849   2.373   4.797
 7006SOL    HW221561   3.777   2.421   4.936
 7007SOL     OW21562   3.913   2.382   5.446
 7007SOL    HW121563   3.972   2.342   5.376
 7007SOL    HW221564   3.855   2.453   5.405
 7008SOL     OW21565   3.976   3.426   5.468
 7008SOL    HW121566   3.946   3.483   5.544
 7008SOL    HW221567   3.969   3.329   5.494
 7009SOL     OW21568   3.883   2.999   5.190
 7009SOL    HW121569   3.905   2.938   5.266
 7009SOL    HW221570   3.893   2.950   5.104
 7010SOL     OW21571   3.807   3.120   4.746
 7010SOL    HW121572   3.802   3.119   4.846
 7010SOL    HW221573   3.724   3.079   4.708
 7011SOL     OW21574   3.854   3.656   5.575
 7011SOL    HW121575   3.813   3.582   5.628
 7011SOL    HW221576   3.918   3.707   5.633
 7012SOL     OW21577   3.799   2.207   3.757
 7012SOL    HW121578   3.707   2.179   3.728
 7012SOL    HW221579   3.830   2.284   3.701
 7013SOL     OW21580   3.796   2.028   4.042
 7013SOL    HW121581   3.779   2.111   3.988
 7013SOL    HW221582   3.886   1.991   4.020
 7014SOL     OW21583   3.803   3.102   4.377
 7014SOL    HW121584   3.802   3.055   4.465
 7014SOL    HW221585   3.885   3.074   4.326
 7015SOL     OW21586   3.763   2.939   4.024
 7015SOL    HW121587   3.862   2.928   4.015
 7015SOL    HW221588   3.723   2.853   4.056
 7016SOL     OW21589   3.954   2.490   5.699
 7016SOL    HW121590   3.861   2.488   5.736
 7016SOL    HW221591   3.955   2.451   5.607
 7017SOL     OW21592   3.949   2.137   6.582
 7017SOL    HW121593   3.984   2.120   6.674
 7017SOL    HW221594   3.861   2.092   6.570
 7018SOL     OW21595   3.743   2.230   6.233
 7018SOL    HW121596   3.661   2.273   6.272
 7018SOL    HW221597   3.715   2.157   6.170
 7019SOL     OW21598   4.059   3.297   6.647
 7019SOL    HW121599   3.981   3.266   6.594
 7019SOL    HW221600   4.117   3.355   6.590
 7020SOL     OW21601   3.955   3.575   6.069
 7020SOL    HW121602   3.989   3.652   6.123
 7020SOL    HW221603   3.999   3.575   5.979
 7021SOL     OW21604   3.954   3.296   6.124
 7021SOL    HW121605   3.928   3.392   6.124
 7021SOL    HW221606   3.883   3.242   6.169
 7022SOL     OW21607   3.846   2.505   6.149
 7022SOL    HW121608   3.801   2.417   6.166
 7022SOL    HW221609   3.845   2.559   6.233
 7023SOL     OW21610   3.751   3.458   5.703
 7023SOL    HW121611   3.732   3.362   5.724
 7023SOL    HW221612   3.718   3.516   5.778
 7024SOL     OW21613   3.837   2.599   7.183
 7024SOL    HW121614   3.925   2.586   7.228
 7024SOL    HW221615   3.824   2.696   7.161
 7025SOL     OW21616   3.800   2.673   6.375
 7025SOL    HW121617   3.899   2.661   6.384
 7025SOL    HW221618   3.776   2.768   6.396
 7026SOL     OW21619   3.854   3.683   7.157
 7026SOL    HW121620   3.844   3.668   7.256
 7026SOL    HW221621   3.768   3.719   7.121
 7027SOL     OW21622   3.926   2.147   7.084
 7027SOL    HW121623   3.846   2.207   7.071
 7027SOL    HW221624   3.916   2.098   7.170
 7028SOL     OW21625   4.021   1.897   5.757
 7028SOL    HW121626   4.070   1.981   5.736
 7028SOL    HW221627   4.083   1.832   5.802
 7029SOL     OW21628   3.802   2.418   6.972
 7029SOL    HW121629   3.894   2.417   6.931
 7029SOL    HW221630   3.796   2.492   7.039
 7030SOL     OW21631   4.251   2.118   5.914
 7030SOL    HW121632   4.278   2.059   5.839
 7030SOL    HW221633   4.251   2.213   5.883
 7031SOL     OW21634   3.788   3.426   6.917
 7031SOL    HW121635   3.742   3.508   6.883
 7031SOL    HW221636   3.886   3.445   6.926
 7032SOL     OW21637   4.091   2.962   6.087
 7032SOL    HW121638   4.084   3.045   6.031
 7032SOL    HW221639   4.095   2.882   6.027
 7033SOL     OW21640   4.031   2.075   6.817
 7033SOL    HW121641   4.008   2.112   6.907
 7033SOL    HW221642   4.001   1.980   6.811
 7034SOL     OW21643   3.761   3.172   6.868
 7034SOL    HW121644   3.814   3.123   6.936
 7034SOL    HW221645   3.783   3.270   6.873
 7035SOL     OW21646   4.031   1.925   6.204
 7035SOL    HW121647   4.020   2.019   6.237
 7035SOL    HW221648   4.026   1.862   6.281
 7036SOL     OW21649   3.732   3.188   5.786
 7036SOL    HW121650   3.639   3.209   5.755
 7036SOL    HW221651   3.742   3.089   5.799
 7037SOL     OW21652   3.812   3.663   6.513
 7037SOL    HW121653   3.770   3.577   6.486
 7037SOL    HW221654   3.906   3.666   6.479
 7038SOL     OW21655   4.228   3.430   6.496
 7038SOL    HW121656   4.294   3.504   6.505
 7038SOL    HW221657   4.272   3.351   6.454
 7039SOL     OW21658   3.764   2.406   6.700
 7039SOL    HW121659   3.849   2.373   6.659
 7039SOL    HW221660   3.777   2.421   6.798
 7040SOL     OW21661   3.913   2.382   7.308
 7040SOL    HW121662   3.972   2.342   7.238
 7040SOL    HW221663   3.855   2.453   7.267
 7041SOL     OW21664   3.976   3.426   7.330
 7041SOL    HW121665   3.946   3.483   7.406
 7041SOL    HW221666   3.969   3.329   7.356
 7042SOL     OW21667   3.883   2.999   7.052
 7042SOL    HW121668   3.905   2.938   7.128
 7042SOL    HW221669   3.893   2.950   6.966
 7043SOL     OW21670   3.807   3.120   6.608
 7043SOL    HW121671   3.802   3.119   6.708
 7043SOL    HW221672   3.724   3.079   6.570
 7044SOL     OW21673   3.854   3.656   7.437
 7044SOL    HW121674   3.813   3.582   7.490
 7044SOL    HW221675   3.918   3.707   7.495
 7045SOL     OW21676   3.799   2.207   5.619
 7045SOL    HW121677   3.707   2.179   5.590
 7045SOL    HW221678   3.830   2.284   5.563
 7046SOL     OW21679   3.796   2.028   5.904
 7046SOL    HW121680   3.779   2.111   5.850
 7046SOL    HW221681   3.886   1.991   5.882
 7047SOL     OW21682   3.803   3.102   6.239
 7047SOL    HW121683   3.802   3.055   6.327
 7047SOL    HW221684   3.885   3.074   6.188
 7048SOL     OW21685   3.763   2.939   5.886
 7048SOL    HW121686   3.862   2.928   5.877
 7048SOL    HW221687   3.723   2.853   5.918
 7049SOL     OW21688   3.954   2.490   7.561
 7049SOL    HW121689   3.861   2.488   7.598
 7049SOL    HW221690   3.955   2.451   7.469
 7050SOL     OW21691   3.949   2.137   8.444
 7050SOL    HW121692   3.984   2.120   8.536
 7050SOL    HW221693   3.861   2.092   8.432
 7051SOL     OW21694   3.743   2.230   8.095
 7051SOL    HW121695   3.661   2.273   8.134
 7051SOL    HW221696   3.715   2.157   8.032
 7052SOL     OW21697   4.059   3.297   8.509
 7052SOL    HW121698   3.981   3.266   8.456
 7052SOL    HW221699   4.117   3.355   8.452
 7053SOL     OW21700   3.955   3.575   7.931
 7053SOL    HW121701   3.989   3.652   7.985
 7053SOL    HW221702   3.999   3.575   7.841
 7054SOL     OW21703   3.954   3.296   7.986
 7054SOL    HW121704   3.928   3.392   7.986
 7054SOL    HW221705   3.883   3.242   8.031
 7055SOL     OW21706   3.846   2.505   8.011
 7055SOL    HW121707   3.801   2.417   8.028
 7055SOL    HW221708   3.845   2.559   8.095
 7056SOL     OW21709   3.751   3.458   7.565
 7056SOL    HW121710   3.732   3.362   7.586
 7056SOL    HW221711   3.718   3.516   7.640
 7057SOL     OW21712   3.837   2.599   9.045
 7057SOL    HW121713   3.925   2.586   9.090
 7057SOL    HW221714   3.824   2.696   9.023
 7058SOL     OW21715   3.800   2.673   8.237
 7058SOL    HW121716   3.899   2.661   8.246
 7058SOL    HW221717   3.776   2.768   8.258
 7059SOL     OW21718   3.854   3.683   9.019
 7059SOL    HW121719   3.844   3.668   9.118
 7059SOL    HW221720   3.768   3.719   8.983
 7060SOL     OW21721   3.926   2.147   8.946
 7060SOL    HW121722   3.846   2.207   8.933
 7060SOL    HW221723   3.916   2.098   9.032
 7061SOL     OW21724   4.021   1.897   7.619
 7061SOL    HW121725   4.070   1.981   7.598
 7061SOL    HW221726   4.083   1.832   7.664
 7062SOL     OW21727   3.802   2.418   8.834
 7062SOL    HW121728   3.894   2.417   8.793
 7062SOL    HW221729   3.796   2.492   8.901
 7063SOL     OW21730   4.251   2.118   7.776
 7063SOL    HW121731   4.278   2.059   7.701
 7063SOL    HW221732   4.251   2.213   7.745
 7064SOL     OW21733   3.788   3.426   8.779
 7064SOL    HW121734   3.742   3.508   8.745
 7064SOL    HW221735   3.886   3.445   8.788
 7065SOL     OW21736   4.091   2.962   7.949
 7065SOL    HW121737   4.084   3.045   7.893
 7065SOL    HW221738   4.095   2.882   7.889
 7066SOL     OW21739   4.031   2.075   8.679
 7066SOL    HW121740   4.008   2.112   8.769
 7066SOL    HW221741   4.001   1.980   8.673
 7067SOL     OW21742   3.761   3.172   8.730
 7067SOL    HW121743   3.814   3.123   8.798
 7067SOL    HW221744   3.783   3.270   8.735
 7068SOL     OW21745   4.031   1.925   8.066
 7068SOL    HW121746   4.020   2.019   8.099
 7068SOL    HW221747   4.026   1.862   8.143
 7069SOL     OW21748   3.732   3.188   7.648
 7069SOL    HW121749   3.639   3.209   7.617
 7069SOL    HW221750   3.742   3.089   7.661
 7070SOL     OW21751   3.812   3.663   8.375
 7070SOL    HW121752   3.770   3.577   8.348
 7070SOL    HW221753   3.906   3.666   8.341
 7071SOL     OW21754   4.228   3.430   8.358
 7071SOL    HW121755   4.294   3.504   8.367
 7071SOL    HW221756   4.272   3.351   8.316
 7072SOL     OW21757   3.764   2.406   8.562
 7072SOL    HW121758   3.849   2.373   8.521
 7072SOL    HW221759   3.777   2.421   8.660
 7073SOL     OW21760   3.913   2.382   9.170
 7073SOL    HW121761   3.972   2.342   9.100
 7073SOL    HW221762   3.855   2.453   9.129
 7074SOL     OW21763   3.976   3.426   9.192
 7074SOL    HW121764   3.946   3.483   9.268
 7074SOL    HW221765   3.969   3.329   9.218
 7075SOL     OW21766   3.883   2.999   8.914
 7075SOL    HW121767   3.905   2.938   8.990
 7075SOL    HW221768   3.893   2.950   8.828
 7076SOL     OW21769   3.807   3.120   8.470
 7076SOL    HW121770   3.802   3.119   8.570
 7076SOL    HW221771   3.724   3.079   8.432
 7077SOL     OW21772   3.854   3.656   9.299
 7077SOL    HW121773   3.813   3.582   9.352
 7077SOL    HW221774   3.918   3.707   9.357
 7078SOL     OW21775   3.799   2.207   7.481
 7078SOL    HW121776   3.707   2.179   7.452
 7078SOL    HW221777   3.830   2.284   7.425
 7079SOL     OW21778   3.796   2.028   7.766
 7079SOL    HW121779   3.779   2.111   7.712
 7079SOL    HW221780   3.886   1.991   7.744
 7080SOL     OW21781   3.803   3.102   8.101
 7080SOL    HW121782   3.802   3.055   8.189
 7080SOL    HW221783   3.885   3.074   8.050
 7081SOL     OW21784   3.763   2.939   7.748
 7081SOL    HW121785   3.862   2.928   7.739
 7081SOL    HW221786   3.723   2.853   7.780
 7082SOL     OW21787   3.954   2.490   9.423
 7082SOL    HW121788   3.861   2.488   9.460
 7082SOL    HW221789   3.955   2.451   9.331
 7083SOL     OW21790   3.949   2.137  10.306
 7083SOL    HW121791   3.984   2.120  10.398
 7083SOL    HW221792   3.861   2.092  10.294
 7084SOL     OW21793   3.743   2.230   9.957
 7084SOL    HW121794   3.661   2.273   9.996
 7084SOL    HW221795   3.715   2.157   9.894
 7085SOL     OW21796   4.059   3.297  10.371
 7085SOL    HW121797   3.981   3.266  10.318
 7085SOL    HW221798   4.117   3.355  10.314
 7086SOL     OW21799   3.955   3.575   9.793
 7086SOL    HW121800   3.989   3.652   9.847
 7086SOL    HW221801   3.999   3.575   9.703
 7087SOL     OW21802   3.954   3.296   9.848
 7087SOL    HW121803   3.928   3.392   9.848
 7087SOL    HW221804   3.883   3.242   9.893
 7088SOL     OW21805   3.846   2.505   9.873
 7088SOL    HW121806   3.801   2.417   9.890
 7088SOL    HW221807   3.845   2.559   9.957
 7089SOL     OW21808   3.751   3.458   9.427
 7089SOL    HW121809   3.732   3.362   9.448
 7089SOL    HW221810   3.718   3.516   9.502
 7090SOL     OW21811   3.837   2.599  10.907
 7090SOL    HW121812   3.925   2.586  10.952
 7090SOL    HW221813   3.824   2.696  10.885
 7091SOL     OW21814   3.800   2.673  10.099
 7091SOL    HW121815   3.899   2.661  10.108
 7091SOL    HW221816   3.776   2.768  10.120
 7092SOL     OW21817   3.854   3.683  10.881
 7092SOL    HW121818   3.844   3.668  10.980
 7092SOL    HW221819   3.768   3.719  10.845
 7093SOL     OW21820   3.926   2.147  10.808
 7093SOL    HW121821   3.846   2.207  10.795
 7093SOL    HW221822   3.916   2.098  10.894
 7094SOL     OW21823   4.021   1.897   9.481
 7094SOL    HW121824   4.070   1.981   9.460
 7094SOL    HW221825   4.083   1.832   9.526
 7095SOL     OW21826   3.802   2.418  10.696
 7095SOL    HW121827   3.894   2.417  10.655
 7095SOL    HW221828   3.796   2.492  10.763
 7096SOL     OW21829   4.251   2.118   9.638
 7096SOL    HW121830   4.278   2.059   9.563
 7096SOL    HW221831   4.251   2.213   9.607
 7097SOL     OW21832   3.788   3.426  10.641
 7097SOL    HW121833   3.742   3.508  10.607
 7097SOL    HW221834   3.886   3.445  10.650
 7098SOL     OW21835   4.091   2.962   9.811
 7098SOL    HW121836   4.084   3.045   9.755
 7098SOL    HW221837   4.095   2.882   9.751
 7099SOL     OW21838   4.031   2.075  10.541
 7099SOL    HW121839   4.008   2.112  10.631
 7099SOL    HW221840   4.001   1.980  10.535
 7100SOL     OW21841   3.761   3.172  10.592
 7100SOL    HW121842   3.814   3.123  10.660
 7100SOL    HW221843   3.783   3.270  10.597
 7101SOL     OW21844   4.031   1.925   9.928
 7101SOL    HW121845   4.020   2.019   9.961
 7101SOL    HW221846   4.026   1.862  10.005
 7102SOL     OW21847   3.732   3.188   9.510
 7102SOL    HW121848   3.639   3.209   9.479
 7102SOL    HW221849   3.742   3.089   9.523
 7103SOL     OW21850   3.812   3.663  10.237
 7103SOL    HW121851   3.770   3.577  10.210
 7103SOL    HW221852   3.906   3.666  10.203
 7104SOL     OW21853   4.228   3.430  10.220
 7104SOL    HW121854   4.294   3.504  10.229
 7104SOL    HW221855   4.272   3.351  10.178
 7105SOL     OW21856   3.764   2.406  10.424
 7105SOL    HW121857   3.849   2.373  10.383
 7105SOL    HW221858   3.777   2.421  10.522
 7106SOL     OW21859   3.913   2.382  11.032
 7106SOL    HW121860   3.972   2.342  10.962
 7106SOL    HW221861   3.855   2.453  10.991
 7107SOL     OW21862   3.976   3.426  11.054
 7107SOL    HW121863   3.946   3.483  11.130
 7107SOL    HW221864   3.969   3.329  11.080
 7108SOL     OW21865   3.883   2.999  10.776
 7108SOL    HW121866   3.905   2.938  10.852
 7108SOL    HW221867   3.893   2.950  10.690
 7109SOL     OW21868   3.807   3.120  10.332
 7109SOL    HW121869   3.802   3.119  10.432
 7109SOL    HW221870   3.724   3.079  10.294
 7110SOL     OW21871   3.854   3.656  11.161
 7110SOL    HW121872   3.813   3.582  11.214
 7110SOL    HW221873   3.918   3.707  11.219
 7111SOL     OW21874   3.799   2.207   9.343
 7111SOL    HW121875   3.707   2.179   9.314
 7111SOL    HW221876   3.830   2.284   9.287
 7112SOL     OW21877   3.796   2.028   9.628
 7112SOL    HW121878   3.779   2.111   9.574
 7112SOL    HW221879   3.886   1.991   9.606
 7113SOL     OW21880   3.803   3.102   9.963
 7113SOL    HW121881   3.802   3.055  10.051
 7113SOL    HW221882   3.885   3.074   9.912
 7114SOL     OW21883   3.763   2.939   9.610
 7114SOL    HW121884   3.862   2.928   9.601
 7114SOL    HW221885   3.723   2.853   9.642
 7115SOL     OW21886   3.954   2.490  11.285
 7115SOL    HW121887   3.861   2.488  11.322
 7115SOL    HW221888   3.955   2.451  11.193
 7116SOL     OW21889   3.949   2.137  12.168
 7116SOL    HW121890   3.984   2.120  12.260
 7116SOL    HW221891   3.861   2.092  12.156
 7117SOL     OW21892   3.743   2.230  11.819
 7117SOL    HW121893   3.661   2.273  11.858
 7117SOL    HW221894   3.715   2.157  11.756
 7118SOL     OW21895   4.059   3.297  12.233
 7118SOL    HW121896   3.981   3.266  12.180
 7118SOL    HW221897   4.117   3.355  12.176
 7119SOL     OW21898   3.955   3.575  11.655
 7119SOL    HW121899   3.989   3.652  11.709
 7119SOL    HW221900   3.999   3.575  11.565
 7120SOL     OW21901   3.954   3.296  11.710
 7120SOL    HW121902   3.928   3.392  11.710
 7120SOL    HW221903   3.883   3.242  11.755
 7121SOL     OW21904   3.846   2.505  11.735
 7121SOL    HW121905   3.801   2.417  11.752
 7121SOL    HW221906   3.845   2.559  11.819
 7122SOL     OW21907   3.751   3.458  11.289
 7122SOL    HW121908   3.732   3.362  11.310
 7122SOL    HW221909   3.718   3.516  11.364
 7123SOL     OW21910   3.837   2.599  12.769
 7123SOL    HW121911   3.925   2.586  12.814
 7123SOL    HW221912   3.824   2.696  12.747
 7124SOL     OW21913   3.800   2.673  11.961
 7124SOL    HW121914   3.899   2.661  11.970
 7124SOL    HW221915   3.776   2.768  11.982
 7125SOL     OW21916   3.854   3.683  12.743
 7125SOL    HW121917   3.844   3.668  12.842
 7125SOL    HW221918   3.768   3.719  12.707
 7126SOL     OW21919   3.926   2.147  12.670
 7126SOL    HW121920   3.846   2.207  12.657
 7126SOL    HW221921   3.916   2.098  12.756
 7127SOL     OW21922   4.021   1.897  11.343
 7127SOL    HW121923   4.070   1.981  11.322
 7127SOL    HW221924   4.083   1.832  11.388
 7128SOL     OW21925   3.802   2.418  12.558
 7128SOL    HW121926   3.894   2.417  12.517
 7128SOL    HW221927   3.796   2.492  12.625
 7129SOL     OW21928   4.251   2.118  11.500
 7129SOL    HW121929   4.278   2.059  11.425
 7129SOL    HW221930   4.251   2.213  11.469
 7130SOL     OW21931   3.788   3.426  12.503
 7130SOL    HW121932   3.742   3.508  12.469
 7130SOL    HW221933   3.886   3.445  12.512
 7131SOL     OW21934   4.091   2.962  11.673
 7131SOL    HW121935   4.084   3.045  11.617
 7131SOL    HW221936   4.095   2.882  11.613
 7132SOL     OW21937   4.031   2.075  12.403
 7132SOL    HW121938   4.008   2.112  12.493
 7132SOL    HW221939   4.001   1.980  12.397
 7133SOL     OW21940   3.761   3.172  12.454
 7133SOL    HW121941   3.814   3.123  12.522
 7133SOL    HW221942   3.783   3.270  12.459
 7134SOL     OW21943   4.031   1.925  11.790
 7134SOL    HW121944   4.020   2.019  11.823
 7134SOL    HW221945   4.026   1.862  11.867
 7135SOL     OW21946   3.732   3.188  11.372
 7135SOL    HW121947   3.639   3.209  11.341
 7135SOL    HW221948   3.742   3.089  11.385
 7136SOL     OW21949   3.812   3.663  12.099
 7136SOL    HW121950   3.770   3.577  12.072
 7136SOL    HW221951   3.906   3.666  12.065
 7137SOL     OW21952   4.228   3.430  12.082
 7137SOL    HW121953   4.294   3.504  12.091
 7137SOL    HW221954   4.272   3.351  12.040
 7138SOL     OW21955   3.764   2.406  12.286
 7138SOL    HW121956   3.849   2.373  12.245
 7138SOL    HW221957   3.777   2.421  12.384
 7139SOL     OW21958   3.913   2.382  12.894
 7139SOL    HW121959   3.972   2.342  12.824
 7139SOL    HW221960   3.855   2.453  12.853
 7140SOL     OW21961   3.976   3.426  12.916
 7140SOL    HW121962   3.946   3.483  12.992
 7140SOL    HW221963   3.969   3.329  12.942
 7141SOL     OW21964   3.883   2.999  12.638
 7141SOL    HW121965   3.905   2.938  12.714
 7141SOL    HW221966   3.893   2.950  12.552
 7142SOL     OW21967   3.807   3.120  12.194
 7142SOL    HW121968   3.802   3.119  12.294
 7142SOL    HW221969   3.724   3.079  12.156
 7143SOL     OW21970   3.854   3.656  13.023
 7143SOL    HW121971   3.813   3.582  13.076
 7143SOL    HW221972   3.918   3.707  13.081
 7144SOL     OW21973   3.799   2.207  11.205
 7144SOL    HW121974   3.707   2.179  11.176
 7144SOL    HW221975   3.830   2.284  11.149
 7145SOL     OW21976   3.796   2.028  11.490
 7145SOL    HW121977   3.779   2.111  11.436
 7145SOL    HW221978   3.886   1.991  11.468
 7146SOL     OW21979   3.803   3.102  11.825
 7146SOL    HW121980   3.802   3.055  11.913
 7146SOL    HW221981   3.885   3.074  11.774
 7147SOL     OW21982   3.763   2.939  11.472
 7147SOL    HW121983   3.862   2.928  11.463
 7147SOL    HW221984   3.723   2.853  11.504
 7148SOL     OW21985   3.954   2.490  13.147
 7148SOL    HW121986   3.861   2.488  13.184
 7148SOL    HW221987   3.955   2.451  13.055
 7149SOL     OW21988   3.743   2.230  13.681
 7149SOL    HW121989   3.661   2.273  13.720
 7149SOL    HW221990   3.715   2.157  13.618
 7150SOL     OW21991   3.955   3.575  13.517
 7150SOL    HW121992   3.989   3.652  13.571
 7150SOL    HW221993   3.999   3.575  13.427
 7151SOL     OW21994   3.954   3.296  13.572
 7151SOL    HW121995   3.928   3.392  13.572
 7151SOL    HW221996   3.883   3.242  13.617
 7152SOL     OW21997   3.964   2.953  13.920
 7152SOL    HW121998   3.978   2.869  13.972
 7152SOL    HW221999   3.909   3.017  13.975
 7153SOL     OW22000   3.846   2.505  13.597
 7153SOL    HW122001   3.801   2.417  13.614
 7153SOL    HW222002   3.845   2.559  13.681
 7154SOL     OW22003   3.751   3.458  13.151
 7154SOL    HW122004   3.732   3.362  13.172
 7154SOL    HW222005   3.718   3.516  13.226
 7155SOL     OW22006   3.800   2.673  13.823
 7155SOL    HW122007   3.899   2.661  13.832
 7155SOL    HW222008   3.776   2.768  13.844
 7156SOL     OW22009   4.075   3.663  13.887
 7156SOL    HW122010   4.125   3.577  13.893
 7156SOL    HW222011   4.140   3.740  13.884
 7157SOL     OW22012   4.021   1.897  13.205
 7157SOL    HW122013   4.070   1.981  13.184
 7157SOL    HW222014   4.083   1.832  13.250
 7158SOL     OW22015   4.251   2.118  13.362
 7158SOL    HW122016   4.278   2.059  13.287
 7158SOL    HW222017   4.251   2.213  13.331
 7159SOL     OW22018   4.091   2.962  13.535
 7159SOL    HW122019   4.084   3.045  13.479
 7159SOL    HW222020   4.095   2.882  13.475
 7160SOL     OW22021   4.031   1.925  13.652
 7160SOL    HW122022   4.020   2.019  13.685
 7160SOL    HW222023   4.026   1.862  13.729
 7161SOL     OW22024   3.732   3.188  13.234
 7161SOL    HW122025   3.639   3.209  13.203
 7161SOL    HW222026   3.742   3.089  13.247
 7162SOL     OW22027   4.228   3.430  13.944
 7162SOL    HW122028   4.294   3.504  13.953
 7162SOL    HW222029   4.272   3.351  13.902
 7163SOL     OW22030   3.799   2.207  13.067
 7163SOL    HW122031   3.707   2.179  13.038
 7163SOL    HW222032   3.830   2.284  13.011
 7164SOL     OW22033   3.796   2.028  13.352
 7164SOL    HW122034   3.779   2.111  13.298
 7164SOL    HW222035   3.886   1.991  13.330
 7165SOL     OW22036   3.803   3.102  13.687
 7165SOL    HW122037   3.802   3.055  13.775
 7165SOL    HW222038   3.885   3.074  13.636
 7166SOL     OW22039   3.763   2.939  13.334
 7166SOL    HW122040   3.862   2.928  13.325
 7166SOL    HW222041   3.723   2.853  13.366
 7167SOL     OW22042   3.949   3.999   0.996
 7167SOL    HW122043   3.984   3.982   1.088
 7167SOL    HW222044   3.861   3.954   0.984
 7168SOL     OW22045   3.743   4.092   0.647
 7168SOL    HW122046   3.661   4.135   0.686
 7168SOL    HW222047   3.715   4.019   0.584
 7169SOL     OW22048   3.926   4.009   1.498
 7169SOL    HW122049   3.846   4.069   1.485
 7169SOL    HW222050   3.916   3.960   1.584
 7170SOL     OW22051   4.021   3.759   0.171
 7170SOL    HW122052   4.070   3.843   0.150
 7170SOL    HW222053   4.083   3.694   0.216
 7171SOL     OW22054   4.031   3.937   1.231
 7171SOL    HW122055   4.008   3.974   1.321
 7171SOL    HW222056   4.001   3.842   1.225
 7172SOL     OW22057   4.031   3.787   0.618
 7172SOL    HW122058   4.020   3.881   0.651
 7172SOL    HW222059   4.026   3.724   0.695
 7173SOL     OW22060   3.796   3.890   0.318
 7173SOL    HW122061   3.779   3.973   0.264
 7173SOL    HW222062   3.886   3.853   0.296
 7174SOL     OW22063   3.949   3.999   2.858
 7174SOL    HW122064   3.984   3.982   2.950
 7174SOL    HW222065   3.861   3.954   2.846
 7175SOL     OW22066   3.743   4.092   2.509
 7175SOL    HW122067   3.661   4.135   2.548
 7175SOL    HW222068   3.715   4.019   2.446
 7176SOL     OW22069   3.926   4.009   3.360
 7176SOL    HW122070   3.846   4.069   3.347
 7176SOL    HW222071   3.916   3.960   3.446
 7177SOL     OW22072   4.021   3.759   2.033
 7177SOL    HW122073   4.070   3.843   2.012
 7177SOL    HW222074   4.083   3.694   2.078
 7178SOL     OW22075   4.031   3.937   3.093
 7178SOL    HW122076   4.008   3.974   3.183
 7178SOL    HW222077   4.001   3.842   3.087
 7179SOL     OW22078   4.031   3.787   2.480
 7179SOL    HW122079   4.020   3.881   2.513
 7179SOL    HW222080   4.026   3.724   2.557
 7180SOL     OW22081   3.799   4.069   1.895
 7180SOL    HW122082   3.707   4.041   1.866
 7180SOL    HW222083   3.830   4.146   1.839
 7181SOL     OW22084   3.796   3.890   2.180
 7181SOL    HW122085   3.779   3.973   2.126
 7181SOL    HW222086   3.886   3.853   2.158
 7182SOL     OW22087   3.949   3.999   4.720
 7182SOL    HW122088   3.984   3.982   4.812
 7182SOL    HW222089   3.861   3.954   4.708
 7183SOL     OW22090   3.743   4.092   4.371
 7183SOL    HW122091   3.661   4.135   4.410
 7183SOL    HW222092   3.715   4.019   4.308
 7184SOL     OW22093   3.926   4.009   5.222
 7184SOL    HW122094   3.846   4.069   5.209
 7184SOL    HW222095   3.916   3.960   5.308
 7185SOL     OW22096   4.021   3.759   3.895
 7185SOL    HW122097   4.070   3.843   3.874
 7185SOL    HW222098   4.083   3.694   3.940
 7186SOL     OW22099   4.031   3.937   4.955
 7186SOL    HW122100   4.008   3.974   5.045
 7186SOL    HW222101   4.001   3.842   4.949
 7187SOL     OW22102   4.031   3.787   4.342
 7187SOL    HW122103   4.020   3.881   4.375
 7187SOL    HW222104   4.026   3.724   4.419
 7188SOL     OW22105   3.799   4.069   3.757
 7188SOL    HW122106   3.707   4.041   3.728
 7188SOL    HW222107   3.830   4.146   3.701
 7189SOL     OW22108   3.796   3.890   4.042
 7189SOL    HW122109   3.779   3.973   3.988
 7189SOL    HW222110   3.886   3.853   4.020
 7190SOL     OW22111   3.949   3.999   6.582
 7190SOL    HW122112   3.984   3.982   6.674
 7190SOL    HW222113   3.861   3.954   6.570
 7191SOL     OW22114   3.743   4.092   6.233
 7191SOL    HW122115   3.661   4.135   6.272
 7191SOL    HW222116   3.715   4.019   6.170
 7192SOL     OW22117   3.926   4.009   7.084
 7192SOL    HW122118   3.846   4.069   7.071
 7192SOL    HW222119   3.916   3.960   7.170
 7193SOL     OW22120   4.021   3.759   5.757
 7193SOL    HW122121   4.070   3.843   5.736
 7193SOL    HW222122   4.083   3.694   5.802
 7194SOL     OW22123   4.031   3.937   6.817
 7194SOL    HW122124   4.008   3.974   6.907
 7194SOL    HW222125   4.001   3.842   6.811
 7195SOL     OW22126   4.031   3.787   6.204
 7195SOL    HW122127   4.020   3.881   6.237
 7195SOL    HW222128   4.026   3.724   6.281
 7196SOL     OW22129   3.799   4.069   5.619
 7196SOL    HW122130   3.707   4.041   5.590
 7196SOL    HW222131   3.830   4.146   5.563
 7197SOL     OW22132   3.796   3.890   5.904
 7197SOL    HW122133   3.779   3.973   5.850
 7197SOL    HW222134   3.886   3.853   5.882
 7198SOL     OW22135   3.949   3.999   8.444
 7198SOL    HW122136   3.984   3.982   8.536
 7198SOL    HW222137   3.861   3.954   8.432
 7199SOL     OW22138   3.743   4.092   8.095
 7199SOL    HW122139   3.661   4.135   8.134
 7199SOL    HW222140   3.715   4.019   8.032
 7200SOL     OW22141   3.926   4.009   8.946
 7200SOL    HW122142   3.846   4.069   8.933
 7200SOL    HW222143   3.916   3.960   9.032
 7201SOL     OW22144   4.021   3.759   7.619
 7201SOL    HW122145   4.070   3.843   7.598
 7201SOL    HW222146   4.083   3.694   7.664
 7202SOL     OW22147   4.031   3.937   8.679
 7202SOL    HW122148   4.008   3.974   8.769
 7202SOL    HW222149   4.001   3.842   8.673
 7203SOL     OW22150   4.031   3.787   8.066
 7203SOL    HW122151   4.020   3.881   8.099
 7203SOL    HW222152   4.026   3.724   8.143
 7204SOL     OW22153   3.799   4.069   7.481
 7204SOL    HW122154   3.707   4.041   7.452
 7204SOL    HW222155   3.830   4.146   7.425
 7205SOL     OW22156   3.796   3.890   7.766
 7205SOL    HW122157   3.779   3.973   7.712
 7205SOL    HW222158   3.886   3.853   7.744
 7206SOL     OW22159   3.949   3.999  10.306
 7206SOL    HW122160   3.984   3.982  10.398
 7206SOL    HW222161   3.861   3.954  10.294
 7207SOL     OW22162   3.743   4.092   9.957
 7207SOL    HW122163   3.661   4.135   9.996
 7207SOL    HW222164   3.715   4.019   9.894
 7208SOL     OW22165   3.926   4.009  10.808
 7208SOL    HW122166   3.846   4.069  10.795
 7208SOL    HW222167   3.916   3.960  10.894
 7209SOL     OW22168   4.021   3.759   9.481
 7209SOL    HW122169   4.070   3.843   9.460
 7209SOL    HW222170   4.083   3.694   9.526
 7210SOL     OW22171   4.031   3.937  10.541
 7210SOL    HW122172   4.008   3.974  10.631
 7210SOL    HW222173   4.001   3.842  10.535
 7211SOL     OW22174   4.031   3.787   9.928
 7211SOL    HW122175   4.020   3.881   9.961
 7211SOL    HW222176   4.026   3.724  10.005
 7212SOL     OW22177   3.799   4.069   9.343
 7212SOL    HW122178   3.707   4.041   9.314
 7212SOL    HW222179   3.830   4.146   9.287
 7213SOL     OW22180   3.796   3.890   9.628
 7213SOL    HW122181   3.779   3.973   9.574
 7213SOL    HW222182   3.886   3.853   9.606
 7214SOL     OW22183   3.949   3.999  12.168
 7214SOL    HW122184   3.984   3.982  12.260
 7214SOL    HW222185   3.861   3.954  12.156
 7215SOL     OW22186   3.743   4.092  11.819
 7215SOL    HW122187   3.661   4.135  11.858
 7215SOL    HW222188   3.715   4.019  11.756
 7216SOL     OW22189   3.926   4.009  12.670
 7216SOL    HW122190   3.846   4.069  12.657
 7216SOL    HW222191   3.916   3.960  12.756
 7217SOL     OW22192   4.021   3.759  11.343
 7217SOL    HW122193   4.070   3.843  11.322
 7217SOL    HW222194   4.083   3.694  11.388
 7218SOL     OW22195   4.031   3.937  12.403
 7218SOL    HW122196   4.008   3.974  12.493
 7218SOL    HW222197   4.001   3.842  12.397
 7219SOL     OW22198   4.031   3.787  11.790
 7219SOL    HW122199   4.020   3.881  11.823
 7219SOL    HW222200   4.026   3.724  11.867
 7220SOL     OW22201   3.799   4.069  11.205
 7220SOL    HW122202   3.707   4.041  11.176
 7220SOL    HW222203   3.830   4.146  11.149
 7221SOL     OW22204   3.796   3.890  11.490
 7221SOL    HW122205   3.779   3.973  11.436
 7221SOL    HW222206   3.886   3.853  11.468
 7222SOL     OW22207   3.743   4.092  13.681
 7222SOL    HW122208   3.661   4.135  13.720
 7222SOL    HW222209   3.715   4.019  13.618
 7223SOL     OW22210   4.021   3.759  13.205
 7223SOL    HW122211   4.070   3.843  13.184
 7223SOL    HW222212   4.083   3.694  13.250
 7224SOL     OW22213   4.031   3.787  13.652
 7224SOL    HW122214   4.020   3.881  13.685
 7224SOL    HW222215   4.026   3.724  13.729
 7225SOL     OW22216   3.799   4.069  13.067
 7225SOL    HW122217   3.707   4.041  13.038
 7225SOL    HW222218   3.830   4.146  13.011
 7226SOL     OW22219   3.796   3.890  13.352
 7226SOL    HW122220   3.779   3.973  13.298
 7226SOL    HW222221   3.886   3.853  13.330
   4.00000   4.00000  13.90000
