Built with Packmol
22227
    1LIG      O    1   1.977   1.970   0.066
    1LIG      C    2   2.042   2.020   0.217
    1LIG     C1    3   1.971   1.967   0.377
    1LIG     O1    4   2.035   2.017   0.530
    1LIG     C2    5   1.970   1.968   0.681
    1LIG     C3    6   2.041   2.023   0.838
    1LIG     O2    7   1.977   1.975   0.990
    1LIG     C4    8   2.040   2.025   1.142
    1LIG     C5    9   1.968   1.971   1.300
    1LIG     O3   10   2.031   2.020   1.452
    1LIG     C6   11   1.966   1.971   1.603
    1LIG     C7   12   2.038   2.027   1.760
    1LIG     O4   13   1.974   1.979   1.913
    1LIG     C8   14   2.038   2.029   2.065
    1LIG     C9   15   1.965   1.973   2.221
    1LIG     O5   16   2.029   2.023   2.373
    1LIG    C10   17   1.965   1.974   2.525
    1LIG    C11   18   2.037   2.030   2.682
    1LIG     O6   19   1.973   1.981   2.833
    1LIG    C12   20   2.036   2.030   2.985
    1LIG    C13   21   1.963   1.975   3.142
    1LIG     O7   22   2.027   2.024   3.294
    1LIG    C14   23   1.963   1.975   3.446
    1LIG    C15   24   2.035   2.030   3.604
    1LIG     O8   25   1.971   1.982   3.757
    1LIG    C16   26   2.035   2.031   3.908
    1LIG    C17   27   1.964   1.976   4.066
    1LIG     O9   28   2.027   2.025   4.219
    1LIG    C18   29   1.962   1.976   4.369
    1LIG    C19   30   2.034   2.031   4.526
    1LIG    O10   31   1.971   1.982   4.678
    1LIG    C20   32   2.035   2.032   4.830
    1LIG    C21   33   1.962   1.976   4.986
    1LIG    O11   34   2.026   2.025   5.138
    1LIG    C22   35   1.962   1.976   5.290
    1LIG    C23   36   2.034   2.032   5.447
    1LIG    O12   37   1.970   1.983   5.598
    1LIG    C24   38   2.034   2.032   5.751
    1LIG    C25   39   1.962   1.977   5.909
    1LIG    O13   40   2.025   2.026   6.061
    1LIG    C26   41   1.961   1.977   6.212
    1LIG    C27   42   2.033   2.032   6.369
    1LIG    O14   43   1.969   1.983   6.521
    1LIG    C28   44   2.034   2.032   6.673
    1LIG    C29   45   1.962   1.976   6.831
    1LIG    O15   46   2.026   2.026   6.983
    1LIG    C30   47   1.962   1.976   7.134
    1LIG    C31   48   2.034   2.031   7.291
    1LIG    O16   49   1.970   1.982   7.442
    1LIG    C32   50   2.034   2.031   7.594
    1LIG    C33   51   1.962   1.976   7.752
    1LIG    O17   52   2.026   2.025   7.904
    1LIG    C34   53   1.962   1.975   8.056
    1LIG    C35   54   2.034   2.030   8.213
    1LIG    O18   55   1.970   1.981   8.365
    1LIG    C36   56   2.034   2.031   8.516
    1LIG    C37   57   1.963   1.975   8.674
    1LIG    O19   58   2.027   2.024   8.827
    1LIG    C38   59   1.963   1.974   8.978
    1LIG    C39   60   2.034   2.029   9.136
    1LIG    O20   61   1.971   1.980   9.288
    1LIG    C40   62   2.035   2.029   9.439
    1LIG    C41   63   1.964   1.974   9.597
    1LIG    O21   64   2.027   2.023   9.749
    1LIG    C42   65   1.963   1.973   9.900
    1LIG    C43   66   2.035   2.028  10.057
    1LIG    O22   67   1.972   1.979  10.209
    1LIG    C44   68   2.036   2.028  10.361
    1LIG    C45   69   1.964   1.972  10.518
    1LIG    O23   70   2.028   2.021  10.670
    1LIG    C46   71   1.964   1.972  10.822
    1LIG    C47   72   2.037   2.028  10.979
    1LIG    O24   73   1.973   1.978  11.130
    1LIG    C48   74   2.036   2.027  11.282
    1LIG    C49   75   1.964   1.971  11.439
    1LIG    O25   76   2.028   2.020  11.591
    1LIG    C50   77   1.965   1.971  11.743
    1LIG    C51   78   2.037   2.027  11.900
    1LIG    O26   79   1.974   1.977  12.051
    1LIG    C52   80   2.037   2.026  12.204
    1LIG    C53   81   1.965   1.970  12.360
    1LIG    O27   82   2.029   2.019  12.512
    1LIG    C54   83   1.966   1.969  12.664
    1LIG    C55   84   2.038   2.025  12.822
    1LIG    O28   85   1.974   1.975  12.974
    1LIG    C56   86   2.038   2.024  13.127
    1LIG    C57   87   1.967   1.968  13.285
    1LIG    O29   88   2.031   2.017  13.438
    1LIG    C58   89   1.967   1.967  13.589
    1LIG    C59   90   2.038   2.022  13.747
    1LIG      H   91   2.039   2.130   0.214
    1LIG     H1   92   2.147   1.989   0.215
    1LIG     H2   93   1.974   1.858   0.377
    1LIG     H3   94   1.866   1.998   0.375
    1LIG     H4   95   1.973   1.858   0.683
    1LIG     H5   96   1.865   1.999   0.682
    1LIG     H6   97   2.039   2.133   0.836
    1LIG     H7   98   2.147   1.992   0.837
    1LIG     H8   99   2.038   2.134   1.143
    1LIG     H9  100   2.145   1.994   1.145
    1LIG    H10  101   1.971   1.861   1.299
    1LIG    H11  102   1.863   2.001   1.297
    1LIG    H12  103   1.969   1.862   1.606
    1LIG    H13  104   1.861   2.002   1.604
    1LIG    H14  105   2.035   2.137   1.758
    1LIG    H15  106   2.143   1.997   1.759
    1LIG    H16  107   2.035   2.138   2.066
    1LIG    H17  108   2.143   1.998   2.067
    1LIG    H18  109   1.968   1.864   2.219
    1LIG    H19  110   1.860   2.005   2.219
    1LIG    H20  111   1.967   1.865   2.527
    1LIG    H21  112   1.859   2.005   2.527
    1LIG    H22  113   2.034   2.139   2.679
    1LIG    H23  114   2.142   1.999   2.680
    1LIG    H24  115   2.033   2.140   2.987
    1LIG    H25  116   2.141   1.999   2.988
    1LIG    H26  117   1.966   1.865   3.141
    1LIG    H27  118   1.858   2.006   3.140
    1LIG    H28  119   1.966   1.865   3.448
    1LIG    H29  120   1.858   2.006   3.448
    1LIG    H30  121   2.032   2.140   3.602
    1LIG    H31  122   2.140   1.999   3.603
    1LIG    H32  123   2.032   2.141   3.909
    1LIG    H33  124   2.140   2.000   3.910
    1LIG    H34  125   1.966   1.867   4.064
    1LIG    H35  126   1.858   2.007   4.064
    1LIG    H36  127   1.965   1.866   4.371
    1LIG    H37  128   1.857   2.007   4.371
    1LIG    H38  129   2.031   2.141   4.524
    1LIG    H39  130   2.139   2.000   4.524
    1LIG    H40  131   2.032   2.141   4.832
    1LIG    H41  132   2.140   2.001   4.832
    1LIG    H42  133   1.965   1.867   4.985
    1LIG    H43  134   1.857   2.007   4.984
    1LIG    H44  135   1.965   1.867   5.292
    1LIG    H45  136   1.857   2.007   5.292
    1LIG    H46  137   2.031   2.142   5.445
    1LIG    H47  138   2.140   2.001   5.445
    1LIG    H48  139   2.031   2.142   5.753
    1LIG    H49  140   2.139   2.001   5.753
    1LIG    H50  141   1.965   1.867   5.907
    1LIG    H51  142   1.857   2.008   5.907
    1LIG    H52  143   1.964   1.867   6.214
    1LIG    H53  144   1.856   2.008   6.214
    1LIG    H54  145   2.030   2.142   6.368
    1LIG    H55  146   2.138   2.001   6.367
    1LIG    H56  147   2.031   2.141   6.675
    1LIG    H57  148   2.139   2.001   6.675
    1LIG    H58  149   1.965   1.867   6.829
    1LIG    H59  150   1.857   2.007   6.830
    1LIG    H60  151   1.965   1.866   7.136
    1LIG    H61  152   1.857   2.007   7.136
    1LIG    H62  153   2.031   2.141   7.289
    1LIG    H63  154   2.139   2.001   7.289
    1LIG    H64  155   2.031   2.141   7.596
    1LIG    H65  156   2.139   2.000   7.596
    1LIG    H66  157   1.965   1.866   7.750
    1LIG    H67  158   1.857   2.007   7.751
    1LIG    H68  159   1.965   1.866   8.057
    1LIG    H69  160   1.857   2.006   8.057
    1LIG    H70  161   2.031   2.140   8.212
    1LIG    H71  162   2.139   2.000   8.211
    1LIG    H72  163   2.031   2.140   8.518
    1LIG    H73  164   2.140   2.000   8.518
    1LIG    H74  165   1.966   1.866   8.673
    1LIG    H75  166   1.858   2.006   8.673
    1LIG    H76  167   1.966   1.865   8.979
    1LIG    H77  168   1.858   2.005   8.979
    1LIG    H78  169   2.031   2.139   9.134
    1LIG    H79  170   2.140   1.998   9.134
    1LIG    H80  171   2.032   2.139   9.441
    1LIG    H81  172   2.140   1.999   9.440
    1LIG    H82  173   1.967   1.864   9.595
    1LIG    H83  174   1.858   2.004   9.595
    1LIG    H84  175   1.967   1.863   9.902
    1LIG    H85  176   1.858   2.004   9.902
    1LIG    H86  177   2.032   2.138  10.055
    1LIG    H87  178   2.141   1.998  10.055
    1LIG    H88  179   2.033   2.138  10.363
    1LIG    H89  180   2.141   1.998  10.363
    1LIG    H90  181   1.967   1.863  10.516
    1LIG    H91  182   1.859   2.003  10.516
    1LIG    H92  183   1.968   1.862  10.824
    1LIG    H93  184   1.859   2.002  10.824
    1LIG    H94  185   2.033   2.137  10.977
    1LIG    H95  186   2.142   1.997  10.977
    1LIG    H96  187   2.033   2.136  11.285
    1LIG    H97  188   2.141   1.996  11.284
    1LIG    H98  189   1.968   1.861  11.437
    1LIG    H99  190   1.859   2.001  11.438
    1LIG   H100  191   1.968   1.861  11.745
    1LIG   H101  192   1.860   2.001  11.746
    1LIG   H102  193   2.034   2.136  11.898
    1LIG   H103  194   2.142   1.996  11.898
    1LIG   H104  195   2.034   2.135  12.206
    1LIG   H105  196   2.142   1.995  12.206
    1LIG   H106  197   1.969   1.860  12.358
    1LIG   H107  198   1.860   2.000  12.359
    1LIG   H108  199   1.970   1.860  12.666
    1LIG   H109  200   1.861   2.000  12.666
    1LIG   H110  201   2.034   2.134  12.821
    1LIG   H111  202   2.143   1.994  12.820
    1LIG   H112  203   2.035   2.134  13.128
    1LIG   H113  204   2.144   1.994  13.128
    1LIG   H114  205   1.971   1.859  13.283
    1LIG   H115  206   1.862   1.999  13.284
    1LIG   H116  207   1.971   1.858  13.589
    1LIG   H117  208   1.862   1.999  13.590
    1LIG   H118  209   2.143   1.992  13.747
    1LIG   H119  210   1.991   1.985  13.866
    1MOL     C1  211   2.347   1.587   6.453
    1MOL     H1  212   2.355   1.480   6.430
    1MOL     O1  213   2.396   1.651   6.336
    1MOL     C2  214   2.393   1.795   6.338
    1MOL     H2  215   2.289   1.830   6.344
    1MOL     C3  216   2.455   1.841   6.208
    1MOL     H3  217   2.556   1.797   6.200
    1MOL     H4  218   2.465   1.950   6.208
    1MOL     O2  219   2.376   1.798   6.098
    1MOL     C4  220   2.432   1.840   5.975
    1MOL     C5  221   2.440   1.625   6.570
    1MOL     H5  222   2.541   1.594   6.541
    1MOL     O3  223   2.405   1.565   6.693
    1MOL     C6  224   2.441   1.428   6.704
    1MOL     C7  225   2.440   1.777   6.590
    1MOL     H6  226   2.341   1.808   6.626
    1MOL     O4  227   2.541   1.813   6.684
    1MOL     C8  228   2.493   1.844   6.814
    1MOL     C9  229   2.471   1.851   6.460
    1MOL     H7  230   2.579   1.841   6.441
    1MOL     O5  231   2.439   1.989   6.482
    1MOL    C10  232   2.532   2.087   6.444
    1MOL     H8  233   2.629   2.042   6.422
    1MOL     O6  234   2.495   2.153   6.324
    1MOL    C11  235   2.366   2.216   6.327
    1MOL     H9  236   2.288   2.142   6.349
    1MOL    C12  237   2.342   2.272   6.187
    1MOL    H10  238   2.428   2.335   6.159
    1MOL    H11  239   2.252   2.336   6.188
    1MOL     O7  240   2.325   2.165   6.096
    1MOL    C13  241   2.287   2.211   5.968
    1MOL    C14  242   2.545   2.194   6.554
    1MOL    H12  243   2.624   2.263   6.521
    1MOL     O8  244   2.579   2.142   6.681
    1MOL    C15  245   2.713   2.098   6.694
    1MOL    C16  246   2.416   2.275   6.570
    1MOL    H13  247   2.339   2.210   6.614
    1MOL     O9  248   2.440   2.388   6.653
    1MOL    C17  249   2.393   2.374   6.786
    1MOL    C18  250   2.364   2.326   6.435
    1MOL    H14  251   2.428   2.409   6.404
    1MOL    O10  252   2.230   2.374   6.458
    1MOL    C19  253   2.194   2.502   6.411
    1MOL    H15  254   2.283   2.556   6.377
    1MOL    O11  255   2.110   2.496   6.298
    1MOL    C20  256   1.987   2.425   6.316
    1MOL    H16  257   2.008   2.320   6.339
    1MOL    C21  258   1.912   2.435   6.184
    1MOL    H17  259   1.915   2.540   6.150
    1MOL    H18  260   1.807   2.406   6.198
    1MOL    O12  261   1.974   2.351   6.088
    1MOL    C22  262   1.907   2.355   5.963
    1MOL    C23  263   2.121   2.580   6.522
    1MOL    H19  264   2.099   2.680   6.480
    1MOL    O13  265   2.195   2.594   6.641
    1MOL    C24  266   2.302   2.687   6.635
    1MOL    C25  267   1.988   2.513   6.557
    1MOL    H20  268   2.009   2.418   6.606
    1MOL    O14  269   1.912   2.598   6.642
    1MOL    C26  270   1.915   2.562   6.779
    1MOL    C27  271   1.904   2.485   6.432
    1MOL    H21  272   1.859   2.581   6.399
    1MOL    O15  273   1.800   2.395   6.471
    1MOL    C28  274   1.666   2.425   6.441
    1MOL    H22  275   1.657   2.530   6.413
    1MOL    O16  276   1.619   2.353   6.328
    1MOL    C29  277   1.627   2.210   6.341
    1MOL    H23  278   1.732   2.181   6.356
    1MOL    C30  279   1.580   2.151   6.209
    1MOL    H24  280   1.606   2.044   6.206
    1MOL    H25  281   1.634   2.201   6.126
    1MOL    O17  282   1.440   2.168   6.195
    1MOL    C31  283   1.389   2.102   6.082
    1MOL    C32  284   1.576   2.391   6.561
    1MOL    H26  285   1.474   2.421   6.533
    1MOL    O18  286   1.614   2.456   6.681
    1MOL    C33  287   1.578   2.593   6.687
    1MOL    C34  288   1.575   2.240   6.589
    1MOL    H27  289   1.674   2.210   6.627
    1MOL    O19  290   1.474   2.210   6.684
    1MOL    C35  291   1.522   2.180   6.814
    1MOL    C36  292   1.545   2.161   6.462
    1MOL    H28  293   1.438   2.172   6.438
    1MOL    O20  294   1.575   2.023   6.490
    1MOL    C37  295   1.483   1.924   6.451
    1MOL    H29  296   1.387   1.970   6.424
    1MOL    O21  297   1.523   1.855   6.335
    1MOL    C38  298   1.651   1.789   6.346
    1MOL    H30  299   1.728   1.864   6.369
    1MOL    C39  300   1.682   1.729   6.209
    1MOL    H31  301   1.789   1.705   6.203
    1MOL    H32  302   1.661   1.805   6.132
    1MOL    O22  303   1.603   1.614   6.188
    1MOL    C40  304   1.641   1.545   6.070
    1MOL    C41  305   1.465   1.823   6.566
    1MOL    H33  306   1.387   1.752   6.533
    1MOL    O23  307   1.428   1.881   6.689
    1MOL    C42  308   1.294   1.926   6.695
    1MOL    C43  309   1.594   1.743   6.590
    1MOL    H34  310   1.669   1.810   6.633
    1MOL    O24  311   1.567   1.634   6.678
    1MOL    C44  312   1.613   1.653   6.810
    1MOL    C45  313   1.649   1.685   6.459
    1MOL    H35  314   1.585   1.601   6.428
    1MOL    O25  315   1.781   1.637   6.487
    1MOL    C46  316   1.818   1.509   6.442
    1MOL    H36  317   1.729   1.453   6.412
    1MOL    O26  318   1.899   1.513   6.326
    1MOL    C47  319   2.020   1.588   6.339
    1MOL    H37  320   1.997   1.692   6.364
    1MOL    C48  321   2.087   1.583   6.202
    1MOL    H38  322   2.096   1.478   6.170
    1MOL    H39  323   2.188   1.626   6.208
    1MOL    O27  324   2.007   1.656   6.111
    1MOL    C49  325   2.067   1.666   5.983
    1MOL    C50  326   1.896   1.436   6.553
    1MOL    H40  327   1.917   1.335   6.514
    1MOL    O28  328   1.827   1.426   6.675
    1MOL    C51  329   1.717   1.336   6.675
    1MOL    C52  330   2.030   1.505   6.580
    1MOL    H41  331   2.011   1.602   6.627
    1MOL    O29  332   2.111   1.423   6.664
    1MOL    C53  333   2.109   1.460   6.801
    1MOL    C54  334   2.109   1.530   6.451
    1MOL    H42  335   2.152   1.434   6.418
    1MOL    O30  336   2.215   1.622   6.483
    1MOL    H43  337   2.271   2.123   5.906
    1MOL    H44  338   2.194   2.269   5.973
    1MOL    H45  339   2.365   2.273   5.922
    1MOL    H46  340   2.364   1.807   5.896
    1MOL    H47  341   2.443   1.949   5.971
    1MOL    H48  342   2.531   1.794   5.958
    1MOL    H49  343   1.999   1.725   5.921
    1MOL    H50  344   2.164   1.716   5.989
    1MOL    H51  345   2.080   1.567   5.937
    1MOL    H52  346   1.579   1.455   6.064
    1MOL    H53  347   1.622   1.606   5.980
    1MOL    H54  348   1.747   1.517   6.072
    1MOL    H55  349   1.281   2.121   6.080
    1MOL    H56  350   1.433   2.141   5.988
    1MOL    H57  351   1.407   1.994   6.087
    1MOL    H58  352   1.960   2.287   5.896
    1MOL    H59  353   1.802   2.323   5.972
    1MOL    H60  354   1.909   2.456   5.920
    1MOL    H61  355   1.273   1.948   6.801
    1MOL    H62  356   1.278   2.018   6.638
    1MOL    H63  357   1.224   1.849   6.661
    1MOL    H64  358   1.434   2.166   6.877
    1MOL    H65  359   1.581   2.088   6.814
    1MOL    H66  360   1.581   2.263   6.855
    1MOL    H67  361   1.593   2.625   6.790
    1MOL    H68  362   1.641   2.656   6.622
    1MOL    H69  363   1.472   2.608   6.660
    1MOL    H70  364   1.858   2.640   6.832
    1MOL    H71  365   1.866   2.465   6.796
    1MOL    H72  366   2.018   2.560   6.818
    1MOL    H73  367   2.335   2.704   6.738
    1MOL    H74  368   2.387   2.649   6.577
    1MOL    H75  369   2.269   2.783   6.592
    1MOL    H76  370   2.423   2.466   6.839
    1MOL    H77  371   2.284   2.366   6.789
    1MOL    H78  372   2.439   2.288   6.836
    1MOL    H79  373   2.731   2.083   6.800
    1MOL    H80  374   2.731   2.004   6.641
    1MOL    H81  375   2.783   2.175   6.657
    1MOL    H82  376   2.581   1.863   6.876
    1MOL    H83  377   2.431   1.934   6.812
    1MOL    H84  378   2.436   1.760   6.857
    1MOL    H85  379   2.429   1.401   6.809
    1MOL    H86  380   2.375   1.364   6.644
    1MOL    H87  381   2.545   1.412   6.674
    1MOL    H88  382   2.169   1.386   6.854
    1MOL    H89  383   2.155   1.559   6.816
    1MOL    H90  384   2.007   1.460   6.842
    1MOL    H91  385   1.689   1.321   6.780
    1MOL    H92  386   1.631   1.377   6.621
    1MOL    H93  387   1.746   1.239   6.632
    1MOL    H94  388   1.581   1.565   6.867
    1MOL    H95  389   1.723   1.659   6.814
    1MOL    H96  390   1.570   1.743   6.856
    1MOL     C1  391   1.653   1.587   7.447
    1MOL     H1  392   1.646   1.480   7.469
    1MOL     O1  393   1.604   1.651   7.564
    1MOL     C2  394   1.607   1.795   7.562
    1MOL     H2  395   1.711   1.830   7.556
    1MOL     C3  396   1.545   1.841   7.692
    1MOL     H3  397   1.444   1.797   7.700
    1MOL     H4  398   1.535   1.950   7.692
    1MOL     O2  399   1.624   1.798   7.802
    1MOL     C4  400   1.568   1.840   7.925
    1MOL     C5  401   1.560   1.625   7.330
    1MOL     H5  402   1.459   1.594   7.359
    1MOL     O3  403   1.595   1.565   7.207
    1MOL     C6  404   1.560   1.428   7.196
    1MOL     C7  405   1.560   1.777   7.309
    1MOL     H6  406   1.659   1.808   7.274
    1MOL     O4  407   1.459   1.813   7.216
    1MOL     C8  408   1.508   1.844   7.086
    1MOL     C9  409   1.529   1.851   7.440
    1MOL     H7  410   1.421   1.841   7.459
    1MOL     O5  411   1.561   1.989   7.418
    1MOL    C10  412   1.469   2.087   7.456
    1MOL     H8  413   1.371   2.042   7.478
    1MOL     O6  414   1.505   2.153   7.576
    1MOL    C11  415   1.634   2.216   7.573
    1MOL     H9  416   1.712   2.142   7.550
    1MOL    C12  417   1.658   2.272   7.712
    1MOL    H10  418   1.572   2.335   7.741
    1MOL    H11  419   1.748   2.336   7.712
    1MOL     O7  420   1.675   2.165   7.804
    1MOL    C13  421   1.713   2.211   7.932
    1MOL    C14  422   1.455   2.194   7.346
    1MOL    H12  423   1.376   2.263   7.379
    1MOL     O8  424   1.421   2.142   7.219
    1MOL    C15  425   1.287   2.098   7.206
    1MOL    C16  426   1.584   2.275   7.330
    1MOL    H13  427   1.661   2.210   7.286
    1MOL     O9  428   1.560   2.388   7.247
    1MOL    C17  429   1.607   2.374   7.113
    1MOL    C18  430   1.637   2.326   7.465
    1MOL    H14  431   1.572   2.409   7.496
    1MOL    O10  432   1.770   2.374   7.442
    1MOL    C19  433   1.806   2.502   7.489
    1MOL    H15  434   1.717   2.556   7.522
    1MOL    O11  435   1.890   2.496   7.602
    1MOL    C20  436   2.013   2.425   7.584
    1MOL    H16  437   1.993   2.320   7.561
    1MOL    C21  438   2.088   2.435   7.716
    1MOL    H17  439   2.085   2.540   7.750
    1MOL    H18  440   2.193   2.406   7.702
    1MOL    O12  441   2.026   2.351   7.812
    1MOL    C22  442   2.093   2.355   7.937
    1MOL    C23  443   1.879   2.580   7.378
    1MOL    H19  444   1.901   2.680   7.420
    1MOL    O13  445   1.805   2.594   7.259
    1MOL    C24  446   1.698   2.687   7.265
    1MOL    C25  447   2.012   2.513   7.343
    1MOL    H20  448   1.991   2.418   7.294
    1MOL    O14  449   2.088   2.598   7.258
    1MOL    C26  450   2.085   2.562   7.121
    1MOL    C27  451   2.096   2.485   7.468
    1MOL    H21  452   2.141   2.581   7.500
    1MOL    O15  453   2.200   2.395   7.429
    1MOL    C28  454   2.334   2.425   7.459
    1MOL    H22  455   2.344   2.530   7.487
    1MOL    O16  456   2.381   2.353   7.572
    1MOL    C29  457   2.373   2.210   7.559
    1MOL    H23  458   2.268   2.181   7.544
    1MOL    C30  459   2.420   2.151   7.691
    1MOL    H24  460   2.394   2.044   7.694
    1MOL    H25  461   2.366   2.201   7.774
    1MOL    O17  462   2.560   2.168   7.705
    1MOL    C31  463   2.611   2.102   7.818
    1MOL    C32  464   2.424   2.391   7.338
    1MOL    H26  465   2.526   2.421   7.367
    1MOL    O18  466   2.386   2.456   7.219
    1MOL    C33  467   2.422   2.593   7.213
    1MOL    C34  468   2.425   2.240   7.311
    1MOL    H27  469   2.326   2.210   7.273
    1MOL    O19  470   2.526   2.210   7.216
    1MOL    C35  471   2.478   2.180   7.086
    1MOL    C36  472   2.455   2.161   7.438
    1MOL    H28  473   2.562   2.172   7.462
    1MOL    O20  474   2.425   2.023   7.410
    1MOL    C37  475   2.518   1.924   7.449
    1MOL    H29  476   2.613   1.970   7.476
    1MOL    O21  477   2.477   1.855   7.565
    1MOL    C38  478   2.349   1.789   7.554
    1MOL    H30  479   2.272   1.864   7.531
    1MOL    C39  480   2.318   1.729   7.691
    1MOL    H31  481   2.211   1.705   7.697
    1MOL    H32  482   2.339   1.805   7.768
    1MOL    O22  483   2.397   1.614   7.712
    1MOL    C40  484   2.359   1.545   7.830
    1MOL    C41  485   2.535   1.823   7.334
    1MOL    H33  486   2.613   1.752   7.366
    1MOL    O23  487   2.572   1.881   7.211
    1MOL    C42  488   2.706   1.926   7.204
    1MOL    C43  489   2.407   1.743   7.310
    1MOL    H34  490   2.331   1.810   7.267
    1MOL    O24  491   2.433   1.634   7.222
    1MOL    C44  492   2.387   1.653   7.089
    1MOL    C45  493   2.352   1.685   7.441
    1MOL    H35  494   2.416   1.601   7.471
    1MOL    O25  495   2.219   1.637   7.413
    1MOL    C46  496   2.182   1.509   7.458
    1MOL    H36  497   2.271   1.453   7.488
    1MOL    O26  498   2.101   1.513   7.574
    1MOL    C47  499   1.980   1.588   7.561
    1MOL    H37  500   2.003   1.692   7.536
    1MOL    C48  501   1.913   1.583   7.698
    1MOL    H38  502   1.904   1.478   7.729
    1MOL    H39  503   1.812   1.626   7.692
    1MOL    O27  504   1.993   1.656   7.789
    1MOL    C49  505   1.934   1.666   7.917
    1MOL    C50  506   2.104   1.436   7.347
    1MOL    H40  507   2.083   1.335   7.386
    1MOL    O28  508   2.173   1.426   7.224
    1MOL    C51  509   2.283   1.336   7.225
    1MOL    C52  510   1.970   1.505   7.320
    1MOL    H41  511   1.990   1.602   7.273
    1MOL    O29  512   1.889   1.423   7.236
    1MOL    C53  513   1.891   1.460   7.098
    1MOL    C54  514   1.891   1.530   7.449
    1MOL    H42  515   1.848   1.434   7.482
    1MOL    O30  516   1.786   1.622   7.417
    1MOL    H43  517   1.729   2.123   7.994
    1MOL    H44  518   1.806   2.269   7.927
    1MOL    H45  519   1.635   2.273   7.978
    1MOL    H46  520   1.636   1.807   8.004
    1MOL    H47  521   1.557   1.949   7.929
    1MOL    H48  522   1.469   1.794   7.942
    1MOL    H49  523   2.001   1.725   7.979
    1MOL    H50  524   1.836   1.716   7.911
    1MOL    H51  525   1.920   1.567   7.963
    1MOL    H52  526   2.421   1.455   7.836
    1MOL    H53  527   2.378   1.606   7.920
    1MOL    H54  528   2.253   1.517   7.828
    1MOL    H55  529   2.719   2.121   7.820
    1MOL    H56  530   2.567   2.141   7.911
    1MOL    H57  531   2.594   1.994   7.813
    1MOL    H58  532   2.040   2.287   8.004
    1MOL    H59  533   2.198   2.323   7.928
    1MOL    H60  534   2.091   2.456   7.980
    1MOL    H61  535   2.727   1.948   7.099
    1MOL    H62  536   2.722   2.018   7.262
    1MOL    H63  537   2.776   1.849   7.239
    1MOL    H64  538   2.567   2.166   7.023
    1MOL    H65  539   2.419   2.088   7.086
    1MOL    H66  540   2.419   2.263   7.045
    1MOL    H67  541   2.407   2.625   7.110
    1MOL    H68  542   2.359   2.656   7.278
    1MOL    H69  543   2.528   2.608   7.240
    1MOL    H70  544   2.142   2.640   7.067
    1MOL    H71  545   2.134   2.465   7.104
    1MOL    H72  546   1.982   2.560   7.082
    1MOL    H73  547   1.665   2.704   7.162
    1MOL    H74  548   1.613   2.649   7.323
    1MOL    H75  549   1.731   2.783   7.308
    1MOL    H76  550   1.577   2.466   7.061
    1MOL    H77  551   1.716   2.366   7.110
    1MOL    H78  552   1.561   2.288   7.064
    1MOL    H79  553   1.269   2.083   7.099
    1MOL    H80  554   1.269   2.004   7.258
    1MOL    H81  555   1.217   2.175   7.243
    1MOL    H82  556   1.420   1.863   7.024
    1MOL    H83  557   1.570   1.934   7.088
    1MOL    H84  558   1.564   1.760   7.043
    1MOL    H85  559   1.571   1.401   7.091
    1MOL    H86  560   1.625   1.364   7.256
    1MOL    H87  561   1.455   1.412   7.226
    1MOL    H88  562   1.831   1.386   7.045
    1MOL    H89  563   1.845   1.559   7.084
    1MOL    H90  564   1.993   1.460   7.058
    1MOL    H91  565   2.311   1.321   7.120
    1MOL    H92  566   2.369   1.377   7.279
    1MOL    H93  567   2.254   1.239   7.268
    1MOL    H94  568   2.419   1.565   7.033
    1MOL    H95  569   2.277   1.659   7.086
    1MOL    H96  570   2.430   1.743   7.044
    2SOL     OW  571   0.230   0.628   0.113
    2SOL    HW1  572   0.137   0.626   0.150
    2SOL    HW2  573   0.231   0.589   0.021
    3SOL     OW  574   0.225   0.275   0.996
    3SOL    HW1  575   0.260   0.258   1.088
    3SOL    HW2  576   0.137   0.230   0.984
    4SOL     OW  577   0.019   0.368   0.647
    4SOL    HW1  578  -0.063   0.411   0.686
    4SOL    HW2  579  -0.009   0.295   0.584
    5SOL     OW  580   0.569   1.275   1.165
    5SOL    HW1  581   0.476   1.268   1.128
    5SOL    HW2  582   0.580   1.364   1.209
    6SOL     OW  583   1.555   1.511   0.703
    6SOL    HW1  584   1.498   1.495   0.784
    6SOL    HW2  585   1.496   1.521   0.623
    7SOL     OW  586   1.135   0.703   0.717
    7SOL    HW1  587   1.192   0.781   0.692
    7SOL    HW2  588   1.075   0.729   0.793
    8SOL     OW  589   1.755   0.607   0.231
    8SOL    HW1  590   1.743   0.594   0.132
    8SOL    HW2  591   1.725   0.526   0.280
    9SOL     OW  592   0.768   1.144   1.023
    9SOL    HW1  593   0.690   1.161   1.083
    9SOL    HW2  594   0.802   1.231   0.987
   10SOL     OW  595   0.850   0.798   1.823
   10SOL    HW1  596   0.846   0.874   1.888
   10SOL    HW2  597   0.872   0.834   1.732
   11SOL     OW  598   0.685   1.012   0.665
   11SOL    HW1  599   0.754   0.996   0.735
   11SOL    HW2  600   0.612   1.069   0.703
   12SOL     OW  601   0.686   1.161   1.803
   12SOL    HW1  602   0.746   1.240   1.817
   12SOL    HW2  603   0.600   1.192   1.762
   13SOL     OW  604   0.335   1.435   1.061
   13SOL    HW1  605   0.257   1.404   1.008
   13SOL    HW2  606   0.393   1.493   1.004
   14SOL     OW  607   1.460   1.505   1.339
   14SOL    HW1  608   1.484   1.599   1.365
   14SOL    HW2  609   1.444   1.451   1.421
   15SOL     OW  610   0.438   0.392   1.499
   15SOL    HW1  611   0.520   0.336   1.508
   15SOL    HW2  612   0.357   0.334   1.503
   16SOL     OW  613   1.603   0.447   0.737
   16SOL    HW1  614   1.529   0.493   0.687
   16SOL    HW2  615   1.654   0.515   0.790
   17SOL     OW  616   0.231   1.713   0.483
   17SOL    HW1  617   0.265   1.790   0.537
   17SOL    HW2  618   0.275   1.713   0.393
   18SOL     OW  619   1.127   1.341   1.690
   18SOL    HW1  620   1.174   1.341   1.778
   18SOL    HW2  621   1.079   1.254   1.679
   19SOL     OW  622   0.230   1.434   0.538
   19SOL    HW1  623   0.204   1.530   0.538
   19SOL    HW2  624   0.159   1.380   0.583
   20SOL     OW  625   0.240   1.091   0.886
   20SOL    HW1  626   0.254   1.007   0.938
   20SOL    HW2  627   0.185   1.155   0.941
   21SOL     OW  628   0.620   1.786   1.439
   21SOL    HW1  629   0.528   1.769   1.474
   21SOL    HW2  630   0.648   1.878   1.465
   22SOL     OW  631   0.606   0.964   0.123
   22SOL    HW1  632   0.613   1.048   0.069
   22SOL    HW2  633   0.652   0.977   0.211
   23SOL     OW  634   1.594   0.114   1.480
   23SOL    HW1  635   1.576   0.181   1.408
   23SOL    HW2  636   1.591   0.160   1.569
   24SOL     OW  637   0.122   0.643   0.563
   24SOL    HW1  638   0.077   0.555   0.580
   24SOL    HW2  639   0.121   0.697   0.647
   25SOL     OW  640   0.027   1.596   0.117
   25SOL    HW1  641   0.008   1.500   0.138
   25SOL    HW2  642  -0.006   1.654   0.192
   26SOL     OW  643   1.689   0.922   0.612
   26SOL    HW1  644   1.784   0.893   0.620
   26SOL    HW2  645   1.681   0.987   0.537
   27SOL     OW  646   1.641   1.108   0.432
   27SOL    HW1  647   1.727   1.110   0.380
   27SOL    HW2  648   1.655   1.155   0.520
   28SOL     OW  649   0.113   0.737   1.597
   28SOL    HW1  650   0.201   0.724   1.642
   28SOL    HW2  651   0.100   0.834   1.575
   29SOL     OW  652   0.613   1.365   0.726
   29SOL    HW1  653   0.564   1.278   0.735
   29SOL    HW2  654   0.590   1.408   0.639
   30SOL     OW  655   1.293   1.228   1.423
   30SOL    HW1  656   1.330   1.155   1.365
   30SOL    HW2  657   1.345   1.233   1.508
   31SOL     OW  658   0.809   0.004   0.502
   31SOL    HW1  659   0.849   0.095   0.493
   31SOL    HW2  660   0.709   0.012   0.508
   32SOL     OW  661   0.197   0.976   1.264
   32SOL    HW1  662   0.286   0.931   1.250
   32SOL    HW2  663   0.124   0.911   1.245
   33SOL     OW  664   1.525   0.999   0.190
   33SOL    HW1  665   1.462   0.923   0.203
   33SOL    HW2  666   1.573   1.017   0.276
   34SOL     OW  667   1.187   1.792   1.616
   34SOL    HW1  668   1.211   1.852   1.540
   34SOL    HW2  669   1.194   1.697   1.586
   35SOL     OW  670   0.317   0.251   1.801
   35SOL    HW1  671   0.388   0.322   1.807
   35SOL    HW2  672   0.229   0.290   1.829
   36SOL     OW  673   1.466   1.417   0.953
   36SOL    HW1  674   1.407   1.423   1.033
   36SOL    HW2  675   1.451   1.329   0.907
   37SOL     OW  676   1.667   1.714   0.572
   37SOL    HW1  677   1.626   1.691   0.484
   37SOL    HW2  678   1.649   1.640   0.637
   38SOL     OW  679   0.598   0.729   0.270
   38SOL    HW1  680   0.622   0.798   0.202
   38SOL    HW2  681   0.520   0.762   0.324
   39SOL     OW  682   1.281   0.345   0.944
   39SOL    HW1  683   1.195   0.295   0.931
   39SOL    HW2  684   1.343   0.291   1.000
   40SOL     OW  685   1.576   1.662   0.307
   40SOL    HW1  686   1.665   1.708   0.310
   40SOL    HW2  687   1.555   1.638   0.212
   41SOL     OW  688   0.807   0.605   1.465
   41SOL    HW1  689   0.760   0.602   1.554
   41SOL    HW2  690   0.756   0.550   1.399
   42SOL     OW  691   1.394   0.469   1.674
   42SOL    HW1  692   1.374   0.512   1.762
   42SOL    HW2  693   1.472   0.407   1.683
   43SOL     OW  694   0.973   0.890   1.572
   43SOL    HW1  695   1.019   0.806   1.543
   43SOL    HW2  696   0.917   0.924   1.497
   44SOL     OW  697   0.991   0.410   1.242
   44SOL    HW1  698   0.914   0.444   1.296
   44SOL    HW2  699   0.957   0.359   1.163
   45SOL     OW  700   1.041   0.701   0.429
   45SOL    HW1  701   1.067   0.697   0.525
   45SOL    HW2  702   0.956   0.650   0.415
   46SOL     OW  703   0.076   0.811   0.789
   46SOL    HW1  704   0.175   0.799   0.798
   46SOL    HW2  705   0.052   0.906   0.810
   47SOL     OW  706   0.130   1.821   1.571
   47SOL    HW1  707   0.120   1.806   1.670
   47SOL    HW2  708   0.044   1.857   1.535
   48SOL     OW  709   0.865   0.348   0.195
   48SOL    HW1  710   0.924   0.411   0.146
   48SOL    HW2  711   0.884   0.254   0.166
   49SOL     OW  712   1.719   0.585   1.831
   49SOL    HW1  713   1.693   0.674   1.795
   49SOL    HW2  714   1.717   0.517   1.758
   50SOL     OW  715   1.362   1.144   0.545
   50SOL    HW1  716   1.445   1.115   0.497
   50SOL    HW2  717   1.313   1.211   0.489
   51SOL     OW  718   0.550   0.196   0.885
   51SOL    HW1  719   0.545   0.191   0.985
   51SOL    HW2  720   0.552   0.292   0.856
   52SOL     OW  721   1.008   1.456   0.477
   52SOL    HW1  722   0.962   1.528   0.425
   52SOL    HW2  723   1.004   1.476   0.575
   53SOL     OW  724   0.351   1.801   0.853
   53SOL    HW1  725   0.401   1.715   0.859
   53SOL    HW2  726   0.416   1.878   0.850
   54SOL     OW  727   1.795   1.066   0.873
   54SOL    HW1  728   1.733   1.051   0.797
   54SOL    HW2  729   1.743   1.077   0.958
   55SOL     OW  730   1.227   1.550   1.506
   55SOL    HW1  731   1.233   1.473   1.570
   55SOL    HW2  732   1.175   1.524   1.426
   56SOL     OW  733   0.321   0.943   0.242
   56SOL    HW1  734   0.403   0.982   0.200
   56SOL    HW2  735   0.294   0.861   0.193
   57SOL     OW  736   1.458   0.735   0.728
   57SOL    HW1  737   1.453   0.670   0.803
   57SOL    HW2  738   1.538   0.794   0.741
   58SOL     OW  739   0.461   1.266   1.727
   58SOL    HW1  740   0.411   1.267   1.641
   58SOL    HW2  741   0.398   1.248   1.803
   59SOL     OW  742   1.111   1.776   0.237
   59SOL    HW1  743   1.051   1.714   0.287
   59SOL    HW2  744   1.142   1.732   0.152
   60SOL     OW  745   0.202   0.285   1.498
   60SOL    HW1  746   0.122   0.345   1.485
   60SOL    HW2  747   0.192   0.236   1.584
   61SOL     OW  748   1.632   1.377   0.081
   61SOL    HW1  749   1.600   1.471   0.071
   61SOL    HW2  750   1.556   1.314   0.069
   62SOL     OW  751   0.464   1.743   0.323
   62SOL    HW1  752   0.497   1.782   0.409
   62SOL    HW2  753   0.540   1.736   0.258
   63SOL     OW  754   1.400   0.107   0.426
   63SOL    HW1  755   1.376   0.070   0.336
   63SOL    HW2  756   1.499   0.123   0.430
   64SOL     OW  757   0.249   1.785   1.241
   64SOL    HW1  758   0.306   1.720   1.291
   64SOL    HW2  759   0.233   1.752   1.148
   65SOL     OW  760   0.940   1.698   0.904
   65SOL    HW1  761   1.020   1.641   0.925
   65SOL    HW2  762   0.891   1.658   0.827
   66SOL     OW  763   0.382   0.700   0.480
   66SOL    HW1  764   0.427   0.610   0.477
   66SOL    HW2  765   0.288   0.689   0.513
   67SOL     OW  766   1.547   0.222   1.729
   67SOL    HW1  767   1.542   0.259   1.821
   67SOL    HW2  768   1.475   0.153   1.717
   68SOL     OW  769   0.614   0.122   0.117
   68SOL    HW1  770   0.712   0.100   0.124
   68SOL    HW2  771   0.583   0.105   0.024
   69SOL     OW  772   0.781   0.264   1.749
   69SOL    HW1  773   0.848   0.203   1.792
   69SOL    HW2  774   0.708   0.283   1.814
   70SOL     OW  775   0.888   1.514   1.195
   70SOL    HW1  776   0.865   1.489   1.101
   70SOL    HW2  777   0.949   1.445   1.234
   71SOL     OW  778   1.351   0.590   1.433
   71SOL    HW1  779   1.379   0.547   1.518
   71SOL    HW2  780   1.376   0.686   1.434
   72SOL     OW  781   0.803   1.402   0.924
   72SOL    HW1  782   0.893   1.416   0.882
   72SOL    HW2  783   0.732   1.404   0.853
   73SOL     OW  784   0.922   0.503   0.899
   73SOL    HW1  785   0.897   0.494   0.803
   73SOL    HW2  786   0.970   0.421   0.930
   74SOL     OW  787   0.539   0.064   0.512
   74SOL    HW1  788   0.458   0.065   0.570
   74SOL    HW2  789   0.542   0.147   0.457
   75SOL     OW  790   1.434   1.188   0.041
   75SOL    HW1  791   1.466   1.112   0.098
   75SOL    HW2  792   1.342   1.215   0.071
   76SOL     OW  793   0.297   0.035   0.171
   76SOL    HW1  794   0.346   0.119   0.150
   76SOL    HW2  795   0.359  -0.030   0.216
   77SOL     OW  796   0.935   0.236   0.480
   77SOL    HW1  797   0.887   0.277   0.402
   77SOL    HW2  798   1.034   0.234   0.461
   78SOL     OW  799   1.076   0.683   1.464
   78SOL    HW1  800   0.996   0.622   1.467
   78SOL    HW2  801   1.157   0.630   1.440
   79SOL     OW  802   1.227   1.570   0.793
   79SOL    HW1  803   1.248   1.644   0.728
   79SOL    HW2  804   1.295   1.570   0.866
   80SOL     OW  805   0.459   1.152   0.741
   80SOL    HW1  806   0.388   1.125   0.806
   80SOL    HW2  807   0.433   1.124   0.648
   81SOL     OW  808   1.271   1.797   0.591
   81SOL    HW1  809   1.315   1.861   0.527
   81SOL    HW2  810   1.221   1.849   0.661
   82SOL     OW  811   1.032   0.549   0.016
   82SOL    HW1  812   0.991   0.631  -0.023
   82SOL    HW2  813   1.096   0.575   0.089
   83SOL     OW  814   0.078   0.556   1.386
   83SOL    HW1  815   0.170   0.555   1.345
   83SOL    HW2  816   0.072   0.630   1.453
   84SOL     OW  817   0.561   0.222   1.147
   84SOL    HW1  818   0.599   0.138   1.184
   84SOL    HW2  819   0.473   0.241   1.191
   85SOL     OW  820   0.866   0.454   0.642
   85SOL    HW1  821   0.834   0.526   0.580
   85SOL    HW2  822   0.890   0.373   0.589
   86SOL     OW  823   1.017   0.039   0.753
   86SOL    HW1  824   0.945   0.044   0.684
   86SOL    HW2  825   0.993  -0.030   0.822
   87SOL     OW  826   1.429   1.173   0.867
   87SOL    HW1  827   1.374   1.089   0.860
   87SOL    HW2  828   1.455   1.202   0.775
   88SOL     OW  829   1.466   0.590   0.992
   88SOL    HW1  830   1.436   0.495   0.999
   88SOL    HW2  831   1.539   0.606   1.058
   89SOL     OW  832   1.857   0.833   0.377
   89SOL    HW1  833   1.899   0.769   0.441
   89SOL    HW2  834   1.819   0.782   0.299
   90SOL     OW  835   0.488   1.385   0.174
   90SOL    HW1  836   0.401   1.370   0.221
   90SOL    HW2  837   0.471   1.411   0.079
   91SOL     OW  838   1.664   1.280   0.657
   91SOL    HW1  839   1.763   1.288   0.671
   91SOL    HW2  840   1.619   1.364   0.688
   92SOL     OW  841   1.390   0.575   0.078
   92SOL    HW1  842   1.336   0.554   0.159
   92SOL    HW2  843   1.481   0.534   0.087
   93SOL     OW  844   0.527   0.256   0.328
   93SOL    HW1  845   0.554   0.197   0.253
   93SOL    HW2  846   0.527   0.351   0.297
   94SOL     OW  847   1.754   1.223   1.588
   94SOL    HW1  848   1.845   1.184   1.575
   94SOL    HW2  849   1.762   1.319   1.612
   95SOL     OW  850   1.064   1.347   1.340
   95SOL    HW1  851   0.984   1.324   1.395
   95SOL    HW2  852   1.147   1.321   1.389
   96SOL     OW  853   1.592   1.629   1.625
   96SOL    HW1  854   1.619   1.663   1.535
   96SOL    HW2  855   1.671   1.591   1.671
   97SOL     OW  856   1.111   1.195   1.100
   97SOL    HW1  857   1.071   1.239   1.181
   97SOL    HW2  858   1.070   1.232   1.017
   98SOL     OW  859   1.638   1.099   1.079
   98SOL    HW1  860   1.643   1.180   1.138
   98SOL    HW2  861   1.552   1.101   1.028
   99SOL     OW  862   0.915   0.089   1.402
   99SOL    HW1  863   0.940   0.069   1.307
   99SOL    HW2  864   0.987   0.145   1.444
  100SOL     OW  865   0.980   1.116   1.719
  100SOL    HW1  866   0.881   1.122   1.729
  100SOL    HW2  867   1.003   1.036   1.663
  101SOL     OW  868   0.705   1.050   0.368
  101SOL    HW1  869   0.691   1.057   0.467
  101SOL    HW2  870   0.789   0.999   0.350
  102SOL     OW  871   0.410   0.813   1.251
  102SOL    HW1  872   0.496   0.825   1.301
  102SOL    HW2  873   0.368   0.726   1.278
  103SOL     OW  874   1.274   0.386   1.262
  103SOL    HW1  875   1.295   0.460   1.326
  103SOL    HW2  876   1.185   0.403   1.219
  104SOL     OW  877   0.064   1.564   1.331
  104SOL    HW1  878   0.018   1.646   1.297
  104SOL    HW2  879   0.162   1.583   1.340
  105SOL     OW  880   0.367   1.100   0.501
  105SOL    HW1  881   0.360   1.183   0.445
  105SOL    HW2  882   0.371   1.020   0.441
  106SOL     OW  883   0.566   0.537   0.865
  106SOL    HW1  884   0.578   0.603   0.791
  106SOL    HW2  885   0.612   0.571   0.948
  107SOL     OW  886   1.252   1.348   0.388
  107SOL    HW1  887   1.302   1.425   0.428
  107SOL    HW2  888   1.157   1.350   0.420
  108SOL     OW  889   1.272   1.445   1.142
  108SOL    HW1  890   1.319   1.458   1.229
  108SOL    HW2  891   1.206   1.371   1.151
  109SOL     OW  892   1.582   0.639   0.472
  109SOL    HW1  893   1.551   0.700   0.545
  109SOL    HW2  894   1.632   0.691   0.403
  110SOL     OW  895   0.354   1.510   1.329
  110SOL    HW1  896   0.333   1.466   1.242
  110SOL    HW2  897   0.451   1.536   1.332
  111SOL     OW  898   0.402   0.751   1.598
  111SOL    HW1  899   0.470   0.806   1.551
  111SOL    HW2  900   0.442   0.663   1.625
  112SOL     OW  901   1.587   0.779   1.670
  112SOL    HW1  902   1.495   0.817   1.665
  112SOL    HW2  903   1.647   0.826   1.605
  113SOL     OW  904   1.013   0.105   1.770
  113SOL    HW1  905   1.019   0.190   1.718
  113SOL    HW2  906   1.045   0.029   1.713
  114SOL     OW  907   0.504   0.050   1.740
  114SOL    HW1  908   0.462  -0.007   1.670
  114SOL    HW2  909   0.438   0.119   1.772
  115SOL     OW  910   0.573   0.870   1.029
  115SOL    HW1  911   0.617   0.959   1.020
  115SOL    HW2  912   0.510   0.870   1.106
  116SOL     OW  913   1.360   0.862   1.045
  116SOL    HW1  914   1.285   0.862   0.979
  116SOL    HW2  915   1.397   0.770   1.054
  117SOL     OW  916   1.209   0.525   0.275
  117SOL    HW1  917   1.222   0.441   0.329
  117SOL    HW2  918   1.180   0.599   0.335
  118SOL     OW  919   0.307   0.213   1.231
  118SOL    HW1  920   0.284   0.250   1.321
  118SOL    HW2  921   0.277   0.118   1.225
  119SOL     OW  922   0.037   1.310   1.282
  119SOL    HW1  923   0.090   1.261   1.350
  119SOL    HW2  924   0.059   1.408   1.287
  120SOL     OW  925   0.732   0.634   1.064
  120SOL    HW1  926   0.791   0.608   0.988
  120SOL    HW2  927   0.704   0.730   1.053
  121SOL     OW  928   1.728   0.935   1.854
  121SOL    HW1  929   1.682   0.928   1.765
  121SOL    HW2  930   1.666   0.979   1.920
  122SOL     OW  931   0.307   0.063   0.618
  122SOL    HW1  932   0.296   0.157   0.651
  122SOL    HW2  933   0.302   0.000   0.695
  123SOL     OW  934   1.622   0.367   0.374
  123SOL    HW1  935   1.624   0.291   0.438
  123SOL    HW2  936   1.574   0.444   0.414
  124SOL     OW  937   1.023   0.766   0.966
  124SOL    HW1  938   1.038   0.787   1.062
  124SOL    HW2  939   0.993   0.671   0.957
  125SOL     OW  940   0.980   1.573   1.700
  125SOL    HW1  941   0.960   1.617   1.612
  125SOL    HW2  942   1.019   1.482   1.684
  126SOL     OW  943   1.859   1.518   1.605
  126SOL    HW1  944   1.873   1.545   1.510
  126SOL    HW2  945   1.942   1.540   1.658
  127SOL     OW  946   0.350   0.898   1.804
  127SOL    HW1  947   0.426   0.942   1.852
  127SOL    HW2  948   0.385   0.851   1.722
  128SOL     OW  949   1.540   0.274   0.125
  128SOL    HW1  950   1.479   0.199   0.148
  128SOL    HW2  951   1.562   0.326   0.208
  129SOL     OW  952   1.303   0.838   0.042
  129SOL    HW1  953   1.337   0.745   0.057
  129SOL    HW2  954   1.321   0.865  -0.053
  130SOL     OW  955   1.068   1.333   0.849
  130SOL    HW1  956   1.075   1.249   0.794
  130SOL    HW2  957   1.130   1.402   0.813
  131SOL     OW  958   0.319   0.810   0.949
  131SOL    HW1  959   0.412   0.846   0.954
  131SOL    HW2  960   0.313   0.725   1.001
  132SOL     OW  961   0.339   0.509   1.006
  132SOL    HW1  962   0.287   0.426   0.989
  132SOL    HW2  963   0.416   0.514   0.942
  133SOL     OW  964   1.138   0.380   1.678
  133SOL    HW1  965   1.093   0.443   1.742
  133SOL    HW2  966   1.231   0.411   1.661
  134SOL     OW  967   1.160   0.207   1.477
  134SOL    HW1  968   1.160   0.271   1.554
  134SOL    HW2  969   1.188   0.255   1.394
  135SOL     OW  970   0.008   1.326   0.200
  135SOL    HW1  971  -0.085   1.347   0.169
  135SOL    HW2  972   0.018   1.227   0.213
  136SOL     OW  973   0.088   1.801   0.927
  136SOL    HW1  974   0.046   1.715   0.900
  136SOL    HW2  975   0.182   1.804   0.893
  137SOL     OW  976   0.504   1.568   0.910
  137SOL    HW1  977   0.570   1.642   0.919
  137SOL    HW2  978   0.548   1.489   0.868
  138SOL     OW  979   1.002   0.796   1.238
  138SOL    HW1  980   1.043   0.764   1.324
  138SOL    HW2  981   0.906   0.769   1.235
  139SOL     OW  982   0.040   0.544   1.114
  139SOL    HW1  983   0.125   0.511   1.073
  139SOL    HW2  984   0.053   0.559   1.212
  140SOL     OW  985   0.189   0.520   1.722
  140SOL    HW1  986   0.248   0.480   1.652
  140SOL    HW2  987   0.131   0.591   1.681
  141SOL     OW  988   1.369   0.950   1.660
  141SOL    HW1  989   1.408   1.039   1.680
  141SOL    HW2  990   1.379   0.930   1.563
  142SOL     OW  991   0.815   0.572   0.325
  142SOL    HW1  992   0.822   0.483   0.279
  142SOL    HW2  993   0.721   0.606   0.317
  143SOL     OW  994   1.657   0.604   1.206
  143SOL    HW1  995   1.619   0.535   1.268
  143SOL    HW2  996   1.739   0.568   1.162
  144SOL     OW  997   0.252   1.564   1.744
  144SOL    HW1  998   0.222   1.621   1.820
  144SOL    HW2  999   0.245   1.467   1.770
  145SOL     OW 1000   0.671   0.464   1.269
  145SOL    HW1 1001   0.637   0.375   1.239
  145SOL    HW2 1002   0.697   0.518   1.189
  146SOL     OW 1003   0.930   1.678   1.465
  146SOL    HW1 1004   0.906   1.660   1.370
  146SOL    HW2 1005   0.960   1.772   1.475
  147SOL     OW 1006   0.473   0.500   0.191
  147SOL    HW1 1007   0.534   0.580   0.195
  147SOL    HW2 1008   0.378   0.531   0.198
  148SOL     OW 1009   0.159   1.137   1.466
  148SOL    HW1 1010   0.181   1.076   1.542
  148SOL    HW2 1011   0.169   1.088   1.380
  149SOL     OW 1012   1.347   1.059   1.234
  149SOL    HW1 1013   1.371   0.996   1.160
  149SOL    HW2 1014   1.257   1.099   1.216
  150SOL     OW 1015   1.302   0.855   0.309
  150SOL    HW1 1016   1.216   0.824   0.351
  150SOL    HW2 1017   1.298   0.841   0.210
  151SOL     OW 1018   1.759   1.747   1.154
  151SOL    HW1 1019   1.820   1.777   1.081
  151SOL    HW2 1020   1.721   1.658   1.132
  152SOL     OW 1021   1.252   1.731   1.128
  152SOL    HW1 1022   1.336   1.736   1.074
  152SOL    HW2 1023   1.229   1.635   1.146
  153SOL     OW 1024   0.083   1.258   1.022
  153SOL    HW1 1025   0.078   1.257   1.122
  153SOL    HW2 1026   0.000   1.217   0.984
  154SOL     OW 1027   0.688   1.662   1.716
  154SOL    HW1 1028   0.632   1.743   1.725
  154SOL    HW2 1029   0.740   1.666   1.630
  155SOL     OW 1030   0.903   0.086   0.133
  155SOL    HW1 1031   0.954   0.087   0.047
  155SOL    HW2 1032   0.959   0.044   0.204
  156SOL     OW 1033   1.726   0.135   0.523
  156SOL    HW1 1034   1.799   0.118   0.456
  156SOL    HW2 1035   1.695   0.048   0.561
  157SOL     OW 1036   1.388   1.573   0.477
  157SOL    HW1 1037   1.455   1.585   0.403
  157SOL    HW2 1038   1.348   1.662   0.500
  158SOL     OW 1039   0.130   1.794   1.851
  158SOL    HW1 1040   0.089   1.720   1.904
  158SOL    HW2 1041   0.194   1.845   1.909
  159SOL     OW 1042   1.280   0.927   0.672
  159SOL    HW1 1043   1.340   0.846   0.674
  159SOL    HW2 1044   1.320   0.996   0.612
  160SOL     OW 1045   0.830   1.273   1.422
  160SOL    HW1 1046   0.825   1.306   1.517
  160SOL    HW2 1047   0.744   1.292   1.376
  161SOL     OW 1048   0.672   1.616   0.154
  161SOL    HW1 1049   0.681   1.626   0.055
  161SOL    HW2 1050   0.632   1.527   0.175
  162SOL     OW 1051   1.650   1.720   1.394
  162SOL    HW1 1052   1.703   1.730   1.310
  162SOL    HW2 1053   1.623   1.810   1.428
  163SOL     OW 1054   1.841   0.175   0.963
  163SOL    HW1 1055   1.880   0.090   0.927
  163SOL    HW2 1056   1.743   0.177   0.944
  164SOL     OW 1057   0.263   0.326   0.720
  164SOL    HW1 1058   0.184   0.377   0.686
  164SOL    HW2 1059   0.254   0.311   0.818
  165SOL     OW 1060   1.194   1.612   0.031
  165SOL    HW1 1061   1.200   1.519   0.068
  165SOL    HW2 1062   1.135   1.612  -0.049
  166SOL     OW 1063   0.822   1.002   1.372
  166SOL    HW1 1064   0.862   1.001   1.280
  166SOL    HW2 1065   0.832   1.094   1.412
  167SOL     OW 1066   0.916   0.910   0.291
  167SOL    HW1 1067   0.979   0.948   0.223
  167SOL    HW2 1068   0.956   0.827   0.330
  168SOL     OW 1069   1.504   1.607   0.044
  168SOL    HW1 1070   1.412   1.644   0.051
  168SOL    HW2 1071   1.542   1.627  -0.046
  169SOL     OW 1072   0.372   1.288   1.490
  169SOL    HW1 1073   0.359   1.381   1.456
  169SOL    HW2 1074   0.288   1.236   1.477
  170SOL     OW 1075   1.614   1.292   1.289
  170SOL    HW1 1076   1.674   1.295   1.369
  170SOL    HW2 1077   1.539   1.356   1.302
  171SOL     OW 1078   1.039   1.098   0.696
  171SOL    HW1 1079   0.969   1.051   0.750
  171SOL    HW2 1080   1.098   1.030   0.653
  172SOL     OW 1081   1.014   0.236   0.971
  172SOL    HW1 1082   1.006   0.200   0.878
  172SOL    HW2 1083   1.012   0.160   1.036
  173SOL     OW 1084   0.590   1.487   0.491
  173SOL    HW1 1085   0.632   1.429   0.421
  173SOL    HW2 1086   0.546   1.566   0.447
  174SOL     OW 1087   1.709   0.385   1.381
  174SOL    HW1 1088   1.782   0.454   1.385
  174SOL    HW2 1089   1.737   0.310   1.322
  175SOL     OW 1090   0.255   1.348   0.290
  175SOL    HW1 1091   0.159   1.349   0.263
  175SOL    HW2 1092   0.267   1.401   0.374
  176SOL     OW 1093   0.105   1.013   1.726
  176SOL    HW1 1094   0.028   0.980   1.780
  176SOL    HW2 1095   0.190   0.983   1.768
  177SOL     OW 1096   0.672   0.203   1.489
  177SOL    HW1 1097   0.762   0.187   1.449
  177SOL    HW2 1098   0.680   0.208   1.588
  178SOL     OW 1099   0.075   0.345   0.033
  178SOL    HW1 1100  -0.017   0.317   0.004
  178SOL    HW2 1101   0.106   0.422  -0.023
  179SOL     OW 1102   1.440   0.856   1.398
  179SOL    HW1 1103   1.383   0.908   1.335
  179SOL    HW2 1104   1.536   0.868   1.374
  180SOL     OW 1105   0.072   0.166   0.318
  180SOL    HW1 1106   0.055   0.249   0.264
  180SOL    HW2 1107   0.162   0.129   0.296
  181SOL     OW 1108   1.183   1.335   0.119
  181SOL    HW1 1109   1.084   1.324   0.121
  181SOL    HW2 1110   1.217   1.350   0.212
  182SOL     OW 1111   0.613   0.842   1.431
  182SOL    HW1 1112   0.669   0.923   1.414
  182SOL    HW2 1113   0.672   0.762   1.434
  183SOL     OW 1114   1.493   1.767   0.959
  183SOL    HW1 1115   1.526   1.831   0.890
  183SOL    HW2 1116   1.559   1.761   1.034
  184SOL     OW 1117   0.716   0.565   1.708
  184SOL    HW1 1118   0.735   0.630   1.782
  184SOL    HW2 1119   0.776   0.485   1.717
  185SOL     OW 1120   1.450   1.220   1.633
  185SOL    HW1 1121   1.441   1.210   1.732
  185SOL    HW2 1122   1.546   1.213   1.607
  186SOL     OW 1123   0.390   1.741   1.560
  186SOL    HW1 1124   0.299   1.782   1.558
  186SOL    HW2 1125   0.383   1.647   1.592
  187SOL     OW 1126   1.674   0.883   1.254
  187SOL    HW1 1127   1.647   0.794   1.217
  187SOL    HW2 1128   1.675   0.951   1.181
  188SOL     OW 1129   1.225   0.325   0.449
  188SOL    HW1 1130   1.290   0.251   0.438
  188SOL    HW2 1131   1.245   0.375   0.533
  189SOL     OW 1132   0.594   0.745   0.652
  189SOL    HW1 1133   0.644   0.830   0.633
  189SOL    HW2 1134   0.506   0.747   0.604
  190SOL     OW 1135   1.777   0.342   1.642
  190SOL    HW1 1136   1.760   0.373   1.548
  190SOL    HW2 1137   1.693   0.305   1.680
  191SOL     OW 1138   1.730   0.934   1.517
  191SOL    HW1 1139   1.768   1.025   1.532
  191SOL    HW2 1140   1.722   0.917   1.418
  192SOL     OW 1141   0.859   1.374   0.016
  192SOL    HW1 1142   0.813   1.389   0.104
  192SOL    HW2 1143   0.903   1.459  -0.014
  193SOL     OW 1144   0.661   1.790   0.953
  193SOL    HW1 1145   0.615   1.878   0.940
  193SOL    HW2 1146   0.760   1.802   0.946
  194SOL     OW 1147   0.859   0.956   0.861
  194SOL    HW1 1148   0.913   0.887   0.909
  194SOL    HW2 1149   0.827   1.025   0.927
  195SOL     OW 1150   1.083   0.984   0.087
  195SOL    HW1 1151   1.060   1.037   0.005
  195SOL    HW2 1152   1.164   0.928   0.068
  196SOL     OW 1153   1.861   1.569   0.851
  196SOL    HW1 1154   1.790   1.557   0.781
  196SOL    HW2 1155   1.862   1.490   0.911
  197SOL     OW 1156   0.221   1.314   1.844
  197SOL    HW1 1157   0.156   1.241   1.823
  197SOL    HW2 1158   0.225   1.328   1.942
  198SOL     OW 1159   0.079   1.240   0.653
  198SOL    HW1 1160   0.078   1.193   0.741
  198SOL    HW2 1161   0.161   1.212   0.602
  199SOL     OW 1162   0.672   1.391   1.624
  199SOL    HW1 1163   0.594   1.341   1.662
  199SOL    HW2 1164   0.669   1.486   1.655
  200SOL     OW 1165   1.824   0.192   1.227
  200SOL    HW1 1166   1.820   0.102   1.271
  200SOL    HW2 1167   1.827   0.181   1.128
  201SOL     OW 1168   0.428   0.424   0.520
  201SOL    HW1 1169   0.458   0.352   0.458
  201SOL    HW2 1170   0.389   0.384   0.603
  202SOL     OW 1171   1.705   1.487   1.104
  202SOL    HW1 1172   1.612   1.462   1.077
  202SOL    HW2 1173   1.731   1.437   1.186
  203SOL     OW 1174   0.317   0.547   1.280
  203SOL    HW1 1175   0.355   0.488   1.352
  203SOL    HW2 1176   0.357   0.521   1.192
  204SOL     OW 1177   0.812   1.586   0.687
  204SOL    HW1 1178   0.844   1.596   0.593
  204SOL    HW2 1179   0.733   1.524   0.689
  205SOL     OW 1180   1.424   0.214   1.112
  205SOL    HW1 1181   1.476   0.149   1.167
  205SOL    HW2 1182   1.375   0.277   1.173
  206SOL     OW 1183   1.001   0.034   1.154
  206SOL    HW1 1184   0.938  -0.038   1.123
  206SOL    HW2 1185   1.094  -0.002   1.154
  207SOL     OW 1186   0.770   1.330   0.301
  207SOL    HW1 1187   0.724   1.243   0.318
  207SOL    HW2 1188   0.861   1.327   0.342
  208SOL     OW 1189   0.618   1.567   1.284
  208SOL    HW1 1190   0.613   1.649   1.341
  208SOL    HW2 1191   0.707   1.564   1.239
  209SOL     OW 1192   1.352   0.052   0.168
  209SOL    HW1 1193   1.387   0.011   0.084
  209SOL    HW2 1194   1.262   0.014   0.188
  210SOL     OW 1195   1.300   0.453   0.691
  210SOL    HW1 1196   1.241   0.533   0.695
  210SOL    HW2 1197   1.315   0.418   0.784
  211SOL     OW 1198   1.593   0.221   0.882
  211SOL    HW1 1199   1.509   0.220   0.936
  211SOL    HW2 1200   1.595   0.304   0.826
  212SOL     OW 1201   0.039   1.077   0.300
  212SOL    HW1 1202   0.138   1.066   0.291
  212SOL    HW2 1203  -0.001   0.991   0.332
  213SOL     OW 1204   0.875   1.646   0.337
  213SOL    HW1 1205   0.798   1.611   0.283
  213SOL    HW2 1206   0.843   1.717   0.399
  214SOL     OW 1207   0.230   0.628   1.975
  214SOL    HW1 1208   0.137   0.626   2.012
  214SOL    HW2 1209   0.231   0.589   1.883
  215SOL     OW 1210   0.225   0.275   2.858
  215SOL    HW1 1211   0.260   0.258   2.950
  215SOL    HW2 1212   0.137   0.230   2.846
  216SOL     OW 1213   0.019   0.368   2.509
  216SOL    HW1 1214  -0.063   0.411   2.548
  216SOL    HW2 1215  -0.009   0.295   2.446
  217SOL     OW 1216   0.569   1.275   3.027
  217SOL    HW1 1217   0.476   1.268   2.990
  217SOL    HW2 1218   0.580   1.364   3.071
  218SOL     OW 1219   1.555   1.511   2.565
  218SOL    HW1 1220   1.498   1.495   2.646
  218SOL    HW2 1221   1.496   1.521   2.485
  219SOL     OW 1222   1.135   0.703   2.579
  219SOL    HW1 1223   1.192   0.781   2.554
  219SOL    HW2 1224   1.075   0.729   2.655
  220SOL     OW 1225   1.755   0.607   2.093
  220SOL    HW1 1226   1.743   0.594   1.994
  220SOL    HW2 1227   1.725   0.526   2.142
  221SOL     OW 1228   0.768   1.144   2.885
  221SOL    HW1 1229   0.690   1.161   2.945
  221SOL    HW2 1230   0.802   1.231   2.849
  222SOL     OW 1231   0.850   0.798   3.685
  222SOL    HW1 1232   0.846   0.874   3.750
  222SOL    HW2 1233   0.872   0.834   3.594
  223SOL     OW 1234   0.685   1.012   2.527
  223SOL    HW1 1235   0.754   0.996   2.597
  223SOL    HW2 1236   0.612   1.069   2.565
  224SOL     OW 1237   0.686   1.161   3.665
  224SOL    HW1 1238   0.746   1.240   3.679
  224SOL    HW2 1239   0.600   1.192   3.624
  225SOL     OW 1240   0.335   1.435   2.923
  225SOL    HW1 1241   0.257   1.404   2.870
  225SOL    HW2 1242   0.393   1.493   2.866
  226SOL     OW 1243   1.460   1.505   3.201
  226SOL    HW1 1244   1.484   1.599   3.227
  226SOL    HW2 1245   1.444   1.451   3.283
  227SOL     OW 1246   0.438   0.392   3.361
  227SOL    HW1 1247   0.520   0.336   3.370
  227SOL    HW2 1248   0.357   0.334   3.365
  228SOL     OW 1249   1.603   0.447   2.599
  228SOL    HW1 1250   1.529   0.493   2.549
  228SOL    HW2 1251   1.654   0.515   2.652
  229SOL     OW 1252   0.231   1.713   2.345
  229SOL    HW1 1253   0.265   1.790   2.399
  229SOL    HW2 1254   0.275   1.713   2.255
  230SOL     OW 1255   1.127   1.341   3.552
  230SOL    HW1 1256   1.174   1.341   3.640
  230SOL    HW2 1257   1.079   1.254   3.541
  231SOL     OW 1258   0.230   1.434   2.400
  231SOL    HW1 1259   0.204   1.530   2.400
  231SOL    HW2 1260   0.159   1.380   2.445
  232SOL     OW 1261   0.240   1.091   2.748
  232SOL    HW1 1262   0.254   1.007   2.800
  232SOL    HW2 1263   0.185   1.155   2.803
  233SOL     OW 1264   0.620   1.786   3.301
  233SOL    HW1 1265   0.528   1.769   3.336
  233SOL    HW2 1266   0.648   1.878   3.327
  234SOL     OW 1267   0.606   0.964   1.985
  234SOL    HW1 1268   0.613   1.048   1.931
  234SOL    HW2 1269   0.652   0.977   2.073
  235SOL     OW 1270   1.594   0.114   3.342
  235SOL    HW1 1271   1.576   0.181   3.270
  235SOL    HW2 1272   1.591   0.160   3.431
  236SOL     OW 1273   0.122   0.643   2.425
  236SOL    HW1 1274   0.077   0.555   2.442
  236SOL    HW2 1275   0.121   0.697   2.509
  237SOL     OW 1276   0.027   1.596   1.979
  237SOL    HW1 1277   0.008   1.500   2.000
  237SOL    HW2 1278  -0.006   1.654   2.054
  238SOL     OW 1279   1.689   0.922   2.474
  238SOL    HW1 1280   1.784   0.893   2.482
  238SOL    HW2 1281   1.681   0.987   2.399
  239SOL     OW 1282   1.641   1.108   2.294
  239SOL    HW1 1283   1.727   1.110   2.242
  239SOL    HW2 1284   1.655   1.155   2.382
  240SOL     OW 1285   0.113   0.737   3.459
  240SOL    HW1 1286   0.201   0.724   3.504
  240SOL    HW2 1287   0.100   0.834   3.437
  241SOL     OW 1288   0.613   1.365   2.588
  241SOL    HW1 1289   0.564   1.278   2.597
  241SOL    HW2 1290   0.590   1.408   2.501
  242SOL     OW 1291   1.293   1.228   3.285
  242SOL    HW1 1292   1.330   1.155   3.227
  242SOL    HW2 1293   1.345   1.233   3.370
  243SOL     OW 1294   0.809   0.004   2.364
  243SOL    HW1 1295   0.849   0.095   2.355
  243SOL    HW2 1296   0.709   0.012   2.370
  244SOL     OW 1297   0.197   0.976   3.126
  244SOL    HW1 1298   0.286   0.931   3.112
  244SOL    HW2 1299   0.124   0.911   3.107
  245SOL     OW 1300   1.525   0.999   2.052
  245SOL    HW1 1301   1.462   0.923   2.065
  245SOL    HW2 1302   1.573   1.017   2.138
  246SOL     OW 1303   1.187   1.792   3.478
  246SOL    HW1 1304   1.211   1.852   3.402
  246SOL    HW2 1305   1.194   1.697   3.448
  247SOL     OW 1306   0.317   0.251   3.663
  247SOL    HW1 1307   0.388   0.322   3.669
  247SOL    HW2 1308   0.229   0.290   3.691
  248SOL     OW 1309   1.466   1.417   2.815
  248SOL    HW1 1310   1.407   1.423   2.895
  248SOL    HW2 1311   1.451   1.329   2.769
  249SOL     OW 1312   1.667   1.714   2.434
  249SOL    HW1 1313   1.626   1.691   2.346
  249SOL    HW2 1314   1.649   1.640   2.499
  250SOL     OW 1315   0.598   0.729   2.132
  250SOL    HW1 1316   0.622   0.798   2.064
  250SOL    HW2 1317   0.520   0.762   2.186
  251SOL     OW 1318   1.281   0.345   2.806
  251SOL    HW1 1319   1.195   0.295   2.793
  251SOL    HW2 1320   1.343   0.291   2.862
  252SOL     OW 1321   1.576   1.662   2.169
  252SOL    HW1 1322   1.665   1.708   2.172
  252SOL    HW2 1323   1.555   1.638   2.074
  253SOL     OW 1324   0.807   0.605   3.327
  253SOL    HW1 1325   0.760   0.602   3.416
  253SOL    HW2 1326   0.756   0.550   3.261
  254SOL     OW 1327   1.394   0.469   3.536
  254SOL    HW1 1328   1.374   0.512   3.624
  254SOL    HW2 1329   1.472   0.407   3.545
  255SOL     OW 1330   0.973   0.890   3.434
  255SOL    HW1 1331   1.019   0.806   3.405
  255SOL    HW2 1332   0.917   0.924   3.359
  256SOL     OW 1333   0.991   0.410   3.104
  256SOL    HW1 1334   0.914   0.444   3.158
  256SOL    HW2 1335   0.957   0.359   3.025
  257SOL     OW 1336   1.041   0.701   2.291
  257SOL    HW1 1337   1.067   0.697   2.387
  257SOL    HW2 1338   0.956   0.650   2.277
  258SOL     OW 1339   0.076   0.811   2.651
  258SOL    HW1 1340   0.175   0.799   2.660
  258SOL    HW2 1341   0.052   0.906   2.672
  259SOL     OW 1342   0.130   1.821   3.433
  259SOL    HW1 1343   0.120   1.806   3.532
  259SOL    HW2 1344   0.044   1.857   3.397
  260SOL     OW 1345   0.865   0.348   2.057
  260SOL    HW1 1346   0.924   0.411   2.008
  260SOL    HW2 1347   0.884   0.254   2.028
  261SOL     OW 1348   1.719   0.585   3.693
  261SOL    HW1 1349   1.693   0.674   3.657
  261SOL    HW2 1350   1.717   0.517   3.620
  262SOL     OW 1351   1.362   1.144   2.407
  262SOL    HW1 1352   1.445   1.115   2.359
  262SOL    HW2 1353   1.313   1.211   2.351
  263SOL     OW 1354   0.550   0.196   2.747
  263SOL    HW1 1355   0.545   0.191   2.847
  263SOL    HW2 1356   0.552   0.292   2.718
  264SOL     OW 1357   1.008   1.456   2.339
  264SOL    HW1 1358   0.962   1.528   2.287
  264SOL    HW2 1359   1.004   1.476   2.437
  265SOL     OW 1360   0.351   1.801   2.715
  265SOL    HW1 1361   0.401   1.715   2.721
  265SOL    HW2 1362   0.416   1.878   2.712
  266SOL     OW 1363   1.795   1.066   2.735
  266SOL    HW1 1364   1.733   1.051   2.659
  266SOL    HW2 1365   1.743   1.077   2.820
  267SOL     OW 1366   1.227   1.550   3.368
  267SOL    HW1 1367   1.233   1.473   3.432
  267SOL    HW2 1368   1.175   1.524   3.288
  268SOL     OW 1369   0.321   0.943   2.104
  268SOL    HW1 1370   0.403   0.982   2.062
  268SOL    HW2 1371   0.294   0.861   2.055
  269SOL     OW 1372   1.458   0.735   2.590
  269SOL    HW1 1373   1.453   0.670   2.665
  269SOL    HW2 1374   1.538   0.794   2.603
  270SOL     OW 1375   0.461   1.266   3.589
  270SOL    HW1 1376   0.411   1.267   3.503
  270SOL    HW2 1377   0.398   1.248   3.665
  271SOL     OW 1378   1.111   1.776   2.099
  271SOL    HW1 1379   1.051   1.714   2.149
  271SOL    HW2 1380   1.142   1.732   2.014
  272SOL     OW 1381   0.202   0.285   3.360
  272SOL    HW1 1382   0.122   0.345   3.347
  272SOL    HW2 1383   0.192   0.236   3.446
  273SOL     OW 1384   1.632   1.377   1.943
  273SOL    HW1 1385   1.600   1.471   1.933
  273SOL    HW2 1386   1.556   1.314   1.931
  274SOL     OW 1387   0.464   1.743   2.185
  274SOL    HW1 1388   0.497   1.782   2.271
  274SOL    HW2 1389   0.540   1.736   2.120
  275SOL     OW 1390   1.400   0.107   2.288
  275SOL    HW1 1391   1.376   0.070   2.198
  275SOL    HW2 1392   1.499   0.123   2.292
  276SOL     OW 1393   0.249   1.785   3.103
  276SOL    HW1 1394   0.306   1.720   3.153
  276SOL    HW2 1395   0.233   1.752   3.010
  277SOL     OW 1396   0.940   1.698   2.766
  277SOL    HW1 1397   1.020   1.641   2.787
  277SOL    HW2 1398   0.891   1.658   2.689
  278SOL     OW 1399   0.382   0.700   2.342
  278SOL    HW1 1400   0.427   0.610   2.339
  278SOL    HW2 1401   0.288   0.689   2.375
  279SOL     OW 1402   1.547   0.222   3.591
  279SOL    HW1 1403   1.542   0.259   3.683
  279SOL    HW2 1404   1.475   0.153   3.579
  280SOL     OW 1405   0.614   0.122   1.979
  280SOL    HW1 1406   0.712   0.100   1.986
  280SOL    HW2 1407   0.583   0.105   1.886
  281SOL     OW 1408   0.781   0.264   3.611
  281SOL    HW1 1409   0.848   0.203   3.654
  281SOL    HW2 1410   0.708   0.283   3.676
  282SOL     OW 1411   0.888   1.514   3.057
  282SOL    HW1 1412   0.865   1.489   2.963
  282SOL    HW2 1413   0.949   1.445   3.096
  283SOL     OW 1414   1.351   0.590   3.295
  283SOL    HW1 1415   1.379   0.547   3.380
  283SOL    HW2 1416   1.376   0.686   3.296
  284SOL     OW 1417   0.803   1.402   2.786
  284SOL    HW1 1418   0.893   1.416   2.744
  284SOL    HW2 1419   0.732   1.404   2.715
  285SOL     OW 1420   0.922   0.503   2.761
  285SOL    HW1 1421   0.897   0.494   2.665
  285SOL    HW2 1422   0.970   0.421   2.792
  286SOL     OW 1423   0.539   0.064   2.374
  286SOL    HW1 1424   0.458   0.065   2.432
  286SOL    HW2 1425   0.542   0.147   2.319
  287SOL     OW 1426   1.434   1.188   1.903
  287SOL    HW1 1427   1.466   1.112   1.960
  287SOL    HW2 1428   1.342   1.215   1.933
  288SOL     OW 1429   0.297   0.035   2.033
  288SOL    HW1 1430   0.346   0.119   2.012
  288SOL    HW2 1431   0.359  -0.030   2.078
  289SOL     OW 1432   0.935   0.236   2.342
  289SOL    HW1 1433   0.887   0.277   2.264
  289SOL    HW2 1434   1.034   0.234   2.323
  290SOL     OW 1435   1.076   0.683   3.326
  290SOL    HW1 1436   0.996   0.622   3.329
  290SOL    HW2 1437   1.157   0.630   3.302
  291SOL     OW 1438   1.227   1.570   2.655
  291SOL    HW1 1439   1.248   1.644   2.590
  291SOL    HW2 1440   1.295   1.570   2.728
  292SOL     OW 1441   0.459   1.152   2.603
  292SOL    HW1 1442   0.388   1.125   2.668
  292SOL    HW2 1443   0.433   1.124   2.510
  293SOL     OW 1444   1.271   1.797   2.453
  293SOL    HW1 1445   1.315   1.861   2.389
  293SOL    HW2 1446   1.221   1.849   2.523
  294SOL     OW 1447   1.032   0.549   1.878
  294SOL    HW1 1448   0.991   0.631   1.839
  294SOL    HW2 1449   1.096   0.575   1.951
  295SOL     OW 1450   0.078   0.556   3.248
  295SOL    HW1 1451   0.170   0.555   3.207
  295SOL    HW2 1452   0.072   0.630   3.315
  296SOL     OW 1453   0.561   0.222   3.009
  296SOL    HW1 1454   0.599   0.138   3.046
  296SOL    HW2 1455   0.473   0.241   3.053
  297SOL     OW 1456   0.866   0.454   2.504
  297SOL    HW1 1457   0.834   0.526   2.442
  297SOL    HW2 1458   0.890   0.373   2.451
  298SOL     OW 1459   1.017   0.039   2.615
  298SOL    HW1 1460   0.945   0.044   2.546
  298SOL    HW2 1461   0.993  -0.030   2.684
  299SOL     OW 1462   1.429   1.173   2.729
  299SOL    HW1 1463   1.374   1.089   2.722
  299SOL    HW2 1464   1.455   1.202   2.637
  300SOL     OW 1465   1.466   0.590   2.854
  300SOL    HW1 1466   1.436   0.495   2.861
  300SOL    HW2 1467   1.539   0.606   2.920
  301SOL     OW 1468   1.857   0.833   2.239
  301SOL    HW1 1469   1.899   0.769   2.303
  301SOL    HW2 1470   1.819   0.782   2.161
  302SOL     OW 1471   0.488   1.385   2.036
  302SOL    HW1 1472   0.401   1.370   2.083
  302SOL    HW2 1473   0.471   1.411   1.941
  303SOL     OW 1474   1.664   1.280   2.519
  303SOL    HW1 1475   1.763   1.288   2.533
  303SOL    HW2 1476   1.619   1.364   2.550
  304SOL     OW 1477   1.390   0.575   1.940
  304SOL    HW1 1478   1.336   0.554   2.021
  304SOL    HW2 1479   1.481   0.534   1.949
  305SOL     OW 1480   0.527   0.256   2.190
  305SOL    HW1 1481   0.554   0.197   2.115
  305SOL    HW2 1482   0.527   0.351   2.159
  306SOL     OW 1483   1.754   1.223   3.450
  306SOL    HW1 1484   1.845   1.184   3.437
  306SOL    HW2 1485   1.762   1.319   3.474
  307SOL     OW 1486   1.064   1.347   3.202
  307SOL    HW1 1487   0.984   1.324   3.257
  307SOL    HW2 1488   1.147   1.321   3.251
  308SOL     OW 1489   1.592   1.629   3.487
  308SOL    HW1 1490   1.619   1.663   3.397
  308SOL    HW2 1491   1.671   1.591   3.533
  309SOL     OW 1492   1.111   1.195   2.962
  309SOL    HW1 1493   1.071   1.239   3.043
  309SOL    HW2 1494   1.070   1.232   2.879
  310SOL     OW 1495   1.638   1.099   2.941
  310SOL    HW1 1496   1.643   1.180   3.000
  310SOL    HW2 1497   1.552   1.101   2.890
  311SOL     OW 1498   0.915   0.089   3.264
  311SOL    HW1 1499   0.940   0.069   3.169
  311SOL    HW2 1500   0.987   0.145   3.306
  312SOL     OW 1501   0.980   1.116   3.581
  312SOL    HW1 1502   0.881   1.122   3.591
  312SOL    HW2 1503   1.003   1.036   3.525
  313SOL     OW 1504   0.705   1.050   2.230
  313SOL    HW1 1505   0.691   1.057   2.329
  313SOL    HW2 1506   0.789   0.999   2.212
  314SOL     OW 1507   0.410   0.813   3.113
  314SOL    HW1 1508   0.496   0.825   3.163
  314SOL    HW2 1509   0.368   0.726   3.140
  315SOL     OW 1510   1.274   0.386   3.124
  315SOL    HW1 1511   1.295   0.460   3.188
  315SOL    HW2 1512   1.185   0.403   3.081
  316SOL     OW 1513   0.064   1.564   3.193
  316SOL    HW1 1514   0.018   1.646   3.159
  316SOL    HW2 1515   0.162   1.583   3.202
  317SOL     OW 1516   0.367   1.100   2.363
  317SOL    HW1 1517   0.360   1.183   2.307
  317SOL    HW2 1518   0.371   1.020   2.303
  318SOL     OW 1519   0.566   0.537   2.727
  318SOL    HW1 1520   0.578   0.603   2.653
  318SOL    HW2 1521   0.612   0.571   2.810
  319SOL     OW 1522   1.252   1.348   2.250
  319SOL    HW1 1523   1.302   1.425   2.290
  319SOL    HW2 1524   1.157   1.350   2.282
  320SOL     OW 1525   1.272   1.445   3.004
  320SOL    HW1 1526   1.319   1.458   3.091
  320SOL    HW2 1527   1.206   1.371   3.013
  321SOL     OW 1528   1.582   0.639   2.334
  321SOL    HW1 1529   1.551   0.700   2.407
  321SOL    HW2 1530   1.632   0.691   2.265
  322SOL     OW 1531   0.354   1.510   3.191
  322SOL    HW1 1532   0.333   1.466   3.104
  322SOL    HW2 1533   0.451   1.536   3.194
  323SOL     OW 1534   0.402   0.751   3.460
  323SOL    HW1 1535   0.470   0.806   3.413
  323SOL    HW2 1536   0.442   0.663   3.487
  324SOL     OW 1537   1.587   0.779   3.532
  324SOL    HW1 1538   1.495   0.817   3.527
  324SOL    HW2 1539   1.647   0.826   3.467
  325SOL     OW 1540   1.013   0.105   3.632
  325SOL    HW1 1541   1.019   0.190   3.580
  325SOL    HW2 1542   1.045   0.029   3.575
  326SOL     OW 1543   0.504   0.050   3.602
  326SOL    HW1 1544   0.462  -0.007   3.532
  326SOL    HW2 1545   0.438   0.119   3.634
  327SOL     OW 1546   0.573   0.870   2.891
  327SOL    HW1 1547   0.617   0.959   2.882
  327SOL    HW2 1548   0.510   0.870   2.968
  328SOL     OW 1549   1.360   0.862   2.907
  328SOL    HW1 1550   1.285   0.862   2.841
  328SOL    HW2 1551   1.397   0.770   2.916
  329SOL     OW 1552   1.209   0.525   2.137
  329SOL    HW1 1553   1.222   0.441   2.191
  329SOL    HW2 1554   1.180   0.599   2.197
  330SOL     OW 1555   0.307   0.213   3.093
  330SOL    HW1 1556   0.284   0.250   3.183
  330SOL    HW2 1557   0.277   0.118   3.087
  331SOL     OW 1558   0.037   1.310   3.144
  331SOL    HW1 1559   0.090   1.261   3.212
  331SOL    HW2 1560   0.059   1.408   3.149
  332SOL     OW 1561   0.732   0.634   2.926
  332SOL    HW1 1562   0.791   0.608   2.850
  332SOL    HW2 1563   0.704   0.730   2.915
  333SOL     OW 1564   1.728   0.935   3.716
  333SOL    HW1 1565   1.682   0.928   3.627
  333SOL    HW2 1566   1.666   0.979   3.782
  334SOL     OW 1567   0.307   0.063   2.480
  334SOL    HW1 1568   0.296   0.157   2.513
  334SOL    HW2 1569   0.302   0.000   2.557
  335SOL     OW 1570   1.622   0.367   2.236
  335SOL    HW1 1571   1.624   0.291   2.300
  335SOL    HW2 1572   1.574   0.444   2.276
  336SOL     OW 1573   1.023   0.766   2.828
  336SOL    HW1 1574   1.038   0.787   2.924
  336SOL    HW2 1575   0.993   0.671   2.819
  337SOL     OW 1576   0.980   1.573   3.562
  337SOL    HW1 1577   0.960   1.617   3.474
  337SOL    HW2 1578   1.019   1.482   3.546
  338SOL     OW 1579   1.859   1.518   3.467
  338SOL    HW1 1580   1.873   1.545   3.372
  338SOL    HW2 1581   1.942   1.540   3.520
  339SOL     OW 1582   0.350   0.898   3.666
  339SOL    HW1 1583   0.426   0.942   3.714
  339SOL    HW2 1584   0.385   0.851   3.584
  340SOL     OW 1585   1.540   0.274   1.987
  340SOL    HW1 1586   1.479   0.199   2.010
  340SOL    HW2 1587   1.562   0.326   2.070
  341SOL     OW 1588   1.303   0.838   1.904
  341SOL    HW1 1589   1.337   0.745   1.919
  341SOL    HW2 1590   1.321   0.865   1.809
  342SOL     OW 1591   1.068   1.333   2.711
  342SOL    HW1 1592   1.075   1.249   2.656
  342SOL    HW2 1593   1.130   1.402   2.675
  343SOL     OW 1594   0.319   0.810   2.811
  343SOL    HW1 1595   0.412   0.846   2.816
  343SOL    HW2 1596   0.313   0.725   2.863
  344SOL     OW 1597   0.339   0.509   2.868
  344SOL    HW1 1598   0.287   0.426   2.851
  344SOL    HW2 1599   0.416   0.514   2.804
  345SOL     OW 1600   1.138   0.380   3.540
  345SOL    HW1 1601   1.093   0.443   3.604
  345SOL    HW2 1602   1.231   0.411   3.523
  346SOL     OW 1603   1.160   0.207   3.339
  346SOL    HW1 1604   1.160   0.271   3.416
  346SOL    HW2 1605   1.188   0.255   3.256
  347SOL     OW 1606   0.008   1.326   2.062
  347SOL    HW1 1607  -0.085   1.347   2.031
  347SOL    HW2 1608   0.018   1.227   2.075
  348SOL     OW 1609   0.088   1.801   2.789
  348SOL    HW1 1610   0.046   1.715   2.762
  348SOL    HW2 1611   0.182   1.804   2.755
  349SOL     OW 1612   0.504   1.568   2.772
  349SOL    HW1 1613   0.570   1.642   2.781
  349SOL    HW2 1614   0.548   1.489   2.730
  350SOL     OW 1615   1.002   0.796   3.100
  350SOL    HW1 1616   1.043   0.764   3.186
  350SOL    HW2 1617   0.906   0.769   3.097
  351SOL     OW 1618   0.040   0.544   2.976
  351SOL    HW1 1619   0.125   0.511   2.935
  351SOL    HW2 1620   0.053   0.559   3.074
  352SOL     OW 1621   0.189   0.520   3.584
  352SOL    HW1 1622   0.248   0.480   3.514
  352SOL    HW2 1623   0.131   0.591   3.543
  353SOL     OW 1624   1.369   0.950   3.522
  353SOL    HW1 1625   1.408   1.039   3.542
  353SOL    HW2 1626   1.379   0.930   3.425
  354SOL     OW 1627   0.815   0.572   2.187
  354SOL    HW1 1628   0.822   0.483   2.141
  354SOL    HW2 1629   0.721   0.606   2.179
  355SOL     OW 1630   1.657   0.604   3.068
  355SOL    HW1 1631   1.619   0.535   3.130
  355SOL    HW2 1632   1.739   0.568   3.024
  356SOL     OW 1633   0.252   1.564   3.606
  356SOL    HW1 1634   0.222   1.621   3.682
  356SOL    HW2 1635   0.245   1.467   3.632
  357SOL     OW 1636   0.671   0.464   3.131
  357SOL    HW1 1637   0.637   0.375   3.101
  357SOL    HW2 1638   0.697   0.518   3.051
  358SOL     OW 1639   0.930   1.678   3.327
  358SOL    HW1 1640   0.906   1.660   3.232
  358SOL    HW2 1641   0.960   1.772   3.337
  359SOL     OW 1642   0.473   0.500   2.053
  359SOL    HW1 1643   0.534   0.580   2.057
  359SOL    HW2 1644   0.378   0.531   2.060
  360SOL     OW 1645   0.159   1.137   3.328
  360SOL    HW1 1646   0.181   1.076   3.404
  360SOL    HW2 1647   0.169   1.088   3.242
  361SOL     OW 1648   1.347   1.059   3.096
  361SOL    HW1 1649   1.371   0.996   3.022
  361SOL    HW2 1650   1.257   1.099   3.078
  362SOL     OW 1651   1.302   0.855   2.171
  362SOL    HW1 1652   1.216   0.824   2.213
  362SOL    HW2 1653   1.298   0.841   2.072
  363SOL     OW 1654   1.759   1.747   3.016
  363SOL    HW1 1655   1.820   1.777   2.943
  363SOL    HW2 1656   1.721   1.658   2.994
  364SOL     OW 1657   1.252   1.731   2.990
  364SOL    HW1 1658   1.336   1.736   2.936
  364SOL    HW2 1659   1.229   1.635   3.008
  365SOL     OW 1660   0.083   1.258   2.884
  365SOL    HW1 1661   0.078   1.257   2.984
  365SOL    HW2 1662   0.000   1.217   2.846
  366SOL     OW 1663   0.688   1.662   3.578
  366SOL    HW1 1664   0.632   1.743   3.587
  366SOL    HW2 1665   0.740   1.666   3.492
  367SOL     OW 1666   1.726   0.135   2.385
  367SOL    HW1 1667   1.799   0.118   2.318
  367SOL    HW2 1668   1.695   0.048   2.423
  368SOL     OW 1669   1.388   1.573   2.339
  368SOL    HW1 1670   1.455   1.585   2.265
  368SOL    HW2 1671   1.348   1.662   2.362
  369SOL     OW 1672   0.130   1.794   3.713
  369SOL    HW1 1673   0.089   1.720   3.766
  369SOL    HW2 1674   0.194   1.845   3.771
  370SOL     OW 1675   1.280   0.927   2.534
  370SOL    HW1 1676   1.340   0.846   2.536
  370SOL    HW2 1677   1.320   0.996   2.474
  371SOL     OW 1678   0.830   1.273   3.284
  371SOL    HW1 1679   0.825   1.306   3.379
  371SOL    HW2 1680   0.744   1.292   3.238
  372SOL     OW 1681   0.672   1.616   2.016
  372SOL    HW1 1682   0.681   1.626   1.917
  372SOL    HW2 1683   0.632   1.527   2.037
  373SOL     OW 1684   1.650   1.720   3.256
  373SOL    HW1 1685   1.703   1.730   3.172
  373SOL    HW2 1686   1.623   1.810   3.290
  374SOL     OW 1687   1.841   0.175   2.825
  374SOL    HW1 1688   1.880   0.090   2.789
  374SOL    HW2 1689   1.743   0.177   2.806
  375SOL     OW 1690   0.263   0.326   2.582
  375SOL    HW1 1691   0.184   0.377   2.548
  375SOL    HW2 1692   0.254   0.311   2.680
  376SOL     OW 1693   1.194   1.612   1.893
  376SOL    HW1 1694   1.200   1.519   1.930
  376SOL    HW2 1695   1.135   1.612   1.813
  377SOL     OW 1696   0.822   1.002   3.234
  377SOL    HW1 1697   0.862   1.001   3.142
  377SOL    HW2 1698   0.832   1.094   3.274
  378SOL     OW 1699   0.916   0.910   2.153
  378SOL    HW1 1700   0.979   0.948   2.085
  378SOL    HW2 1701   0.956   0.827   2.192
  379SOL     OW 1702   1.504   1.607   1.906
  379SOL    HW1 1703   1.412   1.644   1.913
  379SOL    HW2 1704   1.542   1.627   1.816
  380SOL     OW 1705   0.372   1.288   3.352
  380SOL    HW1 1706   0.359   1.381   3.318
  380SOL    HW2 1707   0.288   1.236   3.339
  381SOL     OW 1708   1.614   1.292   3.151
  381SOL    HW1 1709   1.674   1.295   3.231
  381SOL    HW2 1710   1.539   1.356   3.164
  382SOL     OW 1711   1.039   1.098   2.558
  382SOL    HW1 1712   0.969   1.051   2.612
  382SOL    HW2 1713   1.098   1.030   2.515
  383SOL     OW 1714   1.014   0.236   2.833
  383SOL    HW1 1715   1.006   0.200   2.740
  383SOL    HW2 1716   1.012   0.160   2.898
  384SOL     OW 1717   0.590   1.487   2.353
  384SOL    HW1 1718   0.632   1.429   2.283
  384SOL    HW2 1719   0.546   1.566   2.309
  385SOL     OW 1720   1.709   0.385   3.243
  385SOL    HW1 1721   1.782   0.454   3.247
  385SOL    HW2 1722   1.737   0.310   3.184
  386SOL     OW 1723   0.255   1.348   2.152
  386SOL    HW1 1724   0.159   1.349   2.125
  386SOL    HW2 1725   0.267   1.401   2.236
  387SOL     OW 1726   0.105   1.013   3.588
  387SOL    HW1 1727   0.028   0.980   3.642
  387SOL    HW2 1728   0.190   0.983   3.630
  388SOL     OW 1729   0.672   0.203   3.351
  388SOL    HW1 1730   0.762   0.187   3.311
  388SOL    HW2 1731   0.680   0.208   3.450
  389SOL     OW 1732   0.075   0.345   1.895
  389SOL    HW1 1733  -0.017   0.317   1.866
  389SOL    HW2 1734   0.106   0.422   1.839
  390SOL     OW 1735   1.440   0.856   3.260
  390SOL    HW1 1736   1.383   0.908   3.197
  390SOL    HW2 1737   1.536   0.868   3.236
  391SOL     OW 1738   0.072   0.166   2.180
  391SOL    HW1 1739   0.055   0.249   2.126
  391SOL    HW2 1740   0.162   0.129   2.158
  392SOL     OW 1741   1.183   1.335   1.981
  392SOL    HW1 1742   1.084   1.324   1.983
  392SOL    HW2 1743   1.217   1.350   2.074
  393SOL     OW 1744   0.613   0.842   3.293
  393SOL    HW1 1745   0.669   0.923   3.276
  393SOL    HW2 1746   0.672   0.762   3.296
  394SOL     OW 1747   1.493   1.767   2.821
  394SOL    HW1 1748   1.526   1.831   2.752
  394SOL    HW2 1749   1.559   1.761   2.896
  395SOL     OW 1750   0.716   0.565   3.570
  395SOL    HW1 1751   0.735   0.630   3.644
  395SOL    HW2 1752   0.776   0.485   3.579
  396SOL     OW 1753   1.450   1.220   3.495
  396SOL    HW1 1754   1.441   1.210   3.594
  396SOL    HW2 1755   1.546   1.213   3.469
  397SOL     OW 1756   0.390   1.741   3.422
  397SOL    HW1 1757   0.299   1.782   3.420
  397SOL    HW2 1758   0.383   1.647   3.454
  398SOL     OW 1759   1.674   0.883   3.116
  398SOL    HW1 1760   1.647   0.794   3.079
  398SOL    HW2 1761   1.675   0.951   3.043
  399SOL     OW 1762   1.225   0.325   2.311
  399SOL    HW1 1763   1.290   0.251   2.300
  399SOL    HW2 1764   1.245   0.375   2.395
  400SOL     OW 1765   0.594   0.745   2.514
  400SOL    HW1 1766   0.644   0.830   2.495
  400SOL    HW2 1767   0.506   0.747   2.466
  401SOL     OW 1768   1.777   0.342   3.504
  401SOL    HW1 1769   1.760   0.373   3.410
  401SOL    HW2 1770   1.693   0.305   3.542
  402SOL     OW 1771   1.730   0.934   3.379
  402SOL    HW1 1772   1.768   1.025   3.394
  402SOL    HW2 1773   1.722   0.917   3.280
  403SOL     OW 1774   0.859   1.374   1.878
  403SOL    HW1 1775   0.813   1.389   1.966
  403SOL    HW2 1776   0.903   1.459   1.848
  404SOL     OW 1777   0.661   1.790   2.815
  404SOL    HW1 1778   0.615   1.878   2.802
  404SOL    HW2 1779   0.760   1.802   2.808
  405SOL     OW 1780   0.859   0.956   2.723
  405SOL    HW1 1781   0.913   0.887   2.771
  405SOL    HW2 1782   0.827   1.025   2.789
  406SOL     OW 1783   1.083   0.984   1.949
  406SOL    HW1 1784   1.060   1.037   1.867
  406SOL    HW2 1785   1.164   0.928   1.930
  407SOL     OW 1786   1.861   1.569   2.713
  407SOL    HW1 1787   1.790   1.557   2.643
  407SOL    HW2 1788   1.862   1.490   2.773
  408SOL     OW 1789   0.221   1.314   3.706
  408SOL    HW1 1790   0.156   1.241   3.685
  408SOL    HW2 1791   0.225   1.328   3.804
  409SOL     OW 1792   0.079   1.240   2.515
  409SOL    HW1 1793   0.078   1.193   2.603
  409SOL    HW2 1794   0.161   1.212   2.464
  410SOL     OW 1795   0.672   1.391   3.486
  410SOL    HW1 1796   0.594   1.341   3.524
  410SOL    HW2 1797   0.669   1.486   3.517
  411SOL     OW 1798   1.824   0.192   3.089
  411SOL    HW1 1799   1.820   0.102   3.133
  411SOL    HW2 1800   1.827   0.181   2.990
  412SOL     OW 1801   0.428   0.424   2.382
  412SOL    HW1 1802   0.458   0.352   2.320
  412SOL    HW2 1803   0.389   0.384   2.465
  413SOL     OW 1804   1.705   1.487   2.966
  413SOL    HW1 1805   1.612   1.462   2.939
  413SOL    HW2 1806   1.731   1.437   3.048
  414SOL     OW 1807   0.317   0.547   3.142
  414SOL    HW1 1808   0.355   0.488   3.214
  414SOL    HW2 1809   0.357   0.521   3.054
  415SOL     OW 1810   0.812   1.586   2.549
  415SOL    HW1 1811   0.844   1.596   2.455
  415SOL    HW2 1812   0.733   1.524   2.551
  416SOL     OW 1813   1.424   0.214   2.974
  416SOL    HW1 1814   1.476   0.149   3.029
  416SOL    HW2 1815   1.375   0.277   3.035
  417SOL     OW 1816   1.001   0.034   3.016
  417SOL    HW1 1817   0.938  -0.038   2.985
  417SOL    HW2 1818   1.094  -0.002   3.016
  418SOL     OW 1819   0.770   1.330   2.163
  418SOL    HW1 1820   0.724   1.243   2.180
  418SOL    HW2 1821   0.861   1.327   2.204
  419SOL     OW 1822   0.618   1.567   3.146
  419SOL    HW1 1823   0.613   1.649   3.203
  419SOL    HW2 1824   0.707   1.564   3.101
  420SOL     OW 1825   1.352   0.052   2.030
  420SOL    HW1 1826   1.387   0.011   1.946
  420SOL    HW2 1827   1.262   0.014   2.050
  421SOL     OW 1828   1.300   0.453   2.553
  421SOL    HW1 1829   1.241   0.533   2.557
  421SOL    HW2 1830   1.315   0.418   2.646
  422SOL     OW 1831   1.593   0.221   2.744
  422SOL    HW1 1832   1.509   0.220   2.798
  422SOL    HW2 1833   1.595   0.304   2.688
  423SOL     OW 1834   0.039   1.077   2.162
  423SOL    HW1 1835   0.138   1.066   2.153
  423SOL    HW2 1836  -0.001   0.991   2.194
  424SOL     OW 1837   0.875   1.646   2.199
  424SOL    HW1 1838   0.798   1.611   2.145
  424SOL    HW2 1839   0.843   1.717   2.261
  425SOL     OW 1840   0.230   0.628   3.837
  425SOL    HW1 1841   0.137   0.626   3.874
  425SOL    HW2 1842   0.231   0.589   3.745
  426SOL     OW 1843   0.225   0.275   4.720
  426SOL    HW1 1844   0.260   0.258   4.812
  426SOL    HW2 1845   0.137   0.230   4.708
  427SOL     OW 1846   0.019   0.368   4.371
  427SOL    HW1 1847  -0.063   0.411   4.410
  427SOL    HW2 1848  -0.009   0.295   4.308
  428SOL     OW 1849   0.569   1.275   4.889
  428SOL    HW1 1850   0.476   1.268   4.852
  428SOL    HW2 1851   0.580   1.364   4.933
  429SOL     OW 1852   1.555   1.511   4.427
  429SOL    HW1 1853   1.498   1.495   4.508
  429SOL    HW2 1854   1.496   1.521   4.347
  430SOL     OW 1855   1.135   0.703   4.441
  430SOL    HW1 1856   1.192   0.781   4.416
  430SOL    HW2 1857   1.075   0.729   4.517
  431SOL     OW 1858   1.755   0.607   3.955
  431SOL    HW1 1859   1.743   0.594   3.856
  431SOL    HW2 1860   1.725   0.526   4.004
  432SOL     OW 1861   0.768   1.144   4.747
  432SOL    HW1 1862   0.690   1.161   4.807
  432SOL    HW2 1863   0.802   1.231   4.711
  433SOL     OW 1864   0.850   0.798   5.547
  433SOL    HW1 1865   0.846   0.874   5.612
  433SOL    HW2 1866   0.872   0.834   5.456
  434SOL     OW 1867   0.685   1.012   4.389
  434SOL    HW1 1868   0.754   0.996   4.459
  434SOL    HW2 1869   0.612   1.069   4.427
  435SOL     OW 1870   0.686   1.161   5.527
  435SOL    HW1 1871   0.746   1.240   5.541
  435SOL    HW2 1872   0.600   1.192   5.486
  436SOL     OW 1873   0.335   1.435   4.785
  436SOL    HW1 1874   0.257   1.404   4.732
  436SOL    HW2 1875   0.393   1.493   4.728
  437SOL     OW 1876   1.460   1.505   5.063
  437SOL    HW1 1877   1.484   1.599   5.089
  437SOL    HW2 1878   1.444   1.451   5.145
  438SOL     OW 1879   0.438   0.392   5.223
  438SOL    HW1 1880   0.520   0.336   5.232
  438SOL    HW2 1881   0.357   0.334   5.227
  439SOL     OW 1882   1.603   0.447   4.461
  439SOL    HW1 1883   1.529   0.493   4.411
  439SOL    HW2 1884   1.654   0.515   4.514
  440SOL     OW 1885   0.231   1.713   4.207
  440SOL    HW1 1886   0.265   1.790   4.261
  440SOL    HW2 1887   0.275   1.713   4.117
  441SOL     OW 1888   1.127   1.341   5.414
  441SOL    HW1 1889   1.174   1.341   5.502
  441SOL    HW2 1890   1.079   1.254   5.403
  442SOL     OW 1891   0.230   1.434   4.262
  442SOL    HW1 1892   0.204   1.530   4.262
  442SOL    HW2 1893   0.159   1.380   4.307
  443SOL     OW 1894   0.240   1.091   4.610
  443SOL    HW1 1895   0.254   1.007   4.662
  443SOL    HW2 1896   0.185   1.155   4.665
  444SOL     OW 1897   0.620   1.786   5.163
  444SOL    HW1 1898   0.528   1.769   5.198
  444SOL    HW2 1899   0.648   1.878   5.189
  445SOL     OW 1900   0.606   0.964   3.847
  445SOL    HW1 1901   0.613   1.048   3.793
  445SOL    HW2 1902   0.652   0.977   3.935
  446SOL     OW 1903   1.594   0.114   5.204
  446SOL    HW1 1904   1.576   0.181   5.132
  446SOL    HW2 1905   1.591   0.160   5.293
  447SOL     OW 1906   0.122   0.643   4.287
  447SOL    HW1 1907   0.077   0.555   4.304
  447SOL    HW2 1908   0.121   0.697   4.371
  448SOL     OW 1909   0.027   1.596   3.841
  448SOL    HW1 1910   0.008   1.500   3.862
  448SOL    HW2 1911  -0.006   1.654   3.916
  449SOL     OW 1912   1.689   0.922   4.336
  449SOL    HW1 1913   1.784   0.893   4.344
  449SOL    HW2 1914   1.681   0.987   4.261
  450SOL     OW 1915   1.641   1.108   4.156
  450SOL    HW1 1916   1.727   1.110   4.104
  450SOL    HW2 1917   1.655   1.155   4.244
  451SOL     OW 1918   0.113   0.737   5.321
  451SOL    HW1 1919   0.201   0.724   5.366
  451SOL    HW2 1920   0.100   0.834   5.299
  452SOL     OW 1921   0.613   1.365   4.450
  452SOL    HW1 1922   0.564   1.278   4.459
  452SOL    HW2 1923   0.590   1.408   4.363
  453SOL     OW 1924   1.293   1.228   5.147
  453SOL    HW1 1925   1.330   1.155   5.089
  453SOL    HW2 1926   1.345   1.233   5.232
  454SOL     OW 1927   0.809   0.004   4.226
  454SOL    HW1 1928   0.849   0.095   4.217
  454SOL    HW2 1929   0.709   0.012   4.232
  455SOL     OW 1930   0.197   0.976   4.988
  455SOL    HW1 1931   0.286   0.931   4.974
  455SOL    HW2 1932   0.124   0.911   4.969
  456SOL     OW 1933   1.525   0.999   3.914
  456SOL    HW1 1934   1.462   0.923   3.927
  456SOL    HW2 1935   1.573   1.017   4.000
  457SOL     OW 1936   1.187   1.792   5.340
  457SOL    HW1 1937   1.211   1.852   5.264
  457SOL    HW2 1938   1.194   1.697   5.310
  458SOL     OW 1939   0.317   0.251   5.525
  458SOL    HW1 1940   0.388   0.322   5.531
  458SOL    HW2 1941   0.229   0.290   5.553
  459SOL     OW 1942   1.466   1.417   4.677
  459SOL    HW1 1943   1.407   1.423   4.757
  459SOL    HW2 1944   1.451   1.329   4.631
  460SOL     OW 1945   1.667   1.714   4.296
  460SOL    HW1 1946   1.626   1.691   4.208
  460SOL    HW2 1947   1.649   1.640   4.361
  461SOL     OW 1948   0.598   0.729   3.994
  461SOL    HW1 1949   0.622   0.798   3.926
  461SOL    HW2 1950   0.520   0.762   4.048
  462SOL     OW 1951   1.281   0.345   4.668
  462SOL    HW1 1952   1.195   0.295   4.655
  462SOL    HW2 1953   1.343   0.291   4.724
  463SOL     OW 1954   1.576   1.662   4.031
  463SOL    HW1 1955   1.665   1.708   4.034
  463SOL    HW2 1956   1.555   1.638   3.936
  464SOL     OW 1957   0.807   0.605   5.189
  464SOL    HW1 1958   0.760   0.602   5.278
  464SOL    HW2 1959   0.756   0.550   5.123
  465SOL     OW 1960   1.394   0.469   5.398
  465SOL    HW1 1961   1.374   0.512   5.486
  465SOL    HW2 1962   1.472   0.407   5.407
  466SOL     OW 1963   0.973   0.890   5.296
  466SOL    HW1 1964   1.019   0.806   5.267
  466SOL    HW2 1965   0.917   0.924   5.221
  467SOL     OW 1966   0.991   0.410   4.966
  467SOL    HW1 1967   0.914   0.444   5.020
  467SOL    HW2 1968   0.957   0.359   4.887
  468SOL     OW 1969   1.041   0.701   4.153
  468SOL    HW1 1970   1.067   0.697   4.249
  468SOL    HW2 1971   0.956   0.650   4.139
  469SOL     OW 1972   0.076   0.811   4.513
  469SOL    HW1 1973   0.175   0.799   4.522
  469SOL    HW2 1974   0.052   0.906   4.534
  470SOL     OW 1975   0.130   1.821   5.295
  470SOL    HW1 1976   0.120   1.806   5.394
  470SOL    HW2 1977   0.044   1.857   5.259
  471SOL     OW 1978   0.865   0.348   3.919
  471SOL    HW1 1979   0.924   0.411   3.870
  471SOL    HW2 1980   0.884   0.254   3.890
  472SOL     OW 1981   1.719   0.585   5.555
  472SOL    HW1 1982   1.693   0.674   5.519
  472SOL    HW2 1983   1.717   0.517   5.482
  473SOL     OW 1984   1.362   1.144   4.269
  473SOL    HW1 1985   1.445   1.115   4.221
  473SOL    HW2 1986   1.313   1.211   4.213
  474SOL     OW 1987   0.550   0.196   4.609
  474SOL    HW1 1988   0.545   0.191   4.709
  474SOL    HW2 1989   0.552   0.292   4.580
  475SOL     OW 1990   1.008   1.456   4.201
  475SOL    HW1 1991   0.962   1.528   4.149
  475SOL    HW2 1992   1.004   1.476   4.299
  476SOL     OW 1993   0.351   1.801   4.577
  476SOL    HW1 1994   0.401   1.715   4.583
  476SOL    HW2 1995   0.416   1.878   4.574
  477SOL     OW 1996   1.795   1.066   4.597
  477SOL    HW1 1997   1.733   1.051   4.521
  477SOL    HW2 1998   1.743   1.077   4.682
  478SOL     OW 1999   1.227   1.550   5.230
  478SOL    HW1 2000   1.233   1.473   5.294
  478SOL    HW2 2001   1.175   1.524   5.150
  479SOL     OW 2002   0.321   0.943   3.966
  479SOL    HW1 2003   0.403   0.982   3.924
  479SOL    HW2 2004   0.294   0.861   3.917
  480SOL     OW 2005   1.458   0.735   4.452
  480SOL    HW1 2006   1.453   0.670   4.527
  480SOL    HW2 2007   1.538   0.794   4.465
  481SOL     OW 2008   0.461   1.266   5.451
  481SOL    HW1 2009   0.411   1.267   5.365
  481SOL    HW2 2010   0.398   1.248   5.527
  482SOL     OW 2011   1.111   1.776   3.961
  482SOL    HW1 2012   1.051   1.714   4.011
  482SOL    HW2 2013   1.142   1.732   3.876
  483SOL     OW 2014   0.202   0.285   5.222
  483SOL    HW1 2015   0.122   0.345   5.209
  483SOL    HW2 2016   0.192   0.236   5.308
  484SOL     OW 2017   1.632   1.377   3.805
  484SOL    HW1 2018   1.600   1.471   3.795
  484SOL    HW2 2019   1.556   1.314   3.793
  485SOL     OW 2020   0.464   1.743   4.047
  485SOL    HW1 2021   0.497   1.782   4.133
  485SOL    HW2 2022   0.540   1.736   3.982
  486SOL     OW 2023   1.400   0.107   4.150
  486SOL    HW1 2024   1.376   0.070   4.060
  486SOL    HW2 2025   1.499   0.123   4.154
  487SOL     OW 2026   0.249   1.785   4.965
  487SOL    HW1 2027   0.306   1.720   5.015
  487SOL    HW2 2028   0.233   1.752   4.872
  488SOL     OW 2029   0.940   1.698   4.628
  488SOL    HW1 2030   1.020   1.641   4.649
  488SOL    HW2 2031   0.891   1.658   4.551
  489SOL     OW 2032   0.382   0.700   4.204
  489SOL    HW1 2033   0.427   0.610   4.201
  489SOL    HW2 2034   0.288   0.689   4.237
  490SOL     OW 2035   1.547   0.222   5.453
  490SOL    HW1 2036   1.542   0.259   5.545
  490SOL    HW2 2037   1.475   0.153   5.441
  491SOL     OW 2038   0.614   0.122   3.841
  491SOL    HW1 2039   0.712   0.100   3.848
  491SOL    HW2 2040   0.583   0.105   3.748
  492SOL     OW 2041   0.781   0.264   5.473
  492SOL    HW1 2042   0.848   0.203   5.516
  492SOL    HW2 2043   0.708   0.283   5.538
  493SOL     OW 2044   0.888   1.514   4.919
  493SOL    HW1 2045   0.865   1.489   4.825
  493SOL    HW2 2046   0.949   1.445   4.958
  494SOL     OW 2047   1.351   0.590   5.157
  494SOL    HW1 2048   1.379   0.547   5.242
  494SOL    HW2 2049   1.376   0.686   5.158
  495SOL     OW 2050   0.803   1.402   4.648
  495SOL    HW1 2051   0.893   1.416   4.606
  495SOL    HW2 2052   0.732   1.404   4.577
  496SOL     OW 2053   0.922   0.503   4.623
  496SOL    HW1 2054   0.897   0.494   4.527
  496SOL    HW2 2055   0.970   0.421   4.654
  497SOL     OW 2056   0.539   0.064   4.236
  497SOL    HW1 2057   0.458   0.065   4.294
  497SOL    HW2 2058   0.542   0.147   4.181
  498SOL     OW 2059   1.434   1.188   3.765
  498SOL    HW1 2060   1.466   1.112   3.822
  498SOL    HW2 2061   1.342   1.215   3.795
  499SOL     OW 2062   0.297   0.035   3.895
  499SOL    HW1 2063   0.346   0.119   3.874
  499SOL    HW2 2064   0.359  -0.030   3.940
  500SOL     OW 2065   0.935   0.236   4.204
  500SOL    HW1 2066   0.887   0.277   4.126
  500SOL    HW2 2067   1.034   0.234   4.185
  501SOL     OW 2068   1.076   0.683   5.188
  501SOL    HW1 2069   0.996   0.622   5.191
  501SOL    HW2 2070   1.157   0.630   5.164
  502SOL     OW 2071   1.227   1.570   4.517
  502SOL    HW1 2072   1.248   1.644   4.452
  502SOL    HW2 2073   1.295   1.570   4.590
  503SOL     OW 2074   0.459   1.152   4.465
  503SOL    HW1 2075   0.388   1.125   4.530
  503SOL    HW2 2076   0.433   1.124   4.372
  504SOL     OW 2077   1.271   1.797   4.315
  504SOL    HW1 2078   1.315   1.861   4.251
  504SOL    HW2 2079   1.221   1.849   4.385
  505SOL     OW 2080   1.032   0.549   3.740
  505SOL    HW1 2081   0.991   0.631   3.701
  505SOL    HW2 2082   1.096   0.575   3.813
  506SOL     OW 2083   0.078   0.556   5.110
  506SOL    HW1 2084   0.170   0.555   5.069
  506SOL    HW2 2085   0.072   0.630   5.177
  507SOL     OW 2086   0.561   0.222   4.871
  507SOL    HW1 2087   0.599   0.138   4.908
  507SOL    HW2 2088   0.473   0.241   4.915
  508SOL     OW 2089   0.866   0.454   4.366
  508SOL    HW1 2090   0.834   0.526   4.304
  508SOL    HW2 2091   0.890   0.373   4.313
  509SOL     OW 2092   1.017   0.039   4.477
  509SOL    HW1 2093   0.945   0.044   4.408
  509SOL    HW2 2094   0.993  -0.030   4.546
  510SOL     OW 2095   1.429   1.173   4.591
  510SOL    HW1 2096   1.374   1.089   4.584
  510SOL    HW2 2097   1.455   1.202   4.499
  511SOL     OW 2098   1.466   0.590   4.716
  511SOL    HW1 2099   1.436   0.495   4.723
  511SOL    HW2 2100   1.539   0.606   4.782
  512SOL     OW 2101   1.857   0.833   4.101
  512SOL    HW1 2102   1.899   0.769   4.165
  512SOL    HW2 2103   1.819   0.782   4.023
  513SOL     OW 2104   0.488   1.385   3.898
  513SOL    HW1 2105   0.401   1.370   3.945
  513SOL    HW2 2106   0.471   1.411   3.803
  514SOL     OW 2107   1.664   1.280   4.381
  514SOL    HW1 2108   1.763   1.288   4.395
  514SOL    HW2 2109   1.619   1.364   4.412
  515SOL     OW 2110   1.390   0.575   3.802
  515SOL    HW1 2111   1.336   0.554   3.883
  515SOL    HW2 2112   1.481   0.534   3.811
  516SOL     OW 2113   0.527   0.256   4.052
  516SOL    HW1 2114   0.554   0.197   3.977
  516SOL    HW2 2115   0.527   0.351   4.021
  517SOL     OW 2116   1.754   1.223   5.312
  517SOL    HW1 2117   1.845   1.184   5.299
  517SOL    HW2 2118   1.762   1.319   5.336
  518SOL     OW 2119   1.064   1.347   5.064
  518SOL    HW1 2120   0.984   1.324   5.119
  518SOL    HW2 2121   1.147   1.321   5.113
  519SOL     OW 2122   1.592   1.629   5.349
  519SOL    HW1 2123   1.619   1.663   5.259
  519SOL    HW2 2124   1.671   1.591   5.395
  520SOL     OW 2125   1.111   1.195   4.824
  520SOL    HW1 2126   1.071   1.239   4.905
  520SOL    HW2 2127   1.070   1.232   4.741
  521SOL     OW 2128   1.638   1.099   4.803
  521SOL    HW1 2129   1.643   1.180   4.862
  521SOL    HW2 2130   1.552   1.101   4.752
  522SOL     OW 2131   0.915   0.089   5.126
  522SOL    HW1 2132   0.940   0.069   5.031
  522SOL    HW2 2133   0.987   0.145   5.168
  523SOL     OW 2134   0.980   1.116   5.443
  523SOL    HW1 2135   0.881   1.122   5.453
  523SOL    HW2 2136   1.003   1.036   5.387
  524SOL     OW 2137   0.705   1.050   4.092
  524SOL    HW1 2138   0.691   1.057   4.191
  524SOL    HW2 2139   0.789   0.999   4.074
  525SOL     OW 2140   0.410   0.813   4.975
  525SOL    HW1 2141   0.496   0.825   5.025
  525SOL    HW2 2142   0.368   0.726   5.002
  526SOL     OW 2143   1.274   0.386   4.986
  526SOL    HW1 2144   1.295   0.460   5.050
  526SOL    HW2 2145   1.185   0.403   4.943
  527SOL     OW 2146   0.064   1.564   5.055
  527SOL    HW1 2147   0.018   1.646   5.021
  527SOL    HW2 2148   0.162   1.583   5.064
  528SOL     OW 2149   0.367   1.100   4.225
  528SOL    HW1 2150   0.360   1.183   4.169
  528SOL    HW2 2151   0.371   1.020   4.165
  529SOL     OW 2152   0.566   0.537   4.589
  529SOL    HW1 2153   0.578   0.603   4.515
  529SOL    HW2 2154   0.612   0.571   4.672
  530SOL     OW 2155   1.252   1.348   4.112
  530SOL    HW1 2156   1.302   1.425   4.152
  530SOL    HW2 2157   1.157   1.350   4.144
  531SOL     OW 2158   1.272   1.445   4.866
  531SOL    HW1 2159   1.319   1.458   4.953
  531SOL    HW2 2160   1.206   1.371   4.875
  532SOL     OW 2161   1.582   0.639   4.196
  532SOL    HW1 2162   1.551   0.700   4.269
  532SOL    HW2 2163   1.632   0.691   4.127
  533SOL     OW 2164   0.354   1.510   5.053
  533SOL    HW1 2165   0.333   1.466   4.966
  533SOL    HW2 2166   0.451   1.536   5.056
  534SOL     OW 2167   0.402   0.751   5.322
  534SOL    HW1 2168   0.470   0.806   5.275
  534SOL    HW2 2169   0.442   0.663   5.349
  535SOL     OW 2170   1.587   0.779   5.394
  535SOL    HW1 2171   1.495   0.817   5.389
  535SOL    HW2 2172   1.647   0.826   5.329
  536SOL     OW 2173   1.013   0.105   5.494
  536SOL    HW1 2174   1.019   0.190   5.442
  536SOL    HW2 2175   1.045   0.029   5.437
  537SOL     OW 2176   0.504   0.050   5.464
  537SOL    HW1 2177   0.462  -0.007   5.394
  537SOL    HW2 2178   0.438   0.119   5.496
  538SOL     OW 2179   0.573   0.870   4.753
  538SOL    HW1 2180   0.617   0.959   4.744
  538SOL    HW2 2181   0.510   0.870   4.830
  539SOL     OW 2182   1.360   0.862   4.769
  539SOL    HW1 2183   1.285   0.862   4.703
  539SOL    HW2 2184   1.397   0.770   4.778
  540SOL     OW 2185   1.209   0.525   3.999
  540SOL    HW1 2186   1.222   0.441   4.053
  540SOL    HW2 2187   1.180   0.599   4.059
  541SOL     OW 2188   0.307   0.213   4.955
  541SOL    HW1 2189   0.284   0.250   5.045
  541SOL    HW2 2190   0.277   0.118   4.949
  542SOL     OW 2191   0.037   1.310   5.006
  542SOL    HW1 2192   0.090   1.261   5.074
  542SOL    HW2 2193   0.059   1.408   5.011
  543SOL     OW 2194   0.732   0.634   4.788
  543SOL    HW1 2195   0.791   0.608   4.712
  543SOL    HW2 2196   0.704   0.730   4.777
  544SOL     OW 2197   1.728   0.935   5.578
  544SOL    HW1 2198   1.682   0.928   5.489
  544SOL    HW2 2199   1.666   0.979   5.644
  545SOL     OW 2200   0.307   0.063   4.342
  545SOL    HW1 2201   0.296   0.157   4.375
  545SOL    HW2 2202   0.302   0.000   4.419
  546SOL     OW 2203   1.622   0.367   4.098
  546SOL    HW1 2204   1.624   0.291   4.162
  546SOL    HW2 2205   1.574   0.444   4.138
  547SOL     OW 2206   1.023   0.766   4.690
  547SOL    HW1 2207   1.038   0.787   4.786
  547SOL    HW2 2208   0.993   0.671   4.681
  548SOL     OW 2209   0.980   1.573   5.424
  548SOL    HW1 2210   0.960   1.617   5.336
  548SOL    HW2 2211   1.019   1.482   5.408
  549SOL     OW 2212   1.859   1.518   5.329
  549SOL    HW1 2213   1.873   1.545   5.234
  549SOL    HW2 2214   1.942   1.540   5.382
  550SOL     OW 2215   0.350   0.898   5.528
  550SOL    HW1 2216   0.426   0.942   5.576
  550SOL    HW2 2217   0.385   0.851   5.446
  551SOL     OW 2218   1.540   0.274   3.849
  551SOL    HW1 2219   1.479   0.199   3.872
  551SOL    HW2 2220   1.562   0.326   3.932
  552SOL     OW 2221   1.303   0.838   3.766
  552SOL    HW1 2222   1.337   0.745   3.781
  552SOL    HW2 2223   1.321   0.865   3.671
  553SOL     OW 2224   1.068   1.333   4.573
  553SOL    HW1 2225   1.075   1.249   4.518
  553SOL    HW2 2226   1.130   1.402   4.537
  554SOL     OW 2227   0.319   0.810   4.673
  554SOL    HW1 2228   0.412   0.846   4.678
  554SOL    HW2 2229   0.313   0.725   4.725
  555SOL     OW 2230   0.339   0.509   4.730
  555SOL    HW1 2231   0.287   0.426   4.713
  555SOL    HW2 2232   0.416   0.514   4.666
  556SOL     OW 2233   1.138   0.380   5.402
  556SOL    HW1 2234   1.093   0.443   5.466
  556SOL    HW2 2235   1.231   0.411   5.385
  557SOL     OW 2236   1.160   0.207   5.201
  557SOL    HW1 2237   1.160   0.271   5.278
  557SOL    HW2 2238   1.188   0.255   5.118
  558SOL     OW 2239   0.008   1.326   3.924
  558SOL    HW1 2240  -0.085   1.347   3.893
  558SOL    HW2 2241   0.018   1.227   3.937
  559SOL     OW 2242   0.088   1.801   4.651
  559SOL    HW1 2243   0.046   1.715   4.624
  559SOL    HW2 2244   0.182   1.804   4.617
  560SOL     OW 2245   0.504   1.568   4.634
  560SOL    HW1 2246   0.570   1.642   4.643
  560SOL    HW2 2247   0.548   1.489   4.592
  561SOL     OW 2248   1.002   0.796   4.962
  561SOL    HW1 2249   1.043   0.764   5.048
  561SOL    HW2 2250   0.906   0.769   4.959
  562SOL     OW 2251   0.040   0.544   4.838
  562SOL    HW1 2252   0.125   0.511   4.797
  562SOL    HW2 2253   0.053   0.559   4.936
  563SOL     OW 2254   0.189   0.520   5.446
  563SOL    HW1 2255   0.248   0.480   5.376
  563SOL    HW2 2256   0.131   0.591   5.405
  564SOL     OW 2257   1.369   0.950   5.384
  564SOL    HW1 2258   1.408   1.039   5.404
  564SOL    HW2 2259   1.379   0.930   5.287
  565SOL     OW 2260   0.815   0.572   4.049
  565SOL    HW1 2261   0.822   0.483   4.003
  565SOL    HW2 2262   0.721   0.606   4.041
  566SOL     OW 2263   1.657   0.604   4.930
  566SOL    HW1 2264   1.619   0.535   4.992
  566SOL    HW2 2265   1.739   0.568   4.886
  567SOL     OW 2266   0.252   1.564   5.468
  567SOL    HW1 2267   0.222   1.621   5.544
  567SOL    HW2 2268   0.245   1.467   5.494
  568SOL     OW 2269   0.671   0.464   4.993
  568SOL    HW1 2270   0.637   0.375   4.963
  568SOL    HW2 2271   0.697   0.518   4.913
  569SOL     OW 2272   0.930   1.678   5.189
  569SOL    HW1 2273   0.906   1.660   5.094
  569SOL    HW2 2274   0.960   1.772   5.199
  570SOL     OW 2275   0.473   0.500   3.915
  570SOL    HW1 2276   0.534   0.580   3.919
  570SOL    HW2 2277   0.378   0.531   3.922
  571SOL     OW 2278   0.159   1.137   5.190
  571SOL    HW1 2279   0.181   1.076   5.266
  571SOL    HW2 2280   0.169   1.088   5.104
  572SOL     OW 2281   1.347   1.059   4.958
  572SOL    HW1 2282   1.371   0.996   4.884
  572SOL    HW2 2283   1.257   1.099   4.940
  573SOL     OW 2284   1.302   0.855   4.033
  573SOL    HW1 2285   1.216   0.824   4.075
  573SOL    HW2 2286   1.298   0.841   3.934
  574SOL     OW 2287   1.759   1.747   4.878
  574SOL    HW1 2288   1.820   1.777   4.805
  574SOL    HW2 2289   1.721   1.658   4.856
  575SOL     OW 2290   1.252   1.731   4.852
  575SOL    HW1 2291   1.336   1.736   4.798
  575SOL    HW2 2292   1.229   1.635   4.870
  576SOL     OW 2293   0.083   1.258   4.746
  576SOL    HW1 2294   0.078   1.257   4.846
  576SOL    HW2 2295   0.000   1.217   4.708
  577SOL     OW 2296   0.688   1.662   5.440
  577SOL    HW1 2297   0.632   1.743   5.449
  577SOL    HW2 2298   0.740   1.666   5.354
  578SOL     OW 2299   1.726   0.135   4.247
  578SOL    HW1 2300   1.799   0.118   4.180
  578SOL    HW2 2301   1.695   0.048   4.285
  579SOL     OW 2302   1.388   1.573   4.201
  579SOL    HW1 2303   1.455   1.585   4.127
  579SOL    HW2 2304   1.348   1.662   4.224
  580SOL     OW 2305   0.130   1.794   5.575
  580SOL    HW1 2306   0.089   1.720   5.628
  580SOL    HW2 2307   0.194   1.845   5.633
  581SOL     OW 2308   1.280   0.927   4.396
  581SOL    HW1 2309   1.340   0.846   4.398
  581SOL    HW2 2310   1.320   0.996   4.336
  582SOL     OW 2311   0.830   1.273   5.146
  582SOL    HW1 2312   0.825   1.306   5.241
  582SOL    HW2 2313   0.744   1.292   5.100
  583SOL     OW 2314   0.672   1.616   3.878
  583SOL    HW1 2315   0.681   1.626   3.779
  583SOL    HW2 2316   0.632   1.527   3.899
  584SOL     OW 2317   1.650   1.720   5.118
  584SOL    HW1 2318   1.703   1.730   5.034
  584SOL    HW2 2319   1.623   1.810   5.152
  585SOL     OW 2320   1.841   0.175   4.687
  585SOL    HW1 2321   1.880   0.090   4.651
  585SOL    HW2 2322   1.743   0.177   4.668
  586SOL     OW 2323   0.263   0.326   4.444
  586SOL    HW1 2324   0.184   0.377   4.410
  586SOL    HW2 2325   0.254   0.311   4.542
  587SOL     OW 2326   1.194   1.612   3.755
  587SOL    HW1 2327   1.200   1.519   3.792
  587SOL    HW2 2328   1.135   1.612   3.675
  588SOL     OW 2329   0.822   1.002   5.096
  588SOL    HW1 2330   0.862   1.001   5.004
  588SOL    HW2 2331   0.832   1.094   5.136
  589SOL     OW 2332   0.916   0.910   4.015
  589SOL    HW1 2333   0.979   0.948   3.947
  589SOL    HW2 2334   0.956   0.827   4.054
  590SOL     OW 2335   1.504   1.607   3.768
  590SOL    HW1 2336   1.412   1.644   3.775
  590SOL    HW2 2337   1.542   1.627   3.678
  591SOL     OW 2338   0.372   1.288   5.214
  591SOL    HW1 2339   0.359   1.381   5.180
  591SOL    HW2 2340   0.288   1.236   5.201
  592SOL     OW 2341   1.614   1.292   5.013
  592SOL    HW1 2342   1.674   1.295   5.093
  592SOL    HW2 2343   1.539   1.356   5.026
  593SOL     OW 2344   1.039   1.098   4.420
  593SOL    HW1 2345   0.969   1.051   4.474
  593SOL    HW2 2346   1.098   1.030   4.377
  594SOL     OW 2347   1.014   0.236   4.695
  594SOL    HW1 2348   1.006   0.200   4.602
  594SOL    HW2 2349   1.012   0.160   4.760
  595SOL     OW 2350   0.590   1.487   4.215
  595SOL    HW1 2351   0.632   1.429   4.145
  595SOL    HW2 2352   0.546   1.566   4.171
  596SOL     OW 2353   1.709   0.385   5.105
  596SOL    HW1 2354   1.782   0.454   5.109
  596SOL    HW2 2355   1.737   0.310   5.046
  597SOL     OW 2356   0.255   1.348   4.014
  597SOL    HW1 2357   0.159   1.349   3.987
  597SOL    HW2 2358   0.267   1.401   4.098
  598SOL     OW 2359   0.105   1.013   5.450
  598SOL    HW1 2360   0.028   0.980   5.504
  598SOL    HW2 2361   0.190   0.983   5.492
  599SOL     OW 2362   0.672   0.203   5.213
  599SOL    HW1 2363   0.762   0.187   5.173
  599SOL    HW2 2364   0.680   0.208   5.312
  600SOL     OW 2365   0.075   0.345   3.757
  600SOL    HW1 2366  -0.017   0.317   3.728
  600SOL    HW2 2367   0.106   0.422   3.701
  601SOL     OW 2368   1.440   0.856   5.122
  601SOL    HW1 2369   1.383   0.908   5.059
  601SOL    HW2 2370   1.536   0.868   5.098
  602SOL     OW 2371   0.072   0.166   4.042
  602SOL    HW1 2372   0.055   0.249   3.988
  602SOL    HW2 2373   0.162   0.129   4.020
  603SOL     OW 2374   1.183   1.335   3.843
  603SOL    HW1 2375   1.084   1.324   3.845
  603SOL    HW2 2376   1.217   1.350   3.936
  604SOL     OW 2377   0.613   0.842   5.155
  604SOL    HW1 2378   0.669   0.923   5.138
  604SOL    HW2 2379   0.672   0.762   5.158
  605SOL     OW 2380   1.493   1.767   4.683
  605SOL    HW1 2381   1.526   1.831   4.614
  605SOL    HW2 2382   1.559   1.761   4.758
  606SOL     OW 2383   0.716   0.565   5.432
  606SOL    HW1 2384   0.735   0.630   5.506
  606SOL    HW2 2385   0.776   0.485   5.441
  607SOL     OW 2386   1.450   1.220   5.357
  607SOL    HW1 2387   1.441   1.210   5.456
  607SOL    HW2 2388   1.546   1.213   5.331
  608SOL     OW 2389   0.390   1.741   5.284
  608SOL    HW1 2390   0.299   1.782   5.282
  608SOL    HW2 2391   0.383   1.647   5.316
  609SOL     OW 2392   1.674   0.883   4.978
  609SOL    HW1 2393   1.647   0.794   4.941
  609SOL    HW2 2394   1.675   0.951   4.905
  610SOL     OW 2395   1.225   0.325   4.173
  610SOL    HW1 2396   1.290   0.251   4.162
  610SOL    HW2 2397   1.245   0.375   4.257
  611SOL     OW 2398   0.594   0.745   4.376
  611SOL    HW1 2399   0.644   0.830   4.357
  611SOL    HW2 2400   0.506   0.747   4.328
  612SOL     OW 2401   1.777   0.342   5.366
  612SOL    HW1 2402   1.760   0.373   5.272
  612SOL    HW2 2403   1.693   0.305   5.404
  613SOL     OW 2404   1.730   0.934   5.241
  613SOL    HW1 2405   1.768   1.025   5.256
  613SOL    HW2 2406   1.722   0.917   5.142
  614SOL     OW 2407   0.859   1.374   3.740
  614SOL    HW1 2408   0.813   1.389   3.828
  614SOL    HW2 2409   0.903   1.459   3.710
  615SOL     OW 2410   0.661   1.790   4.677
  615SOL    HW1 2411   0.615   1.878   4.664
  615SOL    HW2 2412   0.760   1.802   4.670
  616SOL     OW 2413   0.859   0.956   4.585
  616SOL    HW1 2414   0.913   0.887   4.633
  616SOL    HW2 2415   0.827   1.025   4.651
  617SOL     OW 2416   1.083   0.984   3.811
  617SOL    HW1 2417   1.060   1.037   3.729
  617SOL    HW2 2418   1.164   0.928   3.792
  618SOL     OW 2419   1.861   1.569   4.575
  618SOL    HW1 2420   1.790   1.557   4.505
  618SOL    HW2 2421   1.862   1.490   4.635
  619SOL     OW 2422   0.221   1.314   5.568
  619SOL    HW1 2423   0.156   1.241   5.547
  619SOL    HW2 2424   0.225   1.328   5.666
  620SOL     OW 2425   0.079   1.240   4.377
  620SOL    HW1 2426   0.078   1.193   4.465
  620SOL    HW2 2427   0.161   1.212   4.326
  621SOL     OW 2428   0.672   1.391   5.348
  621SOL    HW1 2429   0.594   1.341   5.386
  621SOL    HW2 2430   0.669   1.486   5.379
  622SOL     OW 2431   1.824   0.192   4.951
  622SOL    HW1 2432   1.820   0.102   4.995
  622SOL    HW2 2433   1.827   0.181   4.852
  623SOL     OW 2434   0.428   0.424   4.244
  623SOL    HW1 2435   0.458   0.352   4.182
  623SOL    HW2 2436   0.389   0.384   4.327
  624SOL     OW 2437   1.705   1.487   4.828
  624SOL    HW1 2438   1.612   1.462   4.801
  624SOL    HW2 2439   1.731   1.437   4.910
  625SOL     OW 2440   0.317   0.547   5.004
  625SOL    HW1 2441   0.355   0.488   5.076
  625SOL    HW2 2442   0.357   0.521   4.916
  626SOL     OW 2443   0.812   1.586   4.411
  626SOL    HW1 2444   0.844   1.596   4.317
  626SOL    HW2 2445   0.733   1.524   4.413
  627SOL     OW 2446   1.424   0.214   4.836
  627SOL    HW1 2447   1.476   0.149   4.891
  627SOL    HW2 2448   1.375   0.277   4.897
  628SOL     OW 2449   1.001   0.034   4.878
  628SOL    HW1 2450   0.938  -0.038   4.847
  628SOL    HW2 2451   1.094  -0.002   4.878
  629SOL     OW 2452   0.770   1.330   4.025
  629SOL    HW1 2453   0.724   1.243   4.042
  629SOL    HW2 2454   0.861   1.327   4.066
  630SOL     OW 2455   0.618   1.567   5.008
  630SOL    HW1 2456   0.613   1.649   5.065
  630SOL    HW2 2457   0.707   1.564   4.963
  631SOL     OW 2458   1.352   0.052   3.892
  631SOL    HW1 2459   1.387   0.011   3.808
  631SOL    HW2 2460   1.262   0.014   3.912
  632SOL     OW 2461   1.300   0.453   4.415
  632SOL    HW1 2462   1.241   0.533   4.419
  632SOL    HW2 2463   1.315   0.418   4.508
  633SOL     OW 2464   1.593   0.221   4.606
  633SOL    HW1 2465   1.509   0.220   4.660
  633SOL    HW2 2466   1.595   0.304   4.550
  634SOL     OW 2467   0.039   1.077   4.024
  634SOL    HW1 2468   0.138   1.066   4.015
  634SOL    HW2 2469  -0.001   0.991   4.056
  635SOL     OW 2470   0.875   1.646   4.061
  635SOL    HW1 2471   0.798   1.611   4.007
  635SOL    HW2 2472   0.843   1.717   4.123
  636SOL     OW 2473   0.230   0.628   5.699
  636SOL    HW1 2474   0.137   0.626   5.736
  636SOL    HW2 2475   0.231   0.589   5.607
  637SOL     OW 2476   0.225   0.275   6.582
  637SOL    HW1 2477   0.260   0.258   6.674
  637SOL    HW2 2478   0.137   0.230   6.570
  638SOL     OW 2479   0.019   0.368   6.233
  638SOL    HW1 2480  -0.063   0.411   6.272
  638SOL    HW2 2481  -0.009   0.295   6.170
  639SOL     OW 2482   0.569   1.275   6.751
  639SOL    HW1 2483   0.476   1.268   6.714
  639SOL    HW2 2484   0.580   1.364   6.795
  640SOL     OW 2485   1.135   0.703   6.303
  640SOL    HW1 2486   1.192   0.781   6.278
  640SOL    HW2 2487   1.075   0.729   6.379
  641SOL     OW 2488   1.755   0.607   5.817
  641SOL    HW1 2489   1.743   0.594   5.718
  641SOL    HW2 2490   1.725   0.526   5.866
  642SOL     OW 2491   0.768   1.144   6.609
  642SOL    HW1 2492   0.690   1.161   6.669
  642SOL    HW2 2493   0.802   1.231   6.573
  643SOL     OW 2494   0.850   0.798   7.409
  643SOL    HW1 2495   0.846   0.874   7.474
  643SOL    HW2 2496   0.872   0.834   7.318
  644SOL     OW 2497   0.685   1.012   6.251
  644SOL    HW1 2498   0.754   0.996   6.321
  644SOL    HW2 2499   0.612   1.069   6.289
  645SOL     OW 2500   0.686   1.161   7.389
  645SOL    HW1 2501   0.746   1.240   7.403
  645SOL    HW2 2502   0.600   1.192   7.348
  646SOL     OW 2503   0.335   1.435   6.647
  646SOL    HW1 2504   0.257   1.404   6.594
  646SOL    HW2 2505   0.393   1.493   6.590
  647SOL     OW 2506   0.438   0.392   7.085
  647SOL    HW1 2507   0.520   0.336   7.094
  647SOL    HW2 2508   0.357   0.334   7.089
  648SOL     OW 2509   1.603   0.447   6.323
  648SOL    HW1 2510   1.529   0.493   6.273
  648SOL    HW2 2511   1.654   0.515   6.376
  649SOL     OW 2512   0.231   1.713   6.069
  649SOL    HW1 2513   0.265   1.790   6.123
  649SOL    HW2 2514   0.275   1.713   5.979
  650SOL     OW 2515   1.127   1.341   7.276
  650SOL    HW1 2516   1.174   1.341   7.364
  650SOL    HW2 2517   1.079   1.254   7.265
  651SOL     OW 2518   0.230   1.434   6.124
  651SOL    HW1 2519   0.204   1.530   6.124
  651SOL    HW2 2520   0.159   1.380   6.169
  652SOL     OW 2521   0.240   1.091   6.472
  652SOL    HW1 2522   0.254   1.007   6.524
  652SOL    HW2 2523   0.185   1.155   6.527
  653SOL     OW 2524   0.620   1.786   7.025
  653SOL    HW1 2525   0.528   1.769   7.060
  653SOL    HW2 2526   0.648   1.878   7.051
  654SOL     OW 2527   0.606   0.964   5.709
  654SOL    HW1 2528   0.613   1.048   5.655
  654SOL    HW2 2529   0.652   0.977   5.797
  655SOL     OW 2530   1.594   0.114   7.066
  655SOL    HW1 2531   1.576   0.181   6.994
  655SOL    HW2 2532   1.591   0.160   7.155
  656SOL     OW 2533   0.122   0.643   6.149
  656SOL    HW1 2534   0.077   0.555   6.166
  656SOL    HW2 2535   0.121   0.697   6.233
  657SOL     OW 2536   0.027   1.596   5.703
  657SOL    HW1 2537   0.008   1.500   5.724
  657SOL    HW2 2538  -0.006   1.654   5.778
  658SOL     OW 2539   1.689   0.922   6.198
  658SOL    HW1 2540   1.784   0.893   6.206
  658SOL    HW2 2541   1.681   0.987   6.123
  659SOL     OW 2542   1.641   1.108   6.018
  659SOL    HW1 2543   1.727   1.110   5.966
  659SOL    HW2 2544   1.655   1.155   6.106
  660SOL     OW 2545   0.113   0.737   7.183
  660SOL    HW1 2546   0.201   0.724   7.228
  660SOL    HW2 2547   0.100   0.834   7.161
  661SOL     OW 2548   0.613   1.365   6.312
  661SOL    HW1 2549   0.564   1.278   6.321
  661SOL    HW2 2550   0.590   1.408   6.225
  662SOL     OW 2551   1.293   1.228   7.009
  662SOL    HW1 2552   1.330   1.155   6.951
  662SOL    HW2 2553   1.345   1.233   7.094
  663SOL     OW 2554   0.809   0.004   6.088
  663SOL    HW1 2555   0.849   0.095   6.079
  663SOL    HW2 2556   0.709   0.012   6.094
  664SOL     OW 2557   0.197   0.976   6.850
  664SOL    HW1 2558   0.286   0.931   6.836
  664SOL    HW2 2559   0.124   0.911   6.831
  665SOL     OW 2560   1.525   0.999   5.776
  665SOL    HW1 2561   1.462   0.923   5.789
  665SOL    HW2 2562   1.573   1.017   5.862
  666SOL     OW 2563   1.187   1.792   7.202
  666SOL    HW1 2564   1.211   1.852   7.126
  666SOL    HW2 2565   1.194   1.697   7.172
  667SOL     OW 2566   0.317   0.251   7.387
  667SOL    HW1 2567   0.388   0.322   7.393
  667SOL    HW2 2568   0.229   0.290   7.415
  668SOL     OW 2569   1.466   1.417   6.539
  668SOL    HW1 2570   1.407   1.423   6.619
  668SOL    HW2 2571   1.451   1.329   6.493
  669SOL     OW 2572   0.598   0.729   5.856
  669SOL    HW1 2573   0.622   0.798   5.788
  669SOL    HW2 2574   0.520   0.762   5.910
  670SOL     OW 2575   1.281   0.345   6.530
  670SOL    HW1 2576   1.195   0.295   6.517
  670SOL    HW2 2577   1.343   0.291   6.586
  671SOL     OW 2578   0.807   0.605   7.051
  671SOL    HW1 2579   0.760   0.602   7.140
  671SOL    HW2 2580   0.756   0.550   6.985
  672SOL     OW 2581   1.394   0.469   7.260
  672SOL    HW1 2582   1.374   0.512   7.348
  672SOL    HW2 2583   1.472   0.407   7.269
  673SOL     OW 2584   0.973   0.890   7.158
  673SOL    HW1 2585   1.019   0.806   7.129
  673SOL    HW2 2586   0.917   0.924   7.083
  674SOL     OW 2587   0.991   0.410   6.828
  674SOL    HW1 2588   0.914   0.444   6.882
  674SOL    HW2 2589   0.957   0.359   6.749
  675SOL     OW 2590   1.041   0.701   6.015
  675SOL    HW1 2591   1.067   0.697   6.111
  675SOL    HW2 2592   0.956   0.650   6.001
  676SOL     OW 2593   0.076   0.811   6.375
  676SOL    HW1 2594   0.175   0.799   6.384
  676SOL    HW2 2595   0.052   0.906   6.396
  677SOL     OW 2596   0.130   1.821   7.157
  677SOL    HW1 2597   0.120   1.806   7.256
  677SOL    HW2 2598   0.044   1.857   7.121
  678SOL     OW 2599   0.865   0.348   5.781
  678SOL    HW1 2600   0.924   0.411   5.732
  678SOL    HW2 2601   0.884   0.254   5.752
  679SOL     OW 2602   1.719   0.585   7.417
  679SOL    HW1 2603   1.693   0.674   7.381
  679SOL    HW2 2604   1.717   0.517   7.344
  680SOL     OW 2605   1.362   1.144   6.131
  680SOL    HW1 2606   1.445   1.115   6.083
  680SOL    HW2 2607   1.313   1.211   6.075
  681SOL     OW 2608   0.550   0.196   6.471
  681SOL    HW1 2609   0.545   0.191   6.571
  681SOL    HW2 2610   0.552   0.292   6.442
  682SOL     OW 2611   1.008   1.456   6.063
  682SOL    HW1 2612   0.962   1.528   6.011
  682SOL    HW2 2613   1.004   1.476   6.161
  683SOL     OW 2614   0.351   1.801   6.439
  683SOL    HW1 2615   0.401   1.715   6.445
  683SOL    HW2 2616   0.416   1.878   6.436
  684SOL     OW 2617   1.795   1.066   6.459
  684SOL    HW1 2618   1.733   1.051   6.383
  684SOL    HW2 2619   1.743   1.077   6.544
  685SOL     OW 2620   1.227   1.550   7.092
  685SOL    HW1 2621   1.233   1.473   7.156
  685SOL    HW2 2622   1.175   1.524   7.012
  686SOL     OW 2623   0.321   0.943   5.828
  686SOL    HW1 2624   0.403   0.982   5.786
  686SOL    HW2 2625   0.294   0.861   5.779
  687SOL     OW 2626   1.458   0.735   6.314
  687SOL    HW1 2627   1.453   0.670   6.389
  687SOL    HW2 2628   1.538   0.794   6.327
  688SOL     OW 2629   0.461   1.266   7.313
  688SOL    HW1 2630   0.411   1.267   7.227
  688SOL    HW2 2631   0.398   1.248   7.389
  689SOL     OW 2632   1.111   1.776   5.823
  689SOL    HW1 2633   1.051   1.714   5.873
  689SOL    HW2 2634   1.142   1.732   5.738
  690SOL     OW 2635   0.202   0.285   7.084
  690SOL    HW1 2636   0.122   0.345   7.071
  690SOL    HW2 2637   0.192   0.236   7.170
  691SOL     OW 2638   1.632   1.377   5.667
  691SOL    HW1 2639   1.600   1.471   5.657
  691SOL    HW2 2640   1.556   1.314   5.655
  692SOL     OW 2641   0.464   1.743   5.909
  692SOL    HW1 2642   0.497   1.782   5.995
  692SOL    HW2 2643   0.540   1.736   5.844
  693SOL     OW 2644   1.400   0.107   6.012
  693SOL    HW1 2645   1.376   0.070   5.922
  693SOL    HW2 2646   1.499   0.123   6.016
  694SOL     OW 2647   0.249   1.785   6.827
  694SOL    HW1 2648   0.306   1.720   6.877
  694SOL    HW2 2649   0.233   1.752   6.734
  695SOL     OW 2650   0.940   1.698   6.490
  695SOL    HW1 2651   1.020   1.641   6.511
  695SOL    HW2 2652   0.891   1.658   6.413
  696SOL     OW 2653   0.382   0.700   6.066
  696SOL    HW1 2654   0.427   0.610   6.063
  696SOL    HW2 2655   0.288   0.689   6.099
  697SOL     OW 2656   1.547   0.222   7.315
  697SOL    HW1 2657   1.542   0.259   7.407
  697SOL    HW2 2658   1.475   0.153   7.303
  698SOL     OW 2659   0.614   0.122   5.703
  698SOL    HW1 2660   0.712   0.100   5.710
  698SOL    HW2 2661   0.583   0.105   5.610
  699SOL     OW 2662   0.781   0.264   7.335
  699SOL    HW1 2663   0.848   0.203   7.378
  699SOL    HW2 2664   0.708   0.283   7.400
  700SOL     OW 2665   0.888   1.514   6.781
  700SOL    HW1 2666   0.865   1.489   6.687
  700SOL    HW2 2667   0.949   1.445   6.820
  701SOL     OW 2668   1.351   0.590   7.019
  701SOL    HW1 2669   1.379   0.547   7.104
  701SOL    HW2 2670   1.376   0.686   7.020
  702SOL     OW 2671   0.803   1.402   6.510
  702SOL    HW1 2672   0.893   1.416   6.468
  702SOL    HW2 2673   0.732   1.404   6.439
  703SOL     OW 2674   0.922   0.503   6.485
  703SOL    HW1 2675   0.897   0.494   6.389
  703SOL    HW2 2676   0.970   0.421   6.516
  704SOL     OW 2677   0.539   0.064   6.098
  704SOL    HW1 2678   0.458   0.065   6.156
  704SOL    HW2 2679   0.542   0.147   6.043
  705SOL     OW 2680   1.434   1.188   5.627
  705SOL    HW1 2681   1.466   1.112   5.684
  705SOL    HW2 2682   1.342   1.215   5.657
  706SOL     OW 2683   0.297   0.035   5.757
  706SOL    HW1 2684   0.346   0.119   5.736
  706SOL    HW2 2685   0.359  -0.030   5.802
  707SOL     OW 2686   0.935   0.236   6.066
  707SOL    HW1 2687   0.887   0.277   5.988
  707SOL    HW2 2688   1.034   0.234   6.047
  708SOL     OW 2689   1.076   0.683   7.050
  708SOL    HW1 2690   0.996   0.622   7.053
  708SOL    HW2 2691   1.157   0.630   7.026
  709SOL     OW 2692   1.227   1.570   6.379
  709SOL    HW1 2693   1.248   1.644   6.314
  709SOL    HW2 2694   1.295   1.570   6.452
  710SOL     OW 2695   0.459   1.152   6.327
  710SOL    HW1 2696   0.388   1.125   6.392
  710SOL    HW2 2697   0.433   1.124   6.234
  711SOL     OW 2698   1.271   1.797   6.177
  711SOL    HW1 2699   1.315   1.861   6.113
  711SOL    HW2 2700   1.221   1.849   6.247
  712SOL     OW 2701   1.032   0.549   5.602
  712SOL    HW1 2702   0.991   0.631   5.563
  712SOL    HW2 2703   1.096   0.575   5.675
  713SOL     OW 2704   0.078   0.556   6.972
  713SOL    HW1 2705   0.170   0.555   6.931
  713SOL    HW2 2706   0.072   0.630   7.039
  714SOL     OW 2707   0.561   0.222   6.733
  714SOL    HW1 2708   0.599   0.138   6.770
  714SOL    HW2 2709   0.473   0.241   6.777
  715SOL     OW 2710   0.866   0.454   6.228
  715SOL    HW1 2711   0.834   0.526   6.166
  715SOL    HW2 2712   0.890   0.373   6.175
  716SOL     OW 2713   1.017   0.039   6.339
  716SOL    HW1 2714   0.945   0.044   6.270
  716SOL    HW2 2715   0.993  -0.030   6.408
  717SOL     OW 2716   1.429   1.173   6.453
  717SOL    HW1 2717   1.374   1.089   6.446
  717SOL    HW2 2718   1.455   1.202   6.361
  718SOL     OW 2719   1.466   0.590   6.578
  718SOL    HW1 2720   1.436   0.495   6.585
  718SOL    HW2 2721   1.539   0.606   6.644
  719SOL     OW 2722   1.857   0.833   5.963
  719SOL    HW1 2723   1.899   0.769   6.027
  719SOL    HW2 2724   1.819   0.782   5.885
  720SOL     OW 2725   0.488   1.385   5.760
  720SOL    HW1 2726   0.401   1.370   5.807
  720SOL    HW2 2727   0.471   1.411   5.665
  721SOL     OW 2728   1.664   1.280   6.243
  721SOL    HW1 2729   1.763   1.288   6.257
  721SOL    HW2 2730   1.619   1.364   6.274
  722SOL     OW 2731   1.390   0.575   5.664
  722SOL    HW1 2732   1.336   0.554   5.745
  722SOL    HW2 2733   1.481   0.534   5.673
  723SOL     OW 2734   0.527   0.256   5.914
  723SOL    HW1 2735   0.554   0.197   5.839
  723SOL    HW2 2736   0.527   0.351   5.883
  724SOL     OW 2737   1.754   1.223   7.174
  724SOL    HW1 2738   1.845   1.184   7.161
  724SOL    HW2 2739   1.762   1.319   7.198
  725SOL     OW 2740   1.064   1.347   6.926
  725SOL    HW1 2741   0.984   1.324   6.981
  725SOL    HW2 2742   1.147   1.321   6.975
  726SOL     OW 2743   1.111   1.195   6.686
  726SOL    HW1 2744   1.071   1.239   6.767
  726SOL    HW2 2745   1.070   1.232   6.603
  727SOL     OW 2746   1.638   1.099   6.665
  727SOL    HW1 2747   1.643   1.180   6.724
  727SOL    HW2 2748   1.552   1.101   6.614
  728SOL     OW 2749   0.915   0.089   6.988
  728SOL    HW1 2750   0.940   0.069   6.893
  728SOL    HW2 2751   0.987   0.145   7.030
  729SOL     OW 2752   0.980   1.116   7.305
  729SOL    HW1 2753   0.881   1.122   7.315
  729SOL    HW2 2754   1.003   1.036   7.249
  730SOL     OW 2755   0.705   1.050   5.954
  730SOL    HW1 2756   0.691   1.057   6.053
  730SOL    HW2 2757   0.789   0.999   5.936
  731SOL     OW 2758   0.410   0.813   6.837
  731SOL    HW1 2759   0.496   0.825   6.887
  731SOL    HW2 2760   0.368   0.726   6.864
  732SOL     OW 2761   1.274   0.386   6.848
  732SOL    HW1 2762   1.295   0.460   6.912
  732SOL    HW2 2763   1.185   0.403   6.805
  733SOL     OW 2764   0.064   1.564   6.917
  733SOL    HW1 2765   0.018   1.646   6.883
  733SOL    HW2 2766   0.162   1.583   6.926
  734SOL     OW 2767   0.367   1.100   6.087
  734SOL    HW1 2768   0.360   1.183   6.031
  734SOL    HW2 2769   0.371   1.020   6.027
  735SOL     OW 2770   0.566   0.537   6.451
  735SOL    HW1 2771   0.578   0.603   6.377
  735SOL    HW2 2772   0.612   0.571   6.534
  736SOL     OW 2773   1.252   1.348   5.974
  736SOL    HW1 2774   1.302   1.425   6.014
  736SOL    HW2 2775   1.157   1.350   6.006
  737SOL     OW 2776   1.272   1.445   6.728
  737SOL    HW1 2777   1.319   1.458   6.815
  737SOL    HW2 2778   1.206   1.371   6.737
  738SOL     OW 2779   1.582   0.639   6.058
  738SOL    HW1 2780   1.551   0.700   6.131
  738SOL    HW2 2781   1.632   0.691   5.989
  739SOL     OW 2782   0.354   1.510   6.915
  739SOL    HW1 2783   0.333   1.466   6.828
  739SOL    HW2 2784   0.451   1.536   6.918
  740SOL     OW 2785   0.402   0.751   7.184
  740SOL    HW1 2786   0.470   0.806   7.137
  740SOL    HW2 2787   0.442   0.663   7.211
  741SOL     OW 2788   1.587   0.779   7.256
  741SOL    HW1 2789   1.495   0.817   7.251
  741SOL    HW2 2790   1.647   0.826   7.191
  742SOL     OW 2791   1.013   0.105   7.356
  742SOL    HW1 2792   1.019   0.190   7.304
  742SOL    HW2 2793   1.045   0.029   7.299
  743SOL     OW 2794   0.504   0.050   7.326
  743SOL    HW1 2795   0.462  -0.007   7.256
  743SOL    HW2 2796   0.438   0.119   7.358
  744SOL     OW 2797   0.573   0.870   6.615
  744SOL    HW1 2798   0.617   0.959   6.606
  744SOL    HW2 2799   0.510   0.870   6.692
  745SOL     OW 2800   1.360   0.862   6.631
  745SOL    HW1 2801   1.285   0.862   6.565
  745SOL    HW2 2802   1.397   0.770   6.640
  746SOL     OW 2803   1.209   0.525   5.861
  746SOL    HW1 2804   1.222   0.441   5.915
  746SOL    HW2 2805   1.180   0.599   5.921
  747SOL     OW 2806   0.307   0.213   6.817
  747SOL    HW1 2807   0.284   0.250   6.907
  747SOL    HW2 2808   0.277   0.118   6.811
  748SOL     OW 2809   0.037   1.310   6.868
  748SOL    HW1 2810   0.090   1.261   6.936
  748SOL    HW2 2811   0.059   1.408   6.873
  749SOL     OW 2812   0.732   0.634   6.650
  749SOL    HW1 2813   0.791   0.608   6.574
  749SOL    HW2 2814   0.704   0.730   6.639
  750SOL     OW 2815   1.728   0.935   7.440
  750SOL    HW1 2816   1.682   0.928   7.351
  750SOL    HW2 2817   1.666   0.979   7.506
  751SOL     OW 2818   0.307   0.063   6.204
  751SOL    HW1 2819   0.296   0.157   6.237
  751SOL    HW2 2820   0.302   0.000   6.281
  752SOL     OW 2821   1.622   0.367   5.960
  752SOL    HW1 2822   1.624   0.291   6.024
  752SOL    HW2 2823   1.574   0.444   6.000
  753SOL     OW 2824   1.023   0.766   6.552
  753SOL    HW1 2825   1.038   0.787   6.648
  753SOL    HW2 2826   0.993   0.671   6.543
  754SOL     OW 2827   0.980   1.573   7.286
  754SOL    HW1 2828   0.960   1.617   7.198
  754SOL    HW2 2829   1.019   1.482   7.270
  755SOL     OW 2830   0.350   0.898   7.390
  755SOL    HW1 2831   0.426   0.942   7.438
  755SOL    HW2 2832   0.385   0.851   7.308
  756SOL     OW 2833   1.540   0.274   5.711
  756SOL    HW1 2834   1.479   0.199   5.734
  756SOL    HW2 2835   1.562   0.326   5.794
  757SOL     OW 2836   1.303   0.838   5.628
  757SOL    HW1 2837   1.337   0.745   5.643
  757SOL    HW2 2838   1.321   0.865   5.533
  758SOL     OW 2839   1.068   1.333   6.435
  758SOL    HW1 2840   1.075   1.249   6.380
  758SOL    HW2 2841   1.130   1.402   6.399
  759SOL     OW 2842   0.319   0.810   6.535
  759SOL    HW1 2843   0.412   0.846   6.540
  759SOL    HW2 2844   0.313   0.725   6.587
  760SOL     OW 2845   0.339   0.509   6.592
  760SOL    HW1 2846   0.287   0.426   6.575
  760SOL    HW2 2847   0.416   0.514   6.528
  761SOL     OW 2848   1.138   0.380   7.264
  761SOL    HW1 2849   1.093   0.443   7.328
  761SOL    HW2 2850   1.231   0.411   7.247
  762SOL     OW 2851   1.160   0.207   7.063
  762SOL    HW1 2852   1.160   0.271   7.140
  762SOL    HW2 2853   1.188   0.255   6.980
  763SOL     OW 2854   0.008   1.326   5.786
  763SOL    HW1 2855  -0.085   1.347   5.755
  763SOL    HW2 2856   0.018   1.227   5.799
  764SOL     OW 2857   0.088   1.801   6.513
  764SOL    HW1 2858   0.046   1.715   6.486
  764SOL    HW2 2859   0.182   1.804   6.479
  765SOL     OW 2860   0.504   1.568   6.496
  765SOL    HW1 2861   0.570   1.642   6.505
  765SOL    HW2 2862   0.548   1.489   6.454
  766SOL     OW 2863   1.002   0.796   6.824
  766SOL    HW1 2864   1.043   0.764   6.910
  766SOL    HW2 2865   0.906   0.769   6.821
  767SOL     OW 2866   0.040   0.544   6.700
  767SOL    HW1 2867   0.125   0.511   6.659
  767SOL    HW2 2868   0.053   0.559   6.798
  768SOL     OW 2869   0.189   0.520   7.308
  768SOL    HW1 2870   0.248   0.480   7.238
  768SOL    HW2 2871   0.131   0.591   7.267
  769SOL     OW 2872   1.369   0.950   7.246
  769SOL    HW1 2873   1.408   1.039   7.266
  769SOL    HW2 2874   1.379   0.930   7.149
  770SOL     OW 2875   0.815   0.572   5.911
  770SOL    HW1 2876   0.822   0.483   5.865
  770SOL    HW2 2877   0.721   0.606   5.903
  771SOL     OW 2878   1.657   0.604   6.792
  771SOL    HW1 2879   1.619   0.535   6.854
  771SOL    HW2 2880   1.739   0.568   6.748
  772SOL     OW 2881   0.252   1.564   7.330
  772SOL    HW1 2882   0.222   1.621   7.406
  772SOL    HW2 2883   0.245   1.467   7.356
  773SOL     OW 2884   0.671   0.464   6.855
  773SOL    HW1 2885   0.637   0.375   6.825
  773SOL    HW2 2886   0.697   0.518   6.775
  774SOL     OW 2887   0.930   1.678   7.051
  774SOL    HW1 2888   0.906   1.660   6.956
  774SOL    HW2 2889   0.960   1.772   7.061
  775SOL     OW 2890   0.473   0.500   5.777
  775SOL    HW1 2891   0.534   0.580   5.781
  775SOL    HW2 2892   0.378   0.531   5.784
  776SOL     OW 2893   0.159   1.137   7.052
  776SOL    HW1 2894   0.181   1.076   7.128
  776SOL    HW2 2895   0.169   1.088   6.966
  777SOL     OW 2896   1.347   1.059   6.820
  777SOL    HW1 2897   1.371   0.996   6.746
  777SOL    HW2 2898   1.257   1.099   6.802
  778SOL     OW 2899   1.302   0.855   5.895
  778SOL    HW1 2900   1.216   0.824   5.937
  778SOL    HW2 2901   1.298   0.841   5.796
  779SOL     OW 2902   0.083   1.258   6.608
  779SOL    HW1 2903   0.078   1.257   6.708
  779SOL    HW2 2904   0.000   1.217   6.570
  780SOL     OW 2905   0.688   1.662   7.302
  780SOL    HW1 2906   0.632   1.743   7.311
  780SOL    HW2 2907   0.740   1.666   7.216
  781SOL     OW 2908   1.726   0.135   6.109
  781SOL    HW1 2909   1.799   0.118   6.042
  781SOL    HW2 2910   1.695   0.048   6.147
  782SOL     OW 2911   1.388   1.573   6.063
  782SOL    HW1 2912   1.455   1.585   5.989
  782SOL    HW2 2913   1.348   1.662   6.086
  783SOL     OW 2914   0.130   1.794   7.437
  783SOL    HW1 2915   0.089   1.720   7.490
  783SOL    HW2 2916   0.194   1.845   7.495
  784SOL     OW 2917   1.280   0.927   6.258
  784SOL    HW1 2918   1.340   0.846   6.260
  784SOL    HW2 2919   1.320   0.996   6.198
  785SOL     OW 2920   0.830   1.273   7.008
  785SOL    HW1 2921   0.825   1.306   7.103
  785SOL    HW2 2922   0.744   1.292   6.962
  786SOL     OW 2923   0.672   1.616   5.740
  786SOL    HW1 2924   0.681   1.626   5.641
  786SOL    HW2 2925   0.632   1.527   5.761
  787SOL     OW 2926   1.841   0.175   6.549
  787SOL    HW1 2927   1.880   0.090   6.513
  787SOL    HW2 2928   1.743   0.177   6.530
  788SOL     OW 2929   0.263   0.326   6.306
  788SOL    HW1 2930   0.184   0.377   6.272
  788SOL    HW2 2931   0.254   0.311   6.404
  789SOL     OW 2932   1.194   1.612   5.617
  789SOL    HW1 2933   1.200   1.519   5.654
  789SOL    HW2 2934   1.135   1.612   5.537
  790SOL     OW 2935   0.822   1.002   6.958
  790SOL    HW1 2936   0.862   1.001   6.866
  790SOL    HW2 2937   0.832   1.094   6.998
  791SOL     OW 2938   0.916   0.910   5.877
  791SOL    HW1 2939   0.979   0.948   5.809
  791SOL    HW2 2940   0.956   0.827   5.916
  792SOL     OW 2941   1.504   1.607   5.630
  792SOL    HW1 2942   1.412   1.644   5.637
  792SOL    HW2 2943   1.542   1.627   5.540
  793SOL     OW 2944   0.372   1.288   7.076
  793SOL    HW1 2945   0.359   1.381   7.042
  793SOL    HW2 2946   0.288   1.236   7.063
  794SOL     OW 2947   1.039   1.098   6.282
  794SOL    HW1 2948   0.969   1.051   6.336
  794SOL    HW2 2949   1.098   1.030   6.239
  795SOL     OW 2950   1.014   0.236   6.557
  795SOL    HW1 2951   1.006   0.200   6.464
  795SOL    HW2 2952   1.012   0.160   6.622
  796SOL     OW 2953   0.590   1.487   6.077
  796SOL    HW1 2954   0.632   1.429   6.007
  796SOL    HW2 2955   0.546   1.566   6.033
  797SOL     OW 2956   1.709   0.385   6.967
  797SOL    HW1 2957   1.782   0.454   6.971
  797SOL    HW2 2958   1.737   0.310   6.908
  798SOL     OW 2959   0.255   1.348   5.876
  798SOL    HW1 2960   0.159   1.349   5.849
  798SOL    HW2 2961   0.267   1.401   5.960
  799SOL     OW 2962   0.105   1.013   7.312
  799SOL    HW1 2963   0.028   0.980   7.366
  799SOL    HW2 2964   0.190   0.983   7.354
  800SOL     OW 2965   0.672   0.203   7.075
  800SOL    HW1 2966   0.762   0.187   7.035
  800SOL    HW2 2967   0.680   0.208   7.174
  801SOL     OW 2968   0.075   0.345   5.619
  801SOL    HW1 2969  -0.017   0.317   5.590
  801SOL    HW2 2970   0.106   0.422   5.563
  802SOL     OW 2971   1.440   0.856   6.984
  802SOL    HW1 2972   1.383   0.908   6.921
  802SOL    HW2 2973   1.536   0.868   6.960
  803SOL     OW 2974   0.072   0.166   5.904
  803SOL    HW1 2975   0.055   0.249   5.850
  803SOL    HW2 2976   0.162   0.129   5.882
  804SOL     OW 2977   1.183   1.335   5.705
  804SOL    HW1 2978   1.084   1.324   5.707
  804SOL    HW2 2979   1.217   1.350   5.798
  805SOL     OW 2980   0.613   0.842   7.017
  805SOL    HW1 2981   0.669   0.923   7.000
  805SOL    HW2 2982   0.672   0.762   7.020
  806SOL     OW 2983   0.716   0.565   7.294
  806SOL    HW1 2984   0.735   0.630   7.368
  806SOL    HW2 2985   0.776   0.485   7.303
  807SOL     OW 2986   1.450   1.220   7.219
  807SOL    HW1 2987   1.441   1.210   7.318
  807SOL    HW2 2988   1.546   1.213   7.193
  808SOL     OW 2989   0.390   1.741   7.146
  808SOL    HW1 2990   0.299   1.782   7.144
  808SOL    HW2 2991   0.383   1.647   7.178
  809SOL     OW 2992   1.674   0.883   6.840
  809SOL    HW1 2993   1.647   0.794   6.803
  809SOL    HW2 2994   1.675   0.951   6.767
  810SOL     OW 2995   1.225   0.325   6.035
  810SOL    HW1 2996   1.290   0.251   6.024
  810SOL    HW2 2997   1.245   0.375   6.119
  811SOL     OW 2998   0.594   0.745   6.238
  811SOL    HW1 2999   0.644   0.830   6.219
  811SOL    HW2 3000   0.506   0.747   6.190
  812SOL     OW 3001   1.777   0.342   7.228
  812SOL    HW1 3002   1.760   0.373   7.134
  812SOL    HW2 3003   1.693   0.305   7.266
  813SOL     OW 3004   1.730   0.934   7.103
  813SOL    HW1 3005   1.768   1.025   7.118
  813SOL    HW2 3006   1.722   0.917   7.004
  814SOL     OW 3007   0.859   1.374   5.602
  814SOL    HW1 3008   0.813   1.389   5.690
  814SOL    HW2 3009   0.903   1.459   5.572
  815SOL     OW 3010   0.661   1.790   6.539
  815SOL    HW1 3011   0.615   1.878   6.526
  815SOL    HW2 3012   0.760   1.802   6.532
  816SOL     OW 3013   0.859   0.956   6.447
  816SOL    HW1 3014   0.913   0.887   6.495
  816SOL    HW2 3015   0.827   1.025   6.513
  817SOL     OW 3016   1.083   0.984   5.673
  817SOL    HW1 3017   1.060   1.037   5.591
  817SOL    HW2 3018   1.164   0.928   5.654
  818SOL     OW 3019   0.221   1.314   7.430
  818SOL    HW1 3020   0.156   1.241   7.409
  818SOL    HW2 3021   0.225   1.328   7.528
  819SOL     OW 3022   0.079   1.240   6.239
  819SOL    HW1 3023   0.078   1.193   6.327
  819SOL    HW2 3024   0.161   1.212   6.188
  820SOL     OW 3025   0.672   1.391   7.210
  820SOL    HW1 3026   0.594   1.341   7.248
  820SOL    HW2 3027   0.669   1.486   7.241
  821SOL     OW 3028   1.824   0.192   6.813
  821SOL    HW1 3029   1.820   0.102   6.857
  821SOL    HW2 3030   1.827   0.181   6.714
  822SOL     OW 3031   0.428   0.424   6.106
  822SOL    HW1 3032   0.458   0.352   6.044
  822SOL    HW2 3033   0.389   0.384   6.189
  823SOL     OW 3034   0.317   0.547   6.866
  823SOL    HW1 3035   0.355   0.488   6.938
  823SOL    HW2 3036   0.357   0.521   6.778
  824SOL     OW 3037   0.812   1.586   6.273
  824SOL    HW1 3038   0.844   1.596   6.179
  824SOL    HW2 3039   0.733   1.524   6.275
  825SOL     OW 3040   1.424   0.214   6.698
  825SOL    HW1 3041   1.476   0.149   6.753
  825SOL    HW2 3042   1.375   0.277   6.759
  826SOL     OW 3043   1.001   0.034   6.740
  826SOL    HW1 3044   0.938  -0.038   6.709
  826SOL    HW2 3045   1.094  -0.002   6.740
  827SOL     OW 3046   0.770   1.330   5.887
  827SOL    HW1 3047   0.724   1.243   5.904
  827SOL    HW2 3048   0.861   1.327   5.928
  828SOL     OW 3049   0.618   1.567   6.870
  828SOL    HW1 3050   0.613   1.649   6.927
  828SOL    HW2 3051   0.707   1.564   6.825
  829SOL     OW 3052   1.352   0.052   5.754
  829SOL    HW1 3053   1.387   0.011   5.670
  829SOL    HW2 3054   1.262   0.014   5.774
  830SOL     OW 3055   1.300   0.453   6.277
  830SOL    HW1 3056   1.241   0.533   6.281
  830SOL    HW2 3057   1.315   0.418   6.370
  831SOL     OW 3058   1.593   0.221   6.468
  831SOL    HW1 3059   1.509   0.220   6.522
  831SOL    HW2 3060   1.595   0.304   6.412
  832SOL     OW 3061   0.039   1.077   5.886
  832SOL    HW1 3062   0.138   1.066   5.877
  832SOL    HW2 3063  -0.001   0.991   5.918
  833SOL     OW 3064   0.875   1.646   5.923
  833SOL    HW1 3065   0.798   1.611   5.869
  833SOL    HW2 3066   0.843   1.717   5.985
  834SOL     OW 3067   0.230   0.628   7.561
  834SOL    HW1 3068   0.137   0.626   7.598
  834SOL    HW2 3069   0.231   0.589   7.469
  835SOL     OW 3070   0.225   0.275   8.444
  835SOL    HW1 3071   0.260   0.258   8.536
  835SOL    HW2 3072   0.137   0.230   8.432
  836SOL     OW 3073   0.019   0.368   8.095
  836SOL    HW1 3074  -0.063   0.411   8.134
  836SOL    HW2 3075  -0.009   0.295   8.032
  837SOL     OW 3076   0.569   1.275   8.613
  837SOL    HW1 3077   0.476   1.268   8.576
  837SOL    HW2 3078   0.580   1.364   8.657
  838SOL     OW 3079   1.555   1.511   8.151
  838SOL    HW1 3080   1.498   1.495   8.232
  838SOL    HW2 3081   1.496   1.521   8.071
  839SOL     OW 3082   1.135   0.703   8.165
  839SOL    HW1 3083   1.192   0.781   8.140
  839SOL    HW2 3084   1.075   0.729   8.241
  840SOL     OW 3085   1.755   0.607   7.679
  840SOL    HW1 3086   1.743   0.594   7.580
  840SOL    HW2 3087   1.725   0.526   7.728
  841SOL     OW 3088   0.768   1.144   8.471
  841SOL    HW1 3089   0.690   1.161   8.531
  841SOL    HW2 3090   0.802   1.231   8.435
  842SOL     OW 3091   0.850   0.798   9.271
  842SOL    HW1 3092   0.846   0.874   9.336
  842SOL    HW2 3093   0.872   0.834   9.180
  843SOL     OW 3094   0.685   1.012   8.113
  843SOL    HW1 3095   0.754   0.996   8.183
  843SOL    HW2 3096   0.612   1.069   8.151
  844SOL     OW 3097   0.686   1.161   9.251
  844SOL    HW1 3098   0.746   1.240   9.265
  844SOL    HW2 3099   0.600   1.192   9.210
  845SOL     OW 3100   0.335   1.435   8.509
  845SOL    HW1 3101   0.257   1.404   8.456
  845SOL    HW2 3102   0.393   1.493   8.452
  846SOL     OW 3103   1.460   1.505   8.787
  846SOL    HW1 3104   1.484   1.599   8.813
  846SOL    HW2 3105   1.444   1.451   8.869
  847SOL     OW 3106   0.438   0.392   8.947
  847SOL    HW1 3107   0.520   0.336   8.956
  847SOL    HW2 3108   0.357   0.334   8.951
  848SOL     OW 3109   1.603   0.447   8.185
  848SOL    HW1 3110   1.529   0.493   8.135
  848SOL    HW2 3111   1.654   0.515   8.238
  849SOL     OW 3112   0.231   1.713   7.931
  849SOL    HW1 3113   0.265   1.790   7.985
  849SOL    HW2 3114   0.275   1.713   7.841
  850SOL     OW 3115   1.127   1.341   9.138
  850SOL    HW1 3116   1.174   1.341   9.226
  850SOL    HW2 3117   1.079   1.254   9.127
  851SOL     OW 3118   0.230   1.434   7.986
  851SOL    HW1 3119   0.204   1.530   7.986
  851SOL    HW2 3120   0.159   1.380   8.031
  852SOL     OW 3121   0.240   1.091   8.334
  852SOL    HW1 3122   0.254   1.007   8.386
  852SOL    HW2 3123   0.185   1.155   8.389
  853SOL     OW 3124   0.620   1.786   8.887
  853SOL    HW1 3125   0.528   1.769   8.922
  853SOL    HW2 3126   0.648   1.878   8.913
  854SOL     OW 3127   0.606   0.964   7.571
  854SOL    HW1 3128   0.613   1.048   7.517
  854SOL    HW2 3129   0.652   0.977   7.659
  855SOL     OW 3130   1.594   0.114   8.928
  855SOL    HW1 3131   1.576   0.181   8.856
  855SOL    HW2 3132   1.591   0.160   9.017
  856SOL     OW 3133   0.122   0.643   8.011
  856SOL    HW1 3134   0.077   0.555   8.028
  856SOL    HW2 3135   0.121   0.697   8.095
  857SOL     OW 3136   0.027   1.596   7.565
  857SOL    HW1 3137   0.008   1.500   7.586
  857SOL    HW2 3138  -0.006   1.654   7.640
  858SOL     OW 3139   1.689   0.922   8.060
  858SOL    HW1 3140   1.784   0.893   8.068
  858SOL    HW2 3141   1.681   0.987   7.985
  859SOL     OW 3142   1.641   1.108   7.880
  859SOL    HW1 3143   1.727   1.110   7.828
  859SOL    HW2 3144   1.655   1.155   7.968
  860SOL     OW 3145   0.113   0.737   9.045
  860SOL    HW1 3146   0.201   0.724   9.090
  860SOL    HW2 3147   0.100   0.834   9.023
  861SOL     OW 3148   0.613   1.365   8.174
  861SOL    HW1 3149   0.564   1.278   8.183
  861SOL    HW2 3150   0.590   1.408   8.087
  862SOL     OW 3151   1.293   1.228   8.871
  862SOL    HW1 3152   1.330   1.155   8.813
  862SOL    HW2 3153   1.345   1.233   8.956
  863SOL     OW 3154   0.809   0.004   7.950
  863SOL    HW1 3155   0.849   0.095   7.941
  863SOL    HW2 3156   0.709   0.012   7.956
  864SOL     OW 3157   0.197   0.976   8.712
  864SOL    HW1 3158   0.286   0.931   8.698
  864SOL    HW2 3159   0.124   0.911   8.693
  865SOL     OW 3160   1.525   0.999   7.638
  865SOL    HW1 3161   1.462   0.923   7.651
  865SOL    HW2 3162   1.573   1.017   7.724
  866SOL     OW 3163   1.187   1.792   9.064
  866SOL    HW1 3164   1.211   1.852   8.988
  866SOL    HW2 3165   1.194   1.697   9.034
  867SOL     OW 3166   0.317   0.251   9.249
  867SOL    HW1 3167   0.388   0.322   9.255
  867SOL    HW2 3168   0.229   0.290   9.277
  868SOL     OW 3169   1.466   1.417   8.401
  868SOL    HW1 3170   1.407   1.423   8.481
  868SOL    HW2 3171   1.451   1.329   8.355
  869SOL     OW 3172   0.598   0.729   7.718
  869SOL    HW1 3173   0.622   0.798   7.650
  869SOL    HW2 3174   0.520   0.762   7.772
  870SOL     OW 3175   1.281   0.345   8.392
  870SOL    HW1 3176   1.195   0.295   8.379
  870SOL    HW2 3177   1.343   0.291   8.448
  871SOL     OW 3178   0.807   0.605   8.913
  871SOL    HW1 3179   0.760   0.602   9.002
  871SOL    HW2 3180   0.756   0.550   8.847
  872SOL     OW 3181   1.394   0.469   9.122
  872SOL    HW1 3182   1.374   0.512   9.210
  872SOL    HW2 3183   1.472   0.407   9.131
  873SOL     OW 3184   0.973   0.890   9.020
  873SOL    HW1 3185   1.019   0.806   8.991
  873SOL    HW2 3186   0.917   0.924   8.945
  874SOL     OW 3187   0.991   0.410   8.690
  874SOL    HW1 3188   0.914   0.444   8.744
  874SOL    HW2 3189   0.957   0.359   8.611
  875SOL     OW 3190   1.041   0.701   7.877
  875SOL    HW1 3191   1.067   0.697   7.973
  875SOL    HW2 3192   0.956   0.650   7.863
  876SOL     OW 3193   0.076   0.811   8.237
  876SOL    HW1 3194   0.175   0.799   8.246
  876SOL    HW2 3195   0.052   0.906   8.258
  877SOL     OW 3196   0.130   1.821   9.019
  877SOL    HW1 3197   0.120   1.806   9.118
  877SOL    HW2 3198   0.044   1.857   8.983
  878SOL     OW 3199   0.865   0.348   7.643
  878SOL    HW1 3200   0.924   0.411   7.594
  878SOL    HW2 3201   0.884   0.254   7.614
  879SOL     OW 3202   1.719   0.585   9.279
  879SOL    HW1 3203   1.693   0.674   9.243
  879SOL    HW2 3204   1.717   0.517   9.206
  880SOL     OW 3205   1.362   1.144   7.993
  880SOL    HW1 3206   1.445   1.115   7.945
  880SOL    HW2 3207   1.313   1.211   7.937
  881SOL     OW 3208   0.550   0.196   8.333
  881SOL    HW1 3209   0.545   0.191   8.433
  881SOL    HW2 3210   0.552   0.292   8.304
  882SOL     OW 3211   1.008   1.456   7.925
  882SOL    HW1 3212   0.962   1.528   7.873
  882SOL    HW2 3213   1.004   1.476   8.023
  883SOL     OW 3214   0.351   1.801   8.301
  883SOL    HW1 3215   0.401   1.715   8.307
  883SOL    HW2 3216   0.416   1.878   8.298
  884SOL     OW 3217   1.795   1.066   8.321
  884SOL    HW1 3218   1.733   1.051   8.245
  884SOL    HW2 3219   1.743   1.077   8.406
  885SOL     OW 3220   1.227   1.550   8.954
  885SOL    HW1 3221   1.233   1.473   9.018
  885SOL    HW2 3222   1.175   1.524   8.874
  886SOL     OW 3223   0.321   0.943   7.690
  886SOL    HW1 3224   0.403   0.982   7.648
  886SOL    HW2 3225   0.294   0.861   7.641
  887SOL     OW 3226   1.458   0.735   8.176
  887SOL    HW1 3227   1.453   0.670   8.251
  887SOL    HW2 3228   1.538   0.794   8.189
  888SOL     OW 3229   0.461   1.266   9.175
  888SOL    HW1 3230   0.411   1.267   9.089
  888SOL    HW2 3231   0.398   1.248   9.251
  889SOL     OW 3232   1.111   1.776   7.685
  889SOL    HW1 3233   1.051   1.714   7.735
  889SOL    HW2 3234   1.142   1.732   7.600
  890SOL     OW 3235   0.202   0.285   8.946
  890SOL    HW1 3236   0.122   0.345   8.933
  890SOL    HW2 3237   0.192   0.236   9.032
  891SOL     OW 3238   0.464   1.743   7.771
  891SOL    HW1 3239   0.497   1.782   7.857
  891SOL    HW2 3240   0.540   1.736   7.706
  892SOL     OW 3241   1.400   0.107   7.874
  892SOL    HW1 3242   1.376   0.070   7.784
  892SOL    HW2 3243   1.499   0.123   7.878
  893SOL     OW 3244   0.249   1.785   8.689
  893SOL    HW1 3245   0.306   1.720   8.739
  893SOL    HW2 3246   0.233   1.752   8.596
  894SOL     OW 3247   0.940   1.698   8.352
  894SOL    HW1 3248   1.020   1.641   8.373
  894SOL    HW2 3249   0.891   1.658   8.275
  895SOL     OW 3250   0.382   0.700   7.928
  895SOL    HW1 3251   0.427   0.610   7.925
  895SOL    HW2 3252   0.288   0.689   7.961
  896SOL     OW 3253   1.547   0.222   9.177
  896SOL    HW1 3254   1.542   0.259   9.269
  896SOL    HW2 3255   1.475   0.153   9.165
  897SOL     OW 3256   0.614   0.122   7.565
  897SOL    HW1 3257   0.712   0.100   7.572
  897SOL    HW2 3258   0.583   0.105   7.472
  898SOL     OW 3259   0.781   0.264   9.197
  898SOL    HW1 3260   0.848   0.203   9.240
  898SOL    HW2 3261   0.708   0.283   9.262
  899SOL     OW 3262   0.888   1.514   8.643
  899SOL    HW1 3263   0.865   1.489   8.549
  899SOL    HW2 3264   0.949   1.445   8.682
  900SOL     OW 3265   1.351   0.590   8.881
  900SOL    HW1 3266   1.379   0.547   8.966
  900SOL    HW2 3267   1.376   0.686   8.882
  901SOL     OW 3268   0.803   1.402   8.372
  901SOL    HW1 3269   0.893   1.416   8.330
  901SOL    HW2 3270   0.732   1.404   8.301
  902SOL     OW 3271   0.922   0.503   8.347
  902SOL    HW1 3272   0.897   0.494   8.251
  902SOL    HW2 3273   0.970   0.421   8.378
  903SOL     OW 3274   0.539   0.064   7.960
  903SOL    HW1 3275   0.458   0.065   8.018
  903SOL    HW2 3276   0.542   0.147   7.905
  904SOL     OW 3277   1.434   1.188   7.489
  904SOL    HW1 3278   1.466   1.112   7.546
  904SOL    HW2 3279   1.342   1.215   7.519
  905SOL     OW 3280   0.297   0.035   7.619
  905SOL    HW1 3281   0.346   0.119   7.598
  905SOL    HW2 3282   0.359  -0.030   7.664
  906SOL     OW 3283   0.935   0.236   7.928
  906SOL    HW1 3284   0.887   0.277   7.850
  906SOL    HW2 3285   1.034   0.234   7.909
  907SOL     OW 3286   1.076   0.683   8.912
  907SOL    HW1 3287   0.996   0.622   8.915
  907SOL    HW2 3288   1.157   0.630   8.888
  908SOL     OW 3289   1.227   1.570   8.241
  908SOL    HW1 3290   1.248   1.644   8.176
  908SOL    HW2 3291   1.295   1.570   8.314
  909SOL     OW 3292   0.459   1.152   8.189
  909SOL    HW1 3293   0.388   1.125   8.254
  909SOL    HW2 3294   0.433   1.124   8.096
  910SOL     OW 3295   1.271   1.797   8.039
  910SOL    HW1 3296   1.315   1.861   7.975
  910SOL    HW2 3297   1.221   1.849   8.109
  911SOL     OW 3298   1.032   0.549   7.464
  911SOL    HW1 3299   0.991   0.631   7.425
  911SOL    HW2 3300   1.096   0.575   7.537
  912SOL     OW 3301   0.078   0.556   8.834
  912SOL    HW1 3302   0.170   0.555   8.793
  912SOL    HW2 3303   0.072   0.630   8.901
  913SOL     OW 3304   0.561   0.222   8.595
  913SOL    HW1 3305   0.599   0.138   8.632
  913SOL    HW2 3306   0.473   0.241   8.639
  914SOL     OW 3307   0.866   0.454   8.090
  914SOL    HW1 3308   0.834   0.526   8.028
  914SOL    HW2 3309   0.890   0.373   8.037
  915SOL     OW 3310   1.017   0.039   8.201
  915SOL    HW1 3311   0.945   0.044   8.132
  915SOL    HW2 3312   0.993  -0.030   8.270
  916SOL     OW 3313   1.429   1.173   8.315
  916SOL    HW1 3314   1.374   1.089   8.308
  916SOL    HW2 3315   1.455   1.202   8.223
  917SOL     OW 3316   1.466   0.590   8.440
  917SOL    HW1 3317   1.436   0.495   8.447
  917SOL    HW2 3318   1.539   0.606   8.506
  918SOL     OW 3319   1.857   0.833   7.825
  918SOL    HW1 3320   1.899   0.769   7.889
  918SOL    HW2 3321   1.819   0.782   7.747
  919SOL     OW 3322   0.488   1.385   7.622
  919SOL    HW1 3323   0.401   1.370   7.669
  919SOL    HW2 3324   0.471   1.411   7.527
  920SOL     OW 3325   1.664   1.280   8.105
  920SOL    HW1 3326   1.763   1.288   8.119
  920SOL    HW2 3327   1.619   1.364   8.136
  921SOL     OW 3328   1.390   0.575   7.526
  921SOL    HW1 3329   1.336   0.554   7.607
  921SOL    HW2 3330   1.481   0.534   7.535
  922SOL     OW 3331   0.527   0.256   7.776
  922SOL    HW1 3332   0.554   0.197   7.701
  922SOL    HW2 3333   0.527   0.351   7.745
  923SOL     OW 3334   1.754   1.223   9.036
  923SOL    HW1 3335   1.845   1.184   9.023
  923SOL    HW2 3336   1.762   1.319   9.060
  924SOL     OW 3337   1.064   1.347   8.788
  924SOL    HW1 3338   0.984   1.324   8.843
  924SOL    HW2 3339   1.147   1.321   8.837
  925SOL     OW 3340   1.592   1.629   9.073
  925SOL    HW1 3341   1.619   1.663   8.983
  925SOL    HW2 3342   1.671   1.591   9.119
  926SOL     OW 3343   1.111   1.195   8.548
  926SOL    HW1 3344   1.071   1.239   8.629
  926SOL    HW2 3345   1.070   1.232   8.465
  927SOL     OW 3346   1.638   1.099   8.527
  927SOL    HW1 3347   1.643   1.180   8.586
  927SOL    HW2 3348   1.552   1.101   8.476
  928SOL     OW 3349   0.915   0.089   8.850
  928SOL    HW1 3350   0.940   0.069   8.755
  928SOL    HW2 3351   0.987   0.145   8.892
  929SOL     OW 3352   0.980   1.116   9.167
  929SOL    HW1 3353   0.881   1.122   9.177
  929SOL    HW2 3354   1.003   1.036   9.111
  930SOL     OW 3355   0.705   1.050   7.816
  930SOL    HW1 3356   0.691   1.057   7.915
  930SOL    HW2 3357   0.789   0.999   7.798
  931SOL     OW 3358   0.410   0.813   8.699
  931SOL    HW1 3359   0.496   0.825   8.749
  931SOL    HW2 3360   0.368   0.726   8.726
  932SOL     OW 3361   1.274   0.386   8.710
  932SOL    HW1 3362   1.295   0.460   8.774
  932SOL    HW2 3363   1.185   0.403   8.667
  933SOL     OW 3364   0.064   1.564   8.779
  933SOL    HW1 3365   0.018   1.646   8.745
  933SOL    HW2 3366   0.162   1.583   8.788
  934SOL     OW 3367   0.367   1.100   7.949
  934SOL    HW1 3368   0.360   1.183   7.893
  934SOL    HW2 3369   0.371   1.020   7.889
  935SOL     OW 3370   0.566   0.537   8.313
  935SOL    HW1 3371   0.578   0.603   8.239
  935SOL    HW2 3372   0.612   0.571   8.396
  936SOL     OW 3373   1.252   1.348   7.836
  936SOL    HW1 3374   1.302   1.425   7.876
  936SOL    HW2 3375   1.157   1.350   7.868
  937SOL     OW 3376   1.272   1.445   8.590
  937SOL    HW1 3377   1.319   1.458   8.677
  937SOL    HW2 3378   1.206   1.371   8.599
  938SOL     OW 3379   1.582   0.639   7.920
  938SOL    HW1 3380   1.551   0.700   7.993
  938SOL    HW2 3381   1.632   0.691   7.851
  939SOL     OW 3382   0.354   1.510   8.777
  939SOL    HW1 3383   0.333   1.466   8.690
  939SOL    HW2 3384   0.451   1.536   8.780
  940SOL     OW 3385   0.402   0.751   9.046
  940SOL    HW1 3386   0.470   0.806   8.999
  940SOL    HW2 3387   0.442   0.663   9.073
  941SOL     OW 3388   1.587   0.779   9.118
  941SOL    HW1 3389   1.495   0.817   9.113
  941SOL    HW2 3390   1.647   0.826   9.053
  942SOL     OW 3391   1.013   0.105   9.218
  942SOL    HW1 3392   1.019   0.190   9.166
  942SOL    HW2 3393   1.045   0.029   9.161
  943SOL     OW 3394   0.504   0.050   9.188
  943SOL    HW1 3395   0.462  -0.007   9.118
  943SOL    HW2 3396   0.438   0.119   9.220
  944SOL     OW 3397   0.573   0.870   8.477
  944SOL    HW1 3398   0.617   0.959   8.468
  944SOL    HW2 3399   0.510   0.870   8.554
  945SOL     OW 3400   1.360   0.862   8.493
  945SOL    HW1 3401   1.285   0.862   8.427
  945SOL    HW2 3402   1.397   0.770   8.502
  946SOL     OW 3403   1.209   0.525   7.723
  946SOL    HW1 3404   1.222   0.441   7.777
  946SOL    HW2 3405   1.180   0.599   7.783
  947SOL     OW 3406   0.307   0.213   8.679
  947SOL    HW1 3407   0.284   0.250   8.769
  947SOL    HW2 3408   0.277   0.118   8.673
  948SOL     OW 3409   0.037   1.310   8.730
  948SOL    HW1 3410   0.090   1.261   8.798
  948SOL    HW2 3411   0.059   1.408   8.735
  949SOL     OW 3412   0.732   0.634   8.512
  949SOL    HW1 3413   0.791   0.608   8.436
  949SOL    HW2 3414   0.704   0.730   8.501
  950SOL     OW 3415   1.728   0.935   9.302
  950SOL    HW1 3416   1.682   0.928   9.213
  950SOL    HW2 3417   1.666   0.979   9.368
  951SOL     OW 3418   0.307   0.063   8.066
  951SOL    HW1 3419   0.296   0.157   8.099
  951SOL    HW2 3420   0.302   0.000   8.143
  952SOL     OW 3421   1.622   0.367   7.822
  952SOL    HW1 3422   1.624   0.291   7.886
  952SOL    HW2 3423   1.574   0.444   7.862
  953SOL     OW 3424   1.023   0.766   8.414
  953SOL    HW1 3425   1.038   0.787   8.510
  953SOL    HW2 3426   0.993   0.671   8.405
  954SOL     OW 3427   0.980   1.573   9.148
  954SOL    HW1 3428   0.960   1.617   9.060
  954SOL    HW2 3429   1.019   1.482   9.132
  955SOL     OW 3430   1.859   1.518   9.053
  955SOL    HW1 3431   1.873   1.545   8.958
  955SOL    HW2 3432   1.942   1.540   9.106
  956SOL     OW 3433   0.350   0.898   9.252
  956SOL    HW1 3434   0.426   0.942   9.300
  956SOL    HW2 3435   0.385   0.851   9.170
  957SOL     OW 3436   1.540   0.274   7.573
  957SOL    HW1 3437   1.479   0.199   7.596
  957SOL    HW2 3438   1.562   0.326   7.656
  958SOL     OW 3439   1.303   0.838   7.490
  958SOL    HW1 3440   1.337   0.745   7.505
  958SOL    HW2 3441   1.321   0.865   7.395
  959SOL     OW 3442   1.068   1.333   8.297
  959SOL    HW1 3443   1.075   1.249   8.242
  959SOL    HW2 3444   1.130   1.402   8.261
  960SOL     OW 3445   0.319   0.810   8.397
  960SOL    HW1 3446   0.412   0.846   8.402
  960SOL    HW2 3447   0.313   0.725   8.449
  961SOL     OW 3448   0.339   0.509   8.454
  961SOL    HW1 3449   0.287   0.426   8.437
  961SOL    HW2 3450   0.416   0.514   8.390
  962SOL     OW 3451   1.138   0.380   9.126
  962SOL    HW1 3452   1.093   0.443   9.190
  962SOL    HW2 3453   1.231   0.411   9.109
  963SOL     OW 3454   1.160   0.207   8.925
  963SOL    HW1 3455   1.160   0.271   9.002
  963SOL    HW2 3456   1.188   0.255   8.842
  964SOL     OW 3457   0.008   1.326   7.648
  964SOL    HW1 3458  -0.085   1.347   7.617
  964SOL    HW2 3459   0.018   1.227   7.661
  965SOL     OW 3460   0.088   1.801   8.375
  965SOL    HW1 3461   0.046   1.715   8.348
  965SOL    HW2 3462   0.182   1.804   8.341
  966SOL     OW 3463   0.504   1.568   8.358
  966SOL    HW1 3464   0.570   1.642   8.367
  966SOL    HW2 3465   0.548   1.489   8.316
  967SOL     OW 3466   1.002   0.796   8.686
  967SOL    HW1 3467   1.043   0.764   8.772
  967SOL    HW2 3468   0.906   0.769   8.683
  968SOL     OW 3469   0.040   0.544   8.562
  968SOL    HW1 3470   0.125   0.511   8.521
  968SOL    HW2 3471   0.053   0.559   8.660
  969SOL     OW 3472   0.189   0.520   9.170
  969SOL    HW1 3473   0.248   0.480   9.100
  969SOL    HW2 3474   0.131   0.591   9.129
  970SOL     OW 3475   1.369   0.950   9.108
  970SOL    HW1 3476   1.408   1.039   9.128
  970SOL    HW2 3477   1.379   0.930   9.011
  971SOL     OW 3478   0.815   0.572   7.773
  971SOL    HW1 3479   0.822   0.483   7.727
  971SOL    HW2 3480   0.721   0.606   7.765
  972SOL     OW 3481   1.657   0.604   8.654
  972SOL    HW1 3482   1.619   0.535   8.716
  972SOL    HW2 3483   1.739   0.568   8.610
  973SOL     OW 3484   0.252   1.564   9.192
  973SOL    HW1 3485   0.222   1.621   9.268
  973SOL    HW2 3486   0.245   1.467   9.218
  974SOL     OW 3487   0.671   0.464   8.717
  974SOL    HW1 3488   0.637   0.375   8.687
  974SOL    HW2 3489   0.697   0.518   8.637
  975SOL     OW 3490   0.930   1.678   8.913
  975SOL    HW1 3491   0.906   1.660   8.818
  975SOL    HW2 3492   0.960   1.772   8.923
  976SOL     OW 3493   0.473   0.500   7.639
  976SOL    HW1 3494   0.534   0.580   7.643
  976SOL    HW2 3495   0.378   0.531   7.646
  977SOL     OW 3496   0.159   1.137   8.914
  977SOL    HW1 3497   0.181   1.076   8.990
  977SOL    HW2 3498   0.169   1.088   8.828
  978SOL     OW 3499   1.347   1.059   8.682
  978SOL    HW1 3500   1.371   0.996   8.608
  978SOL    HW2 3501   1.257   1.099   8.664
  979SOL     OW 3502   1.302   0.855   7.757
  979SOL    HW1 3503   1.216   0.824   7.799
  979SOL    HW2 3504   1.298   0.841   7.658
  980SOL     OW 3505   1.759   1.747   8.602
  980SOL    HW1 3506   1.820   1.777   8.529
  980SOL    HW2 3507   1.721   1.658   8.580
  981SOL     OW 3508   1.252   1.731   8.576
  981SOL    HW1 3509   1.336   1.736   8.522
  981SOL    HW2 3510   1.229   1.635   8.594
  982SOL     OW 3511   0.083   1.258   8.470
  982SOL    HW1 3512   0.078   1.257   8.570
  982SOL    HW2 3513   0.000   1.217   8.432
  983SOL     OW 3514   0.688   1.662   9.164
  983SOL    HW1 3515   0.632   1.743   9.173
  983SOL    HW2 3516   0.740   1.666   9.078
  984SOL     OW 3517   1.726   0.135   7.971
  984SOL    HW1 3518   1.799   0.118   7.904
  984SOL    HW2 3519   1.695   0.048   8.009
  985SOL     OW 3520   1.388   1.573   7.925
  985SOL    HW1 3521   1.455   1.585   7.851
  985SOL    HW2 3522   1.348   1.662   7.948
  986SOL     OW 3523   0.130   1.794   9.299
  986SOL    HW1 3524   0.089   1.720   9.352
  986SOL    HW2 3525   0.194   1.845   9.357
  987SOL     OW 3526   1.280   0.927   8.120
  987SOL    HW1 3527   1.340   0.846   8.122
  987SOL    HW2 3528   1.320   0.996   8.060
  988SOL     OW 3529   0.830   1.273   8.870
  988SOL    HW1 3530   0.825   1.306   8.965
  988SOL    HW2 3531   0.744   1.292   8.824
  989SOL     OW 3532   0.672   1.616   7.602
  989SOL    HW1 3533   0.681   1.626   7.503
  989SOL    HW2 3534   0.632   1.527   7.623
  990SOL     OW 3535   1.650   1.720   8.842
  990SOL    HW1 3536   1.703   1.730   8.758
  990SOL    HW2 3537   1.623   1.810   8.876
  991SOL     OW 3538   1.841   0.175   8.411
  991SOL    HW1 3539   1.880   0.090   8.375
  991SOL    HW2 3540   1.743   0.177   8.392
  992SOL     OW 3541   0.263   0.326   8.168
  992SOL    HW1 3542   0.184   0.377   8.134
  992SOL    HW2 3543   0.254   0.311   8.266
  993SOL     OW 3544   1.194   1.612   7.479
  993SOL    HW1 3545   1.200   1.519   7.516
  993SOL    HW2 3546   1.135   1.612   7.399
  994SOL     OW 3547   0.822   1.002   8.820
  994SOL    HW1 3548   0.862   1.001   8.728
  994SOL    HW2 3549   0.832   1.094   8.860
  995SOL     OW 3550   0.916   0.910   7.739
  995SOL    HW1 3551   0.979   0.948   7.671
  995SOL    HW2 3552   0.956   0.827   7.778
  996SOL     OW 3553   0.372   1.288   8.938
  996SOL    HW1 3554   0.359   1.381   8.904
  996SOL    HW2 3555   0.288   1.236   8.925
  997SOL     OW 3556   1.614   1.292   8.737
  997SOL    HW1 3557   1.674   1.295   8.817
  997SOL    HW2 3558   1.539   1.356   8.750
  998SOL     OW 3559   1.039   1.098   8.144
  998SOL    HW1 3560   0.969   1.051   8.198
  998SOL    HW2 3561   1.098   1.030   8.101
  999SOL     OW 3562   1.014   0.236   8.419
  999SOL    HW1 3563   1.006   0.200   8.326
  999SOL    HW2 3564   1.012   0.160   8.484
 1000SOL     OW 3565   0.590   1.487   7.939
 1000SOL    HW1 3566   0.632   1.429   7.869
 1000SOL    HW2 3567   0.546   1.566   7.895
 1001SOL     OW 3568   1.709   0.385   8.829
 1001SOL    HW1 3569   1.782   0.454   8.833
 1001SOL    HW2 3570   1.737   0.310   8.770
 1002SOL     OW 3571   0.255   1.348   7.738
 1002SOL    HW1 3572   0.159   1.349   7.711
 1002SOL    HW2 3573   0.267   1.401   7.822
 1003SOL     OW 3574   0.105   1.013   9.174
 1003SOL    HW1 3575   0.028   0.980   9.228
 1003SOL    HW2 3576   0.190   0.983   9.216
 1004SOL     OW 3577   0.672   0.203   8.937
 1004SOL    HW1 3578   0.762   0.187   8.897
 1004SOL    HW2 3579   0.680   0.208   9.036
 1005SOL     OW 3580   0.075   0.345   7.481
 1005SOL    HW1 3581  -0.017   0.317   7.452
 1005SOL    HW2 3582   0.106   0.422   7.425
 1006SOL     OW 3583   1.440   0.856   8.846
 1006SOL    HW1 3584   1.383   0.908   8.783
 1006SOL    HW2 3585   1.536   0.868   8.822
 1007SOL     OW 3586   0.072   0.166   7.766
 1007SOL    HW1 3587   0.055   0.249   7.712
 1007SOL    HW2 3588   0.162   0.129   7.744
 1008SOL     OW 3589   1.183   1.335   7.567
 1008SOL    HW1 3590   1.084   1.324   7.569
 1008SOL    HW2 3591   1.217   1.350   7.660
 1009SOL     OW 3592   0.613   0.842   8.879
 1009SOL    HW1 3593   0.669   0.923   8.862
 1009SOL    HW2 3594   0.672   0.762   8.882
 1010SOL     OW 3595   1.493   1.767   8.407
 1010SOL    HW1 3596   1.526   1.831   8.338
 1010SOL    HW2 3597   1.559   1.761   8.482
 1011SOL     OW 3598   0.716   0.565   9.156
 1011SOL    HW1 3599   0.735   0.630   9.230
 1011SOL    HW2 3600   0.776   0.485   9.165
 1012SOL     OW 3601   1.450   1.220   9.081
 1012SOL    HW1 3602   1.441   1.210   9.180
 1012SOL    HW2 3603   1.546   1.213   9.055
 1013SOL     OW 3604   0.390   1.741   9.008
 1013SOL    HW1 3605   0.299   1.782   9.006
 1013SOL    HW2 3606   0.383   1.647   9.040
 1014SOL     OW 3607   1.674   0.883   8.702
 1014SOL    HW1 3608   1.647   0.794   8.665
 1014SOL    HW2 3609   1.675   0.951   8.629
 1015SOL     OW 3610   1.225   0.325   7.897
 1015SOL    HW1 3611   1.290   0.251   7.886
 1015SOL    HW2 3612   1.245   0.375   7.981
 1016SOL     OW 3613   0.594   0.745   8.100
 1016SOL    HW1 3614   0.644   0.830   8.081
 1016SOL    HW2 3615   0.506   0.747   8.052
 1017SOL     OW 3616   1.777   0.342   9.090
 1017SOL    HW1 3617   1.760   0.373   8.996
 1017SOL    HW2 3618   1.693   0.305   9.128
 1018SOL     OW 3619   1.730   0.934   8.965
 1018SOL    HW1 3620   1.768   1.025   8.980
 1018SOL    HW2 3621   1.722   0.917   8.866
 1019SOL     OW 3622   0.859   1.374   7.464
 1019SOL    HW1 3623   0.813   1.389   7.552
 1019SOL    HW2 3624   0.903   1.459   7.434
 1020SOL     OW 3625   0.661   1.790   8.401
 1020SOL    HW1 3626   0.615   1.878   8.388
 1020SOL    HW2 3627   0.760   1.802   8.394
 1021SOL     OW 3628   0.859   0.956   8.309
 1021SOL    HW1 3629   0.913   0.887   8.357
 1021SOL    HW2 3630   0.827   1.025   8.375
 1022SOL     OW 3631   1.083   0.984   7.535
 1022SOL    HW1 3632   1.060   1.037   7.453
 1022SOL    HW2 3633   1.164   0.928   7.516
 1023SOL     OW 3634   1.861   1.569   8.299
 1023SOL    HW1 3635   1.790   1.557   8.229
 1023SOL    HW2 3636   1.862   1.490   8.359
 1024SOL     OW 3637   0.221   1.314   9.292
 1024SOL    HW1 3638   0.156   1.241   9.271
 1024SOL    HW2 3639   0.225   1.328   9.390
 1025SOL     OW 3640   0.079   1.240   8.101
 1025SOL    HW1 3641   0.078   1.193   8.189
 1025SOL    HW2 3642   0.161   1.212   8.050
 1026SOL     OW 3643   0.672   1.391   9.072
 1026SOL    HW1 3644   0.594   1.341   9.110
 1026SOL    HW2 3645   0.669   1.486   9.103
 1027SOL     OW 3646   1.824   0.192   8.675
 1027SOL    HW1 3647   1.820   0.102   8.719
 1027SOL    HW2 3648   1.827   0.181   8.576
 1028SOL     OW 3649   0.428   0.424   7.968
 1028SOL    HW1 3650   0.458   0.352   7.906
 1028SOL    HW2 3651   0.389   0.384   8.051
 1029SOL     OW 3652   1.705   1.487   8.552
 1029SOL    HW1 3653   1.612   1.462   8.525
 1029SOL    HW2 3654   1.731   1.437   8.634
 1030SOL     OW 3655   0.317   0.547   8.728
 1030SOL    HW1 3656   0.355   0.488   8.800
 1030SOL    HW2 3657   0.357   0.521   8.640
 1031SOL     OW 3658   0.812   1.586   8.135
 1031SOL    HW1 3659   0.844   1.596   8.041
 1031SOL    HW2 3660   0.733   1.524   8.137
 1032SOL     OW 3661   1.424   0.214   8.560
 1032SOL    HW1 3662   1.476   0.149   8.615
 1032SOL    HW2 3663   1.375   0.277   8.621
 1033SOL     OW 3664   1.001   0.034   8.602
 1033SOL    HW1 3665   0.938  -0.038   8.571
 1033SOL    HW2 3666   1.094  -0.002   8.602
 1034SOL     OW 3667   0.770   1.330   7.749
 1034SOL    HW1 3668   0.724   1.243   7.766
 1034SOL    HW2 3669   0.861   1.327   7.790
 1035SOL     OW 3670   0.618   1.567   8.732
 1035SOL    HW1 3671   0.613   1.649   8.789
 1035SOL    HW2 3672   0.707   1.564   8.687
 1036SOL     OW 3673   1.352   0.052   7.616
 1036SOL    HW1 3674   1.387   0.011   7.532
 1036SOL    HW2 3675   1.262   0.014   7.636
 1037SOL     OW 3676   1.300   0.453   8.139
 1037SOL    HW1 3677   1.241   0.533   8.143
 1037SOL    HW2 3678   1.315   0.418   8.232
 1038SOL     OW 3679   1.593   0.221   8.330
 1038SOL    HW1 3680   1.509   0.220   8.384
 1038SOL    HW2 3681   1.595   0.304   8.274
 1039SOL     OW 3682   0.039   1.077   7.748
 1039SOL    HW1 3683   0.138   1.066   7.739
 1039SOL    HW2 3684  -0.001   0.991   7.780
 1040SOL     OW 3685   0.875   1.646   7.785
 1040SOL    HW1 3686   0.798   1.611   7.731
 1040SOL    HW2 3687   0.843   1.717   7.847
 1041SOL     OW 3688   0.230   0.628   9.423
 1041SOL    HW1 3689   0.137   0.626   9.460
 1041SOL    HW2 3690   0.231   0.589   9.331
 1042SOL     OW 3691   0.225   0.275  10.306
 1042SOL    HW1 3692   0.260   0.258  10.398
 1042SOL    HW2 3693   0.137   0.230  10.294
 1043SOL     OW 3694   0.019   0.368   9.957
 1043SOL    HW1 3695  -0.063   0.411   9.996
 1043SOL    HW2 3696  -0.009   0.295   9.894
 1044SOL     OW 3697   0.569   1.275  10.475
 1044SOL    HW1 3698   0.476   1.268  10.438
 1044SOL    HW2 3699   0.580   1.364  10.519
 1045SOL     OW 3700   1.555   1.511  10.013
 1045SOL    HW1 3701   1.498   1.495  10.094
 1045SOL    HW2 3702   1.496   1.521   9.933
 1046SOL     OW 3703   1.135   0.703  10.027
 1046SOL    HW1 3704   1.192   0.781  10.002
 1046SOL    HW2 3705   1.075   0.729  10.103
 1047SOL     OW 3706   1.755   0.607   9.541
 1047SOL    HW1 3707   1.743   0.594   9.442
 1047SOL    HW2 3708   1.725   0.526   9.590
 1048SOL     OW 3709   0.768   1.144  10.333
 1048SOL    HW1 3710   0.690   1.161  10.393
 1048SOL    HW2 3711   0.802   1.231  10.297
 1049SOL     OW 3712   0.850   0.798  11.133
 1049SOL    HW1 3713   0.846   0.874  11.198
 1049SOL    HW2 3714   0.872   0.834  11.042
 1050SOL     OW 3715   0.685   1.012   9.975
 1050SOL    HW1 3716   0.754   0.996  10.045
 1050SOL    HW2 3717   0.612   1.069  10.013
 1051SOL     OW 3718   0.686   1.161  11.113
 1051SOL    HW1 3719   0.746   1.240  11.127
 1051SOL    HW2 3720   0.600   1.192  11.072
 1052SOL     OW 3721   0.335   1.435  10.371
 1052SOL    HW1 3722   0.257   1.404  10.318
 1052SOL    HW2 3723   0.393   1.493  10.314
 1053SOL     OW 3724   1.460   1.505  10.649
 1053SOL    HW1 3725   1.484   1.599  10.675
 1053SOL    HW2 3726   1.444   1.451  10.731
 1054SOL     OW 3727   0.438   0.392  10.809
 1054SOL    HW1 3728   0.520   0.336  10.818
 1054SOL    HW2 3729   0.357   0.334  10.813
 1055SOL     OW 3730   1.603   0.447  10.047
 1055SOL    HW1 3731   1.529   0.493   9.997
 1055SOL    HW2 3732   1.654   0.515  10.100
 1056SOL     OW 3733   0.231   1.713   9.793
 1056SOL    HW1 3734   0.265   1.790   9.847
 1056SOL    HW2 3735   0.275   1.713   9.703
 1057SOL     OW 3736   1.127   1.341  11.000
 1057SOL    HW1 3737   1.174   1.341  11.088
 1057SOL    HW2 3738   1.079   1.254  10.989
 1058SOL     OW 3739   0.230   1.434   9.848
 1058SOL    HW1 3740   0.204   1.530   9.848
 1058SOL    HW2 3741   0.159   1.380   9.893
 1059SOL     OW 3742   0.240   1.091  10.196
 1059SOL    HW1 3743   0.254   1.007  10.248
 1059SOL    HW2 3744   0.185   1.155  10.251
 1060SOL     OW 3745   0.620   1.786  10.749
 1060SOL    HW1 3746   0.528   1.769  10.784
 1060SOL    HW2 3747   0.648   1.878  10.775
 1061SOL     OW 3748   0.606   0.964   9.433
 1061SOL    HW1 3749   0.613   1.048   9.379
 1061SOL    HW2 3750   0.652   0.977   9.521
 1062SOL     OW 3751   1.594   0.114  10.790
 1062SOL    HW1 3752   1.576   0.181  10.718
 1062SOL    HW2 3753   1.591   0.160  10.879
 1063SOL     OW 3754   0.122   0.643   9.873
 1063SOL    HW1 3755   0.077   0.555   9.890
 1063SOL    HW2 3756   0.121   0.697   9.957
 1064SOL     OW 3757   0.027   1.596   9.427
 1064SOL    HW1 3758   0.008   1.500   9.448
 1064SOL    HW2 3759  -0.006   1.654   9.502
 1065SOL     OW 3760   1.689   0.922   9.922
 1065SOL    HW1 3761   1.784   0.893   9.930
 1065SOL    HW2 3762   1.681   0.987   9.847
 1066SOL     OW 3763   1.641   1.108   9.742
 1066SOL    HW1 3764   1.727   1.110   9.690
 1066SOL    HW2 3765   1.655   1.155   9.830
 1067SOL     OW 3766   0.113   0.737  10.907
 1067SOL    HW1 3767   0.201   0.724  10.952
 1067SOL    HW2 3768   0.100   0.834  10.885
 1068SOL     OW 3769   0.613   1.365  10.036
 1068SOL    HW1 3770   0.564   1.278  10.045
 1068SOL    HW2 3771   0.590   1.408   9.949
 1069SOL     OW 3772   1.293   1.228  10.733
 1069SOL    HW1 3773   1.330   1.155  10.675
 1069SOL    HW2 3774   1.345   1.233  10.818
 1070SOL     OW 3775   0.809   0.004   9.812
 1070SOL    HW1 3776   0.849   0.095   9.803
 1070SOL    HW2 3777   0.709   0.012   9.818
 1071SOL     OW 3778   0.197   0.976  10.574
 1071SOL    HW1 3779   0.286   0.931  10.560
 1071SOL    HW2 3780   0.124   0.911  10.555
 1072SOL     OW 3781   1.525   0.999   9.500
 1072SOL    HW1 3782   1.462   0.923   9.513
 1072SOL    HW2 3783   1.573   1.017   9.586
 1073SOL     OW 3784   1.187   1.792  10.926
 1073SOL    HW1 3785   1.211   1.852  10.850
 1073SOL    HW2 3786   1.194   1.697  10.896
 1074SOL     OW 3787   0.317   0.251  11.111
 1074SOL    HW1 3788   0.388   0.322  11.117
 1074SOL    HW2 3789   0.229   0.290  11.139
 1075SOL     OW 3790   1.466   1.417  10.263
 1075SOL    HW1 3791   1.407   1.423  10.343
 1075SOL    HW2 3792   1.451   1.329  10.217
 1076SOL     OW 3793   1.667   1.714   9.882
 1076SOL    HW1 3794   1.626   1.691   9.794
 1076SOL    HW2 3795   1.649   1.640   9.947
 1077SOL     OW 3796   0.598   0.729   9.580
 1077SOL    HW1 3797   0.622   0.798   9.512
 1077SOL    HW2 3798   0.520   0.762   9.634
 1078SOL     OW 3799   1.281   0.345  10.254
 1078SOL    HW1 3800   1.195   0.295  10.241
 1078SOL    HW2 3801   1.343   0.291  10.310
 1079SOL     OW 3802   1.576   1.662   9.617
 1079SOL    HW1 3803   1.665   1.708   9.620
 1079SOL    HW2 3804   1.555   1.638   9.522
 1080SOL     OW 3805   0.807   0.605  10.775
 1080SOL    HW1 3806   0.760   0.602  10.864
 1080SOL    HW2 3807   0.756   0.550  10.709
 1081SOL     OW 3808   1.394   0.469  10.984
 1081SOL    HW1 3809   1.374   0.512  11.072
 1081SOL    HW2 3810   1.472   0.407  10.993
 1082SOL     OW 3811   0.973   0.890  10.882
 1082SOL    HW1 3812   1.019   0.806  10.853
 1082SOL    HW2 3813   0.917   0.924  10.807
 1083SOL     OW 3814   0.991   0.410  10.552
 1083SOL    HW1 3815   0.914   0.444  10.606
 1083SOL    HW2 3816   0.957   0.359  10.473
 1084SOL     OW 3817   1.041   0.701   9.739
 1084SOL    HW1 3818   1.067   0.697   9.835
 1084SOL    HW2 3819   0.956   0.650   9.725
 1085SOL     OW 3820   0.076   0.811  10.099
 1085SOL    HW1 3821   0.175   0.799  10.108
 1085SOL    HW2 3822   0.052   0.906  10.120
 1086SOL     OW 3823   0.130   1.821  10.881
 1086SOL    HW1 3824   0.120   1.806  10.980
 1086SOL    HW2 3825   0.044   1.857  10.845
 1087SOL     OW 3826   0.865   0.348   9.505
 1087SOL    HW1 3827   0.924   0.411   9.456
 1087SOL    HW2 3828   0.884   0.254   9.476
 1088SOL     OW 3829   1.719   0.585  11.141
 1088SOL    HW1 3830   1.693   0.674  11.105
 1088SOL    HW2 3831   1.717   0.517  11.068
 1089SOL     OW 3832   1.362   1.144   9.855
 1089SOL    HW1 3833   1.445   1.115   9.807
 1089SOL    HW2 3834   1.313   1.211   9.799
 1090SOL     OW 3835   0.550   0.196  10.195
 1090SOL    HW1 3836   0.545   0.191  10.295
 1090SOL    HW2 3837   0.552   0.292  10.166
 1091SOL     OW 3838   1.008   1.456   9.787
 1091SOL    HW1 3839   0.962   1.528   9.735
 1091SOL    HW2 3840   1.004   1.476   9.885
 1092SOL     OW 3841   0.351   1.801  10.163
 1092SOL    HW1 3842   0.401   1.715  10.169
 1092SOL    HW2 3843   0.416   1.878  10.160
 1093SOL     OW 3844   1.795   1.066  10.183
 1093SOL    HW1 3845   1.733   1.051  10.107
 1093SOL    HW2 3846   1.743   1.077  10.268
 1094SOL     OW 3847   1.227   1.550  10.816
 1094SOL    HW1 3848   1.233   1.473  10.880
 1094SOL    HW2 3849   1.175   1.524  10.736
 1095SOL     OW 3850   0.321   0.943   9.552
 1095SOL    HW1 3851   0.403   0.982   9.510
 1095SOL    HW2 3852   0.294   0.861   9.503
 1096SOL     OW 3853   1.458   0.735  10.038
 1096SOL    HW1 3854   1.453   0.670  10.113
 1096SOL    HW2 3855   1.538   0.794  10.051
 1097SOL     OW 3856   0.461   1.266  11.037
 1097SOL    HW1 3857   0.411   1.267  10.951
 1097SOL    HW2 3858   0.398   1.248  11.113
 1098SOL     OW 3859   1.111   1.776   9.547
 1098SOL    HW1 3860   1.051   1.714   9.597
 1098SOL    HW2 3861   1.142   1.732   9.462
 1099SOL     OW 3862   0.202   0.285  10.808
 1099SOL    HW1 3863   0.122   0.345  10.795
 1099SOL    HW2 3864   0.192   0.236  10.894
 1100SOL     OW 3865   1.632   1.377   9.391
 1100SOL    HW1 3866   1.600   1.471   9.381
 1100SOL    HW2 3867   1.556   1.314   9.379
 1101SOL     OW 3868   0.464   1.743   9.633
 1101SOL    HW1 3869   0.497   1.782   9.719
 1101SOL    HW2 3870   0.540   1.736   9.568
 1102SOL     OW 3871   1.400   0.107   9.736
 1102SOL    HW1 3872   1.376   0.070   9.646
 1102SOL    HW2 3873   1.499   0.123   9.740
 1103SOL     OW 3874   0.249   1.785  10.551
 1103SOL    HW1 3875   0.306   1.720  10.601
 1103SOL    HW2 3876   0.233   1.752  10.458
 1104SOL     OW 3877   0.940   1.698  10.214
 1104SOL    HW1 3878   1.020   1.641  10.235
 1104SOL    HW2 3879   0.891   1.658  10.137
 1105SOL     OW 3880   0.382   0.700   9.790
 1105SOL    HW1 3881   0.427   0.610   9.787
 1105SOL    HW2 3882   0.288   0.689   9.823
 1106SOL     OW 3883   1.547   0.222  11.039
 1106SOL    HW1 3884   1.542   0.259  11.131
 1106SOL    HW2 3885   1.475   0.153  11.027
 1107SOL     OW 3886   0.614   0.122   9.427
 1107SOL    HW1 3887   0.712   0.100   9.434
 1107SOL    HW2 3888   0.583   0.105   9.334
 1108SOL     OW 3889   0.781   0.264  11.059
 1108SOL    HW1 3890   0.848   0.203  11.102
 1108SOL    HW2 3891   0.708   0.283  11.124
 1109SOL     OW 3892   0.888   1.514  10.505
 1109SOL    HW1 3893   0.865   1.489  10.411
 1109SOL    HW2 3894   0.949   1.445  10.544
 1110SOL     OW 3895   1.351   0.590  10.743
 1110SOL    HW1 3896   1.379   0.547  10.828
 1110SOL    HW2 3897   1.376   0.686  10.744
 1111SOL     OW 3898   0.803   1.402  10.234
 1111SOL    HW1 3899   0.893   1.416  10.192
 1111SOL    HW2 3900   0.732   1.404  10.163
 1112SOL     OW 3901   0.922   0.503  10.209
 1112SOL    HW1 3902   0.897   0.494  10.113
 1112SOL    HW2 3903   0.970   0.421  10.240
 1113SOL     OW 3904   0.539   0.064   9.822
 1113SOL    HW1 3905   0.458   0.065   9.880
 1113SOL    HW2 3906   0.542   0.147   9.767
 1114SOL     OW 3907   1.434   1.188   9.351
 1114SOL    HW1 3908   1.466   1.112   9.408
 1114SOL    HW2 3909   1.342   1.215   9.381
 1115SOL     OW 3910   0.297   0.035   9.481
 1115SOL    HW1 3911   0.346   0.119   9.460
 1115SOL    HW2 3912   0.359  -0.030   9.526
 1116SOL     OW 3913   0.935   0.236   9.790
 1116SOL    HW1 3914   0.887   0.277   9.712
 1116SOL    HW2 3915   1.034   0.234   9.771
 1117SOL     OW 3916   1.076   0.683  10.774
 1117SOL    HW1 3917   0.996   0.622  10.777
 1117SOL    HW2 3918   1.157   0.630  10.750
 1118SOL     OW 3919   1.227   1.570  10.103
 1118SOL    HW1 3920   1.248   1.644  10.038
 1118SOL    HW2 3921   1.295   1.570  10.176
 1119SOL     OW 3922   0.459   1.152  10.051
 1119SOL    HW1 3923   0.388   1.125  10.116
 1119SOL    HW2 3924   0.433   1.124   9.958
 1120SOL     OW 3925   1.271   1.797   9.901
 1120SOL    HW1 3926   1.315   1.861   9.837
 1120SOL    HW2 3927   1.221   1.849   9.971
 1121SOL     OW 3928   1.032   0.549   9.326
 1121SOL    HW1 3929   0.991   0.631   9.287
 1121SOL    HW2 3930   1.096   0.575   9.399
 1122SOL     OW 3931   0.078   0.556  10.696
 1122SOL    HW1 3932   0.170   0.555  10.655
 1122SOL    HW2 3933   0.072   0.630  10.763
 1123SOL     OW 3934   0.561   0.222  10.457
 1123SOL    HW1 3935   0.599   0.138  10.494
 1123SOL    HW2 3936   0.473   0.241  10.501
 1124SOL     OW 3937   0.866   0.454   9.952
 1124SOL    HW1 3938   0.834   0.526   9.890
 1124SOL    HW2 3939   0.890   0.373   9.899
 1125SOL     OW 3940   1.017   0.039  10.063
 1125SOL    HW1 3941   0.945   0.044   9.994
 1125SOL    HW2 3942   0.993  -0.030  10.132
 1126SOL     OW 3943   1.429   1.173  10.177
 1126SOL    HW1 3944   1.374   1.089  10.170
 1126SOL    HW2 3945   1.455   1.202  10.085
 1127SOL     OW 3946   1.466   0.590  10.302
 1127SOL    HW1 3947   1.436   0.495  10.309
 1127SOL    HW2 3948   1.539   0.606  10.368
 1128SOL     OW 3949   1.857   0.833   9.687
 1128SOL    HW1 3950   1.899   0.769   9.751
 1128SOL    HW2 3951   1.819   0.782   9.609
 1129SOL     OW 3952   0.488   1.385   9.484
 1129SOL    HW1 3953   0.401   1.370   9.531
 1129SOL    HW2 3954   0.471   1.411   9.389
 1130SOL     OW 3955   1.664   1.280   9.967
 1130SOL    HW1 3956   1.763   1.288   9.981
 1130SOL    HW2 3957   1.619   1.364   9.998
 1131SOL     OW 3958   1.390   0.575   9.388
 1131SOL    HW1 3959   1.336   0.554   9.469
 1131SOL    HW2 3960   1.481   0.534   9.397
 1132SOL     OW 3961   0.527   0.256   9.638
 1132SOL    HW1 3962   0.554   0.197   9.563
 1132SOL    HW2 3963   0.527   0.351   9.607
 1133SOL     OW 3964   1.754   1.223  10.898
 1133SOL    HW1 3965   1.845   1.184  10.885
 1133SOL    HW2 3966   1.762   1.319  10.922
 1134SOL     OW 3967   1.064   1.347  10.650
 1134SOL    HW1 3968   0.984   1.324  10.705
 1134SOL    HW2 3969   1.147   1.321  10.699
 1135SOL     OW 3970   1.592   1.629  10.935
 1135SOL    HW1 3971   1.619   1.663  10.845
 1135SOL    HW2 3972   1.671   1.591  10.981
 1136SOL     OW 3973   1.111   1.195  10.410
 1136SOL    HW1 3974   1.071   1.239  10.491
 1136SOL    HW2 3975   1.070   1.232  10.327
 1137SOL     OW 3976   1.638   1.099  10.389
 1137SOL    HW1 3977   1.643   1.180  10.448
 1137SOL    HW2 3978   1.552   1.101  10.338
 1138SOL     OW 3979   0.915   0.089  10.712
 1138SOL    HW1 3980   0.940   0.069  10.617
 1138SOL    HW2 3981   0.987   0.145  10.754
 1139SOL     OW 3982   0.980   1.116  11.029
 1139SOL    HW1 3983   0.881   1.122  11.039
 1139SOL    HW2 3984   1.003   1.036  10.973
 1140SOL     OW 3985   0.705   1.050   9.678
 1140SOL    HW1 3986   0.691   1.057   9.777
 1140SOL    HW2 3987   0.789   0.999   9.660
 1141SOL     OW 3988   0.410   0.813  10.561
 1141SOL    HW1 3989   0.496   0.825  10.611
 1141SOL    HW2 3990   0.368   0.726  10.588
 1142SOL     OW 3991   1.274   0.386  10.572
 1142SOL    HW1 3992   1.295   0.460  10.636
 1142SOL    HW2 3993   1.185   0.403  10.529
 1143SOL     OW 3994   0.064   1.564  10.641
 1143SOL    HW1 3995   0.018   1.646  10.607
 1143SOL    HW2 3996   0.162   1.583  10.650
 1144SOL     OW 3997   0.367   1.100   9.811
 1144SOL    HW1 3998   0.360   1.183   9.755
 1144SOL    HW2 3999   0.371   1.020   9.751
 1145SOL     OW 4000   0.566   0.537  10.175
 1145SOL    HW1 4001   0.578   0.603  10.101
 1145SOL    HW2 4002   0.612   0.571  10.258
 1146SOL     OW 4003   1.252   1.348   9.698
 1146SOL    HW1 4004   1.302   1.425   9.738
 1146SOL    HW2 4005   1.157   1.350   9.730
 1147SOL     OW 4006   1.272   1.445  10.452
 1147SOL    HW1 4007   1.319   1.458  10.539
 1147SOL    HW2 4008   1.206   1.371  10.461
 1148SOL     OW 4009   1.582   0.639   9.782
 1148SOL    HW1 4010   1.551   0.700   9.855
 1148SOL    HW2 4011   1.632   0.691   9.713
 1149SOL     OW 4012   0.354   1.510  10.639
 1149SOL    HW1 4013   0.333   1.466  10.552
 1149SOL    HW2 4014   0.451   1.536  10.642
 1150SOL     OW 4015   0.402   0.751  10.908
 1150SOL    HW1 4016   0.470   0.806  10.861
 1150SOL    HW2 4017   0.442   0.663  10.935
 1151SOL     OW 4018   1.587   0.779  10.980
 1151SOL    HW1 4019   1.495   0.817  10.975
 1151SOL    HW2 4020   1.647   0.826  10.915
 1152SOL     OW 4021   1.013   0.105  11.080
 1152SOL    HW1 4022   1.019   0.190  11.028
 1152SOL    HW2 4023   1.045   0.029  11.023
 1153SOL     OW 4024   0.504   0.050  11.050
 1153SOL    HW1 4025   0.462  -0.007  10.980
 1153SOL    HW2 4026   0.438   0.119  11.082
 1154SOL     OW 4027   0.573   0.870  10.339
 1154SOL    HW1 4028   0.617   0.959  10.330
 1154SOL    HW2 4029   0.510   0.870  10.416
 1155SOL     OW 4030   1.360   0.862  10.355
 1155SOL    HW1 4031   1.285   0.862  10.289
 1155SOL    HW2 4032   1.397   0.770  10.364
 1156SOL     OW 4033   1.209   0.525   9.585
 1156SOL    HW1 4034   1.222   0.441   9.639
 1156SOL    HW2 4035   1.180   0.599   9.645
 1157SOL     OW 4036   0.307   0.213  10.541
 1157SOL    HW1 4037   0.284   0.250  10.631
 1157SOL    HW2 4038   0.277   0.118  10.535
 1158SOL     OW 4039   0.037   1.310  10.592
 1158SOL    HW1 4040   0.090   1.261  10.660
 1158SOL    HW2 4041   0.059   1.408  10.597
 1159SOL     OW 4042   0.732   0.634  10.374
 1159SOL    HW1 4043   0.791   0.608  10.298
 1159SOL    HW2 4044   0.704   0.730  10.363
 1160SOL     OW 4045   1.728   0.935  11.164
 1160SOL    HW1 4046   1.682   0.928  11.075
 1160SOL    HW2 4047   1.666   0.979  11.230
 1161SOL     OW 4048   0.307   0.063   9.928
 1161SOL    HW1 4049   0.296   0.157   9.961
 1161SOL    HW2 4050   0.302   0.000  10.005
 1162SOL     OW 4051   1.622   0.367   9.684
 1162SOL    HW1 4052   1.624   0.291   9.748
 1162SOL    HW2 4053   1.574   0.444   9.724
 1163SOL     OW 4054   1.023   0.766  10.276
 1163SOL    HW1 4055   1.038   0.787  10.372
 1163SOL    HW2 4056   0.993   0.671  10.267
 1164SOL     OW 4057   0.980   1.573  11.010
 1164SOL    HW1 4058   0.960   1.617  10.922
 1164SOL    HW2 4059   1.019   1.482  10.994
 1165SOL     OW 4060   1.859   1.518  10.915
 1165SOL    HW1 4061   1.873   1.545  10.820
 1165SOL    HW2 4062   1.942   1.540  10.968
 1166SOL     OW 4063   0.350   0.898  11.114
 1166SOL    HW1 4064   0.426   0.942  11.162
 1166SOL    HW2 4065   0.385   0.851  11.032
 1167SOL     OW 4066   1.540   0.274   9.435
 1167SOL    HW1 4067   1.479   0.199   9.458
 1167SOL    HW2 4068   1.562   0.326   9.518
 1168SOL     OW 4069   1.303   0.838   9.352
 1168SOL    HW1 4070   1.337   0.745   9.367
 1168SOL    HW2 4071   1.321   0.865   9.257
 1169SOL     OW 4072   1.068   1.333  10.159
 1169SOL    HW1 4073   1.075   1.249  10.104
 1169SOL    HW2 4074   1.130   1.402  10.123
 1170SOL     OW 4075   0.319   0.810  10.259
 1170SOL    HW1 4076   0.412   0.846  10.264
 1170SOL    HW2 4077   0.313   0.725  10.311
 1171SOL     OW 4078   0.339   0.509  10.316
 1171SOL    HW1 4079   0.287   0.426  10.299
 1171SOL    HW2 4080   0.416   0.514  10.252
 1172SOL     OW 4081   1.138   0.380  10.988
 1172SOL    HW1 4082   1.093   0.443  11.052
 1172SOL    HW2 4083   1.231   0.411  10.971
 1173SOL     OW 4084   1.160   0.207  10.787
 1173SOL    HW1 4085   1.160   0.271  10.864
 1173SOL    HW2 4086   1.188   0.255  10.704
 1174SOL     OW 4087   0.008   1.326   9.510
 1174SOL    HW1 4088  -0.085   1.347   9.479
 1174SOL    HW2 4089   0.018   1.227   9.523
 1175SOL     OW 4090   0.088   1.801  10.237
 1175SOL    HW1 4091   0.046   1.715  10.210
 1175SOL    HW2 4092   0.182   1.804  10.203
 1176SOL     OW 4093   0.504   1.568  10.220
 1176SOL    HW1 4094   0.570   1.642  10.229
 1176SOL    HW2 4095   0.548   1.489  10.178
 1177SOL     OW 4096   1.002   0.796  10.548
 1177SOL    HW1 4097   1.043   0.764  10.634
 1177SOL    HW2 4098   0.906   0.769  10.545
 1178SOL     OW 4099   0.040   0.544  10.424
 1178SOL    HW1 4100   0.125   0.511  10.383
 1178SOL    HW2 4101   0.053   0.559  10.522
 1179SOL     OW 4102   0.189   0.520  11.032
 1179SOL    HW1 4103   0.248   0.480  10.962
 1179SOL    HW2 4104   0.131   0.591  10.991
 1180SOL     OW 4105   1.369   0.950  10.970
 1180SOL    HW1 4106   1.408   1.039  10.990
 1180SOL    HW2 4107   1.379   0.930  10.873
 1181SOL     OW 4108   0.815   0.572   9.635
 1181SOL    HW1 4109   0.822   0.483   9.589
 1181SOL    HW2 4110   0.721   0.606   9.627
 1182SOL     OW 4111   1.657   0.604  10.516
 1182SOL    HW1 4112   1.619   0.535  10.578
 1182SOL    HW2 4113   1.739   0.568  10.472
 1183SOL     OW 4114   0.252   1.564  11.054
 1183SOL    HW1 4115   0.222   1.621  11.130
 1183SOL    HW2 4116   0.245   1.467  11.080
 1184SOL     OW 4117   0.671   0.464  10.579
 1184SOL    HW1 4118   0.637   0.375  10.549
 1184SOL    HW2 4119   0.697   0.518  10.499
 1185SOL     OW 4120   0.930   1.678  10.775
 1185SOL    HW1 4121   0.906   1.660  10.680
 1185SOL    HW2 4122   0.960   1.772  10.785
 1186SOL     OW 4123   0.473   0.500   9.501
 1186SOL    HW1 4124   0.534   0.580   9.505
 1186SOL    HW2 4125   0.378   0.531   9.508
 1187SOL     OW 4126   0.159   1.137  10.776
 1187SOL    HW1 4127   0.181   1.076  10.852
 1187SOL    HW2 4128   0.169   1.088  10.690
 1188SOL     OW 4129   1.347   1.059  10.544
 1188SOL    HW1 4130   1.371   0.996  10.470
 1188SOL    HW2 4131   1.257   1.099  10.526
 1189SOL     OW 4132   1.302   0.855   9.619
 1189SOL    HW1 4133   1.216   0.824   9.661
 1189SOL    HW2 4134   1.298   0.841   9.520
 1190SOL     OW 4135   1.759   1.747  10.464
 1190SOL    HW1 4136   1.820   1.777  10.391
 1190SOL    HW2 4137   1.721   1.658  10.442
 1191SOL     OW 4138   1.252   1.731  10.438
 1191SOL    HW1 4139   1.336   1.736  10.384
 1191SOL    HW2 4140   1.229   1.635  10.456
 1192SOL     OW 4141   0.083   1.258  10.332
 1192SOL    HW1 4142   0.078   1.257  10.432
 1192SOL    HW2 4143   0.000   1.217  10.294
 1193SOL     OW 4144   0.688   1.662  11.026
 1193SOL    HW1 4145   0.632   1.743  11.035
 1193SOL    HW2 4146   0.740   1.666  10.940
 1194SOL     OW 4147   1.726   0.135   9.833
 1194SOL    HW1 4148   1.799   0.118   9.766
 1194SOL    HW2 4149   1.695   0.048   9.871
 1195SOL     OW 4150   1.388   1.573   9.787
 1195SOL    HW1 4151   1.455   1.585   9.713
 1195SOL    HW2 4152   1.348   1.662   9.810
 1196SOL     OW 4153   0.130   1.794  11.161
 1196SOL    HW1 4154   0.089   1.720  11.214
 1196SOL    HW2 4155   0.194   1.845  11.219
 1197SOL     OW 4156   1.280   0.927   9.982
 1197SOL    HW1 4157   1.340   0.846   9.984
 1197SOL    HW2 4158   1.320   0.996   9.922
 1198SOL     OW 4159   0.830   1.273  10.732
 1198SOL    HW1 4160   0.825   1.306  10.827
 1198SOL    HW2 4161   0.744   1.292  10.686
 1199SOL     OW 4162   0.672   1.616   9.464
 1199SOL    HW1 4163   0.681   1.626   9.365
 1199SOL    HW2 4164   0.632   1.527   9.485
 1200SOL     OW 4165   1.650   1.720  10.704
 1200SOL    HW1 4166   1.703   1.730  10.620
 1200SOL    HW2 4167   1.623   1.810  10.738
 1201SOL     OW 4168   1.841   0.175  10.273
 1201SOL    HW1 4169   1.880   0.090  10.237
 1201SOL    HW2 4170   1.743   0.177  10.254
 1202SOL     OW 4171   0.263   0.326  10.030
 1202SOL    HW1 4172   0.184   0.377   9.996
 1202SOL    HW2 4173   0.254   0.311  10.128
 1203SOL     OW 4174   1.194   1.612   9.341
 1203SOL    HW1 4175   1.200   1.519   9.378
 1203SOL    HW2 4176   1.135   1.612   9.261
 1204SOL     OW 4177   0.822   1.002  10.682
 1204SOL    HW1 4178   0.862   1.001  10.590
 1204SOL    HW2 4179   0.832   1.094  10.722
 1205SOL     OW 4180   0.916   0.910   9.601
 1205SOL    HW1 4181   0.979   0.948   9.533
 1205SOL    HW2 4182   0.956   0.827   9.640
 1206SOL     OW 4183   1.504   1.607   9.354
 1206SOL    HW1 4184   1.412   1.644   9.361
 1206SOL    HW2 4185   1.542   1.627   9.264
 1207SOL     OW 4186   0.372   1.288  10.800
 1207SOL    HW1 4187   0.359   1.381  10.766
 1207SOL    HW2 4188   0.288   1.236  10.787
 1208SOL     OW 4189   1.614   1.292  10.599
 1208SOL    HW1 4190   1.674   1.295  10.679
 1208SOL    HW2 4191   1.539   1.356  10.612
 1209SOL     OW 4192   1.039   1.098  10.006
 1209SOL    HW1 4193   0.969   1.051  10.060
 1209SOL    HW2 4194   1.098   1.030   9.963
 1210SOL     OW 4195   1.014   0.236  10.281
 1210SOL    HW1 4196   1.006   0.200  10.188
 1210SOL    HW2 4197   1.012   0.160  10.346
 1211SOL     OW 4198   0.590   1.487   9.801
 1211SOL    HW1 4199   0.632   1.429   9.731
 1211SOL    HW2 4200   0.546   1.566   9.757
 1212SOL     OW 4201   1.709   0.385  10.691
 1212SOL    HW1 4202   1.782   0.454  10.695
 1212SOL    HW2 4203   1.737   0.310  10.632
 1213SOL     OW 4204   0.255   1.348   9.600
 1213SOL    HW1 4205   0.159   1.349   9.573
 1213SOL    HW2 4206   0.267   1.401   9.684
 1214SOL     OW 4207   0.105   1.013  11.036
 1214SOL    HW1 4208   0.028   0.980  11.090
 1214SOL    HW2 4209   0.190   0.983  11.078
 1215SOL     OW 4210   0.672   0.203  10.799
 1215SOL    HW1 4211   0.762   0.187  10.759
 1215SOL    HW2 4212   0.680   0.208  10.898
 1216SOL     OW 4213   0.075   0.345   9.343
 1216SOL    HW1 4214  -0.017   0.317   9.314
 1216SOL    HW2 4215   0.106   0.422   9.287
 1217SOL     OW 4216   1.440   0.856  10.708
 1217SOL    HW1 4217   1.383   0.908  10.645
 1217SOL    HW2 4218   1.536   0.868  10.684
 1218SOL     OW 4219   0.072   0.166   9.628
 1218SOL    HW1 4220   0.055   0.249   9.574
 1218SOL    HW2 4221   0.162   0.129   9.606
 1219SOL     OW 4222   1.183   1.335   9.429
 1219SOL    HW1 4223   1.084   1.324   9.431
 1219SOL    HW2 4224   1.217   1.350   9.522
 1220SOL     OW 4225   0.613   0.842  10.741
 1220SOL    HW1 4226   0.669   0.923  10.724
 1220SOL    HW2 4227   0.672   0.762  10.744
 1221SOL     OW 4228   1.493   1.767  10.269
 1221SOL    HW1 4229   1.526   1.831  10.200
 1221SOL    HW2 4230   1.559   1.761  10.344
 1222SOL     OW 4231   0.716   0.565  11.018
 1222SOL    HW1 4232   0.735   0.630  11.092
 1222SOL    HW2 4233   0.776   0.485  11.027
 1223SOL     OW 4234   1.450   1.220  10.943
 1223SOL    HW1 4235   1.441   1.210  11.042
 1223SOL    HW2 4236   1.546   1.213  10.917
 1224SOL     OW 4237   0.390   1.741  10.870
 1224SOL    HW1 4238   0.299   1.782  10.868
 1224SOL    HW2 4239   0.383   1.647  10.902
 1225SOL     OW 4240   1.674   0.883  10.564
 1225SOL    HW1 4241   1.647   0.794  10.527
 1225SOL    HW2 4242   1.675   0.951  10.491
 1226SOL     OW 4243   1.225   0.325   9.759
 1226SOL    HW1 4244   1.290   0.251   9.748
 1226SOL    HW2 4245   1.245   0.375   9.843
 1227SOL     OW 4246   0.594   0.745   9.962
 1227SOL    HW1 4247   0.644   0.830   9.943
 1227SOL    HW2 4248   0.506   0.747   9.914
 1228SOL     OW 4249   1.777   0.342  10.952
 1228SOL    HW1 4250   1.760   0.373  10.858
 1228SOL    HW2 4251   1.693   0.305  10.990
 1229SOL     OW 4252   1.730   0.934  10.827
 1229SOL    HW1 4253   1.768   1.025  10.842
 1229SOL    HW2 4254   1.722   0.917  10.728
 1230SOL     OW 4255   0.859   1.374   9.326
 1230SOL    HW1 4256   0.813   1.389   9.414
 1230SOL    HW2 4257   0.903   1.459   9.296
 1231SOL     OW 4258   0.661   1.790  10.263
 1231SOL    HW1 4259   0.615   1.878  10.250
 1231SOL    HW2 4260   0.760   1.802  10.256
 1232SOL     OW 4261   0.859   0.956  10.171
 1232SOL    HW1 4262   0.913   0.887  10.219
 1232SOL    HW2 4263   0.827   1.025  10.237
 1233SOL     OW 4264   1.083   0.984   9.397
 1233SOL    HW1 4265   1.060   1.037   9.315
 1233SOL    HW2 4266   1.164   0.928   9.378
 1234SOL     OW 4267   1.861   1.569  10.161
 1234SOL    HW1 4268   1.790   1.557  10.091
 1234SOL    HW2 4269   1.862   1.490  10.221
 1235SOL     OW 4270   0.221   1.314  11.154
 1235SOL    HW1 4271   0.156   1.241  11.133
 1235SOL    HW2 4272   0.225   1.328  11.252
 1236SOL     OW 4273   0.079   1.240   9.963
 1236SOL    HW1 4274   0.078   1.193  10.051
 1236SOL    HW2 4275   0.161   1.212   9.912
 1237SOL     OW 4276   0.672   1.391  10.934
 1237SOL    HW1 4277   0.594   1.341  10.972
 1237SOL    HW2 4278   0.669   1.486  10.965
 1238SOL     OW 4279   1.824   0.192  10.537
 1238SOL    HW1 4280   1.820   0.102  10.581
 1238SOL    HW2 4281   1.827   0.181  10.438
 1239SOL     OW 4282   0.428   0.424   9.830
 1239SOL    HW1 4283   0.458   0.352   9.768
 1239SOL    HW2 4284   0.389   0.384   9.913
 1240SOL     OW 4285   1.705   1.487  10.414
 1240SOL    HW1 4286   1.612   1.462  10.387
 1240SOL    HW2 4287   1.731   1.437  10.496
 1241SOL     OW 4288   0.317   0.547  10.590
 1241SOL    HW1 4289   0.355   0.488  10.662
 1241SOL    HW2 4290   0.357   0.521  10.502
 1242SOL     OW 4291   0.812   1.586   9.997
 1242SOL    HW1 4292   0.844   1.596   9.903
 1242SOL    HW2 4293   0.733   1.524   9.999
 1243SOL     OW 4294   1.424   0.214  10.422
 1243SOL    HW1 4295   1.476   0.149  10.477
 1243SOL    HW2 4296   1.375   0.277  10.483
 1244SOL     OW 4297   1.001   0.034  10.464
 1244SOL    HW1 4298   0.938  -0.038  10.433
 1244SOL    HW2 4299   1.094  -0.002  10.464
 1245SOL     OW 4300   0.770   1.330   9.611
 1245SOL    HW1 4301   0.724   1.243   9.628
 1245SOL    HW2 4302   0.861   1.327   9.652
 1246SOL     OW 4303   0.618   1.567  10.594
 1246SOL    HW1 4304   0.613   1.649  10.651
 1246SOL    HW2 4305   0.707   1.564  10.549
 1247SOL     OW 4306   1.352   0.052   9.478
 1247SOL    HW1 4307   1.387   0.011   9.394
 1247SOL    HW2 4308   1.262   0.014   9.498
 1248SOL     OW 4309   1.300   0.453  10.001
 1248SOL    HW1 4310   1.241   0.533  10.005
 1248SOL    HW2 4311   1.315   0.418  10.094
 1249SOL     OW 4312   1.593   0.221  10.192
 1249SOL    HW1 4313   1.509   0.220  10.246
 1249SOL    HW2 4314   1.595   0.304  10.136
 1250SOL     OW 4315   0.039   1.077   9.610
 1250SOL    HW1 4316   0.138   1.066   9.601
 1250SOL    HW2 4317  -0.001   0.991   9.642
 1251SOL     OW 4318   0.875   1.646   9.647
 1251SOL    HW1 4319   0.798   1.611   9.593
 1251SOL    HW2 4320   0.843   1.717   9.709
 1252SOL     OW 4321   0.230   0.628  11.285
 1252SOL    HW1 4322   0.137   0.626  11.322
 1252SOL    HW2 4323   0.231   0.589  11.193
 1253SOL     OW 4324   0.225   0.275  12.168
 1253SOL    HW1 4325   0.260   0.258  12.260
 1253SOL    HW2 4326   0.137   0.230  12.156
 1254SOL     OW 4327   0.019   0.368  11.819
 1254SOL    HW1 4328  -0.063   0.411  11.858
 1254SOL    HW2 4329  -0.009   0.295  11.756
 1255SOL     OW 4330   0.569   1.275  12.337
 1255SOL    HW1 4331   0.476   1.268  12.300
 1255SOL    HW2 4332   0.580   1.364  12.381
 1256SOL     OW 4333   1.555   1.511  11.875
 1256SOL    HW1 4334   1.498   1.495  11.956
 1256SOL    HW2 4335   1.496   1.521  11.795
 1257SOL     OW 4336   1.135   0.703  11.889
 1257SOL    HW1 4337   1.192   0.781  11.864
 1257SOL    HW2 4338   1.075   0.729  11.965
 1258SOL     OW 4339   1.755   0.607  11.403
 1258SOL    HW1 4340   1.743   0.594  11.304
 1258SOL    HW2 4341   1.725   0.526  11.452
 1259SOL     OW 4342   0.768   1.144  12.195
 1259SOL    HW1 4343   0.690   1.161  12.255
 1259SOL    HW2 4344   0.802   1.231  12.159
 1260SOL     OW 4345   0.850   0.798  12.995
 1260SOL    HW1 4346   0.846   0.874  13.060
 1260SOL    HW2 4347   0.872   0.834  12.904
 1261SOL     OW 4348   0.685   1.012  11.837
 1261SOL    HW1 4349   0.754   0.996  11.907
 1261SOL    HW2 4350   0.612   1.069  11.875
 1262SOL     OW 4351   0.686   1.161  12.975
 1262SOL    HW1 4352   0.746   1.240  12.989
 1262SOL    HW2 4353   0.600   1.192  12.934
 1263SOL     OW 4354   0.335   1.435  12.233
 1263SOL    HW1 4355   0.257   1.404  12.180
 1263SOL    HW2 4356   0.393   1.493  12.176
 1264SOL     OW 4357   1.460   1.505  12.511
 1264SOL    HW1 4358   1.484   1.599  12.537
 1264SOL    HW2 4359   1.444   1.451  12.593
 1265SOL     OW 4360   0.438   0.392  12.671
 1265SOL    HW1 4361   0.520   0.336  12.680
 1265SOL    HW2 4362   0.357   0.334  12.675
 1266SOL     OW 4363   1.603   0.447  11.909
 1266SOL    HW1 4364   1.529   0.493  11.859
 1266SOL    HW2 4365   1.654   0.515  11.962
 1267SOL     OW 4366   0.231   1.713  11.655
 1267SOL    HW1 4367   0.265   1.790  11.709
 1267SOL    HW2 4368   0.275   1.713  11.565
 1268SOL     OW 4369   1.127   1.341  12.862
 1268SOL    HW1 4370   1.174   1.341  12.950
 1268SOL    HW2 4371   1.079   1.254  12.851
 1269SOL     OW 4372   0.230   1.434  11.710
 1269SOL    HW1 4373   0.204   1.530  11.710
 1269SOL    HW2 4374   0.159   1.380  11.755
 1270SOL     OW 4375   0.240   1.091  12.058
 1270SOL    HW1 4376   0.254   1.007  12.110
 1270SOL    HW2 4377   0.185   1.155  12.113
 1271SOL     OW 4378   0.620   1.786  12.611
 1271SOL    HW1 4379   0.528   1.769  12.646
 1271SOL    HW2 4380   0.648   1.878  12.637
 1272SOL     OW 4381   0.606   0.964  11.295
 1272SOL    HW1 4382   0.613   1.048  11.241
 1272SOL    HW2 4383   0.652   0.977  11.383
 1273SOL     OW 4384   1.594   0.114  12.652
 1273SOL    HW1 4385   1.576   0.181  12.580
 1273SOL    HW2 4386   1.591   0.160  12.741
 1274SOL     OW 4387   0.122   0.643  11.735
 1274SOL    HW1 4388   0.077   0.555  11.752
 1274SOL    HW2 4389   0.121   0.697  11.819
 1275SOL     OW 4390   0.027   1.596  11.289
 1275SOL    HW1 4391   0.008   1.500  11.310
 1275SOL    HW2 4392  -0.006   1.654  11.364
 1276SOL     OW 4393   1.689   0.922  11.784
 1276SOL    HW1 4394   1.784   0.893  11.792
 1276SOL    HW2 4395   1.681   0.987  11.709
 1277SOL     OW 4396   1.641   1.108  11.604
 1277SOL    HW1 4397   1.727   1.110  11.552
 1277SOL    HW2 4398   1.655   1.155  11.692
 1278SOL     OW 4399   0.113   0.737  12.769
 1278SOL    HW1 4400   0.201   0.724  12.814
 1278SOL    HW2 4401   0.100   0.834  12.747
 1279SOL     OW 4402   0.613   1.365  11.898
 1279SOL    HW1 4403   0.564   1.278  11.907
 1279SOL    HW2 4404   0.590   1.408  11.811
 1280SOL     OW 4405   1.293   1.228  12.595
 1280SOL    HW1 4406   1.330   1.155  12.537
 1280SOL    HW2 4407   1.345   1.233  12.680
 1281SOL     OW 4408   0.809   0.004  11.674
 1281SOL    HW1 4409   0.849   0.095  11.665
 1281SOL    HW2 4410   0.709   0.012  11.680
 1282SOL     OW 4411   0.197   0.976  12.436
 1282SOL    HW1 4412   0.286   0.931  12.422
 1282SOL    HW2 4413   0.124   0.911  12.417
 1283SOL     OW 4414   1.525   0.999  11.362
 1283SOL    HW1 4415   1.462   0.923  11.375
 1283SOL    HW2 4416   1.573   1.017  11.448
 1284SOL     OW 4417   1.187   1.792  12.788
 1284SOL    HW1 4418   1.211   1.852  12.712
 1284SOL    HW2 4419   1.194   1.697  12.758
 1285SOL     OW 4420   0.317   0.251  12.973
 1285SOL    HW1 4421   0.388   0.322  12.979
 1285SOL    HW2 4422   0.229   0.290  13.001
 1286SOL     OW 4423   1.466   1.417  12.125
 1286SOL    HW1 4424   1.407   1.423  12.205
 1286SOL    HW2 4425   1.451   1.329  12.079
 1287SOL     OW 4426   1.667   1.714  11.744
 1287SOL    HW1 4427   1.626   1.691  11.656
 1287SOL    HW2 4428   1.649   1.640  11.809
 1288SOL     OW 4429   0.598   0.729  11.442
 1288SOL    HW1 4430   0.622   0.798  11.374
 1288SOL    HW2 4431   0.520   0.762  11.496
 1289SOL     OW 4432   1.281   0.345  12.116
 1289SOL    HW1 4433   1.195   0.295  12.103
 1289SOL    HW2 4434   1.343   0.291  12.172
 1290SOL     OW 4435   1.576   1.662  11.479
 1290SOL    HW1 4436   1.665   1.708  11.482
 1290SOL    HW2 4437   1.555   1.638  11.384
 1291SOL     OW 4438   0.807   0.605  12.637
 1291SOL    HW1 4439   0.760   0.602  12.726
 1291SOL    HW2 4440   0.756   0.550  12.571
 1292SOL     OW 4441   1.394   0.469  12.846
 1292SOL    HW1 4442   1.374   0.512  12.934
 1292SOL    HW2 4443   1.472   0.407  12.855
 1293SOL     OW 4444   0.973   0.890  12.744
 1293SOL    HW1 4445   1.019   0.806  12.715
 1293SOL    HW2 4446   0.917   0.924  12.669
 1294SOL     OW 4447   0.991   0.410  12.414
 1294SOL    HW1 4448   0.914   0.444  12.468
 1294SOL    HW2 4449   0.957   0.359  12.335
 1295SOL     OW 4450   1.041   0.701  11.601
 1295SOL    HW1 4451   1.067   0.697  11.697
 1295SOL    HW2 4452   0.956   0.650  11.587
 1296SOL     OW 4453   0.076   0.811  11.961
 1296SOL    HW1 4454   0.175   0.799  11.970
 1296SOL    HW2 4455   0.052   0.906  11.982
 1297SOL     OW 4456   0.130   1.821  12.743
 1297SOL    HW1 4457   0.120   1.806  12.842
 1297SOL    HW2 4458   0.044   1.857  12.707
 1298SOL     OW 4459   0.865   0.348  11.367
 1298SOL    HW1 4460   0.924   0.411  11.318
 1298SOL    HW2 4461   0.884   0.254  11.338
 1299SOL     OW 4462   1.719   0.585  13.003
 1299SOL    HW1 4463   1.693   0.674  12.967
 1299SOL    HW2 4464   1.717   0.517  12.930
 1300SOL     OW 4465   1.362   1.144  11.717
 1300SOL    HW1 4466   1.445   1.115  11.669
 1300SOL    HW2 4467   1.313   1.211  11.661
 1301SOL     OW 4468   0.550   0.196  12.057
 1301SOL    HW1 4469   0.545   0.191  12.157
 1301SOL    HW2 4470   0.552   0.292  12.028
 1302SOL     OW 4471   1.008   1.456  11.649
 1302SOL    HW1 4472   0.962   1.528  11.597
 1302SOL    HW2 4473   1.004   1.476  11.747
 1303SOL     OW 4474   0.351   1.801  12.025
 1303SOL    HW1 4475   0.401   1.715  12.031
 1303SOL    HW2 4476   0.416   1.878  12.022
 1304SOL     OW 4477   1.795   1.066  12.045
 1304SOL    HW1 4478   1.733   1.051  11.969
 1304SOL    HW2 4479   1.743   1.077  12.130
 1305SOL     OW 4480   1.227   1.550  12.678
 1305SOL    HW1 4481   1.233   1.473  12.742
 1305SOL    HW2 4482   1.175   1.524  12.598
 1306SOL     OW 4483   0.321   0.943  11.414
 1306SOL    HW1 4484   0.403   0.982  11.372
 1306SOL    HW2 4485   0.294   0.861  11.365
 1307SOL     OW 4486   1.458   0.735  11.900
 1307SOL    HW1 4487   1.453   0.670  11.975
 1307SOL    HW2 4488   1.538   0.794  11.913
 1308SOL     OW 4489   0.461   1.266  12.899
 1308SOL    HW1 4490   0.411   1.267  12.813
 1308SOL    HW2 4491   0.398   1.248  12.975
 1309SOL     OW 4492   1.111   1.776  11.409
 1309SOL    HW1 4493   1.051   1.714  11.459
 1309SOL    HW2 4494   1.142   1.732  11.324
 1310SOL     OW 4495   0.202   0.285  12.670
 1310SOL    HW1 4496   0.122   0.345  12.657
 1310SOL    HW2 4497   0.192   0.236  12.756
 1311SOL     OW 4498   1.632   1.377  11.253
 1311SOL    HW1 4499   1.600   1.471  11.243
 1311SOL    HW2 4500   1.556   1.314  11.241
 1312SOL     OW 4501   0.464   1.743  11.495
 1312SOL    HW1 4502   0.497   1.782  11.581
 1312SOL    HW2 4503   0.540   1.736  11.430
 1313SOL     OW 4504   1.400   0.107  11.598
 1313SOL    HW1 4505   1.376   0.070  11.508
 1313SOL    HW2 4506   1.499   0.123  11.602
 1314SOL     OW 4507   0.249   1.785  12.413
 1314SOL    HW1 4508   0.306   1.720  12.463
 1314SOL    HW2 4509   0.233   1.752  12.320
 1315SOL     OW 4510   0.940   1.698  12.076
 1315SOL    HW1 4511   1.020   1.641  12.097
 1315SOL    HW2 4512   0.891   1.658  11.999
 1316SOL     OW 4513   0.382   0.700  11.652
 1316SOL    HW1 4514   0.427   0.610  11.649
 1316SOL    HW2 4515   0.288   0.689  11.685
 1317SOL     OW 4516   1.547   0.222  12.901
 1317SOL    HW1 4517   1.542   0.259  12.993
 1317SOL    HW2 4518   1.475   0.153  12.889
 1318SOL     OW 4519   0.614   0.122  11.289
 1318SOL    HW1 4520   0.712   0.100  11.296
 1318SOL    HW2 4521   0.583   0.105  11.196
 1319SOL     OW 4522   0.781   0.264  12.921
 1319SOL    HW1 4523   0.848   0.203  12.964
 1319SOL    HW2 4524   0.708   0.283  12.986
 1320SOL     OW 4525   0.888   1.514  12.367
 1320SOL    HW1 4526   0.865   1.489  12.273
 1320SOL    HW2 4527   0.949   1.445  12.406
 1321SOL     OW 4528   1.351   0.590  12.605
 1321SOL    HW1 4529   1.379   0.547  12.690
 1321SOL    HW2 4530   1.376   0.686  12.606
 1322SOL     OW 4531   0.803   1.402  12.096
 1322SOL    HW1 4532   0.893   1.416  12.054
 1322SOL    HW2 4533   0.732   1.404  12.025
 1323SOL     OW 4534   0.922   0.503  12.071
 1323SOL    HW1 4535   0.897   0.494  11.975
 1323SOL    HW2 4536   0.970   0.421  12.102
 1324SOL     OW 4537   0.539   0.064  11.684
 1324SOL    HW1 4538   0.458   0.065  11.742
 1324SOL    HW2 4539   0.542   0.147  11.629
 1325SOL     OW 4540   1.434   1.188  11.213
 1325SOL    HW1 4541   1.466   1.112  11.270
 1325SOL    HW2 4542   1.342   1.215  11.243
 1326SOL     OW 4543   0.297   0.035  11.343
 1326SOL    HW1 4544   0.346   0.119  11.322
 1326SOL    HW2 4545   0.359  -0.030  11.388
 1327SOL     OW 4546   0.935   0.236  11.652
 1327SOL    HW1 4547   0.887   0.277  11.574
 1327SOL    HW2 4548   1.034   0.234  11.633
 1328SOL     OW 4549   1.076   0.683  12.636
 1328SOL    HW1 4550   0.996   0.622  12.639
 1328SOL    HW2 4551   1.157   0.630  12.612
 1329SOL     OW 4552   1.227   1.570  11.965
 1329SOL    HW1 4553   1.248   1.644  11.900
 1329SOL    HW2 4554   1.295   1.570  12.038
 1330SOL     OW 4555   0.459   1.152  11.913
 1330SOL    HW1 4556   0.388   1.125  11.978
 1330SOL    HW2 4557   0.433   1.124  11.820
 1331SOL     OW 4558   1.271   1.797  11.763
 1331SOL    HW1 4559   1.315   1.861  11.699
 1331SOL    HW2 4560   1.221   1.849  11.833
 1332SOL     OW 4561   1.032   0.549  11.188
 1332SOL    HW1 4562   0.991   0.631  11.149
 1332SOL    HW2 4563   1.096   0.575  11.261
 1333SOL     OW 4564   0.078   0.556  12.558
 1333SOL    HW1 4565   0.170   0.555  12.517
 1333SOL    HW2 4566   0.072   0.630  12.625
 1334SOL     OW 4567   0.561   0.222  12.319
 1334SOL    HW1 4568   0.599   0.138  12.356
 1334SOL    HW2 4569   0.473   0.241  12.363
 1335SOL     OW 4570   0.866   0.454  11.814
 1335SOL    HW1 4571   0.834   0.526  11.752
 1335SOL    HW2 4572   0.890   0.373  11.761
 1336SOL     OW 4573   1.017   0.039  11.925
 1336SOL    HW1 4574   0.945   0.044  11.856
 1336SOL    HW2 4575   0.993  -0.030  11.994
 1337SOL     OW 4576   1.429   1.173  12.039
 1337SOL    HW1 4577   1.374   1.089  12.032
 1337SOL    HW2 4578   1.455   1.202  11.947
 1338SOL     OW 4579   1.466   0.590  12.164
 1338SOL    HW1 4580   1.436   0.495  12.171
 1338SOL    HW2 4581   1.539   0.606  12.230
 1339SOL     OW 4582   1.857   0.833  11.549
 1339SOL    HW1 4583   1.899   0.769  11.613
 1339SOL    HW2 4584   1.819   0.782  11.471
 1340SOL     OW 4585   0.488   1.385  11.346
 1340SOL    HW1 4586   0.401   1.370  11.393
 1340SOL    HW2 4587   0.471   1.411  11.251
 1341SOL     OW 4588   1.664   1.280  11.829
 1341SOL    HW1 4589   1.763   1.288  11.843
 1341SOL    HW2 4590   1.619   1.364  11.860
 1342SOL     OW 4591   1.390   0.575  11.250
 1342SOL    HW1 4592   1.336   0.554  11.331
 1342SOL    HW2 4593   1.481   0.534  11.259
 1343SOL     OW 4594   0.527   0.256  11.500
 1343SOL    HW1 4595   0.554   0.197  11.425
 1343SOL    HW2 4596   0.527   0.351  11.469
 1344SOL     OW 4597   1.754   1.223  12.760
 1344SOL    HW1 4598   1.845   1.184  12.747
 1344SOL    HW2 4599   1.762   1.319  12.784
 1345SOL     OW 4600   1.064   1.347  12.512
 1345SOL    HW1 4601   0.984   1.324  12.567
 1345SOL    HW2 4602   1.147   1.321  12.561
 1346SOL     OW 4603   1.592   1.629  12.797
 1346SOL    HW1 4604   1.619   1.663  12.707
 1346SOL    HW2 4605   1.671   1.591  12.843
 1347SOL     OW 4606   1.111   1.195  12.272
 1347SOL    HW1 4607   1.071   1.239  12.353
 1347SOL    HW2 4608   1.070   1.232  12.189
 1348SOL     OW 4609   1.638   1.099  12.251
 1348SOL    HW1 4610   1.643   1.180  12.310
 1348SOL    HW2 4611   1.552   1.101  12.200
 1349SOL     OW 4612   0.915   0.089  12.574
 1349SOL    HW1 4613   0.940   0.069  12.479
 1349SOL    HW2 4614   0.987   0.145  12.616
 1350SOL     OW 4615   0.980   1.116  12.891
 1350SOL    HW1 4616   0.881   1.122  12.901
 1350SOL    HW2 4617   1.003   1.036  12.835
 1351SOL     OW 4618   0.705   1.050  11.540
 1351SOL    HW1 4619   0.691   1.057  11.639
 1351SOL    HW2 4620   0.789   0.999  11.522
 1352SOL     OW 4621   0.410   0.813  12.423
 1352SOL    HW1 4622   0.496   0.825  12.473
 1352SOL    HW2 4623   0.368   0.726  12.450
 1353SOL     OW 4624   1.274   0.386  12.434
 1353SOL    HW1 4625   1.295   0.460  12.498
 1353SOL    HW2 4626   1.185   0.403  12.391
 1354SOL     OW 4627   0.064   1.564  12.503
 1354SOL    HW1 4628   0.018   1.646  12.469
 1354SOL    HW2 4629   0.162   1.583  12.512
 1355SOL     OW 4630   0.367   1.100  11.673
 1355SOL    HW1 4631   0.360   1.183  11.617
 1355SOL    HW2 4632   0.371   1.020  11.613
 1356SOL     OW 4633   0.566   0.537  12.037
 1356SOL    HW1 4634   0.578   0.603  11.963
 1356SOL    HW2 4635   0.612   0.571  12.120
 1357SOL     OW 4636   1.252   1.348  11.560
 1357SOL    HW1 4637   1.302   1.425  11.600
 1357SOL    HW2 4638   1.157   1.350  11.592
 1358SOL     OW 4639   1.272   1.445  12.314
 1358SOL    HW1 4640   1.319   1.458  12.401
 1358SOL    HW2 4641   1.206   1.371  12.323
 1359SOL     OW 4642   1.582   0.639  11.644
 1359SOL    HW1 4643   1.551   0.700  11.717
 1359SOL    HW2 4644   1.632   0.691  11.575
 1360SOL     OW 4645   0.354   1.510  12.501
 1360SOL    HW1 4646   0.333   1.466  12.414
 1360SOL    HW2 4647   0.451   1.536  12.504
 1361SOL     OW 4648   0.402   0.751  12.770
 1361SOL    HW1 4649   0.470   0.806  12.723
 1361SOL    HW2 4650   0.442   0.663  12.797
 1362SOL     OW 4651   1.587   0.779  12.842
 1362SOL    HW1 4652   1.495   0.817  12.837
 1362SOL    HW2 4653   1.647   0.826  12.777
 1363SOL     OW 4654   1.013   0.105  12.942
 1363SOL    HW1 4655   1.019   0.190  12.890
 1363SOL    HW2 4656   1.045   0.029  12.885
 1364SOL     OW 4657   0.504   0.050  12.912
 1364SOL    HW1 4658   0.462  -0.007  12.842
 1364SOL    HW2 4659   0.438   0.119  12.944
 1365SOL     OW 4660   0.573   0.870  12.201
 1365SOL    HW1 4661   0.617   0.959  12.192
 1365SOL    HW2 4662   0.510   0.870  12.278
 1366SOL     OW 4663   1.360   0.862  12.217
 1366SOL    HW1 4664   1.285   0.862  12.151
 1366SOL    HW2 4665   1.397   0.770  12.226
 1367SOL     OW 4666   1.209   0.525  11.447
 1367SOL    HW1 4667   1.222   0.441  11.501
 1367SOL    HW2 4668   1.180   0.599  11.507
 1368SOL     OW 4669   0.307   0.213  12.403
 1368SOL    HW1 4670   0.284   0.250  12.493
 1368SOL    HW2 4671   0.277   0.118  12.397
 1369SOL     OW 4672   0.037   1.310  12.454
 1369SOL    HW1 4673   0.090   1.261  12.522
 1369SOL    HW2 4674   0.059   1.408  12.459
 1370SOL     OW 4675   0.732   0.634  12.236
 1370SOL    HW1 4676   0.791   0.608  12.160
 1370SOL    HW2 4677   0.704   0.730  12.225
 1371SOL     OW 4678   1.728   0.935  13.026
 1371SOL    HW1 4679   1.682   0.928  12.937
 1371SOL    HW2 4680   1.666   0.979  13.092
 1372SOL     OW 4681   0.307   0.063  11.790
 1372SOL    HW1 4682   0.296   0.157  11.823
 1372SOL    HW2 4683   0.302   0.000  11.867
 1373SOL     OW 4684   1.622   0.367  11.546
 1373SOL    HW1 4685   1.624   0.291  11.610
 1373SOL    HW2 4686   1.574   0.444  11.586
 1374SOL     OW 4687   1.023   0.766  12.138
 1374SOL    HW1 4688   1.038   0.787  12.234
 1374SOL    HW2 4689   0.993   0.671  12.129
 1375SOL     OW 4690   0.980   1.573  12.872
 1375SOL    HW1 4691   0.960   1.617  12.784
 1375SOL    HW2 4692   1.019   1.482  12.856
 1376SOL     OW 4693   1.859   1.518  12.777
 1376SOL    HW1 4694   1.873   1.545  12.682
 1376SOL    HW2 4695   1.942   1.540  12.830
 1377SOL     OW 4696   0.350   0.898  12.976
 1377SOL    HW1 4697   0.426   0.942  13.024
 1377SOL    HW2 4698   0.385   0.851  12.894
 1378SOL     OW 4699   1.540   0.274  11.297
 1378SOL    HW1 4700   1.479   0.199  11.320
 1378SOL    HW2 4701   1.562   0.326  11.380
 1379SOL     OW 4702   1.303   0.838  11.214
 1379SOL    HW1 4703   1.337   0.745  11.229
 1379SOL    HW2 4704   1.321   0.865  11.119
 1380SOL     OW 4705   1.068   1.333  12.021
 1380SOL    HW1 4706   1.075   1.249  11.966
 1380SOL    HW2 4707   1.130   1.402  11.985
 1381SOL     OW 4708   0.319   0.810  12.121
 1381SOL    HW1 4709   0.412   0.846  12.126
 1381SOL    HW2 4710   0.313   0.725  12.173
 1382SOL     OW 4711   0.339   0.509  12.178
 1382SOL    HW1 4712   0.287   0.426  12.161
 1382SOL    HW2 4713   0.416   0.514  12.114
 1383SOL     OW 4714   1.138   0.380  12.850
 1383SOL    HW1 4715   1.093   0.443  12.914
 1383SOL    HW2 4716   1.231   0.411  12.833
 1384SOL     OW 4717   1.160   0.207  12.649
 1384SOL    HW1 4718   1.160   0.271  12.726
 1384SOL    HW2 4719   1.188   0.255  12.566
 1385SOL     OW 4720   0.008   1.326  11.372
 1385SOL    HW1 4721  -0.085   1.347  11.341
 1385SOL    HW2 4722   0.018   1.227  11.385
 1386SOL     OW 4723   0.088   1.801  12.099
 1386SOL    HW1 4724   0.046   1.715  12.072
 1386SOL    HW2 4725   0.182   1.804  12.065
 1387SOL     OW 4726   0.504   1.568  12.082
 1387SOL    HW1 4727   0.570   1.642  12.091
 1387SOL    HW2 4728   0.548   1.489  12.040
 1388SOL     OW 4729   1.002   0.796  12.410
 1388SOL    HW1 4730   1.043   0.764  12.496
 1388SOL    HW2 4731   0.906   0.769  12.407
 1389SOL     OW 4732   0.040   0.544  12.286
 1389SOL    HW1 4733   0.125   0.511  12.245
 1389SOL    HW2 4734   0.053   0.559  12.384
 1390SOL     OW 4735   0.189   0.520  12.894
 1390SOL    HW1 4736   0.248   0.480  12.824
 1390SOL    HW2 4737   0.131   0.591  12.853
 1391SOL     OW 4738   1.369   0.950  12.832
 1391SOL    HW1 4739   1.408   1.039  12.852
 1391SOL    HW2 4740   1.379   0.930  12.735
 1392SOL     OW 4741   0.815   0.572  11.497
 1392SOL    HW1 4742   0.822   0.483  11.451
 1392SOL    HW2 4743   0.721   0.606  11.489
 1393SOL     OW 4744   1.657   0.604  12.378
 1393SOL    HW1 4745   1.619   0.535  12.440
 1393SOL    HW2 4746   1.739   0.568  12.334
 1394SOL     OW 4747   0.252   1.564  12.916
 1394SOL    HW1 4748   0.222   1.621  12.992
 1394SOL    HW2 4749   0.245   1.467  12.942
 1395SOL     OW 4750   0.671   0.464  12.441
 1395SOL    HW1 4751   0.637   0.375  12.411
 1395SOL    HW2 4752   0.697   0.518  12.361
 1396SOL     OW 4753   0.930   1.678  12.637
 1396SOL    HW1 4754   0.906   1.660  12.542
 1396SOL    HW2 4755   0.960   1.772  12.647
 1397SOL     OW 4756   0.473   0.500  11.363
 1397SOL    HW1 4757   0.534   0.580  11.367
 1397SOL    HW2 4758   0.378   0.531  11.370
 1398SOL     OW 4759   0.159   1.137  12.638
 1398SOL    HW1 4760   0.181   1.076  12.714
 1398SOL    HW2 4761   0.169   1.088  12.552
 1399SOL     OW 4762   1.347   1.059  12.406
 1399SOL    HW1 4763   1.371   0.996  12.332
 1399SOL    HW2 4764   1.257   1.099  12.388
 1400SOL     OW 4765   1.302   0.855  11.481
 1400SOL    HW1 4766   1.216   0.824  11.523
 1400SOL    HW2 4767   1.298   0.841  11.382
 1401SOL     OW 4768   1.759   1.747  12.326
 1401SOL    HW1 4769   1.820   1.777  12.253
 1401SOL    HW2 4770   1.721   1.658  12.304
 1402SOL     OW 4771   1.252   1.731  12.300
 1402SOL    HW1 4772   1.336   1.736  12.246
 1402SOL    HW2 4773   1.229   1.635  12.318
 1403SOL     OW 4774   0.083   1.258  12.194
 1403SOL    HW1 4775   0.078   1.257  12.294
 1403SOL    HW2 4776   0.000   1.217  12.156
 1404SOL     OW 4777   0.688   1.662  12.888
 1404SOL    HW1 4778   0.632   1.743  12.897
 1404SOL    HW2 4779   0.740   1.666  12.802
 1405SOL     OW 4780   1.726   0.135  11.695
 1405SOL    HW1 4781   1.799   0.118  11.628
 1405SOL    HW2 4782   1.695   0.048  11.733
 1406SOL     OW 4783   1.388   1.573  11.649
 1406SOL    HW1 4784   1.455   1.585  11.575
 1406SOL    HW2 4785   1.348   1.662  11.672
 1407SOL     OW 4786   0.130   1.794  13.023
 1407SOL    HW1 4787   0.089   1.720  13.076
 1407SOL    HW2 4788   0.194   1.845  13.081
 1408SOL     OW 4789   1.280   0.927  11.844
 1408SOL    HW1 4790   1.340   0.846  11.846
 1408SOL    HW2 4791   1.320   0.996  11.784
 1409SOL     OW 4792   0.830   1.273  12.594
 1409SOL    HW1 4793   0.825   1.306  12.689
 1409SOL    HW2 4794   0.744   1.292  12.548
 1410SOL     OW 4795   0.672   1.616  11.326
 1410SOL    HW1 4796   0.681   1.626  11.227
 1410SOL    HW2 4797   0.632   1.527  11.347
 1411SOL     OW 4798   1.650   1.720  12.566
 1411SOL    HW1 4799   1.703   1.730  12.482
 1411SOL    HW2 4800   1.623   1.810  12.600
 1412SOL     OW 4801   1.841   0.175  12.135
 1412SOL    HW1 4802   1.880   0.090  12.099
 1412SOL    HW2 4803   1.743   0.177  12.116
 1413SOL     OW 4804   0.263   0.326  11.892
 1413SOL    HW1 4805   0.184   0.377  11.858
 1413SOL    HW2 4806   0.254   0.311  11.990
 1414SOL     OW 4807   1.194   1.612  11.203
 1414SOL    HW1 4808   1.200   1.519  11.240
 1414SOL    HW2 4809   1.135   1.612  11.123
 1415SOL     OW 4810   0.822   1.002  12.544
 1415SOL    HW1 4811   0.862   1.001  12.452
 1415SOL    HW2 4812   0.832   1.094  12.584
 1416SOL     OW 4813   0.916   0.910  11.463
 1416SOL    HW1 4814   0.979   0.948  11.395
 1416SOL    HW2 4815   0.956   0.827  11.502
 1417SOL     OW 4816   1.504   1.607  11.216
 1417SOL    HW1 4817   1.412   1.644  11.223
 1417SOL    HW2 4818   1.542   1.627  11.126
 1418SOL     OW 4819   0.372   1.288  12.662
 1418SOL    HW1 4820   0.359   1.381  12.628
 1418SOL    HW2 4821   0.288   1.236  12.649
 1419SOL     OW 4822   1.614   1.292  12.461
 1419SOL    HW1 4823   1.674   1.295  12.541
 1419SOL    HW2 4824   1.539   1.356  12.474
 1420SOL     OW 4825   1.039   1.098  11.868
 1420SOL    HW1 4826   0.969   1.051  11.922
 1420SOL    HW2 4827   1.098   1.030  11.825
 1421SOL     OW 4828   1.014   0.236  12.143
 1421SOL    HW1 4829   1.006   0.200  12.050
 1421SOL    HW2 4830   1.012   0.160  12.208
 1422SOL     OW 4831   0.590   1.487  11.663
 1422SOL    HW1 4832   0.632   1.429  11.593
 1422SOL    HW2 4833   0.546   1.566  11.619
 1423SOL     OW 4834   1.709   0.385  12.553
 1423SOL    HW1 4835   1.782   0.454  12.557
 1423SOL    HW2 4836   1.737   0.310  12.494
 1424SOL     OW 4837   0.255   1.348  11.462
 1424SOL    HW1 4838   0.159   1.349  11.435
 1424SOL    HW2 4839   0.267   1.401  11.546
 1425SOL     OW 4840   0.105   1.013  12.898
 1425SOL    HW1 4841   0.028   0.980  12.952
 1425SOL    HW2 4842   0.190   0.983  12.940
 1426SOL     OW 4843   0.672   0.203  12.661
 1426SOL    HW1 4844   0.762   0.187  12.621
 1426SOL    HW2 4845   0.680   0.208  12.760
 1427SOL     OW 4846   0.075   0.345  11.205
 1427SOL    HW1 4847  -0.017   0.317  11.176
 1427SOL    HW2 4848   0.106   0.422  11.149
 1428SOL     OW 4849   1.440   0.856  12.570
 1428SOL    HW1 4850   1.383   0.908  12.507
 1428SOL    HW2 4851   1.536   0.868  12.546
 1429SOL     OW 4852   0.072   0.166  11.490
 1429SOL    HW1 4853   0.055   0.249  11.436
 1429SOL    HW2 4854   0.162   0.129  11.468
 1430SOL     OW 4855   1.183   1.335  11.291
 1430SOL    HW1 4856   1.084   1.324  11.293
 1430SOL    HW2 4857   1.217   1.350  11.384
 1431SOL     OW 4858   0.613   0.842  12.603
 1431SOL    HW1 4859   0.669   0.923  12.586
 1431SOL    HW2 4860   0.672   0.762  12.606
 1432SOL     OW 4861   1.493   1.767  12.131
 1432SOL    HW1 4862   1.526   1.831  12.062
 1432SOL    HW2 4863   1.559   1.761  12.206
 1433SOL     OW 4864   0.716   0.565  12.880
 1433SOL    HW1 4865   0.735   0.630  12.954
 1433SOL    HW2 4866   0.776   0.485  12.889
 1434SOL     OW 4867   1.450   1.220  12.805
 1434SOL    HW1 4868   1.441   1.210  12.904
 1434SOL    HW2 4869   1.546   1.213  12.779
 1435SOL     OW 4870   0.390   1.741  12.732
 1435SOL    HW1 4871   0.299   1.782  12.730
 1435SOL    HW2 4872   0.383   1.647  12.764
 1436SOL     OW 4873   1.674   0.883  12.426
 1436SOL    HW1 4874   1.647   0.794  12.389
 1436SOL    HW2 4875   1.675   0.951  12.353
 1437SOL     OW 4876   1.225   0.325  11.621
 1437SOL    HW1 4877   1.290   0.251  11.610
 1437SOL    HW2 4878   1.245   0.375  11.705
 1438SOL     OW 4879   0.594   0.745  11.824
 1438SOL    HW1 4880   0.644   0.830  11.805
 1438SOL    HW2 4881   0.506   0.747  11.776
 1439SOL     OW 4882   1.777   0.342  12.814
 1439SOL    HW1 4883   1.760   0.373  12.720
 1439SOL    HW2 4884   1.693   0.305  12.852
 1440SOL     OW 4885   1.730   0.934  12.689
 1440SOL    HW1 4886   1.768   1.025  12.704
 1440SOL    HW2 4887   1.722   0.917  12.590
 1441SOL     OW 4888   0.859   1.374  11.188
 1441SOL    HW1 4889   0.813   1.389  11.276
 1441SOL    HW2 4890   0.903   1.459  11.158
 1442SOL     OW 4891   0.661   1.790  12.125
 1442SOL    HW1 4892   0.615   1.878  12.112
 1442SOL    HW2 4893   0.760   1.802  12.118
 1443SOL     OW 4894   0.859   0.956  12.033
 1443SOL    HW1 4895   0.913   0.887  12.081
 1443SOL    HW2 4896   0.827   1.025  12.099
 1444SOL     OW 4897   1.083   0.984  11.259
 1444SOL    HW1 4898   1.060   1.037  11.177
 1444SOL    HW2 4899   1.164   0.928  11.240
 1445SOL     OW 4900   1.861   1.569  12.023
 1445SOL    HW1 4901   1.790   1.557  11.953
 1445SOL    HW2 4902   1.862   1.490  12.083
 1446SOL     OW 4903   0.221   1.314  13.016
 1446SOL    HW1 4904   0.156   1.241  12.995
 1446SOL    HW2 4905   0.225   1.328  13.114
 1447SOL     OW 4906   0.079   1.240  11.825
 1447SOL    HW1 4907   0.078   1.193  11.913
 1447SOL    HW2 4908   0.161   1.212  11.774
 1448SOL     OW 4909   0.672   1.391  12.796
 1448SOL    HW1 4910   0.594   1.341  12.834
 1448SOL    HW2 4911   0.669   1.486  12.827
 1449SOL     OW 4912   1.824   0.192  12.399
 1449SOL    HW1 4913   1.820   0.102  12.443
 1449SOL    HW2 4914   1.827   0.181  12.300
 1450SOL     OW 4915   0.428   0.424  11.692
 1450SOL    HW1 4916   0.458   0.352  11.630
 1450SOL    HW2 4917   0.389   0.384  11.775
 1451SOL     OW 4918   1.705   1.487  12.276
 1451SOL    HW1 4919   1.612   1.462  12.249
 1451SOL    HW2 4920   1.731   1.437  12.358
 1452SOL     OW 4921   0.317   0.547  12.452
 1452SOL    HW1 4922   0.355   0.488  12.524
 1452SOL    HW2 4923   0.357   0.521  12.364
 1453SOL     OW 4924   0.812   1.586  11.859
 1453SOL    HW1 4925   0.844   1.596  11.765
 1453SOL    HW2 4926   0.733   1.524  11.861
 1454SOL     OW 4927   1.424   0.214  12.284
 1454SOL    HW1 4928   1.476   0.149  12.339
 1454SOL    HW2 4929   1.375   0.277  12.345
 1455SOL     OW 4930   1.001   0.034  12.326
 1455SOL    HW1 4931   0.938  -0.038  12.295
 1455SOL    HW2 4932   1.094  -0.002  12.326
 1456SOL     OW 4933   0.770   1.330  11.473
 1456SOL    HW1 4934   0.724   1.243  11.490
 1456SOL    HW2 4935   0.861   1.327  11.514
 1457SOL     OW 4936   0.618   1.567  12.456
 1457SOL    HW1 4937   0.613   1.649  12.513
 1457SOL    HW2 4938   0.707   1.564  12.411
 1458SOL     OW 4939   1.352   0.052  11.340
 1458SOL    HW1 4940   1.387   0.011  11.256
 1458SOL    HW2 4941   1.262   0.014  11.360
 1459SOL     OW 4942   1.300   0.453  11.863
 1459SOL    HW1 4943   1.241   0.533  11.867
 1459SOL    HW2 4944   1.315   0.418  11.956
 1460SOL     OW 4945   1.593   0.221  12.054
 1460SOL    HW1 4946   1.509   0.220  12.108
 1460SOL    HW2 4947   1.595   0.304  11.998
 1461SOL     OW 4948   0.039   1.077  11.472
 1461SOL    HW1 4949   0.138   1.066  11.463
 1461SOL    HW2 4950  -0.001   0.991  11.504
 1462SOL     OW 4951   0.875   1.646  11.509
 1462SOL    HW1 4952   0.798   1.611  11.455
 1462SOL    HW2 4953   0.843   1.717  11.571
 1463SOL     OW 4954   0.230   0.628  13.147
 1463SOL    HW1 4955   0.137   0.626  13.184
 1463SOL    HW2 4956   0.231   0.589  13.055
 1464SOL     OW 4957   0.225   0.275  14.030
 1464SOL    HW1 4958   0.260   0.258  14.122
 1464SOL    HW2 4959   0.137   0.230  14.018
 1465SOL     OW 4960   0.019   0.368  13.681
 1465SOL    HW1 4961  -0.063   0.411  13.720
 1465SOL    HW2 4962  -0.009   0.295  13.618
 1466SOL     OW 4963   1.555   1.511  13.737
 1466SOL    HW1 4964   1.498   1.495  13.818
 1466SOL    HW2 4965   1.496   1.521  13.657
 1467SOL     OW 4966   1.135   0.703  13.751
 1467SOL    HW1 4967   1.192   0.781  13.726
 1467SOL    HW2 4968   1.075   0.729  13.827
 1468SOL     OW 4969   1.755   0.607  13.265
 1468SOL    HW1 4970   1.743   0.594  13.166
 1468SOL    HW2 4971   1.725   0.526  13.314
 1469SOL     OW 4972   0.685   1.012  13.699
 1469SOL    HW1 4973   0.754   0.996  13.769
 1469SOL    HW2 4974   0.612   1.069  13.737
 1470SOL     OW 4975   1.603   0.447  13.771
 1470SOL    HW1 4976   1.529   0.493  13.721
 1470SOL    HW2 4977   1.654   0.515  13.824
 1471SOL     OW 4978   0.231   1.713  13.517
 1471SOL    HW1 4979   0.265   1.790  13.571
 1471SOL    HW2 4980   0.275   1.713  13.427
 1472SOL     OW 4981   0.230   1.434  13.572
 1472SOL    HW1 4982   0.204   1.530  13.572
 1472SOL    HW2 4983   0.159   1.380  13.617
 1473SOL     OW 4984   0.240   1.091  13.920
 1473SOL    HW1 4985   0.254   1.007  13.972
 1473SOL    HW2 4986   0.185   1.155  13.975
 1474SOL     OW 4987   0.606   0.964  13.157
 1474SOL    HW1 4988   0.613   1.048  13.103
 1474SOL    HW2 4989   0.652   0.977  13.245
 1475SOL     OW 4990   0.122   0.643  13.597
 1475SOL    HW1 4991   0.077   0.555  13.614
 1475SOL    HW2 4992   0.121   0.697  13.681
 1476SOL     OW 4993   0.027   1.596  13.151
 1476SOL    HW1 4994   0.008   1.500  13.172
 1476SOL    HW2 4995  -0.006   1.654  13.226
 1477SOL     OW 4996   1.689   0.922  13.646
 1477SOL    HW1 4997   1.784   0.893  13.654
 1477SOL    HW2 4998   1.681   0.987  13.571
 1478SOL     OW 4999   1.641   1.108  13.466
 1478SOL    HW1 5000   1.727   1.110  13.414
 1478SOL    HW2 5001   1.655   1.155  13.554
 1479SOL     OW 5002   0.613   1.365  13.760
 1479SOL    HW1 5003   0.564   1.278  13.769
 1479SOL    HW2 5004   0.590   1.408  13.673
 1480SOL     OW 5005   0.809   0.004  13.536
 1480SOL    HW1 5006   0.849   0.095  13.527
 1480SOL    HW2 5007   0.709   0.012  13.542
 1481SOL     OW 5008   1.525   0.999  13.224
 1481SOL    HW1 5009   1.462   0.923  13.237
 1481SOL    HW2 5010   1.573   1.017  13.310
 1482SOL     OW 5011   1.667   1.714  13.606
 1482SOL    HW1 5012   1.626   1.691  13.518
 1482SOL    HW2 5013   1.649   1.640  13.671
 1483SOL     OW 5014   0.598   0.729  13.304
 1483SOL    HW1 5015   0.622   0.798  13.236
 1483SOL    HW2 5016   0.520   0.762  13.358
 1484SOL     OW 5017   1.281   0.345  13.978
 1484SOL    HW1 5018   1.195   0.295  13.965
 1484SOL    HW2 5019   1.343   0.291  14.034
 1485SOL     OW 5020   1.576   1.662  13.341
 1485SOL    HW1 5021   1.665   1.708  13.344
 1485SOL    HW2 5022   1.555   1.638  13.246
 1486SOL     OW 5023   1.041   0.701  13.463
 1486SOL    HW1 5024   1.067   0.697  13.559
 1486SOL    HW2 5025   0.956   0.650  13.449
 1487SOL     OW 5026   0.076   0.811  13.823
 1487SOL    HW1 5027   0.175   0.799  13.832
 1487SOL    HW2 5028   0.052   0.906  13.844
 1488SOL     OW 5029   0.865   0.348  13.229
 1488SOL    HW1 5030   0.924   0.411  13.180
 1488SOL    HW2 5031   0.884   0.254  13.200
 1489SOL     OW 5032   1.362   1.144  13.579
 1489SOL    HW1 5033   1.445   1.115  13.531
 1489SOL    HW2 5034   1.313   1.211  13.523
 1490SOL     OW 5035   1.008   1.456  13.511
 1490SOL    HW1 5036   0.962   1.528  13.459
 1490SOL    HW2 5037   1.004   1.476  13.609
 1491SOL     OW 5038   0.351   1.801  13.887
 1491SOL    HW1 5039   0.401   1.715  13.893
 1491SOL    HW2 5040   0.416   1.878  13.884
 1492SOL     OW 5041   1.795   1.066  13.907
 1492SOL    HW1 5042   1.733   1.051  13.831
 1492SOL    HW2 5043   1.743   1.077  13.992
 1493SOL     OW 5044   0.321   0.943  13.276
 1493SOL    HW1 5045   0.403   0.982  13.234
 1493SOL    HW2 5046   0.294   0.861  13.227
 1494SOL     OW 5047   1.458   0.735  13.762
 1494SOL    HW1 5048   1.453   0.670  13.837
 1494SOL    HW2 5049   1.538   0.794  13.775
 1495SOL     OW 5050   1.111   1.776  13.271
 1495SOL    HW1 5051   1.051   1.714  13.321
 1495SOL    HW2 5052   1.142   1.732  13.186
 1496SOL     OW 5053   1.632   1.377  13.115
 1496SOL    HW1 5054   1.600   1.471  13.105
 1496SOL    HW2 5055   1.556   1.314  13.103
 1497SOL     OW 5056   0.464   1.743  13.357
 1497SOL    HW1 5057   0.497   1.782  13.443
 1497SOL    HW2 5058   0.540   1.736  13.292
 1498SOL     OW 5059   1.400   0.107  13.460
 1498SOL    HW1 5060   1.376   0.070  13.370
 1498SOL    HW2 5061   1.499   0.123  13.464
 1499SOL     OW 5062   0.940   1.698  13.938
 1499SOL    HW1 5063   1.020   1.641  13.959
 1499SOL    HW2 5064   0.891   1.658  13.861
 1500SOL     OW 5065   0.382   0.700  13.514
 1500SOL    HW1 5066   0.427   0.610  13.511
 1500SOL    HW2 5067   0.288   0.689  13.547
 1501SOL     OW 5068   0.614   0.122  13.151
 1501SOL    HW1 5069   0.712   0.100  13.158
 1501SOL    HW2 5070   0.583   0.105  13.058
 1502SOL     OW 5071   0.539   0.064  13.546
 1502SOL    HW1 5072   0.458   0.065  13.604
 1502SOL    HW2 5073   0.542   0.147  13.491
 1503SOL     OW 5074   1.434   1.188  13.075
 1503SOL    HW1 5075   1.466   1.112  13.132
 1503SOL    HW2 5076   1.342   1.215  13.105
 1504SOL     OW 5077   0.297   0.035  13.205
 1504SOL    HW1 5078   0.346   0.119  13.184
 1504SOL    HW2 5079   0.359  -0.030  13.250
 1505SOL     OW 5080   0.935   0.236  13.514
 1505SOL    HW1 5081   0.887   0.277  13.436
 1505SOL    HW2 5082   1.034   0.234  13.495
 1506SOL     OW 5083   0.459   1.152  13.775
 1506SOL    HW1 5084   0.388   1.125  13.840
 1506SOL    HW2 5085   0.433   1.124  13.682
 1507SOL     OW 5086   1.271   1.797  13.625
 1507SOL    HW1 5087   1.315   1.861  13.561
 1507SOL    HW2 5088   1.221   1.849  13.695
 1508SOL     OW 5089   1.032   0.549  13.050
 1508SOL    HW1 5090   0.991   0.631  13.011
 1508SOL    HW2 5091   1.096   0.575  13.123
 1509SOL     OW 5092   0.866   0.454  13.676
 1509SOL    HW1 5093   0.834   0.526  13.614
 1509SOL    HW2 5094   0.890   0.373  13.623
 1510SOL     OW 5095   1.017   0.039  13.787
 1510SOL    HW1 5096   0.945   0.044  13.718
 1510SOL    HW2 5097   0.993  -0.030  13.856
 1511SOL     OW 5098   1.857   0.833  13.411
 1511SOL    HW1 5099   1.899   0.769  13.475
 1511SOL    HW2 5100   1.819   0.782  13.333
 1512SOL     OW 5101   0.488   1.385  13.208
 1512SOL    HW1 5102   0.401   1.370  13.255
 1512SOL    HW2 5103   0.471   1.411  13.113
 1513SOL     OW 5104   1.664   1.280  13.691
 1513SOL    HW1 5105   1.763   1.288  13.705
 1513SOL    HW2 5106   1.619   1.364  13.722
 1514SOL     OW 5107   1.390   0.575  13.112
 1514SOL    HW1 5108   1.336   0.554  13.193
 1514SOL    HW2 5109   1.481   0.534  13.121
 1515SOL     OW 5110   0.527   0.256  13.362
 1515SOL    HW1 5111   0.554   0.197  13.287
 1515SOL    HW2 5112   0.527   0.351  13.331
 1516SOL     OW 5113   0.705   1.050  13.402
 1516SOL    HW1 5114   0.691   1.057  13.501
 1516SOL    HW2 5115   0.789   0.999  13.384
 1517SOL     OW 5116   0.367   1.100  13.535
 1517SOL    HW1 5117   0.360   1.183  13.479
 1517SOL    HW2 5118   0.371   1.020  13.475
 1518SOL     OW 5119   0.566   0.537  13.899
 1518SOL    HW1 5120   0.578   0.603  13.825
 1518SOL    HW2 5121   0.612   0.571  13.982
 1519SOL     OW 5122   1.252   1.348  13.422
 1519SOL    HW1 5123   1.302   1.425  13.462
 1519SOL    HW2 5124   1.157   1.350  13.454
 1520SOL     OW 5125   1.582   0.639  13.506
 1520SOL    HW1 5126   1.551   0.700  13.579
 1520SOL    HW2 5127   1.632   0.691  13.437
 1521SOL     OW 5128   1.209   0.525  13.309
 1521SOL    HW1 5129   1.222   0.441  13.363
 1521SOL    HW2 5130   1.180   0.599  13.369
 1522SOL     OW 5131   0.307   0.063  13.652
 1522SOL    HW1 5132   0.296   0.157  13.685
 1522SOL    HW2 5133   0.302   0.000  13.729
 1523SOL     OW 5134   1.622   0.367  13.408
 1523SOL    HW1 5135   1.624   0.291  13.472
 1523SOL    HW2 5136   1.574   0.444  13.448
 1524SOL     OW 5137   1.540   0.274  13.159
 1524SOL    HW1 5138   1.479   0.199  13.182
 1524SOL    HW2 5139   1.562   0.326  13.242
 1525SOL     OW 5140   1.303   0.838  13.076
 1525SOL    HW1 5141   1.337   0.745  13.091
 1525SOL    HW2 5142   1.321   0.865  12.981
 1526SOL     OW 5143   0.008   1.326  13.234
 1526SOL    HW1 5144  -0.085   1.347  13.203
 1526SOL    HW2 5145   0.018   1.227  13.247
 1527SOL     OW 5146   0.815   0.572  13.359
 1527SOL    HW1 5147   0.822   0.483  13.313
 1527SOL    HW2 5148   0.721   0.606  13.351
 1528SOL     OW 5149   0.473   0.500  13.225
 1528SOL    HW1 5150   0.534   0.580  13.229
 1528SOL    HW2 5151   0.378   0.531  13.232
 1529SOL     OW 5152   1.302   0.855  13.343
 1529SOL    HW1 5153   1.216   0.824  13.385
 1529SOL    HW2 5154   1.298   0.841  13.244
 1530SOL     OW 5155   1.726   0.135  13.557
 1530SOL    HW1 5156   1.799   0.118  13.490
 1530SOL    HW2 5157   1.695   0.048  13.595
 1531SOL     OW 5158   1.388   1.573  13.511
 1531SOL    HW1 5159   1.455   1.585  13.437
 1531SOL    HW2 5160   1.348   1.662  13.534
 1532SOL     OW 5161   1.280   0.927  13.706
 1532SOL    HW1 5162   1.340   0.846  13.708
 1532SOL    HW2 5163   1.320   0.996  13.646
 1533SOL     OW 5164   0.672   1.616  13.188
 1533SOL    HW1 5165   0.681   1.626  13.089
 1533SOL    HW2 5166   0.632   1.527  13.209
 1534SOL     OW 5167   1.841   0.175  13.997
 1534SOL    HW1 5168   1.880   0.090  13.961
 1534SOL    HW2 5169   1.743   0.177  13.978
 1535SOL     OW 5170   0.263   0.326  13.754
 1535SOL    HW1 5171   0.184   0.377  13.720
 1535SOL    HW2 5172   0.254   0.311  13.852
 1536SOL     OW 5173   1.194   1.612  13.065
 1536SOL    HW1 5174   1.200   1.519  13.102
 1536SOL    HW2 5175   1.135   1.612  12.985
 1537SOL     OW 5176   0.916   0.910  13.325
 1537SOL    HW1 5177   0.979   0.948  13.257
 1537SOL    HW2 5178   0.956   0.827  13.364
 1538SOL     OW 5179   1.504   1.607  13.078
 1538SOL    HW1 5180   1.412   1.644  13.085
 1538SOL    HW2 5181   1.542   1.627  12.988
 1539SOL     OW 5182   1.039   1.098  13.730
 1539SOL    HW1 5183   0.969   1.051  13.784
 1539SOL    HW2 5184   1.098   1.030  13.687
 1540SOL     OW 5185   0.590   1.487  13.525
 1540SOL    HW1 5186   0.632   1.429  13.455
 1540SOL    HW2 5187   0.546   1.566  13.481
 1541SOL     OW 5188   0.255   1.348  13.324
 1541SOL    HW1 5189   0.159   1.349  13.297
 1541SOL    HW2 5190   0.267   1.401  13.408
 1542SOL     OW 5191   0.075   0.345  13.067
 1542SOL    HW1 5192  -0.017   0.317  13.038
 1542SOL    HW2 5193   0.106   0.422  13.011
 1543SOL     OW 5194   0.072   0.166  13.352
 1543SOL    HW1 5195   0.055   0.249  13.298
 1543SOL    HW2 5196   0.162   0.129  13.330
 1544SOL     OW 5197   1.183   1.335  13.153
 1544SOL    HW1 5198   1.084   1.324  13.155
 1544SOL    HW2 5199   1.217   1.350  13.246
 1545SOL     OW 5200   1.225   0.325  13.483
 1545SOL    HW1 5201   1.290   0.251  13.472
 1545SOL    HW2 5202   1.245   0.375  13.567
 1546SOL     OW 5203   0.594   0.745  13.686
 1546SOL    HW1 5204   0.644   0.830  13.667
 1546SOL    HW2 5205   0.506   0.747  13.638
 1547SOL     OW 5206   0.859   1.374  13.050
 1547SOL    HW1 5207   0.813   1.389  13.138
 1547SOL    HW2 5208   0.903   1.459  13.020
 1548SOL     OW 5209   0.661   1.790  13.987
 1548SOL    HW1 5210   0.615   1.878  13.974
 1548SOL    HW2 5211   0.760   1.802  13.980
 1549SOL     OW 5212   0.859   0.956  13.895
 1549SOL    HW1 5213   0.913   0.887  13.943
 1549SOL    HW2 5214   0.827   1.025  13.961
 1550SOL     OW 5215   1.083   0.984  13.121
 1550SOL    HW1 5216   1.060   1.037  13.039
 1550SOL    HW2 5217   1.164   0.928  13.102
 1551SOL     OW 5218   0.079   1.240  13.687
 1551SOL    HW1 5219   0.078   1.193  13.775
 1551SOL    HW2 5220   0.161   1.212  13.636
 1552SOL     OW 5221   0.428   0.424  13.554
 1552SOL    HW1 5222   0.458   0.352  13.492
 1552SOL    HW2 5223   0.389   0.384  13.637
 1553SOL     OW 5224   1.705   1.487  14.138
 1553SOL    HW1 5225   1.612   1.462  14.111
 1553SOL    HW2 5226   1.731   1.437  14.220
 1554SOL     OW 5227   0.812   1.586  13.721
 1554SOL    HW1 5228   0.844   1.596  13.627
 1554SOL    HW2 5229   0.733   1.524  13.723
 1555SOL     OW 5230   0.770   1.330  13.335
 1555SOL    HW1 5231   0.724   1.243  13.352
 1555SOL    HW2 5232   0.861   1.327  13.376
 1556SOL     OW 5233   1.352   0.052  13.202
 1556SOL    HW1 5234   1.387   0.011  13.118
 1556SOL    HW2 5235   1.262   0.014  13.222
 1557SOL     OW 5236   1.300   0.453  13.725
 1557SOL    HW1 5237   1.241   0.533  13.729
 1557SOL    HW2 5238   1.315   0.418  13.818
 1558SOL     OW 5239   0.039   1.077  13.334
 1558SOL    HW1 5240   0.138   1.066  13.325
 1558SOL    HW2 5241  -0.001   0.991  13.366
 1559SOL     OW 5242   0.875   1.646  13.371
 1559SOL    HW1 5243   0.798   1.611  13.317
 1559SOL    HW2 5244   0.843   1.717  13.433
 1560SOL     OW 5245   0.230   2.490   0.113
 1560SOL    HW1 5246   0.137   2.488   0.150
 1560SOL    HW2 5247   0.231   2.451   0.021
 1561SOL     OW 5248   0.225   2.137   0.996
 1561SOL    HW1 5249   0.260   2.120   1.088
 1561SOL    HW2 5250   0.137   2.092   0.984
 1562SOL     OW 5251   0.019   2.230   0.647
 1562SOL    HW1 5252  -0.063   2.273   0.686
 1562SOL    HW2 5253  -0.009   2.157   0.584
 1563SOL     OW 5254   0.569   3.137   1.165
 1563SOL    HW1 5255   0.476   3.130   1.128
 1563SOL    HW2 5256   0.580   3.226   1.209
 1564SOL     OW 5257   1.555   3.373   0.703
 1564SOL    HW1 5258   1.498   3.357   0.784
 1564SOL    HW2 5259   1.496   3.383   0.623
 1565SOL     OW 5260   1.135   2.565   0.717
 1565SOL    HW1 5261   1.192   2.643   0.692
 1565SOL    HW2 5262   1.075   2.591   0.793
 1566SOL     OW 5263   1.755   2.469   0.231
 1566SOL    HW1 5264   1.743   2.456   0.132
 1566SOL    HW2 5265   1.725   2.388   0.280
 1567SOL     OW 5266   0.768   3.006   1.023
 1567SOL    HW1 5267   0.690   3.023   1.083
 1567SOL    HW2 5268   0.802   3.093   0.987
 1568SOL     OW 5269   0.850   2.660   1.823
 1568SOL    HW1 5270   0.846   2.736   1.888
 1568SOL    HW2 5271   0.872   2.696   1.732
 1569SOL     OW 5272   0.685   2.874   0.665
 1569SOL    HW1 5273   0.754   2.858   0.735
 1569SOL    HW2 5274   0.612   2.931   0.703
 1570SOL     OW 5275   0.686   3.023   1.803
 1570SOL    HW1 5276   0.746   3.102   1.817
 1570SOL    HW2 5277   0.600   3.054   1.762
 1571SOL     OW 5278   0.335   3.297   1.061
 1571SOL    HW1 5279   0.257   3.266   1.008
 1571SOL    HW2 5280   0.393   3.355   1.004
 1572SOL     OW 5281   1.460   3.367   1.339
 1572SOL    HW1 5282   1.484   3.461   1.365
 1572SOL    HW2 5283   1.444   3.313   1.421
 1573SOL     OW 5284   0.438   2.254   1.499
 1573SOL    HW1 5285   0.520   2.198   1.508
 1573SOL    HW2 5286   0.357   2.196   1.503
 1574SOL     OW 5287   1.603   2.309   0.737
 1574SOL    HW1 5288   1.529   2.355   0.687
 1574SOL    HW2 5289   1.654   2.377   0.790
 1575SOL     OW 5290   0.231   3.575   0.483
 1575SOL    HW1 5291   0.265   3.652   0.537
 1575SOL    HW2 5292   0.275   3.575   0.393
 1576SOL     OW 5293   1.127   3.203   1.690
 1576SOL    HW1 5294   1.174   3.203   1.778
 1576SOL    HW2 5295   1.079   3.116   1.679
 1577SOL     OW 5296   0.230   3.296   0.538
 1577SOL    HW1 5297   0.204   3.392   0.538
 1577SOL    HW2 5298   0.159   3.242   0.583
 1578SOL     OW 5299   0.240   2.953   0.886
 1578SOL    HW1 5300   0.254   2.869   0.938
 1578SOL    HW2 5301   0.185   3.017   0.941
 1579SOL     OW 5302   0.620   3.648   1.439
 1579SOL    HW1 5303   0.528   3.631   1.474
 1579SOL    HW2 5304   0.648   3.740   1.465
 1580SOL     OW 5305   0.606   2.826   0.123
 1580SOL    HW1 5306   0.613   2.910   0.069
 1580SOL    HW2 5307   0.652   2.839   0.211
 1581SOL     OW 5308   1.594   1.976   1.480
 1581SOL    HW1 5309   1.576   2.043   1.408
 1581SOL    HW2 5310   1.591   2.022   1.569
 1582SOL     OW 5311   0.122   2.505   0.563
 1582SOL    HW1 5312   0.077   2.417   0.580
 1582SOL    HW2 5313   0.121   2.559   0.647
 1583SOL     OW 5314   1.842   3.629   0.359
 1583SOL    HW1 5315   1.896   3.600   0.439
 1583SOL    HW2 5316   1.872   3.719   0.330
 1584SOL     OW 5317   0.027   3.458   0.117
 1584SOL    HW1 5318   0.008   3.362   0.138
 1584SOL    HW2 5319  -0.006   3.516   0.192
 1585SOL     OW 5320   1.689   2.784   0.612
 1585SOL    HW1 5321   1.784   2.755   0.620
 1585SOL    HW2 5322   1.681   2.849   0.537
 1586SOL     OW 5323   1.641   2.970   0.432
 1586SOL    HW1 5324   1.727   2.972   0.380
 1586SOL    HW2 5325   1.655   3.017   0.520
 1587SOL     OW 5326   0.113   2.599   1.597
 1587SOL    HW1 5327   0.201   2.586   1.642
 1587SOL    HW2 5328   0.100   2.696   1.575
 1588SOL     OW 5329   0.613   3.227   0.726
 1588SOL    HW1 5330   0.564   3.140   0.735
 1588SOL    HW2 5331   0.590   3.270   0.639
 1589SOL     OW 5332   1.293   3.090   1.423
 1589SOL    HW1 5333   1.330   3.017   1.365
 1589SOL    HW2 5334   1.345   3.095   1.508
 1590SOL     OW 5335   0.809   1.866   0.502
 1590SOL    HW1 5336   0.849   1.957   0.493
 1590SOL    HW2 5337   0.709   1.874   0.508
 1591SOL     OW 5338   0.197   2.838   1.264
 1591SOL    HW1 5339   0.286   2.793   1.250
 1591SOL    HW2 5340   0.124   2.773   1.245
 1592SOL     OW 5341   1.525   2.861   0.190
 1592SOL    HW1 5342   1.462   2.785   0.203
 1592SOL    HW2 5343   1.573   2.879   0.276
 1593SOL     OW 5344   1.187   3.654   1.616
 1593SOL    HW1 5345   1.211   3.714   1.540
 1593SOL    HW2 5346   1.194   3.559   1.586
 1594SOL     OW 5347   0.317   2.113   1.801
 1594SOL    HW1 5348   0.388   2.184   1.807
 1594SOL    HW2 5349   0.229   2.152   1.829
 1595SOL     OW 5350   1.466   3.279   0.953
 1595SOL    HW1 5351   1.407   3.285   1.033
 1595SOL    HW2 5352   1.451   3.191   0.907
 1596SOL     OW 5353   1.667   3.576   0.572
 1596SOL    HW1 5354   1.626   3.553   0.484
 1596SOL    HW2 5355   1.649   3.502   0.637
 1597SOL     OW 5356   0.598   2.591   0.270
 1597SOL    HW1 5357   0.622   2.660   0.202
 1597SOL    HW2 5358   0.520   2.624   0.324
 1598SOL     OW 5359   1.281   2.207   0.944
 1598SOL    HW1 5360   1.195   2.157   0.931
 1598SOL    HW2 5361   1.343   2.153   1.000
 1599SOL     OW 5362   1.576   3.524   0.307
 1599SOL    HW1 5363   1.665   3.570   0.310
 1599SOL    HW2 5364   1.555   3.500   0.212
 1600SOL     OW 5365   0.807   2.467   1.465
 1600SOL    HW1 5366   0.760   2.464   1.554
 1600SOL    HW2 5367   0.756   2.412   1.399
 1601SOL     OW 5368   1.394   2.331   1.674
 1601SOL    HW1 5369   1.374   2.374   1.762
 1601SOL    HW2 5370   1.472   2.269   1.683
 1602SOL     OW 5371   0.973   2.752   1.572
 1602SOL    HW1 5372   1.019   2.668   1.543
 1602SOL    HW2 5373   0.917   2.786   1.497
 1603SOL     OW 5374   0.991   2.272   1.242
 1603SOL    HW1 5375   0.914   2.306   1.296
 1603SOL    HW2 5376   0.957   2.221   1.163
 1604SOL     OW 5377   1.041   2.563   0.429
 1604SOL    HW1 5378   1.067   2.559   0.525
 1604SOL    HW2 5379   0.956   2.512   0.415
 1605SOL     OW 5380   0.076   2.673   0.789
 1605SOL    HW1 5381   0.175   2.661   0.798
 1605SOL    HW2 5382   0.052   2.768   0.810
 1606SOL     OW 5383   0.130   3.683   1.571
 1606SOL    HW1 5384   0.120   3.668   1.670
 1606SOL    HW2 5385   0.044   3.719   1.535
 1607SOL     OW 5386   0.865   2.210   0.195
 1607SOL    HW1 5387   0.924   2.273   0.146
 1607SOL    HW2 5388   0.884   2.116   0.166
 1608SOL     OW 5389   1.719   2.447   1.831
 1608SOL    HW1 5390   1.693   2.536   1.795
 1608SOL    HW2 5391   1.717   2.379   1.758
 1609SOL     OW 5392   1.362   3.006   0.545
 1609SOL    HW1 5393   1.445   2.977   0.497
 1609SOL    HW2 5394   1.313   3.073   0.489
 1610SOL     OW 5395   0.550   2.058   0.885
 1610SOL    HW1 5396   0.545   2.053   0.985
 1610SOL    HW2 5397   0.552   2.154   0.856
 1611SOL     OW 5398   1.008   3.318   0.477
 1611SOL    HW1 5399   0.962   3.390   0.425
 1611SOL    HW2 5400   1.004   3.338   0.575
 1612SOL     OW 5401   0.351   3.663   0.853
 1612SOL    HW1 5402   0.401   3.577   0.859
 1612SOL    HW2 5403   0.416   3.740   0.850
 1613SOL     OW 5404   1.795   2.928   0.873
 1613SOL    HW1 5405   1.733   2.913   0.797
 1613SOL    HW2 5406   1.743   2.939   0.958
 1614SOL     OW 5407   1.227   3.412   1.506
 1614SOL    HW1 5408   1.233   3.335   1.570
 1614SOL    HW2 5409   1.175   3.386   1.426
 1615SOL     OW 5410   0.321   2.805   0.242
 1615SOL    HW1 5411   0.403   2.844   0.200
 1615SOL    HW2 5412   0.294   2.723   0.193
 1616SOL     OW 5413   1.458   2.597   0.728
 1616SOL    HW1 5414   1.453   2.532   0.803
 1616SOL    HW2 5415   1.538   2.656   0.741
 1617SOL     OW 5416   0.461   3.128   1.727
 1617SOL    HW1 5417   0.411   3.129   1.641
 1617SOL    HW2 5418   0.398   3.110   1.803
 1618SOL     OW 5419   1.111   3.638   0.237
 1618SOL    HW1 5420   1.051   3.576   0.287
 1618SOL    HW2 5421   1.142   3.594   0.152
 1619SOL     OW 5422   0.202   2.147   1.498
 1619SOL    HW1 5423   0.122   2.207   1.485
 1619SOL    HW2 5424   0.192   2.098   1.584
 1620SOL     OW 5425   1.632   3.239   0.081
 1620SOL    HW1 5426   1.600   3.333   0.071
 1620SOL    HW2 5427   1.556   3.176   0.069
 1621SOL     OW 5428   0.464   3.605   0.323
 1621SOL    HW1 5429   0.497   3.644   0.409
 1621SOL    HW2 5430   0.540   3.598   0.258
 1622SOL     OW 5431   1.400   1.969   0.426
 1622SOL    HW1 5432   1.376   1.932   0.336
 1622SOL    HW2 5433   1.499   1.985   0.430
 1623SOL     OW 5434   0.249   3.647   1.241
 1623SOL    HW1 5435   0.306   3.582   1.291
 1623SOL    HW2 5436   0.233   3.614   1.148
 1624SOL     OW 5437   0.940   3.560   0.904
 1624SOL    HW1 5438   1.020   3.503   0.925
 1624SOL    HW2 5439   0.891   3.520   0.827
 1625SOL     OW 5440   0.382   2.562   0.480
 1625SOL    HW1 5441   0.427   2.472   0.477
 1625SOL    HW2 5442   0.288   2.551   0.513
 1626SOL     OW 5443   1.547   2.084   1.729
 1626SOL    HW1 5444   1.542   2.121   1.821
 1626SOL    HW2 5445   1.475   2.015   1.717
 1627SOL     OW 5446   0.781   2.126   1.749
 1627SOL    HW1 5447   0.848   2.065   1.792
 1627SOL    HW2 5448   0.708   2.145   1.814
 1628SOL     OW 5449   0.888   3.376   1.195
 1628SOL    HW1 5450   0.865   3.351   1.101
 1628SOL    HW2 5451   0.949   3.307   1.234
 1629SOL     OW 5452   1.351   2.452   1.433
 1629SOL    HW1 5453   1.379   2.409   1.518
 1629SOL    HW2 5454   1.376   2.548   1.434
 1630SOL     OW 5455   0.803   3.264   0.924
 1630SOL    HW1 5456   0.893   3.278   0.882
 1630SOL    HW2 5457   0.732   3.266   0.853
 1631SOL     OW 5458   0.922   2.365   0.899
 1631SOL    HW1 5459   0.897   2.356   0.803
 1631SOL    HW2 5460   0.970   2.283   0.930
 1632SOL     OW 5461   0.539   1.926   0.512
 1632SOL    HW1 5462   0.458   1.927   0.570
 1632SOL    HW2 5463   0.542   2.009   0.457
 1633SOL     OW 5464   1.434   3.050   0.041
 1633SOL    HW1 5465   1.466   2.974   0.098
 1633SOL    HW2 5466   1.342   3.077   0.071
 1634SOL     OW 5467   0.297   1.897   0.171
 1634SOL    HW1 5468   0.346   1.981   0.150
 1634SOL    HW2 5469   0.359   1.832   0.216
 1635SOL     OW 5470   0.935   2.098   0.480
 1635SOL    HW1 5471   0.887   2.139   0.402
 1635SOL    HW2 5472   1.034   2.096   0.461
 1636SOL     OW 5473   1.076   2.545   1.464
 1636SOL    HW1 5474   0.996   2.484   1.467
 1636SOL    HW2 5475   1.157   2.492   1.440
 1637SOL     OW 5476   1.227   3.432   0.793
 1637SOL    HW1 5477   1.248   3.506   0.728
 1637SOL    HW2 5478   1.295   3.432   0.866
 1638SOL     OW 5479   0.459   3.014   0.741
 1638SOL    HW1 5480   0.388   2.987   0.806
 1638SOL    HW2 5481   0.433   2.986   0.648
 1639SOL     OW 5482   1.271   3.659   0.591
 1639SOL    HW1 5483   1.315   3.723   0.527
 1639SOL    HW2 5484   1.221   3.711   0.661
 1640SOL     OW 5485   1.032   2.411   0.016
 1640SOL    HW1 5486   0.991   2.493  -0.023
 1640SOL    HW2 5487   1.096   2.437   0.089
 1641SOL     OW 5488   0.078   2.418   1.386
 1641SOL    HW1 5489   0.170   2.417   1.345
 1641SOL    HW2 5490   0.072   2.492   1.453
 1642SOL     OW 5491   0.561   2.084   1.147
 1642SOL    HW1 5492   0.599   2.000   1.184
 1642SOL    HW2 5493   0.473   2.103   1.191
 1643SOL     OW 5494   0.866   2.316   0.642
 1643SOL    HW1 5495   0.834   2.388   0.580
 1643SOL    HW2 5496   0.890   2.235   0.589
 1644SOL     OW 5497   1.017   1.901   0.753
 1644SOL    HW1 5498   0.945   1.906   0.684
 1644SOL    HW2 5499   0.993   1.832   0.822
 1645SOL     OW 5500   1.429   3.035   0.867
 1645SOL    HW1 5501   1.374   2.951   0.860
 1645SOL    HW2 5502   1.455   3.064   0.775
 1646SOL     OW 5503   1.466   2.452   0.992
 1646SOL    HW1 5504   1.436   2.357   0.999
 1646SOL    HW2 5505   1.539   2.468   1.058
 1647SOL     OW 5506   1.857   2.695   0.377
 1647SOL    HW1 5507   1.899   2.631   0.441
 1647SOL    HW2 5508   1.819   2.644   0.299
 1648SOL     OW 5509   0.488   3.247   0.174
 1648SOL    HW1 5510   0.401   3.232   0.221
 1648SOL    HW2 5511   0.471   3.273   0.079
 1649SOL     OW 5512   1.664   3.142   0.657
 1649SOL    HW1 5513   1.763   3.150   0.671
 1649SOL    HW2 5514   1.619   3.226   0.688
 1650SOL     OW 5515   1.390   2.437   0.078
 1650SOL    HW1 5516   1.336   2.416   0.159
 1650SOL    HW2 5517   1.481   2.396   0.087
 1651SOL     OW 5518   0.527   2.118   0.328
 1651SOL    HW1 5519   0.554   2.059   0.253
 1651SOL    HW2 5520   0.527   2.213   0.297
 1652SOL     OW 5521   1.754   3.085   1.588
 1652SOL    HW1 5522   1.845   3.046   1.575
 1652SOL    HW2 5523   1.762   3.181   1.612
 1653SOL     OW 5524   1.064   3.209   1.340
 1653SOL    HW1 5525   0.984   3.186   1.395
 1653SOL    HW2 5526   1.147   3.183   1.389
 1654SOL     OW 5527   1.592   3.491   1.625
 1654SOL    HW1 5528   1.619   3.525   1.535
 1654SOL    HW2 5529   1.671   3.453   1.671
 1655SOL     OW 5530   1.111   3.057   1.100
 1655SOL    HW1 5531   1.071   3.101   1.181
 1655SOL    HW2 5532   1.070   3.094   1.017
 1656SOL     OW 5533   1.638   2.961   1.079
 1656SOL    HW1 5534   1.643   3.042   1.138
 1656SOL    HW2 5535   1.552   2.963   1.028
 1657SOL     OW 5536   0.915   1.951   1.402
 1657SOL    HW1 5537   0.940   1.931   1.307
 1657SOL    HW2 5538   0.987   2.007   1.444
 1658SOL     OW 5539   0.980   2.978   1.719
 1658SOL    HW1 5540   0.881   2.984   1.729
 1658SOL    HW2 5541   1.003   2.898   1.663
 1659SOL     OW 5542   0.705   2.912   0.368
 1659SOL    HW1 5543   0.691   2.919   0.467
 1659SOL    HW2 5544   0.789   2.861   0.350
 1660SOL     OW 5545   0.410   2.675   1.251
 1660SOL    HW1 5546   0.496   2.687   1.301
 1660SOL    HW2 5547   0.368   2.588   1.278
 1661SOL     OW 5548   1.274   2.248   1.262
 1661SOL    HW1 5549   1.295   2.322   1.326
 1661SOL    HW2 5550   1.185   2.265   1.219
 1662SOL     OW 5551   0.064   3.426   1.331
 1662SOL    HW1 5552   0.018   3.508   1.297
 1662SOL    HW2 5553   0.162   3.445   1.340
 1663SOL     OW 5554   0.367   2.962   0.501
 1663SOL    HW1 5555   0.360   3.045   0.445
 1663SOL    HW2 5556   0.371   2.882   0.441
 1664SOL     OW 5557   0.566   2.399   0.865
 1664SOL    HW1 5558   0.578   2.465   0.791
 1664SOL    HW2 5559   0.612   2.433   0.948
 1665SOL     OW 5560   1.252   3.210   0.388
 1665SOL    HW1 5561   1.302   3.287   0.428
 1665SOL    HW2 5562   1.157   3.212   0.420
 1666SOL     OW 5563   1.272   3.307   1.142
 1666SOL    HW1 5564   1.319   3.320   1.229
 1666SOL    HW2 5565   1.206   3.233   1.151
 1667SOL     OW 5566   1.582   2.501   0.472
 1667SOL    HW1 5567   1.551   2.562   0.545
 1667SOL    HW2 5568   1.632   2.553   0.403
 1668SOL     OW 5569   0.354   3.372   1.329
 1668SOL    HW1 5570   0.333   3.328   1.242
 1668SOL    HW2 5571   0.451   3.398   1.332
 1669SOL     OW 5572   0.402   2.613   1.598
 1669SOL    HW1 5573   0.470   2.668   1.551
 1669SOL    HW2 5574   0.442   2.525   1.625
 1670SOL     OW 5575   1.587   2.641   1.670
 1670SOL    HW1 5576   1.495   2.679   1.665
 1670SOL    HW2 5577   1.647   2.688   1.605
 1671SOL     OW 5578   1.013   1.967   1.770
 1671SOL    HW1 5579   1.019   2.052   1.718
 1671SOL    HW2 5580   1.045   1.891   1.713
 1672SOL     OW 5581   0.504   1.912   1.740
 1672SOL    HW1 5582   0.462   1.855   1.670
 1672SOL    HW2 5583   0.438   1.981   1.772
 1673SOL     OW 5584   0.573   2.732   1.029
 1673SOL    HW1 5585   0.617   2.821   1.020
 1673SOL    HW2 5586   0.510   2.732   1.106
 1674SOL     OW 5587   1.360   2.724   1.045
 1674SOL    HW1 5588   1.285   2.724   0.979
 1674SOL    HW2 5589   1.397   2.632   1.054
 1675SOL     OW 5590   1.209   2.387   0.275
 1675SOL    HW1 5591   1.222   2.303   0.329
 1675SOL    HW2 5592   1.180   2.461   0.335
 1676SOL     OW 5593   0.307   2.075   1.231
 1676SOL    HW1 5594   0.284   2.112   1.321
 1676SOL    HW2 5595   0.277   1.980   1.225
 1677SOL     OW 5596   0.037   3.172   1.282
 1677SOL    HW1 5597   0.090   3.123   1.350
 1677SOL    HW2 5598   0.059   3.270   1.287
 1678SOL     OW 5599   0.732   2.496   1.064
 1678SOL    HW1 5600   0.791   2.470   0.988
 1678SOL    HW2 5601   0.704   2.592   1.053
 1679SOL     OW 5602   1.728   2.797   1.854
 1679SOL    HW1 5603   1.682   2.790   1.765
 1679SOL    HW2 5604   1.666   2.841   1.920
 1680SOL     OW 5605   0.307   1.925   0.618
 1680SOL    HW1 5606   0.296   2.019   0.651
 1680SOL    HW2 5607   0.302   1.862   0.695
 1681SOL     OW 5608   1.622   2.229   0.374
 1681SOL    HW1 5609   1.624   2.153   0.438
 1681SOL    HW2 5610   1.574   2.306   0.414
 1682SOL     OW 5611   1.023   2.628   0.966
 1682SOL    HW1 5612   1.038   2.649   1.062
 1682SOL    HW2 5613   0.993   2.533   0.957
 1683SOL     OW 5614   0.980   3.435   1.700
 1683SOL    HW1 5615   0.960   3.479   1.612
 1683SOL    HW2 5616   1.019   3.344   1.684
 1684SOL     OW 5617   1.859   3.380   1.605
 1684SOL    HW1 5618   1.873   3.407   1.510
 1684SOL    HW2 5619   1.942   3.402   1.658
 1685SOL     OW 5620   0.350   2.760   1.804
 1685SOL    HW1 5621   0.426   2.804   1.852
 1685SOL    HW2 5622   0.385   2.713   1.722
 1686SOL     OW 5623   1.540   2.136   0.125
 1686SOL    HW1 5624   1.479   2.061   0.148
 1686SOL    HW2 5625   1.562   2.188   0.208
 1687SOL     OW 5626   1.303   2.700   0.042
 1687SOL    HW1 5627   1.337   2.607   0.057
 1687SOL    HW2 5628   1.321   2.727  -0.053
 1688SOL     OW 5629   1.068   3.195   0.849
 1688SOL    HW1 5630   1.075   3.111   0.794
 1688SOL    HW2 5631   1.130   3.264   0.813
 1689SOL     OW 5632   0.319   2.672   0.949
 1689SOL    HW1 5633   0.412   2.708   0.954
 1689SOL    HW2 5634   0.313   2.587   1.001
 1690SOL     OW 5635   0.339   2.371   1.006
 1690SOL    HW1 5636   0.287   2.288   0.989
 1690SOL    HW2 5637   0.416   2.376   0.942
 1691SOL     OW 5638   1.138   2.242   1.678
 1691SOL    HW1 5639   1.093   2.305   1.742
 1691SOL    HW2 5640   1.231   2.273   1.661
 1692SOL     OW 5641   1.160   2.069   1.477
 1692SOL    HW1 5642   1.160   2.133   1.554
 1692SOL    HW2 5643   1.188   2.117   1.394
 1693SOL     OW 5644   0.008   3.188   0.200
 1693SOL    HW1 5645  -0.085   3.209   0.169
 1693SOL    HW2 5646   0.018   3.089   0.213
 1694SOL     OW 5647   0.088   3.663   0.927
 1694SOL    HW1 5648   0.046   3.577   0.900
 1694SOL    HW2 5649   0.182   3.666   0.893
 1695SOL     OW 5650   0.504   3.430   0.910
 1695SOL    HW1 5651   0.570   3.504   0.919
 1695SOL    HW2 5652   0.548   3.351   0.868
 1696SOL     OW 5653   1.002   2.658   1.238
 1696SOL    HW1 5654   1.043   2.626   1.324
 1696SOL    HW2 5655   0.906   2.631   1.235
 1697SOL     OW 5656   0.040   2.406   1.114
 1697SOL    HW1 5657   0.125   2.373   1.073
 1697SOL    HW2 5658   0.053   2.421   1.212
 1698SOL     OW 5659   0.189   2.382   1.722
 1698SOL    HW1 5660   0.248   2.342   1.652
 1698SOL    HW2 5661   0.131   2.453   1.681
 1699SOL     OW 5662   1.369   2.812   1.660
 1699SOL    HW1 5663   1.408   2.901   1.680
 1699SOL    HW2 5664   1.379   2.792   1.563
 1700SOL     OW 5665   0.815   2.434   0.325
 1700SOL    HW1 5666   0.822   2.345   0.279
 1700SOL    HW2 5667   0.721   2.468   0.317
 1701SOL     OW 5668   1.657   2.466   1.206
 1701SOL    HW1 5669   1.619   2.397   1.268
 1701SOL    HW2 5670   1.739   2.430   1.162
 1702SOL     OW 5671   0.252   3.426   1.744
 1702SOL    HW1 5672   0.222   3.483   1.820
 1702SOL    HW2 5673   0.245   3.329   1.770
 1703SOL     OW 5674   0.671   2.326   1.269
 1703SOL    HW1 5675   0.637   2.237   1.239
 1703SOL    HW2 5676   0.697   2.380   1.189
 1704SOL     OW 5677   0.930   3.540   1.465
 1704SOL    HW1 5678   0.906   3.522   1.370
 1704SOL    HW2 5679   0.960   3.634   1.475
 1705SOL     OW 5680   0.473   2.362   0.191
 1705SOL    HW1 5681   0.534   2.442   0.195
 1705SOL    HW2 5682   0.378   2.393   0.198
 1706SOL     OW 5683   0.159   2.999   1.466
 1706SOL    HW1 5684   0.181   2.938   1.542
 1706SOL    HW2 5685   0.169   2.950   1.380
 1707SOL     OW 5686   1.347   2.921   1.234
 1707SOL    HW1 5687   1.371   2.858   1.160
 1707SOL    HW2 5688   1.257   2.961   1.216
 1708SOL     OW 5689   1.302   2.717   0.309
 1708SOL    HW1 5690   1.216   2.686   0.351
 1708SOL    HW2 5691   1.298   2.703   0.210
 1709SOL     OW 5692   1.759   3.609   1.154
 1709SOL    HW1 5693   1.820   3.639   1.081
 1709SOL    HW2 5694   1.721   3.520   1.132
 1710SOL     OW 5695   1.252   3.593   1.128
 1710SOL    HW1 5696   1.336   3.598   1.074
 1710SOL    HW2 5697   1.229   3.497   1.146
 1711SOL     OW 5698   0.083   3.120   1.022
 1711SOL    HW1 5699   0.078   3.119   1.122
 1711SOL    HW2 5700   0.000   3.079   0.984
 1712SOL     OW 5701   0.688   3.524   1.716
 1712SOL    HW1 5702   0.632   3.605   1.725
 1712SOL    HW2 5703   0.740   3.528   1.630
 1713SOL     OW 5704   0.903   1.948   0.133
 1713SOL    HW1 5705   0.954   1.949   0.047
 1713SOL    HW2 5706   0.959   1.906   0.204
 1714SOL     OW 5707   1.388   3.435   0.477
 1714SOL    HW1 5708   1.455   3.447   0.403
 1714SOL    HW2 5709   1.348   3.524   0.500
 1715SOL     OW 5710   0.130   3.656   1.851
 1715SOL    HW1 5711   0.089   3.582   1.904
 1715SOL    HW2 5712   0.194   3.707   1.909
 1716SOL     OW 5713   1.280   2.789   0.672
 1716SOL    HW1 5714   1.340   2.708   0.674
 1716SOL    HW2 5715   1.320   2.858   0.612
 1717SOL     OW 5716   0.830   3.135   1.422
 1717SOL    HW1 5717   0.825   3.168   1.517
 1717SOL    HW2 5718   0.744   3.154   1.376
 1718SOL     OW 5719   0.672   3.478   0.154
 1718SOL    HW1 5720   0.681   3.488   0.055
 1718SOL    HW2 5721   0.632   3.389   0.175
 1719SOL     OW 5722   1.650   3.582   1.394
 1719SOL    HW1 5723   1.703   3.592   1.310
 1719SOL    HW2 5724   1.623   3.672   1.428
 1720SOL     OW 5725   0.263   2.188   0.720
 1720SOL    HW1 5726   0.184   2.239   0.686
 1720SOL    HW2 5727   0.254   2.173   0.818
 1721SOL     OW 5728   1.194   3.474   0.031
 1721SOL    HW1 5729   1.200   3.381   0.068
 1721SOL    HW2 5730   1.135   3.474  -0.049
 1722SOL     OW 5731   0.822   2.864   1.372
 1722SOL    HW1 5732   0.862   2.863   1.280
 1722SOL    HW2 5733   0.832   2.956   1.412
 1723SOL     OW 5734   0.916   2.772   0.291
 1723SOL    HW1 5735   0.979   2.810   0.223
 1723SOL    HW2 5736   0.956   2.689   0.330
 1724SOL     OW 5737   1.504   3.469   0.044
 1724SOL    HW1 5738   1.412   3.506   0.051
 1724SOL    HW2 5739   1.542   3.489  -0.046
 1725SOL     OW 5740   0.372   3.150   1.490
 1725SOL    HW1 5741   0.359   3.243   1.456
 1725SOL    HW2 5742   0.288   3.098   1.477
 1726SOL     OW 5743   1.614   3.154   1.289
 1726SOL    HW1 5744   1.674   3.157   1.369
 1726SOL    HW2 5745   1.539   3.218   1.302
 1727SOL     OW 5746   1.039   2.960   0.696
 1727SOL    HW1 5747   0.969   2.913   0.750
 1727SOL    HW2 5748   1.098   2.892   0.653
 1728SOL     OW 5749   1.014   2.098   0.971
 1728SOL    HW1 5750   1.006   2.062   0.878
 1728SOL    HW2 5751   1.012   2.022   1.036
 1729SOL     OW 5752   0.590   3.349   0.491
 1729SOL    HW1 5753   0.632   3.291   0.421
 1729SOL    HW2 5754   0.546   3.428   0.447
 1730SOL     OW 5755   1.709   2.247   1.381
 1730SOL    HW1 5756   1.782   2.316   1.385
 1730SOL    HW2 5757   1.737   2.172   1.322
 1731SOL     OW 5758   0.255   3.210   0.290
 1731SOL    HW1 5759   0.159   3.211   0.263
 1731SOL    HW2 5760   0.267   3.263   0.374
 1732SOL     OW 5761   0.105   2.875   1.726
 1732SOL    HW1 5762   0.028   2.842   1.780
 1732SOL    HW2 5763   0.190   2.845   1.768
 1733SOL     OW 5764   0.672   2.065   1.489
 1733SOL    HW1 5765   0.762   2.049   1.449
 1733SOL    HW2 5766   0.680   2.070   1.588
 1734SOL     OW 5767   0.075   2.207   0.033
 1734SOL    HW1 5768  -0.017   2.179   0.004
 1734SOL    HW2 5769   0.106   2.284  -0.023
 1735SOL     OW 5770   1.440   2.718   1.398
 1735SOL    HW1 5771   1.383   2.770   1.335
 1735SOL    HW2 5772   1.536   2.730   1.374
 1736SOL     OW 5773   0.072   2.028   0.318
 1736SOL    HW1 5774   0.055   2.111   0.264
 1736SOL    HW2 5775   0.162   1.991   0.296
 1737SOL     OW 5776   1.183   3.197   0.119
 1737SOL    HW1 5777   1.084   3.186   0.121
 1737SOL    HW2 5778   1.217   3.212   0.212
 1738SOL     OW 5779   0.613   2.704   1.431
 1738SOL    HW1 5780   0.669   2.785   1.414
 1738SOL    HW2 5781   0.672   2.624   1.434
 1739SOL     OW 5782   1.493   3.629   0.959
 1739SOL    HW1 5783   1.526   3.693   0.890
 1739SOL    HW2 5784   1.559   3.623   1.034
 1740SOL     OW 5785   0.716   2.427   1.708
 1740SOL    HW1 5786   0.735   2.492   1.782
 1740SOL    HW2 5787   0.776   2.347   1.717
 1741SOL     OW 5788   1.450   3.082   1.633
 1741SOL    HW1 5789   1.441   3.072   1.732
 1741SOL    HW2 5790   1.546   3.075   1.607
 1742SOL     OW 5791   0.390   3.603   1.560
 1742SOL    HW1 5792   0.299   3.644   1.558
 1742SOL    HW2 5793   0.383   3.509   1.592
 1743SOL     OW 5794   1.674   2.745   1.254
 1743SOL    HW1 5795   1.647   2.656   1.217
 1743SOL    HW2 5796   1.675   2.813   1.181
 1744SOL     OW 5797   1.225   2.187   0.449
 1744SOL    HW1 5798   1.290   2.113   0.438
 1744SOL    HW2 5799   1.245   2.237   0.533
 1745SOL     OW 5800   0.594   2.607   0.652
 1745SOL    HW1 5801   0.644   2.692   0.633
 1745SOL    HW2 5802   0.506   2.609   0.604
 1746SOL     OW 5803   1.777   2.204   1.642
 1746SOL    HW1 5804   1.760   2.235   1.548
 1746SOL    HW2 5805   1.693   2.167   1.680
 1747SOL     OW 5806   1.730   2.796   1.517
 1747SOL    HW1 5807   1.768   2.887   1.532
 1747SOL    HW2 5808   1.722   2.779   1.418
 1748SOL     OW 5809   0.859   3.236   0.016
 1748SOL    HW1 5810   0.813   3.251   0.104
 1748SOL    HW2 5811   0.903   3.321  -0.014
 1749SOL     OW 5812   0.661   3.652   0.953
 1749SOL    HW1 5813   0.615   3.740   0.940
 1749SOL    HW2 5814   0.760   3.664   0.946
 1750SOL     OW 5815   0.859   2.818   0.861
 1750SOL    HW1 5816   0.913   2.749   0.909
 1750SOL    HW2 5817   0.827   2.887   0.927
 1751SOL     OW 5818   1.083   2.846   0.087
 1751SOL    HW1 5819   1.060   2.899   0.005
 1751SOL    HW2 5820   1.164   2.790   0.068
 1752SOL     OW 5821   1.861   3.431   0.851
 1752SOL    HW1 5822   1.790   3.419   0.781
 1752SOL    HW2 5823   1.862   3.352   0.911
 1753SOL     OW 5824   0.221   3.176   1.844
 1753SOL    HW1 5825   0.156   3.103   1.823
 1753SOL    HW2 5826   0.225   3.190   1.942
 1754SOL     OW 5827   0.079   3.102   0.653
 1754SOL    HW1 5828   0.078   3.055   0.741
 1754SOL    HW2 5829   0.161   3.074   0.602
 1755SOL     OW 5830   0.672   3.253   1.624
 1755SOL    HW1 5831   0.594   3.203   1.662
 1755SOL    HW2 5832   0.669   3.348   1.655
 1756SOL     OW 5833   0.428   2.286   0.520
 1756SOL    HW1 5834   0.458   2.214   0.458
 1756SOL    HW2 5835   0.389   2.246   0.603
 1757SOL     OW 5836   1.705   3.349   1.104
 1757SOL    HW1 5837   1.612   3.324   1.077
 1757SOL    HW2 5838   1.731   3.299   1.186
 1758SOL     OW 5839   0.317   2.409   1.280
 1758SOL    HW1 5840   0.355   2.350   1.352
 1758SOL    HW2 5841   0.357   2.383   1.192
 1759SOL     OW 5842   0.812   3.448   0.687
 1759SOL    HW1 5843   0.844   3.458   0.593
 1759SOL    HW2 5844   0.733   3.386   0.689
 1760SOL     OW 5845   1.424   2.076   1.112
 1760SOL    HW1 5846   1.476   2.011   1.167
 1760SOL    HW2 5847   1.375   2.139   1.173
 1761SOL     OW 5848   1.001   1.896   1.154
 1761SOL    HW1 5849   0.938   1.824   1.123
 1761SOL    HW2 5850   1.094   1.860   1.154
 1762SOL     OW 5851   0.770   3.192   0.301
 1762SOL    HW1 5852   0.724   3.105   0.318
 1762SOL    HW2 5853   0.861   3.189   0.342
 1763SOL     OW 5854   0.618   3.429   1.284
 1763SOL    HW1 5855   0.613   3.511   1.341
 1763SOL    HW2 5856   0.707   3.426   1.239
 1764SOL     OW 5857   1.352   1.914   0.168
 1764SOL    HW1 5858   1.387   1.873   0.084
 1764SOL    HW2 5859   1.262   1.876   0.188
 1765SOL     OW 5860   1.300   2.315   0.691
 1765SOL    HW1 5861   1.241   2.395   0.695
 1765SOL    HW2 5862   1.315   2.280   0.784
 1766SOL     OW 5863   1.593   2.083   0.882
 1766SOL    HW1 5864   1.509   2.082   0.936
 1766SOL    HW2 5865   1.595   2.166   0.826
 1767SOL     OW 5866   0.039   2.939   0.300
 1767SOL    HW1 5867   0.138   2.928   0.291
 1767SOL    HW2 5868  -0.001   2.853   0.332
 1768SOL     OW 5869   0.875   3.508   0.337
 1768SOL    HW1 5870   0.798   3.473   0.283
 1768SOL    HW2 5871   0.843   3.579   0.399
 1769SOL     OW 5872   0.230   2.490   1.975
 1769SOL    HW1 5873   0.137   2.488   2.012
 1769SOL    HW2 5874   0.231   2.451   1.883
 1770SOL     OW 5875   0.225   2.137   2.858
 1770SOL    HW1 5876   0.260   2.120   2.950
 1770SOL    HW2 5877   0.137   2.092   2.846
 1771SOL     OW 5878   0.019   2.230   2.509
 1771SOL    HW1 5879  -0.063   2.273   2.548
 1771SOL    HW2 5880  -0.009   2.157   2.446
 1772SOL     OW 5881   0.569   3.137   3.027
 1772SOL    HW1 5882   0.476   3.130   2.990
 1772SOL    HW2 5883   0.580   3.226   3.071
 1773SOL     OW 5884   1.555   3.373   2.565
 1773SOL    HW1 5885   1.498   3.357   2.646
 1773SOL    HW2 5886   1.496   3.383   2.485
 1774SOL     OW 5887   1.135   2.565   2.579
 1774SOL    HW1 5888   1.192   2.643   2.554
 1774SOL    HW2 5889   1.075   2.591   2.655
 1775SOL     OW 5890   1.755   2.469   2.093
 1775SOL    HW1 5891   1.743   2.456   1.994
 1775SOL    HW2 5892   1.725   2.388   2.142
 1776SOL     OW 5893   0.768   3.006   2.885
 1776SOL    HW1 5894   0.690   3.023   2.945
 1776SOL    HW2 5895   0.802   3.093   2.849
 1777SOL     OW 5896   0.850   2.660   3.685
 1777SOL    HW1 5897   0.846   2.736   3.750
 1777SOL    HW2 5898   0.872   2.696   3.594
 1778SOL     OW 5899   0.685   2.874   2.527
 1778SOL    HW1 5900   0.754   2.858   2.597
 1778SOL    HW2 5901   0.612   2.931   2.565
 1779SOL     OW 5902   0.686   3.023   3.665
 1779SOL    HW1 5903   0.746   3.102   3.679
 1779SOL    HW2 5904   0.600   3.054   3.624
 1780SOL     OW 5905   0.335   3.297   2.923
 1780SOL    HW1 5906   0.257   3.266   2.870
 1780SOL    HW2 5907   0.393   3.355   2.866
 1781SOL     OW 5908   1.460   3.367   3.201
 1781SOL    HW1 5909   1.484   3.461   3.227
 1781SOL    HW2 5910   1.444   3.313   3.283
 1782SOL     OW 5911   0.438   2.254   3.361
 1782SOL    HW1 5912   0.520   2.198   3.370
 1782SOL    HW2 5913   0.357   2.196   3.365
 1783SOL     OW 5914   1.603   2.309   2.599
 1783SOL    HW1 5915   1.529   2.355   2.549
 1783SOL    HW2 5916   1.654   2.377   2.652
 1784SOL     OW 5917   0.231   3.575   2.345
 1784SOL    HW1 5918   0.265   3.652   2.399
 1784SOL    HW2 5919   0.275   3.575   2.255
 1785SOL     OW 5920   1.127   3.203   3.552
 1785SOL    HW1 5921   1.174   3.203   3.640
 1785SOL    HW2 5922   1.079   3.116   3.541
 1786SOL     OW 5923   0.230   3.296   2.400
 1786SOL    HW1 5924   0.204   3.392   2.400
 1786SOL    HW2 5925   0.159   3.242   2.445
 1787SOL     OW 5926   0.240   2.953   2.748
 1787SOL    HW1 5927   0.254   2.869   2.800
 1787SOL    HW2 5928   0.185   3.017   2.803
 1788SOL     OW 5929   0.620   3.648   3.301
 1788SOL    HW1 5930   0.528   3.631   3.336
 1788SOL    HW2 5931   0.648   3.740   3.327
 1789SOL     OW 5932   0.606   2.826   1.985
 1789SOL    HW1 5933   0.613   2.910   1.931
 1789SOL    HW2 5934   0.652   2.839   2.073
 1790SOL     OW 5935   1.594   1.976   3.342
 1790SOL    HW1 5936   1.576   2.043   3.270
 1790SOL    HW2 5937   1.591   2.022   3.431
 1791SOL     OW 5938   0.122   2.505   2.425
 1791SOL    HW1 5939   0.077   2.417   2.442
 1791SOL    HW2 5940   0.121   2.559   2.509
 1792SOL     OW 5941   1.842   3.629   2.221
 1792SOL    HW1 5942   1.896   3.600   2.301
 1792SOL    HW2 5943   1.872   3.719   2.192
 1793SOL     OW 5944   0.027   3.458   1.979
 1793SOL    HW1 5945   0.008   3.362   2.000
 1793SOL    HW2 5946  -0.006   3.516   2.054
 1794SOL     OW 5947   1.689   2.784   2.474
 1794SOL    HW1 5948   1.784   2.755   2.482
 1794SOL    HW2 5949   1.681   2.849   2.399
 1795SOL     OW 5950   1.641   2.970   2.294
 1795SOL    HW1 5951   1.727   2.972   2.242
 1795SOL    HW2 5952   1.655   3.017   2.382
 1796SOL     OW 5953   0.113   2.599   3.459
 1796SOL    HW1 5954   0.201   2.586   3.504
 1796SOL    HW2 5955   0.100   2.696   3.437
 1797SOL     OW 5956   0.613   3.227   2.588
 1797SOL    HW1 5957   0.564   3.140   2.597
 1797SOL    HW2 5958   0.590   3.270   2.501
 1798SOL     OW 5959   1.293   3.090   3.285
 1798SOL    HW1 5960   1.330   3.017   3.227
 1798SOL    HW2 5961   1.345   3.095   3.370
 1799SOL     OW 5962   0.809   1.866   2.364
 1799SOL    HW1 5963   0.849   1.957   2.355
 1799SOL    HW2 5964   0.709   1.874   2.370
 1800SOL     OW 5965   0.197   2.838   3.126
 1800SOL    HW1 5966   0.286   2.793   3.112
 1800SOL    HW2 5967   0.124   2.773   3.107
 1801SOL     OW 5968   1.525   2.861   2.052
 1801SOL    HW1 5969   1.462   2.785   2.065
 1801SOL    HW2 5970   1.573   2.879   2.138
 1802SOL     OW 5971   1.187   3.654   3.478
 1802SOL    HW1 5972   1.211   3.714   3.402
 1802SOL    HW2 5973   1.194   3.559   3.448
 1803SOL     OW 5974   0.317   2.113   3.663
 1803SOL    HW1 5975   0.388   2.184   3.669
 1803SOL    HW2 5976   0.229   2.152   3.691
 1804SOL     OW 5977   1.466   3.279   2.815
 1804SOL    HW1 5978   1.407   3.285   2.895
 1804SOL    HW2 5979   1.451   3.191   2.769
 1805SOL     OW 5980   1.667   3.576   2.434
 1805SOL    HW1 5981   1.626   3.553   2.346
 1805SOL    HW2 5982   1.649   3.502   2.499
 1806SOL     OW 5983   0.598   2.591   2.132
 1806SOL    HW1 5984   0.622   2.660   2.064
 1806SOL    HW2 5985   0.520   2.624   2.186
 1807SOL     OW 5986   1.281   2.207   2.806
 1807SOL    HW1 5987   1.195   2.157   2.793
 1807SOL    HW2 5988   1.343   2.153   2.862
 1808SOL     OW 5989   1.576   3.524   2.169
 1808SOL    HW1 5990   1.665   3.570   2.172
 1808SOL    HW2 5991   1.555   3.500   2.074
 1809SOL     OW 5992   0.807   2.467   3.327
 1809SOL    HW1 5993   0.760   2.464   3.416
 1809SOL    HW2 5994   0.756   2.412   3.261
 1810SOL     OW 5995   1.394   2.331   3.536
 1810SOL    HW1 5996   1.374   2.374   3.624
 1810SOL    HW2 5997   1.472   2.269   3.545
 1811SOL     OW 5998   0.973   2.752   3.434
 1811SOL    HW1 5999   1.019   2.668   3.405
 1811SOL    HW2 6000   0.917   2.786   3.359
 1812SOL     OW 6001   0.991   2.272   3.104
 1812SOL    HW1 6002   0.914   2.306   3.158
 1812SOL    HW2 6003   0.957   2.221   3.025
 1813SOL     OW 6004   1.041   2.563   2.291
 1813SOL    HW1 6005   1.067   2.559   2.387
 1813SOL    HW2 6006   0.956   2.512   2.277
 1814SOL     OW 6007   0.076   2.673   2.651
 1814SOL    HW1 6008   0.175   2.661   2.660
 1814SOL    HW2 6009   0.052   2.768   2.672
 1815SOL     OW 6010   0.130   3.683   3.433
 1815SOL    HW1 6011   0.120   3.668   3.532
 1815SOL    HW2 6012   0.044   3.719   3.397
 1816SOL     OW 6013   0.865   2.210   2.057
 1816SOL    HW1 6014   0.924   2.273   2.008
 1816SOL    HW2 6015   0.884   2.116   2.028
 1817SOL     OW 6016   1.719   2.447   3.693
 1817SOL    HW1 6017   1.693   2.536   3.657
 1817SOL    HW2 6018   1.717   2.379   3.620
 1818SOL     OW 6019   1.362   3.006   2.407
 1818SOL    HW1 6020   1.445   2.977   2.359
 1818SOL    HW2 6021   1.313   3.073   2.351
 1819SOL     OW 6022   0.550   2.058   2.747
 1819SOL    HW1 6023   0.545   2.053   2.847
 1819SOL    HW2 6024   0.552   2.154   2.718
 1820SOL     OW 6025   1.008   3.318   2.339
 1820SOL    HW1 6026   0.962   3.390   2.287
 1820SOL    HW2 6027   1.004   3.338   2.437
 1821SOL     OW 6028   0.351   3.663   2.715
 1821SOL    HW1 6029   0.401   3.577   2.721
 1821SOL    HW2 6030   0.416   3.740   2.712
 1822SOL     OW 6031   1.795   2.928   2.735
 1822SOL    HW1 6032   1.733   2.913   2.659
 1822SOL    HW2 6033   1.743   2.939   2.820
 1823SOL     OW 6034   1.227   3.412   3.368
 1823SOL    HW1 6035   1.233   3.335   3.432
 1823SOL    HW2 6036   1.175   3.386   3.288
 1824SOL     OW 6037   0.321   2.805   2.104
 1824SOL    HW1 6038   0.403   2.844   2.062
 1824SOL    HW2 6039   0.294   2.723   2.055
 1825SOL     OW 6040   1.458   2.597   2.590
 1825SOL    HW1 6041   1.453   2.532   2.665
 1825SOL    HW2 6042   1.538   2.656   2.603
 1826SOL     OW 6043   0.461   3.128   3.589
 1826SOL    HW1 6044   0.411   3.129   3.503
 1826SOL    HW2 6045   0.398   3.110   3.665
 1827SOL     OW 6046   1.111   3.638   2.099
 1827SOL    HW1 6047   1.051   3.576   2.149
 1827SOL    HW2 6048   1.142   3.594   2.014
 1828SOL     OW 6049   0.202   2.147   3.360
 1828SOL    HW1 6050   0.122   2.207   3.347
 1828SOL    HW2 6051   0.192   2.098   3.446
 1829SOL     OW 6052   1.632   3.239   1.943
 1829SOL    HW1 6053   1.600   3.333   1.933
 1829SOL    HW2 6054   1.556   3.176   1.931
 1830SOL     OW 6055   0.464   3.605   2.185
 1830SOL    HW1 6056   0.497   3.644   2.271
 1830SOL    HW2 6057   0.540   3.598   2.120
 1831SOL     OW 6058   1.400   1.969   2.288
 1831SOL    HW1 6059   1.376   1.932   2.198
 1831SOL    HW2 6060   1.499   1.985   2.292
 1832SOL     OW 6061   0.249   3.647   3.103
 1832SOL    HW1 6062   0.306   3.582   3.153
 1832SOL    HW2 6063   0.233   3.614   3.010
 1833SOL     OW 6064   0.940   3.560   2.766
 1833SOL    HW1 6065   1.020   3.503   2.787
 1833SOL    HW2 6066   0.891   3.520   2.689
 1834SOL     OW 6067   0.382   2.562   2.342
 1834SOL    HW1 6068   0.427   2.472   2.339
 1834SOL    HW2 6069   0.288   2.551   2.375
 1835SOL     OW 6070   1.547   2.084   3.591
 1835SOL    HW1 6071   1.542   2.121   3.683
 1835SOL    HW2 6072   1.475   2.015   3.579
 1836SOL     OW 6073   0.614   1.984   1.979
 1836SOL    HW1 6074   0.712   1.962   1.986
 1836SOL    HW2 6075   0.583   1.967   1.886
 1837SOL     OW 6076   0.781   2.126   3.611
 1837SOL    HW1 6077   0.848   2.065   3.654
 1837SOL    HW2 6078   0.708   2.145   3.676
 1838SOL     OW 6079   0.888   3.376   3.057
 1838SOL    HW1 6080   0.865   3.351   2.963
 1838SOL    HW2 6081   0.949   3.307   3.096
 1839SOL     OW 6082   1.351   2.452   3.295
 1839SOL    HW1 6083   1.379   2.409   3.380
 1839SOL    HW2 6084   1.376   2.548   3.296
 1840SOL     OW 6085   0.803   3.264   2.786
 1840SOL    HW1 6086   0.893   3.278   2.744
 1840SOL    HW2 6087   0.732   3.266   2.715
 1841SOL     OW 6088   0.922   2.365   2.761
 1841SOL    HW1 6089   0.897   2.356   2.665
 1841SOL    HW2 6090   0.970   2.283   2.792
 1842SOL     OW 6091   0.539   1.926   2.374
 1842SOL    HW1 6092   0.458   1.927   2.432
 1842SOL    HW2 6093   0.542   2.009   2.319
 1843SOL     OW 6094   1.434   3.050   1.903
 1843SOL    HW1 6095   1.466   2.974   1.960
 1843SOL    HW2 6096   1.342   3.077   1.933
 1844SOL     OW 6097   0.297   1.897   2.033
 1844SOL    HW1 6098   0.346   1.981   2.012
 1844SOL    HW2 6099   0.359   1.832   2.078
 1845SOL     OW 6100   0.935   2.098   2.342
 1845SOL    HW1 6101   0.887   2.139   2.264
 1845SOL    HW2 6102   1.034   2.096   2.323
 1846SOL     OW 6103   1.076   2.545   3.326
 1846SOL    HW1 6104   0.996   2.484   3.329
 1846SOL    HW2 6105   1.157   2.492   3.302
 1847SOL     OW 6106   1.227   3.432   2.655
 1847SOL    HW1 6107   1.248   3.506   2.590
 1847SOL    HW2 6108   1.295   3.432   2.728
 1848SOL     OW 6109   0.459   3.014   2.603
 1848SOL    HW1 6110   0.388   2.987   2.668
 1848SOL    HW2 6111   0.433   2.986   2.510
 1849SOL     OW 6112   1.271   3.659   2.453
 1849SOL    HW1 6113   1.315   3.723   2.389
 1849SOL    HW2 6114   1.221   3.711   2.523
 1850SOL     OW 6115   1.032   2.411   1.878
 1850SOL    HW1 6116   0.991   2.493   1.839
 1850SOL    HW2 6117   1.096   2.437   1.951
 1851SOL     OW 6118   0.078   2.418   3.248
 1851SOL    HW1 6119   0.170   2.417   3.207
 1851SOL    HW2 6120   0.072   2.492   3.315
 1852SOL     OW 6121   0.561   2.084   3.009
 1852SOL    HW1 6122   0.599   2.000   3.046
 1852SOL    HW2 6123   0.473   2.103   3.053
 1853SOL     OW 6124   0.866   2.316   2.504
 1853SOL    HW1 6125   0.834   2.388   2.442
 1853SOL    HW2 6126   0.890   2.235   2.451
 1854SOL     OW 6127   1.017   1.901   2.615
 1854SOL    HW1 6128   0.945   1.906   2.546
 1854SOL    HW2 6129   0.993   1.832   2.684
 1855SOL     OW 6130   1.429   3.035   2.729
 1855SOL    HW1 6131   1.374   2.951   2.722
 1855SOL    HW2 6132   1.455   3.064   2.637
 1856SOL     OW 6133   1.466   2.452   2.854
 1856SOL    HW1 6134   1.436   2.357   2.861
 1856SOL    HW2 6135   1.539   2.468   2.920
 1857SOL     OW 6136   1.857   2.695   2.239
 1857SOL    HW1 6137   1.899   2.631   2.303
 1857SOL    HW2 6138   1.819   2.644   2.161
 1858SOL     OW 6139   0.488   3.247   2.036
 1858SOL    HW1 6140   0.401   3.232   2.083
 1858SOL    HW2 6141   0.471   3.273   1.941
 1859SOL     OW 6142   1.664   3.142   2.519
 1859SOL    HW1 6143   1.763   3.150   2.533
 1859SOL    HW2 6144   1.619   3.226   2.550
 1860SOL     OW 6145   1.390   2.437   1.940
 1860SOL    HW1 6146   1.336   2.416   2.021
 1860SOL    HW2 6147   1.481   2.396   1.949
 1861SOL     OW 6148   0.527   2.118   2.190
 1861SOL    HW1 6149   0.554   2.059   2.115
 1861SOL    HW2 6150   0.527   2.213   2.159
 1862SOL     OW 6151   1.754   3.085   3.450
 1862SOL    HW1 6152   1.845   3.046   3.437
 1862SOL    HW2 6153   1.762   3.181   3.474
 1863SOL     OW 6154   1.064   3.209   3.202
 1863SOL    HW1 6155   0.984   3.186   3.257
 1863SOL    HW2 6156   1.147   3.183   3.251
 1864SOL     OW 6157   1.592   3.491   3.487
 1864SOL    HW1 6158   1.619   3.525   3.397
 1864SOL    HW2 6159   1.671   3.453   3.533
 1865SOL     OW 6160   1.111   3.057   2.962
 1865SOL    HW1 6161   1.071   3.101   3.043
 1865SOL    HW2 6162   1.070   3.094   2.879
 1866SOL     OW 6163   1.638   2.961   2.941
 1866SOL    HW1 6164   1.643   3.042   3.000
 1866SOL    HW2 6165   1.552   2.963   2.890
 1867SOL     OW 6166   0.915   1.951   3.264
 1867SOL    HW1 6167   0.940   1.931   3.169
 1867SOL    HW2 6168   0.987   2.007   3.306
 1868SOL     OW 6169   0.980   2.978   3.581
 1868SOL    HW1 6170   0.881   2.984   3.591
 1868SOL    HW2 6171   1.003   2.898   3.525
 1869SOL     OW 6172   0.705   2.912   2.230
 1869SOL    HW1 6173   0.691   2.919   2.329
 1869SOL    HW2 6174   0.789   2.861   2.212
 1870SOL     OW 6175   0.410   2.675   3.113
 1870SOL    HW1 6176   0.496   2.687   3.163
 1870SOL    HW2 6177   0.368   2.588   3.140
 1871SOL     OW 6178   1.274   2.248   3.124
 1871SOL    HW1 6179   1.295   2.322   3.188
 1871SOL    HW2 6180   1.185   2.265   3.081
 1872SOL     OW 6181   0.064   3.426   3.193
 1872SOL    HW1 6182   0.018   3.508   3.159
 1872SOL    HW2 6183   0.162   3.445   3.202
 1873SOL     OW 6184   0.367   2.962   2.363
 1873SOL    HW1 6185   0.360   3.045   2.307
 1873SOL    HW2 6186   0.371   2.882   2.303
 1874SOL     OW 6187   0.566   2.399   2.727
 1874SOL    HW1 6188   0.578   2.465   2.653
 1874SOL    HW2 6189   0.612   2.433   2.810
 1875SOL     OW 6190   1.252   3.210   2.250
 1875SOL    HW1 6191   1.302   3.287   2.290
 1875SOL    HW2 6192   1.157   3.212   2.282
 1876SOL     OW 6193   1.272   3.307   3.004
 1876SOL    HW1 6194   1.319   3.320   3.091
 1876SOL    HW2 6195   1.206   3.233   3.013
 1877SOL     OW 6196   1.582   2.501   2.334
 1877SOL    HW1 6197   1.551   2.562   2.407
 1877SOL    HW2 6198   1.632   2.553   2.265
 1878SOL     OW 6199   0.354   3.372   3.191
 1878SOL    HW1 6200   0.333   3.328   3.104
 1878SOL    HW2 6201   0.451   3.398   3.194
 1879SOL     OW 6202   0.402   2.613   3.460
 1879SOL    HW1 6203   0.470   2.668   3.413
 1879SOL    HW2 6204   0.442   2.525   3.487
 1880SOL     OW 6205   1.587   2.641   3.532
 1880SOL    HW1 6206   1.495   2.679   3.527
 1880SOL    HW2 6207   1.647   2.688   3.467
 1881SOL     OW 6208   1.013   1.967   3.632
 1881SOL    HW1 6209   1.019   2.052   3.580
 1881SOL    HW2 6210   1.045   1.891   3.575
 1882SOL     OW 6211   0.504   1.912   3.602
 1882SOL    HW1 6212   0.462   1.855   3.532
 1882SOL    HW2 6213   0.438   1.981   3.634
 1883SOL     OW 6214   0.573   2.732   2.891
 1883SOL    HW1 6215   0.617   2.821   2.882
 1883SOL    HW2 6216   0.510   2.732   2.968
 1884SOL     OW 6217   1.360   2.724   2.907
 1884SOL    HW1 6218   1.285   2.724   2.841
 1884SOL    HW2 6219   1.397   2.632   2.916
 1885SOL     OW 6220   1.209   2.387   2.137
 1885SOL    HW1 6221   1.222   2.303   2.191
 1885SOL    HW2 6222   1.180   2.461   2.197
 1886SOL     OW 6223   0.307   2.075   3.093
 1886SOL    HW1 6224   0.284   2.112   3.183
 1886SOL    HW2 6225   0.277   1.980   3.087
 1887SOL     OW 6226   0.037   3.172   3.144
 1887SOL    HW1 6227   0.090   3.123   3.212
 1887SOL    HW2 6228   0.059   3.270   3.149
 1888SOL     OW 6229   0.732   2.496   2.926
 1888SOL    HW1 6230   0.791   2.470   2.850
 1888SOL    HW2 6231   0.704   2.592   2.915
 1889SOL     OW 6232   1.728   2.797   3.716
 1889SOL    HW1 6233   1.682   2.790   3.627
 1889SOL    HW2 6234   1.666   2.841   3.782
 1890SOL     OW 6235   0.307   1.925   2.480
 1890SOL    HW1 6236   0.296   2.019   2.513
 1890SOL    HW2 6237   0.302   1.862   2.557
 1891SOL     OW 6238   1.622   2.229   2.236
 1891SOL    HW1 6239   1.624   2.153   2.300
 1891SOL    HW2 6240   1.574   2.306   2.276
 1892SOL     OW 6241   1.023   2.628   2.828
 1892SOL    HW1 6242   1.038   2.649   2.924
 1892SOL    HW2 6243   0.993   2.533   2.819
 1893SOL     OW 6244   0.980   3.435   3.562
 1893SOL    HW1 6245   0.960   3.479   3.474
 1893SOL    HW2 6246   1.019   3.344   3.546
 1894SOL     OW 6247   1.859   3.380   3.467
 1894SOL    HW1 6248   1.873   3.407   3.372
 1894SOL    HW2 6249   1.942   3.402   3.520
 1895SOL     OW 6250   0.350   2.760   3.666
 1895SOL    HW1 6251   0.426   2.804   3.714
 1895SOL    HW2 6252   0.385   2.713   3.584
 1896SOL     OW 6253   1.540   2.136   1.987
 1896SOL    HW1 6254   1.479   2.061   2.010
 1896SOL    HW2 6255   1.562   2.188   2.070
 1897SOL     OW 6256   1.303   2.700   1.904
 1897SOL    HW1 6257   1.337   2.607   1.919
 1897SOL    HW2 6258   1.321   2.727   1.809
 1898SOL     OW 6259   1.068   3.195   2.711
 1898SOL    HW1 6260   1.075   3.111   2.656
 1898SOL    HW2 6261   1.130   3.264   2.675
 1899SOL     OW 6262   0.319   2.672   2.811
 1899SOL    HW1 6263   0.412   2.708   2.816
 1899SOL    HW2 6264   0.313   2.587   2.863
 1900SOL     OW 6265   0.339   2.371   2.868
 1900SOL    HW1 6266   0.287   2.288   2.851
 1900SOL    HW2 6267   0.416   2.376   2.804
 1901SOL     OW 6268   1.138   2.242   3.540
 1901SOL    HW1 6269   1.093   2.305   3.604
 1901SOL    HW2 6270   1.231   2.273   3.523
 1902SOL     OW 6271   1.160   2.069   3.339
 1902SOL    HW1 6272   1.160   2.133   3.416
 1902SOL    HW2 6273   1.188   2.117   3.256
 1903SOL     OW 6274   0.008   3.188   2.062
 1903SOL    HW1 6275  -0.085   3.209   2.031
 1903SOL    HW2 6276   0.018   3.089   2.075
 1904SOL     OW 6277   0.088   3.663   2.789
 1904SOL    HW1 6278   0.046   3.577   2.762
 1904SOL    HW2 6279   0.182   3.666   2.755
 1905SOL     OW 6280   0.504   3.430   2.772
 1905SOL    HW1 6281   0.570   3.504   2.781
 1905SOL    HW2 6282   0.548   3.351   2.730
 1906SOL     OW 6283   1.002   2.658   3.100
 1906SOL    HW1 6284   1.043   2.626   3.186
 1906SOL    HW2 6285   0.906   2.631   3.097
 1907SOL     OW 6286   0.040   2.406   2.976
 1907SOL    HW1 6287   0.125   2.373   2.935
 1907SOL    HW2 6288   0.053   2.421   3.074
 1908SOL     OW 6289   0.189   2.382   3.584
 1908SOL    HW1 6290   0.248   2.342   3.514
 1908SOL    HW2 6291   0.131   2.453   3.543
 1909SOL     OW 6292   1.369   2.812   3.522
 1909SOL    HW1 6293   1.408   2.901   3.542
 1909SOL    HW2 6294   1.379   2.792   3.425
 1910SOL     OW 6295   0.815   2.434   2.187
 1910SOL    HW1 6296   0.822   2.345   2.141
 1910SOL    HW2 6297   0.721   2.468   2.179
 1911SOL     OW 6298   1.657   2.466   3.068
 1911SOL    HW1 6299   1.619   2.397   3.130
 1911SOL    HW2 6300   1.739   2.430   3.024
 1912SOL     OW 6301   0.252   3.426   3.606
 1912SOL    HW1 6302   0.222   3.483   3.682
 1912SOL    HW2 6303   0.245   3.329   3.632
 1913SOL     OW 6304   0.671   2.326   3.131
 1913SOL    HW1 6305   0.637   2.237   3.101
 1913SOL    HW2 6306   0.697   2.380   3.051
 1914SOL     OW 6307   0.930   3.540   3.327
 1914SOL    HW1 6308   0.906   3.522   3.232
 1914SOL    HW2 6309   0.960   3.634   3.337
 1915SOL     OW 6310   0.473   2.362   2.053
 1915SOL    HW1 6311   0.534   2.442   2.057
 1915SOL    HW2 6312   0.378   2.393   2.060
 1916SOL     OW 6313   0.159   2.999   3.328
 1916SOL    HW1 6314   0.181   2.938   3.404
 1916SOL    HW2 6315   0.169   2.950   3.242
 1917SOL     OW 6316   1.347   2.921   3.096
 1917SOL    HW1 6317   1.371   2.858   3.022
 1917SOL    HW2 6318   1.257   2.961   3.078
 1918SOL     OW 6319   1.302   2.717   2.171
 1918SOL    HW1 6320   1.216   2.686   2.213
 1918SOL    HW2 6321   1.298   2.703   2.072
 1919SOL     OW 6322   1.759   3.609   3.016
 1919SOL    HW1 6323   1.820   3.639   2.943
 1919SOL    HW2 6324   1.721   3.520   2.994
 1920SOL     OW 6325   1.252   3.593   2.990
 1920SOL    HW1 6326   1.336   3.598   2.936
 1920SOL    HW2 6327   1.229   3.497   3.008
 1921SOL     OW 6328   0.083   3.120   2.884
 1921SOL    HW1 6329   0.078   3.119   2.984
 1921SOL    HW2 6330   0.000   3.079   2.846
 1922SOL     OW 6331   0.688   3.524   3.578
 1922SOL    HW1 6332   0.632   3.605   3.587
 1922SOL    HW2 6333   0.740   3.528   3.492
 1923SOL     OW 6334   1.388   3.435   2.339
 1923SOL    HW1 6335   1.455   3.447   2.265
 1923SOL    HW2 6336   1.348   3.524   2.362
 1924SOL     OW 6337   0.130   3.656   3.713
 1924SOL    HW1 6338   0.089   3.582   3.766
 1924SOL    HW2 6339   0.194   3.707   3.771
 1925SOL     OW 6340   1.280   2.789   2.534
 1925SOL    HW1 6341   1.340   2.708   2.536
 1925SOL    HW2 6342   1.320   2.858   2.474
 1926SOL     OW 6343   0.830   3.135   3.284
 1926SOL    HW1 6344   0.825   3.168   3.379
 1926SOL    HW2 6345   0.744   3.154   3.238
 1927SOL     OW 6346   0.672   3.478   2.016
 1927SOL    HW1 6347   0.681   3.488   1.917
 1927SOL    HW2 6348   0.632   3.389   2.037
 1928SOL     OW 6349   1.650   3.582   3.256
 1928SOL    HW1 6350   1.703   3.592   3.172
 1928SOL    HW2 6351   1.623   3.672   3.290
 1929SOL     OW 6352   0.263   2.188   2.582
 1929SOL    HW1 6353   0.184   2.239   2.548
 1929SOL    HW2 6354   0.254   2.173   2.680
 1930SOL     OW 6355   1.194   3.474   1.893
 1930SOL    HW1 6356   1.200   3.381   1.930
 1930SOL    HW2 6357   1.135   3.474   1.813
 1931SOL     OW 6358   0.822   2.864   3.234
 1931SOL    HW1 6359   0.862   2.863   3.142
 1931SOL    HW2 6360   0.832   2.956   3.274
 1932SOL     OW 6361   0.916   2.772   2.153
 1932SOL    HW1 6362   0.979   2.810   2.085
 1932SOL    HW2 6363   0.956   2.689   2.192
 1933SOL     OW 6364   1.504   3.469   1.906
 1933SOL    HW1 6365   1.412   3.506   1.913
 1933SOL    HW2 6366   1.542   3.489   1.816
 1934SOL     OW 6367   0.372   3.150   3.352
 1934SOL    HW1 6368   0.359   3.243   3.318
 1934SOL    HW2 6369   0.288   3.098   3.339
 1935SOL     OW 6370   1.614   3.154   3.151
 1935SOL    HW1 6371   1.674   3.157   3.231
 1935SOL    HW2 6372   1.539   3.218   3.164
 1936SOL     OW 6373   1.039   2.960   2.558
 1936SOL    HW1 6374   0.969   2.913   2.612
 1936SOL    HW2 6375   1.098   2.892   2.515
 1937SOL     OW 6376   1.014   2.098   2.833
 1937SOL    HW1 6377   1.006   2.062   2.740
 1937SOL    HW2 6378   1.012   2.022   2.898
 1938SOL     OW 6379   0.590   3.349   2.353
 1938SOL    HW1 6380   0.632   3.291   2.283
 1938SOL    HW2 6381   0.546   3.428   2.309
 1939SOL     OW 6382   1.709   2.247   3.243
 1939SOL    HW1 6383   1.782   2.316   3.247
 1939SOL    HW2 6384   1.737   2.172   3.184
 1940SOL     OW 6385   0.255   3.210   2.152
 1940SOL    HW1 6386   0.159   3.211   2.125
 1940SOL    HW2 6387   0.267   3.263   2.236
 1941SOL     OW 6388   0.105   2.875   3.588
 1941SOL    HW1 6389   0.028   2.842   3.642
 1941SOL    HW2 6390   0.190   2.845   3.630
 1942SOL     OW 6391   0.672   2.065   3.351
 1942SOL    HW1 6392   0.762   2.049   3.311
 1942SOL    HW2 6393   0.680   2.070   3.450
 1943SOL     OW 6394   0.075   2.207   1.895
 1943SOL    HW1 6395  -0.017   2.179   1.866
 1943SOL    HW2 6396   0.106   2.284   1.839
 1944SOL     OW 6397   1.440   2.718   3.260
 1944SOL    HW1 6398   1.383   2.770   3.197
 1944SOL    HW2 6399   1.536   2.730   3.236
 1945SOL     OW 6400   0.072   2.028   2.180
 1945SOL    HW1 6401   0.055   2.111   2.126
 1945SOL    HW2 6402   0.162   1.991   2.158
 1946SOL     OW 6403   1.183   3.197   1.981
 1946SOL    HW1 6404   1.084   3.186   1.983
 1946SOL    HW2 6405   1.217   3.212   2.074
 1947SOL     OW 6406   0.613   2.704   3.293
 1947SOL    HW1 6407   0.669   2.785   3.276
 1947SOL    HW2 6408   0.672   2.624   3.296
 1948SOL     OW 6409   1.493   3.629   2.821
 1948SOL    HW1 6410   1.526   3.693   2.752
 1948SOL    HW2 6411   1.559   3.623   2.896
 1949SOL     OW 6412   0.716   2.427   3.570
 1949SOL    HW1 6413   0.735   2.492   3.644
 1949SOL    HW2 6414   0.776   2.347   3.579
 1950SOL     OW 6415   1.450   3.082   3.495
 1950SOL    HW1 6416   1.441   3.072   3.594
 1950SOL    HW2 6417   1.546   3.075   3.469
 1951SOL     OW 6418   0.390   3.603   3.422
 1951SOL    HW1 6419   0.299   3.644   3.420
 1951SOL    HW2 6420   0.383   3.509   3.454
 1952SOL     OW 6421   1.674   2.745   3.116
 1952SOL    HW1 6422   1.647   2.656   3.079
 1952SOL    HW2 6423   1.675   2.813   3.043
 1953SOL     OW 6424   1.225   2.187   2.311
 1953SOL    HW1 6425   1.290   2.113   2.300
 1953SOL    HW2 6426   1.245   2.237   2.395
 1954SOL     OW 6427   0.594   2.607   2.514
 1954SOL    HW1 6428   0.644   2.692   2.495
 1954SOL    HW2 6429   0.506   2.609   2.466
 1955SOL     OW 6430   1.777   2.204   3.504
 1955SOL    HW1 6431   1.760   2.235   3.410
 1955SOL    HW2 6432   1.693   2.167   3.542
 1956SOL     OW 6433   1.730   2.796   3.379
 1956SOL    HW1 6434   1.768   2.887   3.394
 1956SOL    HW2 6435   1.722   2.779   3.280
 1957SOL     OW 6436   0.859   3.236   1.878
 1957SOL    HW1 6437   0.813   3.251   1.966
 1957SOL    HW2 6438   0.903   3.321   1.848
 1958SOL     OW 6439   0.661   3.652   2.815
 1958SOL    HW1 6440   0.615   3.740   2.802
 1958SOL    HW2 6441   0.760   3.664   2.808
 1959SOL     OW 6442   0.859   2.818   2.723
 1959SOL    HW1 6443   0.913   2.749   2.771
 1959SOL    HW2 6444   0.827   2.887   2.789
 1960SOL     OW 6445   1.083   2.846   1.949
 1960SOL    HW1 6446   1.060   2.899   1.867
 1960SOL    HW2 6447   1.164   2.790   1.930
 1961SOL     OW 6448   1.861   3.431   2.713
 1961SOL    HW1 6449   1.790   3.419   2.643
 1961SOL    HW2 6450   1.862   3.352   2.773
 1962SOL     OW 6451   0.221   3.176   3.706
 1962SOL    HW1 6452   0.156   3.103   3.685
 1962SOL    HW2 6453   0.225   3.190   3.804
 1963SOL     OW 6454   0.079   3.102   2.515
 1963SOL    HW1 6455   0.078   3.055   2.603
 1963SOL    HW2 6456   0.161   3.074   2.464
 1964SOL     OW 6457   0.672   3.253   3.486
 1964SOL    HW1 6458   0.594   3.203   3.524
 1964SOL    HW2 6459   0.669   3.348   3.517
 1965SOL     OW 6460   0.428   2.286   2.382
 1965SOL    HW1 6461   0.458   2.214   2.320
 1965SOL    HW2 6462   0.389   2.246   2.465
 1966SOL     OW 6463   1.705   3.349   2.966
 1966SOL    HW1 6464   1.612   3.324   2.939
 1966SOL    HW2 6465   1.731   3.299   3.048
 1967SOL     OW 6466   0.317   2.409   3.142
 1967SOL    HW1 6467   0.355   2.350   3.214
 1967SOL    HW2 6468   0.357   2.383   3.054
 1968SOL     OW 6469   0.812   3.448   2.549
 1968SOL    HW1 6470   0.844   3.458   2.455
 1968SOL    HW2 6471   0.733   3.386   2.551
 1969SOL     OW 6472   1.424   2.076   2.974
 1969SOL    HW1 6473   1.476   2.011   3.029
 1969SOL    HW2 6474   1.375   2.139   3.035
 1970SOL     OW 6475   1.001   1.896   3.016
 1970SOL    HW1 6476   0.938   1.824   2.985
 1970SOL    HW2 6477   1.094   1.860   3.016
 1971SOL     OW 6478   0.770   3.192   2.163
 1971SOL    HW1 6479   0.724   3.105   2.180
 1971SOL    HW2 6480   0.861   3.189   2.204
 1972SOL     OW 6481   0.618   3.429   3.146
 1972SOL    HW1 6482   0.613   3.511   3.203
 1972SOL    HW2 6483   0.707   3.426   3.101
 1973SOL     OW 6484   1.352   1.914   2.030
 1973SOL    HW1 6485   1.387   1.873   1.946
 1973SOL    HW2 6486   1.262   1.876   2.050
 1974SOL     OW 6487   1.300   2.315   2.553
 1974SOL    HW1 6488   1.241   2.395   2.557
 1974SOL    HW2 6489   1.315   2.280   2.646
 1975SOL     OW 6490   1.593   2.083   2.744
 1975SOL    HW1 6491   1.509   2.082   2.798
 1975SOL    HW2 6492   1.595   2.166   2.688
 1976SOL     OW 6493   0.039   2.939   2.162
 1976SOL    HW1 6494   0.138   2.928   2.153
 1976SOL    HW2 6495  -0.001   2.853   2.194
 1977SOL     OW 6496   0.875   3.508   2.199
 1977SOL    HW1 6497   0.798   3.473   2.145
 1977SOL    HW2 6498   0.843   3.579   2.261
 1978SOL     OW 6499   0.230   2.490   3.837
 1978SOL    HW1 6500   0.137   2.488   3.874
 1978SOL    HW2 6501   0.231   2.451   3.745
 1979SOL     OW 6502   0.225   2.137   4.720
 1979SOL    HW1 6503   0.260   2.120   4.812
 1979SOL    HW2 6504   0.137   2.092   4.708
 1980SOL     OW 6505   0.019   2.230   4.371
 1980SOL    HW1 6506  -0.063   2.273   4.410
 1980SOL    HW2 6507  -0.009   2.157   4.308
 1981SOL     OW 6508   0.569   3.137   4.889
 1981SOL    HW1 6509   0.476   3.130   4.852
 1981SOL    HW2 6510   0.580   3.226   4.933
 1982SOL     OW 6511   1.555   3.373   4.427
 1982SOL    HW1 6512   1.498   3.357   4.508
 1982SOL    HW2 6513   1.496   3.383   4.347
 1983SOL     OW 6514   1.135   2.565   4.441
 1983SOL    HW1 6515   1.192   2.643   4.416
 1983SOL    HW2 6516   1.075   2.591   4.517
 1984SOL     OW 6517   1.755   2.469   3.955
 1984SOL    HW1 6518   1.743   2.456   3.856
 1984SOL    HW2 6519   1.725   2.388   4.004
 1985SOL     OW 6520   0.768   3.006   4.747
 1985SOL    HW1 6521   0.690   3.023   4.807
 1985SOL    HW2 6522   0.802   3.093   4.711
 1986SOL     OW 6523   0.850   2.660   5.547
 1986SOL    HW1 6524   0.846   2.736   5.612
 1986SOL    HW2 6525   0.872   2.696   5.456
 1987SOL     OW 6526   0.685   2.874   4.389
 1987SOL    HW1 6527   0.754   2.858   4.459
 1987SOL    HW2 6528   0.612   2.931   4.427
 1988SOL     OW 6529   0.686   3.023   5.527
 1988SOL    HW1 6530   0.746   3.102   5.541
 1988SOL    HW2 6531   0.600   3.054   5.486
 1989SOL     OW 6532   0.335   3.297   4.785
 1989SOL    HW1 6533   0.257   3.266   4.732
 1989SOL    HW2 6534   0.393   3.355   4.728
 1990SOL     OW 6535   1.460   3.367   5.063
 1990SOL    HW1 6536   1.484   3.461   5.089
 1990SOL    HW2 6537   1.444   3.313   5.145
 1991SOL     OW 6538   0.438   2.254   5.223
 1991SOL    HW1 6539   0.520   2.198   5.232
 1991SOL    HW2 6540   0.357   2.196   5.227
 1992SOL     OW 6541   1.603   2.309   4.461
 1992SOL    HW1 6542   1.529   2.355   4.411
 1992SOL    HW2 6543   1.654   2.377   4.514
 1993SOL     OW 6544   0.231   3.575   4.207
 1993SOL    HW1 6545   0.265   3.652   4.261
 1993SOL    HW2 6546   0.275   3.575   4.117
 1994SOL     OW 6547   1.127   3.203   5.414
 1994SOL    HW1 6548   1.174   3.203   5.502
 1994SOL    HW2 6549   1.079   3.116   5.403
 1995SOL     OW 6550   0.230   3.296   4.262
 1995SOL    HW1 6551   0.204   3.392   4.262
 1995SOL    HW2 6552   0.159   3.242   4.307
 1996SOL     OW 6553   0.240   2.953   4.610
 1996SOL    HW1 6554   0.254   2.869   4.662
 1996SOL    HW2 6555   0.185   3.017   4.665
 1997SOL     OW 6556   0.620   3.648   5.163
 1997SOL    HW1 6557   0.528   3.631   5.198
 1997SOL    HW2 6558   0.648   3.740   5.189
 1998SOL     OW 6559   0.606   2.826   3.847
 1998SOL    HW1 6560   0.613   2.910   3.793
 1998SOL    HW2 6561   0.652   2.839   3.935
 1999SOL     OW 6562   1.594   1.976   5.204
 1999SOL    HW1 6563   1.576   2.043   5.132
 1999SOL    HW2 6564   1.591   2.022   5.293
 2000SOL     OW 6565   0.122   2.505   4.287
 2000SOL    HW1 6566   0.077   2.417   4.304
 2000SOL    HW2 6567   0.121   2.559   4.371
 2001SOL     OW 6568   1.842   3.629   4.083
 2001SOL    HW1 6569   1.896   3.600   4.163
 2001SOL    HW2 6570   1.872   3.719   4.054
 2002SOL     OW 6571   0.027   3.458   3.841
 2002SOL    HW1 6572   0.008   3.362   3.862
 2002SOL    HW2 6573  -0.006   3.516   3.916
 2003SOL     OW 6574   1.689   2.784   4.336
 2003SOL    HW1 6575   1.784   2.755   4.344
 2003SOL    HW2 6576   1.681   2.849   4.261
 2004SOL     OW 6577   1.641   2.970   4.156
 2004SOL    HW1 6578   1.727   2.972   4.104
 2004SOL    HW2 6579   1.655   3.017   4.244
 2005SOL     OW 6580   0.113   2.599   5.321
 2005SOL    HW1 6581   0.201   2.586   5.366
 2005SOL    HW2 6582   0.100   2.696   5.299
 2006SOL     OW 6583   0.613   3.227   4.450
 2006SOL    HW1 6584   0.564   3.140   4.459
 2006SOL    HW2 6585   0.590   3.270   4.363
 2007SOL     OW 6586   1.293   3.090   5.147
 2007SOL    HW1 6587   1.330   3.017   5.089
 2007SOL    HW2 6588   1.345   3.095   5.232
 2008SOL     OW 6589   0.809   1.866   4.226
 2008SOL    HW1 6590   0.849   1.957   4.217
 2008SOL    HW2 6591   0.709   1.874   4.232
 2009SOL     OW 6592   0.197   2.838   4.988
 2009SOL    HW1 6593   0.286   2.793   4.974
 2009SOL    HW2 6594   0.124   2.773   4.969
 2010SOL     OW 6595   1.525   2.861   3.914
 2010SOL    HW1 6596   1.462   2.785   3.927
 2010SOL    HW2 6597   1.573   2.879   4.000
 2011SOL     OW 6598   1.187   3.654   5.340
 2011SOL    HW1 6599   1.211   3.714   5.264
 2011SOL    HW2 6600   1.194   3.559   5.310
 2012SOL     OW 6601   0.317   2.113   5.525
 2012SOL    HW1 6602   0.388   2.184   5.531
 2012SOL    HW2 6603   0.229   2.152   5.553
 2013SOL     OW 6604   1.466   3.279   4.677
 2013SOL    HW1 6605   1.407   3.285   4.757
 2013SOL    HW2 6606   1.451   3.191   4.631
 2014SOL     OW 6607   1.667   3.576   4.296
 2014SOL    HW1 6608   1.626   3.553   4.208
 2014SOL    HW2 6609   1.649   3.502   4.361
 2015SOL     OW 6610   0.598   2.591   3.994
 2015SOL    HW1 6611   0.622   2.660   3.926
 2015SOL    HW2 6612   0.520   2.624   4.048
 2016SOL     OW 6613   1.281   2.207   4.668
 2016SOL    HW1 6614   1.195   2.157   4.655
 2016SOL    HW2 6615   1.343   2.153   4.724
 2017SOL     OW 6616   1.576   3.524   4.031
 2017SOL    HW1 6617   1.665   3.570   4.034
 2017SOL    HW2 6618   1.555   3.500   3.936
 2018SOL     OW 6619   0.807   2.467   5.189
 2018SOL    HW1 6620   0.760   2.464   5.278
 2018SOL    HW2 6621   0.756   2.412   5.123
 2019SOL     OW 6622   1.394   2.331   5.398
 2019SOL    HW1 6623   1.374   2.374   5.486
 2019SOL    HW2 6624   1.472   2.269   5.407
 2020SOL     OW 6625   0.973   2.752   5.296
 2020SOL    HW1 6626   1.019   2.668   5.267
 2020SOL    HW2 6627   0.917   2.786   5.221
 2021SOL     OW 6628   0.991   2.272   4.966
 2021SOL    HW1 6629   0.914   2.306   5.020
 2021SOL    HW2 6630   0.957   2.221   4.887
 2022SOL     OW 6631   1.041   2.563   4.153
 2022SOL    HW1 6632   1.067   2.559   4.249
 2022SOL    HW2 6633   0.956   2.512   4.139
 2023SOL     OW 6634   0.076   2.673   4.513
 2023SOL    HW1 6635   0.175   2.661   4.522
 2023SOL    HW2 6636   0.052   2.768   4.534
 2024SOL     OW 6637   0.130   3.683   5.295
 2024SOL    HW1 6638   0.120   3.668   5.394
 2024SOL    HW2 6639   0.044   3.719   5.259
 2025SOL     OW 6640   0.865   2.210   3.919
 2025SOL    HW1 6641   0.924   2.273   3.870
 2025SOL    HW2 6642   0.884   2.116   3.890
 2026SOL     OW 6643   1.719   2.447   5.555
 2026SOL    HW1 6644   1.693   2.536   5.519
 2026SOL    HW2 6645   1.717   2.379   5.482
 2027SOL     OW 6646   1.362   3.006   4.269
 2027SOL    HW1 6647   1.445   2.977   4.221
 2027SOL    HW2 6648   1.313   3.073   4.213
 2028SOL     OW 6649   0.550   2.058   4.609
 2028SOL    HW1 6650   0.545   2.053   4.709
 2028SOL    HW2 6651   0.552   2.154   4.580
 2029SOL     OW 6652   1.008   3.318   4.201
 2029SOL    HW1 6653   0.962   3.390   4.149
 2029SOL    HW2 6654   1.004   3.338   4.299
 2030SOL     OW 6655   0.351   3.663   4.577
 2030SOL    HW1 6656   0.401   3.577   4.583
 2030SOL    HW2 6657   0.416   3.740   4.574
 2031SOL     OW 6658   1.795   2.928   4.597
 2031SOL    HW1 6659   1.733   2.913   4.521
 2031SOL    HW2 6660   1.743   2.939   4.682
 2032SOL     OW 6661   1.227   3.412   5.230
 2032SOL    HW1 6662   1.233   3.335   5.294
 2032SOL    HW2 6663   1.175   3.386   5.150
 2033SOL     OW 6664   0.321   2.805   3.966
 2033SOL    HW1 6665   0.403   2.844   3.924
 2033SOL    HW2 6666   0.294   2.723   3.917
 2034SOL     OW 6667   1.458   2.597   4.452
 2034SOL    HW1 6668   1.453   2.532   4.527
 2034SOL    HW2 6669   1.538   2.656   4.465
 2035SOL     OW 6670   0.461   3.128   5.451
 2035SOL    HW1 6671   0.411   3.129   5.365
 2035SOL    HW2 6672   0.398   3.110   5.527
 2036SOL     OW 6673   1.111   3.638   3.961
 2036SOL    HW1 6674   1.051   3.576   4.011
 2036SOL    HW2 6675   1.142   3.594   3.876
 2037SOL     OW 6676   0.202   2.147   5.222
 2037SOL    HW1 6677   0.122   2.207   5.209
 2037SOL    HW2 6678   0.192   2.098   5.308
 2038SOL     OW 6679   1.632   3.239   3.805
 2038SOL    HW1 6680   1.600   3.333   3.795
 2038SOL    HW2 6681   1.556   3.176   3.793
 2039SOL     OW 6682   0.464   3.605   4.047
 2039SOL    HW1 6683   0.497   3.644   4.133
 2039SOL    HW2 6684   0.540   3.598   3.982
 2040SOL     OW 6685   1.400   1.969   4.150
 2040SOL    HW1 6686   1.376   1.932   4.060
 2040SOL    HW2 6687   1.499   1.985   4.154
 2041SOL     OW 6688   0.249   3.647   4.965
 2041SOL    HW1 6689   0.306   3.582   5.015
 2041SOL    HW2 6690   0.233   3.614   4.872
 2042SOL     OW 6691   0.940   3.560   4.628
 2042SOL    HW1 6692   1.020   3.503   4.649
 2042SOL    HW2 6693   0.891   3.520   4.551
 2043SOL     OW 6694   0.382   2.562   4.204
 2043SOL    HW1 6695   0.427   2.472   4.201
 2043SOL    HW2 6696   0.288   2.551   4.237
 2044SOL     OW 6697   1.547   2.084   5.453
 2044SOL    HW1 6698   1.542   2.121   5.545
 2044SOL    HW2 6699   1.475   2.015   5.441
 2045SOL     OW 6700   0.614   1.984   3.841
 2045SOL    HW1 6701   0.712   1.962   3.848
 2045SOL    HW2 6702   0.583   1.967   3.748
 2046SOL     OW 6703   0.781   2.126   5.473
 2046SOL    HW1 6704   0.848   2.065   5.516
 2046SOL    HW2 6705   0.708   2.145   5.538
 2047SOL     OW 6706   0.888   3.376   4.919
 2047SOL    HW1 6707   0.865   3.351   4.825
 2047SOL    HW2 6708   0.949   3.307   4.958
 2048SOL     OW 6709   1.351   2.452   5.157
 2048SOL    HW1 6710   1.379   2.409   5.242
 2048SOL    HW2 6711   1.376   2.548   5.158
 2049SOL     OW 6712   0.803   3.264   4.648
 2049SOL    HW1 6713   0.893   3.278   4.606
 2049SOL    HW2 6714   0.732   3.266   4.577
 2050SOL     OW 6715   0.922   2.365   4.623
 2050SOL    HW1 6716   0.897   2.356   4.527
 2050SOL    HW2 6717   0.970   2.283   4.654
 2051SOL     OW 6718   0.539   1.926   4.236
 2051SOL    HW1 6719   0.458   1.927   4.294
 2051SOL    HW2 6720   0.542   2.009   4.181
 2052SOL     OW 6721   1.434   3.050   3.765
 2052SOL    HW1 6722   1.466   2.974   3.822
 2052SOL    HW2 6723   1.342   3.077   3.795
 2053SOL     OW 6724   0.297   1.897   3.895
 2053SOL    HW1 6725   0.346   1.981   3.874
 2053SOL    HW2 6726   0.359   1.832   3.940
 2054SOL     OW 6727   0.935   2.098   4.204
 2054SOL    HW1 6728   0.887   2.139   4.126
 2054SOL    HW2 6729   1.034   2.096   4.185
 2055SOL     OW 6730   1.076   2.545   5.188
 2055SOL    HW1 6731   0.996   2.484   5.191
 2055SOL    HW2 6732   1.157   2.492   5.164
 2056SOL     OW 6733   1.227   3.432   4.517
 2056SOL    HW1 6734   1.248   3.506   4.452
 2056SOL    HW2 6735   1.295   3.432   4.590
 2057SOL     OW 6736   0.459   3.014   4.465
 2057SOL    HW1 6737   0.388   2.987   4.530
 2057SOL    HW2 6738   0.433   2.986   4.372
 2058SOL     OW 6739   1.271   3.659   4.315
 2058SOL    HW1 6740   1.315   3.723   4.251
 2058SOL    HW2 6741   1.221   3.711   4.385
 2059SOL     OW 6742   1.032   2.411   3.740
 2059SOL    HW1 6743   0.991   2.493   3.701
 2059SOL    HW2 6744   1.096   2.437   3.813
 2060SOL     OW 6745   0.078   2.418   5.110
 2060SOL    HW1 6746   0.170   2.417   5.069
 2060SOL    HW2 6747   0.072   2.492   5.177
 2061SOL     OW 6748   0.561   2.084   4.871
 2061SOL    HW1 6749   0.599   2.000   4.908
 2061SOL    HW2 6750   0.473   2.103   4.915
 2062SOL     OW 6751   0.866   2.316   4.366
 2062SOL    HW1 6752   0.834   2.388   4.304
 2062SOL    HW2 6753   0.890   2.235   4.313
 2063SOL     OW 6754   1.017   1.901   4.477
 2063SOL    HW1 6755   0.945   1.906   4.408
 2063SOL    HW2 6756   0.993   1.832   4.546
 2064SOL     OW 6757   1.429   3.035   4.591
 2064SOL    HW1 6758   1.374   2.951   4.584
 2064SOL    HW2 6759   1.455   3.064   4.499
 2065SOL     OW 6760   1.466   2.452   4.716
 2065SOL    HW1 6761   1.436   2.357   4.723
 2065SOL    HW2 6762   1.539   2.468   4.782
 2066SOL     OW 6763   1.857   2.695   4.101
 2066SOL    HW1 6764   1.899   2.631   4.165
 2066SOL    HW2 6765   1.819   2.644   4.023
 2067SOL     OW 6766   0.488   3.247   3.898
 2067SOL    HW1 6767   0.401   3.232   3.945
 2067SOL    HW2 6768   0.471   3.273   3.803
 2068SOL     OW 6769   1.664   3.142   4.381
 2068SOL    HW1 6770   1.763   3.150   4.395
 2068SOL    HW2 6771   1.619   3.226   4.412
 2069SOL     OW 6772   1.390   2.437   3.802
 2069SOL    HW1 6773   1.336   2.416   3.883
 2069SOL    HW2 6774   1.481   2.396   3.811
 2070SOL     OW 6775   0.527   2.118   4.052
 2070SOL    HW1 6776   0.554   2.059   3.977
 2070SOL    HW2 6777   0.527   2.213   4.021
 2071SOL     OW 6778   1.754   3.085   5.312
 2071SOL    HW1 6779   1.845   3.046   5.299
 2071SOL    HW2 6780   1.762   3.181   5.336
 2072SOL     OW 6781   1.064   3.209   5.064
 2072SOL    HW1 6782   0.984   3.186   5.119
 2072SOL    HW2 6783   1.147   3.183   5.113
 2073SOL     OW 6784   1.592   3.491   5.349
 2073SOL    HW1 6785   1.619   3.525   5.259
 2073SOL    HW2 6786   1.671   3.453   5.395
 2074SOL     OW 6787   1.111   3.057   4.824
 2074SOL    HW1 6788   1.071   3.101   4.905
 2074SOL    HW2 6789   1.070   3.094   4.741
 2075SOL     OW 6790   1.638   2.961   4.803
 2075SOL    HW1 6791   1.643   3.042   4.862
 2075SOL    HW2 6792   1.552   2.963   4.752
 2076SOL     OW 6793   0.915   1.951   5.126
 2076SOL    HW1 6794   0.940   1.931   5.031
 2076SOL    HW2 6795   0.987   2.007   5.168
 2077SOL     OW 6796   0.980   2.978   5.443
 2077SOL    HW1 6797   0.881   2.984   5.453
 2077SOL    HW2 6798   1.003   2.898   5.387
 2078SOL     OW 6799   0.705   2.912   4.092
 2078SOL    HW1 6800   0.691   2.919   4.191
 2078SOL    HW2 6801   0.789   2.861   4.074
 2079SOL     OW 6802   0.410   2.675   4.975
 2079SOL    HW1 6803   0.496   2.687   5.025
 2079SOL    HW2 6804   0.368   2.588   5.002
 2080SOL     OW 6805   1.274   2.248   4.986
 2080SOL    HW1 6806   1.295   2.322   5.050
 2080SOL    HW2 6807   1.185   2.265   4.943
 2081SOL     OW 6808   0.064   3.426   5.055
 2081SOL    HW1 6809   0.018   3.508   5.021
 2081SOL    HW2 6810   0.162   3.445   5.064
 2082SOL     OW 6811   0.367   2.962   4.225
 2082SOL    HW1 6812   0.360   3.045   4.169
 2082SOL    HW2 6813   0.371   2.882   4.165
 2083SOL     OW 6814   0.566   2.399   4.589
 2083SOL    HW1 6815   0.578   2.465   4.515
 2083SOL    HW2 6816   0.612   2.433   4.672
 2084SOL     OW 6817   1.252   3.210   4.112
 2084SOL    HW1 6818   1.302   3.287   4.152
 2084SOL    HW2 6819   1.157   3.212   4.144
 2085SOL     OW 6820   1.272   3.307   4.866
 2085SOL    HW1 6821   1.319   3.320   4.953
 2085SOL    HW2 6822   1.206   3.233   4.875
 2086SOL     OW 6823   1.582   2.501   4.196
 2086SOL    HW1 6824   1.551   2.562   4.269
 2086SOL    HW2 6825   1.632   2.553   4.127
 2087SOL     OW 6826   0.354   3.372   5.053
 2087SOL    HW1 6827   0.333   3.328   4.966
 2087SOL    HW2 6828   0.451   3.398   5.056
 2088SOL     OW 6829   0.402   2.613   5.322
 2088SOL    HW1 6830   0.470   2.668   5.275
 2088SOL    HW2 6831   0.442   2.525   5.349
 2089SOL     OW 6832   1.587   2.641   5.394
 2089SOL    HW1 6833   1.495   2.679   5.389
 2089SOL    HW2 6834   1.647   2.688   5.329
 2090SOL     OW 6835   1.013   1.967   5.494
 2090SOL    HW1 6836   1.019   2.052   5.442
 2090SOL    HW2 6837   1.045   1.891   5.437
 2091SOL     OW 6838   0.504   1.912   5.464
 2091SOL    HW1 6839   0.462   1.855   5.394
 2091SOL    HW2 6840   0.438   1.981   5.496
 2092SOL     OW 6841   0.573   2.732   4.753
 2092SOL    HW1 6842   0.617   2.821   4.744
 2092SOL    HW2 6843   0.510   2.732   4.830
 2093SOL     OW 6844   1.360   2.724   4.769
 2093SOL    HW1 6845   1.285   2.724   4.703
 2093SOL    HW2 6846   1.397   2.632   4.778
 2094SOL     OW 6847   1.209   2.387   3.999
 2094SOL    HW1 6848   1.222   2.303   4.053
 2094SOL    HW2 6849   1.180   2.461   4.059
 2095SOL     OW 6850   0.307   2.075   4.955
 2095SOL    HW1 6851   0.284   2.112   5.045
 2095SOL    HW2 6852   0.277   1.980   4.949
 2096SOL     OW 6853   0.037   3.172   5.006
 2096SOL    HW1 6854   0.090   3.123   5.074
 2096SOL    HW2 6855   0.059   3.270   5.011
 2097SOL     OW 6856   0.732   2.496   4.788
 2097SOL    HW1 6857   0.791   2.470   4.712
 2097SOL    HW2 6858   0.704   2.592   4.777
 2098SOL     OW 6859   1.728   2.797   5.578
 2098SOL    HW1 6860   1.682   2.790   5.489
 2098SOL    HW2 6861   1.666   2.841   5.644
 2099SOL     OW 6862   0.307   1.925   4.342
 2099SOL    HW1 6863   0.296   2.019   4.375
 2099SOL    HW2 6864   0.302   1.862   4.419
 2100SOL     OW 6865   1.622   2.229   4.098
 2100SOL    HW1 6866   1.624   2.153   4.162
 2100SOL    HW2 6867   1.574   2.306   4.138
 2101SOL     OW 6868   1.023   2.628   4.690
 2101SOL    HW1 6869   1.038   2.649   4.786
 2101SOL    HW2 6870   0.993   2.533   4.681
 2102SOL     OW 6871   0.980   3.435   5.424
 2102SOL    HW1 6872   0.960   3.479   5.336
 2102SOL    HW2 6873   1.019   3.344   5.408
 2103SOL     OW 6874   1.859   3.380   5.329
 2103SOL    HW1 6875   1.873   3.407   5.234
 2103SOL    HW2 6876   1.942   3.402   5.382
 2104SOL     OW 6877   0.350   2.760   5.528
 2104SOL    HW1 6878   0.426   2.804   5.576
 2104SOL    HW2 6879   0.385   2.713   5.446
 2105SOL     OW 6880   1.540   2.136   3.849
 2105SOL    HW1 6881   1.479   2.061   3.872
 2105SOL    HW2 6882   1.562   2.188   3.932
 2106SOL     OW 6883   1.303   2.700   3.766
 2106SOL    HW1 6884   1.337   2.607   3.781
 2106SOL    HW2 6885   1.321   2.727   3.671
 2107SOL     OW 6886   1.068   3.195   4.573
 2107SOL    HW1 6887   1.075   3.111   4.518
 2107SOL    HW2 6888   1.130   3.264   4.537
 2108SOL     OW 6889   0.319   2.672   4.673
 2108SOL    HW1 6890   0.412   2.708   4.678
 2108SOL    HW2 6891   0.313   2.587   4.725
 2109SOL     OW 6892   0.339   2.371   4.730
 2109SOL    HW1 6893   0.287   2.288   4.713
 2109SOL    HW2 6894   0.416   2.376   4.666
 2110SOL     OW 6895   1.138   2.242   5.402
 2110SOL    HW1 6896   1.093   2.305   5.466
 2110SOL    HW2 6897   1.231   2.273   5.385
 2111SOL     OW 6898   1.160   2.069   5.201
 2111SOL    HW1 6899   1.160   2.133   5.278
 2111SOL    HW2 6900   1.188   2.117   5.118
 2112SOL     OW 6901   0.008   3.188   3.924
 2112SOL    HW1 6902  -0.085   3.209   3.893
 2112SOL    HW2 6903   0.018   3.089   3.937
 2113SOL     OW 6904   0.088   3.663   4.651
 2113SOL    HW1 6905   0.046   3.577   4.624
 2113SOL    HW2 6906   0.182   3.666   4.617
 2114SOL     OW 6907   0.504   3.430   4.634
 2114SOL    HW1 6908   0.570   3.504   4.643
 2114SOL    HW2 6909   0.548   3.351   4.592
 2115SOL     OW 6910   1.002   2.658   4.962
 2115SOL    HW1 6911   1.043   2.626   5.048
 2115SOL    HW2 6912   0.906   2.631   4.959
 2116SOL     OW 6913   0.040   2.406   4.838
 2116SOL    HW1 6914   0.125   2.373   4.797
 2116SOL    HW2 6915   0.053   2.421   4.936
 2117SOL     OW 6916   0.189   2.382   5.446
 2117SOL    HW1 6917   0.248   2.342   5.376
 2117SOL    HW2 6918   0.131   2.453   5.405
 2118SOL     OW 6919   1.369   2.812   5.384
 2118SOL    HW1 6920   1.408   2.901   5.404
 2118SOL    HW2 6921   1.379   2.792   5.287
 2119SOL     OW 6922   0.815   2.434   4.049
 2119SOL    HW1 6923   0.822   2.345   4.003
 2119SOL    HW2 6924   0.721   2.468   4.041
 2120SOL     OW 6925   1.657   2.466   4.930
 2120SOL    HW1 6926   1.619   2.397   4.992
 2120SOL    HW2 6927   1.739   2.430   4.886
 2121SOL     OW 6928   0.252   3.426   5.468
 2121SOL    HW1 6929   0.222   3.483   5.544
 2121SOL    HW2 6930   0.245   3.329   5.494
 2122SOL     OW 6931   0.671   2.326   4.993
 2122SOL    HW1 6932   0.637   2.237   4.963
 2122SOL    HW2 6933   0.697   2.380   4.913
 2123SOL     OW 6934   0.930   3.540   5.189
 2123SOL    HW1 6935   0.906   3.522   5.094
 2123SOL    HW2 6936   0.960   3.634   5.199
 2124SOL     OW 6937   0.473   2.362   3.915
 2124SOL    HW1 6938   0.534   2.442   3.919
 2124SOL    HW2 6939   0.378   2.393   3.922
 2125SOL     OW 6940   0.159   2.999   5.190
 2125SOL    HW1 6941   0.181   2.938   5.266
 2125SOL    HW2 6942   0.169   2.950   5.104
 2126SOL     OW 6943   1.347   2.921   4.958
 2126SOL    HW1 6944   1.371   2.858   4.884
 2126SOL    HW2 6945   1.257   2.961   4.940
 2127SOL     OW 6946   1.302   2.717   4.033
 2127SOL    HW1 6947   1.216   2.686   4.075
 2127SOL    HW2 6948   1.298   2.703   3.934
 2128SOL     OW 6949   1.759   3.609   4.878
 2128SOL    HW1 6950   1.820   3.639   4.805
 2128SOL    HW2 6951   1.721   3.520   4.856
 2129SOL     OW 6952   1.252   3.593   4.852
 2129SOL    HW1 6953   1.336   3.598   4.798
 2129SOL    HW2 6954   1.229   3.497   4.870
 2130SOL     OW 6955   0.083   3.120   4.746
 2130SOL    HW1 6956   0.078   3.119   4.846
 2130SOL    HW2 6957   0.000   3.079   4.708
 2131SOL     OW 6958   0.688   3.524   5.440
 2131SOL    HW1 6959   0.632   3.605   5.449
 2131SOL    HW2 6960   0.740   3.528   5.354
 2132SOL     OW 6961   1.388   3.435   4.201
 2132SOL    HW1 6962   1.455   3.447   4.127
 2132SOL    HW2 6963   1.348   3.524   4.224
 2133SOL     OW 6964   0.130   3.656   5.575
 2133SOL    HW1 6965   0.089   3.582   5.628
 2133SOL    HW2 6966   0.194   3.707   5.633
 2134SOL     OW 6967   1.280   2.789   4.396
 2134SOL    HW1 6968   1.340   2.708   4.398
 2134SOL    HW2 6969   1.320   2.858   4.336
 2135SOL     OW 6970   0.830   3.135   5.146
 2135SOL    HW1 6971   0.825   3.168   5.241
 2135SOL    HW2 6972   0.744   3.154   5.100
 2136SOL     OW 6973   0.672   3.478   3.878
 2136SOL    HW1 6974   0.681   3.488   3.779
 2136SOL    HW2 6975   0.632   3.389   3.899
 2137SOL     OW 6976   1.650   3.582   5.118
 2137SOL    HW1 6977   1.703   3.592   5.034
 2137SOL    HW2 6978   1.623   3.672   5.152
 2138SOL     OW 6979   0.263   2.188   4.444
 2138SOL    HW1 6980   0.184   2.239   4.410
 2138SOL    HW2 6981   0.254   2.173   4.542
 2139SOL     OW 6982   1.194   3.474   3.755
 2139SOL    HW1 6983   1.200   3.381   3.792
 2139SOL    HW2 6984   1.135   3.474   3.675
 2140SOL     OW 6985   0.822   2.864   5.096
 2140SOL    HW1 6986   0.862   2.863   5.004
 2140SOL    HW2 6987   0.832   2.956   5.136
 2141SOL     OW 6988   0.916   2.772   4.015
 2141SOL    HW1 6989   0.979   2.810   3.947
 2141SOL    HW2 6990   0.956   2.689   4.054
 2142SOL     OW 6991   1.504   3.469   3.768
 2142SOL    HW1 6992   1.412   3.506   3.775
 2142SOL    HW2 6993   1.542   3.489   3.678
 2143SOL     OW 6994   0.372   3.150   5.214
 2143SOL    HW1 6995   0.359   3.243   5.180
 2143SOL    HW2 6996   0.288   3.098   5.201
 2144SOL     OW 6997   1.614   3.154   5.013
 2144SOL    HW1 6998   1.674   3.157   5.093
 2144SOL    HW2 6999   1.539   3.218   5.026
 2145SOL     OW 7000   1.039   2.960   4.420
 2145SOL    HW1 7001   0.969   2.913   4.474
 2145SOL    HW2 7002   1.098   2.892   4.377
 2146SOL     OW 7003   1.014   2.098   4.695
 2146SOL    HW1 7004   1.006   2.062   4.602
 2146SOL    HW2 7005   1.012   2.022   4.760
 2147SOL     OW 7006   0.590   3.349   4.215
 2147SOL    HW1 7007   0.632   3.291   4.145
 2147SOL    HW2 7008   0.546   3.428   4.171
 2148SOL     OW 7009   1.709   2.247   5.105
 2148SOL    HW1 7010   1.782   2.316   5.109
 2148SOL    HW2 7011   1.737   2.172   5.046
 2149SOL     OW 7012   0.255   3.210   4.014
 2149SOL    HW1 7013   0.159   3.211   3.987
 2149SOL    HW2 7014   0.267   3.263   4.098
 2150SOL     OW 7015   0.105   2.875   5.450
 2150SOL    HW1 7016   0.028   2.842   5.504
 2150SOL    HW2 7017   0.190   2.845   5.492
 2151SOL     OW 7018   0.672   2.065   5.213
 2151SOL    HW1 7019   0.762   2.049   5.173
 2151SOL    HW2 7020   0.680   2.070   5.312
 2152SOL     OW 7021   0.075   2.207   3.757
 2152SOL    HW1 7022  -0.017   2.179   3.728
 2152SOL    HW2 7023   0.106   2.284   3.701
 2153SOL     OW 7024   1.440   2.718   5.122
 2153SOL    HW1 7025   1.383   2.770   5.059
 2153SOL    HW2 7026   1.536   2.730   5.098
 2154SOL     OW 7027   0.072   2.028   4.042
 2154SOL    HW1 7028   0.055   2.111   3.988
 2154SOL    HW2 7029   0.162   1.991   4.020
 2155SOL     OW 7030   1.183   3.197   3.843
 2155SOL    HW1 7031   1.084   3.186   3.845
 2155SOL    HW2 7032   1.217   3.212   3.936
 2156SOL     OW 7033   0.613   2.704   5.155
 2156SOL    HW1 7034   0.669   2.785   5.138
 2156SOL    HW2 7035   0.672   2.624   5.158
 2157SOL     OW 7036   1.493   3.629   4.683
 2157SOL    HW1 7037   1.526   3.693   4.614
 2157SOL    HW2 7038   1.559   3.623   4.758
 2158SOL     OW 7039   0.716   2.427   5.432
 2158SOL    HW1 7040   0.735   2.492   5.506
 2158SOL    HW2 7041   0.776   2.347   5.441
 2159SOL     OW 7042   1.450   3.082   5.357
 2159SOL    HW1 7043   1.441   3.072   5.456
 2159SOL    HW2 7044   1.546   3.075   5.331
 2160SOL     OW 7045   0.390   3.603   5.284
 2160SOL    HW1 7046   0.299   3.644   5.282
 2160SOL    HW2 7047   0.383   3.509   5.316
 2161SOL     OW 7048   1.674   2.745   4.978
 2161SOL    HW1 7049   1.647   2.656   4.941
 2161SOL    HW2 7050   1.675   2.813   4.905
 2162SOL     OW 7051   1.225   2.187   4.173
 2162SOL    HW1 7052   1.290   2.113   4.162
 2162SOL    HW2 7053   1.245   2.237   4.257
 2163SOL     OW 7054   0.594   2.607   4.376
 2163SOL    HW1 7055   0.644   2.692   4.357
 2163SOL    HW2 7056   0.506   2.609   4.328
 2164SOL     OW 7057   1.777   2.204   5.366
 2164SOL    HW1 7058   1.760   2.235   5.272
 2164SOL    HW2 7059   1.693   2.167   5.404
 2165SOL     OW 7060   1.730   2.796   5.241
 2165SOL    HW1 7061   1.768   2.887   5.256
 2165SOL    HW2 7062   1.722   2.779   5.142
 2166SOL     OW 7063   0.859   3.236   3.740
 2166SOL    HW1 7064   0.813   3.251   3.828
 2166SOL    HW2 7065   0.903   3.321   3.710
 2167SOL     OW 7066   0.661   3.652   4.677
 2167SOL    HW1 7067   0.615   3.740   4.664
 2167SOL    HW2 7068   0.760   3.664   4.670
 2168SOL     OW 7069   0.859   2.818   4.585
 2168SOL    HW1 7070   0.913   2.749   4.633
 2168SOL    HW2 7071   0.827   2.887   4.651
 2169SOL     OW 7072   1.083   2.846   3.811
 2169SOL    HW1 7073   1.060   2.899   3.729
 2169SOL    HW2 7074   1.164   2.790   3.792
 2170SOL     OW 7075   1.861   3.431   4.575
 2170SOL    HW1 7076   1.790   3.419   4.505
 2170SOL    HW2 7077   1.862   3.352   4.635
 2171SOL     OW 7078   0.221   3.176   5.568
 2171SOL    HW1 7079   0.156   3.103   5.547
 2171SOL    HW2 7080   0.225   3.190   5.666
 2172SOL     OW 7081   0.079   3.102   4.377
 2172SOL    HW1 7082   0.078   3.055   4.465
 2172SOL    HW2 7083   0.161   3.074   4.326
 2173SOL     OW 7084   0.672   3.253   5.348
 2173SOL    HW1 7085   0.594   3.203   5.386
 2173SOL    HW2 7086   0.669   3.348   5.379
 2174SOL     OW 7087   0.428   2.286   4.244
 2174SOL    HW1 7088   0.458   2.214   4.182
 2174SOL    HW2 7089   0.389   2.246   4.327
 2175SOL     OW 7090   1.705   3.349   4.828
 2175SOL    HW1 7091   1.612   3.324   4.801
 2175SOL    HW2 7092   1.731   3.299   4.910
 2176SOL     OW 7093   0.317   2.409   5.004
 2176SOL    HW1 7094   0.355   2.350   5.076
 2176SOL    HW2 7095   0.357   2.383   4.916
 2177SOL     OW 7096   0.812   3.448   4.411
 2177SOL    HW1 7097   0.844   3.458   4.317
 2177SOL    HW2 7098   0.733   3.386   4.413
 2178SOL     OW 7099   1.424   2.076   4.836
 2178SOL    HW1 7100   1.476   2.011   4.891
 2178SOL    HW2 7101   1.375   2.139   4.897
 2179SOL     OW 7102   1.001   1.896   4.878
 2179SOL    HW1 7103   0.938   1.824   4.847
 2179SOL    HW2 7104   1.094   1.860   4.878
 2180SOL     OW 7105   0.770   3.192   4.025
 2180SOL    HW1 7106   0.724   3.105   4.042
 2180SOL    HW2 7107   0.861   3.189   4.066
 2181SOL     OW 7108   0.618   3.429   5.008
 2181SOL    HW1 7109   0.613   3.511   5.065
 2181SOL    HW2 7110   0.707   3.426   4.963
 2182SOL     OW 7111   1.352   1.914   3.892
 2182SOL    HW1 7112   1.387   1.873   3.808
 2182SOL    HW2 7113   1.262   1.876   3.912
 2183SOL     OW 7114   1.300   2.315   4.415
 2183SOL    HW1 7115   1.241   2.395   4.419
 2183SOL    HW2 7116   1.315   2.280   4.508
 2184SOL     OW 7117   1.593   2.083   4.606
 2184SOL    HW1 7118   1.509   2.082   4.660
 2184SOL    HW2 7119   1.595   2.166   4.550
 2185SOL     OW 7120   0.039   2.939   4.024
 2185SOL    HW1 7121   0.138   2.928   4.015
 2185SOL    HW2 7122  -0.001   2.853   4.056
 2186SOL     OW 7123   0.875   3.508   4.061
 2186SOL    HW1 7124   0.798   3.473   4.007
 2186SOL    HW2 7125   0.843   3.579   4.123
 2187SOL     OW 7126   0.230   2.490   5.699
 2187SOL    HW1 7127   0.137   2.488   5.736
 2187SOL    HW2 7128   0.231   2.451   5.607
 2188SOL     OW 7129   0.225   2.137   6.582
 2188SOL    HW1 7130   0.260   2.120   6.674
 2188SOL    HW2 7131   0.137   2.092   6.570
 2189SOL     OW 7132   0.019   2.230   6.233
 2189SOL    HW1 7133  -0.063   2.273   6.272
 2189SOL    HW2 7134  -0.009   2.157   6.170
 2190SOL     OW 7135   0.569   3.137   6.751
 2190SOL    HW1 7136   0.476   3.130   6.714
 2190SOL    HW2 7137   0.580   3.226   6.795
 2191SOL     OW 7138   1.555   3.373   6.289
 2191SOL    HW1 7139   1.498   3.357   6.370
 2191SOL    HW2 7140   1.496   3.383   6.209
 2192SOL     OW 7141   1.135   2.565   6.303
 2192SOL    HW1 7142   1.192   2.643   6.278
 2192SOL    HW2 7143   1.075   2.591   6.379
 2193SOL     OW 7144   1.755   2.469   5.817
 2193SOL    HW1 7145   1.743   2.456   5.718
 2193SOL    HW2 7146   1.725   2.388   5.866
 2194SOL     OW 7147   0.768   3.006   6.609
 2194SOL    HW1 7148   0.690   3.023   6.669
 2194SOL    HW2 7149   0.802   3.093   6.573
 2195SOL     OW 7150   0.850   2.660   7.409
 2195SOL    HW1 7151   0.846   2.736   7.474
 2195SOL    HW2 7152   0.872   2.696   7.318
 2196SOL     OW 7153   0.685   2.874   6.251
 2196SOL    HW1 7154   0.754   2.858   6.321
 2196SOL    HW2 7155   0.612   2.931   6.289
 2197SOL     OW 7156   0.686   3.023   7.389
 2197SOL    HW1 7157   0.746   3.102   7.403
 2197SOL    HW2 7158   0.600   3.054   7.348
 2198SOL     OW 7159   0.335   3.297   6.647
 2198SOL    HW1 7160   0.257   3.266   6.594
 2198SOL    HW2 7161   0.393   3.355   6.590
 2199SOL     OW 7162   1.460   3.367   6.925
 2199SOL    HW1 7163   1.484   3.461   6.951
 2199SOL    HW2 7164   1.444   3.313   7.007
 2200SOL     OW 7165   0.438   2.254   7.085
 2200SOL    HW1 7166   0.520   2.198   7.094
 2200SOL    HW2 7167   0.357   2.196   7.089
 2201SOL     OW 7168   0.231   3.575   6.069
 2201SOL    HW1 7169   0.265   3.652   6.123
 2201SOL    HW2 7170   0.275   3.575   5.979
 2202SOL     OW 7171   1.127   3.203   7.276
 2202SOL    HW1 7172   1.174   3.203   7.364
 2202SOL    HW2 7173   1.079   3.116   7.265
 2203SOL     OW 7174   0.230   3.296   6.124
 2203SOL    HW1 7175   0.204   3.392   6.124
 2203SOL    HW2 7176   0.159   3.242   6.169
 2204SOL     OW 7177   0.240   2.953   6.472
 2204SOL    HW1 7178   0.254   2.869   6.524
 2204SOL    HW2 7179   0.185   3.017   6.527
 2205SOL     OW 7180   0.620   3.648   7.025
 2205SOL    HW1 7181   0.528   3.631   7.060
 2205SOL    HW2 7182   0.648   3.740   7.051
 2206SOL     OW 7183   0.606   2.826   5.709
 2206SOL    HW1 7184   0.613   2.910   5.655
 2206SOL    HW2 7185   0.652   2.839   5.797
 2207SOL     OW 7186   0.122   2.505   6.149
 2207SOL    HW1 7187   0.077   2.417   6.166
 2207SOL    HW2 7188   0.121   2.559   6.233
 2208SOL     OW 7189   1.842   3.629   5.945
 2208SOL    HW1 7190   1.896   3.600   6.025
 2208SOL    HW2 7191   1.872   3.719   5.916
 2209SOL     OW 7192   0.027   3.458   5.703
 2209SOL    HW1 7193   0.008   3.362   5.724
 2209SOL    HW2 7194  -0.006   3.516   5.778
 2210SOL     OW 7195   1.689   2.784   6.198
 2210SOL    HW1 7196   1.784   2.755   6.206
 2210SOL    HW2 7197   1.681   2.849   6.123
 2211SOL     OW 7198   1.641   2.970   6.018
 2211SOL    HW1 7199   1.727   2.972   5.966
 2211SOL    HW2 7200   1.655   3.017   6.106
 2212SOL     OW 7201   0.113   2.599   7.183
 2212SOL    HW1 7202   0.201   2.586   7.228
 2212SOL    HW2 7203   0.100   2.696   7.161
 2213SOL     OW 7204   0.613   3.227   6.312
 2213SOL    HW1 7205   0.564   3.140   6.321
 2213SOL    HW2 7206   0.590   3.270   6.225
 2214SOL     OW 7207   1.293   3.090   7.009
 2214SOL    HW1 7208   1.330   3.017   6.951
 2214SOL    HW2 7209   1.345   3.095   7.094
 2215SOL     OW 7210   0.809   1.866   6.088
 2215SOL    HW1 7211   0.849   1.957   6.079
 2215SOL    HW2 7212   0.709   1.874   6.094
 2216SOL     OW 7213   0.197   2.838   6.850
 2216SOL    HW1 7214   0.286   2.793   6.836
 2216SOL    HW2 7215   0.124   2.773   6.831
 2217SOL     OW 7216   1.525   2.861   5.776
 2217SOL    HW1 7217   1.462   2.785   5.789
 2217SOL    HW2 7218   1.573   2.879   5.862
 2218SOL     OW 7219   1.187   3.654   7.202
 2218SOL    HW1 7220   1.211   3.714   7.126
 2218SOL    HW2 7221   1.194   3.559   7.172
 2219SOL     OW 7222   0.317   2.113   7.387
 2219SOL    HW1 7223   0.388   2.184   7.393
 2219SOL    HW2 7224   0.229   2.152   7.415
 2220SOL     OW 7225   1.466   3.279   6.539
 2220SOL    HW1 7226   1.407   3.285   6.619
 2220SOL    HW2 7227   1.451   3.191   6.493
 2221SOL     OW 7228   1.667   3.576   6.158
 2221SOL    HW1 7229   1.626   3.553   6.070
 2221SOL    HW2 7230   1.649   3.502   6.223
 2222SOL     OW 7231   0.598   2.591   5.856
 2222SOL    HW1 7232   0.622   2.660   5.788
 2222SOL    HW2 7233   0.520   2.624   5.910
 2223SOL     OW 7234   1.281   2.207   6.530
 2223SOL    HW1 7235   1.195   2.157   6.517
 2223SOL    HW2 7236   1.343   2.153   6.586
 2224SOL     OW 7237   1.576   3.524   5.893
 2224SOL    HW1 7238   1.665   3.570   5.896
 2224SOL    HW2 7239   1.555   3.500   5.798
 2225SOL     OW 7240   0.807   2.467   7.051
 2225SOL    HW1 7241   0.760   2.464   7.140
 2225SOL    HW2 7242   0.756   2.412   6.985
 2226SOL     OW 7243   0.973   2.752   7.158
 2226SOL    HW1 7244   1.019   2.668   7.129
 2226SOL    HW2 7245   0.917   2.786   7.083
 2227SOL     OW 7246   0.991   2.272   6.828
 2227SOL    HW1 7247   0.914   2.306   6.882
 2227SOL    HW2 7248   0.957   2.221   6.749
 2228SOL     OW 7249   1.041   2.563   6.015
 2228SOL    HW1 7250   1.067   2.559   6.111
 2228SOL    HW2 7251   0.956   2.512   6.001
 2229SOL     OW 7252   0.076   2.673   6.375
 2229SOL    HW1 7253   0.175   2.661   6.384
 2229SOL    HW2 7254   0.052   2.768   6.396
 2230SOL     OW 7255   0.130   3.683   7.157
 2230SOL    HW1 7256   0.120   3.668   7.256
 2230SOL    HW2 7257   0.044   3.719   7.121
 2231SOL     OW 7258   0.865   2.210   5.781
 2231SOL    HW1 7259   0.924   2.273   5.732
 2231SOL    HW2 7260   0.884   2.116   5.752
 2232SOL     OW 7261   1.362   3.006   6.131
 2232SOL    HW1 7262   1.445   2.977   6.083
 2232SOL    HW2 7263   1.313   3.073   6.075
 2233SOL     OW 7264   0.550   2.058   6.471
 2233SOL    HW1 7265   0.545   2.053   6.571
 2233SOL    HW2 7266   0.552   2.154   6.442
 2234SOL     OW 7267   1.008   3.318   6.063
 2234SOL    HW1 7268   0.962   3.390   6.011
 2234SOL    HW2 7269   1.004   3.338   6.161
 2235SOL     OW 7270   0.351   3.663   6.439
 2235SOL    HW1 7271   0.401   3.577   6.445
 2235SOL    HW2 7272   0.416   3.740   6.436
 2236SOL     OW 7273   1.795   2.928   6.459
 2236SOL    HW1 7274   1.733   2.913   6.383
 2236SOL    HW2 7275   1.743   2.939   6.544
 2237SOL     OW 7276   1.227   3.412   7.092
 2237SOL    HW1 7277   1.233   3.335   7.156
 2237SOL    HW2 7278   1.175   3.386   7.012
 2238SOL     OW 7279   0.321   2.805   5.828
 2238SOL    HW1 7280   0.403   2.844   5.786
 2238SOL    HW2 7281   0.294   2.723   5.779
 2239SOL     OW 7282   1.458   2.597   6.314
 2239SOL    HW1 7283   1.453   2.532   6.389
 2239SOL    HW2 7284   1.538   2.656   6.327
 2240SOL     OW 7285   0.461   3.128   7.313
 2240SOL    HW1 7286   0.411   3.129   7.227
 2240SOL    HW2 7287   0.398   3.110   7.389
 2241SOL     OW 7288   1.111   3.638   5.823
 2241SOL    HW1 7289   1.051   3.576   5.873
 2241SOL    HW2 7290   1.142   3.594   5.738
 2242SOL     OW 7291   0.202   2.147   7.084
 2242SOL    HW1 7292   0.122   2.207   7.071
 2242SOL    HW2 7293   0.192   2.098   7.170
 2243SOL     OW 7294   1.632   3.239   5.667
 2243SOL    HW1 7295   1.600   3.333   5.657
 2243SOL    HW2 7296   1.556   3.176   5.655
 2244SOL     OW 7297   0.464   3.605   5.909
 2244SOL    HW1 7298   0.497   3.644   5.995
 2244SOL    HW2 7299   0.540   3.598   5.844
 2245SOL     OW 7300   0.249   3.647   6.827
 2245SOL    HW1 7301   0.306   3.582   6.877
 2245SOL    HW2 7302   0.233   3.614   6.734
 2246SOL     OW 7303   0.940   3.560   6.490
 2246SOL    HW1 7304   1.020   3.503   6.511
 2246SOL    HW2 7305   0.891   3.520   6.413
 2247SOL     OW 7306   0.382   2.562   6.066
 2247SOL    HW1 7307   0.427   2.472   6.063
 2247SOL    HW2 7308   0.288   2.551   6.099
 2248SOL     OW 7309   0.614   1.984   5.703
 2248SOL    HW1 7310   0.712   1.962   5.710
 2248SOL    HW2 7311   0.583   1.967   5.610
 2249SOL     OW 7312   0.781   2.126   7.335
 2249SOL    HW1 7313   0.848   2.065   7.378
 2249SOL    HW2 7314   0.708   2.145   7.400
 2250SOL     OW 7315   0.888   3.376   6.781
 2250SOL    HW1 7316   0.865   3.351   6.687
 2250SOL    HW2 7317   0.949   3.307   6.820
 2251SOL     OW 7318   1.351   2.452   7.019
 2251SOL    HW1 7319   1.379   2.409   7.104
 2251SOL    HW2 7320   1.376   2.548   7.020
 2252SOL     OW 7321   0.803   3.264   6.510
 2252SOL    HW1 7322   0.893   3.278   6.468
 2252SOL    HW2 7323   0.732   3.266   6.439
 2253SOL     OW 7324   0.922   2.365   6.485
 2253SOL    HW1 7325   0.897   2.356   6.389
 2253SOL    HW2 7326   0.970   2.283   6.516
 2254SOL     OW 7327   0.539   1.926   6.098
 2254SOL    HW1 7328   0.458   1.927   6.156
 2254SOL    HW2 7329   0.542   2.009   6.043
 2255SOL     OW 7330   1.434   3.050   5.627
 2255SOL    HW1 7331   1.466   2.974   5.684
 2255SOL    HW2 7332   1.342   3.077   5.657
 2256SOL     OW 7333   0.297   1.897   5.757
 2256SOL    HW1 7334   0.346   1.981   5.736
 2256SOL    HW2 7335   0.359   1.832   5.802
 2257SOL     OW 7336   0.935   2.098   6.066
 2257SOL    HW1 7337   0.887   2.139   5.988
 2257SOL    HW2 7338   1.034   2.096   6.047
 2258SOL     OW 7339   1.076   2.545   7.050
 2258SOL    HW1 7340   0.996   2.484   7.053
 2258SOL    HW2 7341   1.157   2.492   7.026
 2259SOL     OW 7342   1.227   3.432   6.379
 2259SOL    HW1 7343   1.248   3.506   6.314
 2259SOL    HW2 7344   1.295   3.432   6.452
 2260SOL     OW 7345   0.459   3.014   6.327
 2260SOL    HW1 7346   0.388   2.987   6.392
 2260SOL    HW2 7347   0.433   2.986   6.234
 2261SOL     OW 7348   1.271   3.659   6.177
 2261SOL    HW1 7349   1.315   3.723   6.113
 2261SOL    HW2 7350   1.221   3.711   6.247
 2262SOL     OW 7351   1.032   2.411   5.602
 2262SOL    HW1 7352   0.991   2.493   5.563
 2262SOL    HW2 7353   1.096   2.437   5.675
 2263SOL     OW 7354   0.078   2.418   6.972
 2263SOL    HW1 7355   0.170   2.417   6.931
 2263SOL    HW2 7356   0.072   2.492   7.039
 2264SOL     OW 7357   0.561   2.084   6.733
 2264SOL    HW1 7358   0.599   2.000   6.770
 2264SOL    HW2 7359   0.473   2.103   6.777
 2265SOL     OW 7360   0.866   2.316   6.228
 2265SOL    HW1 7361   0.834   2.388   6.166
 2265SOL    HW2 7362   0.890   2.235   6.175
 2266SOL     OW 7363   1.017   1.901   6.339
 2266SOL    HW1 7364   0.945   1.906   6.270
 2266SOL    HW2 7365   0.993   1.832   6.408
 2267SOL     OW 7366   1.429   3.035   6.453
 2267SOL    HW1 7367   1.374   2.951   6.446
 2267SOL    HW2 7368   1.455   3.064   6.361
 2268SOL     OW 7369   1.857   2.695   5.963
 2268SOL    HW1 7370   1.899   2.631   6.027
 2268SOL    HW2 7371   1.819   2.644   5.885
 2269SOL     OW 7372   0.488   3.247   5.760
 2269SOL    HW1 7373   0.401   3.232   5.807
 2269SOL    HW2 7374   0.471   3.273   5.665
 2270SOL     OW 7375   1.664   3.142   6.243
 2270SOL    HW1 7376   1.763   3.150   6.257
 2270SOL    HW2 7377   1.619   3.226   6.274
 2271SOL     OW 7378   1.390   2.437   5.664
 2271SOL    HW1 7379   1.336   2.416   5.745
 2271SOL    HW2 7380   1.481   2.396   5.673
 2272SOL     OW 7381   0.527   2.118   5.914
 2272SOL    HW1 7382   0.554   2.059   5.839
 2272SOL    HW2 7383   0.527   2.213   5.883
 2273SOL     OW 7384   1.754   3.085   7.174
 2273SOL    HW1 7385   1.845   3.046   7.161
 2273SOL    HW2 7386   1.762   3.181   7.198
 2274SOL     OW 7387   1.064   3.209   6.926
 2274SOL    HW1 7388   0.984   3.186   6.981
 2274SOL    HW2 7389   1.147   3.183   6.975
 2275SOL     OW 7390   1.592   3.491   7.211
 2275SOL    HW1 7391   1.619   3.525   7.121
 2275SOL    HW2 7392   1.671   3.453   7.257
 2276SOL     OW 7393   1.111   3.057   6.686
 2276SOL    HW1 7394   1.071   3.101   6.767
 2276SOL    HW2 7395   1.070   3.094   6.603
 2277SOL     OW 7396   1.638   2.961   6.665
 2277SOL    HW1 7397   1.643   3.042   6.724
 2277SOL    HW2 7398   1.552   2.963   6.614
 2278SOL     OW 7399   0.915   1.951   6.988
 2278SOL    HW1 7400   0.940   1.931   6.893
 2278SOL    HW2 7401   0.987   2.007   7.030
 2279SOL     OW 7402   0.980   2.978   7.305
 2279SOL    HW1 7403   0.881   2.984   7.315
 2279SOL    HW2 7404   1.003   2.898   7.249
 2280SOL     OW 7405   0.705   2.912   5.954
 2280SOL    HW1 7406   0.691   2.919   6.053
 2280SOL    HW2 7407   0.789   2.861   5.936
 2281SOL     OW 7408   0.410   2.675   6.837
 2281SOL    HW1 7409   0.496   2.687   6.887
 2281SOL    HW2 7410   0.368   2.588   6.864
 2282SOL     OW 7411   1.274   2.248   6.848
 2282SOL    HW1 7412   1.295   2.322   6.912
 2282SOL    HW2 7413   1.185   2.265   6.805
 2283SOL     OW 7414   0.064   3.426   6.917
 2283SOL    HW1 7415   0.018   3.508   6.883
 2283SOL    HW2 7416   0.162   3.445   6.926
 2284SOL     OW 7417   0.367   2.962   6.087
 2284SOL    HW1 7418   0.360   3.045   6.031
 2284SOL    HW2 7419   0.371   2.882   6.027
 2285SOL     OW 7420   0.566   2.399   6.451
 2285SOL    HW1 7421   0.578   2.465   6.377
 2285SOL    HW2 7422   0.612   2.433   6.534
 2286SOL     OW 7423   1.252   3.210   5.974
 2286SOL    HW1 7424   1.302   3.287   6.014
 2286SOL    HW2 7425   1.157   3.212   6.006
 2287SOL     OW 7426   1.272   3.307   6.728
 2287SOL    HW1 7427   1.319   3.320   6.815
 2287SOL    HW2 7428   1.206   3.233   6.737
 2288SOL     OW 7429   1.582   2.501   6.058
 2288SOL    HW1 7430   1.551   2.562   6.131
 2288SOL    HW2 7431   1.632   2.553   5.989
 2289SOL     OW 7432   0.354   3.372   6.915
 2289SOL    HW1 7433   0.333   3.328   6.828
 2289SOL    HW2 7434   0.451   3.398   6.918
 2290SOL     OW 7435   0.402   2.613   7.184
 2290SOL    HW1 7436   0.470   2.668   7.137
 2290SOL    HW2 7437   0.442   2.525   7.211
 2291SOL     OW 7438   1.013   1.967   7.356
 2291SOL    HW1 7439   1.019   2.052   7.304
 2291SOL    HW2 7440   1.045   1.891   7.299
 2292SOL     OW 7441   0.504   1.912   7.326
 2292SOL    HW1 7442   0.462   1.855   7.256
 2292SOL    HW2 7443   0.438   1.981   7.358
 2293SOL     OW 7444   0.573   2.732   6.615
 2293SOL    HW1 7445   0.617   2.821   6.606
 2293SOL    HW2 7446   0.510   2.732   6.692
 2294SOL     OW 7447   1.209   2.387   5.861
 2294SOL    HW1 7448   1.222   2.303   5.915
 2294SOL    HW2 7449   1.180   2.461   5.921
 2295SOL     OW 7450   0.307   2.075   6.817
 2295SOL    HW1 7451   0.284   2.112   6.907
 2295SOL    HW2 7452   0.277   1.980   6.811
 2296SOL     OW 7453   0.037   3.172   6.868
 2296SOL    HW1 7454   0.090   3.123   6.936
 2296SOL    HW2 7455   0.059   3.270   6.873
 2297SOL     OW 7456   0.732   2.496   6.650
 2297SOL    HW1 7457   0.791   2.470   6.574
 2297SOL    HW2 7458   0.704   2.592   6.639
 2298SOL     OW 7459   0.307   1.925   6.204
 2298SOL    HW1 7460   0.296   2.019   6.237
 2298SOL    HW2 7461   0.302   1.862   6.281
 2299SOL     OW 7462   1.023   2.628   6.552
 2299SOL    HW1 7463   1.038   2.649   6.648
 2299SOL    HW2 7464   0.993   2.533   6.543
 2300SOL     OW 7465   0.980   3.435   7.286
 2300SOL    HW1 7466   0.960   3.479   7.198
 2300SOL    HW2 7467   1.019   3.344   7.270
 2301SOL     OW 7468   1.859   3.380   7.191
 2301SOL    HW1 7469   1.873   3.407   7.096
 2301SOL    HW2 7470   1.942   3.402   7.244
 2302SOL     OW 7471   0.350   2.760   7.390
 2302SOL    HW1 7472   0.426   2.804   7.438
 2302SOL    HW2 7473   0.385   2.713   7.308
 2303SOL     OW 7474   1.540   2.136   5.711
 2303SOL    HW1 7475   1.479   2.061   5.734
 2303SOL    HW2 7476   1.562   2.188   5.794
 2304SOL     OW 7477   1.303   2.700   5.628
 2304SOL    HW1 7478   1.337   2.607   5.643
 2304SOL    HW2 7479   1.321   2.727   5.533
 2305SOL     OW 7480   1.068   3.195   6.435
 2305SOL    HW1 7481   1.075   3.111   6.380
 2305SOL    HW2 7482   1.130   3.264   6.399
 2306SOL     OW 7483   0.319   2.672   6.535
 2306SOL    HW1 7484   0.412   2.708   6.540
 2306SOL    HW2 7485   0.313   2.587   6.587
 2307SOL     OW 7486   0.339   2.371   6.592
 2307SOL    HW1 7487   0.287   2.288   6.575
 2307SOL    HW2 7488   0.416   2.376   6.528
 2308SOL     OW 7489   0.008   3.188   5.786
 2308SOL    HW1 7490  -0.085   3.209   5.755
 2308SOL    HW2 7491   0.018   3.089   5.799
 2309SOL     OW 7492   0.088   3.663   6.513
 2309SOL    HW1 7493   0.046   3.577   6.486
 2309SOL    HW2 7494   0.182   3.666   6.479
 2310SOL     OW 7495   0.504   3.430   6.496
 2310SOL    HW1 7496   0.570   3.504   6.505
 2310SOL    HW2 7497   0.548   3.351   6.454
 2311SOL     OW 7498   1.002   2.658   6.824
 2311SOL    HW1 7499   1.043   2.626   6.910
 2311SOL    HW2 7500   0.906   2.631   6.821
 2312SOL     OW 7501   0.040   2.406   6.700
 2312SOL    HW1 7502   0.125   2.373   6.659
 2312SOL    HW2 7503   0.053   2.421   6.798
 2313SOL     OW 7504   0.189   2.382   7.308
 2313SOL    HW1 7505   0.248   2.342   7.238
 2313SOL    HW2 7506   0.131   2.453   7.267
 2314SOL     OW 7507   1.369   2.812   7.246
 2314SOL    HW1 7508   1.408   2.901   7.266
 2314SOL    HW2 7509   1.379   2.792   7.149
 2315SOL     OW 7510   0.815   2.434   5.911
 2315SOL    HW1 7511   0.822   2.345   5.865
 2315SOL    HW2 7512   0.721   2.468   5.903
 2316SOL     OW 7513   0.252   3.426   7.330
 2316SOL    HW1 7514   0.222   3.483   7.406
 2316SOL    HW2 7515   0.245   3.329   7.356
 2317SOL     OW 7516   0.671   2.326   6.855
 2317SOL    HW1 7517   0.637   2.237   6.825
 2317SOL    HW2 7518   0.697   2.380   6.775
 2318SOL     OW 7519   0.930   3.540   7.051
 2318SOL    HW1 7520   0.906   3.522   6.956
 2318SOL    HW2 7521   0.960   3.634   7.061
 2319SOL     OW 7522   0.473   2.362   5.777
 2319SOL    HW1 7523   0.534   2.442   5.781
 2319SOL    HW2 7524   0.378   2.393   5.784
 2320SOL     OW 7525   0.159   2.999   7.052
 2320SOL    HW1 7526   0.181   2.938   7.128
 2320SOL    HW2 7527   0.169   2.950   6.966
 2321SOL     OW 7528   1.347   2.921   6.820
 2321SOL    HW1 7529   1.371   2.858   6.746
 2321SOL    HW2 7530   1.257   2.961   6.802
 2322SOL     OW 7531   1.302   2.717   5.895
 2322SOL    HW1 7532   1.216   2.686   5.937
 2322SOL    HW2 7533   1.298   2.703   5.796
 2323SOL     OW 7534   1.759   3.609   6.740
 2323SOL    HW1 7535   1.820   3.639   6.667
 2323SOL    HW2 7536   1.721   3.520   6.718
 2324SOL     OW 7537   1.252   3.593   6.714
 2324SOL    HW1 7538   1.336   3.598   6.660
 2324SOL    HW2 7539   1.229   3.497   6.732
 2325SOL     OW 7540   0.083   3.120   6.608
 2325SOL    HW1 7541   0.078   3.119   6.708
 2325SOL    HW2 7542   0.000   3.079   6.570
 2326SOL     OW 7543   0.688   3.524   7.302
 2326SOL    HW1 7544   0.632   3.605   7.311
 2326SOL    HW2 7545   0.740   3.528   7.216
 2327SOL     OW 7546   1.388   3.435   6.063
 2327SOL    HW1 7547   1.455   3.447   5.989
 2327SOL    HW2 7548   1.348   3.524   6.086
 2328SOL     OW 7549   0.130   3.656   7.437
 2328SOL    HW1 7550   0.089   3.582   7.490
 2328SOL    HW2 7551   0.194   3.707   7.495
 2329SOL     OW 7552   1.280   2.789   6.258
 2329SOL    HW1 7553   1.340   2.708   6.260
 2329SOL    HW2 7554   1.320   2.858   6.198
 2330SOL     OW 7555   0.830   3.135   7.008
 2330SOL    HW1 7556   0.825   3.168   7.103
 2330SOL    HW2 7557   0.744   3.154   6.962
 2331SOL     OW 7558   0.672   3.478   5.740
 2331SOL    HW1 7559   0.681   3.488   5.641
 2331SOL    HW2 7560   0.632   3.389   5.761
 2332SOL     OW 7561   1.650   3.582   6.980
 2332SOL    HW1 7562   1.703   3.592   6.896
 2332SOL    HW2 7563   1.623   3.672   7.014
 2333SOL     OW 7564   0.263   2.188   6.306
 2333SOL    HW1 7565   0.184   2.239   6.272
 2333SOL    HW2 7566   0.254   2.173   6.404
 2334SOL     OW 7567   1.194   3.474   5.617
 2334SOL    HW1 7568   1.200   3.381   5.654
 2334SOL    HW2 7569   1.135   3.474   5.537
 2335SOL     OW 7570   0.822   2.864   6.958
 2335SOL    HW1 7571   0.862   2.863   6.866
 2335SOL    HW2 7572   0.832   2.956   6.998
 2336SOL     OW 7573   0.916   2.772   5.877
 2336SOL    HW1 7574   0.979   2.810   5.809
 2336SOL    HW2 7575   0.956   2.689   5.916
 2337SOL     OW 7576   1.504   3.469   5.630
 2337SOL    HW1 7577   1.412   3.506   5.637
 2337SOL    HW2 7578   1.542   3.489   5.540
 2338SOL     OW 7579   0.372   3.150   7.076
 2338SOL    HW1 7580   0.359   3.243   7.042
 2338SOL    HW2 7581   0.288   3.098   7.063
 2339SOL     OW 7582   1.614   3.154   6.875
 2339SOL    HW1 7583   1.674   3.157   6.955
 2339SOL    HW2 7584   1.539   3.218   6.888
 2340SOL     OW 7585   1.039   2.960   6.282
 2340SOL    HW1 7586   0.969   2.913   6.336
 2340SOL    HW2 7587   1.098   2.892   6.239
 2341SOL     OW 7588   1.014   2.098   6.557
 2341SOL    HW1 7589   1.006   2.062   6.464
 2341SOL    HW2 7590   1.012   2.022   6.622
 2342SOL     OW 7591   0.590   3.349   6.077
 2342SOL    HW1 7592   0.632   3.291   6.007
 2342SOL    HW2 7593   0.546   3.428   6.033
 2343SOL     OW 7594   1.709   2.247   6.967
 2343SOL    HW1 7595   1.782   2.316   6.971
 2343SOL    HW2 7596   1.737   2.172   6.908
 2344SOL     OW 7597   0.255   3.210   5.876
 2344SOL    HW1 7598   0.159   3.211   5.849
 2344SOL    HW2 7599   0.267   3.263   5.960
 2345SOL     OW 7600   0.105   2.875   7.312
 2345SOL    HW1 7601   0.028   2.842   7.366
 2345SOL    HW2 7602   0.190   2.845   7.354
 2346SOL     OW 7603   0.672   2.065   7.075
 2346SOL    HW1 7604   0.762   2.049   7.035
 2346SOL    HW2 7605   0.680   2.070   7.174
 2347SOL     OW 7606   0.075   2.207   5.619
 2347SOL    HW1 7607  -0.017   2.179   5.590
 2347SOL    HW2 7608   0.106   2.284   5.563
 2348SOL     OW 7609   1.440   2.718   6.984
 2348SOL    HW1 7610   1.383   2.770   6.921
 2348SOL    HW2 7611   1.536   2.730   6.960
 2349SOL     OW 7612   0.072   2.028   5.904
 2349SOL    HW1 7613   0.055   2.111   5.850
 2349SOL    HW2 7614   0.162   1.991   5.882
 2350SOL     OW 7615   1.183   3.197   5.705
 2350SOL    HW1 7616   1.084   3.186   5.707
 2350SOL    HW2 7617   1.217   3.212   5.798
 2351SOL     OW 7618   0.613   2.704   7.017
 2351SOL    HW1 7619   0.669   2.785   7.000
 2351SOL    HW2 7620   0.672   2.624   7.020
 2352SOL     OW 7621   1.493   3.629   6.545
 2352SOL    HW1 7622   1.526   3.693   6.476
 2352SOL    HW2 7623   1.559   3.623   6.620
 2353SOL     OW 7624   0.716   2.427   7.294
 2353SOL    HW1 7625   0.735   2.492   7.368
 2353SOL    HW2 7626   0.776   2.347   7.303
 2354SOL     OW 7627   1.450   3.082   7.219
 2354SOL    HW1 7628   1.441   3.072   7.318
 2354SOL    HW2 7629   1.546   3.075   7.193
 2355SOL     OW 7630   0.390   3.603   7.146
 2355SOL    HW1 7631   0.299   3.644   7.144
 2355SOL    HW2 7632   0.383   3.509   7.178
 2356SOL     OW 7633   0.594   2.607   6.238
 2356SOL    HW1 7634   0.644   2.692   6.219
 2356SOL    HW2 7635   0.506   2.609   6.190
 2357SOL     OW 7636   0.859   3.236   5.602
 2357SOL    HW1 7637   0.813   3.251   5.690
 2357SOL    HW2 7638   0.903   3.321   5.572
 2358SOL     OW 7639   0.661   3.652   6.539
 2358SOL    HW1 7640   0.615   3.740   6.526
 2358SOL    HW2 7641   0.760   3.664   6.532
 2359SOL     OW 7642   0.859   2.818   6.447
 2359SOL    HW1 7643   0.913   2.749   6.495
 2359SOL    HW2 7644   0.827   2.887   6.513
 2360SOL     OW 7645   1.083   2.846   5.673
 2360SOL    HW1 7646   1.060   2.899   5.591
 2360SOL    HW2 7647   1.164   2.790   5.654
 2361SOL     OW 7648   1.861   3.431   6.437
 2361SOL    HW1 7649   1.790   3.419   6.367
 2361SOL    HW2 7650   1.862   3.352   6.497
 2362SOL     OW 7651   0.221   3.176   7.430
 2362SOL    HW1 7652   0.156   3.103   7.409
 2362SOL    HW2 7653   0.225   3.190   7.528
 2363SOL     OW 7654   0.079   3.102   6.239
 2363SOL    HW1 7655   0.078   3.055   6.327
 2363SOL    HW2 7656   0.161   3.074   6.188
 2364SOL     OW 7657   0.672   3.253   7.210
 2364SOL    HW1 7658   0.594   3.203   7.248
 2364SOL    HW2 7659   0.669   3.348   7.241
 2365SOL     OW 7660   0.428   2.286   6.106
 2365SOL    HW1 7661   0.458   2.214   6.044
 2365SOL    HW2 7662   0.389   2.246   6.189
 2366SOL     OW 7663   1.705   3.349   6.690
 2366SOL    HW1 7664   1.612   3.324   6.663
 2366SOL    HW2 7665   1.731   3.299   6.772
 2367SOL     OW 7666   0.317   2.409   6.866
 2367SOL    HW1 7667   0.355   2.350   6.938
 2367SOL    HW2 7668   0.357   2.383   6.778
 2368SOL     OW 7669   0.812   3.448   6.273
 2368SOL    HW1 7670   0.844   3.458   6.179
 2368SOL    HW2 7671   0.733   3.386   6.275
 2369SOL     OW 7672   1.001   1.896   6.740
 2369SOL    HW1 7673   0.938   1.824   6.709
 2369SOL    HW2 7674   1.094   1.860   6.740
 2370SOL     OW 7675   0.770   3.192   5.887
 2370SOL    HW1 7676   0.724   3.105   5.904
 2370SOL    HW2 7677   0.861   3.189   5.928
 2371SOL     OW 7678   0.618   3.429   6.870
 2371SOL    HW1 7679   0.613   3.511   6.927
 2371SOL    HW2 7680   0.707   3.426   6.825
 2372SOL     OW 7681   1.352   1.914   5.754
 2372SOL    HW1 7682   1.387   1.873   5.670
 2372SOL    HW2 7683   1.262   1.876   5.774
 2373SOL     OW 7684   1.300   2.315   6.277
 2373SOL    HW1 7685   1.241   2.395   6.281
 2373SOL    HW2 7686   1.315   2.280   6.370
 2374SOL     OW 7687   0.039   2.939   5.886
 2374SOL    HW1 7688   0.138   2.928   5.877
 2374SOL    HW2 7689  -0.001   2.853   5.918
 2375SOL     OW 7690   0.875   3.508   5.923
 2375SOL    HW1 7691   0.798   3.473   5.869
 2375SOL    HW2 7692   0.843   3.579   5.985
 2376SOL     OW 7693   0.230   2.490   7.561
 2376SOL    HW1 7694   0.137   2.488   7.598
 2376SOL    HW2 7695   0.231   2.451   7.469
 2377SOL     OW 7696   0.225   2.137   8.444
 2377SOL    HW1 7697   0.260   2.120   8.536
 2377SOL    HW2 7698   0.137   2.092   8.432
 2378SOL     OW 7699   0.019   2.230   8.095
 2378SOL    HW1 7700  -0.063   2.273   8.134
 2378SOL    HW2 7701  -0.009   2.157   8.032
 2379SOL     OW 7702   0.569   3.137   8.613
 2379SOL    HW1 7703   0.476   3.130   8.576
 2379SOL    HW2 7704   0.580   3.226   8.657
 2380SOL     OW 7705   1.555   3.373   8.151
 2380SOL    HW1 7706   1.498   3.357   8.232
 2380SOL    HW2 7707   1.496   3.383   8.071
 2381SOL     OW 7708   1.135   2.565   8.165
 2381SOL    HW1 7709   1.192   2.643   8.140
 2381SOL    HW2 7710   1.075   2.591   8.241
 2382SOL     OW 7711   0.768   3.006   8.471
 2382SOL    HW1 7712   0.690   3.023   8.531
 2382SOL    HW2 7713   0.802   3.093   8.435
 2383SOL     OW 7714   0.850   2.660   9.271
 2383SOL    HW1 7715   0.846   2.736   9.336
 2383SOL    HW2 7716   0.872   2.696   9.180
 2384SOL     OW 7717   0.685   2.874   8.113
 2384SOL    HW1 7718   0.754   2.858   8.183
 2384SOL    HW2 7719   0.612   2.931   8.151
 2385SOL     OW 7720   0.686   3.023   9.251
 2385SOL    HW1 7721   0.746   3.102   9.265
 2385SOL    HW2 7722   0.600   3.054   9.210
 2386SOL     OW 7723   0.335   3.297   8.509
 2386SOL    HW1 7724   0.257   3.266   8.456
 2386SOL    HW2 7725   0.393   3.355   8.452
 2387SOL     OW 7726   1.460   3.367   8.787
 2387SOL    HW1 7727   1.484   3.461   8.813
 2387SOL    HW2 7728   1.444   3.313   8.869
 2388SOL     OW 7729   0.438   2.254   8.947
 2388SOL    HW1 7730   0.520   2.198   8.956
 2388SOL    HW2 7731   0.357   2.196   8.951
 2389SOL     OW 7732   1.603   2.309   8.185
 2389SOL    HW1 7733   1.529   2.355   8.135
 2389SOL    HW2 7734   1.654   2.377   8.238
 2390SOL     OW 7735   0.231   3.575   7.931
 2390SOL    HW1 7736   0.265   3.652   7.985
 2390SOL    HW2 7737   0.275   3.575   7.841
 2391SOL     OW 7738   1.127   3.203   9.138
 2391SOL    HW1 7739   1.174   3.203   9.226
 2391SOL    HW2 7740   1.079   3.116   9.127
 2392SOL     OW 7741   0.230   3.296   7.986
 2392SOL    HW1 7742   0.204   3.392   7.986
 2392SOL    HW2 7743   0.159   3.242   8.031
 2393SOL     OW 7744   0.240   2.953   8.334
 2393SOL    HW1 7745   0.254   2.869   8.386
 2393SOL    HW2 7746   0.185   3.017   8.389
 2394SOL     OW 7747   0.620   3.648   8.887
 2394SOL    HW1 7748   0.528   3.631   8.922
 2394SOL    HW2 7749   0.648   3.740   8.913
 2395SOL     OW 7750   0.606   2.826   7.571
 2395SOL    HW1 7751   0.613   2.910   7.517
 2395SOL    HW2 7752   0.652   2.839   7.659
 2396SOL     OW 7753   1.594   1.976   8.928
 2396SOL    HW1 7754   1.576   2.043   8.856
 2396SOL    HW2 7755   1.591   2.022   9.017
 2397SOL     OW 7756   0.122   2.505   8.011
 2397SOL    HW1 7757   0.077   2.417   8.028
 2397SOL    HW2 7758   0.121   2.559   8.095
 2398SOL     OW 7759   1.842   3.629   7.807
 2398SOL    HW1 7760   1.896   3.600   7.887
 2398SOL    HW2 7761   1.872   3.719   7.778
 2399SOL     OW 7762   0.027   3.458   7.565
 2399SOL    HW1 7763   0.008   3.362   7.586
 2399SOL    HW2 7764  -0.006   3.516   7.640
 2400SOL     OW 7765   1.689   2.784   8.060
 2400SOL    HW1 7766   1.784   2.755   8.068
 2400SOL    HW2 7767   1.681   2.849   7.985
 2401SOL     OW 7768   1.641   2.970   7.880
 2401SOL    HW1 7769   1.727   2.972   7.828
 2401SOL    HW2 7770   1.655   3.017   7.968
 2402SOL     OW 7771   0.113   2.599   9.045
 2402SOL    HW1 7772   0.201   2.586   9.090
 2402SOL    HW2 7773   0.100   2.696   9.023
 2403SOL     OW 7774   0.613   3.227   8.174
 2403SOL    HW1 7775   0.564   3.140   8.183
 2403SOL    HW2 7776   0.590   3.270   8.087
 2404SOL     OW 7777   1.293   3.090   8.871
 2404SOL    HW1 7778   1.330   3.017   8.813
 2404SOL    HW2 7779   1.345   3.095   8.956
 2405SOL     OW 7780   0.809   1.866   7.950
 2405SOL    HW1 7781   0.849   1.957   7.941
 2405SOL    HW2 7782   0.709   1.874   7.956
 2406SOL     OW 7783   0.197   2.838   8.712
 2406SOL    HW1 7784   0.286   2.793   8.698
 2406SOL    HW2 7785   0.124   2.773   8.693
 2407SOL     OW 7786   1.525   2.861   7.638
 2407SOL    HW1 7787   1.462   2.785   7.651
 2407SOL    HW2 7788   1.573   2.879   7.724
 2408SOL     OW 7789   1.187   3.654   9.064
 2408SOL    HW1 7790   1.211   3.714   8.988
 2408SOL    HW2 7791   1.194   3.559   9.034
 2409SOL     OW 7792   0.317   2.113   9.249
 2409SOL    HW1 7793   0.388   2.184   9.255
 2409SOL    HW2 7794   0.229   2.152   9.277
 2410SOL     OW 7795   1.466   3.279   8.401
 2410SOL    HW1 7796   1.407   3.285   8.481
 2410SOL    HW2 7797   1.451   3.191   8.355
 2411SOL     OW 7798   1.667   3.576   8.020
 2411SOL    HW1 7799   1.626   3.553   7.932
 2411SOL    HW2 7800   1.649   3.502   8.085
 2412SOL     OW 7801   0.598   2.591   7.718
 2412SOL    HW1 7802   0.622   2.660   7.650
 2412SOL    HW2 7803   0.520   2.624   7.772
 2413SOL     OW 7804   1.281   2.207   8.392
 2413SOL    HW1 7805   1.195   2.157   8.379
 2413SOL    HW2 7806   1.343   2.153   8.448
 2414SOL     OW 7807   1.576   3.524   7.755
 2414SOL    HW1 7808   1.665   3.570   7.758
 2414SOL    HW2 7809   1.555   3.500   7.660
 2415SOL     OW 7810   0.807   2.467   8.913
 2415SOL    HW1 7811   0.760   2.464   9.002
 2415SOL    HW2 7812   0.756   2.412   8.847
 2416SOL     OW 7813   1.394   2.331   9.122
 2416SOL    HW1 7814   1.374   2.374   9.210
 2416SOL    HW2 7815   1.472   2.269   9.131
 2417SOL     OW 7816   0.973   2.752   9.020
 2417SOL    HW1 7817   1.019   2.668   8.991
 2417SOL    HW2 7818   0.917   2.786   8.945
 2418SOL     OW 7819   0.991   2.272   8.690
 2418SOL    HW1 7820   0.914   2.306   8.744
 2418SOL    HW2 7821   0.957   2.221   8.611
 2419SOL     OW 7822   1.041   2.563   7.877
 2419SOL    HW1 7823   1.067   2.559   7.973
 2419SOL    HW2 7824   0.956   2.512   7.863
 2420SOL     OW 7825   0.076   2.673   8.237
 2420SOL    HW1 7826   0.175   2.661   8.246
 2420SOL    HW2 7827   0.052   2.768   8.258
 2421SOL     OW 7828   0.130   3.683   9.019
 2421SOL    HW1 7829   0.120   3.668   9.118
 2421SOL    HW2 7830   0.044   3.719   8.983
 2422SOL     OW 7831   0.865   2.210   7.643
 2422SOL    HW1 7832   0.924   2.273   7.594
 2422SOL    HW2 7833   0.884   2.116   7.614
 2423SOL     OW 7834   1.719   2.447   9.279
 2423SOL    HW1 7835   1.693   2.536   9.243
 2423SOL    HW2 7836   1.717   2.379   9.206
 2424SOL     OW 7837   1.362   3.006   7.993
 2424SOL    HW1 7838   1.445   2.977   7.945
 2424SOL    HW2 7839   1.313   3.073   7.937
 2425SOL     OW 7840   0.550   2.058   8.333
 2425SOL    HW1 7841   0.545   2.053   8.433
 2425SOL    HW2 7842   0.552   2.154   8.304
 2426SOL     OW 7843   1.008   3.318   7.925
 2426SOL    HW1 7844   0.962   3.390   7.873
 2426SOL    HW2 7845   1.004   3.338   8.023
 2427SOL     OW 7846   0.351   3.663   8.301
 2427SOL    HW1 7847   0.401   3.577   8.307
 2427SOL    HW2 7848   0.416   3.740   8.298
 2428SOL     OW 7849   1.795   2.928   8.321
 2428SOL    HW1 7850   1.733   2.913   8.245
 2428SOL    HW2 7851   1.743   2.939   8.406
 2429SOL     OW 7852   1.227   3.412   8.954
 2429SOL    HW1 7853   1.233   3.335   9.018
 2429SOL    HW2 7854   1.175   3.386   8.874
 2430SOL     OW 7855   0.321   2.805   7.690
 2430SOL    HW1 7856   0.403   2.844   7.648
 2430SOL    HW2 7857   0.294   2.723   7.641
 2431SOL     OW 7858   1.458   2.597   8.176
 2431SOL    HW1 7859   1.453   2.532   8.251
 2431SOL    HW2 7860   1.538   2.656   8.189
 2432SOL     OW 7861   0.461   3.128   9.175
 2432SOL    HW1 7862   0.411   3.129   9.089
 2432SOL    HW2 7863   0.398   3.110   9.251
 2433SOL     OW 7864   1.111   3.638   7.685
 2433SOL    HW1 7865   1.051   3.576   7.735
 2433SOL    HW2 7866   1.142   3.594   7.600
 2434SOL     OW 7867   0.202   2.147   8.946
 2434SOL    HW1 7868   0.122   2.207   8.933
 2434SOL    HW2 7869   0.192   2.098   9.032
 2435SOL     OW 7870   1.632   3.239   7.529
 2435SOL    HW1 7871   1.600   3.333   7.519
 2435SOL    HW2 7872   1.556   3.176   7.517
 2436SOL     OW 7873   0.464   3.605   7.771
 2436SOL    HW1 7874   0.497   3.644   7.857
 2436SOL    HW2 7875   0.540   3.598   7.706
 2437SOL     OW 7876   0.249   3.647   8.689
 2437SOL    HW1 7877   0.306   3.582   8.739
 2437SOL    HW2 7878   0.233   3.614   8.596
 2438SOL     OW 7879   0.940   3.560   8.352
 2438SOL    HW1 7880   1.020   3.503   8.373
 2438SOL    HW2 7881   0.891   3.520   8.275
 2439SOL     OW 7882   0.382   2.562   7.928
 2439SOL    HW1 7883   0.427   2.472   7.925
 2439SOL    HW2 7884   0.288   2.551   7.961
 2440SOL     OW 7885   1.547   2.084   9.177
 2440SOL    HW1 7886   1.542   2.121   9.269
 2440SOL    HW2 7887   1.475   2.015   9.165
 2441SOL     OW 7888   0.614   1.984   7.565
 2441SOL    HW1 7889   0.712   1.962   7.572
 2441SOL    HW2 7890   0.583   1.967   7.472
 2442SOL     OW 7891   0.781   2.126   9.197
 2442SOL    HW1 7892   0.848   2.065   9.240
 2442SOL    HW2 7893   0.708   2.145   9.262
 2443SOL     OW 7894   0.888   3.376   8.643
 2443SOL    HW1 7895   0.865   3.351   8.549
 2443SOL    HW2 7896   0.949   3.307   8.682
 2444SOL     OW 7897   1.351   2.452   8.881
 2444SOL    HW1 7898   1.379   2.409   8.966
 2444SOL    HW2 7899   1.376   2.548   8.882
 2445SOL     OW 7900   0.803   3.264   8.372
 2445SOL    HW1 7901   0.893   3.278   8.330
 2445SOL    HW2 7902   0.732   3.266   8.301
 2446SOL     OW 7903   0.922   2.365   8.347
 2446SOL    HW1 7904   0.897   2.356   8.251
 2446SOL    HW2 7905   0.970   2.283   8.378
 2447SOL     OW 7906   0.539   1.926   7.960
 2447SOL    HW1 7907   0.458   1.927   8.018
 2447SOL    HW2 7908   0.542   2.009   7.905
 2448SOL     OW 7909   1.434   3.050   7.489
 2448SOL    HW1 7910   1.466   2.974   7.546
 2448SOL    HW2 7911   1.342   3.077   7.519
 2449SOL     OW 7912   0.297   1.897   7.619
 2449SOL    HW1 7913   0.346   1.981   7.598
 2449SOL    HW2 7914   0.359   1.832   7.664
 2450SOL     OW 7915   0.935   2.098   7.928
 2450SOL    HW1 7916   0.887   2.139   7.850
 2450SOL    HW2 7917   1.034   2.096   7.909
 2451SOL     OW 7918   1.076   2.545   8.912
 2451SOL    HW1 7919   0.996   2.484   8.915
 2451SOL    HW2 7920   1.157   2.492   8.888
 2452SOL     OW 7921   1.227   3.432   8.241
 2452SOL    HW1 7922   1.248   3.506   8.176
 2452SOL    HW2 7923   1.295   3.432   8.314
 2453SOL     OW 7924   0.459   3.014   8.189
 2453SOL    HW1 7925   0.388   2.987   8.254
 2453SOL    HW2 7926   0.433   2.986   8.096
 2454SOL     OW 7927   1.271   3.659   8.039
 2454SOL    HW1 7928   1.315   3.723   7.975
 2454SOL    HW2 7929   1.221   3.711   8.109
 2455SOL     OW 7930   1.032   2.411   7.464
 2455SOL    HW1 7931   0.991   2.493   7.425
 2455SOL    HW2 7932   1.096   2.437   7.537
 2456SOL     OW 7933   0.078   2.418   8.834
 2456SOL    HW1 7934   0.170   2.417   8.793
 2456SOL    HW2 7935   0.072   2.492   8.901
 2457SOL     OW 7936   0.561   2.084   8.595
 2457SOL    HW1 7937   0.599   2.000   8.632
 2457SOL    HW2 7938   0.473   2.103   8.639
 2458SOL     OW 7939   0.866   2.316   8.090
 2458SOL    HW1 7940   0.834   2.388   8.028
 2458SOL    HW2 7941   0.890   2.235   8.037
 2459SOL     OW 7942   1.017   1.901   8.201
 2459SOL    HW1 7943   0.945   1.906   8.132
 2459SOL    HW2 7944   0.993   1.832   8.270
 2460SOL     OW 7945   1.429   3.035   8.315
 2460SOL    HW1 7946   1.374   2.951   8.308
 2460SOL    HW2 7947   1.455   3.064   8.223
 2461SOL     OW 7948   1.466   2.452   8.440
 2461SOL    HW1 7949   1.436   2.357   8.447
 2461SOL    HW2 7950   1.539   2.468   8.506
 2462SOL     OW 7951   1.857   2.695   7.825
 2462SOL    HW1 7952   1.899   2.631   7.889
 2462SOL    HW2 7953   1.819   2.644   7.747
 2463SOL     OW 7954   0.488   3.247   7.622
 2463SOL    HW1 7955   0.401   3.232   7.669
 2463SOL    HW2 7956   0.471   3.273   7.527
 2464SOL     OW 7957   1.664   3.142   8.105
 2464SOL    HW1 7958   1.763   3.150   8.119
 2464SOL    HW2 7959   1.619   3.226   8.136
 2465SOL     OW 7960   0.527   2.118   7.776
 2465SOL    HW1 7961   0.554   2.059   7.701
 2465SOL    HW2 7962   0.527   2.213   7.745
 2466SOL     OW 7963   1.754   3.085   9.036
 2466SOL    HW1 7964   1.845   3.046   9.023
 2466SOL    HW2 7965   1.762   3.181   9.060
 2467SOL     OW 7966   1.064   3.209   8.788
 2467SOL    HW1 7967   0.984   3.186   8.843
 2467SOL    HW2 7968   1.147   3.183   8.837
 2468SOL     OW 7969   1.592   3.491   9.073
 2468SOL    HW1 7970   1.619   3.525   8.983
 2468SOL    HW2 7971   1.671   3.453   9.119
 2469SOL     OW 7972   1.111   3.057   8.548
 2469SOL    HW1 7973   1.071   3.101   8.629
 2469SOL    HW2 7974   1.070   3.094   8.465
 2470SOL     OW 7975   1.638   2.961   8.527
 2470SOL    HW1 7976   1.643   3.042   8.586
 2470SOL    HW2 7977   1.552   2.963   8.476
 2471SOL     OW 7978   0.915   1.951   8.850
 2471SOL    HW1 7979   0.940   1.931   8.755
 2471SOL    HW2 7980   0.987   2.007   8.892
 2472SOL     OW 7981   0.980   2.978   9.167
 2472SOL    HW1 7982   0.881   2.984   9.177
 2472SOL    HW2 7983   1.003   2.898   9.111
 2473SOL     OW 7984   0.705   2.912   7.816
 2473SOL    HW1 7985   0.691   2.919   7.915
 2473SOL    HW2 7986   0.789   2.861   7.798
 2474SOL     OW 7987   0.410   2.675   8.699
 2474SOL    HW1 7988   0.496   2.687   8.749
 2474SOL    HW2 7989   0.368   2.588   8.726
 2475SOL     OW 7990   1.274   2.248   8.710
 2475SOL    HW1 7991   1.295   2.322   8.774
 2475SOL    HW2 7992   1.185   2.265   8.667
 2476SOL     OW 7993   0.064   3.426   8.779
 2476SOL    HW1 7994   0.018   3.508   8.745
 2476SOL    HW2 7995   0.162   3.445   8.788
 2477SOL     OW 7996   0.367   2.962   7.949
 2477SOL    HW1 7997   0.360   3.045   7.893
 2477SOL    HW2 7998   0.371   2.882   7.889
 2478SOL     OW 7999   0.566   2.399   8.313
 2478SOL    HW1 8000   0.578   2.465   8.239
 2478SOL    HW2 8001   0.612   2.433   8.396
 2479SOL     OW 8002   1.252   3.210   7.836
 2479SOL    HW1 8003   1.302   3.287   7.876
 2479SOL    HW2 8004   1.157   3.212   7.868
 2480SOL     OW 8005   1.272   3.307   8.590
 2480SOL    HW1 8006   1.319   3.320   8.677
 2480SOL    HW2 8007   1.206   3.233   8.599
 2481SOL     OW 8008   1.582   2.501   7.920
 2481SOL    HW1 8009   1.551   2.562   7.993
 2481SOL    HW2 8010   1.632   2.553   7.851
 2482SOL     OW 8011   0.354   3.372   8.777
 2482SOL    HW1 8012   0.333   3.328   8.690
 2482SOL    HW2 8013   0.451   3.398   8.780
 2483SOL     OW 8014   0.402   2.613   9.046
 2483SOL    HW1 8015   0.470   2.668   8.999
 2483SOL    HW2 8016   0.442   2.525   9.073
 2484SOL     OW 8017   1.587   2.641   9.118
 2484SOL    HW1 8018   1.495   2.679   9.113
 2484SOL    HW2 8019   1.647   2.688   9.053
 2485SOL     OW 8020   1.013   1.967   9.218
 2485SOL    HW1 8021   1.019   2.052   9.166
 2485SOL    HW2 8022   1.045   1.891   9.161
 2486SOL     OW 8023   0.504   1.912   9.188
 2486SOL    HW1 8024   0.462   1.855   9.118
 2486SOL    HW2 8025   0.438   1.981   9.220
 2487SOL     OW 8026   0.573   2.732   8.477
 2487SOL    HW1 8027   0.617   2.821   8.468
 2487SOL    HW2 8028   0.510   2.732   8.554
 2488SOL     OW 8029   1.360   2.724   8.493
 2488SOL    HW1 8030   1.285   2.724   8.427
 2488SOL    HW2 8031   1.397   2.632   8.502
 2489SOL     OW 8032   1.209   2.387   7.723
 2489SOL    HW1 8033   1.222   2.303   7.777
 2489SOL    HW2 8034   1.180   2.461   7.783
 2490SOL     OW 8035   0.307   2.075   8.679
 2490SOL    HW1 8036   0.284   2.112   8.769
 2490SOL    HW2 8037   0.277   1.980   8.673
 2491SOL     OW 8038   0.037   3.172   8.730
 2491SOL    HW1 8039   0.090   3.123   8.798
 2491SOL    HW2 8040   0.059   3.270   8.735
 2492SOL     OW 8041   0.732   2.496   8.512
 2492SOL    HW1 8042   0.791   2.470   8.436
 2492SOL    HW2 8043   0.704   2.592   8.501
 2493SOL     OW 8044   1.728   2.797   9.302
 2493SOL    HW1 8045   1.682   2.790   9.213
 2493SOL    HW2 8046   1.666   2.841   9.368
 2494SOL     OW 8047   0.307   1.925   8.066
 2494SOL    HW1 8048   0.296   2.019   8.099
 2494SOL    HW2 8049   0.302   1.862   8.143
 2495SOL     OW 8050   1.023   2.628   8.414
 2495SOL    HW1 8051   1.038   2.649   8.510
 2495SOL    HW2 8052   0.993   2.533   8.405
 2496SOL     OW 8053   0.980   3.435   9.148
 2496SOL    HW1 8054   0.960   3.479   9.060
 2496SOL    HW2 8055   1.019   3.344   9.132
 2497SOL     OW 8056   1.859   3.380   9.053
 2497SOL    HW1 8057   1.873   3.407   8.958
 2497SOL    HW2 8058   1.942   3.402   9.106
 2498SOL     OW 8059   0.350   2.760   9.252
 2498SOL    HW1 8060   0.426   2.804   9.300
 2498SOL    HW2 8061   0.385   2.713   9.170
 2499SOL     OW 8062   1.303   2.700   7.490
 2499SOL    HW1 8063   1.337   2.607   7.505
 2499SOL    HW2 8064   1.321   2.727   7.395
 2500SOL     OW 8065   1.068   3.195   8.297
 2500SOL    HW1 8066   1.075   3.111   8.242
 2500SOL    HW2 8067   1.130   3.264   8.261
 2501SOL     OW 8068   0.319   2.672   8.397
 2501SOL    HW1 8069   0.412   2.708   8.402
 2501SOL    HW2 8070   0.313   2.587   8.449
 2502SOL     OW 8071   0.339   2.371   8.454
 2502SOL    HW1 8072   0.287   2.288   8.437
 2502SOL    HW2 8073   0.416   2.376   8.390
 2503SOL     OW 8074   1.138   2.242   9.126
 2503SOL    HW1 8075   1.093   2.305   9.190
 2503SOL    HW2 8076   1.231   2.273   9.109
 2504SOL     OW 8077   1.160   2.069   8.925
 2504SOL    HW1 8078   1.160   2.133   9.002
 2504SOL    HW2 8079   1.188   2.117   8.842
 2505SOL     OW 8080   0.008   3.188   7.648
 2505SOL    HW1 8081  -0.085   3.209   7.617
 2505SOL    HW2 8082   0.018   3.089   7.661
 2506SOL     OW 8083   0.088   3.663   8.375
 2506SOL    HW1 8084   0.046   3.577   8.348
 2506SOL    HW2 8085   0.182   3.666   8.341
 2507SOL     OW 8086   0.504   3.430   8.358
 2507SOL    HW1 8087   0.570   3.504   8.367
 2507SOL    HW2 8088   0.548   3.351   8.316
 2508SOL     OW 8089   1.002   2.658   8.686
 2508SOL    HW1 8090   1.043   2.626   8.772
 2508SOL    HW2 8091   0.906   2.631   8.683
 2509SOL     OW 8092   0.040   2.406   8.562
 2509SOL    HW1 8093   0.125   2.373   8.521
 2509SOL    HW2 8094   0.053   2.421   8.660
 2510SOL     OW 8095   0.189   2.382   9.170
 2510SOL    HW1 8096   0.248   2.342   9.100
 2510SOL    HW2 8097   0.131   2.453   9.129
 2511SOL     OW 8098   1.369   2.812   9.108
 2511SOL    HW1 8099   1.408   2.901   9.128
 2511SOL    HW2 8100   1.379   2.792   9.011
 2512SOL     OW 8101   0.815   2.434   7.773
 2512SOL    HW1 8102   0.822   2.345   7.727
 2512SOL    HW2 8103   0.721   2.468   7.765
 2513SOL     OW 8104   1.657   2.466   8.654
 2513SOL    HW1 8105   1.619   2.397   8.716
 2513SOL    HW2 8106   1.739   2.430   8.610
 2514SOL     OW 8107   0.252   3.426   9.192
 2514SOL    HW1 8108   0.222   3.483   9.268
 2514SOL    HW2 8109   0.245   3.329   9.218
 2515SOL     OW 8110   0.671   2.326   8.717
 2515SOL    HW1 8111   0.637   2.237   8.687
 2515SOL    HW2 8112   0.697   2.380   8.637
 2516SOL     OW 8113   0.930   3.540   8.913
 2516SOL    HW1 8114   0.906   3.522   8.818
 2516SOL    HW2 8115   0.960   3.634   8.923
 2517SOL     OW 8116   0.473   2.362   7.639
 2517SOL    HW1 8117   0.534   2.442   7.643
 2517SOL    HW2 8118   0.378   2.393   7.646
 2518SOL     OW 8119   0.159   2.999   8.914
 2518SOL    HW1 8120   0.181   2.938   8.990
 2518SOL    HW2 8121   0.169   2.950   8.828
 2519SOL     OW 8122   1.347   2.921   8.682
 2519SOL    HW1 8123   1.371   2.858   8.608
 2519SOL    HW2 8124   1.257   2.961   8.664
 2520SOL     OW 8125   1.302   2.717   7.757
 2520SOL    HW1 8126   1.216   2.686   7.799
 2520SOL    HW2 8127   1.298   2.703   7.658
 2521SOL     OW 8128   1.759   3.609   8.602
 2521SOL    HW1 8129   1.820   3.639   8.529
 2521SOL    HW2 8130   1.721   3.520   8.580
 2522SOL     OW 8131   1.252   3.593   8.576
 2522SOL    HW1 8132   1.336   3.598   8.522
 2522SOL    HW2 8133   1.229   3.497   8.594
 2523SOL     OW 8134   0.083   3.120   8.470
 2523SOL    HW1 8135   0.078   3.119   8.570
 2523SOL    HW2 8136   0.000   3.079   8.432
 2524SOL     OW 8137   0.688   3.524   9.164
 2524SOL    HW1 8138   0.632   3.605   9.173
 2524SOL    HW2 8139   0.740   3.528   9.078
 2525SOL     OW 8140   1.388   3.435   7.925
 2525SOL    HW1 8141   1.455   3.447   7.851
 2525SOL    HW2 8142   1.348   3.524   7.948
 2526SOL     OW 8143   0.130   3.656   9.299
 2526SOL    HW1 8144   0.089   3.582   9.352
 2526SOL    HW2 8145   0.194   3.707   9.357
 2527SOL     OW 8146   1.280   2.789   8.120
 2527SOL    HW1 8147   1.340   2.708   8.122
 2527SOL    HW2 8148   1.320   2.858   8.060
 2528SOL     OW 8149   0.830   3.135   8.870
 2528SOL    HW1 8150   0.825   3.168   8.965
 2528SOL    HW2 8151   0.744   3.154   8.824
 2529SOL     OW 8152   0.672   3.478   7.602
 2529SOL    HW1 8153   0.681   3.488   7.503
 2529SOL    HW2 8154   0.632   3.389   7.623
 2530SOL     OW 8155   1.650   3.582   8.842
 2530SOL    HW1 8156   1.703   3.592   8.758
 2530SOL    HW2 8157   1.623   3.672   8.876
 2531SOL     OW 8158   0.263   2.188   8.168
 2531SOL    HW1 8159   0.184   2.239   8.134
 2531SOL    HW2 8160   0.254   2.173   8.266
 2532SOL     OW 8161   1.194   3.474   7.479
 2532SOL    HW1 8162   1.200   3.381   7.516
 2532SOL    HW2 8163   1.135   3.474   7.399
 2533SOL     OW 8164   0.822   2.864   8.820
 2533SOL    HW1 8165   0.862   2.863   8.728
 2533SOL    HW2 8166   0.832   2.956   8.860
 2534SOL     OW 8167   0.916   2.772   7.739
 2534SOL    HW1 8168   0.979   2.810   7.671
 2534SOL    HW2 8169   0.956   2.689   7.778
 2535SOL     OW 8170   1.504   3.469   7.492
 2535SOL    HW1 8171   1.412   3.506   7.499
 2535SOL    HW2 8172   1.542   3.489   7.402
 2536SOL     OW 8173   0.372   3.150   8.938
 2536SOL    HW1 8174   0.359   3.243   8.904
 2536SOL    HW2 8175   0.288   3.098   8.925
 2537SOL     OW 8176   1.614   3.154   8.737
 2537SOL    HW1 8177   1.674   3.157   8.817
 2537SOL    HW2 8178   1.539   3.218   8.750
 2538SOL     OW 8179   1.039   2.960   8.144
 2538SOL    HW1 8180   0.969   2.913   8.198
 2538SOL    HW2 8181   1.098   2.892   8.101
 2539SOL     OW 8182   1.014   2.098   8.419
 2539SOL    HW1 8183   1.006   2.062   8.326
 2539SOL    HW2 8184   1.012   2.022   8.484
 2540SOL     OW 8185   0.590   3.349   7.939
 2540SOL    HW1 8186   0.632   3.291   7.869
 2540SOL    HW2 8187   0.546   3.428   7.895
 2541SOL     OW 8188   1.709   2.247   8.829
 2541SOL    HW1 8189   1.782   2.316   8.833
 2541SOL    HW2 8190   1.737   2.172   8.770
 2542SOL     OW 8191   0.255   3.210   7.738
 2542SOL    HW1 8192   0.159   3.211   7.711
 2542SOL    HW2 8193   0.267   3.263   7.822
 2543SOL     OW 8194   0.105   2.875   9.174
 2543SOL    HW1 8195   0.028   2.842   9.228
 2543SOL    HW2 8196   0.190   2.845   9.216
 2544SOL     OW 8197   0.672   2.065   8.937
 2544SOL    HW1 8198   0.762   2.049   8.897
 2544SOL    HW2 8199   0.680   2.070   9.036
 2545SOL     OW 8200   0.075   2.207   7.481
 2545SOL    HW1 8201  -0.017   2.179   7.452
 2545SOL    HW2 8202   0.106   2.284   7.425
 2546SOL     OW 8203   1.440   2.718   8.846
 2546SOL    HW1 8204   1.383   2.770   8.783
 2546SOL    HW2 8205   1.536   2.730   8.822
 2547SOL     OW 8206   0.072   2.028   7.766
 2547SOL    HW1 8207   0.055   2.111   7.712
 2547SOL    HW2 8208   0.162   1.991   7.744
 2548SOL     OW 8209   1.183   3.197   7.567
 2548SOL    HW1 8210   1.084   3.186   7.569
 2548SOL    HW2 8211   1.217   3.212   7.660
 2549SOL     OW 8212   0.613   2.704   8.879
 2549SOL    HW1 8213   0.669   2.785   8.862
 2549SOL    HW2 8214   0.672   2.624   8.882
 2550SOL     OW 8215   1.493   3.629   8.407
 2550SOL    HW1 8216   1.526   3.693   8.338
 2550SOL    HW2 8217   1.559   3.623   8.482
 2551SOL     OW 8218   0.716   2.427   9.156
 2551SOL    HW1 8219   0.735   2.492   9.230
 2551SOL    HW2 8220   0.776   2.347   9.165
 2552SOL     OW 8221   1.450   3.082   9.081
 2552SOL    HW1 8222   1.441   3.072   9.180
 2552SOL    HW2 8223   1.546   3.075   9.055
 2553SOL     OW 8224   0.390   3.603   9.008
 2553SOL    HW1 8225   0.299   3.644   9.006
 2553SOL    HW2 8226   0.383   3.509   9.040
 2554SOL     OW 8227   1.674   2.745   8.702
 2554SOL    HW1 8228   1.647   2.656   8.665
 2554SOL    HW2 8229   1.675   2.813   8.629
 2555SOL     OW 8230   1.225   2.187   7.897
 2555SOL    HW1 8231   1.290   2.113   7.886
 2555SOL    HW2 8232   1.245   2.237   7.981
 2556SOL     OW 8233   0.594   2.607   8.100
 2556SOL    HW1 8234   0.644   2.692   8.081
 2556SOL    HW2 8235   0.506   2.609   8.052
 2557SOL     OW 8236   1.777   2.204   9.090
 2557SOL    HW1 8237   1.760   2.235   8.996
 2557SOL    HW2 8238   1.693   2.167   9.128
 2558SOL     OW 8239   1.730   2.796   8.965
 2558SOL    HW1 8240   1.768   2.887   8.980
 2558SOL    HW2 8241   1.722   2.779   8.866
 2559SOL     OW 8242   0.859   3.236   7.464
 2559SOL    HW1 8243   0.813   3.251   7.552
 2559SOL    HW2 8244   0.903   3.321   7.434
 2560SOL     OW 8245   0.661   3.652   8.401
 2560SOL    HW1 8246   0.615   3.740   8.388
 2560SOL    HW2 8247   0.760   3.664   8.394
 2561SOL     OW 8248   0.859   2.818   8.309
 2561SOL    HW1 8249   0.913   2.749   8.357
 2561SOL    HW2 8250   0.827   2.887   8.375
 2562SOL     OW 8251   1.083   2.846   7.535
 2562SOL    HW1 8252   1.060   2.899   7.453
 2562SOL    HW2 8253   1.164   2.790   7.516
 2563SOL     OW 8254   1.861   3.431   8.299
 2563SOL    HW1 8255   1.790   3.419   8.229
 2563SOL    HW2 8256   1.862   3.352   8.359
 2564SOL     OW 8257   0.221   3.176   9.292
 2564SOL    HW1 8258   0.156   3.103   9.271
 2564SOL    HW2 8259   0.225   3.190   9.390
 2565SOL     OW 8260   0.079   3.102   8.101
 2565SOL    HW1 8261   0.078   3.055   8.189
 2565SOL    HW2 8262   0.161   3.074   8.050
 2566SOL     OW 8263   0.672   3.253   9.072
 2566SOL    HW1 8264   0.594   3.203   9.110
 2566SOL    HW2 8265   0.669   3.348   9.103
 2567SOL     OW 8266   0.428   2.286   7.968
 2567SOL    HW1 8267   0.458   2.214   7.906
 2567SOL    HW2 8268   0.389   2.246   8.051
 2568SOL     OW 8269   1.705   3.349   8.552
 2568SOL    HW1 8270   1.612   3.324   8.525
 2568SOL    HW2 8271   1.731   3.299   8.634
 2569SOL     OW 8272   0.317   2.409   8.728
 2569SOL    HW1 8273   0.355   2.350   8.800
 2569SOL    HW2 8274   0.357   2.383   8.640
 2570SOL     OW 8275   0.812   3.448   8.135
 2570SOL    HW1 8276   0.844   3.458   8.041
 2570SOL    HW2 8277   0.733   3.386   8.137
 2571SOL     OW 8278   1.424   2.076   8.560
 2571SOL    HW1 8279   1.476   2.011   8.615
 2571SOL    HW2 8280   1.375   2.139   8.621
 2572SOL     OW 8281   1.001   1.896   8.602
 2572SOL    HW1 8282   0.938   1.824   8.571
 2572SOL    HW2 8283   1.094   1.860   8.602
 2573SOL     OW 8284   0.770   3.192   7.749
 2573SOL    HW1 8285   0.724   3.105   7.766
 2573SOL    HW2 8286   0.861   3.189   7.790
 2574SOL     OW 8287   0.618   3.429   8.732
 2574SOL    HW1 8288   0.613   3.511   8.789
 2574SOL    HW2 8289   0.707   3.426   8.687
 2575SOL     OW 8290   1.300   2.315   8.139
 2575SOL    HW1 8291   1.241   2.395   8.143
 2575SOL    HW2 8292   1.315   2.280   8.232
 2576SOL     OW 8293   1.593   2.083   8.330
 2576SOL    HW1 8294   1.509   2.082   8.384
 2576SOL    HW2 8295   1.595   2.166   8.274
 2577SOL     OW 8296   0.039   2.939   7.748
 2577SOL    HW1 8297   0.138   2.928   7.739
 2577SOL    HW2 8298  -0.001   2.853   7.780
 2578SOL     OW 8299   0.875   3.508   7.785
 2578SOL    HW1 8300   0.798   3.473   7.731
 2578SOL    HW2 8301   0.843   3.579   7.847
 2579SOL     OW 8302   0.230   2.490   9.423
 2579SOL    HW1 8303   0.137   2.488   9.460
 2579SOL    HW2 8304   0.231   2.451   9.331
 2580SOL     OW 8305   0.225   2.137  10.306
 2580SOL    HW1 8306   0.260   2.120  10.398
 2580SOL    HW2 8307   0.137   2.092  10.294
 2581SOL     OW 8308   0.019   2.230   9.957
 2581SOL    HW1 8309  -0.063   2.273   9.996
 2581SOL    HW2 8310  -0.009   2.157   9.894
 2582SOL     OW 8311   0.569   3.137  10.475
 2582SOL    HW1 8312   0.476   3.130  10.438
 2582SOL    HW2 8313   0.580   3.226  10.519
 2583SOL     OW 8314   1.555   3.373  10.013
 2583SOL    HW1 8315   1.498   3.357  10.094
 2583SOL    HW2 8316   1.496   3.383   9.933
 2584SOL     OW 8317   1.135   2.565  10.027
 2584SOL    HW1 8318   1.192   2.643  10.002
 2584SOL    HW2 8319   1.075   2.591  10.103
 2585SOL     OW 8320   1.755   2.469   9.541
 2585SOL    HW1 8321   1.743   2.456   9.442
 2585SOL    HW2 8322   1.725   2.388   9.590
 2586SOL     OW 8323   0.768   3.006  10.333
 2586SOL    HW1 8324   0.690   3.023  10.393
 2586SOL    HW2 8325   0.802   3.093  10.297
 2587SOL     OW 8326   0.850   2.660  11.133
 2587SOL    HW1 8327   0.846   2.736  11.198
 2587SOL    HW2 8328   0.872   2.696  11.042
 2588SOL     OW 8329   0.685   2.874   9.975
 2588SOL    HW1 8330   0.754   2.858  10.045
 2588SOL    HW2 8331   0.612   2.931  10.013
 2589SOL     OW 8332   0.686   3.023  11.113
 2589SOL    HW1 8333   0.746   3.102  11.127
 2589SOL    HW2 8334   0.600   3.054  11.072
 2590SOL     OW 8335   0.335   3.297  10.371
 2590SOL    HW1 8336   0.257   3.266  10.318
 2590SOL    HW2 8337   0.393   3.355  10.314
 2591SOL     OW 8338   1.460   3.367  10.649
 2591SOL    HW1 8339   1.484   3.461  10.675
 2591SOL    HW2 8340   1.444   3.313  10.731
 2592SOL     OW 8341   0.438   2.254  10.809
 2592SOL    HW1 8342   0.520   2.198  10.818
 2592SOL    HW2 8343   0.357   2.196  10.813
 2593SOL     OW 8344   1.603   2.309  10.047
 2593SOL    HW1 8345   1.529   2.355   9.997
 2593SOL    HW2 8346   1.654   2.377  10.100
 2594SOL     OW 8347   0.231   3.575   9.793
 2594SOL    HW1 8348   0.265   3.652   9.847
 2594SOL    HW2 8349   0.275   3.575   9.703
 2595SOL     OW 8350   1.127   3.203  11.000
 2595SOL    HW1 8351   1.174   3.203  11.088
 2595SOL    HW2 8352   1.079   3.116  10.989
 2596SOL     OW 8353   0.230   3.296   9.848
 2596SOL    HW1 8354   0.204   3.392   9.848
 2596SOL    HW2 8355   0.159   3.242   9.893
 2597SOL     OW 8356   0.240   2.953  10.196
 2597SOL    HW1 8357   0.254   2.869  10.248
 2597SOL    HW2 8358   0.185   3.017  10.251
 2598SOL     OW 8359   0.620   3.648  10.749
 2598SOL    HW1 8360   0.528   3.631  10.784
 2598SOL    HW2 8361   0.648   3.740  10.775
 2599SOL     OW 8362   0.606   2.826   9.433
 2599SOL    HW1 8363   0.613   2.910   9.379
 2599SOL    HW2 8364   0.652   2.839   9.521
 2600SOL     OW 8365   1.594   1.976  10.790
 2600SOL    HW1 8366   1.576   2.043  10.718
 2600SOL    HW2 8367   1.591   2.022  10.879
 2601SOL     OW 8368   0.122   2.505   9.873
 2601SOL    HW1 8369   0.077   2.417   9.890
 2601SOL    HW2 8370   0.121   2.559   9.957
 2602SOL     OW 8371   1.842   3.629   9.669
 2602SOL    HW1 8372   1.896   3.600   9.749
 2602SOL    HW2 8373   1.872   3.719   9.640
 2603SOL     OW 8374   0.027   3.458   9.427
 2603SOL    HW1 8375   0.008   3.362   9.448
 2603SOL    HW2 8376  -0.006   3.516   9.502
 2604SOL     OW 8377   1.689   2.784   9.922
 2604SOL    HW1 8378   1.784   2.755   9.930
 2604SOL    HW2 8379   1.681   2.849   9.847
 2605SOL     OW 8380   1.641   2.970   9.742
 2605SOL    HW1 8381   1.727   2.972   9.690
 2605SOL    HW2 8382   1.655   3.017   9.830
 2606SOL     OW 8383   0.113   2.599  10.907
 2606SOL    HW1 8384   0.201   2.586  10.952
 2606SOL    HW2 8385   0.100   2.696  10.885
 2607SOL     OW 8386   0.613   3.227  10.036
 2607SOL    HW1 8387   0.564   3.140  10.045
 2607SOL    HW2 8388   0.590   3.270   9.949
 2608SOL     OW 8389   1.293   3.090  10.733
 2608SOL    HW1 8390   1.330   3.017  10.675
 2608SOL    HW2 8391   1.345   3.095  10.818
 2609SOL     OW 8392   0.809   1.866   9.812
 2609SOL    HW1 8393   0.849   1.957   9.803
 2609SOL    HW2 8394   0.709   1.874   9.818
 2610SOL     OW 8395   0.197   2.838  10.574
 2610SOL    HW1 8396   0.286   2.793  10.560
 2610SOL    HW2 8397   0.124   2.773  10.555
 2611SOL     OW 8398   1.525   2.861   9.500
 2611SOL    HW1 8399   1.462   2.785   9.513
 2611SOL    HW2 8400   1.573   2.879   9.586
 2612SOL     OW 8401   1.187   3.654  10.926
 2612SOL    HW1 8402   1.211   3.714  10.850
 2612SOL    HW2 8403   1.194   3.559  10.896
 2613SOL     OW 8404   0.317   2.113  11.111
 2613SOL    HW1 8405   0.388   2.184  11.117
 2613SOL    HW2 8406   0.229   2.152  11.139
 2614SOL     OW 8407   1.466   3.279  10.263
 2614SOL    HW1 8408   1.407   3.285  10.343
 2614SOL    HW2 8409   1.451   3.191  10.217
 2615SOL     OW 8410   1.667   3.576   9.882
 2615SOL    HW1 8411   1.626   3.553   9.794
 2615SOL    HW2 8412   1.649   3.502   9.947
 2616SOL     OW 8413   0.598   2.591   9.580
 2616SOL    HW1 8414   0.622   2.660   9.512
 2616SOL    HW2 8415   0.520   2.624   9.634
 2617SOL     OW 8416   1.281   2.207  10.254
 2617SOL    HW1 8417   1.195   2.157  10.241
 2617SOL    HW2 8418   1.343   2.153  10.310
 2618SOL     OW 8419   1.576   3.524   9.617
 2618SOL    HW1 8420   1.665   3.570   9.620
 2618SOL    HW2 8421   1.555   3.500   9.522
 2619SOL     OW 8422   0.807   2.467  10.775
 2619SOL    HW1 8423   0.760   2.464  10.864
 2619SOL    HW2 8424   0.756   2.412  10.709
 2620SOL     OW 8425   1.394   2.331  10.984
 2620SOL    HW1 8426   1.374   2.374  11.072
 2620SOL    HW2 8427   1.472   2.269  10.993
 2621SOL     OW 8428   0.973   2.752  10.882
 2621SOL    HW1 8429   1.019   2.668  10.853
 2621SOL    HW2 8430   0.917   2.786  10.807
 2622SOL     OW 8431   0.991   2.272  10.552
 2622SOL    HW1 8432   0.914   2.306  10.606
 2622SOL    HW2 8433   0.957   2.221  10.473
 2623SOL     OW 8434   1.041   2.563   9.739
 2623SOL    HW1 8435   1.067   2.559   9.835
 2623SOL    HW2 8436   0.956   2.512   9.725
 2624SOL     OW 8437   0.076   2.673  10.099
 2624SOL    HW1 8438   0.175   2.661  10.108
 2624SOL    HW2 8439   0.052   2.768  10.120
 2625SOL     OW 8440   0.130   3.683  10.881
 2625SOL    HW1 8441   0.120   3.668  10.980
 2625SOL    HW2 8442   0.044   3.719  10.845
 2626SOL     OW 8443   0.865   2.210   9.505
 2626SOL    HW1 8444   0.924   2.273   9.456
 2626SOL    HW2 8445   0.884   2.116   9.476
 2627SOL     OW 8446   1.719   2.447  11.141
 2627SOL    HW1 8447   1.693   2.536  11.105
 2627SOL    HW2 8448   1.717   2.379  11.068
 2628SOL     OW 8449   1.362   3.006   9.855
 2628SOL    HW1 8450   1.445   2.977   9.807
 2628SOL    HW2 8451   1.313   3.073   9.799
 2629SOL     OW 8452   0.550   2.058  10.195
 2629SOL    HW1 8453   0.545   2.053  10.295
 2629SOL    HW2 8454   0.552   2.154  10.166
 2630SOL     OW 8455   1.008   3.318   9.787
 2630SOL    HW1 8456   0.962   3.390   9.735
 2630SOL    HW2 8457   1.004   3.338   9.885
 2631SOL     OW 8458   0.351   3.663  10.163
 2631SOL    HW1 8459   0.401   3.577  10.169
 2631SOL    HW2 8460   0.416   3.740  10.160
 2632SOL     OW 8461   1.795   2.928  10.183
 2632SOL    HW1 8462   1.733   2.913  10.107
 2632SOL    HW2 8463   1.743   2.939  10.268
 2633SOL     OW 8464   1.227   3.412  10.816
 2633SOL    HW1 8465   1.233   3.335  10.880
 2633SOL    HW2 8466   1.175   3.386  10.736
 2634SOL     OW 8467   0.321   2.805   9.552
 2634SOL    HW1 8468   0.403   2.844   9.510
 2634SOL    HW2 8469   0.294   2.723   9.503
 2635SOL     OW 8470   1.458   2.597  10.038
 2635SOL    HW1 8471   1.453   2.532  10.113
 2635SOL    HW2 8472   1.538   2.656  10.051
 2636SOL     OW 8473   0.461   3.128  11.037
 2636SOL    HW1 8474   0.411   3.129  10.951
 2636SOL    HW2 8475   0.398   3.110  11.113
 2637SOL     OW 8476   1.111   3.638   9.547
 2637SOL    HW1 8477   1.051   3.576   9.597
 2637SOL    HW2 8478   1.142   3.594   9.462
 2638SOL     OW 8479   0.202   2.147  10.808
 2638SOL    HW1 8480   0.122   2.207  10.795
 2638SOL    HW2 8481   0.192   2.098  10.894
 2639SOL     OW 8482   1.632   3.239   9.391
 2639SOL    HW1 8483   1.600   3.333   9.381
 2639SOL    HW2 8484   1.556   3.176   9.379
 2640SOL     OW 8485   0.464   3.605   9.633
 2640SOL    HW1 8486   0.497   3.644   9.719
 2640SOL    HW2 8487   0.540   3.598   9.568
 2641SOL     OW 8488   1.400   1.969   9.736
 2641SOL    HW1 8489   1.376   1.932   9.646
 2641SOL    HW2 8490   1.499   1.985   9.740
 2642SOL     OW 8491   0.249   3.647  10.551
 2642SOL    HW1 8492   0.306   3.582  10.601
 2642SOL    HW2 8493   0.233   3.614  10.458
 2643SOL     OW 8494   0.940   3.560  10.214
 2643SOL    HW1 8495   1.020   3.503  10.235
 2643SOL    HW2 8496   0.891   3.520  10.137
 2644SOL     OW 8497   0.382   2.562   9.790
 2644SOL    HW1 8498   0.427   2.472   9.787
 2644SOL    HW2 8499   0.288   2.551   9.823
 2645SOL     OW 8500   1.547   2.084  11.039
 2645SOL    HW1 8501   1.542   2.121  11.131
 2645SOL    HW2 8502   1.475   2.015  11.027
 2646SOL     OW 8503   0.614   1.984   9.427
 2646SOL    HW1 8504   0.712   1.962   9.434
 2646SOL    HW2 8505   0.583   1.967   9.334
 2647SOL     OW 8506   0.781   2.126  11.059
 2647SOL    HW1 8507   0.848   2.065  11.102
 2647SOL    HW2 8508   0.708   2.145  11.124
 2648SOL     OW 8509   0.888   3.376  10.505
 2648SOL    HW1 8510   0.865   3.351  10.411
 2648SOL    HW2 8511   0.949   3.307  10.544
 2649SOL     OW 8512   1.351   2.452  10.743
 2649SOL    HW1 8513   1.379   2.409  10.828
 2649SOL    HW2 8514   1.376   2.548  10.744
 2650SOL     OW 8515   0.803   3.264  10.234
 2650SOL    HW1 8516   0.893   3.278  10.192
 2650SOL    HW2 8517   0.732   3.266  10.163
 2651SOL     OW 8518   0.922   2.365  10.209
 2651SOL    HW1 8519   0.897   2.356  10.113
 2651SOL    HW2 8520   0.970   2.283  10.240
 2652SOL     OW 8521   0.539   1.926   9.822
 2652SOL    HW1 8522   0.458   1.927   9.880
 2652SOL    HW2 8523   0.542   2.009   9.767
 2653SOL     OW 8524   1.434   3.050   9.351
 2653SOL    HW1 8525   1.466   2.974   9.408
 2653SOL    HW2 8526   1.342   3.077   9.381
 2654SOL     OW 8527   0.297   1.897   9.481
 2654SOL    HW1 8528   0.346   1.981   9.460
 2654SOL    HW2 8529   0.359   1.832   9.526
 2655SOL     OW 8530   0.935   2.098   9.790
 2655SOL    HW1 8531   0.887   2.139   9.712
 2655SOL    HW2 8532   1.034   2.096   9.771
 2656SOL     OW 8533   1.076   2.545  10.774
 2656SOL    HW1 8534   0.996   2.484  10.777
 2656SOL    HW2 8535   1.157   2.492  10.750
 2657SOL     OW 8536   1.227   3.432  10.103
 2657SOL    HW1 8537   1.248   3.506  10.038
 2657SOL    HW2 8538   1.295   3.432  10.176
 2658SOL     OW 8539   0.459   3.014  10.051
 2658SOL    HW1 8540   0.388   2.987  10.116
 2658SOL    HW2 8541   0.433   2.986   9.958
 2659SOL     OW 8542   1.271   3.659   9.901
 2659SOL    HW1 8543   1.315   3.723   9.837
 2659SOL    HW2 8544   1.221   3.711   9.971
 2660SOL     OW 8545   1.032   2.411   9.326
 2660SOL    HW1 8546   0.991   2.493   9.287
 2660SOL    HW2 8547   1.096   2.437   9.399
 2661SOL     OW 8548   0.078   2.418  10.696
 2661SOL    HW1 8549   0.170   2.417  10.655
 2661SOL    HW2 8550   0.072   2.492  10.763
 2662SOL     OW 8551   0.561   2.084  10.457
 2662SOL    HW1 8552   0.599   2.000  10.494
 2662SOL    HW2 8553   0.473   2.103  10.501
 2663SOL     OW 8554   0.866   2.316   9.952
 2663SOL    HW1 8555   0.834   2.388   9.890
 2663SOL    HW2 8556   0.890   2.235   9.899
 2664SOL     OW 8557   1.017   1.901  10.063
 2664SOL    HW1 8558   0.945   1.906   9.994
 2664SOL    HW2 8559   0.993   1.832  10.132
 2665SOL     OW 8560   1.429   3.035  10.177
 2665SOL    HW1 8561   1.374   2.951  10.170
 2665SOL    HW2 8562   1.455   3.064  10.085
 2666SOL     OW 8563   1.466   2.452  10.302
 2666SOL    HW1 8564   1.436   2.357  10.309
 2666SOL    HW2 8565   1.539   2.468  10.368
 2667SOL     OW 8566   1.857   2.695   9.687
 2667SOL    HW1 8567   1.899   2.631   9.751
 2667SOL    HW2 8568   1.819   2.644   9.609
 2668SOL     OW 8569   0.488   3.247   9.484
 2668SOL    HW1 8570   0.401   3.232   9.531
 2668SOL    HW2 8571   0.471   3.273   9.389
 2669SOL     OW 8572   1.664   3.142   9.967
 2669SOL    HW1 8573   1.763   3.150   9.981
 2669SOL    HW2 8574   1.619   3.226   9.998
 2670SOL     OW 8575   1.390   2.437   9.388
 2670SOL    HW1 8576   1.336   2.416   9.469
 2670SOL    HW2 8577   1.481   2.396   9.397
 2671SOL     OW 8578   0.527   2.118   9.638
 2671SOL    HW1 8579   0.554   2.059   9.563
 2671SOL    HW2 8580   0.527   2.213   9.607
 2672SOL     OW 8581   1.754   3.085  10.898
 2672SOL    HW1 8582   1.845   3.046  10.885
 2672SOL    HW2 8583   1.762   3.181  10.922
 2673SOL     OW 8584   1.064   3.209  10.650
 2673SOL    HW1 8585   0.984   3.186  10.705
 2673SOL    HW2 8586   1.147   3.183  10.699
 2674SOL     OW 8587   1.592   3.491  10.935
 2674SOL    HW1 8588   1.619   3.525  10.845
 2674SOL    HW2 8589   1.671   3.453  10.981
 2675SOL     OW 8590   1.111   3.057  10.410
 2675SOL    HW1 8591   1.071   3.101  10.491
 2675SOL    HW2 8592   1.070   3.094  10.327
 2676SOL     OW 8593   1.638   2.961  10.389
 2676SOL    HW1 8594   1.643   3.042  10.448
 2676SOL    HW2 8595   1.552   2.963  10.338
 2677SOL     OW 8596   0.915   1.951  10.712
 2677SOL    HW1 8597   0.940   1.931  10.617
 2677SOL    HW2 8598   0.987   2.007  10.754
 2678SOL     OW 8599   0.980   2.978  11.029
 2678SOL    HW1 8600   0.881   2.984  11.039
 2678SOL    HW2 8601   1.003   2.898  10.973
 2679SOL     OW 8602   0.705   2.912   9.678
 2679SOL    HW1 8603   0.691   2.919   9.777
 2679SOL    HW2 8604   0.789   2.861   9.660
 2680SOL     OW 8605   0.410   2.675  10.561
 2680SOL    HW1 8606   0.496   2.687  10.611
 2680SOL    HW2 8607   0.368   2.588  10.588
 2681SOL     OW 8608   1.274   2.248  10.572
 2681SOL    HW1 8609   1.295   2.322  10.636
 2681SOL    HW2 8610   1.185   2.265  10.529
 2682SOL     OW 8611   0.064   3.426  10.641
 2682SOL    HW1 8612   0.018   3.508  10.607
 2682SOL    HW2 8613   0.162   3.445  10.650
 2683SOL     OW 8614   0.367   2.962   9.811
 2683SOL    HW1 8615   0.360   3.045   9.755
 2683SOL    HW2 8616   0.371   2.882   9.751
 2684SOL     OW 8617   0.566   2.399  10.175
 2684SOL    HW1 8618   0.578   2.465  10.101
 2684SOL    HW2 8619   0.612   2.433  10.258
 2685SOL     OW 8620   1.252   3.210   9.698
 2685SOL    HW1 8621   1.302   3.287   9.738
 2685SOL    HW2 8622   1.157   3.212   9.730
 2686SOL     OW 8623   1.272   3.307  10.452
 2686SOL    HW1 8624   1.319   3.320  10.539
 2686SOL    HW2 8625   1.206   3.233  10.461
 2687SOL     OW 8626   1.582   2.501   9.782
 2687SOL    HW1 8627   1.551   2.562   9.855
 2687SOL    HW2 8628   1.632   2.553   9.713
 2688SOL     OW 8629   0.354   3.372  10.639
 2688SOL    HW1 8630   0.333   3.328  10.552
 2688SOL    HW2 8631   0.451   3.398  10.642
 2689SOL     OW 8632   0.402   2.613  10.908
 2689SOL    HW1 8633   0.470   2.668  10.861
 2689SOL    HW2 8634   0.442   2.525  10.935
 2690SOL     OW 8635   1.587   2.641  10.980
 2690SOL    HW1 8636   1.495   2.679  10.975
 2690SOL    HW2 8637   1.647   2.688  10.915
 2691SOL     OW 8638   1.013   1.967  11.080
 2691SOL    HW1 8639   1.019   2.052  11.028
 2691SOL    HW2 8640   1.045   1.891  11.023
 2692SOL     OW 8641   0.504   1.912  11.050
 2692SOL    HW1 8642   0.462   1.855  10.980
 2692SOL    HW2 8643   0.438   1.981  11.082
 2693SOL     OW 8644   0.573   2.732  10.339
 2693SOL    HW1 8645   0.617   2.821  10.330
 2693SOL    HW2 8646   0.510   2.732  10.416
 2694SOL     OW 8647   1.360   2.724  10.355
 2694SOL    HW1 8648   1.285   2.724  10.289
 2694SOL    HW2 8649   1.397   2.632  10.364
 2695SOL     OW 8650   1.209   2.387   9.585
 2695SOL    HW1 8651   1.222   2.303   9.639
 2695SOL    HW2 8652   1.180   2.461   9.645
 2696SOL     OW 8653   0.307   2.075  10.541
 2696SOL    HW1 8654   0.284   2.112  10.631
 2696SOL    HW2 8655   0.277   1.980  10.535
 2697SOL     OW 8656   0.037   3.172  10.592
 2697SOL    HW1 8657   0.090   3.123  10.660
 2697SOL    HW2 8658   0.059   3.270  10.597
 2698SOL     OW 8659   0.732   2.496  10.374
 2698SOL    HW1 8660   0.791   2.470  10.298
 2698SOL    HW2 8661   0.704   2.592  10.363
 2699SOL     OW 8662   1.728   2.797  11.164
 2699SOL    HW1 8663   1.682   2.790  11.075
 2699SOL    HW2 8664   1.666   2.841  11.230
 2700SOL     OW 8665   0.307   1.925   9.928
 2700SOL    HW1 8666   0.296   2.019   9.961
 2700SOL    HW2 8667   0.302   1.862  10.005
 2701SOL     OW 8668   1.622   2.229   9.684
 2701SOL    HW1 8669   1.624   2.153   9.748
 2701SOL    HW2 8670   1.574   2.306   9.724
 2702SOL     OW 8671   1.023   2.628  10.276
 2702SOL    HW1 8672   1.038   2.649  10.372
 2702SOL    HW2 8673   0.993   2.533  10.267
 2703SOL     OW 8674   0.980   3.435  11.010
 2703SOL    HW1 8675   0.960   3.479  10.922
 2703SOL    HW2 8676   1.019   3.344  10.994
 2704SOL     OW 8677   1.859   3.380  10.915
 2704SOL    HW1 8678   1.873   3.407  10.820
 2704SOL    HW2 8679   1.942   3.402  10.968
 2705SOL     OW 8680   0.350   2.760  11.114
 2705SOL    HW1 8681   0.426   2.804  11.162
 2705SOL    HW2 8682   0.385   2.713  11.032
 2706SOL     OW 8683   1.540   2.136   9.435
 2706SOL    HW1 8684   1.479   2.061   9.458
 2706SOL    HW2 8685   1.562   2.188   9.518
 2707SOL     OW 8686   1.303   2.700   9.352
 2707SOL    HW1 8687   1.337   2.607   9.367
 2707SOL    HW2 8688   1.321   2.727   9.257
 2708SOL     OW 8689   1.068   3.195  10.159
 2708SOL    HW1 8690   1.075   3.111  10.104
 2708SOL    HW2 8691   1.130   3.264  10.123
 2709SOL     OW 8692   0.319   2.672  10.259
 2709SOL    HW1 8693   0.412   2.708  10.264
 2709SOL    HW2 8694   0.313   2.587  10.311
 2710SOL     OW 8695   0.339   2.371  10.316
 2710SOL    HW1 8696   0.287   2.288  10.299
 2710SOL    HW2 8697   0.416   2.376  10.252
 2711SOL     OW 8698   1.138   2.242  10.988
 2711SOL    HW1 8699   1.093   2.305  11.052
 2711SOL    HW2 8700   1.231   2.273  10.971
 2712SOL     OW 8701   1.160   2.069  10.787
 2712SOL    HW1 8702   1.160   2.133  10.864
 2712SOL    HW2 8703   1.188   2.117  10.704
 2713SOL     OW 8704   0.008   3.188   9.510
 2713SOL    HW1 8705  -0.085   3.209   9.479
 2713SOL    HW2 8706   0.018   3.089   9.523
 2714SOL     OW 8707   0.088   3.663  10.237
 2714SOL    HW1 8708   0.046   3.577  10.210
 2714SOL    HW2 8709   0.182   3.666  10.203
 2715SOL     OW 8710   0.504   3.430  10.220
 2715SOL    HW1 8711   0.570   3.504  10.229
 2715SOL    HW2 8712   0.548   3.351  10.178
 2716SOL     OW 8713   1.002   2.658  10.548
 2716SOL    HW1 8714   1.043   2.626  10.634
 2716SOL    HW2 8715   0.906   2.631  10.545
 2717SOL     OW 8716   0.040   2.406  10.424
 2717SOL    HW1 8717   0.125   2.373  10.383
 2717SOL    HW2 8718   0.053   2.421  10.522
 2718SOL     OW 8719   0.189   2.382  11.032
 2718SOL    HW1 8720   0.248   2.342  10.962
 2718SOL    HW2 8721   0.131   2.453  10.991
 2719SOL     OW 8722   1.369   2.812  10.970
 2719SOL    HW1 8723   1.408   2.901  10.990
 2719SOL    HW2 8724   1.379   2.792  10.873
 2720SOL     OW 8725   0.815   2.434   9.635
 2720SOL    HW1 8726   0.822   2.345   9.589
 2720SOL    HW2 8727   0.721   2.468   9.627
 2721SOL     OW 8728   1.657   2.466  10.516
 2721SOL    HW1 8729   1.619   2.397  10.578
 2721SOL    HW2 8730   1.739   2.430  10.472
 2722SOL     OW 8731   0.252   3.426  11.054
 2722SOL    HW1 8732   0.222   3.483  11.130
 2722SOL    HW2 8733   0.245   3.329  11.080
 2723SOL     OW 8734   0.671   2.326  10.579
 2723SOL    HW1 8735   0.637   2.237  10.549
 2723SOL    HW2 8736   0.697   2.380  10.499
 2724SOL     OW 8737   0.930   3.540  10.775
 2724SOL    HW1 8738   0.906   3.522  10.680
 2724SOL    HW2 8739   0.960   3.634  10.785
 2725SOL     OW 8740   0.473   2.362   9.501
 2725SOL    HW1 8741   0.534   2.442   9.505
 2725SOL    HW2 8742   0.378   2.393   9.508
 2726SOL     OW 8743   0.159   2.999  10.776
 2726SOL    HW1 8744   0.181   2.938  10.852
 2726SOL    HW2 8745   0.169   2.950  10.690
 2727SOL     OW 8746   1.347   2.921  10.544
 2727SOL    HW1 8747   1.371   2.858  10.470
 2727SOL    HW2 8748   1.257   2.961  10.526
 2728SOL     OW 8749   1.302   2.717   9.619
 2728SOL    HW1 8750   1.216   2.686   9.661
 2728SOL    HW2 8751   1.298   2.703   9.520
 2729SOL     OW 8752   1.759   3.609  10.464
 2729SOL    HW1 8753   1.820   3.639  10.391
 2729SOL    HW2 8754   1.721   3.520  10.442
 2730SOL     OW 8755   1.252   3.593  10.438
 2730SOL    HW1 8756   1.336   3.598  10.384
 2730SOL    HW2 8757   1.229   3.497  10.456
 2731SOL     OW 8758   0.083   3.120  10.332
 2731SOL    HW1 8759   0.078   3.119  10.432
 2731SOL    HW2 8760   0.000   3.079  10.294
 2732SOL     OW 8761   0.688   3.524  11.026
 2732SOL    HW1 8762   0.632   3.605  11.035
 2732SOL    HW2 8763   0.740   3.528  10.940
 2733SOL     OW 8764   1.388   3.435   9.787
 2733SOL    HW1 8765   1.455   3.447   9.713
 2733SOL    HW2 8766   1.348   3.524   9.810
 2734SOL     OW 8767   0.130   3.656  11.161
 2734SOL    HW1 8768   0.089   3.582  11.214
 2734SOL    HW2 8769   0.194   3.707  11.219
 2735SOL     OW 8770   1.280   2.789   9.982
 2735SOL    HW1 8771   1.340   2.708   9.984
 2735SOL    HW2 8772   1.320   2.858   9.922
 2736SOL     OW 8773   0.830   3.135  10.732
 2736SOL    HW1 8774   0.825   3.168  10.827
 2736SOL    HW2 8775   0.744   3.154  10.686
 2737SOL     OW 8776   0.672   3.478   9.464
 2737SOL    HW1 8777   0.681   3.488   9.365
 2737SOL    HW2 8778   0.632   3.389   9.485
 2738SOL     OW 8779   1.650   3.582  10.704
 2738SOL    HW1 8780   1.703   3.592  10.620
 2738SOL    HW2 8781   1.623   3.672  10.738
 2739SOL     OW 8782   0.263   2.188  10.030
 2739SOL    HW1 8783   0.184   2.239   9.996
 2739SOL    HW2 8784   0.254   2.173  10.128
 2740SOL     OW 8785   1.194   3.474   9.341
 2740SOL    HW1 8786   1.200   3.381   9.378
 2740SOL    HW2 8787   1.135   3.474   9.261
 2741SOL     OW 8788   0.822   2.864  10.682
 2741SOL    HW1 8789   0.862   2.863  10.590
 2741SOL    HW2 8790   0.832   2.956  10.722
 2742SOL     OW 8791   0.916   2.772   9.601
 2742SOL    HW1 8792   0.979   2.810   9.533
 2742SOL    HW2 8793   0.956   2.689   9.640
 2743SOL     OW 8794   1.504   3.469   9.354
 2743SOL    HW1 8795   1.412   3.506   9.361
 2743SOL    HW2 8796   1.542   3.489   9.264
 2744SOL     OW 8797   0.372   3.150  10.800
 2744SOL    HW1 8798   0.359   3.243  10.766
 2744SOL    HW2 8799   0.288   3.098  10.787
 2745SOL     OW 8800   1.614   3.154  10.599
 2745SOL    HW1 8801   1.674   3.157  10.679
 2745SOL    HW2 8802   1.539   3.218  10.612
 2746SOL     OW 8803   1.039   2.960  10.006
 2746SOL    HW1 8804   0.969   2.913  10.060
 2746SOL    HW2 8805   1.098   2.892   9.963
 2747SOL     OW 8806   1.014   2.098  10.281
 2747SOL    HW1 8807   1.006   2.062  10.188
 2747SOL    HW2 8808   1.012   2.022  10.346
 2748SOL     OW 8809   0.590   3.349   9.801
 2748SOL    HW1 8810   0.632   3.291   9.731
 2748SOL    HW2 8811   0.546   3.428   9.757
 2749SOL     OW 8812   1.709   2.247  10.691
 2749SOL    HW1 8813   1.782   2.316  10.695
 2749SOL    HW2 8814   1.737   2.172  10.632
 2750SOL     OW 8815   0.255   3.210   9.600
 2750SOL    HW1 8816   0.159   3.211   9.573
 2750SOL    HW2 8817   0.267   3.263   9.684
 2751SOL     OW 8818   0.105   2.875  11.036
 2751SOL    HW1 8819   0.028   2.842  11.090
 2751SOL    HW2 8820   0.190   2.845  11.078
 2752SOL     OW 8821   0.672   2.065  10.799
 2752SOL    HW1 8822   0.762   2.049  10.759
 2752SOL    HW2 8823   0.680   2.070  10.898
 2753SOL     OW 8824   0.075   2.207   9.343
 2753SOL    HW1 8825  -0.017   2.179   9.314
 2753SOL    HW2 8826   0.106   2.284   9.287
 2754SOL     OW 8827   1.440   2.718  10.708
 2754SOL    HW1 8828   1.383   2.770  10.645
 2754SOL    HW2 8829   1.536   2.730  10.684
 2755SOL     OW 8830   0.072   2.028   9.628
 2755SOL    HW1 8831   0.055   2.111   9.574
 2755SOL    HW2 8832   0.162   1.991   9.606
 2756SOL     OW 8833   1.183   3.197   9.429
 2756SOL    HW1 8834   1.084   3.186   9.431
 2756SOL    HW2 8835   1.217   3.212   9.522
 2757SOL     OW 8836   0.613   2.704  10.741
 2757SOL    HW1 8837   0.669   2.785  10.724
 2757SOL    HW2 8838   0.672   2.624  10.744
 2758SOL     OW 8839   1.493   3.629  10.269
 2758SOL    HW1 8840   1.526   3.693  10.200
 2758SOL    HW2 8841   1.559   3.623  10.344
 2759SOL     OW 8842   0.716   2.427  11.018
 2759SOL    HW1 8843   0.735   2.492  11.092
 2759SOL    HW2 8844   0.776   2.347  11.027
 2760SOL     OW 8845   1.450   3.082  10.943
 2760SOL    HW1 8846   1.441   3.072  11.042
 2760SOL    HW2 8847   1.546   3.075  10.917
 2761SOL     OW 8848   0.390   3.603  10.870
 2761SOL    HW1 8849   0.299   3.644  10.868
 2761SOL    HW2 8850   0.383   3.509  10.902
 2762SOL     OW 8851   1.674   2.745  10.564
 2762SOL    HW1 8852   1.647   2.656  10.527
 2762SOL    HW2 8853   1.675   2.813  10.491
 2763SOL     OW 8854   1.225   2.187   9.759
 2763SOL    HW1 8855   1.290   2.113   9.748
 2763SOL    HW2 8856   1.245   2.237   9.843
 2764SOL     OW 8857   0.594   2.607   9.962
 2764SOL    HW1 8858   0.644   2.692   9.943
 2764SOL    HW2 8859   0.506   2.609   9.914
 2765SOL     OW 8860   1.777   2.204  10.952
 2765SOL    HW1 8861   1.760   2.235  10.858
 2765SOL    HW2 8862   1.693   2.167  10.990
 2766SOL     OW 8863   1.730   2.796  10.827
 2766SOL    HW1 8864   1.768   2.887  10.842
 2766SOL    HW2 8865   1.722   2.779  10.728
 2767SOL     OW 8866   0.859   3.236   9.326
 2767SOL    HW1 8867   0.813   3.251   9.414
 2767SOL    HW2 8868   0.903   3.321   9.296
 2768SOL     OW 8869   0.661   3.652  10.263
 2768SOL    HW1 8870   0.615   3.740  10.250
 2768SOL    HW2 8871   0.760   3.664  10.256
 2769SOL     OW 8872   0.859   2.818  10.171
 2769SOL    HW1 8873   0.913   2.749  10.219
 2769SOL    HW2 8874   0.827   2.887  10.237
 2770SOL     OW 8875   1.083   2.846   9.397
 2770SOL    HW1 8876   1.060   2.899   9.315
 2770SOL    HW2 8877   1.164   2.790   9.378
 2771SOL     OW 8878   1.861   3.431  10.161
 2771SOL    HW1 8879   1.790   3.419  10.091
 2771SOL    HW2 8880   1.862   3.352  10.221
 2772SOL     OW 8881   0.221   3.176  11.154
 2772SOL    HW1 8882   0.156   3.103  11.133
 2772SOL    HW2 8883   0.225   3.190  11.252
 2773SOL     OW 8884   0.079   3.102   9.963
 2773SOL    HW1 8885   0.078   3.055  10.051
 2773SOL    HW2 8886   0.161   3.074   9.912
 2774SOL     OW 8887   0.672   3.253  10.934
 2774SOL    HW1 8888   0.594   3.203  10.972
 2774SOL    HW2 8889   0.669   3.348  10.965
 2775SOL     OW 8890   0.428   2.286   9.830
 2775SOL    HW1 8891   0.458   2.214   9.768
 2775SOL    HW2 8892   0.389   2.246   9.913
 2776SOL     OW 8893   1.705   3.349  10.414
 2776SOL    HW1 8894   1.612   3.324  10.387
 2776SOL    HW2 8895   1.731   3.299  10.496
 2777SOL     OW 8896   0.317   2.409  10.590
 2777SOL    HW1 8897   0.355   2.350  10.662
 2777SOL    HW2 8898   0.357   2.383  10.502
 2778SOL     OW 8899   0.812   3.448   9.997
 2778SOL    HW1 8900   0.844   3.458   9.903
 2778SOL    HW2 8901   0.733   3.386   9.999
 2779SOL     OW 8902   1.424   2.076  10.422
 2779SOL    HW1 8903   1.476   2.011  10.477
 2779SOL    HW2 8904   1.375   2.139  10.483
 2780SOL     OW 8905   1.001   1.896  10.464
 2780SOL    HW1 8906   0.938   1.824  10.433
 2780SOL    HW2 8907   1.094   1.860  10.464
 2781SOL     OW 8908   0.770   3.192   9.611
 2781SOL    HW1 8909   0.724   3.105   9.628
 2781SOL    HW2 8910   0.861   3.189   9.652
 2782SOL     OW 8911   0.618   3.429  10.594
 2782SOL    HW1 8912   0.613   3.511  10.651
 2782SOL    HW2 8913   0.707   3.426  10.549
 2783SOL     OW 8914   1.352   1.914   9.478
 2783SOL    HW1 8915   1.387   1.873   9.394
 2783SOL    HW2 8916   1.262   1.876   9.498
 2784SOL     OW 8917   1.300   2.315  10.001
 2784SOL    HW1 8918   1.241   2.395  10.005
 2784SOL    HW2 8919   1.315   2.280  10.094
 2785SOL     OW 8920   1.593   2.083  10.192
 2785SOL    HW1 8921   1.509   2.082  10.246
 2785SOL    HW2 8922   1.595   2.166  10.136
 2786SOL     OW 8923   0.039   2.939   9.610
 2786SOL    HW1 8924   0.138   2.928   9.601
 2786SOL    HW2 8925  -0.001   2.853   9.642
 2787SOL     OW 8926   0.875   3.508   9.647
 2787SOL    HW1 8927   0.798   3.473   9.593
 2787SOL    HW2 8928   0.843   3.579   9.709
 2788SOL     OW 8929   0.230   2.490  11.285
 2788SOL    HW1 8930   0.137   2.488  11.322
 2788SOL    HW2 8931   0.231   2.451  11.193
 2789SOL     OW 8932   0.225   2.137  12.168
 2789SOL    HW1 8933   0.260   2.120  12.260
 2789SOL    HW2 8934   0.137   2.092  12.156
 2790SOL     OW 8935   0.019   2.230  11.819
 2790SOL    HW1 8936  -0.063   2.273  11.858
 2790SOL    HW2 8937  -0.009   2.157  11.756
 2791SOL     OW 8938   0.569   3.137  12.337
 2791SOL    HW1 8939   0.476   3.130  12.300
 2791SOL    HW2 8940   0.580   3.226  12.381
 2792SOL     OW 8941   1.555   3.373  11.875
 2792SOL    HW1 8942   1.498   3.357  11.956
 2792SOL    HW2 8943   1.496   3.383  11.795
 2793SOL     OW 8944   1.135   2.565  11.889
 2793SOL    HW1 8945   1.192   2.643  11.864
 2793SOL    HW2 8946   1.075   2.591  11.965
 2794SOL     OW 8947   1.755   2.469  11.403
 2794SOL    HW1 8948   1.743   2.456  11.304
 2794SOL    HW2 8949   1.725   2.388  11.452
 2795SOL     OW 8950   0.768   3.006  12.195
 2795SOL    HW1 8951   0.690   3.023  12.255
 2795SOL    HW2 8952   0.802   3.093  12.159
 2796SOL     OW 8953   0.850   2.660  12.995
 2796SOL    HW1 8954   0.846   2.736  13.060
 2796SOL    HW2 8955   0.872   2.696  12.904
 2797SOL     OW 8956   0.685   2.874  11.837
 2797SOL    HW1 8957   0.754   2.858  11.907
 2797SOL    HW2 8958   0.612   2.931  11.875
 2798SOL     OW 8959   0.686   3.023  12.975
 2798SOL    HW1 8960   0.746   3.102  12.989
 2798SOL    HW2 8961   0.600   3.054  12.934
 2799SOL     OW 8962   0.335   3.297  12.233
 2799SOL    HW1 8963   0.257   3.266  12.180
 2799SOL    HW2 8964   0.393   3.355  12.176
 2800SOL     OW 8965   1.460   3.367  12.511
 2800SOL    HW1 8966   1.484   3.461  12.537
 2800SOL    HW2 8967   1.444   3.313  12.593
 2801SOL     OW 8968   0.438   2.254  12.671
 2801SOL    HW1 8969   0.520   2.198  12.680
 2801SOL    HW2 8970   0.357   2.196  12.675
 2802SOL     OW 8971   1.603   2.309  11.909
 2802SOL    HW1 8972   1.529   2.355  11.859
 2802SOL    HW2 8973   1.654   2.377  11.962
 2803SOL     OW 8974   0.231   3.575  11.655
 2803SOL    HW1 8975   0.265   3.652  11.709
 2803SOL    HW2 8976   0.275   3.575  11.565
 2804SOL     OW 8977   1.127   3.203  12.862
 2804SOL    HW1 8978   1.174   3.203  12.950
 2804SOL    HW2 8979   1.079   3.116  12.851
 2805SOL     OW 8980   0.230   3.296  11.710
 2805SOL    HW1 8981   0.204   3.392  11.710
 2805SOL    HW2 8982   0.159   3.242  11.755
 2806SOL     OW 8983   0.240   2.953  12.058
 2806SOL    HW1 8984   0.254   2.869  12.110
 2806SOL    HW2 8985   0.185   3.017  12.113
 2807SOL     OW 8986   0.620   3.648  12.611
 2807SOL    HW1 8987   0.528   3.631  12.646
 2807SOL    HW2 8988   0.648   3.740  12.637
 2808SOL     OW 8989   0.606   2.826  11.295
 2808SOL    HW1 8990   0.613   2.910  11.241
 2808SOL    HW2 8991   0.652   2.839  11.383
 2809SOL     OW 8992   1.594   1.976  12.652
 2809SOL    HW1 8993   1.576   2.043  12.580
 2809SOL    HW2 8994   1.591   2.022  12.741
 2810SOL     OW 8995   0.122   2.505  11.735
 2810SOL    HW1 8996   0.077   2.417  11.752
 2810SOL    HW2 8997   0.121   2.559  11.819
 2811SOL     OW 8998   1.842   3.629  11.531
 2811SOL    HW1 8999   1.896   3.600  11.611
 2811SOL    HW2 9000   1.872   3.719  11.502
 2812SOL     OW 9001   0.027   3.458  11.289
 2812SOL    HW1 9002   0.008   3.362  11.310
 2812SOL    HW2 9003  -0.006   3.516  11.364
 2813SOL     OW 9004   1.689   2.784  11.784
 2813SOL    HW1 9005   1.784   2.755  11.792
 2813SOL    HW2 9006   1.681   2.849  11.709
 2814SOL     OW 9007   1.641   2.970  11.604
 2814SOL    HW1 9008   1.727   2.972  11.552
 2814SOL    HW2 9009   1.655   3.017  11.692
 2815SOL     OW 9010   0.113   2.599  12.769
 2815SOL    HW1 9011   0.201   2.586  12.814
 2815SOL    HW2 9012   0.100   2.696  12.747
 2816SOL     OW 9013   0.613   3.227  11.898
 2816SOL    HW1 9014   0.564   3.140  11.907
 2816SOL    HW2 9015   0.590   3.270  11.811
 2817SOL     OW 9016   1.293   3.090  12.595
 2817SOL    HW1 9017   1.330   3.017  12.537
 2817SOL    HW2 9018   1.345   3.095  12.680
 2818SOL     OW 9019   0.809   1.866  11.674
 2818SOL    HW1 9020   0.849   1.957  11.665
 2818SOL    HW2 9021   0.709   1.874  11.680
 2819SOL     OW 9022   0.197   2.838  12.436
 2819SOL    HW1 9023   0.286   2.793  12.422
 2819SOL    HW2 9024   0.124   2.773  12.417
 2820SOL     OW 9025   1.525   2.861  11.362
 2820SOL    HW1 9026   1.462   2.785  11.375
 2820SOL    HW2 9027   1.573   2.879  11.448
 2821SOL     OW 9028   1.187   3.654  12.788
 2821SOL    HW1 9029   1.211   3.714  12.712
 2821SOL    HW2 9030   1.194   3.559  12.758
 2822SOL     OW 9031   0.317   2.113  12.973
 2822SOL    HW1 9032   0.388   2.184  12.979
 2822SOL    HW2 9033   0.229   2.152  13.001
 2823SOL     OW 9034   1.466   3.279  12.125
 2823SOL    HW1 9035   1.407   3.285  12.205
 2823SOL    HW2 9036   1.451   3.191  12.079
 2824SOL     OW 9037   1.667   3.576  11.744
 2824SOL    HW1 9038   1.626   3.553  11.656
 2824SOL    HW2 9039   1.649   3.502  11.809
 2825SOL     OW 9040   0.598   2.591  11.442
 2825SOL    HW1 9041   0.622   2.660  11.374
 2825SOL    HW2 9042   0.520   2.624  11.496
 2826SOL     OW 9043   1.281   2.207  12.116
 2826SOL    HW1 9044   1.195   2.157  12.103
 2826SOL    HW2 9045   1.343   2.153  12.172
 2827SOL     OW 9046   1.576   3.524  11.479
 2827SOL    HW1 9047   1.665   3.570  11.482
 2827SOL    HW2 9048   1.555   3.500  11.384
 2828SOL     OW 9049   0.807   2.467  12.637
 2828SOL    HW1 9050   0.760   2.464  12.726
 2828SOL    HW2 9051   0.756   2.412  12.571
 2829SOL     OW 9052   1.394   2.331  12.846
 2829SOL    HW1 9053   1.374   2.374  12.934
 2829SOL    HW2 9054   1.472   2.269  12.855
 2830SOL     OW 9055   0.973   2.752  12.744
 2830SOL    HW1 9056   1.019   2.668  12.715
 2830SOL    HW2 9057   0.917   2.786  12.669
 2831SOL     OW 9058   0.991   2.272  12.414
 2831SOL    HW1 9059   0.914   2.306  12.468
 2831SOL    HW2 9060   0.957   2.221  12.335
 2832SOL     OW 9061   1.041   2.563  11.601
 2832SOL    HW1 9062   1.067   2.559  11.697
 2832SOL    HW2 9063   0.956   2.512  11.587
 2833SOL     OW 9064   0.076   2.673  11.961
 2833SOL    HW1 9065   0.175   2.661  11.970
 2833SOL    HW2 9066   0.052   2.768  11.982
 2834SOL     OW 9067   0.130   3.683  12.743
 2834SOL    HW1 9068   0.120   3.668  12.842
 2834SOL    HW2 9069   0.044   3.719  12.707
 2835SOL     OW 9070   0.865   2.210  11.367
 2835SOL    HW1 9071   0.924   2.273  11.318
 2835SOL    HW2 9072   0.884   2.116  11.338
 2836SOL     OW 9073   1.719   2.447  13.003
 2836SOL    HW1 9074   1.693   2.536  12.967
 2836SOL    HW2 9075   1.717   2.379  12.930
 2837SOL     OW 9076   1.362   3.006  11.717
 2837SOL    HW1 9077   1.445   2.977  11.669
 2837SOL    HW2 9078   1.313   3.073  11.661
 2838SOL     OW 9079   0.550   2.058  12.057
 2838SOL    HW1 9080   0.545   2.053  12.157
 2838SOL    HW2 9081   0.552   2.154  12.028
 2839SOL     OW 9082   1.008   3.318  11.649
 2839SOL    HW1 9083   0.962   3.390  11.597
 2839SOL    HW2 9084   1.004   3.338  11.747
 2840SOL     OW 9085   0.351   3.663  12.025
 2840SOL    HW1 9086   0.401   3.577  12.031
 2840SOL    HW2 9087   0.416   3.740  12.022
 2841SOL     OW 9088   1.795   2.928  12.045
 2841SOL    HW1 9089   1.733   2.913  11.969
 2841SOL    HW2 9090   1.743   2.939  12.130
 2842SOL     OW 9091   1.227   3.412  12.678
 2842SOL    HW1 9092   1.233   3.335  12.742
 2842SOL    HW2 9093   1.175   3.386  12.598
 2843SOL     OW 9094   0.321   2.805  11.414
 2843SOL    HW1 9095   0.403   2.844  11.372
 2843SOL    HW2 9096   0.294   2.723  11.365
 2844SOL     OW 9097   1.458   2.597  11.900
 2844SOL    HW1 9098   1.453   2.532  11.975
 2844SOL    HW2 9099   1.538   2.656  11.913
 2845SOL     OW 9100   0.461   3.128  12.899
 2845SOL    HW1 9101   0.411   3.129  12.813
 2845SOL    HW2 9102   0.398   3.110  12.975
 2846SOL     OW 9103   1.111   3.638  11.409
 2846SOL    HW1 9104   1.051   3.576  11.459
 2846SOL    HW2 9105   1.142   3.594  11.324
 2847SOL     OW 9106   0.202   2.147  12.670
 2847SOL    HW1 9107   0.122   2.207  12.657
 2847SOL    HW2 9108   0.192   2.098  12.756
 2848SOL     OW 9109   1.632   3.239  11.253
 2848SOL    HW1 9110   1.600   3.333  11.243
 2848SOL    HW2 9111   1.556   3.176  11.241
 2849SOL     OW 9112   0.464   3.605  11.495
 2849SOL    HW1 9113   0.497   3.644  11.581
 2849SOL    HW2 9114   0.540   3.598  11.430
 2850SOL     OW 9115   1.400   1.969  11.598
 2850SOL    HW1 9116   1.376   1.932  11.508
 2850SOL    HW2 9117   1.499   1.985  11.602
 2851SOL     OW 9118   0.249   3.647  12.413
 2851SOL    HW1 9119   0.306   3.582  12.463
 2851SOL    HW2 9120   0.233   3.614  12.320
 2852SOL     OW 9121   0.940   3.560  12.076
 2852SOL    HW1 9122   1.020   3.503  12.097
 2852SOL    HW2 9123   0.891   3.520  11.999
 2853SOL     OW 9124   0.382   2.562  11.652
 2853SOL    HW1 9125   0.427   2.472  11.649
 2853SOL    HW2 9126   0.288   2.551  11.685
 2854SOL     OW 9127   1.547   2.084  12.901
 2854SOL    HW1 9128   1.542   2.121  12.993
 2854SOL    HW2 9129   1.475   2.015  12.889
 2855SOL     OW 9130   0.614   1.984  11.289
 2855SOL    HW1 9131   0.712   1.962  11.296
 2855SOL    HW2 9132   0.583   1.967  11.196
 2856SOL     OW 9133   0.781   2.126  12.921
 2856SOL    HW1 9134   0.848   2.065  12.964
 2856SOL    HW2 9135   0.708   2.145  12.986
 2857SOL     OW 9136   0.888   3.376  12.367
 2857SOL    HW1 9137   0.865   3.351  12.273
 2857SOL    HW2 9138   0.949   3.307  12.406
 2858SOL     OW 9139   1.351   2.452  12.605
 2858SOL    HW1 9140   1.379   2.409  12.690
 2858SOL    HW2 9141   1.376   2.548  12.606
 2859SOL     OW 9142   0.803   3.264  12.096
 2859SOL    HW1 9143   0.893   3.278  12.054
 2859SOL    HW2 9144   0.732   3.266  12.025
 2860SOL     OW 9145   0.922   2.365  12.071
 2860SOL    HW1 9146   0.897   2.356  11.975
 2860SOL    HW2 9147   0.970   2.283  12.102
 2861SOL     OW 9148   0.539   1.926  11.684
 2861SOL    HW1 9149   0.458   1.927  11.742
 2861SOL    HW2 9150   0.542   2.009  11.629
 2862SOL     OW 9151   1.434   3.050  11.213
 2862SOL    HW1 9152   1.466   2.974  11.270
 2862SOL    HW2 9153   1.342   3.077  11.243
 2863SOL     OW 9154   0.297   1.897  11.343
 2863SOL    HW1 9155   0.346   1.981  11.322
 2863SOL    HW2 9156   0.359   1.832  11.388
 2864SOL     OW 9157   0.935   2.098  11.652
 2864SOL    HW1 9158   0.887   2.139  11.574
 2864SOL    HW2 9159   1.034   2.096  11.633
 2865SOL     OW 9160   1.076   2.545  12.636
 2865SOL    HW1 9161   0.996   2.484  12.639
 2865SOL    HW2 9162   1.157   2.492  12.612
 2866SOL     OW 9163   1.227   3.432  11.965
 2866SOL    HW1 9164   1.248   3.506  11.900
 2866SOL    HW2 9165   1.295   3.432  12.038
 2867SOL     OW 9166   0.459   3.014  11.913
 2867SOL    HW1 9167   0.388   2.987  11.978
 2867SOL    HW2 9168   0.433   2.986  11.820
 2868SOL     OW 9169   1.271   3.659  11.763
 2868SOL    HW1 9170   1.315   3.723  11.699
 2868SOL    HW2 9171   1.221   3.711  11.833
 2869SOL     OW 9172   1.032   2.411  11.188
 2869SOL    HW1 9173   0.991   2.493  11.149
 2869SOL    HW2 9174   1.096   2.437  11.261
 2870SOL     OW 9175   0.078   2.418  12.558
 2870SOL    HW1 9176   0.170   2.417  12.517
 2870SOL    HW2 9177   0.072   2.492  12.625
 2871SOL     OW 9178   0.561   2.084  12.319
 2871SOL    HW1 9179   0.599   2.000  12.356
 2871SOL    HW2 9180   0.473   2.103  12.363
 2872SOL     OW 9181   0.866   2.316  11.814
 2872SOL    HW1 9182   0.834   2.388  11.752
 2872SOL    HW2 9183   0.890   2.235  11.761
 2873SOL     OW 9184   1.017   1.901  11.925
 2873SOL    HW1 9185   0.945   1.906  11.856
 2873SOL    HW2 9186   0.993   1.832  11.994
 2874SOL     OW 9187   1.429   3.035  12.039
 2874SOL    HW1 9188   1.374   2.951  12.032
 2874SOL    HW2 9189   1.455   3.064  11.947
 2875SOL     OW 9190   1.466   2.452  12.164
 2875SOL    HW1 9191   1.436   2.357  12.171
 2875SOL    HW2 9192   1.539   2.468  12.230
 2876SOL     OW 9193   1.857   2.695  11.549
 2876SOL    HW1 9194   1.899   2.631  11.613
 2876SOL    HW2 9195   1.819   2.644  11.471
 2877SOL     OW 9196   0.488   3.247  11.346
 2877SOL    HW1 9197   0.401   3.232  11.393
 2877SOL    HW2 9198   0.471   3.273  11.251
 2878SOL     OW 9199   1.664   3.142  11.829
 2878SOL    HW1 9200   1.763   3.150  11.843
 2878SOL    HW2 9201   1.619   3.226  11.860
 2879SOL     OW 9202   1.390   2.437  11.250
 2879SOL    HW1 9203   1.336   2.416  11.331
 2879SOL    HW2 9204   1.481   2.396  11.259
 2880SOL     OW 9205   0.527   2.118  11.500
 2880SOL    HW1 9206   0.554   2.059  11.425
 2880SOL    HW2 9207   0.527   2.213  11.469
 2881SOL     OW 9208   1.754   3.085  12.760
 2881SOL    HW1 9209   1.845   3.046  12.747
 2881SOL    HW2 9210   1.762   3.181  12.784
 2882SOL     OW 9211   1.064   3.209  12.512
 2882SOL    HW1 9212   0.984   3.186  12.567
 2882SOL    HW2 9213   1.147   3.183  12.561
 2883SOL     OW 9214   1.592   3.491  12.797
 2883SOL    HW1 9215   1.619   3.525  12.707
 2883SOL    HW2 9216   1.671   3.453  12.843
 2884SOL     OW 9217   1.111   3.057  12.272
 2884SOL    HW1 9218   1.071   3.101  12.353
 2884SOL    HW2 9219   1.070   3.094  12.189
 2885SOL     OW 9220   1.638   2.961  12.251
 2885SOL    HW1 9221   1.643   3.042  12.310
 2885SOL    HW2 9222   1.552   2.963  12.200
 2886SOL     OW 9223   0.915   1.951  12.574
 2886SOL    HW1 9224   0.940   1.931  12.479
 2886SOL    HW2 9225   0.987   2.007  12.616
 2887SOL     OW 9226   0.980   2.978  12.891
 2887SOL    HW1 9227   0.881   2.984  12.901
 2887SOL    HW2 9228   1.003   2.898  12.835
 2888SOL     OW 9229   0.705   2.912  11.540
 2888SOL    HW1 9230   0.691   2.919  11.639
 2888SOL    HW2 9231   0.789   2.861  11.522
 2889SOL     OW 9232   0.410   2.675  12.423
 2889SOL    HW1 9233   0.496   2.687  12.473
 2889SOL    HW2 9234   0.368   2.588  12.450
 2890SOL     OW 9235   1.274   2.248  12.434
 2890SOL    HW1 9236   1.295   2.322  12.498
 2890SOL    HW2 9237   1.185   2.265  12.391
 2891SOL     OW 9238   0.064   3.426  12.503
 2891SOL    HW1 9239   0.018   3.508  12.469
 2891SOL    HW2 9240   0.162   3.445  12.512
 2892SOL     OW 9241   0.367   2.962  11.673
 2892SOL    HW1 9242   0.360   3.045  11.617
 2892SOL    HW2 9243   0.371   2.882  11.613
 2893SOL     OW 9244   0.566   2.399  12.037
 2893SOL    HW1 9245   0.578   2.465  11.963
 2893SOL    HW2 9246   0.612   2.433  12.120
 2894SOL     OW 9247   1.252   3.210  11.560
 2894SOL    HW1 9248   1.302   3.287  11.600
 2894SOL    HW2 9249   1.157   3.212  11.592
 2895SOL     OW 9250   1.272   3.307  12.314
 2895SOL    HW1 9251   1.319   3.320  12.401
 2895SOL    HW2 9252   1.206   3.233  12.323
 2896SOL     OW 9253   1.582   2.501  11.644
 2896SOL    HW1 9254   1.551   2.562  11.717
 2896SOL    HW2 9255   1.632   2.553  11.575
 2897SOL     OW 9256   0.354   3.372  12.501
 2897SOL    HW1 9257   0.333   3.328  12.414
 2897SOL    HW2 9258   0.451   3.398  12.504
 2898SOL     OW 9259   0.402   2.613  12.770
 2898SOL    HW1 9260   0.470   2.668  12.723
 2898SOL    HW2 9261   0.442   2.525  12.797
 2899SOL     OW 9262   1.587   2.641  12.842
 2899SOL    HW1 9263   1.495   2.679  12.837
 2899SOL    HW2 9264   1.647   2.688  12.777
 2900SOL     OW 9265   1.013   1.967  12.942
 2900SOL    HW1 9266   1.019   2.052  12.890
 2900SOL    HW2 9267   1.045   1.891  12.885
 2901SOL     OW 9268   0.504   1.912  12.912
 2901SOL    HW1 9269   0.462   1.855  12.842
 2901SOL    HW2 9270   0.438   1.981  12.944
 2902SOL     OW 9271   0.573   2.732  12.201
 2902SOL    HW1 9272   0.617   2.821  12.192
 2902SOL    HW2 9273   0.510   2.732  12.278
 2903SOL     OW 9274   1.360   2.724  12.217
 2903SOL    HW1 9275   1.285   2.724  12.151
 2903SOL    HW2 9276   1.397   2.632  12.226
 2904SOL     OW 9277   1.209   2.387  11.447
 2904SOL    HW1 9278   1.222   2.303  11.501
 2904SOL    HW2 9279   1.180   2.461  11.507
 2905SOL     OW 9280   0.307   2.075  12.403
 2905SOL    HW1 9281   0.284   2.112  12.493
 2905SOL    HW2 9282   0.277   1.980  12.397
 2906SOL     OW 9283   0.037   3.172  12.454
 2906SOL    HW1 9284   0.090   3.123  12.522
 2906SOL    HW2 9285   0.059   3.270  12.459
 2907SOL     OW 9286   0.732   2.496  12.236
 2907SOL    HW1 9287   0.791   2.470  12.160
 2907SOL    HW2 9288   0.704   2.592  12.225
 2908SOL     OW 9289   1.728   2.797  13.026
 2908SOL    HW1 9290   1.682   2.790  12.937
 2908SOL    HW2 9291   1.666   2.841  13.092
 2909SOL     OW 9292   0.307   1.925  11.790
 2909SOL    HW1 9293   0.296   2.019  11.823
 2909SOL    HW2 9294   0.302   1.862  11.867
 2910SOL     OW 9295   1.622   2.229  11.546
 2910SOL    HW1 9296   1.624   2.153  11.610
 2910SOL    HW2 9297   1.574   2.306  11.586
 2911SOL     OW 9298   1.023   2.628  12.138
 2911SOL    HW1 9299   1.038   2.649  12.234
 2911SOL    HW2 9300   0.993   2.533  12.129
 2912SOL     OW 9301   0.980   3.435  12.872
 2912SOL    HW1 9302   0.960   3.479  12.784
 2912SOL    HW2 9303   1.019   3.344  12.856
 2913SOL     OW 9304   1.859   3.380  12.777
 2913SOL    HW1 9305   1.873   3.407  12.682
 2913SOL    HW2 9306   1.942   3.402  12.830
 2914SOL     OW 9307   0.350   2.760  12.976
 2914SOL    HW1 9308   0.426   2.804  13.024
 2914SOL    HW2 9309   0.385   2.713  12.894
 2915SOL     OW 9310   1.540   2.136  11.297
 2915SOL    HW1 9311   1.479   2.061  11.320
 2915SOL    HW2 9312   1.562   2.188  11.380
 2916SOL     OW 9313   1.303   2.700  11.214
 2916SOL    HW1 9314   1.337   2.607  11.229
 2916SOL    HW2 9315   1.321   2.727  11.119
 2917SOL     OW 9316   1.068   3.195  12.021
 2917SOL    HW1 9317   1.075   3.111  11.966
 2917SOL    HW2 9318   1.130   3.264  11.985
 2918SOL     OW 9319   0.319   2.672  12.121
 2918SOL    HW1 9320   0.412   2.708  12.126
 2918SOL    HW2 9321   0.313   2.587  12.173
 2919SOL     OW 9322   0.339   2.371  12.178
 2919SOL    HW1 9323   0.287   2.288  12.161
 2919SOL    HW2 9324   0.416   2.376  12.114
 2920SOL     OW 9325   1.138   2.242  12.850
 2920SOL    HW1 9326   1.093   2.305  12.914
 2920SOL    HW2 9327   1.231   2.273  12.833
 2921SOL     OW 9328   1.160   2.069  12.649
 2921SOL    HW1 9329   1.160   2.133  12.726
 2921SOL    HW2 9330   1.188   2.117  12.566
 2922SOL     OW 9331   0.008   3.188  11.372
 2922SOL    HW1 9332  -0.085   3.209  11.341
 2922SOL    HW2 9333   0.018   3.089  11.385
 2923SOL     OW 9334   0.088   3.663  12.099
 2923SOL    HW1 9335   0.046   3.577  12.072
 2923SOL    HW2 9336   0.182   3.666  12.065
 2924SOL     OW 9337   0.504   3.430  12.082
 2924SOL    HW1 9338   0.570   3.504  12.091
 2924SOL    HW2 9339   0.548   3.351  12.040
 2925SOL     OW 9340   1.002   2.658  12.410
 2925SOL    HW1 9341   1.043   2.626  12.496
 2925SOL    HW2 9342   0.906   2.631  12.407
 2926SOL     OW 9343   0.040   2.406  12.286
 2926SOL    HW1 9344   0.125   2.373  12.245
 2926SOL    HW2 9345   0.053   2.421  12.384
 2927SOL     OW 9346   0.189   2.382  12.894
 2927SOL    HW1 9347   0.248   2.342  12.824
 2927SOL    HW2 9348   0.131   2.453  12.853
 2928SOL     OW 9349   1.369   2.812  12.832
 2928SOL    HW1 9350   1.408   2.901  12.852
 2928SOL    HW2 9351   1.379   2.792  12.735
 2929SOL     OW 9352   0.815   2.434  11.497
 2929SOL    HW1 9353   0.822   2.345  11.451
 2929SOL    HW2 9354   0.721   2.468  11.489
 2930SOL     OW 9355   1.657   2.466  12.378
 2930SOL    HW1 9356   1.619   2.397  12.440
 2930SOL    HW2 9357   1.739   2.430  12.334
 2931SOL     OW 9358   0.252   3.426  12.916
 2931SOL    HW1 9359   0.222   3.483  12.992
 2931SOL    HW2 9360   0.245   3.329  12.942
 2932SOL     OW 9361   0.671   2.326  12.441
 2932SOL    HW1 9362   0.637   2.237  12.411
 2932SOL    HW2 9363   0.697   2.380  12.361
 2933SOL     OW 9364   0.930   3.540  12.637
 2933SOL    HW1 9365   0.906   3.522  12.542
 2933SOL    HW2 9366   0.960   3.634  12.647
 2934SOL     OW 9367   0.473   2.362  11.363
 2934SOL    HW1 9368   0.534   2.442  11.367
 2934SOL    HW2 9369   0.378   2.393  11.370
 2935SOL     OW 9370   0.159   2.999  12.638
 2935SOL    HW1 9371   0.181   2.938  12.714
 2935SOL    HW2 9372   0.169   2.950  12.552
 2936SOL     OW 9373   1.347   2.921  12.406
 2936SOL    HW1 9374   1.371   2.858  12.332
 2936SOL    HW2 9375   1.257   2.961  12.388
 2937SOL     OW 9376   1.302   2.717  11.481
 2937SOL    HW1 9377   1.216   2.686  11.523
 2937SOL    HW2 9378   1.298   2.703  11.382
 2938SOL     OW 9379   1.759   3.609  12.326
 2938SOL    HW1 9380   1.820   3.639  12.253
 2938SOL    HW2 9381   1.721   3.520  12.304
 2939SOL     OW 9382   1.252   3.593  12.300
 2939SOL    HW1 9383   1.336   3.598  12.246
 2939SOL    HW2 9384   1.229   3.497  12.318
 2940SOL     OW 9385   0.083   3.120  12.194
 2940SOL    HW1 9386   0.078   3.119  12.294
 2940SOL    HW2 9387   0.000   3.079  12.156
 2941SOL     OW 9388   0.688   3.524  12.888
 2941SOL    HW1 9389   0.632   3.605  12.897
 2941SOL    HW2 9390   0.740   3.528  12.802
 2942SOL     OW 9391   1.388   3.435  11.649
 2942SOL    HW1 9392   1.455   3.447  11.575
 2942SOL    HW2 9393   1.348   3.524  11.672
 2943SOL     OW 9394   0.130   3.656  13.023
 2943SOL    HW1 9395   0.089   3.582  13.076
 2943SOL    HW2 9396   0.194   3.707  13.081
 2944SOL     OW 9397   1.280   2.789  11.844
 2944SOL    HW1 9398   1.340   2.708  11.846
 2944SOL    HW2 9399   1.320   2.858  11.784
 2945SOL     OW 9400   0.830   3.135  12.594
 2945SOL    HW1 9401   0.825   3.168  12.689
 2945SOL    HW2 9402   0.744   3.154  12.548
 2946SOL     OW 9403   0.672   3.478  11.326
 2946SOL    HW1 9404   0.681   3.488  11.227
 2946SOL    HW2 9405   0.632   3.389  11.347
 2947SOL     OW 9406   1.650   3.582  12.566
 2947SOL    HW1 9407   1.703   3.592  12.482
 2947SOL    HW2 9408   1.623   3.672  12.600
 2948SOL     OW 9409   0.263   2.188  11.892
 2948SOL    HW1 9410   0.184   2.239  11.858
 2948SOL    HW2 9411   0.254   2.173  11.990
 2949SOL     OW 9412   1.194   3.474  11.203
 2949SOL    HW1 9413   1.200   3.381  11.240
 2949SOL    HW2 9414   1.135   3.474  11.123
 2950SOL     OW 9415   0.822   2.864  12.544
 2950SOL    HW1 9416   0.862   2.863  12.452
 2950SOL    HW2 9417   0.832   2.956  12.584
 2951SOL     OW 9418   0.916   2.772  11.463
 2951SOL    HW1 9419   0.979   2.810  11.395
 2951SOL    HW2 9420   0.956   2.689  11.502
 2952SOL     OW 9421   1.504   3.469  11.216
 2952SOL    HW1 9422   1.412   3.506  11.223
 2952SOL    HW2 9423   1.542   3.489  11.126
 2953SOL     OW 9424   0.372   3.150  12.662
 2953SOL    HW1 9425   0.359   3.243  12.628
 2953SOL    HW2 9426   0.288   3.098  12.649
 2954SOL     OW 9427   1.614   3.154  12.461
 2954SOL    HW1 9428   1.674   3.157  12.541
 2954SOL    HW2 9429   1.539   3.218  12.474
 2955SOL     OW 9430   1.039   2.960  11.868
 2955SOL    HW1 9431   0.969   2.913  11.922
 2955SOL    HW2 9432   1.098   2.892  11.825
 2956SOL     OW 9433   1.014   2.098  12.143
 2956SOL    HW1 9434   1.006   2.062  12.050
 2956SOL    HW2 9435   1.012   2.022  12.208
 2957SOL     OW 9436   0.590   3.349  11.663
 2957SOL    HW1 9437   0.632   3.291  11.593
 2957SOL    HW2 9438   0.546   3.428  11.619
 2958SOL     OW 9439   1.709   2.247  12.553
 2958SOL    HW1 9440   1.782   2.316  12.557
 2958SOL    HW2 9441   1.737   2.172  12.494
 2959SOL     OW 9442   0.255   3.210  11.462
 2959SOL    HW1 9443   0.159   3.211  11.435
 2959SOL    HW2 9444   0.267   3.263  11.546
 2960SOL     OW 9445   0.105   2.875  12.898
 2960SOL    HW1 9446   0.028   2.842  12.952
 2960SOL    HW2 9447   0.190   2.845  12.940
 2961SOL     OW 9448   0.672   2.065  12.661
 2961SOL    HW1 9449   0.762   2.049  12.621
 2961SOL    HW2 9450   0.680   2.070  12.760
 2962SOL     OW 9451   0.075   2.207  11.205
 2962SOL    HW1 9452  -0.017   2.179  11.176
 2962SOL    HW2 9453   0.106   2.284  11.149
 2963SOL     OW 9454   1.440   2.718  12.570
 2963SOL    HW1 9455   1.383   2.770  12.507
 2963SOL    HW2 9456   1.536   2.730  12.546
 2964SOL     OW 9457   0.072   2.028  11.490
 2964SOL    HW1 9458   0.055   2.111  11.436
 2964SOL    HW2 9459   0.162   1.991  11.468
 2965SOL     OW 9460   1.183   3.197  11.291
 2965SOL    HW1 9461   1.084   3.186  11.293
 2965SOL    HW2 9462   1.217   3.212  11.384
 2966SOL     OW 9463   0.613   2.704  12.603
 2966SOL    HW1 9464   0.669   2.785  12.586
 2966SOL    HW2 9465   0.672   2.624  12.606
 2967SOL     OW 9466   1.493   3.629  12.131
 2967SOL    HW1 9467   1.526   3.693  12.062
 2967SOL    HW2 9468   1.559   3.623  12.206
 2968SOL     OW 9469   0.716   2.427  12.880
 2968SOL    HW1 9470   0.735   2.492  12.954
 2968SOL    HW2 9471   0.776   2.347  12.889
 2969SOL     OW 9472   1.450   3.082  12.805
 2969SOL    HW1 9473   1.441   3.072  12.904
 2969SOL    HW2 9474   1.546   3.075  12.779
 2970SOL     OW 9475   0.390   3.603  12.732
 2970SOL    HW1 9476   0.299   3.644  12.730
 2970SOL    HW2 9477   0.383   3.509  12.764
 2971SOL     OW 9478   1.674   2.745  12.426
 2971SOL    HW1 9479   1.647   2.656  12.389
 2971SOL    HW2 9480   1.675   2.813  12.353
 2972SOL     OW 9481   1.225   2.187  11.621
 2972SOL    HW1 9482   1.290   2.113  11.610
 2972SOL    HW2 9483   1.245   2.237  11.705
 2973SOL     OW 9484   0.594   2.607  11.824
 2973SOL    HW1 9485   0.644   2.692  11.805
 2973SOL    HW2 9486   0.506   2.609  11.776
 2974SOL     OW 9487   1.777   2.204  12.814
 2974SOL    HW1 9488   1.760   2.235  12.720
 2974SOL    HW2 9489   1.693   2.167  12.852
 2975SOL     OW 9490   1.730   2.796  12.689
 2975SOL    HW1 9491   1.768   2.887  12.704
 2975SOL    HW2 9492   1.722   2.779  12.590
 2976SOL     OW 9493   0.859   3.236  11.188
 2976SOL    HW1 9494   0.813   3.251  11.276
 2976SOL    HW2 9495   0.903   3.321  11.158
 2977SOL     OW 9496   0.661   3.652  12.125
 2977SOL    HW1 9497   0.615   3.740  12.112
 2977SOL    HW2 9498   0.760   3.664  12.118
 2978SOL     OW 9499   0.859   2.818  12.033
 2978SOL    HW1 9500   0.913   2.749  12.081
 2978SOL    HW2 9501   0.827   2.887  12.099
 2979SOL     OW 9502   1.083   2.846  11.259
 2979SOL    HW1 9503   1.060   2.899  11.177
 2979SOL    HW2 9504   1.164   2.790  11.240
 2980SOL     OW 9505   1.861   3.431  12.023
 2980SOL    HW1 9506   1.790   3.419  11.953
 2980SOL    HW2 9507   1.862   3.352  12.083
 2981SOL     OW 9508   0.221   3.176  13.016
 2981SOL    HW1 9509   0.156   3.103  12.995
 2981SOL    HW2 9510   0.225   3.190  13.114
 2982SOL     OW 9511   0.079   3.102  11.825
 2982SOL    HW1 9512   0.078   3.055  11.913
 2982SOL    HW2 9513   0.161   3.074  11.774
 2983SOL     OW 9514   0.672   3.253  12.796
 2983SOL    HW1 9515   0.594   3.203  12.834
 2983SOL    HW2 9516   0.669   3.348  12.827
 2984SOL     OW 9517   0.428   2.286  11.692
 2984SOL    HW1 9518   0.458   2.214  11.630
 2984SOL    HW2 9519   0.389   2.246  11.775
 2985SOL     OW 9520   1.705   3.349  12.276
 2985SOL    HW1 9521   1.612   3.324  12.249
 2985SOL    HW2 9522   1.731   3.299  12.358
 2986SOL     OW 9523   0.317   2.409  12.452
 2986SOL    HW1 9524   0.355   2.350  12.524
 2986SOL    HW2 9525   0.357   2.383  12.364
 2987SOL     OW 9526   0.812   3.448  11.859
 2987SOL    HW1 9527   0.844   3.458  11.765
 2987SOL    HW2 9528   0.733   3.386  11.861
 2988SOL     OW 9529   1.424   2.076  12.284
 2988SOL    HW1 9530   1.476   2.011  12.339
 2988SOL    HW2 9531   1.375   2.139  12.345
 2989SOL     OW 9532   1.001   1.896  12.326
 2989SOL    HW1 9533   0.938   1.824  12.295
 2989SOL    HW2 9534   1.094   1.860  12.326
 2990SOL     OW 9535   0.770   3.192  11.473
 2990SOL    HW1 9536   0.724   3.105  11.490
 2990SOL    HW2 9537   0.861   3.189  11.514
 2991SOL     OW 9538   0.618   3.429  12.456
 2991SOL    HW1 9539   0.613   3.511  12.513
 2991SOL    HW2 9540   0.707   3.426  12.411
 2992SOL     OW 9541   1.352   1.914  11.340
 2992SOL    HW1 9542   1.387   1.873  11.256
 2992SOL    HW2 9543   1.262   1.876  11.360
 2993SOL     OW 9544   1.300   2.315  11.863
 2993SOL    HW1 9545   1.241   2.395  11.867
 2993SOL    HW2 9546   1.315   2.280  11.956
 2994SOL     OW 9547   1.593   2.083  12.054
 2994SOL    HW1 9548   1.509   2.082  12.108
 2994SOL    HW2 9549   1.595   2.166  11.998
 2995SOL     OW 9550   0.039   2.939  11.472
 2995SOL    HW1 9551   0.138   2.928  11.463
 2995SOL    HW2 9552  -0.001   2.853  11.504
 2996SOL     OW 9553   0.875   3.508  11.509
 2996SOL    HW1 9554   0.798   3.473  11.455
 2996SOL    HW2 9555   0.843   3.579  11.571
 2997SOL     OW 9556   0.230   2.490  13.147
 2997SOL    HW1 9557   0.137   2.488  13.184
 2997SOL    HW2 9558   0.231   2.451  13.055
 2998SOL     OW 9559   0.225   2.137  14.030
 2998SOL    HW1 9560   0.260   2.120  14.122
 2998SOL    HW2 9561   0.137   2.092  14.018
 2999SOL     OW 9562   0.019   2.230  13.681
 2999SOL    HW1 9563  -0.063   2.273  13.720
 2999SOL    HW2 9564  -0.009   2.157  13.618
 3000SOL     OW 9565   1.555   3.373  13.737
 3000SOL    HW1 9566   1.498   3.357  13.818
 3000SOL    HW2 9567   1.496   3.383  13.657
 3001SOL     OW 9568   1.135   2.565  13.751
 3001SOL    HW1 9569   1.192   2.643  13.726
 3001SOL    HW2 9570   1.075   2.591  13.827
 3002SOL     OW 9571   1.755   2.469  13.265
 3002SOL    HW1 9572   1.743   2.456  13.166
 3002SOL    HW2 9573   1.725   2.388  13.314
 3003SOL     OW 9574   0.685   2.874  13.699
 3003SOL    HW1 9575   0.754   2.858  13.769
 3003SOL    HW2 9576   0.612   2.931  13.737
 3004SOL     OW 9577   1.603   2.309  13.771
 3004SOL    HW1 9578   1.529   2.355  13.721
 3004SOL    HW2 9579   1.654   2.377  13.824
 3005SOL     OW 9580   0.231   3.575  13.517
 3005SOL    HW1 9581   0.265   3.652  13.571
 3005SOL    HW2 9582   0.275   3.575  13.427
 3006SOL     OW 9583   0.230   3.296  13.572
 3006SOL    HW1 9584   0.204   3.392  13.572
 3006SOL    HW2 9585   0.159   3.242  13.617
 3007SOL     OW 9586   0.240   2.953  13.920
 3007SOL    HW1 9587   0.254   2.869  13.972
 3007SOL    HW2 9588   0.185   3.017  13.975
 3008SOL     OW 9589   0.606   2.826  13.157
 3008SOL    HW1 9590   0.613   2.910  13.103
 3008SOL    HW2 9591   0.652   2.839  13.245
 3009SOL     OW 9592   0.122   2.505  13.597
 3009SOL    HW1 9593   0.077   2.417  13.614
 3009SOL    HW2 9594   0.121   2.559  13.681
 3010SOL     OW 9595   1.842   3.629  13.393
 3010SOL    HW1 9596   1.896   3.600  13.473
 3010SOL    HW2 9597   1.872   3.719  13.364
 3011SOL     OW 9598   0.027   3.458  13.151
 3011SOL    HW1 9599   0.008   3.362  13.172
 3011SOL    HW2 9600  -0.006   3.516  13.226
 3012SOL     OW 9601   1.689   2.784  13.646
 3012SOL    HW1 9602   1.784   2.755  13.654
 3012SOL    HW2 9603   1.681   2.849  13.571
 3013SOL     OW 9604   1.641   2.970  13.466
 3013SOL    HW1 9605   1.727   2.972  13.414
 3013SOL    HW2 9606   1.655   3.017  13.554
 3014SOL     OW 9607   0.613   3.227  13.760
 3014SOL    HW1 9608   0.564   3.140  13.769
 3014SOL    HW2 9609   0.590   3.270  13.673
 3015SOL     OW 9610   0.809   1.866  13.536
 3015SOL    HW1 9611   0.849   1.957  13.527
 3015SOL    HW2 9612   0.709   1.874  13.542
 3016SOL     OW 9613   1.525   2.861  13.224
 3016SOL    HW1 9614   1.462   2.785  13.237
 3016SOL    HW2 9615   1.573   2.879  13.310
 3017SOL     OW 9616   1.667   3.576  13.606
 3017SOL    HW1 9617   1.626   3.553  13.518
 3017SOL    HW2 9618   1.649   3.502  13.671
 3018SOL     OW 9619   0.598   2.591  13.304
 3018SOL    HW1 9620   0.622   2.660  13.236
 3018SOL    HW2 9621   0.520   2.624  13.358
 3019SOL     OW 9622   1.281   2.207  13.978
 3019SOL    HW1 9623   1.195   2.157  13.965
 3019SOL    HW2 9624   1.343   2.153  14.034
 3020SOL     OW 9625   1.576   3.524  13.341
 3020SOL    HW1 9626   1.665   3.570  13.344
 3020SOL    HW2 9627   1.555   3.500  13.246
 3021SOL     OW 9628   1.041   2.563  13.463
 3021SOL    HW1 9629   1.067   2.559  13.559
 3021SOL    HW2 9630   0.956   2.512  13.449
 3022SOL     OW 9631   0.076   2.673  13.823
 3022SOL    HW1 9632   0.175   2.661  13.832
 3022SOL    HW2 9633   0.052   2.768  13.844
 3023SOL     OW 9634   0.865   2.210  13.229
 3023SOL    HW1 9635   0.924   2.273  13.180
 3023SOL    HW2 9636   0.884   2.116  13.200
 3024SOL     OW 9637   1.362   3.006  13.579
 3024SOL    HW1 9638   1.445   2.977  13.531
 3024SOL    HW2 9639   1.313   3.073  13.523
 3025SOL     OW 9640   1.008   3.318  13.511
 3025SOL    HW1 9641   0.962   3.390  13.459
 3025SOL    HW2 9642   1.004   3.338  13.609
 3026SOL     OW 9643   0.351   3.663  13.887
 3026SOL    HW1 9644   0.401   3.577  13.893
 3026SOL    HW2 9645   0.416   3.740  13.884
 3027SOL     OW 9646   1.795   2.928  13.907
 3027SOL    HW1 9647   1.733   2.913  13.831
 3027SOL    HW2 9648   1.743   2.939  13.992
 3028SOL     OW 9649   0.321   2.805  13.276
 3028SOL    HW1 9650   0.403   2.844  13.234
 3028SOL    HW2 9651   0.294   2.723  13.227
 3029SOL     OW 9652   1.458   2.597  13.762
 3029SOL    HW1 9653   1.453   2.532  13.837
 3029SOL    HW2 9654   1.538   2.656  13.775
 3030SOL     OW 9655   1.111   3.638  13.271
 3030SOL    HW1 9656   1.051   3.576  13.321
 3030SOL    HW2 9657   1.142   3.594  13.186
 3031SOL     OW 9658   1.632   3.239  13.115
 3031SOL    HW1 9659   1.600   3.333  13.105
 3031SOL    HW2 9660   1.556   3.176  13.103
 3032SOL     OW 9661   0.464   3.605  13.357
 3032SOL    HW1 9662   0.497   3.644  13.443
 3032SOL    HW2 9663   0.540   3.598  13.292
 3033SOL     OW 9664   1.400   1.969  13.460
 3033SOL    HW1 9665   1.376   1.932  13.370
 3033SOL    HW2 9666   1.499   1.985  13.464
 3034SOL     OW 9667   0.940   3.560  13.938
 3034SOL    HW1 9668   1.020   3.503  13.959
 3034SOL    HW2 9669   0.891   3.520  13.861
 3035SOL     OW 9670   0.382   2.562  13.514
 3035SOL    HW1 9671   0.427   2.472  13.511
 3035SOL    HW2 9672   0.288   2.551  13.547
 3036SOL     OW 9673   0.614   1.984  13.151
 3036SOL    HW1 9674   0.712   1.962  13.158
 3036SOL    HW2 9675   0.583   1.967  13.058
 3037SOL     OW 9676   0.539   1.926  13.546
 3037SOL    HW1 9677   0.458   1.927  13.604
 3037SOL    HW2 9678   0.542   2.009  13.491
 3038SOL     OW 9679   1.434   3.050  13.075
 3038SOL    HW1 9680   1.466   2.974  13.132
 3038SOL    HW2 9681   1.342   3.077  13.105
 3039SOL     OW 9682   0.297   1.897  13.205
 3039SOL    HW1 9683   0.346   1.981  13.184
 3039SOL    HW2 9684   0.359   1.832  13.250
 3040SOL     OW 9685   0.935   2.098  13.514
 3040SOL    HW1 9686   0.887   2.139  13.436
 3040SOL    HW2 9687   1.034   2.096  13.495
 3041SOL     OW 9688   0.459   3.014  13.775
 3041SOL    HW1 9689   0.388   2.987  13.840
 3041SOL    HW2 9690   0.433   2.986  13.682
 3042SOL     OW 9691   1.271   3.659  13.625
 3042SOL    HW1 9692   1.315   3.723  13.561
 3042SOL    HW2 9693   1.221   3.711  13.695
 3043SOL     OW 9694   1.032   2.411  13.050
 3043SOL    HW1 9695   0.991   2.493  13.011
 3043SOL    HW2 9696   1.096   2.437  13.123
 3044SOL     OW 9697   0.866   2.316  13.676
 3044SOL    HW1 9698   0.834   2.388  13.614
 3044SOL    HW2 9699   0.890   2.235  13.623
 3045SOL     OW 9700   1.017   1.901  13.787
 3045SOL    HW1 9701   0.945   1.906  13.718
 3045SOL    HW2 9702   0.993   1.832  13.856
 3046SOL     OW 9703   1.857   2.695  13.411
 3046SOL    HW1 9704   1.899   2.631  13.475
 3046SOL    HW2 9705   1.819   2.644  13.333
 3047SOL     OW 9706   0.488   3.247  13.208
 3047SOL    HW1 9707   0.401   3.232  13.255
 3047SOL    HW2 9708   0.471   3.273  13.113
 3048SOL     OW 9709   1.664   3.142  13.691
 3048SOL    HW1 9710   1.763   3.150  13.705
 3048SOL    HW2 9711   1.619   3.226  13.722
 3049SOL     OW 9712   1.390   2.437  13.112
 3049SOL    HW1 9713   1.336   2.416  13.193
 3049SOL    HW2 9714   1.481   2.396  13.121
 3050SOL     OW 9715   0.527   2.118  13.362
 3050SOL    HW1 9716   0.554   2.059  13.287
 3050SOL    HW2 9717   0.527   2.213  13.331
 3051SOL     OW 9718   0.705   2.912  13.402
 3051SOL    HW1 9719   0.691   2.919  13.501
 3051SOL    HW2 9720   0.789   2.861  13.384
 3052SOL     OW 9721   0.367   2.962  13.535
 3052SOL    HW1 9722   0.360   3.045  13.479
 3052SOL    HW2 9723   0.371   2.882  13.475
 3053SOL     OW 9724   0.566   2.399  13.899
 3053SOL    HW1 9725   0.578   2.465  13.825
 3053SOL    HW2 9726   0.612   2.433  13.982
 3054SOL     OW 9727   1.252   3.210  13.422
 3054SOL    HW1 9728   1.302   3.287  13.462
 3054SOL    HW2 9729   1.157   3.212  13.454
 3055SOL     OW 9730   1.582   2.501  13.506
 3055SOL    HW1 9731   1.551   2.562  13.579
 3055SOL    HW2 9732   1.632   2.553  13.437
 3056SOL     OW 9733   1.209   2.387  13.309
 3056SOL    HW1 9734   1.222   2.303  13.363
 3056SOL    HW2 9735   1.180   2.461  13.369
 3057SOL     OW 9736   0.307   1.925  13.652
 3057SOL    HW1 9737   0.296   2.019  13.685
 3057SOL    HW2 9738   0.302   1.862  13.729
 3058SOL     OW 9739   1.622   2.229  13.408
 3058SOL    HW1 9740   1.624   2.153  13.472
 3058SOL    HW2 9741   1.574   2.306  13.448
 3059SOL     OW 9742   1.540   2.136  13.159
 3059SOL    HW1 9743   1.479   2.061  13.182
 3059SOL    HW2 9744   1.562   2.188  13.242
 3060SOL     OW 9745   1.303   2.700  13.076
 3060SOL    HW1 9746   1.337   2.607  13.091
 3060SOL    HW2 9747   1.321   2.727  12.981
 3061SOL     OW 9748   0.008   3.188  13.234
 3061SOL    HW1 9749  -0.085   3.209  13.203
 3061SOL    HW2 9750   0.018   3.089  13.247
 3062SOL     OW 9751   0.815   2.434  13.359
 3062SOL    HW1 9752   0.822   2.345  13.313
 3062SOL    HW2 9753   0.721   2.468  13.351
 3063SOL     OW 9754   0.473   2.362  13.225
 3063SOL    HW1 9755   0.534   2.442  13.229
 3063SOL    HW2 9756   0.378   2.393  13.232
 3064SOL     OW 9757   1.302   2.717  13.343
 3064SOL    HW1 9758   1.216   2.686  13.385
 3064SOL    HW2 9759   1.298   2.703  13.244
 3065SOL     OW 9760   1.388   3.435  13.511
 3065SOL    HW1 9761   1.455   3.447  13.437
 3065SOL    HW2 9762   1.348   3.524  13.534
 3066SOL     OW 9763   1.280   2.789  13.706
 3066SOL    HW1 9764   1.340   2.708  13.708
 3066SOL    HW2 9765   1.320   2.858  13.646
 3067SOL     OW 9766   0.672   3.478  13.188
 3067SOL    HW1 9767   0.681   3.488  13.089
 3067SOL    HW2 9768   0.632   3.389  13.209
 3068SOL     OW 9769   0.263   2.188  13.754
 3068SOL    HW1 9770   0.184   2.239  13.720
 3068SOL    HW2 9771   0.254   2.173  13.852
 3069SOL     OW 9772   1.194   3.474  13.065
 3069SOL    HW1 9773   1.200   3.381  13.102
 3069SOL    HW2 9774   1.135   3.474  12.985
 3070SOL     OW 9775   0.916   2.772  13.325
 3070SOL    HW1 9776   0.979   2.810  13.257
 3070SOL    HW2 9777   0.956   2.689  13.364
 3071SOL     OW 9778   1.504   3.469  13.078
 3071SOL    HW1 9779   1.412   3.506  13.085
 3071SOL    HW2 9780   1.542   3.489  12.988
 3072SOL     OW 9781   1.039   2.960  13.730
 3072SOL    HW1 9782   0.969   2.913  13.784
 3072SOL    HW2 9783   1.098   2.892  13.687
 3073SOL     OW 9784   0.590   3.349  13.525
 3073SOL    HW1 9785   0.632   3.291  13.455
 3073SOL    HW2 9786   0.546   3.428  13.481
 3074SOL     OW 9787   0.255   3.210  13.324
 3074SOL    HW1 9788   0.159   3.211  13.297
 3074SOL    HW2 9789   0.267   3.263  13.408
 3075SOL     OW 9790   0.075   2.207  13.067
 3075SOL    HW1 9791  -0.017   2.179  13.038
 3075SOL    HW2 9792   0.106   2.284  13.011
 3076SOL     OW 9793   0.072   2.028  13.352
 3076SOL    HW1 9794   0.055   2.111  13.298
 3076SOL    HW2 9795   0.162   1.991  13.330
 3077SOL     OW 9796   1.183   3.197  13.153
 3077SOL    HW1 9797   1.084   3.186  13.155
 3077SOL    HW2 9798   1.217   3.212  13.246
 3078SOL     OW 9799   1.225   2.187  13.483
 3078SOL    HW1 9800   1.290   2.113  13.472
 3078SOL    HW2 9801   1.245   2.237  13.567
 3079SOL     OW 9802   0.594   2.607  13.686
 3079SOL    HW1 9803   0.644   2.692  13.667
 3079SOL    HW2 9804   0.506   2.609  13.638
 3080SOL     OW 9805   0.859   3.236  13.050
 3080SOL    HW1 9806   0.813   3.251  13.138
 3080SOL    HW2 9807   0.903   3.321  13.020
 3081SOL     OW 9808   0.661   3.652  13.987
 3081SOL    HW1 9809   0.615   3.740  13.974
 3081SOL    HW2 9810   0.760   3.664  13.980
 3082SOL     OW 9811   0.859   2.818  13.895
 3082SOL    HW1 9812   0.913   2.749  13.943
 3082SOL    HW2 9813   0.827   2.887  13.961
 3083SOL     OW 9814   1.083   2.846  13.121
 3083SOL    HW1 9815   1.060   2.899  13.039
 3083SOL    HW2 9816   1.164   2.790  13.102
 3084SOL     OW 9817   0.079   3.102  13.687
 3084SOL    HW1 9818   0.078   3.055  13.775
 3084SOL    HW2 9819   0.161   3.074  13.636
 3085SOL     OW 9820   0.428   2.286  13.554
 3085SOL    HW1 9821   0.458   2.214  13.492
 3085SOL    HW2 9822   0.389   2.246  13.637
 3086SOL     OW 9823   1.705   3.349  14.138
 3086SOL    HW1 9824   1.612   3.324  14.111
 3086SOL    HW2 9825   1.731   3.299  14.220
 3087SOL     OW 9826   0.812   3.448  13.721
 3087SOL    HW1 9827   0.844   3.458  13.627
 3087SOL    HW2 9828   0.733   3.386  13.723
 3088SOL     OW 9829   0.770   3.192  13.335
 3088SOL    HW1 9830   0.724   3.105  13.352
 3088SOL    HW2 9831   0.861   3.189  13.376
 3089SOL     OW 9832   1.352   1.914  13.202
 3089SOL    HW1 9833   1.387   1.873  13.118
 3089SOL    HW2 9834   1.262   1.876  13.222
 3090SOL     OW 9835   1.300   2.315  13.725
 3090SOL    HW1 9836   1.241   2.395  13.729
 3090SOL    HW2 9837   1.315   2.280  13.818
 3091SOL     OW 9838   0.039   2.939  13.334
 3091SOL    HW1 9839   0.138   2.928  13.325
 3091SOL    HW2 9840  -0.001   2.853  13.366
 3092SOL     OW 9841   0.875   3.508  13.371
 3092SOL    HW1 9842   0.798   3.473  13.317
 3092SOL    HW2 9843   0.843   3.579  13.433
 3093SOL     OW 9844   0.225   3.999   0.996
 3093SOL    HW1 9845   0.260   3.982   1.088
 3093SOL    HW2 9846   0.137   3.954   0.984
 3094SOL     OW 9847   0.019   4.092   0.647
 3094SOL    HW1 9848  -0.063   4.135   0.686
 3094SOL    HW2 9849  -0.009   4.019   0.584
 3095SOL     OW 9850   1.755   4.331   0.231
 3095SOL    HW1 9851   1.743   4.318   0.132
 3095SOL    HW2 9852   1.725   4.250   0.280
 3096SOL     OW 9853   0.438   4.116   1.499
 3096SOL    HW1 9854   0.520   4.060   1.508
 3096SOL    HW2 9855   0.357   4.058   1.503
 3097SOL     OW 9856   1.594   3.838   1.480
 3097SOL    HW1 9857   1.576   3.905   1.408
 3097SOL    HW2 9858   1.591   3.884   1.569
 3098SOL     OW 9859   0.809   3.728   0.502
 3098SOL    HW1 9860   0.849   3.819   0.493
 3098SOL    HW2 9861   0.709   3.736   0.508
 3099SOL     OW 9862   1.281   4.069   0.944
 3099SOL    HW1 9863   1.195   4.019   0.931
 3099SOL    HW2 9864   1.343   4.015   1.000
 3100SOL     OW 9865   0.550   3.920   0.885
 3100SOL    HW1 9866   0.545   3.915   0.985
 3100SOL    HW2 9867   0.552   4.016   0.856
 3101SOL     OW 9868   0.202   4.009   1.498
 3101SOL    HW1 9869   0.122   4.069   1.485
 3101SOL    HW2 9870   0.192   3.960   1.584
 3102SOL     OW 9871   1.400   3.831   0.426
 3102SOL    HW1 9872   1.376   3.794   0.336
 3102SOL    HW2 9873   1.499   3.847   0.430
 3103SOL     OW 9874   1.547   3.946   1.729
 3103SOL    HW1 9875   1.542   3.983   1.821
 3103SOL    HW2 9876   1.475   3.877   1.717
 3104SOL     OW 9877   0.781   3.988   1.749
 3104SOL    HW1 9878   0.848   3.927   1.792
 3104SOL    HW2 9879   0.708   4.007   1.814
 3105SOL     OW 9880   0.539   3.788   0.512
 3105SOL    HW1 9881   0.458   3.789   0.570
 3105SOL    HW2 9882   0.542   3.871   0.457
 3106SOL     OW 9883   0.297   3.759   0.171
 3106SOL    HW1 9884   0.346   3.843   0.150
 3106SOL    HW2 9885   0.359   3.694   0.216
 3107SOL     OW 9886   0.561   3.946   1.147
 3107SOL    HW1 9887   0.599   3.862   1.184
 3107SOL    HW2 9888   0.473   3.965   1.191
 3108SOL     OW 9889   1.017   3.763   0.753
 3108SOL    HW1 9890   0.945   3.768   0.684
 3108SOL    HW2 9891   0.993   3.694   0.822
 3109SOL     OW 9892   0.915   3.813   1.402
 3109SOL    HW1 9893   0.940   3.793   1.307
 3109SOL    HW2 9894   0.987   3.869   1.444
 3110SOL     OW 9895   1.274   4.110   1.262
 3110SOL    HW1 9896   1.295   4.184   1.326
 3110SOL    HW2 9897   1.185   4.127   1.219
 3111SOL     OW 9898   0.504   3.774   1.740
 3111SOL    HW1 9899   0.462   3.717   1.670
 3111SOL    HW2 9900   0.438   3.843   1.772
 3112SOL     OW 9901   0.307   3.937   1.231
 3112SOL    HW1 9902   0.284   3.974   1.321
 3112SOL    HW2 9903   0.277   3.842   1.225
 3113SOL     OW 9904   1.540   3.998   0.125
 3113SOL    HW1 9905   1.479   3.923   0.148
 3113SOL    HW2 9906   1.562   4.050   0.208
 3114SOL     OW 9907   1.160   3.931   1.477
 3114SOL    HW1 9908   1.160   3.995   1.554
 3114SOL    HW2 9909   1.188   3.979   1.394
 3115SOL     OW 9910   0.903   3.810   0.133
 3115SOL    HW1 9911   0.954   3.811   0.047
 3115SOL    HW2 9912   0.959   3.768   0.204
 3116SOL     OW 9913   1.726   3.859   0.523
 3116SOL    HW1 9914   1.799   3.842   0.456
 3116SOL    HW2 9915   1.695   3.772   0.561
 3117SOL     OW 9916   1.841   3.899   0.963
 3117SOL    HW1 9917   1.880   3.814   0.927
 3117SOL    HW2 9918   1.743   3.901   0.944
 3118SOL     OW 9919   0.672   3.927   1.489
 3118SOL    HW1 9920   0.762   3.911   1.449
 3118SOL    HW2 9921   0.680   3.932   1.588
 3119SOL     OW 9922   0.075   4.069   0.033
 3119SOL    HW1 9923  -0.017   4.041   0.004
 3119SOL    HW2 9924   0.106   4.146  -0.023
 3120SOL     OW 9925   0.072   3.890   0.318
 3120SOL    HW1 9926   0.055   3.973   0.264
 3120SOL    HW2 9927   0.162   3.853   0.296
 3121SOL     OW 9928   1.225   4.049   0.449
 3121SOL    HW1 9929   1.290   3.975   0.438
 3121SOL    HW2 9930   1.245   4.099   0.533
 3122SOL     OW 9931   1.777   4.066   1.642
 3122SOL    HW1 9932   1.760   4.097   1.548
 3122SOL    HW2 9933   1.693   4.029   1.680
 3123SOL     OW 9934   1.824   3.916   1.227
 3123SOL    HW1 9935   1.820   3.826   1.271
 3123SOL    HW2 9936   1.827   3.905   1.128
 3124SOL     OW 9937   1.424   3.938   1.112
 3124SOL    HW1 9938   1.476   3.873   1.167
 3124SOL    HW2 9939   1.375   4.001   1.173
 3125SOL     OW 9940   1.001   3.758   1.154
 3125SOL    HW1 9941   0.938   3.686   1.123
 3125SOL    HW2 9942   1.094   3.722   1.154
 3126SOL     OW 9943   1.352   3.776   0.168
 3126SOL    HW1 9944   1.387   3.735   0.084
 3126SOL    HW2 9945   1.262   3.738   0.188
 3127SOL     OW 9946   1.300   4.177   0.691
 3127SOL    HW1 9947   1.241   4.257   0.695
 3127SOL    HW2 9948   1.315   4.142   0.784
 3128SOL     OW 9949   1.593   3.945   0.882
 3128SOL    HW1 9950   1.509   3.944   0.936
 3128SOL    HW2 9951   1.595   4.028   0.826
 3129SOL     OW 9952   0.225   3.999   2.858
 3129SOL    HW1 9953   0.260   3.982   2.950
 3129SOL    HW2 9954   0.137   3.954   2.846
 3130SOL     OW 9955   0.019   4.092   2.509
 3130SOL    HW1 9956  -0.063   4.135   2.548
 3130SOL    HW2 9957  -0.009   4.019   2.446
 3131SOL     OW 9958   1.755   4.331   2.093
 3131SOL    HW1 9959   1.743   4.318   1.994
 3131SOL    HW2 9960   1.725   4.250   2.142
 3132SOL     OW 9961   0.438   4.116   3.361
 3132SOL    HW1 9962   0.520   4.060   3.370
 3132SOL    HW2 9963   0.357   4.058   3.365
 3133SOL     OW 9964   1.594   3.838   3.342
 3133SOL    HW1 9965   1.576   3.905   3.270
 3133SOL    HW2 9966   1.591   3.884   3.431
 3134SOL     OW 9967   0.809   3.728   2.364
 3134SOL    HW1 9968   0.849   3.819   2.355
 3134SOL    HW2 9969   0.709   3.736   2.370
 3135SOL     OW 9970   1.281   4.069   2.806
 3135SOL    HW1 9971   1.195   4.019   2.793
 3135SOL    HW2 9972   1.343   4.015   2.862
 3136SOL     OW 9973   0.550   3.920   2.747
 3136SOL    HW1 9974   0.545   3.915   2.847
 3136SOL    HW2 9975   0.552   4.016   2.718
 3137SOL     OW 9976   0.202   4.009   3.360
 3137SOL    HW1 9977   0.122   4.069   3.347
 3137SOL    HW2 9978   0.192   3.960   3.446
 3138SOL     OW 9979   1.400   3.831   2.288
 3138SOL    HW1 9980   1.376   3.794   2.198
 3138SOL    HW2 9981   1.499   3.847   2.292
 3139SOL     OW 9982   1.547   3.946   3.591
 3139SOL    HW1 9983   1.542   3.983   3.683
 3139SOL    HW2 9984   1.475   3.877   3.579
 3140SOL     OW 9985   0.614   3.846   1.979
 3140SOL    HW1 9986   0.712   3.824   1.986
 3140SOL    HW2 9987   0.583   3.829   1.886
 3141SOL     OW 9988   0.781   3.988   3.611
 3141SOL    HW1 9989   0.848   3.927   3.654
 3141SOL    HW2 9990   0.708   4.007   3.676
 3142SOL     OW 9991   0.539   3.788   2.374
 3142SOL    HW1 9992   0.458   3.789   2.432
 3142SOL    HW2 9993   0.542   3.871   2.319
 3143SOL     OW 9994   0.297   3.759   2.033
 3143SOL    HW1 9995   0.346   3.843   2.012
 3143SOL    HW2 9996   0.359   3.694   2.078
 3144SOL     OW 9997   0.561   3.946   3.009
 3144SOL    HW1 9998   0.599   3.862   3.046
 3144SOL    HW2 9999   0.473   3.965   3.053
 3145SOL     OW10000   1.017   3.763   2.615
 3145SOL    HW110001   0.945   3.768   2.546
 3145SOL    HW210002   0.993   3.694   2.684
 3146SOL     OW10003   0.915   3.813   3.264
 3146SOL    HW110004   0.940   3.793   3.169
 3146SOL    HW210005   0.987   3.869   3.306
 3147SOL     OW10006   1.274   4.110   3.124
 3147SOL    HW110007   1.295   4.184   3.188
 3147SOL    HW210008   1.185   4.127   3.081
 3148SOL     OW10009   0.504   3.774   3.602
 3148SOL    HW110010   0.462   3.717   3.532
 3148SOL    HW210011   0.438   3.843   3.634
 3149SOL     OW10012   0.307   3.937   3.093
 3149SOL    HW110013   0.284   3.974   3.183
 3149SOL    HW210014   0.277   3.842   3.087
 3150SOL     OW10015   1.540   3.998   1.987
 3150SOL    HW110016   1.479   3.923   2.010
 3150SOL    HW210017   1.562   4.050   2.070
 3151SOL     OW10018   1.160   3.931   3.339
 3151SOL    HW110019   1.160   3.995   3.416
 3151SOL    HW210020   1.188   3.979   3.256
 3152SOL     OW10021   0.903   3.810   1.995
 3152SOL    HW110022   0.954   3.811   1.909
 3152SOL    HW210023   0.959   3.768   2.066
 3153SOL     OW10024   1.726   3.859   2.385
 3153SOL    HW110025   1.799   3.842   2.318
 3153SOL    HW210026   1.695   3.772   2.423
 3154SOL     OW10027   1.841   3.899   2.825
 3154SOL    HW110028   1.880   3.814   2.789
 3154SOL    HW210029   1.743   3.901   2.806
 3155SOL     OW10030   0.672   3.927   3.351
 3155SOL    HW110031   0.762   3.911   3.311
 3155SOL    HW210032   0.680   3.932   3.450
 3156SOL     OW10033   0.075   4.069   1.895
 3156SOL    HW110034  -0.017   4.041   1.866
 3156SOL    HW210035   0.106   4.146   1.839
 3157SOL     OW10036   0.072   3.890   2.180
 3157SOL    HW110037   0.055   3.973   2.126
 3157SOL    HW210038   0.162   3.853   2.158
 3158SOL     OW10039   1.225   4.049   2.311
 3158SOL    HW110040   1.290   3.975   2.300
 3158SOL    HW210041   1.245   4.099   2.395
 3159SOL     OW10042   1.777   4.066   3.504
 3159SOL    HW110043   1.760   4.097   3.410
 3159SOL    HW210044   1.693   4.029   3.542
 3160SOL     OW10045   1.824   3.916   3.089
 3160SOL    HW110046   1.820   3.826   3.133
 3160SOL    HW210047   1.827   3.905   2.990
 3161SOL     OW10048   1.424   3.938   2.974
 3161SOL    HW110049   1.476   3.873   3.029
 3161SOL    HW210050   1.375   4.001   3.035
 3162SOL     OW10051   1.001   3.758   3.016
 3162SOL    HW110052   0.938   3.686   2.985
 3162SOL    HW210053   1.094   3.722   3.016
 3163SOL     OW10054   1.352   3.776   2.030
 3163SOL    HW110055   1.387   3.735   1.946
 3163SOL    HW210056   1.262   3.738   2.050
 3164SOL     OW10057   1.300   4.177   2.553
 3164SOL    HW110058   1.241   4.257   2.557
 3164SOL    HW210059   1.315   4.142   2.646
 3165SOL     OW10060   1.593   3.945   2.744
 3165SOL    HW110061   1.509   3.944   2.798
 3165SOL    HW210062   1.595   4.028   2.688
 3166SOL     OW10063   0.225   3.999   4.720
 3166SOL    HW110064   0.260   3.982   4.812
 3166SOL    HW210065   0.137   3.954   4.708
 3167SOL     OW10066   0.019   4.092   4.371
 3167SOL    HW110067  -0.063   4.135   4.410
 3167SOL    HW210068  -0.009   4.019   4.308
 3168SOL     OW10069   1.755   4.331   3.955
 3168SOL    HW110070   1.743   4.318   3.856
 3168SOL    HW210071   1.725   4.250   4.004
 3169SOL     OW10072   0.438   4.116   5.223
 3169SOL    HW110073   0.520   4.060   5.232
 3169SOL    HW210074   0.357   4.058   5.227
 3170SOL     OW10075   1.594   3.838   5.204
 3170SOL    HW110076   1.576   3.905   5.132
 3170SOL    HW210077   1.591   3.884   5.293
 3171SOL     OW10078   0.809   3.728   4.226
 3171SOL    HW110079   0.849   3.819   4.217
 3171SOL    HW210080   0.709   3.736   4.232
 3172SOL     OW10081   1.281   4.069   4.668
 3172SOL    HW110082   1.195   4.019   4.655
 3172SOL    HW210083   1.343   4.015   4.724
 3173SOL     OW10084   0.550   3.920   4.609
 3173SOL    HW110085   0.545   3.915   4.709
 3173SOL    HW210086   0.552   4.016   4.580
 3174SOL     OW10087   0.202   4.009   5.222
 3174SOL    HW110088   0.122   4.069   5.209
 3174SOL    HW210089   0.192   3.960   5.308
 3175SOL     OW10090   1.400   3.831   4.150
 3175SOL    HW110091   1.376   3.794   4.060
 3175SOL    HW210092   1.499   3.847   4.154
 3176SOL     OW10093   1.547   3.946   5.453
 3176SOL    HW110094   1.542   3.983   5.545
 3176SOL    HW210095   1.475   3.877   5.441
 3177SOL     OW10096   0.614   3.846   3.841
 3177SOL    HW110097   0.712   3.824   3.848
 3177SOL    HW210098   0.583   3.829   3.748
 3178SOL     OW10099   0.781   3.988   5.473
 3178SOL    HW110100   0.848   3.927   5.516
 3178SOL    HW210101   0.708   4.007   5.538
 3179SOL     OW10102   0.539   3.788   4.236
 3179SOL    HW110103   0.458   3.789   4.294
 3179SOL    HW210104   0.542   3.871   4.181
 3180SOL     OW10105   0.297   3.759   3.895
 3180SOL    HW110106   0.346   3.843   3.874
 3180SOL    HW210107   0.359   3.694   3.940
 3181SOL     OW10108   0.561   3.946   4.871
 3181SOL    HW110109   0.599   3.862   4.908
 3181SOL    HW210110   0.473   3.965   4.915
 3182SOL     OW10111   1.017   3.763   4.477
 3182SOL    HW110112   0.945   3.768   4.408
 3182SOL    HW210113   0.993   3.694   4.546
 3183SOL     OW10114   0.915   3.813   5.126
 3183SOL    HW110115   0.940   3.793   5.031
 3183SOL    HW210116   0.987   3.869   5.168
 3184SOL     OW10117   1.274   4.110   4.986
 3184SOL    HW110118   1.295   4.184   5.050
 3184SOL    HW210119   1.185   4.127   4.943
 3185SOL     OW10120   0.504   3.774   5.464
 3185SOL    HW110121   0.462   3.717   5.394
 3185SOL    HW210122   0.438   3.843   5.496
 3186SOL     OW10123   0.307   3.937   4.955
 3186SOL    HW110124   0.284   3.974   5.045
 3186SOL    HW210125   0.277   3.842   4.949
 3187SOL     OW10126   1.540   3.998   3.849
 3187SOL    HW110127   1.479   3.923   3.872
 3187SOL    HW210128   1.562   4.050   3.932
 3188SOL     OW10129   1.160   3.931   5.201
 3188SOL    HW110130   1.160   3.995   5.278
 3188SOL    HW210131   1.188   3.979   5.118
 3189SOL     OW10132   0.903   3.810   3.857
 3189SOL    HW110133   0.954   3.811   3.771
 3189SOL    HW210134   0.959   3.768   3.928
 3190SOL     OW10135   1.726   3.859   4.247
 3190SOL    HW110136   1.799   3.842   4.180
 3190SOL    HW210137   1.695   3.772   4.285
 3191SOL     OW10138   1.841   3.899   4.687
 3191SOL    HW110139   1.880   3.814   4.651
 3191SOL    HW210140   1.743   3.901   4.668
 3192SOL     OW10141   0.672   3.927   5.213
 3192SOL    HW110142   0.762   3.911   5.173
 3192SOL    HW210143   0.680   3.932   5.312
 3193SOL     OW10144   0.075   4.069   3.757
 3193SOL    HW110145  -0.017   4.041   3.728
 3193SOL    HW210146   0.106   4.146   3.701
 3194SOL     OW10147   0.072   3.890   4.042
 3194SOL    HW110148   0.055   3.973   3.988
 3194SOL    HW210149   0.162   3.853   4.020
 3195SOL     OW10150   1.225   4.049   4.173
 3195SOL    HW110151   1.290   3.975   4.162
 3195SOL    HW210152   1.245   4.099   4.257
 3196SOL     OW10153   1.777   4.066   5.366
 3196SOL    HW110154   1.760   4.097   5.272
 3196SOL    HW210155   1.693   4.029   5.404
 3197SOL     OW10156   1.824   3.916   4.951
 3197SOL    HW110157   1.820   3.826   4.995
 3197SOL    HW210158   1.827   3.905   4.852
 3198SOL     OW10159   1.424   3.938   4.836
 3198SOL    HW110160   1.476   3.873   4.891
 3198SOL    HW210161   1.375   4.001   4.897
 3199SOL     OW10162   1.001   3.758   4.878
 3199SOL    HW110163   0.938   3.686   4.847
 3199SOL    HW210164   1.094   3.722   4.878
 3200SOL     OW10165   1.352   3.776   3.892
 3200SOL    HW110166   1.387   3.735   3.808
 3200SOL    HW210167   1.262   3.738   3.912
 3201SOL     OW10168   1.300   4.177   4.415
 3201SOL    HW110169   1.241   4.257   4.419
 3201SOL    HW210170   1.315   4.142   4.508
 3202SOL     OW10171   1.593   3.945   4.606
 3202SOL    HW110172   1.509   3.944   4.660
 3202SOL    HW210173   1.595   4.028   4.550
 3203SOL     OW10174   0.225   3.999   6.582
 3203SOL    HW110175   0.260   3.982   6.674
 3203SOL    HW210176   0.137   3.954   6.570
 3204SOL     OW10177   0.019   4.092   6.233
 3204SOL    HW110178  -0.063   4.135   6.272
 3204SOL    HW210179  -0.009   4.019   6.170
 3205SOL     OW10180   1.755   4.331   5.817
 3205SOL    HW110181   1.743   4.318   5.718
 3205SOL    HW210182   1.725   4.250   5.866
 3206SOL     OW10183   0.438   4.116   7.085
 3206SOL    HW110184   0.520   4.060   7.094
 3206SOL    HW210185   0.357   4.058   7.089
 3207SOL     OW10186   1.594   3.838   7.066
 3207SOL    HW110187   1.576   3.905   6.994
 3207SOL    HW210188   1.591   3.884   7.155
 3208SOL     OW10189   0.809   3.728   6.088
 3208SOL    HW110190   0.849   3.819   6.079
 3208SOL    HW210191   0.709   3.736   6.094
 3209SOL     OW10192   1.281   4.069   6.530
 3209SOL    HW110193   1.195   4.019   6.517
 3209SOL    HW210194   1.343   4.015   6.586
 3210SOL     OW10195   0.550   3.920   6.471
 3210SOL    HW110196   0.545   3.915   6.571
 3210SOL    HW210197   0.552   4.016   6.442
 3211SOL     OW10198   0.202   4.009   7.084
 3211SOL    HW110199   0.122   4.069   7.071
 3211SOL    HW210200   0.192   3.960   7.170
 3212SOL     OW10201   1.400   3.831   6.012
 3212SOL    HW110202   1.376   3.794   5.922
 3212SOL    HW210203   1.499   3.847   6.016
 3213SOL     OW10204   1.547   3.946   7.315
 3213SOL    HW110205   1.542   3.983   7.407
 3213SOL    HW210206   1.475   3.877   7.303
 3214SOL     OW10207   0.614   3.846   5.703
 3214SOL    HW110208   0.712   3.824   5.710
 3214SOL    HW210209   0.583   3.829   5.610
 3215SOL     OW10210   0.781   3.988   7.335
 3215SOL    HW110211   0.848   3.927   7.378
 3215SOL    HW210212   0.708   4.007   7.400
 3216SOL     OW10213   0.539   3.788   6.098
 3216SOL    HW110214   0.458   3.789   6.156
 3216SOL    HW210215   0.542   3.871   6.043
 3217SOL     OW10216   0.297   3.759   5.757
 3217SOL    HW110217   0.346   3.843   5.736
 3217SOL    HW210218   0.359   3.694   5.802
 3218SOL     OW10219   0.561   3.946   6.733
 3218SOL    HW110220   0.599   3.862   6.770
 3218SOL    HW210221   0.473   3.965   6.777
 3219SOL     OW10222   1.017   3.763   6.339
 3219SOL    HW110223   0.945   3.768   6.270
 3219SOL    HW210224   0.993   3.694   6.408
 3220SOL     OW10225   0.915   3.813   6.988
 3220SOL    HW110226   0.940   3.793   6.893
 3220SOL    HW210227   0.987   3.869   7.030
 3221SOL     OW10228   1.274   4.110   6.848
 3221SOL    HW110229   1.295   4.184   6.912
 3221SOL    HW210230   1.185   4.127   6.805
 3222SOL     OW10231   0.504   3.774   7.326
 3222SOL    HW110232   0.462   3.717   7.256
 3222SOL    HW210233   0.438   3.843   7.358
 3223SOL     OW10234   0.307   3.937   6.817
 3223SOL    HW110235   0.284   3.974   6.907
 3223SOL    HW210236   0.277   3.842   6.811
 3224SOL     OW10237   1.540   3.998   5.711
 3224SOL    HW110238   1.479   3.923   5.734
 3224SOL    HW210239   1.562   4.050   5.794
 3225SOL     OW10240   1.160   3.931   7.063
 3225SOL    HW110241   1.160   3.995   7.140
 3225SOL    HW210242   1.188   3.979   6.980
 3226SOL     OW10243   0.903   3.810   5.719
 3226SOL    HW110244   0.954   3.811   5.633
 3226SOL    HW210245   0.959   3.768   5.790
 3227SOL     OW10246   1.726   3.859   6.109
 3227SOL    HW110247   1.799   3.842   6.042
 3227SOL    HW210248   1.695   3.772   6.147
 3228SOL     OW10249   1.841   3.899   6.549
 3228SOL    HW110250   1.880   3.814   6.513
 3228SOL    HW210251   1.743   3.901   6.530
 3229SOL     OW10252   0.672   3.927   7.075
 3229SOL    HW110253   0.762   3.911   7.035
 3229SOL    HW210254   0.680   3.932   7.174
 3230SOL     OW10255   0.075   4.069   5.619
 3230SOL    HW110256  -0.017   4.041   5.590
 3230SOL    HW210257   0.106   4.146   5.563
 3231SOL     OW10258   0.072   3.890   5.904
 3231SOL    HW110259   0.055   3.973   5.850
 3231SOL    HW210260   0.162   3.853   5.882
 3232SOL     OW10261   1.225   4.049   6.035
 3232SOL    HW110262   1.290   3.975   6.024
 3232SOL    HW210263   1.245   4.099   6.119
 3233SOL     OW10264   1.777   4.066   7.228
 3233SOL    HW110265   1.760   4.097   7.134
 3233SOL    HW210266   1.693   4.029   7.266
 3234SOL     OW10267   1.824   3.916   6.813
 3234SOL    HW110268   1.820   3.826   6.857
 3234SOL    HW210269   1.827   3.905   6.714
 3235SOL     OW10270   1.424   3.938   6.698
 3235SOL    HW110271   1.476   3.873   6.753
 3235SOL    HW210272   1.375   4.001   6.759
 3236SOL     OW10273   1.001   3.758   6.740
 3236SOL    HW110274   0.938   3.686   6.709
 3236SOL    HW210275   1.094   3.722   6.740
 3237SOL     OW10276   1.352   3.776   5.754
 3237SOL    HW110277   1.387   3.735   5.670
 3237SOL    HW210278   1.262   3.738   5.774
 3238SOL     OW10279   1.300   4.177   6.277
 3238SOL    HW110280   1.241   4.257   6.281
 3238SOL    HW210281   1.315   4.142   6.370
 3239SOL     OW10282   1.593   3.945   6.468
 3239SOL    HW110283   1.509   3.944   6.522
 3239SOL    HW210284   1.595   4.028   6.412
 3240SOL     OW10285   0.225   3.999   8.444
 3240SOL    HW110286   0.260   3.982   8.536
 3240SOL    HW210287   0.137   3.954   8.432
 3241SOL     OW10288   0.019   4.092   8.095
 3241SOL    HW110289  -0.063   4.135   8.134
 3241SOL    HW210290  -0.009   4.019   8.032
 3242SOL     OW10291   1.755   4.331   7.679
 3242SOL    HW110292   1.743   4.318   7.580
 3242SOL    HW210293   1.725   4.250   7.728
 3243SOL     OW10294   0.438   4.116   8.947
 3243SOL    HW110295   0.520   4.060   8.956
 3243SOL    HW210296   0.357   4.058   8.951
 3244SOL     OW10297   1.594   3.838   8.928
 3244SOL    HW110298   1.576   3.905   8.856
 3244SOL    HW210299   1.591   3.884   9.017
 3245SOL     OW10300   0.809   3.728   7.950
 3245SOL    HW110301   0.849   3.819   7.941
 3245SOL    HW210302   0.709   3.736   7.956
 3246SOL     OW10303   1.281   4.069   8.392
 3246SOL    HW110304   1.195   4.019   8.379
 3246SOL    HW210305   1.343   4.015   8.448
 3247SOL     OW10306   0.550   3.920   8.333
 3247SOL    HW110307   0.545   3.915   8.433
 3247SOL    HW210308   0.552   4.016   8.304
 3248SOL     OW10309   0.202   4.009   8.946
 3248SOL    HW110310   0.122   4.069   8.933
 3248SOL    HW210311   0.192   3.960   9.032
 3249SOL     OW10312   1.400   3.831   7.874
 3249SOL    HW110313   1.376   3.794   7.784
 3249SOL    HW210314   1.499   3.847   7.878
 3250SOL     OW10315   1.547   3.946   9.177
 3250SOL    HW110316   1.542   3.983   9.269
 3250SOL    HW210317   1.475   3.877   9.165
 3251SOL     OW10318   0.614   3.846   7.565
 3251SOL    HW110319   0.712   3.824   7.572
 3251SOL    HW210320   0.583   3.829   7.472
 3252SOL     OW10321   0.781   3.988   9.197
 3252SOL    HW110322   0.848   3.927   9.240
 3252SOL    HW210323   0.708   4.007   9.262
 3253SOL     OW10324   0.539   3.788   7.960
 3253SOL    HW110325   0.458   3.789   8.018
 3253SOL    HW210326   0.542   3.871   7.905
 3254SOL     OW10327   0.297   3.759   7.619
 3254SOL    HW110328   0.346   3.843   7.598
 3254SOL    HW210329   0.359   3.694   7.664
 3255SOL     OW10330   0.561   3.946   8.595
 3255SOL    HW110331   0.599   3.862   8.632
 3255SOL    HW210332   0.473   3.965   8.639
 3256SOL     OW10333   1.017   3.763   8.201
 3256SOL    HW110334   0.945   3.768   8.132
 3256SOL    HW210335   0.993   3.694   8.270
 3257SOL     OW10336   0.915   3.813   8.850
 3257SOL    HW110337   0.940   3.793   8.755
 3257SOL    HW210338   0.987   3.869   8.892
 3258SOL     OW10339   1.274   4.110   8.710
 3258SOL    HW110340   1.295   4.184   8.774
 3258SOL    HW210341   1.185   4.127   8.667
 3259SOL     OW10342   0.504   3.774   9.188
 3259SOL    HW110343   0.462   3.717   9.118
 3259SOL    HW210344   0.438   3.843   9.220
 3260SOL     OW10345   0.307   3.937   8.679
 3260SOL    HW110346   0.284   3.974   8.769
 3260SOL    HW210347   0.277   3.842   8.673
 3261SOL     OW10348   1.540   3.998   7.573
 3261SOL    HW110349   1.479   3.923   7.596
 3261SOL    HW210350   1.562   4.050   7.656
 3262SOL     OW10351   1.160   3.931   8.925
 3262SOL    HW110352   1.160   3.995   9.002
 3262SOL    HW210353   1.188   3.979   8.842
 3263SOL     OW10354   0.903   3.810   7.581
 3263SOL    HW110355   0.954   3.811   7.495
 3263SOL    HW210356   0.959   3.768   7.652
 3264SOL     OW10357   1.726   3.859   7.971
 3264SOL    HW110358   1.799   3.842   7.904
 3264SOL    HW210359   1.695   3.772   8.009
 3265SOL     OW10360   1.841   3.899   8.411
 3265SOL    HW110361   1.880   3.814   8.375
 3265SOL    HW210362   1.743   3.901   8.392
 3266SOL     OW10363   0.672   3.927   8.937
 3266SOL    HW110364   0.762   3.911   8.897
 3266SOL    HW210365   0.680   3.932   9.036
 3267SOL     OW10366   0.075   4.069   7.481
 3267SOL    HW110367  -0.017   4.041   7.452
 3267SOL    HW210368   0.106   4.146   7.425
 3268SOL     OW10369   0.072   3.890   7.766
 3268SOL    HW110370   0.055   3.973   7.712
 3268SOL    HW210371   0.162   3.853   7.744
 3269SOL     OW10372   1.225   4.049   7.897
 3269SOL    HW110373   1.290   3.975   7.886
 3269SOL    HW210374   1.245   4.099   7.981
 3270SOL     OW10375   1.777   4.066   9.090
 3270SOL    HW110376   1.760   4.097   8.996
 3270SOL    HW210377   1.693   4.029   9.128
 3271SOL     OW10378   1.824   3.916   8.675
 3271SOL    HW110379   1.820   3.826   8.719
 3271SOL    HW210380   1.827   3.905   8.576
 3272SOL     OW10381   1.424   3.938   8.560
 3272SOL    HW110382   1.476   3.873   8.615
 3272SOL    HW210383   1.375   4.001   8.621
 3273SOL     OW10384   1.001   3.758   8.602
 3273SOL    HW110385   0.938   3.686   8.571
 3273SOL    HW210386   1.094   3.722   8.602
 3274SOL     OW10387   1.352   3.776   7.616
 3274SOL    HW110388   1.387   3.735   7.532
 3274SOL    HW210389   1.262   3.738   7.636
 3275SOL     OW10390   1.300   4.177   8.139
 3275SOL    HW110391   1.241   4.257   8.143
 3275SOL    HW210392   1.315   4.142   8.232
 3276SOL     OW10393   1.593   3.945   8.330
 3276SOL    HW110394   1.509   3.944   8.384
 3276SOL    HW210395   1.595   4.028   8.274
 3277SOL     OW10396   0.225   3.999  10.306
 3277SOL    HW110397   0.260   3.982  10.398
 3277SOL    HW210398   0.137   3.954  10.294
 3278SOL     OW10399   0.019   4.092   9.957
 3278SOL    HW110400  -0.063   4.135   9.996
 3278SOL    HW210401  -0.009   4.019   9.894
 3279SOL     OW10402   1.755   4.331   9.541
 3279SOL    HW110403   1.743   4.318   9.442
 3279SOL    HW210404   1.725   4.250   9.590
 3280SOL     OW10405   0.438   4.116  10.809
 3280SOL    HW110406   0.520   4.060  10.818
 3280SOL    HW210407   0.357   4.058  10.813
 3281SOL     OW10408   1.594   3.838  10.790
 3281SOL    HW110409   1.576   3.905  10.718
 3281SOL    HW210410   1.591   3.884  10.879
 3282SOL     OW10411   0.809   3.728   9.812
 3282SOL    HW110412   0.849   3.819   9.803
 3282SOL    HW210413   0.709   3.736   9.818
 3283SOL     OW10414   1.281   4.069  10.254
 3283SOL    HW110415   1.195   4.019  10.241
 3283SOL    HW210416   1.343   4.015  10.310
 3284SOL     OW10417   0.550   3.920  10.195
 3284SOL    HW110418   0.545   3.915  10.295
 3284SOL    HW210419   0.552   4.016  10.166
 3285SOL     OW10420   0.202   4.009  10.808
 3285SOL    HW110421   0.122   4.069  10.795
 3285SOL    HW210422   0.192   3.960  10.894
 3286SOL     OW10423   1.400   3.831   9.736
 3286SOL    HW110424   1.376   3.794   9.646
 3286SOL    HW210425   1.499   3.847   9.740
 3287SOL     OW10426   1.547   3.946  11.039
 3287SOL    HW110427   1.542   3.983  11.131
 3287SOL    HW210428   1.475   3.877  11.027
 3288SOL     OW10429   0.614   3.846   9.427
 3288SOL    HW110430   0.712   3.824   9.434
 3288SOL    HW210431   0.583   3.829   9.334
 3289SOL     OW10432   0.781   3.988  11.059
 3289SOL    HW110433   0.848   3.927  11.102
 3289SOL    HW210434   0.708   4.007  11.124
 3290SOL     OW10435   0.539   3.788   9.822
 3290SOL    HW110436   0.458   3.789   9.880
 3290SOL    HW210437   0.542   3.871   9.767
 3291SOL     OW10438   0.297   3.759   9.481
 3291SOL    HW110439   0.346   3.843   9.460
 3291SOL    HW210440   0.359   3.694   9.526
 3292SOL     OW10441   0.561   3.946  10.457
 3292SOL    HW110442   0.599   3.862  10.494
 3292SOL    HW210443   0.473   3.965  10.501
 3293SOL     OW10444   1.017   3.763  10.063
 3293SOL    HW110445   0.945   3.768   9.994
 3293SOL    HW210446   0.993   3.694  10.132
 3294SOL     OW10447   0.915   3.813  10.712
 3294SOL    HW110448   0.940   3.793  10.617
 3294SOL    HW210449   0.987   3.869  10.754
 3295SOL     OW10450   1.274   4.110  10.572
 3295SOL    HW110451   1.295   4.184  10.636
 3295SOL    HW210452   1.185   4.127  10.529
 3296SOL     OW10453   0.504   3.774  11.050
 3296SOL    HW110454   0.462   3.717  10.980
 3296SOL    HW210455   0.438   3.843  11.082
 3297SOL     OW10456   0.307   3.937  10.541
 3297SOL    HW110457   0.284   3.974  10.631
 3297SOL    HW210458   0.277   3.842  10.535
 3298SOL     OW10459   1.540   3.998   9.435
 3298SOL    HW110460   1.479   3.923   9.458
 3298SOL    HW210461   1.562   4.050   9.518
 3299SOL     OW10462   1.160   3.931  10.787
 3299SOL    HW110463   1.160   3.995  10.864
 3299SOL    HW210464   1.188   3.979  10.704
 3300SOL     OW10465   0.903   3.810   9.443
 3300SOL    HW110466   0.954   3.811   9.357
 3300SOL    HW210467   0.959   3.768   9.514
 3301SOL     OW10468   1.726   3.859   9.833
 3301SOL    HW110469   1.799   3.842   9.766
 3301SOL    HW210470   1.695   3.772   9.871
 3302SOL     OW10471   1.841   3.899  10.273
 3302SOL    HW110472   1.880   3.814  10.237
 3302SOL    HW210473   1.743   3.901  10.254
 3303SOL     OW10474   0.672   3.927  10.799
 3303SOL    HW110475   0.762   3.911  10.759
 3303SOL    HW210476   0.680   3.932  10.898
 3304SOL     OW10477   0.075   4.069   9.343
 3304SOL    HW110478  -0.017   4.041   9.314
 3304SOL    HW210479   0.106   4.146   9.287
 3305SOL     OW10480   0.072   3.890   9.628
 3305SOL    HW110481   0.055   3.973   9.574
 3305SOL    HW210482   0.162   3.853   9.606
 3306SOL     OW10483   1.225   4.049   9.759
 3306SOL    HW110484   1.290   3.975   9.748
 3306SOL    HW210485   1.245   4.099   9.843
 3307SOL     OW10486   1.777   4.066  10.952
 3307SOL    HW110487   1.760   4.097  10.858
 3307SOL    HW210488   1.693   4.029  10.990
 3308SOL     OW10489   1.824   3.916  10.537
 3308SOL    HW110490   1.820   3.826  10.581
 3308SOL    HW210491   1.827   3.905  10.438
 3309SOL     OW10492   1.424   3.938  10.422
 3309SOL    HW110493   1.476   3.873  10.477
 3309SOL    HW210494   1.375   4.001  10.483
 3310SOL     OW10495   1.001   3.758  10.464
 3310SOL    HW110496   0.938   3.686  10.433
 3310SOL    HW210497   1.094   3.722  10.464
 3311SOL     OW10498   1.352   3.776   9.478
 3311SOL    HW110499   1.387   3.735   9.394
 3311SOL    HW210500   1.262   3.738   9.498
 3312SOL     OW10501   1.300   4.177  10.001
 3312SOL    HW110502   1.241   4.257  10.005
 3312SOL    HW210503   1.315   4.142  10.094
 3313SOL     OW10504   1.593   3.945  10.192
 3313SOL    HW110505   1.509   3.944  10.246
 3313SOL    HW210506   1.595   4.028  10.136
 3314SOL     OW10507   0.225   3.999  12.168
 3314SOL    HW110508   0.260   3.982  12.260
 3314SOL    HW210509   0.137   3.954  12.156
 3315SOL     OW10510   0.019   4.092  11.819
 3315SOL    HW110511  -0.063   4.135  11.858
 3315SOL    HW210512  -0.009   4.019  11.756
 3316SOL     OW10513   1.755   4.331  11.403
 3316SOL    HW110514   1.743   4.318  11.304
 3316SOL    HW210515   1.725   4.250  11.452
 3317SOL     OW10516   0.438   4.116  12.671
 3317SOL    HW110517   0.520   4.060  12.680
 3317SOL    HW210518   0.357   4.058  12.675
 3318SOL     OW10519   1.594   3.838  12.652
 3318SOL    HW110520   1.576   3.905  12.580
 3318SOL    HW210521   1.591   3.884  12.741
 3319SOL     OW10522   0.809   3.728  11.674
 3319SOL    HW110523   0.849   3.819  11.665
 3319SOL    HW210524   0.709   3.736  11.680
 3320SOL     OW10525   1.281   4.069  12.116
 3320SOL    HW110526   1.195   4.019  12.103
 3320SOL    HW210527   1.343   4.015  12.172
 3321SOL     OW10528   0.550   3.920  12.057
 3321SOL    HW110529   0.545   3.915  12.157
 3321SOL    HW210530   0.552   4.016  12.028
 3322SOL     OW10531   0.202   4.009  12.670
 3322SOL    HW110532   0.122   4.069  12.657
 3322SOL    HW210533   0.192   3.960  12.756
 3323SOL     OW10534   1.400   3.831  11.598
 3323SOL    HW110535   1.376   3.794  11.508
 3323SOL    HW210536   1.499   3.847  11.602
 3324SOL     OW10537   1.547   3.946  12.901
 3324SOL    HW110538   1.542   3.983  12.993
 3324SOL    HW210539   1.475   3.877  12.889
 3325SOL     OW10540   0.614   3.846  11.289
 3325SOL    HW110541   0.712   3.824  11.296
 3325SOL    HW210542   0.583   3.829  11.196
 3326SOL     OW10543   0.781   3.988  12.921
 3326SOL    HW110544   0.848   3.927  12.964
 3326SOL    HW210545   0.708   4.007  12.986
 3327SOL     OW10546   0.539   3.788  11.684
 3327SOL    HW110547   0.458   3.789  11.742
 3327SOL    HW210548   0.542   3.871  11.629
 3328SOL     OW10549   0.297   3.759  11.343
 3328SOL    HW110550   0.346   3.843  11.322
 3328SOL    HW210551   0.359   3.694  11.388
 3329SOL     OW10552   0.561   3.946  12.319
 3329SOL    HW110553   0.599   3.862  12.356
 3329SOL    HW210554   0.473   3.965  12.363
 3330SOL     OW10555   1.017   3.763  11.925
 3330SOL    HW110556   0.945   3.768  11.856
 3330SOL    HW210557   0.993   3.694  11.994
 3331SOL     OW10558   0.915   3.813  12.574
 3331SOL    HW110559   0.940   3.793  12.479
 3331SOL    HW210560   0.987   3.869  12.616
 3332SOL     OW10561   1.274   4.110  12.434
 3332SOL    HW110562   1.295   4.184  12.498
 3332SOL    HW210563   1.185   4.127  12.391
 3333SOL     OW10564   0.504   3.774  12.912
 3333SOL    HW110565   0.462   3.717  12.842
 3333SOL    HW210566   0.438   3.843  12.944
 3334SOL     OW10567   0.307   3.937  12.403
 3334SOL    HW110568   0.284   3.974  12.493
 3334SOL    HW210569   0.277   3.842  12.397
 3335SOL     OW10570   1.540   3.998  11.297
 3335SOL    HW110571   1.479   3.923  11.320
 3335SOL    HW210572   1.562   4.050  11.380
 3336SOL     OW10573   1.160   3.931  12.649
 3336SOL    HW110574   1.160   3.995  12.726
 3336SOL    HW210575   1.188   3.979  12.566
 3337SOL     OW10576   0.903   3.810  11.305
 3337SOL    HW110577   0.954   3.811  11.219
 3337SOL    HW210578   0.959   3.768  11.376
 3338SOL     OW10579   1.726   3.859  11.695
 3338SOL    HW110580   1.799   3.842  11.628
 3338SOL    HW210581   1.695   3.772  11.733
 3339SOL     OW10582   1.841   3.899  12.135
 3339SOL    HW110583   1.880   3.814  12.099
 3339SOL    HW210584   1.743   3.901  12.116
 3340SOL     OW10585   0.672   3.927  12.661
 3340SOL    HW110586   0.762   3.911  12.621
 3340SOL    HW210587   0.680   3.932  12.760
 3341SOL     OW10588   0.075   4.069  11.205
 3341SOL    HW110589  -0.017   4.041  11.176
 3341SOL    HW210590   0.106   4.146  11.149
 3342SOL     OW10591   0.072   3.890  11.490
 3342SOL    HW110592   0.055   3.973  11.436
 3342SOL    HW210593   0.162   3.853  11.468
 3343SOL     OW10594   1.225   4.049  11.621
 3343SOL    HW110595   1.290   3.975  11.610
 3343SOL    HW210596   1.245   4.099  11.705
 3344SOL     OW10597   1.777   4.066  12.814
 3344SOL    HW110598   1.760   4.097  12.720
 3344SOL    HW210599   1.693   4.029  12.852
 3345SOL     OW10600   1.824   3.916  12.399
 3345SOL    HW110601   1.820   3.826  12.443
 3345SOL    HW210602   1.827   3.905  12.300
 3346SOL     OW10603   1.424   3.938  12.284
 3346SOL    HW110604   1.476   3.873  12.339
 3346SOL    HW210605   1.375   4.001  12.345
 3347SOL     OW10606   1.001   3.758  12.326
 3347SOL    HW110607   0.938   3.686  12.295
 3347SOL    HW210608   1.094   3.722  12.326
 3348SOL     OW10609   1.352   3.776  11.340
 3348SOL    HW110610   1.387   3.735  11.256
 3348SOL    HW210611   1.262   3.738  11.360
 3349SOL     OW10612   1.300   4.177  11.863
 3349SOL    HW110613   1.241   4.257  11.867
 3349SOL    HW210614   1.315   4.142  11.956
 3350SOL     OW10615   1.593   3.945  12.054
 3350SOL    HW110616   1.509   3.944  12.108
 3350SOL    HW210617   1.595   4.028  11.998
 3351SOL     OW10618   0.019   4.092  13.681
 3351SOL    HW110619  -0.063   4.135  13.720
 3351SOL    HW210620  -0.009   4.019  13.618
 3352SOL     OW10621   1.755   4.331  13.265
 3352SOL    HW110622   1.743   4.318  13.166
 3352SOL    HW210623   1.725   4.250  13.314
 3353SOL     OW10624   1.603   4.171  13.771
 3353SOL    HW110625   1.529   4.217  13.721
 3353SOL    HW210626   1.654   4.239  13.824
 3354SOL     OW10627   0.809   3.728  13.536
 3354SOL    HW110628   0.849   3.819  13.527
 3354SOL    HW210629   0.709   3.736  13.542
 3355SOL     OW10630   1.400   3.831  13.460
 3355SOL    HW110631   1.376   3.794  13.370
 3355SOL    HW210632   1.499   3.847  13.464
 3356SOL     OW10633   0.614   3.846  13.151
 3356SOL    HW110634   0.712   3.824  13.158
 3356SOL    HW210635   0.583   3.829  13.058
 3357SOL     OW10636   0.539   3.788  13.546
 3357SOL    HW110637   0.458   3.789  13.604
 3357SOL    HW210638   0.542   3.871  13.491
 3358SOL     OW10639   0.297   3.759  13.205
 3358SOL    HW110640   0.346   3.843  13.184
 3358SOL    HW210641   0.359   3.694  13.250
 3359SOL     OW10642   1.017   3.763  13.787
 3359SOL    HW110643   0.945   3.768  13.718
 3359SOL    HW210644   0.993   3.694  13.856
 3360SOL     OW10645   1.540   3.998  13.159
 3360SOL    HW110646   1.479   3.923  13.182
 3360SOL    HW210647   1.562   4.050  13.242
 3361SOL     OW10648   0.903   3.810  13.167
 3361SOL    HW110649   0.954   3.811  13.081
 3361SOL    HW210650   0.959   3.768  13.238
 3362SOL     OW10651   1.726   3.859  13.557
 3362SOL    HW110652   1.799   3.842  13.490
 3362SOL    HW210653   1.695   3.772  13.595
 3363SOL     OW10654   1.841   3.899  13.997
 3363SOL    HW110655   1.880   3.814  13.961
 3363SOL    HW210656   1.743   3.901  13.978
 3364SOL     OW10657   0.075   4.069  13.067
 3364SOL    HW110658  -0.017   4.041  13.038
 3364SOL    HW210659   0.106   4.146  13.011
 3365SOL     OW10660   0.072   3.890  13.352
 3365SOL    HW110661   0.055   3.973  13.298
 3365SOL    HW210662   0.162   3.853  13.330
 3366SOL     OW10663   1.225   4.049  13.483
 3366SOL    HW110664   1.290   3.975  13.472
 3366SOL    HW210665   1.245   4.099  13.567
 3367SOL     OW10666   1.352   3.776  13.202
 3367SOL    HW110667   1.387   3.735  13.118
 3367SOL    HW210668   1.262   3.738  13.222
 3368SOL     OW10669   1.300   4.177  13.725
 3368SOL    HW110670   1.241   4.257  13.729
 3368SOL    HW210671   1.315   4.142  13.818
 3369SOL     OW10672   2.092   0.628   0.113
 3369SOL    HW110673   1.999   0.626   0.150
 3369SOL    HW210674   2.093   0.589   0.021
 3370SOL     OW10675   2.087   0.275   0.996
 3370SOL    HW110676   2.122   0.258   1.088
 3370SOL    HW210677   1.999   0.230   0.984
 3371SOL     OW10678   1.881   0.368   0.647
 3371SOL    HW110679   1.799   0.411   0.686
 3371SOL    HW210680   1.853   0.295   0.584
 3372SOL     OW10681   2.431   1.275   1.165
 3372SOL    HW110682   2.338   1.268   1.128
 3372SOL    HW210683   2.442   1.364   1.209
 3373SOL     OW10684   3.417   1.511   0.703
 3373SOL    HW110685   3.360   1.495   0.784
 3373SOL    HW210686   3.358   1.521   0.623
 3374SOL     OW10687   2.997   0.703   0.717
 3374SOL    HW110688   3.054   0.781   0.692
 3374SOL    HW210689   2.937   0.729   0.793
 3375SOL     OW10690   3.617   0.607   0.231
 3375SOL    HW110691   3.605   0.594   0.132
 3375SOL    HW210692   3.587   0.526   0.280
 3376SOL     OW10693   2.630   1.144   1.023
 3376SOL    HW110694   2.552   1.161   1.083
 3376SOL    HW210695   2.664   1.231   0.987
 3377SOL     OW10696   2.712   0.798   1.823
 3377SOL    HW110697   2.708   0.874   1.888
 3377SOL    HW210698   2.734   0.834   1.732
 3378SOL     OW10699   2.547   1.012   0.665
 3378SOL    HW110700   2.616   0.996   0.735
 3378SOL    HW210701   2.474   1.069   0.703
 3379SOL     OW10702   2.548   1.161   1.803
 3379SOL    HW110703   2.608   1.240   1.817
 3379SOL    HW210704   2.462   1.192   1.762
 3380SOL     OW10705   2.197   1.435   1.061
 3380SOL    HW110706   2.119   1.404   1.008
 3380SOL    HW210707   2.255   1.493   1.004
 3381SOL     OW10708   3.322   1.505   1.339
 3381SOL    HW110709   3.346   1.599   1.365
 3381SOL    HW210710   3.306   1.451   1.421
 3382SOL     OW10711   2.300   0.392   1.499
 3382SOL    HW110712   2.382   0.336   1.508
 3382SOL    HW210713   2.219   0.334   1.503
 3383SOL     OW10714   3.465   0.447   0.737
 3383SOL    HW110715   3.391   0.493   0.687
 3383SOL    HW210716   3.516   0.515   0.790
 3384SOL     OW10717   2.093   1.713   0.483
 3384SOL    HW110718   2.127   1.790   0.537
 3384SOL    HW210719   2.137   1.713   0.393
 3385SOL     OW10720   2.989   1.341   1.690
 3385SOL    HW110721   3.036   1.341   1.778
 3385SOL    HW210722   2.941   1.254   1.679
 3386SOL     OW10723   2.092   1.434   0.538
 3386SOL    HW110724   2.066   1.530   0.538
 3386SOL    HW210725   2.021   1.380   0.583
 3387SOL     OW10726   2.102   1.091   0.886
 3387SOL    HW110727   2.116   1.007   0.938
 3387SOL    HW210728   2.047   1.155   0.941
 3388SOL     OW10729   2.482   1.786   1.439
 3388SOL    HW110730   2.390   1.769   1.474
 3388SOL    HW210731   2.510   1.878   1.465
 3389SOL     OW10732   2.468   0.964   0.123
 3389SOL    HW110733   2.475   1.048   0.069
 3389SOL    HW210734   2.514   0.977   0.211
 3390SOL     OW10735   3.456   0.114   1.480
 3390SOL    HW110736   3.438   0.181   1.408
 3390SOL    HW210737   3.453   0.160   1.569
 3391SOL     OW10738   1.984   0.643   0.563
 3391SOL    HW110739   1.939   0.555   0.580
 3391SOL    HW210740   1.983   0.697   0.647
 3392SOL     OW10741   3.704   1.767   0.359
 3392SOL    HW110742   3.758   1.738   0.439
 3392SOL    HW210743   3.734   1.857   0.330
 3393SOL     OW10744   1.889   1.596   0.117
 3393SOL    HW110745   1.870   1.500   0.138
 3393SOL    HW210746   1.856   1.654   0.192
 3394SOL     OW10747   3.551   0.922   0.612
 3394SOL    HW110748   3.646   0.893   0.620
 3394SOL    HW210749   3.543   0.987   0.537
 3395SOL     OW10750   3.503   1.108   0.432
 3395SOL    HW110751   3.589   1.110   0.380
 3395SOL    HW210752   3.517   1.155   0.520
 3396SOL     OW10753   1.975   0.737   1.597
 3396SOL    HW110754   2.063   0.724   1.642
 3396SOL    HW210755   1.962   0.834   1.575
 3397SOL     OW10756   2.475   1.365   0.726
 3397SOL    HW110757   2.426   1.278   0.735
 3397SOL    HW210758   2.452   1.408   0.639
 3398SOL     OW10759   3.155   1.228   1.423
 3398SOL    HW110760   3.192   1.155   1.365
 3398SOL    HW210761   3.207   1.233   1.508
 3399SOL     OW10762   2.671   0.004   0.502
 3399SOL    HW110763   2.711   0.095   0.493
 3399SOL    HW210764   2.571   0.012   0.508
 3400SOL     OW10765   2.059   0.976   1.264
 3400SOL    HW110766   2.148   0.931   1.250
 3400SOL    HW210767   1.986   0.911   1.245
 3401SOL     OW10768   3.387   0.999   0.190
 3401SOL    HW110769   3.324   0.923   0.203
 3401SOL    HW210770   3.435   1.017   0.276
 3402SOL     OW10771   3.049   1.792   1.616
 3402SOL    HW110772   3.073   1.852   1.540
 3402SOL    HW210773   3.056   1.697   1.586
 3403SOL     OW10774   2.179   0.251   1.801
 3403SOL    HW110775   2.250   0.322   1.807
 3403SOL    HW210776   2.091   0.290   1.829
 3404SOL     OW10777   3.328   1.417   0.953
 3404SOL    HW110778   3.269   1.423   1.033
 3404SOL    HW210779   3.313   1.329   0.907
 3405SOL     OW10780   3.529   1.714   0.572
 3405SOL    HW110781   3.488   1.691   0.484
 3405SOL    HW210782   3.511   1.640   0.637
 3406SOL     OW10783   2.460   0.729   0.270
 3406SOL    HW110784   2.484   0.798   0.202
 3406SOL    HW210785   2.382   0.762   0.324
 3407SOL     OW10786   3.143   0.345   0.944
 3407SOL    HW110787   3.057   0.295   0.931
 3407SOL    HW210788   3.205   0.291   1.000
 3408SOL     OW10789   3.438   1.662   0.307
 3408SOL    HW110790   3.527   1.708   0.310
 3408SOL    HW210791   3.417   1.638   0.212
 3409SOL     OW10792   2.669   0.605   1.465
 3409SOL    HW110793   2.622   0.602   1.554
 3409SOL    HW210794   2.618   0.550   1.399
 3410SOL     OW10795   3.256   0.469   1.674
 3410SOL    HW110796   3.236   0.512   1.762
 3410SOL    HW210797   3.334   0.407   1.683
 3411SOL     OW10798   2.835   0.890   1.572
 3411SOL    HW110799   2.881   0.806   1.543
 3411SOL    HW210800   2.779   0.924   1.497
 3412SOL     OW10801   2.853   0.410   1.242
 3412SOL    HW110802   2.776   0.444   1.296
 3412SOL    HW210803   2.819   0.359   1.163
 3413SOL     OW10804   2.903   0.701   0.429
 3413SOL    HW110805   2.929   0.697   0.525
 3413SOL    HW210806   2.818   0.650   0.415
 3414SOL     OW10807   1.938   0.811   0.789
 3414SOL    HW110808   2.037   0.799   0.798
 3414SOL    HW210809   1.914   0.906   0.810
 3415SOL     OW10810   2.727   0.348   0.195
 3415SOL    HW110811   2.786   0.411   0.146
 3415SOL    HW210812   2.746   0.254   0.166
 3416SOL     OW10813   3.581   0.585   1.831
 3416SOL    HW110814   3.555   0.674   1.795
 3416SOL    HW210815   3.579   0.517   1.758
 3417SOL     OW10816   3.224   1.144   0.545
 3417SOL    HW110817   3.307   1.115   0.497
 3417SOL    HW210818   3.175   1.211   0.489
 3418SOL     OW10819   2.412   0.196   0.885
 3418SOL    HW110820   2.407   0.191   0.985
 3418SOL    HW210821   2.414   0.292   0.856
 3419SOL     OW10822   2.870   1.456   0.477
 3419SOL    HW110823   2.824   1.528   0.425
 3419SOL    HW210824   2.866   1.476   0.575
 3420SOL     OW10825   2.213   1.801   0.853
 3420SOL    HW110826   2.263   1.715   0.859
 3420SOL    HW210827   2.278   1.878   0.850
 3421SOL     OW10828   3.657   1.066   0.873
 3421SOL    HW110829   3.595   1.051   0.797
 3421SOL    HW210830   3.605   1.077   0.958
 3422SOL     OW10831   3.089   1.550   1.506
 3422SOL    HW110832   3.095   1.473   1.570
 3422SOL    HW210833   3.037   1.524   1.426
 3423SOL     OW10834   2.183   0.943   0.242
 3423SOL    HW110835   2.265   0.982   0.200
 3423SOL    HW210836   2.156   0.861   0.193
 3424SOL     OW10837   3.320   0.735   0.728
 3424SOL    HW110838   3.315   0.670   0.803
 3424SOL    HW210839   3.400   0.794   0.741
 3425SOL     OW10840   2.323   1.266   1.727
 3425SOL    HW110841   2.273   1.267   1.641
 3425SOL    HW210842   2.260   1.248   1.803
 3426SOL     OW10843   2.973   1.776   0.237
 3426SOL    HW110844   2.913   1.714   0.287
 3426SOL    HW210845   3.004   1.732   0.152
 3427SOL     OW10846   2.064   0.285   1.498
 3427SOL    HW110847   1.984   0.345   1.485
 3427SOL    HW210848   2.054   0.236   1.584
 3428SOL     OW10849   3.494   1.377   0.081
 3428SOL    HW110850   3.462   1.471   0.071
 3428SOL    HW210851   3.418   1.314   0.069
 3429SOL     OW10852   2.326   1.743   0.323
 3429SOL    HW110853   2.359   1.782   0.409
 3429SOL    HW210854   2.402   1.736   0.258
 3430SOL     OW10855   3.262   0.107   0.426
 3430SOL    HW110856   3.238   0.070   0.336
 3430SOL    HW210857   3.361   0.123   0.430
 3431SOL     OW10858   2.111   1.785   1.241
 3431SOL    HW110859   2.168   1.720   1.291
 3431SOL    HW210860   2.095   1.752   1.148
 3432SOL     OW10861   2.802   1.698   0.904
 3432SOL    HW110862   2.882   1.641   0.925
 3432SOL    HW210863   2.753   1.658   0.827
 3433SOL     OW10864   2.244   0.700   0.480
 3433SOL    HW110865   2.289   0.610   0.477
 3433SOL    HW210866   2.150   0.689   0.513
 3434SOL     OW10867   3.409   0.222   1.729
 3434SOL    HW110868   3.404   0.259   1.821
 3434SOL    HW210869   3.337   0.153   1.717
 3435SOL     OW10870   2.476   0.122   0.117
 3435SOL    HW110871   2.574   0.100   0.124
 3435SOL    HW210872   2.445   0.105   0.024
 3436SOL     OW10873   2.643   0.264   1.749
 3436SOL    HW110874   2.710   0.203   1.792
 3436SOL    HW210875   2.570   0.283   1.814
 3437SOL     OW10876   2.750   1.514   1.195
 3437SOL    HW110877   2.727   1.489   1.101
 3437SOL    HW210878   2.811   1.445   1.234
 3438SOL     OW10879   3.213   0.590   1.433
 3438SOL    HW110880   3.241   0.547   1.518
 3438SOL    HW210881   3.238   0.686   1.434
 3439SOL     OW10882   2.665   1.402   0.924
 3439SOL    HW110883   2.755   1.416   0.882
 3439SOL    HW210884   2.594   1.404   0.853
 3440SOL     OW10885   2.784   0.503   0.899
 3440SOL    HW110886   2.759   0.494   0.803
 3440SOL    HW210887   2.832   0.421   0.930
 3441SOL     OW10888   2.401   0.064   0.512
 3441SOL    HW110889   2.320   0.065   0.570
 3441SOL    HW210890   2.404   0.147   0.457
 3442SOL     OW10891   3.296   1.188   0.041
 3442SOL    HW110892   3.328   1.112   0.098
 3442SOL    HW210893   3.204   1.215   0.071
 3443SOL     OW10894   2.159   0.035   0.171
 3443SOL    HW110895   2.208   0.119   0.150
 3443SOL    HW210896   2.221  -0.030   0.216
 3444SOL     OW10897   2.797   0.236   0.480
 3444SOL    HW110898   2.749   0.277   0.402
 3444SOL    HW210899   2.896   0.234   0.461
 3445SOL     OW10900   2.938   0.683   1.464
 3445SOL    HW110901   2.858   0.622   1.467
 3445SOL    HW210902   3.019   0.630   1.440
 3446SOL     OW10903   3.089   1.570   0.793
 3446SOL    HW110904   3.110   1.644   0.728
 3446SOL    HW210905   3.157   1.570   0.866
 3447SOL     OW10906   2.321   1.152   0.741
 3447SOL    HW110907   2.250   1.125   0.806
 3447SOL    HW210908   2.295   1.124   0.648
 3448SOL     OW10909   3.133   1.797   0.591
 3448SOL    HW110910   3.177   1.861   0.527
 3448SOL    HW210911   3.083   1.849   0.661
 3449SOL     OW10912   2.894   0.549   0.016
 3449SOL    HW110913   2.853   0.631  -0.023
 3449SOL    HW210914   2.958   0.575   0.089
 3450SOL     OW10915   1.940   0.556   1.386
 3450SOL    HW110916   2.032   0.555   1.345
 3450SOL    HW210917   1.934   0.630   1.453
 3451SOL     OW10918   2.423   0.222   1.147
 3451SOL    HW110919   2.461   0.138   1.184
 3451SOL    HW210920   2.335   0.241   1.191
 3452SOL     OW10921   2.728   0.454   0.642
 3452SOL    HW110922   2.696   0.526   0.580
 3452SOL    HW210923   2.752   0.373   0.589
 3453SOL     OW10924   2.879   0.039   0.753
 3453SOL    HW110925   2.807   0.044   0.684
 3453SOL    HW210926   2.855  -0.030   0.822
 3454SOL     OW10927   3.291   1.173   0.867
 3454SOL    HW110928   3.236   1.089   0.860
 3454SOL    HW210929   3.317   1.202   0.775
 3455SOL     OW10930   3.328   0.590   0.992
 3455SOL    HW110931   3.298   0.495   0.999
 3455SOL    HW210932   3.401   0.606   1.058
 3456SOL     OW10933   3.719   0.833   0.377
 3456SOL    HW110934   3.761   0.769   0.441
 3456SOL    HW210935   3.681   0.782   0.299
 3457SOL     OW10936   2.350   1.385   0.174
 3457SOL    HW110937   2.263   1.370   0.221
 3457SOL    HW210938   2.333   1.411   0.079
 3458SOL     OW10939   3.526   1.280   0.657
 3458SOL    HW110940   3.625   1.288   0.671
 3458SOL    HW210941   3.481   1.364   0.688
 3459SOL     OW10942   3.252   0.575   0.078
 3459SOL    HW110943   3.198   0.554   0.159
 3459SOL    HW210944   3.343   0.534   0.087
 3460SOL     OW10945   2.389   0.256   0.328
 3460SOL    HW110946   2.416   0.197   0.253
 3460SOL    HW210947   2.389   0.351   0.297
 3461SOL     OW10948   3.616   1.223   1.588
 3461SOL    HW110949   3.707   1.184   1.575
 3461SOL    HW210950   3.624   1.319   1.612
 3462SOL     OW10951   2.926   1.347   1.340
 3462SOL    HW110952   2.846   1.324   1.395
 3462SOL    HW210953   3.009   1.321   1.389
 3463SOL     OW10954   3.454   1.629   1.625
 3463SOL    HW110955   3.481   1.663   1.535
 3463SOL    HW210956   3.533   1.591   1.671
 3464SOL     OW10957   2.973   1.195   1.100
 3464SOL    HW110958   2.933   1.239   1.181
 3464SOL    HW210959   2.932   1.232   1.017
 3465SOL     OW10960   3.500   1.099   1.079
 3465SOL    HW110961   3.505   1.180   1.138
 3465SOL    HW210962   3.414   1.101   1.028
 3466SOL     OW10963   2.777   0.089   1.402
 3466SOL    HW110964   2.802   0.069   1.307
 3466SOL    HW210965   2.849   0.145   1.444
 3467SOL     OW10966   2.842   1.116   1.719
 3467SOL    HW110967   2.743   1.122   1.729
 3467SOL    HW210968   2.865   1.036   1.663
 3468SOL     OW10969   2.567   1.050   0.368
 3468SOL    HW110970   2.553   1.057   0.467
 3468SOL    HW210971   2.651   0.999   0.350
 3469SOL     OW10972   2.272   0.813   1.251
 3469SOL    HW110973   2.358   0.825   1.301
 3469SOL    HW210974   2.230   0.726   1.278
 3470SOL     OW10975   3.136   0.386   1.262
 3470SOL    HW110976   3.157   0.460   1.326
 3470SOL    HW210977   3.047   0.403   1.219
 3471SOL     OW10978   1.926   1.564   1.331
 3471SOL    HW110979   1.880   1.646   1.297
 3471SOL    HW210980   2.024   1.583   1.340
 3472SOL     OW10981   2.229   1.100   0.501
 3472SOL    HW110982   2.222   1.183   0.445
 3472SOL    HW210983   2.233   1.020   0.441
 3473SOL     OW10984   2.428   0.537   0.865
 3473SOL    HW110985   2.440   0.603   0.791
 3473SOL    HW210986   2.474   0.571   0.948
 3474SOL     OW10987   3.114   1.348   0.388
 3474SOL    HW110988   3.164   1.425   0.428
 3474SOL    HW210989   3.019   1.350   0.420
 3475SOL     OW10990   3.134   1.445   1.142
 3475SOL    HW110991   3.181   1.458   1.229
 3475SOL    HW210992   3.068   1.371   1.151
 3476SOL     OW10993   3.444   0.639   0.472
 3476SOL    HW110994   3.413   0.700   0.545
 3476SOL    HW210995   3.494   0.691   0.403
 3477SOL     OW10996   2.216   1.510   1.329
 3477SOL    HW110997   2.195   1.466   1.242
 3477SOL    HW210998   2.313   1.536   1.332
 3478SOL     OW10999   2.264   0.751   1.598
 3478SOL    HW111000   2.332   0.806   1.551
 3478SOL    HW211001   2.304   0.663   1.625
 3479SOL     OW11002   3.449   0.779   1.670
 3479SOL    HW111003   3.357   0.817   1.665
 3479SOL    HW211004   3.509   0.826   1.605
 3480SOL     OW11005   2.875   0.105   1.770
 3480SOL    HW111006   2.881   0.190   1.718
 3480SOL    HW211007   2.907   0.029   1.713
 3481SOL     OW11008   2.366   0.050   1.740
 3481SOL    HW111009   2.324  -0.007   1.670
 3481SOL    HW211010   2.300   0.119   1.772
 3482SOL     OW11011   2.435   0.870   1.029
 3482SOL    HW111012   2.479   0.959   1.020
 3482SOL    HW211013   2.372   0.870   1.106
 3483SOL     OW11014   3.222   0.862   1.045
 3483SOL    HW111015   3.147   0.862   0.979
 3483SOL    HW211016   3.259   0.770   1.054
 3484SOL     OW11017   3.071   0.525   0.275
 3484SOL    HW111018   3.084   0.441   0.329
 3484SOL    HW211019   3.042   0.599   0.335
 3485SOL     OW11020   2.169   0.213   1.231
 3485SOL    HW111021   2.146   0.250   1.321
 3485SOL    HW211022   2.139   0.118   1.225
 3486SOL     OW11023   1.899   1.310   1.282
 3486SOL    HW111024   1.952   1.261   1.350
 3486SOL    HW211025   1.921   1.408   1.287
 3487SOL     OW11026   2.594   0.634   1.064
 3487SOL    HW111027   2.653   0.608   0.988
 3487SOL    HW211028   2.566   0.730   1.053
 3488SOL     OW11029   3.590   0.935   1.854
 3488SOL    HW111030   3.544   0.928   1.765
 3488SOL    HW211031   3.528   0.979   1.920
 3489SOL     OW11032   2.169   0.063   0.618
 3489SOL    HW111033   2.158   0.157   0.651
 3489SOL    HW211034   2.164   0.000   0.695
 3490SOL     OW11035   3.484   0.367   0.374
 3490SOL    HW111036   3.486   0.291   0.438
 3490SOL    HW211037   3.436   0.444   0.414
 3491SOL     OW11038   2.885   0.766   0.966
 3491SOL    HW111039   2.900   0.787   1.062
 3491SOL    HW211040   2.855   0.671   0.957
 3492SOL     OW11041   2.842   1.573   1.700
 3492SOL    HW111042   2.822   1.617   1.612
 3492SOL    HW211043   2.881   1.482   1.684
 3493SOL     OW11044   3.721   1.518   1.605
 3493SOL    HW111045   3.735   1.545   1.510
 3493SOL    HW211046   3.804   1.540   1.658
 3494SOL     OW11047   2.212   0.898   1.804
 3494SOL    HW111048   2.288   0.942   1.852
 3494SOL    HW211049   2.247   0.851   1.722
 3495SOL     OW11050   3.402   0.274   0.125
 3495SOL    HW111051   3.341   0.199   0.148
 3495SOL    HW211052   3.424   0.326   0.208
 3496SOL     OW11053   3.165   0.838   0.042
 3496SOL    HW111054   3.199   0.745   0.057
 3496SOL    HW211055   3.183   0.865  -0.053
 3497SOL     OW11056   2.930   1.333   0.849
 3497SOL    HW111057   2.937   1.249   0.794
 3497SOL    HW211058   2.992   1.402   0.813
 3498SOL     OW11059   2.181   0.810   0.949
 3498SOL    HW111060   2.274   0.846   0.954
 3498SOL    HW211061   2.175   0.725   1.001
 3499SOL     OW11062   2.201   0.509   1.006
 3499SOL    HW111063   2.149   0.426   0.989
 3499SOL    HW211064   2.278   0.514   0.942
 3500SOL     OW11065   3.000   0.380   1.678
 3500SOL    HW111066   2.955   0.443   1.742
 3500SOL    HW211067   3.093   0.411   1.661
 3501SOL     OW11068   3.022   0.207   1.477
 3501SOL    HW111069   3.022   0.271   1.554
 3501SOL    HW211070   3.050   0.255   1.394
 3502SOL     OW11071   1.870   1.326   0.200
 3502SOL    HW111072   1.777   1.347   0.169
 3502SOL    HW211073   1.880   1.227   0.213
 3503SOL     OW11074   1.950   1.801   0.927
 3503SOL    HW111075   1.908   1.715   0.900
 3503SOL    HW211076   2.044   1.804   0.893
 3504SOL     OW11077   2.366   1.568   0.910
 3504SOL    HW111078   2.432   1.642   0.919
 3504SOL    HW211079   2.410   1.489   0.868
 3505SOL     OW11080   2.864   0.796   1.238
 3505SOL    HW111081   2.905   0.764   1.324
 3505SOL    HW211082   2.768   0.769   1.235
 3506SOL     OW11083   1.902   0.544   1.114
 3506SOL    HW111084   1.987   0.511   1.073
 3506SOL    HW211085   1.915   0.559   1.212
 3507SOL     OW11086   2.051   0.520   1.722
 3507SOL    HW111087   2.110   0.480   1.652
 3507SOL    HW211088   1.993   0.591   1.681
 3508SOL     OW11089   3.231   0.950   1.660
 3508SOL    HW111090   3.270   1.039   1.680
 3508SOL    HW211091   3.241   0.930   1.563
 3509SOL     OW11092   2.677   0.572   0.325
 3509SOL    HW111093   2.684   0.483   0.279
 3509SOL    HW211094   2.583   0.606   0.317
 3510SOL     OW11095   3.519   0.604   1.206
 3510SOL    HW111096   3.481   0.535   1.268
 3510SOL    HW211097   3.601   0.568   1.162
 3511SOL     OW11098   2.114   1.564   1.744
 3511SOL    HW111099   2.084   1.621   1.820
 3511SOL    HW211100   2.107   1.467   1.770
 3512SOL     OW11101   2.533   0.464   1.269
 3512SOL    HW111102   2.499   0.375   1.239
 3512SOL    HW211103   2.559   0.518   1.189
 3513SOL     OW11104   2.792   1.678   1.465
 3513SOL    HW111105   2.768   1.660   1.370
 3513SOL    HW211106   2.822   1.772   1.475
 3514SOL     OW11107   2.335   0.500   0.191
 3514SOL    HW111108   2.396   0.580   0.195
 3514SOL    HW211109   2.240   0.531   0.198
 3515SOL     OW11110   2.021   1.137   1.466
 3515SOL    HW111111   2.043   1.076   1.542
 3515SOL    HW211112   2.031   1.088   1.380
 3516SOL     OW11113   3.209   1.059   1.234
 3516SOL    HW111114   3.233   0.996   1.160
 3516SOL    HW211115   3.119   1.099   1.216
 3517SOL     OW11116   3.164   0.855   0.309
 3517SOL    HW111117   3.078   0.824   0.351
 3517SOL    HW211118   3.160   0.841   0.210
 3518SOL     OW11119   3.621   1.747   1.154
 3518SOL    HW111120   3.682   1.777   1.081
 3518SOL    HW211121   3.583   1.658   1.132
 3519SOL     OW11122   3.114   1.731   1.128
 3519SOL    HW111123   3.198   1.736   1.074
 3519SOL    HW211124   3.091   1.635   1.146
 3520SOL     OW11125   1.945   1.258   1.022
 3520SOL    HW111126   1.940   1.257   1.122
 3520SOL    HW211127   1.862   1.217   0.984
 3521SOL     OW11128   2.550   1.662   1.716
 3521SOL    HW111129   2.494   1.743   1.725
 3521SOL    HW211130   2.602   1.666   1.630
 3522SOL     OW11131   2.765   0.086   0.133
 3522SOL    HW111132   2.816   0.087   0.047
 3522SOL    HW211133   2.821   0.044   0.204
 3523SOL     OW11134   3.588   0.135   0.523
 3523SOL    HW111135   3.661   0.118   0.456
 3523SOL    HW211136   3.557   0.048   0.561
 3524SOL     OW11137   3.250   1.573   0.477
 3524SOL    HW111138   3.317   1.585   0.403
 3524SOL    HW211139   3.210   1.662   0.500
 3525SOL     OW11140   1.992   1.794   1.851
 3525SOL    HW111141   1.951   1.720   1.904
 3525SOL    HW211142   2.056   1.845   1.909
 3526SOL     OW11143   3.142   0.927   0.672
 3526SOL    HW111144   3.202   0.846   0.674
 3526SOL    HW211145   3.182   0.996   0.612
 3527SOL     OW11146   2.692   1.273   1.422
 3527SOL    HW111147   2.687   1.306   1.517
 3527SOL    HW211148   2.606   1.292   1.376
 3528SOL     OW11149   2.534   1.616   0.154
 3528SOL    HW111150   2.543   1.626   0.055
 3528SOL    HW211151   2.494   1.527   0.175
 3529SOL     OW11152   3.512   1.720   1.394
 3529SOL    HW111153   3.565   1.730   1.310
 3529SOL    HW211154   3.485   1.810   1.428
 3530SOL     OW11155   3.703   0.175   0.963
 3530SOL    HW111156   3.742   0.090   0.927
 3530SOL    HW211157   3.605   0.177   0.944
 3531SOL     OW11158   2.125   0.326   0.720
 3531SOL    HW111159   2.046   0.377   0.686
 3531SOL    HW211160   2.116   0.311   0.818
 3532SOL     OW11161   3.056   1.612   0.031
 3532SOL    HW111162   3.062   1.519   0.068
 3532SOL    HW211163   2.997   1.612  -0.049
 3533SOL     OW11164   2.684   1.002   1.372
 3533SOL    HW111165   2.724   1.001   1.280
 3533SOL    HW211166   2.694   1.094   1.412
 3534SOL     OW11167   2.778   0.910   0.291
 3534SOL    HW111168   2.841   0.948   0.223
 3534SOL    HW211169   2.818   0.827   0.330
 3535SOL     OW11170   3.366   1.607   0.044
 3535SOL    HW111171   3.274   1.644   0.051
 3535SOL    HW211172   3.404   1.627  -0.046
 3536SOL     OW11173   2.234   1.288   1.490
 3536SOL    HW111174   2.221   1.381   1.456
 3536SOL    HW211175   2.150   1.236   1.477
 3537SOL     OW11176   3.476   1.292   1.289
 3537SOL    HW111177   3.536   1.295   1.369
 3537SOL    HW211178   3.401   1.356   1.302
 3538SOL     OW11179   2.901   1.098   0.696
 3538SOL    HW111180   2.831   1.051   0.750
 3538SOL    HW211181   2.960   1.030   0.653
 3539SOL     OW11182   2.876   0.236   0.971
 3539SOL    HW111183   2.868   0.200   0.878
 3539SOL    HW211184   2.874   0.160   1.036
 3540SOL     OW11185   2.452   1.487   0.491
 3540SOL    HW111186   2.494   1.429   0.421
 3540SOL    HW211187   2.408   1.566   0.447
 3541SOL     OW11188   3.571   0.385   1.381
 3541SOL    HW111189   3.644   0.454   1.385
 3541SOL    HW211190   3.599   0.310   1.322
 3542SOL     OW11191   2.117   1.348   0.290
 3542SOL    HW111192   2.021   1.349   0.263
 3542SOL    HW211193   2.129   1.401   0.374
 3543SOL     OW11194   1.967   1.013   1.726
 3543SOL    HW111195   1.890   0.980   1.780
 3543SOL    HW211196   2.052   0.983   1.768
 3544SOL     OW11197   2.534   0.203   1.489
 3544SOL    HW111198   2.624   0.187   1.449
 3544SOL    HW211199   2.542   0.208   1.588
 3545SOL     OW11200   1.937   0.345   0.033
 3545SOL    HW111201   1.845   0.317   0.004
 3545SOL    HW211202   1.968   0.422  -0.023
 3546SOL     OW11203   3.302   0.856   1.398
 3546SOL    HW111204   3.245   0.908   1.335
 3546SOL    HW211205   3.398   0.868   1.374
 3547SOL     OW11206   1.934   0.166   0.318
 3547SOL    HW111207   1.917   0.249   0.264
 3547SOL    HW211208   2.024   0.129   0.296
 3548SOL     OW11209   3.045   1.335   0.119
 3548SOL    HW111210   2.946   1.324   0.121
 3548SOL    HW211211   3.079   1.350   0.212
 3549SOL     OW11212   2.475   0.842   1.431
 3549SOL    HW111213   2.531   0.923   1.414
 3549SOL    HW211214   2.534   0.762   1.434
 3550SOL     OW11215   3.355   1.767   0.959
 3550SOL    HW111216   3.388   1.831   0.890
 3550SOL    HW211217   3.421   1.761   1.034
 3551SOL     OW11218   2.578   0.565   1.708
 3551SOL    HW111219   2.597   0.630   1.782
 3551SOL    HW211220   2.638   0.485   1.717
 3552SOL     OW11221   3.312   1.220   1.633
 3552SOL    HW111222   3.303   1.210   1.732
 3552SOL    HW211223   3.408   1.213   1.607
 3553SOL     OW11224   2.252   1.741   1.560
 3553SOL    HW111225   2.161   1.782   1.558
 3553SOL    HW211226   2.245   1.647   1.592
 3554SOL     OW11227   3.536   0.883   1.254
 3554SOL    HW111228   3.509   0.794   1.217
 3554SOL    HW211229   3.537   0.951   1.181
 3555SOL     OW11230   3.087   0.325   0.449
 3555SOL    HW111231   3.152   0.251   0.438
 3555SOL    HW211232   3.107   0.375   0.533
 3556SOL     OW11233   2.456   0.745   0.652
 3556SOL    HW111234   2.506   0.830   0.633
 3556SOL    HW211235   2.368   0.747   0.604
 3557SOL     OW11236   3.639   0.342   1.642
 3557SOL    HW111237   3.622   0.373   1.548
 3557SOL    HW211238   3.555   0.305   1.680
 3558SOL     OW11239   3.592   0.934   1.517
 3558SOL    HW111240   3.630   1.025   1.532
 3558SOL    HW211241   3.584   0.917   1.418
 3559SOL     OW11242   2.721   1.374   0.016
 3559SOL    HW111243   2.675   1.389   0.104
 3559SOL    HW211244   2.765   1.459  -0.014
 3560SOL     OW11245   2.523   1.790   0.953
 3560SOL    HW111246   2.477   1.878   0.940
 3560SOL    HW211247   2.622   1.802   0.946
 3561SOL     OW11248   2.721   0.956   0.861
 3561SOL    HW111249   2.775   0.887   0.909
 3561SOL    HW211250   2.689   1.025   0.927
 3562SOL     OW11251   2.945   0.984   0.087
 3562SOL    HW111252   2.922   1.037   0.005
 3562SOL    HW211253   3.026   0.928   0.068
 3563SOL     OW11254   3.723   1.569   0.851
 3563SOL    HW111255   3.652   1.557   0.781
 3563SOL    HW211256   3.724   1.490   0.911
 3564SOL     OW11257   2.083   1.314   1.844
 3564SOL    HW111258   2.018   1.241   1.823
 3564SOL    HW211259   2.087   1.328   1.942
 3565SOL     OW11260   1.941   1.240   0.653
 3565SOL    HW111261   1.940   1.193   0.741
 3565SOL    HW211262   2.023   1.212   0.602
 3566SOL     OW11263   2.534   1.391   1.624
 3566SOL    HW111264   2.456   1.341   1.662
 3566SOL    HW211265   2.531   1.486   1.655
 3567SOL     OW11266   3.686   0.192   1.227
 3567SOL    HW111267   3.682   0.102   1.271
 3567SOL    HW211268   3.689   0.181   1.128
 3568SOL     OW11269   2.290   0.424   0.520
 3568SOL    HW111270   2.320   0.352   0.458
 3568SOL    HW211271   2.251   0.384   0.603
 3569SOL     OW11272   3.567   1.487   1.104
 3569SOL    HW111273   3.474   1.462   1.077
 3569SOL    HW211274   3.593   1.437   1.186
 3570SOL     OW11275   2.179   0.547   1.280
 3570SOL    HW111276   2.217   0.488   1.352
 3570SOL    HW211277   2.219   0.521   1.192
 3571SOL     OW11278   2.674   1.586   0.687
 3571SOL    HW111279   2.706   1.596   0.593
 3571SOL    HW211280   2.595   1.524   0.689
 3572SOL     OW11281   3.286   0.214   1.112
 3572SOL    HW111282   3.338   0.149   1.167
 3572SOL    HW211283   3.237   0.277   1.173
 3573SOL     OW11284   2.863   0.034   1.154
 3573SOL    HW111285   2.800  -0.038   1.123
 3573SOL    HW211286   2.956  -0.002   1.154
 3574SOL     OW11287   2.632   1.330   0.301
 3574SOL    HW111288   2.586   1.243   0.318
 3574SOL    HW211289   2.723   1.327   0.342
 3575SOL     OW11290   2.480   1.567   1.284
 3575SOL    HW111291   2.475   1.649   1.341
 3575SOL    HW211292   2.569   1.564   1.239
 3576SOL     OW11293   3.214   0.052   0.168
 3576SOL    HW111294   3.249   0.011   0.084
 3576SOL    HW211295   3.124   0.014   0.188
 3577SOL     OW11296   3.162   0.453   0.691
 3577SOL    HW111297   3.103   0.533   0.695
 3577SOL    HW211298   3.177   0.418   0.784
 3578SOL     OW11299   3.455   0.221   0.882
 3578SOL    HW111300   3.371   0.220   0.936
 3578SOL    HW211301   3.457   0.304   0.826
 3579SOL     OW11302   1.901   1.077   0.300
 3579SOL    HW111303   2.000   1.066   0.291
 3579SOL    HW211304   1.861   0.991   0.332
 3580SOL     OW11305   2.737   1.646   0.337
 3580SOL    HW111306   2.660   1.611   0.283
 3580SOL    HW211307   2.705   1.717   0.399
 3581SOL     OW11308   2.092   0.628   1.975
 3581SOL    HW111309   1.999   0.626   2.012
 3581SOL    HW211310   2.093   0.589   1.883
 3582SOL     OW11311   2.087   0.275   2.858
 3582SOL    HW111312   2.122   0.258   2.950
 3582SOL    HW211313   1.999   0.230   2.846
 3583SOL     OW11314   1.881   0.368   2.509
 3583SOL    HW111315   1.799   0.411   2.548
 3583SOL    HW211316   1.853   0.295   2.446
 3584SOL     OW11317   2.431   1.275   3.027
 3584SOL    HW111318   2.338   1.268   2.990
 3584SOL    HW211319   2.442   1.364   3.071
 3585SOL     OW11320   3.417   1.511   2.565
 3585SOL    HW111321   3.360   1.495   2.646
 3585SOL    HW211322   3.358   1.521   2.485
 3586SOL     OW11323   2.997   0.703   2.579
 3586SOL    HW111324   3.054   0.781   2.554
 3586SOL    HW211325   2.937   0.729   2.655
 3587SOL     OW11326   3.617   0.607   2.093
 3587SOL    HW111327   3.605   0.594   1.994
 3587SOL    HW211328   3.587   0.526   2.142
 3588SOL     OW11329   2.630   1.144   2.885
 3588SOL    HW111330   2.552   1.161   2.945
 3588SOL    HW211331   2.664   1.231   2.849
 3589SOL     OW11332   2.712   0.798   3.685
 3589SOL    HW111333   2.708   0.874   3.750
 3589SOL    HW211334   2.734   0.834   3.594
 3590SOL     OW11335   2.547   1.012   2.527
 3590SOL    HW111336   2.616   0.996   2.597
 3590SOL    HW211337   2.474   1.069   2.565
 3591SOL     OW11338   2.548   1.161   3.665
 3591SOL    HW111339   2.608   1.240   3.679
 3591SOL    HW211340   2.462   1.192   3.624
 3592SOL     OW11341   2.197   1.435   2.923
 3592SOL    HW111342   2.119   1.404   2.870
 3592SOL    HW211343   2.255   1.493   2.866
 3593SOL     OW11344   3.322   1.505   3.201
 3593SOL    HW111345   3.346   1.599   3.227
 3593SOL    HW211346   3.306   1.451   3.283
 3594SOL     OW11347   2.300   0.392   3.361
 3594SOL    HW111348   2.382   0.336   3.370
 3594SOL    HW211349   2.219   0.334   3.365
 3595SOL     OW11350   3.465   0.447   2.599
 3595SOL    HW111351   3.391   0.493   2.549
 3595SOL    HW211352   3.516   0.515   2.652
 3596SOL     OW11353   2.093   1.713   2.345
 3596SOL    HW111354   2.127   1.790   2.399
 3596SOL    HW211355   2.137   1.713   2.255
 3597SOL     OW11356   2.989   1.341   3.552
 3597SOL    HW111357   3.036   1.341   3.640
 3597SOL    HW211358   2.941   1.254   3.541
 3598SOL     OW11359   2.092   1.434   2.400
 3598SOL    HW111360   2.066   1.530   2.400
 3598SOL    HW211361   2.021   1.380   2.445
 3599SOL     OW11362   2.102   1.091   2.748
 3599SOL    HW111363   2.116   1.007   2.800
 3599SOL    HW211364   2.047   1.155   2.803
 3600SOL     OW11365   2.482   1.786   3.301
 3600SOL    HW111366   2.390   1.769   3.336
 3600SOL    HW211367   2.510   1.878   3.327
 3601SOL     OW11368   2.468   0.964   1.985
 3601SOL    HW111369   2.475   1.048   1.931
 3601SOL    HW211370   2.514   0.977   2.073
 3602SOL     OW11371   3.456   0.114   3.342
 3602SOL    HW111372   3.438   0.181   3.270
 3602SOL    HW211373   3.453   0.160   3.431
 3603SOL     OW11374   1.984   0.643   2.425
 3603SOL    HW111375   1.939   0.555   2.442
 3603SOL    HW211376   1.983   0.697   2.509
 3604SOL     OW11377   3.704   1.767   2.221
 3604SOL    HW111378   3.758   1.738   2.301
 3604SOL    HW211379   3.734   1.857   2.192
 3605SOL     OW11380   1.889   1.596   1.979
 3605SOL    HW111381   1.870   1.500   2.000
 3605SOL    HW211382   1.856   1.654   2.054
 3606SOL     OW11383   3.551   0.922   2.474
 3606SOL    HW111384   3.646   0.893   2.482
 3606SOL    HW211385   3.543   0.987   2.399
 3607SOL     OW11386   3.503   1.108   2.294
 3607SOL    HW111387   3.589   1.110   2.242
 3607SOL    HW211388   3.517   1.155   2.382
 3608SOL     OW11389   1.975   0.737   3.459
 3608SOL    HW111390   2.063   0.724   3.504
 3608SOL    HW211391   1.962   0.834   3.437
 3609SOL     OW11392   2.475   1.365   2.588
 3609SOL    HW111393   2.426   1.278   2.597
 3609SOL    HW211394   2.452   1.408   2.501
 3610SOL     OW11395   3.155   1.228   3.285
 3610SOL    HW111396   3.192   1.155   3.227
 3610SOL    HW211397   3.207   1.233   3.370
 3611SOL     OW11398   2.671   0.004   2.364
 3611SOL    HW111399   2.711   0.095   2.355
 3611SOL    HW211400   2.571   0.012   2.370
 3612SOL     OW11401   2.059   0.976   3.126
 3612SOL    HW111402   2.148   0.931   3.112
 3612SOL    HW211403   1.986   0.911   3.107
 3613SOL     OW11404   3.387   0.999   2.052
 3613SOL    HW111405   3.324   0.923   2.065
 3613SOL    HW211406   3.435   1.017   2.138
 3614SOL     OW11407   3.049   1.792   3.478
 3614SOL    HW111408   3.073   1.852   3.402
 3614SOL    HW211409   3.056   1.697   3.448
 3615SOL     OW11410   2.179   0.251   3.663
 3615SOL    HW111411   2.250   0.322   3.669
 3615SOL    HW211412   2.091   0.290   3.691
 3616SOL     OW11413   3.328   1.417   2.815
 3616SOL    HW111414   3.269   1.423   2.895
 3616SOL    HW211415   3.313   1.329   2.769
 3617SOL     OW11416   3.529   1.714   2.434
 3617SOL    HW111417   3.488   1.691   2.346
 3617SOL    HW211418   3.511   1.640   2.499
 3618SOL     OW11419   2.460   0.729   2.132
 3618SOL    HW111420   2.484   0.798   2.064
 3618SOL    HW211421   2.382   0.762   2.186
 3619SOL     OW11422   3.143   0.345   2.806
 3619SOL    HW111423   3.057   0.295   2.793
 3619SOL    HW211424   3.205   0.291   2.862
 3620SOL     OW11425   3.438   1.662   2.169
 3620SOL    HW111426   3.527   1.708   2.172
 3620SOL    HW211427   3.417   1.638   2.074
 3621SOL     OW11428   2.669   0.605   3.327
 3621SOL    HW111429   2.622   0.602   3.416
 3621SOL    HW211430   2.618   0.550   3.261
 3622SOL     OW11431   3.256   0.469   3.536
 3622SOL    HW111432   3.236   0.512   3.624
 3622SOL    HW211433   3.334   0.407   3.545
 3623SOL     OW11434   2.835   0.890   3.434
 3623SOL    HW111435   2.881   0.806   3.405
 3623SOL    HW211436   2.779   0.924   3.359
 3624SOL     OW11437   2.853   0.410   3.104
 3624SOL    HW111438   2.776   0.444   3.158
 3624SOL    HW211439   2.819   0.359   3.025
 3625SOL     OW11440   2.903   0.701   2.291
 3625SOL    HW111441   2.929   0.697   2.387
 3625SOL    HW211442   2.818   0.650   2.277
 3626SOL     OW11443   1.938   0.811   2.651
 3626SOL    HW111444   2.037   0.799   2.660
 3626SOL    HW211445   1.914   0.906   2.672
 3627SOL     OW11446   2.727   0.348   2.057
 3627SOL    HW111447   2.786   0.411   2.008
 3627SOL    HW211448   2.746   0.254   2.028
 3628SOL     OW11449   3.581   0.585   3.693
 3628SOL    HW111450   3.555   0.674   3.657
 3628SOL    HW211451   3.579   0.517   3.620
 3629SOL     OW11452   3.224   1.144   2.407
 3629SOL    HW111453   3.307   1.115   2.359
 3629SOL    HW211454   3.175   1.211   2.351
 3630SOL     OW11455   2.412   0.196   2.747
 3630SOL    HW111456   2.407   0.191   2.847
 3630SOL    HW211457   2.414   0.292   2.718
 3631SOL     OW11458   2.870   1.456   2.339
 3631SOL    HW111459   2.824   1.528   2.287
 3631SOL    HW211460   2.866   1.476   2.437
 3632SOL     OW11461   2.213   1.801   2.715
 3632SOL    HW111462   2.263   1.715   2.721
 3632SOL    HW211463   2.278   1.878   2.712
 3633SOL     OW11464   3.657   1.066   2.735
 3633SOL    HW111465   3.595   1.051   2.659
 3633SOL    HW211466   3.605   1.077   2.820
 3634SOL     OW11467   3.089   1.550   3.368
 3634SOL    HW111468   3.095   1.473   3.432
 3634SOL    HW211469   3.037   1.524   3.288
 3635SOL     OW11470   2.183   0.943   2.104
 3635SOL    HW111471   2.265   0.982   2.062
 3635SOL    HW211472   2.156   0.861   2.055
 3636SOL     OW11473   3.320   0.735   2.590
 3636SOL    HW111474   3.315   0.670   2.665
 3636SOL    HW211475   3.400   0.794   2.603
 3637SOL     OW11476   2.323   1.266   3.589
 3637SOL    HW111477   2.273   1.267   3.503
 3637SOL    HW211478   2.260   1.248   3.665
 3638SOL     OW11479   2.973   1.776   2.099
 3638SOL    HW111480   2.913   1.714   2.149
 3638SOL    HW211481   3.004   1.732   2.014
 3639SOL     OW11482   2.064   0.285   3.360
 3639SOL    HW111483   1.984   0.345   3.347
 3639SOL    HW211484   2.054   0.236   3.446
 3640SOL     OW11485   3.494   1.377   1.943
 3640SOL    HW111486   3.462   1.471   1.933
 3640SOL    HW211487   3.418   1.314   1.931
 3641SOL     OW11488   2.326   1.743   2.185
 3641SOL    HW111489   2.359   1.782   2.271
 3641SOL    HW211490   2.402   1.736   2.120
 3642SOL     OW11491   3.262   0.107   2.288
 3642SOL    HW111492   3.238   0.070   2.198
 3642SOL    HW211493   3.361   0.123   2.292
 3643SOL     OW11494   2.111   1.785   3.103
 3643SOL    HW111495   2.168   1.720   3.153
 3643SOL    HW211496   2.095   1.752   3.010
 3644SOL     OW11497   2.802   1.698   2.766
 3644SOL    HW111498   2.882   1.641   2.787
 3644SOL    HW211499   2.753   1.658   2.689
 3645SOL     OW11500   2.244   0.700   2.342
 3645SOL    HW111501   2.289   0.610   2.339
 3645SOL    HW211502   2.150   0.689   2.375
 3646SOL     OW11503   3.409   0.222   3.591
 3646SOL    HW111504   3.404   0.259   3.683
 3646SOL    HW211505   3.337   0.153   3.579
 3647SOL     OW11506   2.476   0.122   1.979
 3647SOL    HW111507   2.574   0.100   1.986
 3647SOL    HW211508   2.445   0.105   1.886
 3648SOL     OW11509   2.643   0.264   3.611
 3648SOL    HW111510   2.710   0.203   3.654
 3648SOL    HW211511   2.570   0.283   3.676
 3649SOL     OW11512   2.750   1.514   3.057
 3649SOL    HW111513   2.727   1.489   2.963
 3649SOL    HW211514   2.811   1.445   3.096
 3650SOL     OW11515   3.213   0.590   3.295
 3650SOL    HW111516   3.241   0.547   3.380
 3650SOL    HW211517   3.238   0.686   3.296
 3651SOL     OW11518   2.665   1.402   2.786
 3651SOL    HW111519   2.755   1.416   2.744
 3651SOL    HW211520   2.594   1.404   2.715
 3652SOL     OW11521   2.784   0.503   2.761
 3652SOL    HW111522   2.759   0.494   2.665
 3652SOL    HW211523   2.832   0.421   2.792
 3653SOL     OW11524   2.401   0.064   2.374
 3653SOL    HW111525   2.320   0.065   2.432
 3653SOL    HW211526   2.404   0.147   2.319
 3654SOL     OW11527   3.296   1.188   1.903
 3654SOL    HW111528   3.328   1.112   1.960
 3654SOL    HW211529   3.204   1.215   1.933
 3655SOL     OW11530   2.159   0.035   2.033
 3655SOL    HW111531   2.208   0.119   2.012
 3655SOL    HW211532   2.221  -0.030   2.078
 3656SOL     OW11533   2.797   0.236   2.342
 3656SOL    HW111534   2.749   0.277   2.264
 3656SOL    HW211535   2.896   0.234   2.323
 3657SOL     OW11536   2.938   0.683   3.326
 3657SOL    HW111537   2.858   0.622   3.329
 3657SOL    HW211538   3.019   0.630   3.302
 3658SOL     OW11539   3.089   1.570   2.655
 3658SOL    HW111540   3.110   1.644   2.590
 3658SOL    HW211541   3.157   1.570   2.728
 3659SOL     OW11542   2.321   1.152   2.603
 3659SOL    HW111543   2.250   1.125   2.668
 3659SOL    HW211544   2.295   1.124   2.510
 3660SOL     OW11545   3.133   1.797   2.453
 3660SOL    HW111546   3.177   1.861   2.389
 3660SOL    HW211547   3.083   1.849   2.523
 3661SOL     OW11548   2.894   0.549   1.878
 3661SOL    HW111549   2.853   0.631   1.839
 3661SOL    HW211550   2.958   0.575   1.951
 3662SOL     OW11551   1.940   0.556   3.248
 3662SOL    HW111552   2.032   0.555   3.207
 3662SOL    HW211553   1.934   0.630   3.315
 3663SOL     OW11554   2.423   0.222   3.009
 3663SOL    HW111555   2.461   0.138   3.046
 3663SOL    HW211556   2.335   0.241   3.053
 3664SOL     OW11557   2.728   0.454   2.504
 3664SOL    HW111558   2.696   0.526   2.442
 3664SOL    HW211559   2.752   0.373   2.451
 3665SOL     OW11560   2.879   0.039   2.615
 3665SOL    HW111561   2.807   0.044   2.546
 3665SOL    HW211562   2.855  -0.030   2.684
 3666SOL     OW11563   3.291   1.173   2.729
 3666SOL    HW111564   3.236   1.089   2.722
 3666SOL    HW211565   3.317   1.202   2.637
 3667SOL     OW11566   3.328   0.590   2.854
 3667SOL    HW111567   3.298   0.495   2.861
 3667SOL    HW211568   3.401   0.606   2.920
 3668SOL     OW11569   3.719   0.833   2.239
 3668SOL    HW111570   3.761   0.769   2.303
 3668SOL    HW211571   3.681   0.782   2.161
 3669SOL     OW11572   2.350   1.385   2.036
 3669SOL    HW111573   2.263   1.370   2.083
 3669SOL    HW211574   2.333   1.411   1.941
 3670SOL     OW11575   3.526   1.280   2.519
 3670SOL    HW111576   3.625   1.288   2.533
 3670SOL    HW211577   3.481   1.364   2.550
 3671SOL     OW11578   3.252   0.575   1.940
 3671SOL    HW111579   3.198   0.554   2.021
 3671SOL    HW211580   3.343   0.534   1.949
 3672SOL     OW11581   2.389   0.256   2.190
 3672SOL    HW111582   2.416   0.197   2.115
 3672SOL    HW211583   2.389   0.351   2.159
 3673SOL     OW11584   3.616   1.223   3.450
 3673SOL    HW111585   3.707   1.184   3.437
 3673SOL    HW211586   3.624   1.319   3.474
 3674SOL     OW11587   2.926   1.347   3.202
 3674SOL    HW111588   2.846   1.324   3.257
 3674SOL    HW211589   3.009   1.321   3.251
 3675SOL     OW11590   3.454   1.629   3.487
 3675SOL    HW111591   3.481   1.663   3.397
 3675SOL    HW211592   3.533   1.591   3.533
 3676SOL     OW11593   2.973   1.195   2.962
 3676SOL    HW111594   2.933   1.239   3.043
 3676SOL    HW211595   2.932   1.232   2.879
 3677SOL     OW11596   3.500   1.099   2.941
 3677SOL    HW111597   3.505   1.180   3.000
 3677SOL    HW211598   3.414   1.101   2.890
 3678SOL     OW11599   2.777   0.089   3.264
 3678SOL    HW111600   2.802   0.069   3.169
 3678SOL    HW211601   2.849   0.145   3.306
 3679SOL     OW11602   2.842   1.116   3.581
 3679SOL    HW111603   2.743   1.122   3.591
 3679SOL    HW211604   2.865   1.036   3.525
 3680SOL     OW11605   2.567   1.050   2.230
 3680SOL    HW111606   2.553   1.057   2.329
 3680SOL    HW211607   2.651   0.999   2.212
 3681SOL     OW11608   2.272   0.813   3.113
 3681SOL    HW111609   2.358   0.825   3.163
 3681SOL    HW211610   2.230   0.726   3.140
 3682SOL     OW11611   3.136   0.386   3.124
 3682SOL    HW111612   3.157   0.460   3.188
 3682SOL    HW211613   3.047   0.403   3.081
 3683SOL     OW11614   1.926   1.564   3.193
 3683SOL    HW111615   1.880   1.646   3.159
 3683SOL    HW211616   2.024   1.583   3.202
 3684SOL     OW11617   2.229   1.100   2.363
 3684SOL    HW111618   2.222   1.183   2.307
 3684SOL    HW211619   2.233   1.020   2.303
 3685SOL     OW11620   2.428   0.537   2.727
 3685SOL    HW111621   2.440   0.603   2.653
 3685SOL    HW211622   2.474   0.571   2.810
 3686SOL     OW11623   3.114   1.348   2.250
 3686SOL    HW111624   3.164   1.425   2.290
 3686SOL    HW211625   3.019   1.350   2.282
 3687SOL     OW11626   3.134   1.445   3.004
 3687SOL    HW111627   3.181   1.458   3.091
 3687SOL    HW211628   3.068   1.371   3.013
 3688SOL     OW11629   3.444   0.639   2.334
 3688SOL    HW111630   3.413   0.700   2.407
 3688SOL    HW211631   3.494   0.691   2.265
 3689SOL     OW11632   2.216   1.510   3.191
 3689SOL    HW111633   2.195   1.466   3.104
 3689SOL    HW211634   2.313   1.536   3.194
 3690SOL     OW11635   2.264   0.751   3.460
 3690SOL    HW111636   2.332   0.806   3.413
 3690SOL    HW211637   2.304   0.663   3.487
 3691SOL     OW11638   3.449   0.779   3.532
 3691SOL    HW111639   3.357   0.817   3.527
 3691SOL    HW211640   3.509   0.826   3.467
 3692SOL     OW11641   2.875   0.105   3.632
 3692SOL    HW111642   2.881   0.190   3.580
 3692SOL    HW211643   2.907   0.029   3.575
 3693SOL     OW11644   2.366   0.050   3.602
 3693SOL    HW111645   2.324  -0.007   3.532
 3693SOL    HW211646   2.300   0.119   3.634
 3694SOL     OW11647   2.435   0.870   2.891
 3694SOL    HW111648   2.479   0.959   2.882
 3694SOL    HW211649   2.372   0.870   2.968
 3695SOL     OW11650   3.222   0.862   2.907
 3695SOL    HW111651   3.147   0.862   2.841
 3695SOL    HW211652   3.259   0.770   2.916
 3696SOL     OW11653   3.071   0.525   2.137
 3696SOL    HW111654   3.084   0.441   2.191
 3696SOL    HW211655   3.042   0.599   2.197
 3697SOL     OW11656   2.169   0.213   3.093
 3697SOL    HW111657   2.146   0.250   3.183
 3697SOL    HW211658   2.139   0.118   3.087
 3698SOL     OW11659   1.899   1.310   3.144
 3698SOL    HW111660   1.952   1.261   3.212
 3698SOL    HW211661   1.921   1.408   3.149
 3699SOL     OW11662   2.594   0.634   2.926
 3699SOL    HW111663   2.653   0.608   2.850
 3699SOL    HW211664   2.566   0.730   2.915
 3700SOL     OW11665   3.590   0.935   3.716
 3700SOL    HW111666   3.544   0.928   3.627
 3700SOL    HW211667   3.528   0.979   3.782
 3701SOL     OW11668   2.169   0.063   2.480
 3701SOL    HW111669   2.158   0.157   2.513
 3701SOL    HW211670   2.164   0.000   2.557
 3702SOL     OW11671   3.484   0.367   2.236
 3702SOL    HW111672   3.486   0.291   2.300
 3702SOL    HW211673   3.436   0.444   2.276
 3703SOL     OW11674   2.885   0.766   2.828
 3703SOL    HW111675   2.900   0.787   2.924
 3703SOL    HW211676   2.855   0.671   2.819
 3704SOL     OW11677   2.842   1.573   3.562
 3704SOL    HW111678   2.822   1.617   3.474
 3704SOL    HW211679   2.881   1.482   3.546
 3705SOL     OW11680   3.721   1.518   3.467
 3705SOL    HW111681   3.735   1.545   3.372
 3705SOL    HW211682   3.804   1.540   3.520
 3706SOL     OW11683   2.212   0.898   3.666
 3706SOL    HW111684   2.288   0.942   3.714
 3706SOL    HW211685   2.247   0.851   3.584
 3707SOL     OW11686   3.402   0.274   1.987
 3707SOL    HW111687   3.341   0.199   2.010
 3707SOL    HW211688   3.424   0.326   2.070
 3708SOL     OW11689   3.165   0.838   1.904
 3708SOL    HW111690   3.199   0.745   1.919
 3708SOL    HW211691   3.183   0.865   1.809
 3709SOL     OW11692   2.930   1.333   2.711
 3709SOL    HW111693   2.937   1.249   2.656
 3709SOL    HW211694   2.992   1.402   2.675
 3710SOL     OW11695   2.181   0.810   2.811
 3710SOL    HW111696   2.274   0.846   2.816
 3710SOL    HW211697   2.175   0.725   2.863
 3711SOL     OW11698   2.201   0.509   2.868
 3711SOL    HW111699   2.149   0.426   2.851
 3711SOL    HW211700   2.278   0.514   2.804
 3712SOL     OW11701   3.000   0.380   3.540
 3712SOL    HW111702   2.955   0.443   3.604
 3712SOL    HW211703   3.093   0.411   3.523
 3713SOL     OW11704   3.022   0.207   3.339
 3713SOL    HW111705   3.022   0.271   3.416
 3713SOL    HW211706   3.050   0.255   3.256
 3714SOL     OW11707   1.870   1.326   2.062
 3714SOL    HW111708   1.777   1.347   2.031
 3714SOL    HW211709   1.880   1.227   2.075
 3715SOL     OW11710   1.950   1.801   2.789
 3715SOL    HW111711   1.908   1.715   2.762
 3715SOL    HW211712   2.044   1.804   2.755
 3716SOL     OW11713   2.366   1.568   2.772
 3716SOL    HW111714   2.432   1.642   2.781
 3716SOL    HW211715   2.410   1.489   2.730
 3717SOL     OW11716   2.864   0.796   3.100
 3717SOL    HW111717   2.905   0.764   3.186
 3717SOL    HW211718   2.768   0.769   3.097
 3718SOL     OW11719   1.902   0.544   2.976
 3718SOL    HW111720   1.987   0.511   2.935
 3718SOL    HW211721   1.915   0.559   3.074
 3719SOL     OW11722   2.051   0.520   3.584
 3719SOL    HW111723   2.110   0.480   3.514
 3719SOL    HW211724   1.993   0.591   3.543
 3720SOL     OW11725   3.231   0.950   3.522
 3720SOL    HW111726   3.270   1.039   3.542
 3720SOL    HW211727   3.241   0.930   3.425
 3721SOL     OW11728   2.677   0.572   2.187
 3721SOL    HW111729   2.684   0.483   2.141
 3721SOL    HW211730   2.583   0.606   2.179
 3722SOL     OW11731   3.519   0.604   3.068
 3722SOL    HW111732   3.481   0.535   3.130
 3722SOL    HW211733   3.601   0.568   3.024
 3723SOL     OW11734   2.114   1.564   3.606
 3723SOL    HW111735   2.084   1.621   3.682
 3723SOL    HW211736   2.107   1.467   3.632
 3724SOL     OW11737   2.533   0.464   3.131
 3724SOL    HW111738   2.499   0.375   3.101
 3724SOL    HW211739   2.559   0.518   3.051
 3725SOL     OW11740   2.792   1.678   3.327
 3725SOL    HW111741   2.768   1.660   3.232
 3725SOL    HW211742   2.822   1.772   3.337
 3726SOL     OW11743   2.335   0.500   2.053
 3726SOL    HW111744   2.396   0.580   2.057
 3726SOL    HW211745   2.240   0.531   2.060
 3727SOL     OW11746   2.021   1.137   3.328
 3727SOL    HW111747   2.043   1.076   3.404
 3727SOL    HW211748   2.031   1.088   3.242
 3728SOL     OW11749   3.209   1.059   3.096
 3728SOL    HW111750   3.233   0.996   3.022
 3728SOL    HW211751   3.119   1.099   3.078
 3729SOL     OW11752   3.164   0.855   2.171
 3729SOL    HW111753   3.078   0.824   2.213
 3729SOL    HW211754   3.160   0.841   2.072
 3730SOL     OW11755   3.621   1.747   3.016
 3730SOL    HW111756   3.682   1.777   2.943
 3730SOL    HW211757   3.583   1.658   2.994
 3731SOL     OW11758   3.114   1.731   2.990
 3731SOL    HW111759   3.198   1.736   2.936
 3731SOL    HW211760   3.091   1.635   3.008
 3732SOL     OW11761   1.945   1.258   2.884
 3732SOL    HW111762   1.940   1.257   2.984
 3732SOL    HW211763   1.862   1.217   2.846
 3733SOL     OW11764   2.550   1.662   3.578
 3733SOL    HW111765   2.494   1.743   3.587
 3733SOL    HW211766   2.602   1.666   3.492
 3734SOL     OW11767   3.588   0.135   2.385
 3734SOL    HW111768   3.661   0.118   2.318
 3734SOL    HW211769   3.557   0.048   2.423
 3735SOL     OW11770   3.250   1.573   2.339
 3735SOL    HW111771   3.317   1.585   2.265
 3735SOL    HW211772   3.210   1.662   2.362
 3736SOL     OW11773   1.992   1.794   3.713
 3736SOL    HW111774   1.951   1.720   3.766
 3736SOL    HW211775   2.056   1.845   3.771
 3737SOL     OW11776   3.142   0.927   2.534
 3737SOL    HW111777   3.202   0.846   2.536
 3737SOL    HW211778   3.182   0.996   2.474
 3738SOL     OW11779   2.692   1.273   3.284
 3738SOL    HW111780   2.687   1.306   3.379
 3738SOL    HW211781   2.606   1.292   3.238
 3739SOL     OW11782   2.534   1.616   2.016
 3739SOL    HW111783   2.543   1.626   1.917
 3739SOL    HW211784   2.494   1.527   2.037
 3740SOL     OW11785   3.512   1.720   3.256
 3740SOL    HW111786   3.565   1.730   3.172
 3740SOL    HW211787   3.485   1.810   3.290
 3741SOL     OW11788   3.703   0.175   2.825
 3741SOL    HW111789   3.742   0.090   2.789
 3741SOL    HW211790   3.605   0.177   2.806
 3742SOL     OW11791   2.125   0.326   2.582
 3742SOL    HW111792   2.046   0.377   2.548
 3742SOL    HW211793   2.116   0.311   2.680
 3743SOL     OW11794   3.056   1.612   1.893
 3743SOL    HW111795   3.062   1.519   1.930
 3743SOL    HW211796   2.997   1.612   1.813
 3744SOL     OW11797   2.684   1.002   3.234
 3744SOL    HW111798   2.724   1.001   3.142
 3744SOL    HW211799   2.694   1.094   3.274
 3745SOL     OW11800   2.778   0.910   2.153
 3745SOL    HW111801   2.841   0.948   2.085
 3745SOL    HW211802   2.818   0.827   2.192
 3746SOL     OW11803   3.366   1.607   1.906
 3746SOL    HW111804   3.274   1.644   1.913
 3746SOL    HW211805   3.404   1.627   1.816
 3747SOL     OW11806   2.234   1.288   3.352
 3747SOL    HW111807   2.221   1.381   3.318
 3747SOL    HW211808   2.150   1.236   3.339
 3748SOL     OW11809   3.476   1.292   3.151
 3748SOL    HW111810   3.536   1.295   3.231
 3748SOL    HW211811   3.401   1.356   3.164
 3749SOL     OW11812   2.901   1.098   2.558
 3749SOL    HW111813   2.831   1.051   2.612
 3749SOL    HW211814   2.960   1.030   2.515
 3750SOL     OW11815   2.876   0.236   2.833
 3750SOL    HW111816   2.868   0.200   2.740
 3750SOL    HW211817   2.874   0.160   2.898
 3751SOL     OW11818   2.452   1.487   2.353
 3751SOL    HW111819   2.494   1.429   2.283
 3751SOL    HW211820   2.408   1.566   2.309
 3752SOL     OW11821   3.571   0.385   3.243
 3752SOL    HW111822   3.644   0.454   3.247
 3752SOL    HW211823   3.599   0.310   3.184
 3753SOL     OW11824   2.117   1.348   2.152
 3753SOL    HW111825   2.021   1.349   2.125
 3753SOL    HW211826   2.129   1.401   2.236
 3754SOL     OW11827   1.967   1.013   3.588
 3754SOL    HW111828   1.890   0.980   3.642
 3754SOL    HW211829   2.052   0.983   3.630
 3755SOL     OW11830   2.534   0.203   3.351
 3755SOL    HW111831   2.624   0.187   3.311
 3755SOL    HW211832   2.542   0.208   3.450
 3756SOL     OW11833   1.937   0.345   1.895
 3756SOL    HW111834   1.845   0.317   1.866
 3756SOL    HW211835   1.968   0.422   1.839
 3757SOL     OW11836   3.302   0.856   3.260
 3757SOL    HW111837   3.245   0.908   3.197
 3757SOL    HW211838   3.398   0.868   3.236
 3758SOL     OW11839   1.934   0.166   2.180
 3758SOL    HW111840   1.917   0.249   2.126
 3758SOL    HW211841   2.024   0.129   2.158
 3759SOL     OW11842   3.045   1.335   1.981
 3759SOL    HW111843   2.946   1.324   1.983
 3759SOL    HW211844   3.079   1.350   2.074
 3760SOL     OW11845   2.475   0.842   3.293
 3760SOL    HW111846   2.531   0.923   3.276
 3760SOL    HW211847   2.534   0.762   3.296
 3761SOL     OW11848   3.355   1.767   2.821
 3761SOL    HW111849   3.388   1.831   2.752
 3761SOL    HW211850   3.421   1.761   2.896
 3762SOL     OW11851   2.578   0.565   3.570
 3762SOL    HW111852   2.597   0.630   3.644
 3762SOL    HW211853   2.638   0.485   3.579
 3763SOL     OW11854   3.312   1.220   3.495
 3763SOL    HW111855   3.303   1.210   3.594
 3763SOL    HW211856   3.408   1.213   3.469
 3764SOL     OW11857   2.252   1.741   3.422
 3764SOL    HW111858   2.161   1.782   3.420
 3764SOL    HW211859   2.245   1.647   3.454
 3765SOL     OW11860   3.536   0.883   3.116
 3765SOL    HW111861   3.509   0.794   3.079
 3765SOL    HW211862   3.537   0.951   3.043
 3766SOL     OW11863   3.087   0.325   2.311
 3766SOL    HW111864   3.152   0.251   2.300
 3766SOL    HW211865   3.107   0.375   2.395
 3767SOL     OW11866   2.456   0.745   2.514
 3767SOL    HW111867   2.506   0.830   2.495
 3767SOL    HW211868   2.368   0.747   2.466
 3768SOL     OW11869   3.639   0.342   3.504
 3768SOL    HW111870   3.622   0.373   3.410
 3768SOL    HW211871   3.555   0.305   3.542
 3769SOL     OW11872   3.592   0.934   3.379
 3769SOL    HW111873   3.630   1.025   3.394
 3769SOL    HW211874   3.584   0.917   3.280
 3770SOL     OW11875   2.721   1.374   1.878
 3770SOL    HW111876   2.675   1.389   1.966
 3770SOL    HW211877   2.765   1.459   1.848
 3771SOL     OW11878   2.523   1.790   2.815
 3771SOL    HW111879   2.477   1.878   2.802
 3771SOL    HW211880   2.622   1.802   2.808
 3772SOL     OW11881   2.721   0.956   2.723
 3772SOL    HW111882   2.775   0.887   2.771
 3772SOL    HW211883   2.689   1.025   2.789
 3773SOL     OW11884   2.945   0.984   1.949
 3773SOL    HW111885   2.922   1.037   1.867
 3773SOL    HW211886   3.026   0.928   1.930
 3774SOL     OW11887   3.723   1.569   2.713
 3774SOL    HW111888   3.652   1.557   2.643
 3774SOL    HW211889   3.724   1.490   2.773
 3775SOL     OW11890   2.083   1.314   3.706
 3775SOL    HW111891   2.018   1.241   3.685
 3775SOL    HW211892   2.087   1.328   3.804
 3776SOL     OW11893   1.941   1.240   2.515
 3776SOL    HW111894   1.940   1.193   2.603
 3776SOL    HW211895   2.023   1.212   2.464
 3777SOL     OW11896   2.534   1.391   3.486
 3777SOL    HW111897   2.456   1.341   3.524
 3777SOL    HW211898   2.531   1.486   3.517
 3778SOL     OW11899   3.686   0.192   3.089
 3778SOL    HW111900   3.682   0.102   3.133
 3778SOL    HW211901   3.689   0.181   2.990
 3779SOL     OW11902   2.290   0.424   2.382
 3779SOL    HW111903   2.320   0.352   2.320
 3779SOL    HW211904   2.251   0.384   2.465
 3780SOL     OW11905   3.567   1.487   2.966
 3780SOL    HW111906   3.474   1.462   2.939
 3780SOL    HW211907   3.593   1.437   3.048
 3781SOL     OW11908   2.179   0.547   3.142
 3781SOL    HW111909   2.217   0.488   3.214
 3781SOL    HW211910   2.219   0.521   3.054
 3782SOL     OW11911   2.674   1.586   2.549
 3782SOL    HW111912   2.706   1.596   2.455
 3782SOL    HW211913   2.595   1.524   2.551
 3783SOL     OW11914   3.286   0.214   2.974
 3783SOL    HW111915   3.338   0.149   3.029
 3783SOL    HW211916   3.237   0.277   3.035
 3784SOL     OW11917   2.863   0.034   3.016
 3784SOL    HW111918   2.800  -0.038   2.985
 3784SOL    HW211919   2.956  -0.002   3.016
 3785SOL     OW11920   2.632   1.330   2.163
 3785SOL    HW111921   2.586   1.243   2.180
 3785SOL    HW211922   2.723   1.327   2.204
 3786SOL     OW11923   2.480   1.567   3.146
 3786SOL    HW111924   2.475   1.649   3.203
 3786SOL    HW211925   2.569   1.564   3.101
 3787SOL     OW11926   3.214   0.052   2.030
 3787SOL    HW111927   3.249   0.011   1.946
 3787SOL    HW211928   3.124   0.014   2.050
 3788SOL     OW11929   3.162   0.453   2.553
 3788SOL    HW111930   3.103   0.533   2.557
 3788SOL    HW211931   3.177   0.418   2.646
 3789SOL     OW11932   3.455   0.221   2.744
 3789SOL    HW111933   3.371   0.220   2.798
 3789SOL    HW211934   3.457   0.304   2.688
 3790SOL     OW11935   1.901   1.077   2.162
 3790SOL    HW111936   2.000   1.066   2.153
 3790SOL    HW211937   1.861   0.991   2.194
 3791SOL     OW11938   2.737   1.646   2.199
 3791SOL    HW111939   2.660   1.611   2.145
 3791SOL    HW211940   2.705   1.717   2.261
 3792SOL     OW11941   2.092   0.628   3.837
 3792SOL    HW111942   1.999   0.626   3.874
 3792SOL    HW211943   2.093   0.589   3.745
 3793SOL     OW11944   2.087   0.275   4.720
 3793SOL    HW111945   2.122   0.258   4.812
 3793SOL    HW211946   1.999   0.230   4.708
 3794SOL     OW11947   1.881   0.368   4.371
 3794SOL    HW111948   1.799   0.411   4.410
 3794SOL    HW211949   1.853   0.295   4.308
 3795SOL     OW11950   2.431   1.275   4.889
 3795SOL    HW111951   2.338   1.268   4.852
 3795SOL    HW211952   2.442   1.364   4.933
 3796SOL     OW11953   3.417   1.511   4.427
 3796SOL    HW111954   3.360   1.495   4.508
 3796SOL    HW211955   3.358   1.521   4.347
 3797SOL     OW11956   2.997   0.703   4.441
 3797SOL    HW111957   3.054   0.781   4.416
 3797SOL    HW211958   2.937   0.729   4.517
 3798SOL     OW11959   3.617   0.607   3.955
 3798SOL    HW111960   3.605   0.594   3.856
 3798SOL    HW211961   3.587   0.526   4.004
 3799SOL     OW11962   2.630   1.144   4.747
 3799SOL    HW111963   2.552   1.161   4.807
 3799SOL    HW211964   2.664   1.231   4.711
 3800SOL     OW11965   2.712   0.798   5.547
 3800SOL    HW111966   2.708   0.874   5.612
 3800SOL    HW211967   2.734   0.834   5.456
 3801SOL     OW11968   2.547   1.012   4.389
 3801SOL    HW111969   2.616   0.996   4.459
 3801SOL    HW211970   2.474   1.069   4.427
 3802SOL     OW11971   2.548   1.161   5.527
 3802SOL    HW111972   2.608   1.240   5.541
 3802SOL    HW211973   2.462   1.192   5.486
 3803SOL     OW11974   2.197   1.435   4.785
 3803SOL    HW111975   2.119   1.404   4.732
 3803SOL    HW211976   2.255   1.493   4.728
 3804SOL     OW11977   3.322   1.505   5.063
 3804SOL    HW111978   3.346   1.599   5.089
 3804SOL    HW211979   3.306   1.451   5.145
 3805SOL     OW11980   2.300   0.392   5.223
 3805SOL    HW111981   2.382   0.336   5.232
 3805SOL    HW211982   2.219   0.334   5.227
 3806SOL     OW11983   3.465   0.447   4.461
 3806SOL    HW111984   3.391   0.493   4.411
 3806SOL    HW211985   3.516   0.515   4.514
 3807SOL     OW11986   2.093   1.713   4.207
 3807SOL    HW111987   2.127   1.790   4.261
 3807SOL    HW211988   2.137   1.713   4.117
 3808SOL     OW11989   2.989   1.341   5.414
 3808SOL    HW111990   3.036   1.341   5.502
 3808SOL    HW211991   2.941   1.254   5.403
 3809SOL     OW11992   2.092   1.434   4.262
 3809SOL    HW111993   2.066   1.530   4.262
 3809SOL    HW211994   2.021   1.380   4.307
 3810SOL     OW11995   2.102   1.091   4.610
 3810SOL    HW111996   2.116   1.007   4.662
 3810SOL    HW211997   2.047   1.155   4.665
 3811SOL     OW11998   2.482   1.786   5.163
 3811SOL    HW111999   2.390   1.769   5.198
 3811SOL    HW212000   2.510   1.878   5.189
 3812SOL     OW12001   2.468   0.964   3.847
 3812SOL    HW112002   2.475   1.048   3.793
 3812SOL    HW212003   2.514   0.977   3.935
 3813SOL     OW12004   3.456   0.114   5.204
 3813SOL    HW112005   3.438   0.181   5.132
 3813SOL    HW212006   3.453   0.160   5.293
 3814SOL     OW12007   1.984   0.643   4.287
 3814SOL    HW112008   1.939   0.555   4.304
 3814SOL    HW212009   1.983   0.697   4.371
 3815SOL     OW12010   3.704   1.767   4.083
 3815SOL    HW112011   3.758   1.738   4.163
 3815SOL    HW212012   3.734   1.857   4.054
 3816SOL     OW12013   1.889   1.596   3.841
 3816SOL    HW112014   1.870   1.500   3.862
 3816SOL    HW212015   1.856   1.654   3.916
 3817SOL     OW12016   3.551   0.922   4.336
 3817SOL    HW112017   3.646   0.893   4.344
 3817SOL    HW212018   3.543   0.987   4.261
 3818SOL     OW12019   3.503   1.108   4.156
 3818SOL    HW112020   3.589   1.110   4.104
 3818SOL    HW212021   3.517   1.155   4.244
 3819SOL     OW12022   1.975   0.737   5.321
 3819SOL    HW112023   2.063   0.724   5.366
 3819SOL    HW212024   1.962   0.834   5.299
 3820SOL     OW12025   2.475   1.365   4.450
 3820SOL    HW112026   2.426   1.278   4.459
 3820SOL    HW212027   2.452   1.408   4.363
 3821SOL     OW12028   3.155   1.228   5.147
 3821SOL    HW112029   3.192   1.155   5.089
 3821SOL    HW212030   3.207   1.233   5.232
 3822SOL     OW12031   2.671   0.004   4.226
 3822SOL    HW112032   2.711   0.095   4.217
 3822SOL    HW212033   2.571   0.012   4.232
 3823SOL     OW12034   2.059   0.976   4.988
 3823SOL    HW112035   2.148   0.931   4.974
 3823SOL    HW212036   1.986   0.911   4.969
 3824SOL     OW12037   3.387   0.999   3.914
 3824SOL    HW112038   3.324   0.923   3.927
 3824SOL    HW212039   3.435   1.017   4.000
 3825SOL     OW12040   3.049   1.792   5.340
 3825SOL    HW112041   3.073   1.852   5.264
 3825SOL    HW212042   3.056   1.697   5.310
 3826SOL     OW12043   2.179   0.251   5.525
 3826SOL    HW112044   2.250   0.322   5.531
 3826SOL    HW212045   2.091   0.290   5.553
 3827SOL     OW12046   3.328   1.417   4.677
 3827SOL    HW112047   3.269   1.423   4.757
 3827SOL    HW212048   3.313   1.329   4.631
 3828SOL     OW12049   3.529   1.714   4.296
 3828SOL    HW112050   3.488   1.691   4.208
 3828SOL    HW212051   3.511   1.640   4.361
 3829SOL     OW12052   2.460   0.729   3.994
 3829SOL    HW112053   2.484   0.798   3.926
 3829SOL    HW212054   2.382   0.762   4.048
 3830SOL     OW12055   3.143   0.345   4.668
 3830SOL    HW112056   3.057   0.295   4.655
 3830SOL    HW212057   3.205   0.291   4.724
 3831SOL     OW12058   3.438   1.662   4.031
 3831SOL    HW112059   3.527   1.708   4.034
 3831SOL    HW212060   3.417   1.638   3.936
 3832SOL     OW12061   2.669   0.605   5.189
 3832SOL    HW112062   2.622   0.602   5.278
 3832SOL    HW212063   2.618   0.550   5.123
 3833SOL     OW12064   3.256   0.469   5.398
 3833SOL    HW112065   3.236   0.512   5.486
 3833SOL    HW212066   3.334   0.407   5.407
 3834SOL     OW12067   2.835   0.890   5.296
 3834SOL    HW112068   2.881   0.806   5.267
 3834SOL    HW212069   2.779   0.924   5.221
 3835SOL     OW12070   2.853   0.410   4.966
 3835SOL    HW112071   2.776   0.444   5.020
 3835SOL    HW212072   2.819   0.359   4.887
 3836SOL     OW12073   2.903   0.701   4.153
 3836SOL    HW112074   2.929   0.697   4.249
 3836SOL    HW212075   2.818   0.650   4.139
 3837SOL     OW12076   1.938   0.811   4.513
 3837SOL    HW112077   2.037   0.799   4.522
 3837SOL    HW212078   1.914   0.906   4.534
 3838SOL     OW12079   2.727   0.348   3.919
 3838SOL    HW112080   2.786   0.411   3.870
 3838SOL    HW212081   2.746   0.254   3.890
 3839SOL     OW12082   3.581   0.585   5.555
 3839SOL    HW112083   3.555   0.674   5.519
 3839SOL    HW212084   3.579   0.517   5.482
 3840SOL     OW12085   3.224   1.144   4.269
 3840SOL    HW112086   3.307   1.115   4.221
 3840SOL    HW212087   3.175   1.211   4.213
 3841SOL     OW12088   2.412   0.196   4.609
 3841SOL    HW112089   2.407   0.191   4.709
 3841SOL    HW212090   2.414   0.292   4.580
 3842SOL     OW12091   2.870   1.456   4.201
 3842SOL    HW112092   2.824   1.528   4.149
 3842SOL    HW212093   2.866   1.476   4.299
 3843SOL     OW12094   2.213   1.801   4.577
 3843SOL    HW112095   2.263   1.715   4.583
 3843SOL    HW212096   2.278   1.878   4.574
 3844SOL     OW12097   3.657   1.066   4.597
 3844SOL    HW112098   3.595   1.051   4.521
 3844SOL    HW212099   3.605   1.077   4.682
 3845SOL     OW12100   3.089   1.550   5.230
 3845SOL    HW112101   3.095   1.473   5.294
 3845SOL    HW212102   3.037   1.524   5.150
 3846SOL     OW12103   2.183   0.943   3.966
 3846SOL    HW112104   2.265   0.982   3.924
 3846SOL    HW212105   2.156   0.861   3.917
 3847SOL     OW12106   3.320   0.735   4.452
 3847SOL    HW112107   3.315   0.670   4.527
 3847SOL    HW212108   3.400   0.794   4.465
 3848SOL     OW12109   2.323   1.266   5.451
 3848SOL    HW112110   2.273   1.267   5.365
 3848SOL    HW212111   2.260   1.248   5.527
 3849SOL     OW12112   2.973   1.776   3.961
 3849SOL    HW112113   2.913   1.714   4.011
 3849SOL    HW212114   3.004   1.732   3.876
 3850SOL     OW12115   2.064   0.285   5.222
 3850SOL    HW112116   1.984   0.345   5.209
 3850SOL    HW212117   2.054   0.236   5.308
 3851SOL     OW12118   3.494   1.377   3.805
 3851SOL    HW112119   3.462   1.471   3.795
 3851SOL    HW212120   3.418   1.314   3.793
 3852SOL     OW12121   2.326   1.743   4.047
 3852SOL    HW112122   2.359   1.782   4.133
 3852SOL    HW212123   2.402   1.736   3.982
 3853SOL     OW12124   3.262   0.107   4.150
 3853SOL    HW112125   3.238   0.070   4.060
 3853SOL    HW212126   3.361   0.123   4.154
 3854SOL     OW12127   2.111   1.785   4.965
 3854SOL    HW112128   2.168   1.720   5.015
 3854SOL    HW212129   2.095   1.752   4.872
 3855SOL     OW12130   2.802   1.698   4.628
 3855SOL    HW112131   2.882   1.641   4.649
 3855SOL    HW212132   2.753   1.658   4.551
 3856SOL     OW12133   2.244   0.700   4.204
 3856SOL    HW112134   2.289   0.610   4.201
 3856SOL    HW212135   2.150   0.689   4.237
 3857SOL     OW12136   3.409   0.222   5.453
 3857SOL    HW112137   3.404   0.259   5.545
 3857SOL    HW212138   3.337   0.153   5.441
 3858SOL     OW12139   2.476   0.122   3.841
 3858SOL    HW112140   2.574   0.100   3.848
 3858SOL    HW212141   2.445   0.105   3.748
 3859SOL     OW12142   2.643   0.264   5.473
 3859SOL    HW112143   2.710   0.203   5.516
 3859SOL    HW212144   2.570   0.283   5.538
 3860SOL     OW12145   2.750   1.514   4.919
 3860SOL    HW112146   2.727   1.489   4.825
 3860SOL    HW212147   2.811   1.445   4.958
 3861SOL     OW12148   3.213   0.590   5.157
 3861SOL    HW112149   3.241   0.547   5.242
 3861SOL    HW212150   3.238   0.686   5.158
 3862SOL     OW12151   2.665   1.402   4.648
 3862SOL    HW112152   2.755   1.416   4.606
 3862SOL    HW212153   2.594   1.404   4.577
 3863SOL     OW12154   2.784   0.503   4.623
 3863SOL    HW112155   2.759   0.494   4.527
 3863SOL    HW212156   2.832   0.421   4.654
 3864SOL     OW12157   2.401   0.064   4.236
 3864SOL    HW112158   2.320   0.065   4.294
 3864SOL    HW212159   2.404   0.147   4.181
 3865SOL     OW12160   3.296   1.188   3.765
 3865SOL    HW112161   3.328   1.112   3.822
 3865SOL    HW212162   3.204   1.215   3.795
 3866SOL     OW12163   2.159   0.035   3.895
 3866SOL    HW112164   2.208   0.119   3.874
 3866SOL    HW212165   2.221  -0.030   3.940
 3867SOL     OW12166   2.797   0.236   4.204
 3867SOL    HW112167   2.749   0.277   4.126
 3867SOL    HW212168   2.896   0.234   4.185
 3868SOL     OW12169   2.938   0.683   5.188
 3868SOL    HW112170   2.858   0.622   5.191
 3868SOL    HW212171   3.019   0.630   5.164
 3869SOL     OW12172   3.089   1.570   4.517
 3869SOL    HW112173   3.110   1.644   4.452
 3869SOL    HW212174   3.157   1.570   4.590
 3870SOL     OW12175   2.321   1.152   4.465
 3870SOL    HW112176   2.250   1.125   4.530
 3870SOL    HW212177   2.295   1.124   4.372
 3871SOL     OW12178   3.133   1.797   4.315
 3871SOL    HW112179   3.177   1.861   4.251
 3871SOL    HW212180   3.083   1.849   4.385
 3872SOL     OW12181   2.894   0.549   3.740
 3872SOL    HW112182   2.853   0.631   3.701
 3872SOL    HW212183   2.958   0.575   3.813
 3873SOL     OW12184   1.940   0.556   5.110
 3873SOL    HW112185   2.032   0.555   5.069
 3873SOL    HW212186   1.934   0.630   5.177
 3874SOL     OW12187   2.423   0.222   4.871
 3874SOL    HW112188   2.461   0.138   4.908
 3874SOL    HW212189   2.335   0.241   4.915
 3875SOL     OW12190   2.728   0.454   4.366
 3875SOL    HW112191   2.696   0.526   4.304
 3875SOL    HW212192   2.752   0.373   4.313
 3876SOL     OW12193   2.879   0.039   4.477
 3876SOL    HW112194   2.807   0.044   4.408
 3876SOL    HW212195   2.855  -0.030   4.546
 3877SOL     OW12196   3.291   1.173   4.591
 3877SOL    HW112197   3.236   1.089   4.584
 3877SOL    HW212198   3.317   1.202   4.499
 3878SOL     OW12199   3.328   0.590   4.716
 3878SOL    HW112200   3.298   0.495   4.723
 3878SOL    HW212201   3.401   0.606   4.782
 3879SOL     OW12202   3.719   0.833   4.101
 3879SOL    HW112203   3.761   0.769   4.165
 3879SOL    HW212204   3.681   0.782   4.023
 3880SOL     OW12205   2.350   1.385   3.898
 3880SOL    HW112206   2.263   1.370   3.945
 3880SOL    HW212207   2.333   1.411   3.803
 3881SOL     OW12208   3.526   1.280   4.381
 3881SOL    HW112209   3.625   1.288   4.395
 3881SOL    HW212210   3.481   1.364   4.412
 3882SOL     OW12211   3.252   0.575   3.802
 3882SOL    HW112212   3.198   0.554   3.883
 3882SOL    HW212213   3.343   0.534   3.811
 3883SOL     OW12214   2.389   0.256   4.052
 3883SOL    HW112215   2.416   0.197   3.977
 3883SOL    HW212216   2.389   0.351   4.021
 3884SOL     OW12217   3.616   1.223   5.312
 3884SOL    HW112218   3.707   1.184   5.299
 3884SOL    HW212219   3.624   1.319   5.336
 3885SOL     OW12220   2.926   1.347   5.064
 3885SOL    HW112221   2.846   1.324   5.119
 3885SOL    HW212222   3.009   1.321   5.113
 3886SOL     OW12223   3.454   1.629   5.349
 3886SOL    HW112224   3.481   1.663   5.259
 3886SOL    HW212225   3.533   1.591   5.395
 3887SOL     OW12226   2.973   1.195   4.824
 3887SOL    HW112227   2.933   1.239   4.905
 3887SOL    HW212228   2.932   1.232   4.741
 3888SOL     OW12229   3.500   1.099   4.803
 3888SOL    HW112230   3.505   1.180   4.862
 3888SOL    HW212231   3.414   1.101   4.752
 3889SOL     OW12232   2.777   0.089   5.126
 3889SOL    HW112233   2.802   0.069   5.031
 3889SOL    HW212234   2.849   0.145   5.168
 3890SOL     OW12235   2.842   1.116   5.443
 3890SOL    HW112236   2.743   1.122   5.453
 3890SOL    HW212237   2.865   1.036   5.387
 3891SOL     OW12238   2.567   1.050   4.092
 3891SOL    HW112239   2.553   1.057   4.191
 3891SOL    HW212240   2.651   0.999   4.074
 3892SOL     OW12241   2.272   0.813   4.975
 3892SOL    HW112242   2.358   0.825   5.025
 3892SOL    HW212243   2.230   0.726   5.002
 3893SOL     OW12244   3.136   0.386   4.986
 3893SOL    HW112245   3.157   0.460   5.050
 3893SOL    HW212246   3.047   0.403   4.943
 3894SOL     OW12247   1.926   1.564   5.055
 3894SOL    HW112248   1.880   1.646   5.021
 3894SOL    HW212249   2.024   1.583   5.064
 3895SOL     OW12250   2.229   1.100   4.225
 3895SOL    HW112251   2.222   1.183   4.169
 3895SOL    HW212252   2.233   1.020   4.165
 3896SOL     OW12253   2.428   0.537   4.589
 3896SOL    HW112254   2.440   0.603   4.515
 3896SOL    HW212255   2.474   0.571   4.672
 3897SOL     OW12256   3.114   1.348   4.112
 3897SOL    HW112257   3.164   1.425   4.152
 3897SOL    HW212258   3.019   1.350   4.144
 3898SOL     OW12259   3.134   1.445   4.866
 3898SOL    HW112260   3.181   1.458   4.953
 3898SOL    HW212261   3.068   1.371   4.875
 3899SOL     OW12262   3.444   0.639   4.196
 3899SOL    HW112263   3.413   0.700   4.269
 3899SOL    HW212264   3.494   0.691   4.127
 3900SOL     OW12265   2.216   1.510   5.053
 3900SOL    HW112266   2.195   1.466   4.966
 3900SOL    HW212267   2.313   1.536   5.056
 3901SOL     OW12268   2.264   0.751   5.322
 3901SOL    HW112269   2.332   0.806   5.275
 3901SOL    HW212270   2.304   0.663   5.349
 3902SOL     OW12271   3.449   0.779   5.394
 3902SOL    HW112272   3.357   0.817   5.389
 3902SOL    HW212273   3.509   0.826   5.329
 3903SOL     OW12274   2.875   0.105   5.494
 3903SOL    HW112275   2.881   0.190   5.442
 3903SOL    HW212276   2.907   0.029   5.437
 3904SOL     OW12277   2.366   0.050   5.464
 3904SOL    HW112278   2.324  -0.007   5.394
 3904SOL    HW212279   2.300   0.119   5.496
 3905SOL     OW12280   2.435   0.870   4.753
 3905SOL    HW112281   2.479   0.959   4.744
 3905SOL    HW212282   2.372   0.870   4.830
 3906SOL     OW12283   3.222   0.862   4.769
 3906SOL    HW112284   3.147   0.862   4.703
 3906SOL    HW212285   3.259   0.770   4.778
 3907SOL     OW12286   3.071   0.525   3.999
 3907SOL    HW112287   3.084   0.441   4.053
 3907SOL    HW212288   3.042   0.599   4.059
 3908SOL     OW12289   2.169   0.213   4.955
 3908SOL    HW112290   2.146   0.250   5.045
 3908SOL    HW212291   2.139   0.118   4.949
 3909SOL     OW12292   1.899   1.310   5.006
 3909SOL    HW112293   1.952   1.261   5.074
 3909SOL    HW212294   1.921   1.408   5.011
 3910SOL     OW12295   2.594   0.634   4.788
 3910SOL    HW112296   2.653   0.608   4.712
 3910SOL    HW212297   2.566   0.730   4.777
 3911SOL     OW12298   3.590   0.935   5.578
 3911SOL    HW112299   3.544   0.928   5.489
 3911SOL    HW212300   3.528   0.979   5.644
 3912SOL     OW12301   2.169   0.063   4.342
 3912SOL    HW112302   2.158   0.157   4.375
 3912SOL    HW212303   2.164   0.000   4.419
 3913SOL     OW12304   3.484   0.367   4.098
 3913SOL    HW112305   3.486   0.291   4.162
 3913SOL    HW212306   3.436   0.444   4.138
 3914SOL     OW12307   2.885   0.766   4.690
 3914SOL    HW112308   2.900   0.787   4.786
 3914SOL    HW212309   2.855   0.671   4.681
 3915SOL     OW12310   2.842   1.573   5.424
 3915SOL    HW112311   2.822   1.617   5.336
 3915SOL    HW212312   2.881   1.482   5.408
 3916SOL     OW12313   3.721   1.518   5.329
 3916SOL    HW112314   3.735   1.545   5.234
 3916SOL    HW212315   3.804   1.540   5.382
 3917SOL     OW12316   2.212   0.898   5.528
 3917SOL    HW112317   2.288   0.942   5.576
 3917SOL    HW212318   2.247   0.851   5.446
 3918SOL     OW12319   3.402   0.274   3.849
 3918SOL    HW112320   3.341   0.199   3.872
 3918SOL    HW212321   3.424   0.326   3.932
 3919SOL     OW12322   3.165   0.838   3.766
 3919SOL    HW112323   3.199   0.745   3.781
 3919SOL    HW212324   3.183   0.865   3.671
 3920SOL     OW12325   2.930   1.333   4.573
 3920SOL    HW112326   2.937   1.249   4.518
 3920SOL    HW212327   2.992   1.402   4.537
 3921SOL     OW12328   2.181   0.810   4.673
 3921SOL    HW112329   2.274   0.846   4.678
 3921SOL    HW212330   2.175   0.725   4.725
 3922SOL     OW12331   2.201   0.509   4.730
 3922SOL    HW112332   2.149   0.426   4.713
 3922SOL    HW212333   2.278   0.514   4.666
 3923SOL     OW12334   3.000   0.380   5.402
 3923SOL    HW112335   2.955   0.443   5.466
 3923SOL    HW212336   3.093   0.411   5.385
 3924SOL     OW12337   3.022   0.207   5.201
 3924SOL    HW112338   3.022   0.271   5.278
 3924SOL    HW212339   3.050   0.255   5.118
 3925SOL     OW12340   1.870   1.326   3.924
 3925SOL    HW112341   1.777   1.347   3.893
 3925SOL    HW212342   1.880   1.227   3.937
 3926SOL     OW12343   1.950   1.801   4.651
 3926SOL    HW112344   1.908   1.715   4.624
 3926SOL    HW212345   2.044   1.804   4.617
 3927SOL     OW12346   2.366   1.568   4.634
 3927SOL    HW112347   2.432   1.642   4.643
 3927SOL    HW212348   2.410   1.489   4.592
 3928SOL     OW12349   2.864   0.796   4.962
 3928SOL    HW112350   2.905   0.764   5.048
 3928SOL    HW212351   2.768   0.769   4.959
 3929SOL     OW12352   1.902   0.544   4.838
 3929SOL    HW112353   1.987   0.511   4.797
 3929SOL    HW212354   1.915   0.559   4.936
 3930SOL     OW12355   2.051   0.520   5.446
 3930SOL    HW112356   2.110   0.480   5.376
 3930SOL    HW212357   1.993   0.591   5.405
 3931SOL     OW12358   3.231   0.950   5.384
 3931SOL    HW112359   3.270   1.039   5.404
 3931SOL    HW212360   3.241   0.930   5.287
 3932SOL     OW12361   2.677   0.572   4.049
 3932SOL    HW112362   2.684   0.483   4.003
 3932SOL    HW212363   2.583   0.606   4.041
 3933SOL     OW12364   3.519   0.604   4.930
 3933SOL    HW112365   3.481   0.535   4.992
 3933SOL    HW212366   3.601   0.568   4.886
 3934SOL     OW12367   2.114   1.564   5.468
 3934SOL    HW112368   2.084   1.621   5.544
 3934SOL    HW212369   2.107   1.467   5.494
 3935SOL     OW12370   2.533   0.464   4.993
 3935SOL    HW112371   2.499   0.375   4.963
 3935SOL    HW212372   2.559   0.518   4.913
 3936SOL     OW12373   2.792   1.678   5.189
 3936SOL    HW112374   2.768   1.660   5.094
 3936SOL    HW212375   2.822   1.772   5.199
 3937SOL     OW12376   2.335   0.500   3.915
 3937SOL    HW112377   2.396   0.580   3.919
 3937SOL    HW212378   2.240   0.531   3.922
 3938SOL     OW12379   2.021   1.137   5.190
 3938SOL    HW112380   2.043   1.076   5.266
 3938SOL    HW212381   2.031   1.088   5.104
 3939SOL     OW12382   3.209   1.059   4.958
 3939SOL    HW112383   3.233   0.996   4.884
 3939SOL    HW212384   3.119   1.099   4.940
 3940SOL     OW12385   3.164   0.855   4.033
 3940SOL    HW112386   3.078   0.824   4.075
 3940SOL    HW212387   3.160   0.841   3.934
 3941SOL     OW12388   3.621   1.747   4.878
 3941SOL    HW112389   3.682   1.777   4.805
 3941SOL    HW212390   3.583   1.658   4.856
 3942SOL     OW12391   3.114   1.731   4.852
 3942SOL    HW112392   3.198   1.736   4.798
 3942SOL    HW212393   3.091   1.635   4.870
 3943SOL     OW12394   1.945   1.258   4.746
 3943SOL    HW112395   1.940   1.257   4.846
 3943SOL    HW212396   1.862   1.217   4.708
 3944SOL     OW12397   2.550   1.662   5.440
 3944SOL    HW112398   2.494   1.743   5.449
 3944SOL    HW212399   2.602   1.666   5.354
 3945SOL     OW12400   3.588   0.135   4.247
 3945SOL    HW112401   3.661   0.118   4.180
 3945SOL    HW212402   3.557   0.048   4.285
 3946SOL     OW12403   3.250   1.573   4.201
 3946SOL    HW112404   3.317   1.585   4.127
 3946SOL    HW212405   3.210   1.662   4.224
 3947SOL     OW12406   1.992   1.794   5.575
 3947SOL    HW112407   1.951   1.720   5.628
 3947SOL    HW212408   2.056   1.845   5.633
 3948SOL     OW12409   3.142   0.927   4.396
 3948SOL    HW112410   3.202   0.846   4.398
 3948SOL    HW212411   3.182   0.996   4.336
 3949SOL     OW12412   2.692   1.273   5.146
 3949SOL    HW112413   2.687   1.306   5.241
 3949SOL    HW212414   2.606   1.292   5.100
 3950SOL     OW12415   2.534   1.616   3.878
 3950SOL    HW112416   2.543   1.626   3.779
 3950SOL    HW212417   2.494   1.527   3.899
 3951SOL     OW12418   3.512   1.720   5.118
 3951SOL    HW112419   3.565   1.730   5.034
 3951SOL    HW212420   3.485   1.810   5.152
 3952SOL     OW12421   3.703   0.175   4.687
 3952SOL    HW112422   3.742   0.090   4.651
 3952SOL    HW212423   3.605   0.177   4.668
 3953SOL     OW12424   2.125   0.326   4.444
 3953SOL    HW112425   2.046   0.377   4.410
 3953SOL    HW212426   2.116   0.311   4.542
 3954SOL     OW12427   3.056   1.612   3.755
 3954SOL    HW112428   3.062   1.519   3.792
 3954SOL    HW212429   2.997   1.612   3.675
 3955SOL     OW12430   2.684   1.002   5.096
 3955SOL    HW112431   2.724   1.001   5.004
 3955SOL    HW212432   2.694   1.094   5.136
 3956SOL     OW12433   2.778   0.910   4.015
 3956SOL    HW112434   2.841   0.948   3.947
 3956SOL    HW212435   2.818   0.827   4.054
 3957SOL     OW12436   3.366   1.607   3.768
 3957SOL    HW112437   3.274   1.644   3.775
 3957SOL    HW212438   3.404   1.627   3.678
 3958SOL     OW12439   2.234   1.288   5.214
 3958SOL    HW112440   2.221   1.381   5.180
 3958SOL    HW212441   2.150   1.236   5.201
 3959SOL     OW12442   3.476   1.292   5.013
 3959SOL    HW112443   3.536   1.295   5.093
 3959SOL    HW212444   3.401   1.356   5.026
 3960SOL     OW12445   2.901   1.098   4.420
 3960SOL    HW112446   2.831   1.051   4.474
 3960SOL    HW212447   2.960   1.030   4.377
 3961SOL     OW12448   2.876   0.236   4.695
 3961SOL    HW112449   2.868   0.200   4.602
 3961SOL    HW212450   2.874   0.160   4.760
 3962SOL     OW12451   2.452   1.487   4.215
 3962SOL    HW112452   2.494   1.429   4.145
 3962SOL    HW212453   2.408   1.566   4.171
 3963SOL     OW12454   3.571   0.385   5.105
 3963SOL    HW112455   3.644   0.454   5.109
 3963SOL    HW212456   3.599   0.310   5.046
 3964SOL     OW12457   2.117   1.348   4.014
 3964SOL    HW112458   2.021   1.349   3.987
 3964SOL    HW212459   2.129   1.401   4.098
 3965SOL     OW12460   1.967   1.013   5.450
 3965SOL    HW112461   1.890   0.980   5.504
 3965SOL    HW212462   2.052   0.983   5.492
 3966SOL     OW12463   2.534   0.203   5.213
 3966SOL    HW112464   2.624   0.187   5.173
 3966SOL    HW212465   2.542   0.208   5.312
 3967SOL     OW12466   1.937   0.345   3.757
 3967SOL    HW112467   1.845   0.317   3.728
 3967SOL    HW212468   1.968   0.422   3.701
 3968SOL     OW12469   3.302   0.856   5.122
 3968SOL    HW112470   3.245   0.908   5.059
 3968SOL    HW212471   3.398   0.868   5.098
 3969SOL     OW12472   1.934   0.166   4.042
 3969SOL    HW112473   1.917   0.249   3.988
 3969SOL    HW212474   2.024   0.129   4.020
 3970SOL     OW12475   3.045   1.335   3.843
 3970SOL    HW112476   2.946   1.324   3.845
 3970SOL    HW212477   3.079   1.350   3.936
 3971SOL     OW12478   2.475   0.842   5.155
 3971SOL    HW112479   2.531   0.923   5.138
 3971SOL    HW212480   2.534   0.762   5.158
 3972SOL     OW12481   3.355   1.767   4.683
 3972SOL    HW112482   3.388   1.831   4.614
 3972SOL    HW212483   3.421   1.761   4.758
 3973SOL     OW12484   2.578   0.565   5.432
 3973SOL    HW112485   2.597   0.630   5.506
 3973SOL    HW212486   2.638   0.485   5.441
 3974SOL     OW12487   3.312   1.220   5.357
 3974SOL    HW112488   3.303   1.210   5.456
 3974SOL    HW212489   3.408   1.213   5.331
 3975SOL     OW12490   2.252   1.741   5.284
 3975SOL    HW112491   2.161   1.782   5.282
 3975SOL    HW212492   2.245   1.647   5.316
 3976SOL     OW12493   3.536   0.883   4.978
 3976SOL    HW112494   3.509   0.794   4.941
 3976SOL    HW212495   3.537   0.951   4.905
 3977SOL     OW12496   3.087   0.325   4.173
 3977SOL    HW112497   3.152   0.251   4.162
 3977SOL    HW212498   3.107   0.375   4.257
 3978SOL     OW12499   2.456   0.745   4.376
 3978SOL    HW112500   2.506   0.830   4.357
 3978SOL    HW212501   2.368   0.747   4.328
 3979SOL     OW12502   3.639   0.342   5.366
 3979SOL    HW112503   3.622   0.373   5.272
 3979SOL    HW212504   3.555   0.305   5.404
 3980SOL     OW12505   3.592   0.934   5.241
 3980SOL    HW112506   3.630   1.025   5.256
 3980SOL    HW212507   3.584   0.917   5.142
 3981SOL     OW12508   2.721   1.374   3.740
 3981SOL    HW112509   2.675   1.389   3.828
 3981SOL    HW212510   2.765   1.459   3.710
 3982SOL     OW12511   2.523   1.790   4.677
 3982SOL    HW112512   2.477   1.878   4.664
 3982SOL    HW212513   2.622   1.802   4.670
 3983SOL     OW12514   2.721   0.956   4.585
 3983SOL    HW112515   2.775   0.887   4.633
 3983SOL    HW212516   2.689   1.025   4.651
 3984SOL     OW12517   2.945   0.984   3.811
 3984SOL    HW112518   2.922   1.037   3.729
 3984SOL    HW212519   3.026   0.928   3.792
 3985SOL     OW12520   3.723   1.569   4.575
 3985SOL    HW112521   3.652   1.557   4.505
 3985SOL    HW212522   3.724   1.490   4.635
 3986SOL     OW12523   2.083   1.314   5.568
 3986SOL    HW112524   2.018   1.241   5.547
 3986SOL    HW212525   2.087   1.328   5.666
 3987SOL     OW12526   1.941   1.240   4.377
 3987SOL    HW112527   1.940   1.193   4.465
 3987SOL    HW212528   2.023   1.212   4.326
 3988SOL     OW12529   2.534   1.391   5.348
 3988SOL    HW112530   2.456   1.341   5.386
 3988SOL    HW212531   2.531   1.486   5.379
 3989SOL     OW12532   3.686   0.192   4.951
 3989SOL    HW112533   3.682   0.102   4.995
 3989SOL    HW212534   3.689   0.181   4.852
 3990SOL     OW12535   2.290   0.424   4.244
 3990SOL    HW112536   2.320   0.352   4.182
 3990SOL    HW212537   2.251   0.384   4.327
 3991SOL     OW12538   3.567   1.487   4.828
 3991SOL    HW112539   3.474   1.462   4.801
 3991SOL    HW212540   3.593   1.437   4.910
 3992SOL     OW12541   2.179   0.547   5.004
 3992SOL    HW112542   2.217   0.488   5.076
 3992SOL    HW212543   2.219   0.521   4.916
 3993SOL     OW12544   2.674   1.586   4.411
 3993SOL    HW112545   2.706   1.596   4.317
 3993SOL    HW212546   2.595   1.524   4.413
 3994SOL     OW12547   3.286   0.214   4.836
 3994SOL    HW112548   3.338   0.149   4.891
 3994SOL    HW212549   3.237   0.277   4.897
 3995SOL     OW12550   2.863   0.034   4.878
 3995SOL    HW112551   2.800  -0.038   4.847
 3995SOL    HW212552   2.956  -0.002   4.878
 3996SOL     OW12553   2.632   1.330   4.025
 3996SOL    HW112554   2.586   1.243   4.042
 3996SOL    HW212555   2.723   1.327   4.066
 3997SOL     OW12556   2.480   1.567   5.008
 3997SOL    HW112557   2.475   1.649   5.065
 3997SOL    HW212558   2.569   1.564   4.963
 3998SOL     OW12559   3.214   0.052   3.892
 3998SOL    HW112560   3.249   0.011   3.808
 3998SOL    HW212561   3.124   0.014   3.912
 3999SOL     OW12562   3.162   0.453   4.415
 3999SOL    HW112563   3.103   0.533   4.419
 3999SOL    HW212564   3.177   0.418   4.508
 4000SOL     OW12565   3.455   0.221   4.606
 4000SOL    HW112566   3.371   0.220   4.660
 4000SOL    HW212567   3.457   0.304   4.550
 4001SOL     OW12568   1.901   1.077   4.024
 4001SOL    HW112569   2.000   1.066   4.015
 4001SOL    HW212570   1.861   0.991   4.056
 4002SOL     OW12571   2.737   1.646   4.061
 4002SOL    HW112572   2.660   1.611   4.007
 4002SOL    HW212573   2.705   1.717   4.123
 4003SOL     OW12574   2.092   0.628   5.699
 4003SOL    HW112575   1.999   0.626   5.736
 4003SOL    HW212576   2.093   0.589   5.607
 4004SOL     OW12577   2.087   0.275   6.582
 4004SOL    HW112578   2.122   0.258   6.674
 4004SOL    HW212579   1.999   0.230   6.570
 4005SOL     OW12580   1.881   0.368   6.233
 4005SOL    HW112581   1.799   0.411   6.272
 4005SOL    HW212582   1.853   0.295   6.170
 4006SOL     OW12583   3.417   1.511   6.289
 4006SOL    HW112584   3.360   1.495   6.370
 4006SOL    HW212585   3.358   1.521   6.209
 4007SOL     OW12586   2.997   0.703   6.303
 4007SOL    HW112587   3.054   0.781   6.278
 4007SOL    HW212588   2.937   0.729   6.379
 4008SOL     OW12589   3.617   0.607   5.817
 4008SOL    HW112590   3.605   0.594   5.718
 4008SOL    HW212591   3.587   0.526   5.866
 4009SOL     OW12592   2.630   1.144   6.609
 4009SOL    HW112593   2.552   1.161   6.669
 4009SOL    HW212594   2.664   1.231   6.573
 4010SOL     OW12595   2.712   0.798   7.409
 4010SOL    HW112596   2.708   0.874   7.474
 4010SOL    HW212597   2.734   0.834   7.318
 4011SOL     OW12598   2.547   1.012   6.251
 4011SOL    HW112599   2.616   0.996   6.321
 4011SOL    HW212600   2.474   1.069   6.289
 4012SOL     OW12601   2.548   1.161   7.389
 4012SOL    HW112602   2.608   1.240   7.403
 4012SOL    HW212603   2.462   1.192   7.348
 4013SOL     OW12604   3.322   1.505   6.925
 4013SOL    HW112605   3.346   1.599   6.951
 4013SOL    HW212606   3.306   1.451   7.007
 4014SOL     OW12607   2.300   0.392   7.085
 4014SOL    HW112608   2.382   0.336   7.094
 4014SOL    HW212609   2.219   0.334   7.089
 4015SOL     OW12610   3.465   0.447   6.323
 4015SOL    HW112611   3.391   0.493   6.273
 4015SOL    HW212612   3.516   0.515   6.376
 4016SOL     OW12613   2.989   1.341   7.276
 4016SOL    HW112614   3.036   1.341   7.364
 4016SOL    HW212615   2.941   1.254   7.265
 4017SOL     OW12616   2.102   1.091   6.472
 4017SOL    HW112617   2.116   1.007   6.524
 4017SOL    HW212618   2.047   1.155   6.527
 4018SOL     OW12619   2.468   0.964   5.709
 4018SOL    HW112620   2.475   1.048   5.655
 4018SOL    HW212621   2.514   0.977   5.797
 4019SOL     OW12622   3.456   0.114   7.066
 4019SOL    HW112623   3.438   0.181   6.994
 4019SOL    HW212624   3.453   0.160   7.155
 4020SOL     OW12625   1.984   0.643   6.149
 4020SOL    HW112626   1.939   0.555   6.166
 4020SOL    HW212627   1.983   0.697   6.233
 4021SOL     OW12628   3.704   1.767   5.945
 4021SOL    HW112629   3.758   1.738   6.025
 4021SOL    HW212630   3.734   1.857   5.916
 4022SOL     OW12631   1.889   1.596   5.703
 4022SOL    HW112632   1.870   1.500   5.724
 4022SOL    HW212633   1.856   1.654   5.778
 4023SOL     OW12634   3.551   0.922   6.198
 4023SOL    HW112635   3.646   0.893   6.206
 4023SOL    HW212636   3.543   0.987   6.123
 4024SOL     OW12637   3.503   1.108   6.018
 4024SOL    HW112638   3.589   1.110   5.966
 4024SOL    HW212639   3.517   1.155   6.106
 4025SOL     OW12640   1.975   0.737   7.183
 4025SOL    HW112641   2.063   0.724   7.228
 4025SOL    HW212642   1.962   0.834   7.161
 4026SOL     OW12643   2.475   1.365   6.312
 4026SOL    HW112644   2.426   1.278   6.321
 4026SOL    HW212645   2.452   1.408   6.225
 4027SOL     OW12646   3.155   1.228   7.009
 4027SOL    HW112647   3.192   1.155   6.951
 4027SOL    HW212648   3.207   1.233   7.094
 4028SOL     OW12649   2.671   0.004   6.088
 4028SOL    HW112650   2.711   0.095   6.079
 4028SOL    HW212651   2.571   0.012   6.094
 4029SOL     OW12652   2.059   0.976   6.850
 4029SOL    HW112653   2.148   0.931   6.836
 4029SOL    HW212654   1.986   0.911   6.831
 4030SOL     OW12655   3.387   0.999   5.776
 4030SOL    HW112656   3.324   0.923   5.789
 4030SOL    HW212657   3.435   1.017   5.862
 4031SOL     OW12658   3.049   1.792   7.202
 4031SOL    HW112659   3.073   1.852   7.126
 4031SOL    HW212660   3.056   1.697   7.172
 4032SOL     OW12661   2.179   0.251   7.387
 4032SOL    HW112662   2.250   0.322   7.393
 4032SOL    HW212663   2.091   0.290   7.415
 4033SOL     OW12664   3.328   1.417   6.539
 4033SOL    HW112665   3.269   1.423   6.619
 4033SOL    HW212666   3.313   1.329   6.493
 4034SOL     OW12667   3.529   1.714   6.158
 4034SOL    HW112668   3.488   1.691   6.070
 4034SOL    HW212669   3.511   1.640   6.223
 4035SOL     OW12670   2.460   0.729   5.856
 4035SOL    HW112671   2.484   0.798   5.788
 4035SOL    HW212672   2.382   0.762   5.910
 4036SOL     OW12673   3.143   0.345   6.530
 4036SOL    HW112674   3.057   0.295   6.517
 4036SOL    HW212675   3.205   0.291   6.586
 4037SOL     OW12676   3.438   1.662   5.893
 4037SOL    HW112677   3.527   1.708   5.896
 4037SOL    HW212678   3.417   1.638   5.798
 4038SOL     OW12679   2.669   0.605   7.051
 4038SOL    HW112680   2.622   0.602   7.140
 4038SOL    HW212681   2.618   0.550   6.985
 4039SOL     OW12682   3.256   0.469   7.260
 4039SOL    HW112683   3.236   0.512   7.348
 4039SOL    HW212684   3.334   0.407   7.269
 4040SOL     OW12685   2.835   0.890   7.158
 4040SOL    HW112686   2.881   0.806   7.129
 4040SOL    HW212687   2.779   0.924   7.083
 4041SOL     OW12688   2.853   0.410   6.828
 4041SOL    HW112689   2.776   0.444   6.882
 4041SOL    HW212690   2.819   0.359   6.749
 4042SOL     OW12691   2.903   0.701   6.015
 4042SOL    HW112692   2.929   0.697   6.111
 4042SOL    HW212693   2.818   0.650   6.001
 4043SOL     OW12694   1.938   0.811   6.375
 4043SOL    HW112695   2.037   0.799   6.384
 4043SOL    HW212696   1.914   0.906   6.396
 4044SOL     OW12697   2.727   0.348   5.781
 4044SOL    HW112698   2.786   0.411   5.732
 4044SOL    HW212699   2.746   0.254   5.752
 4045SOL     OW12700   3.581   0.585   7.417
 4045SOL    HW112701   3.555   0.674   7.381
 4045SOL    HW212702   3.579   0.517   7.344
 4046SOL     OW12703   3.224   1.144   6.131
 4046SOL    HW112704   3.307   1.115   6.083
 4046SOL    HW212705   3.175   1.211   6.075
 4047SOL     OW12706   2.412   0.196   6.471
 4047SOL    HW112707   2.407   0.191   6.571
 4047SOL    HW212708   2.414   0.292   6.442
 4048SOL     OW12709   2.870   1.456   6.063
 4048SOL    HW112710   2.824   1.528   6.011
 4048SOL    HW212711   2.866   1.476   6.161
 4049SOL     OW12712   3.657   1.066   6.459
 4049SOL    HW112713   3.595   1.051   6.383
 4049SOL    HW212714   3.605   1.077   6.544
 4050SOL     OW12715   3.089   1.550   7.092
 4050SOL    HW112716   3.095   1.473   7.156
 4050SOL    HW212717   3.037   1.524   7.012
 4051SOL     OW12718   2.183   0.943   5.828
 4051SOL    HW112719   2.265   0.982   5.786
 4051SOL    HW212720   2.156   0.861   5.779
 4052SOL     OW12721   3.320   0.735   6.314
 4052SOL    HW112722   3.315   0.670   6.389
 4052SOL    HW212723   3.400   0.794   6.327
 4053SOL     OW12724   2.973   1.776   5.823
 4053SOL    HW112725   2.913   1.714   5.873
 4053SOL    HW212726   3.004   1.732   5.738
 4054SOL     OW12727   2.064   0.285   7.084
 4054SOL    HW112728   1.984   0.345   7.071
 4054SOL    HW212729   2.054   0.236   7.170
 4055SOL     OW12730   3.494   1.377   5.667
 4055SOL    HW112731   3.462   1.471   5.657
 4055SOL    HW212732   3.418   1.314   5.655
 4056SOL     OW12733   3.262   0.107   6.012
 4056SOL    HW112734   3.238   0.070   5.922
 4056SOL    HW212735   3.361   0.123   6.016
 4057SOL     OW12736   2.111   1.785   6.827
 4057SOL    HW112737   2.168   1.720   6.877
 4057SOL    HW212738   2.095   1.752   6.734
 4058SOL     OW12739   2.802   1.698   6.490
 4058SOL    HW112740   2.882   1.641   6.511
 4058SOL    HW212741   2.753   1.658   6.413
 4059SOL     OW12742   2.244   0.700   6.066
 4059SOL    HW112743   2.289   0.610   6.063
 4059SOL    HW212744   2.150   0.689   6.099
 4060SOL     OW12745   3.409   0.222   7.315
 4060SOL    HW112746   3.404   0.259   7.407
 4060SOL    HW212747   3.337   0.153   7.303
 4061SOL     OW12748   2.476   0.122   5.703
 4061SOL    HW112749   2.574   0.100   5.710
 4061SOL    HW212750   2.445   0.105   5.610
 4062SOL     OW12751   2.643   0.264   7.335
 4062SOL    HW112752   2.710   0.203   7.378
 4062SOL    HW212753   2.570   0.283   7.400
 4063SOL     OW12754   2.750   1.514   6.781
 4063SOL    HW112755   2.727   1.489   6.687
 4063SOL    HW212756   2.811   1.445   6.820
 4064SOL     OW12757   3.213   0.590   7.019
 4064SOL    HW112758   3.241   0.547   7.104
 4064SOL    HW212759   3.238   0.686   7.020
 4065SOL     OW12760   2.665   1.402   6.510
 4065SOL    HW112761   2.755   1.416   6.468
 4065SOL    HW212762   2.594   1.404   6.439
 4066SOL     OW12763   2.784   0.503   6.485
 4066SOL    HW112764   2.759   0.494   6.389
 4066SOL    HW212765   2.832   0.421   6.516
 4067SOL     OW12766   2.401   0.064   6.098
 4067SOL    HW112767   2.320   0.065   6.156
 4067SOL    HW212768   2.404   0.147   6.043
 4068SOL     OW12769   3.296   1.188   5.627
 4068SOL    HW112770   3.328   1.112   5.684
 4068SOL    HW212771   3.204   1.215   5.657
 4069SOL     OW12772   2.159   0.035   5.757
 4069SOL    HW112773   2.208   0.119   5.736
 4069SOL    HW212774   2.221  -0.030   5.802
 4070SOL     OW12775   2.797   0.236   6.066
 4070SOL    HW112776   2.749   0.277   5.988
 4070SOL    HW212777   2.896   0.234   6.047
 4071SOL     OW12778   2.938   0.683   7.050
 4071SOL    HW112779   2.858   0.622   7.053
 4071SOL    HW212780   3.019   0.630   7.026
 4072SOL     OW12781   3.089   1.570   6.379
 4072SOL    HW112782   3.110   1.644   6.314
 4072SOL    HW212783   3.157   1.570   6.452
 4073SOL     OW12784   2.321   1.152   6.327
 4073SOL    HW112785   2.250   1.125   6.392
 4073SOL    HW212786   2.295   1.124   6.234
 4074SOL     OW12787   3.133   1.797   6.177
 4074SOL    HW112788   3.177   1.861   6.113
 4074SOL    HW212789   3.083   1.849   6.247
 4075SOL     OW12790   2.894   0.549   5.602
 4075SOL    HW112791   2.853   0.631   5.563
 4075SOL    HW212792   2.958   0.575   5.675
 4076SOL     OW12793   1.940   0.556   6.972
 4076SOL    HW112794   2.032   0.555   6.931
 4076SOL    HW212795   1.934   0.630   7.039
 4077SOL     OW12796   2.423   0.222   6.733
 4077SOL    HW112797   2.461   0.138   6.770
 4077SOL    HW212798   2.335   0.241   6.777
 4078SOL     OW12799   2.728   0.454   6.228
 4078SOL    HW112800   2.696   0.526   6.166
 4078SOL    HW212801   2.752   0.373   6.175
 4079SOL     OW12802   2.879   0.039   6.339
 4079SOL    HW112803   2.807   0.044   6.270
 4079SOL    HW212804   2.855  -0.030   6.408
 4080SOL     OW12805   3.291   1.173   6.453
 4080SOL    HW112806   3.236   1.089   6.446
 4080SOL    HW212807   3.317   1.202   6.361
 4081SOL     OW12808   3.328   0.590   6.578
 4081SOL    HW112809   3.298   0.495   6.585
 4081SOL    HW212810   3.401   0.606   6.644
 4082SOL     OW12811   3.719   0.833   5.963
 4082SOL    HW112812   3.761   0.769   6.027
 4082SOL    HW212813   3.681   0.782   5.885
 4083SOL     OW12814   2.350   1.385   5.760
 4083SOL    HW112815   2.263   1.370   5.807
 4083SOL    HW212816   2.333   1.411   5.665
 4084SOL     OW12817   3.526   1.280   6.243
 4084SOL    HW112818   3.625   1.288   6.257
 4084SOL    HW212819   3.481   1.364   6.274
 4085SOL     OW12820   3.252   0.575   5.664
 4085SOL    HW112821   3.198   0.554   5.745
 4085SOL    HW212822   3.343   0.534   5.673
 4086SOL     OW12823   2.389   0.256   5.914
 4086SOL    HW112824   2.416   0.197   5.839
 4086SOL    HW212825   2.389   0.351   5.883
 4087SOL     OW12826   3.616   1.223   7.174
 4087SOL    HW112827   3.707   1.184   7.161
 4087SOL    HW212828   3.624   1.319   7.198
 4088SOL     OW12829   2.926   1.347   6.926
 4088SOL    HW112830   2.846   1.324   6.981
 4088SOL    HW212831   3.009   1.321   6.975
 4089SOL     OW12832   3.454   1.629   7.211
 4089SOL    HW112833   3.481   1.663   7.121
 4089SOL    HW212834   3.533   1.591   7.257
 4090SOL     OW12835   2.973   1.195   6.686
 4090SOL    HW112836   2.933   1.239   6.767
 4090SOL    HW212837   2.932   1.232   6.603
 4091SOL     OW12838   3.500   1.099   6.665
 4091SOL    HW112839   3.505   1.180   6.724
 4091SOL    HW212840   3.414   1.101   6.614
 4092SOL     OW12841   2.777   0.089   6.988
 4092SOL    HW112842   2.802   0.069   6.893
 4092SOL    HW212843   2.849   0.145   7.030
 4093SOL     OW12844   2.842   1.116   7.305
 4093SOL    HW112845   2.743   1.122   7.315
 4093SOL    HW212846   2.865   1.036   7.249
 4094SOL     OW12847   2.567   1.050   5.954
 4094SOL    HW112848   2.553   1.057   6.053
 4094SOL    HW212849   2.651   0.999   5.936
 4095SOL     OW12850   2.272   0.813   6.837
 4095SOL    HW112851   2.358   0.825   6.887
 4095SOL    HW212852   2.230   0.726   6.864
 4096SOL     OW12853   3.136   0.386   6.848
 4096SOL    HW112854   3.157   0.460   6.912
 4096SOL    HW212855   3.047   0.403   6.805
 4097SOL     OW12856   2.229   1.100   6.087
 4097SOL    HW112857   2.222   1.183   6.031
 4097SOL    HW212858   2.233   1.020   6.027
 4098SOL     OW12859   2.428   0.537   6.451
 4098SOL    HW112860   2.440   0.603   6.377
 4098SOL    HW212861   2.474   0.571   6.534
 4099SOL     OW12862   3.114   1.348   5.974
 4099SOL    HW112863   3.164   1.425   6.014
 4099SOL    HW212864   3.019   1.350   6.006
 4100SOL     OW12865   3.134   1.445   6.728
 4100SOL    HW112866   3.181   1.458   6.815
 4100SOL    HW212867   3.068   1.371   6.737
 4101SOL     OW12868   3.444   0.639   6.058
 4101SOL    HW112869   3.413   0.700   6.131
 4101SOL    HW212870   3.494   0.691   5.989
 4102SOL     OW12871   2.264   0.751   7.184
 4102SOL    HW112872   2.332   0.806   7.137
 4102SOL    HW212873   2.304   0.663   7.211
 4103SOL     OW12874   3.449   0.779   7.256
 4103SOL    HW112875   3.357   0.817   7.251
 4103SOL    HW212876   3.509   0.826   7.191
 4104SOL     OW12877   2.875   0.105   7.356
 4104SOL    HW112878   2.881   0.190   7.304
 4104SOL    HW212879   2.907   0.029   7.299
 4105SOL     OW12880   2.366   0.050   7.326
 4105SOL    HW112881   2.324  -0.007   7.256
 4105SOL    HW212882   2.300   0.119   7.358
 4106SOL     OW12883   2.435   0.870   6.615
 4106SOL    HW112884   2.479   0.959   6.606
 4106SOL    HW212885   2.372   0.870   6.692
 4107SOL     OW12886   3.222   0.862   6.631
 4107SOL    HW112887   3.147   0.862   6.565
 4107SOL    HW212888   3.259   0.770   6.640
 4108SOL     OW12889   3.071   0.525   5.861
 4108SOL    HW112890   3.084   0.441   5.915
 4108SOL    HW212891   3.042   0.599   5.921
 4109SOL     OW12892   2.169   0.213   6.817
 4109SOL    HW112893   2.146   0.250   6.907
 4109SOL    HW212894   2.139   0.118   6.811
 4110SOL     OW12895   2.594   0.634   6.650
 4110SOL    HW112896   2.653   0.608   6.574
 4110SOL    HW212897   2.566   0.730   6.639
 4111SOL     OW12898   3.590   0.935   7.440
 4111SOL    HW112899   3.544   0.928   7.351
 4111SOL    HW212900   3.528   0.979   7.506
 4112SOL     OW12901   2.169   0.063   6.204
 4112SOL    HW112902   2.158   0.157   6.237
 4112SOL    HW212903   2.164   0.000   6.281
 4113SOL     OW12904   3.484   0.367   5.960
 4113SOL    HW112905   3.486   0.291   6.024
 4113SOL    HW212906   3.436   0.444   6.000
 4114SOL     OW12907   2.885   0.766   6.552
 4114SOL    HW112908   2.900   0.787   6.648
 4114SOL    HW212909   2.855   0.671   6.543
 4115SOL     OW12910   2.842   1.573   7.286
 4115SOL    HW112911   2.822   1.617   7.198
 4115SOL    HW212912   2.881   1.482   7.270
 4116SOL     OW12913   3.721   1.518   7.191
 4116SOL    HW112914   3.735   1.545   7.096
 4116SOL    HW212915   3.804   1.540   7.244
 4117SOL     OW12916   2.212   0.898   7.390
 4117SOL    HW112917   2.288   0.942   7.438
 4117SOL    HW212918   2.247   0.851   7.308
 4118SOL     OW12919   3.402   0.274   5.711
 4118SOL    HW112920   3.341   0.199   5.734
 4118SOL    HW212921   3.424   0.326   5.794
 4119SOL     OW12922   3.165   0.838   5.628
 4119SOL    HW112923   3.199   0.745   5.643
 4119SOL    HW212924   3.183   0.865   5.533
 4120SOL     OW12925   2.930   1.333   6.435
 4120SOL    HW112926   2.937   1.249   6.380
 4120SOL    HW212927   2.992   1.402   6.399
 4121SOL     OW12928   2.181   0.810   6.535
 4121SOL    HW112929   2.274   0.846   6.540
 4121SOL    HW212930   2.175   0.725   6.587
 4122SOL     OW12931   2.201   0.509   6.592
 4122SOL    HW112932   2.149   0.426   6.575
 4122SOL    HW212933   2.278   0.514   6.528
 4123SOL     OW12934   3.000   0.380   7.264
 4123SOL    HW112935   2.955   0.443   7.328
 4123SOL    HW212936   3.093   0.411   7.247
 4124SOL     OW12937   3.022   0.207   7.063
 4124SOL    HW112938   3.022   0.271   7.140
 4124SOL    HW212939   3.050   0.255   6.980
 4125SOL     OW12940   1.870   1.326   5.786
 4125SOL    HW112941   1.777   1.347   5.755
 4125SOL    HW212942   1.880   1.227   5.799
 4126SOL     OW12943   2.864   0.796   6.824
 4126SOL    HW112944   2.905   0.764   6.910
 4126SOL    HW212945   2.768   0.769   6.821
 4127SOL     OW12946   1.902   0.544   6.700
 4127SOL    HW112947   1.987   0.511   6.659
 4127SOL    HW212948   1.915   0.559   6.798
 4128SOL     OW12949   2.051   0.520   7.308
 4128SOL    HW112950   2.110   0.480   7.238
 4128SOL    HW212951   1.993   0.591   7.267
 4129SOL     OW12952   3.231   0.950   7.246
 4129SOL    HW112953   3.270   1.039   7.266
 4129SOL    HW212954   3.241   0.930   7.149
 4130SOL     OW12955   2.677   0.572   5.911
 4130SOL    HW112956   2.684   0.483   5.865
 4130SOL    HW212957   2.583   0.606   5.903
 4131SOL     OW12958   3.519   0.604   6.792
 4131SOL    HW112959   3.481   0.535   6.854
 4131SOL    HW212960   3.601   0.568   6.748
 4132SOL     OW12961   2.533   0.464   6.855
 4132SOL    HW112962   2.499   0.375   6.825
 4132SOL    HW212963   2.559   0.518   6.775
 4133SOL     OW12964   2.792   1.678   7.051
 4133SOL    HW112965   2.768   1.660   6.956
 4133SOL    HW212966   2.822   1.772   7.061
 4134SOL     OW12967   2.335   0.500   5.777
 4134SOL    HW112968   2.396   0.580   5.781
 4134SOL    HW212969   2.240   0.531   5.784
 4135SOL     OW12970   2.021   1.137   7.052
 4135SOL    HW112971   2.043   1.076   7.128
 4135SOL    HW212972   2.031   1.088   6.966
 4136SOL     OW12973   3.209   1.059   6.820
 4136SOL    HW112974   3.233   0.996   6.746
 4136SOL    HW212975   3.119   1.099   6.802
 4137SOL     OW12976   3.164   0.855   5.895
 4137SOL    HW112977   3.078   0.824   5.937
 4137SOL    HW212978   3.160   0.841   5.796
 4138SOL     OW12979   3.621   1.747   6.740
 4138SOL    HW112980   3.682   1.777   6.667
 4138SOL    HW212981   3.583   1.658   6.718
 4139SOL     OW12982   3.114   1.731   6.714
 4139SOL    HW112983   3.198   1.736   6.660
 4139SOL    HW212984   3.091   1.635   6.732
 4140SOL     OW12985   3.588   0.135   6.109
 4140SOL    HW112986   3.661   0.118   6.042
 4140SOL    HW212987   3.557   0.048   6.147
 4141SOL     OW12988   3.250   1.573   6.063
 4141SOL    HW112989   3.317   1.585   5.989
 4141SOL    HW212990   3.210   1.662   6.086
 4142SOL     OW12991   3.142   0.927   6.258
 4142SOL    HW112992   3.202   0.846   6.260
 4142SOL    HW212993   3.182   0.996   6.198
 4143SOL     OW12994   2.692   1.273   7.008
 4143SOL    HW112995   2.687   1.306   7.103
 4143SOL    HW212996   2.606   1.292   6.962
 4144SOL     OW12997   2.534   1.616   5.740
 4144SOL    HW112998   2.543   1.626   5.641
 4144SOL    HW212999   2.494   1.527   5.761
 4145SOL     OW13000   3.512   1.720   6.980
 4145SOL    HW113001   3.565   1.730   6.896
 4145SOL    HW213002   3.485   1.810   7.014
 4146SOL     OW13003   3.703   0.175   6.549
 4146SOL    HW113004   3.742   0.090   6.513
 4146SOL    HW213005   3.605   0.177   6.530
 4147SOL     OW13006   2.125   0.326   6.306
 4147SOL    HW113007   2.046   0.377   6.272
 4147SOL    HW213008   2.116   0.311   6.404
 4148SOL     OW13009   3.056   1.612   5.617
 4148SOL    HW113010   3.062   1.519   5.654
 4148SOL    HW213011   2.997   1.612   5.537
 4149SOL     OW13012   2.684   1.002   6.958
 4149SOL    HW113013   2.724   1.001   6.866
 4149SOL    HW213014   2.694   1.094   6.998
 4150SOL     OW13015   2.778   0.910   5.877
 4150SOL    HW113016   2.841   0.948   5.809
 4150SOL    HW213017   2.818   0.827   5.916
 4151SOL     OW13018   3.366   1.607   5.630
 4151SOL    HW113019   3.274   1.644   5.637
 4151SOL    HW213020   3.404   1.627   5.540
 4152SOL     OW13021   3.476   1.292   6.875
 4152SOL    HW113022   3.536   1.295   6.955
 4152SOL    HW213023   3.401   1.356   6.888
 4153SOL     OW13024   2.901   1.098   6.282
 4153SOL    HW113025   2.831   1.051   6.336
 4153SOL    HW213026   2.960   1.030   6.239
 4154SOL     OW13027   2.876   0.236   6.557
 4154SOL    HW113028   2.868   0.200   6.464
 4154SOL    HW213029   2.874   0.160   6.622
 4155SOL     OW13030   2.452   1.487   6.077
 4155SOL    HW113031   2.494   1.429   6.007
 4155SOL    HW213032   2.408   1.566   6.033
 4156SOL     OW13033   3.571   0.385   6.967
 4156SOL    HW113034   3.644   0.454   6.971
 4156SOL    HW213035   3.599   0.310   6.908
 4157SOL     OW13036   2.117   1.348   5.876
 4157SOL    HW113037   2.021   1.349   5.849
 4157SOL    HW213038   2.129   1.401   5.960
 4158SOL     OW13039   1.967   1.013   7.312
 4158SOL    HW113040   1.890   0.980   7.366
 4158SOL    HW213041   2.052   0.983   7.354
 4159SOL     OW13042   2.534   0.203   7.075
 4159SOL    HW113043   2.624   0.187   7.035
 4159SOL    HW213044   2.542   0.208   7.174
 4160SOL     OW13045   1.937   0.345   5.619
 4160SOL    HW113046   1.845   0.317   5.590
 4160SOL    HW213047   1.968   0.422   5.563
 4161SOL     OW13048   3.302   0.856   6.984
 4161SOL    HW113049   3.245   0.908   6.921
 4161SOL    HW213050   3.398   0.868   6.960
 4162SOL     OW13051   1.934   0.166   5.904
 4162SOL    HW113052   1.917   0.249   5.850
 4162SOL    HW213053   2.024   0.129   5.882
 4163SOL     OW13054   3.045   1.335   5.705
 4163SOL    HW113055   2.946   1.324   5.707
 4163SOL    HW213056   3.079   1.350   5.798
 4164SOL     OW13057   2.475   0.842   7.017
 4164SOL    HW113058   2.531   0.923   7.000
 4164SOL    HW213059   2.534   0.762   7.020
 4165SOL     OW13060   3.355   1.767   6.545
 4165SOL    HW113061   3.388   1.831   6.476
 4165SOL    HW213062   3.421   1.761   6.620
 4166SOL     OW13063   2.578   0.565   7.294
 4166SOL    HW113064   2.597   0.630   7.368
 4166SOL    HW213065   2.638   0.485   7.303
 4167SOL     OW13066   3.312   1.220   7.219
 4167SOL    HW113067   3.303   1.210   7.318
 4167SOL    HW213068   3.408   1.213   7.193
 4168SOL     OW13069   3.536   0.883   6.840
 4168SOL    HW113070   3.509   0.794   6.803
 4168SOL    HW213071   3.537   0.951   6.767
 4169SOL     OW13072   3.087   0.325   6.035
 4169SOL    HW113073   3.152   0.251   6.024
 4169SOL    HW213074   3.107   0.375   6.119
 4170SOL     OW13075   2.456   0.745   6.238
 4170SOL    HW113076   2.506   0.830   6.219
 4170SOL    HW213077   2.368   0.747   6.190
 4171SOL     OW13078   3.639   0.342   7.228
 4171SOL    HW113079   3.622   0.373   7.134
 4171SOL    HW213080   3.555   0.305   7.266
 4172SOL     OW13081   3.592   0.934   7.103
 4172SOL    HW113082   3.630   1.025   7.118
 4172SOL    HW213083   3.584   0.917   7.004
 4173SOL     OW13084   2.721   1.374   5.602
 4173SOL    HW113085   2.675   1.389   5.690
 4173SOL    HW213086   2.765   1.459   5.572
 4174SOL     OW13087   2.721   0.956   6.447
 4174SOL    HW113088   2.775   0.887   6.495
 4174SOL    HW213089   2.689   1.025   6.513
 4175SOL     OW13090   2.945   0.984   5.673
 4175SOL    HW113091   2.922   1.037   5.591
 4175SOL    HW213092   3.026   0.928   5.654
 4176SOL     OW13093   3.723   1.569   6.437
 4176SOL    HW113094   3.652   1.557   6.367
 4176SOL    HW213095   3.724   1.490   6.497
 4177SOL     OW13096   1.941   1.240   6.239
 4177SOL    HW113097   1.940   1.193   6.327
 4177SOL    HW213098   2.023   1.212   6.188
 4178SOL     OW13099   3.686   0.192   6.813
 4178SOL    HW113100   3.682   0.102   6.857
 4178SOL    HW213101   3.689   0.181   6.714
 4179SOL     OW13102   2.290   0.424   6.106
 4179SOL    HW113103   2.320   0.352   6.044
 4179SOL    HW213104   2.251   0.384   6.189
 4180SOL     OW13105   3.567   1.487   6.690
 4180SOL    HW113106   3.474   1.462   6.663
 4180SOL    HW213107   3.593   1.437   6.772
 4181SOL     OW13108   2.179   0.547   6.866
 4181SOL    HW113109   2.217   0.488   6.938
 4181SOL    HW213110   2.219   0.521   6.778
 4182SOL     OW13111   2.674   1.586   6.273
 4182SOL    HW113112   2.706   1.596   6.179
 4182SOL    HW213113   2.595   1.524   6.275
 4183SOL     OW13114   3.286   0.214   6.698
 4183SOL    HW113115   3.338   0.149   6.753
 4183SOL    HW213116   3.237   0.277   6.759
 4184SOL     OW13117   2.863   0.034   6.740
 4184SOL    HW113118   2.800  -0.038   6.709
 4184SOL    HW213119   2.956  -0.002   6.740
 4185SOL     OW13120   2.632   1.330   5.887
 4185SOL    HW113121   2.586   1.243   5.904
 4185SOL    HW213122   2.723   1.327   5.928
 4186SOL     OW13123   2.480   1.567   6.870
 4186SOL    HW113124   2.475   1.649   6.927
 4186SOL    HW213125   2.569   1.564   6.825
 4187SOL     OW13126   3.214   0.052   5.754
 4187SOL    HW113127   3.249   0.011   5.670
 4187SOL    HW213128   3.124   0.014   5.774
 4188SOL     OW13129   3.162   0.453   6.277
 4188SOL    HW113130   3.103   0.533   6.281
 4188SOL    HW213131   3.177   0.418   6.370
 4189SOL     OW13132   3.455   0.221   6.468
 4189SOL    HW113133   3.371   0.220   6.522
 4189SOL    HW213134   3.457   0.304   6.412
 4190SOL     OW13135   1.901   1.077   5.886
 4190SOL    HW113136   2.000   1.066   5.877
 4190SOL    HW213137   1.861   0.991   5.918
 4191SOL     OW13138   2.737   1.646   5.923
 4191SOL    HW113139   2.660   1.611   5.869
 4191SOL    HW213140   2.705   1.717   5.985
 4192SOL     OW13141   2.092   0.628   7.561
 4192SOL    HW113142   1.999   0.626   7.598
 4192SOL    HW213143   2.093   0.589   7.469
 4193SOL     OW13144   2.087   0.275   8.444
 4193SOL    HW113145   2.122   0.258   8.536
 4193SOL    HW213146   1.999   0.230   8.432
 4194SOL     OW13147   1.881   0.368   8.095
 4194SOL    HW113148   1.799   0.411   8.134
 4194SOL    HW213149   1.853   0.295   8.032
 4195SOL     OW13150   2.431   1.275   8.613
 4195SOL    HW113151   2.338   1.268   8.576
 4195SOL    HW213152   2.442   1.364   8.657
 4196SOL     OW13153   3.417   1.511   8.151
 4196SOL    HW113154   3.360   1.495   8.232
 4196SOL    HW213155   3.358   1.521   8.071
 4197SOL     OW13156   2.997   0.703   8.165
 4197SOL    HW113157   3.054   0.781   8.140
 4197SOL    HW213158   2.937   0.729   8.241
 4198SOL     OW13159   3.617   0.607   7.679
 4198SOL    HW113160   3.605   0.594   7.580
 4198SOL    HW213161   3.587   0.526   7.728
 4199SOL     OW13162   2.630   1.144   8.471
 4199SOL    HW113163   2.552   1.161   8.531
 4199SOL    HW213164   2.664   1.231   8.435
 4200SOL     OW13165   2.712   0.798   9.271
 4200SOL    HW113166   2.708   0.874   9.336
 4200SOL    HW213167   2.734   0.834   9.180
 4201SOL     OW13168   2.547   1.012   8.113
 4201SOL    HW113169   2.616   0.996   8.183
 4201SOL    HW213170   2.474   1.069   8.151
 4202SOL     OW13171   2.548   1.161   9.251
 4202SOL    HW113172   2.608   1.240   9.265
 4202SOL    HW213173   2.462   1.192   9.210
 4203SOL     OW13174   2.197   1.435   8.509
 4203SOL    HW113175   2.119   1.404   8.456
 4203SOL    HW213176   2.255   1.493   8.452
 4204SOL     OW13177   3.322   1.505   8.787
 4204SOL    HW113178   3.346   1.599   8.813
 4204SOL    HW213179   3.306   1.451   8.869
 4205SOL     OW13180   2.300   0.392   8.947
 4205SOL    HW113181   2.382   0.336   8.956
 4205SOL    HW213182   2.219   0.334   8.951
 4206SOL     OW13183   3.465   0.447   8.185
 4206SOL    HW113184   3.391   0.493   8.135
 4206SOL    HW213185   3.516   0.515   8.238
 4207SOL     OW13186   2.989   1.341   9.138
 4207SOL    HW113187   3.036   1.341   9.226
 4207SOL    HW213188   2.941   1.254   9.127
 4208SOL     OW13189   2.092   1.434   7.986
 4208SOL    HW113190   2.066   1.530   7.986
 4208SOL    HW213191   2.021   1.380   8.031
 4209SOL     OW13192   2.102   1.091   8.334
 4209SOL    HW113193   2.116   1.007   8.386
 4209SOL    HW213194   2.047   1.155   8.389
 4210SOL     OW13195   2.482   1.786   8.887
 4210SOL    HW113196   2.390   1.769   8.922
 4210SOL    HW213197   2.510   1.878   8.913
 4211SOL     OW13198   2.468   0.964   7.571
 4211SOL    HW113199   2.475   1.048   7.517
 4211SOL    HW213200   2.514   0.977   7.659
 4212SOL     OW13201   3.456   0.114   8.928
 4212SOL    HW113202   3.438   0.181   8.856
 4212SOL    HW213203   3.453   0.160   9.017
 4213SOL     OW13204   1.984   0.643   8.011
 4213SOL    HW113205   1.939   0.555   8.028
 4213SOL    HW213206   1.983   0.697   8.095
 4214SOL     OW13207   3.704   1.767   7.807
 4214SOL    HW113208   3.758   1.738   7.887
 4214SOL    HW213209   3.734   1.857   7.778
 4215SOL     OW13210   3.551   0.922   8.060
 4215SOL    HW113211   3.646   0.893   8.068
 4215SOL    HW213212   3.543   0.987   7.985
 4216SOL     OW13213   3.503   1.108   7.880
 4216SOL    HW113214   3.589   1.110   7.828
 4216SOL    HW213215   3.517   1.155   7.968
 4217SOL     OW13216   1.975   0.737   9.045
 4217SOL    HW113217   2.063   0.724   9.090
 4217SOL    HW213218   1.962   0.834   9.023
 4218SOL     OW13219   2.475   1.365   8.174
 4218SOL    HW113220   2.426   1.278   8.183
 4218SOL    HW213221   2.452   1.408   8.087
 4219SOL     OW13222   3.155   1.228   8.871
 4219SOL    HW113223   3.192   1.155   8.813
 4219SOL    HW213224   3.207   1.233   8.956
 4220SOL     OW13225   2.671   0.004   7.950
 4220SOL    HW113226   2.711   0.095   7.941
 4220SOL    HW213227   2.571   0.012   7.956
 4221SOL     OW13228   2.059   0.976   8.712
 4221SOL    HW113229   2.148   0.931   8.698
 4221SOL    HW213230   1.986   0.911   8.693
 4222SOL     OW13231   3.387   0.999   7.638
 4222SOL    HW113232   3.324   0.923   7.651
 4222SOL    HW213233   3.435   1.017   7.724
 4223SOL     OW13234   3.049   1.792   9.064
 4223SOL    HW113235   3.073   1.852   8.988
 4223SOL    HW213236   3.056   1.697   9.034
 4224SOL     OW13237   2.179   0.251   9.249
 4224SOL    HW113238   2.250   0.322   9.255
 4224SOL    HW213239   2.091   0.290   9.277
 4225SOL     OW13240   3.328   1.417   8.401
 4225SOL    HW113241   3.269   1.423   8.481
 4225SOL    HW213242   3.313   1.329   8.355
 4226SOL     OW13243   3.529   1.714   8.020
 4226SOL    HW113244   3.488   1.691   7.932
 4226SOL    HW213245   3.511   1.640   8.085
 4227SOL     OW13246   2.460   0.729   7.718
 4227SOL    HW113247   2.484   0.798   7.650
 4227SOL    HW213248   2.382   0.762   7.772
 4228SOL     OW13249   3.143   0.345   8.392
 4228SOL    HW113250   3.057   0.295   8.379
 4228SOL    HW213251   3.205   0.291   8.448
 4229SOL     OW13252   3.438   1.662   7.755
 4229SOL    HW113253   3.527   1.708   7.758
 4229SOL    HW213254   3.417   1.638   7.660
 4230SOL     OW13255   2.669   0.605   8.913
 4230SOL    HW113256   2.622   0.602   9.002
 4230SOL    HW213257   2.618   0.550   8.847
 4231SOL     OW13258   3.256   0.469   9.122
 4231SOL    HW113259   3.236   0.512   9.210
 4231SOL    HW213260   3.334   0.407   9.131
 4232SOL     OW13261   2.835   0.890   9.020
 4232SOL    HW113262   2.881   0.806   8.991
 4232SOL    HW213263   2.779   0.924   8.945
 4233SOL     OW13264   2.853   0.410   8.690
 4233SOL    HW113265   2.776   0.444   8.744
 4233SOL    HW213266   2.819   0.359   8.611
 4234SOL     OW13267   2.903   0.701   7.877
 4234SOL    HW113268   2.929   0.697   7.973
 4234SOL    HW213269   2.818   0.650   7.863
 4235SOL     OW13270   1.938   0.811   8.237
 4235SOL    HW113271   2.037   0.799   8.246
 4235SOL    HW213272   1.914   0.906   8.258
 4236SOL     OW13273   2.727   0.348   7.643
 4236SOL    HW113274   2.786   0.411   7.594
 4236SOL    HW213275   2.746   0.254   7.614
 4237SOL     OW13276   3.581   0.585   9.279
 4237SOL    HW113277   3.555   0.674   9.243
 4237SOL    HW213278   3.579   0.517   9.206
 4238SOL     OW13279   3.224   1.144   7.993
 4238SOL    HW113280   3.307   1.115   7.945
 4238SOL    HW213281   3.175   1.211   7.937
 4239SOL     OW13282   2.412   0.196   8.333
 4239SOL    HW113283   2.407   0.191   8.433
 4239SOL    HW213284   2.414   0.292   8.304
 4240SOL     OW13285   2.870   1.456   7.925
 4240SOL    HW113286   2.824   1.528   7.873
 4240SOL    HW213287   2.866   1.476   8.023
 4241SOL     OW13288   2.213   1.801   8.301
 4241SOL    HW113289   2.263   1.715   8.307
 4241SOL    HW213290   2.278   1.878   8.298
 4242SOL     OW13291   3.657   1.066   8.321
 4242SOL    HW113292   3.595   1.051   8.245
 4242SOL    HW213293   3.605   1.077   8.406
 4243SOL     OW13294   3.089   1.550   8.954
 4243SOL    HW113295   3.095   1.473   9.018
 4243SOL    HW213296   3.037   1.524   8.874
 4244SOL     OW13297   2.183   0.943   7.690
 4244SOL    HW113298   2.265   0.982   7.648
 4244SOL    HW213299   2.156   0.861   7.641
 4245SOL     OW13300   3.320   0.735   8.176
 4245SOL    HW113301   3.315   0.670   8.251
 4245SOL    HW213302   3.400   0.794   8.189
 4246SOL     OW13303   2.323   1.266   9.175
 4246SOL    HW113304   2.273   1.267   9.089
 4246SOL    HW213305   2.260   1.248   9.251
 4247SOL     OW13306   2.973   1.776   7.685
 4247SOL    HW113307   2.913   1.714   7.735
 4247SOL    HW213308   3.004   1.732   7.600
 4248SOL     OW13309   2.064   0.285   8.946
 4248SOL    HW113310   1.984   0.345   8.933
 4248SOL    HW213311   2.054   0.236   9.032
 4249SOL     OW13312   3.494   1.377   7.529
 4249SOL    HW113313   3.462   1.471   7.519
 4249SOL    HW213314   3.418   1.314   7.517
 4250SOL     OW13315   3.262   0.107   7.874
 4250SOL    HW113316   3.238   0.070   7.784
 4250SOL    HW213317   3.361   0.123   7.878
 4251SOL     OW13318   2.111   1.785   8.689
 4251SOL    HW113319   2.168   1.720   8.739
 4251SOL    HW213320   2.095   1.752   8.596
 4252SOL     OW13321   2.802   1.698   8.352
 4252SOL    HW113322   2.882   1.641   8.373
 4252SOL    HW213323   2.753   1.658   8.275
 4253SOL     OW13324   2.244   0.700   7.928
 4253SOL    HW113325   2.289   0.610   7.925
 4253SOL    HW213326   2.150   0.689   7.961
 4254SOL     OW13327   3.409   0.222   9.177
 4254SOL    HW113328   3.404   0.259   9.269
 4254SOL    HW213329   3.337   0.153   9.165
 4255SOL     OW13330   2.476   0.122   7.565
 4255SOL    HW113331   2.574   0.100   7.572
 4255SOL    HW213332   2.445   0.105   7.472
 4256SOL     OW13333   2.643   0.264   9.197
 4256SOL    HW113334   2.710   0.203   9.240
 4256SOL    HW213335   2.570   0.283   9.262
 4257SOL     OW13336   2.750   1.514   8.643
 4257SOL    HW113337   2.727   1.489   8.549
 4257SOL    HW213338   2.811   1.445   8.682
 4258SOL     OW13339   3.213   0.590   8.881
 4258SOL    HW113340   3.241   0.547   8.966
 4258SOL    HW213341   3.238   0.686   8.882
 4259SOL     OW13342   2.665   1.402   8.372
 4259SOL    HW113343   2.755   1.416   8.330
 4259SOL    HW213344   2.594   1.404   8.301
 4260SOL     OW13345   2.784   0.503   8.347
 4260SOL    HW113346   2.759   0.494   8.251
 4260SOL    HW213347   2.832   0.421   8.378
 4261SOL     OW13348   2.401   0.064   7.960
 4261SOL    HW113349   2.320   0.065   8.018
 4261SOL    HW213350   2.404   0.147   7.905
 4262SOL     OW13351   3.296   1.188   7.489
 4262SOL    HW113352   3.328   1.112   7.546
 4262SOL    HW213353   3.204   1.215   7.519
 4263SOL     OW13354   2.159   0.035   7.619
 4263SOL    HW113355   2.208   0.119   7.598
 4263SOL    HW213356   2.221  -0.030   7.664
 4264SOL     OW13357   2.797   0.236   7.928
 4264SOL    HW113358   2.749   0.277   7.850
 4264SOL    HW213359   2.896   0.234   7.909
 4265SOL     OW13360   2.938   0.683   8.912
 4265SOL    HW113361   2.858   0.622   8.915
 4265SOL    HW213362   3.019   0.630   8.888
 4266SOL     OW13363   3.089   1.570   8.241
 4266SOL    HW113364   3.110   1.644   8.176
 4266SOL    HW213365   3.157   1.570   8.314
 4267SOL     OW13366   2.321   1.152   8.189
 4267SOL    HW113367   2.250   1.125   8.254
 4267SOL    HW213368   2.295   1.124   8.096
 4268SOL     OW13369   3.133   1.797   8.039
 4268SOL    HW113370   3.177   1.861   7.975
 4268SOL    HW213371   3.083   1.849   8.109
 4269SOL     OW13372   2.894   0.549   7.464
 4269SOL    HW113373   2.853   0.631   7.425
 4269SOL    HW213374   2.958   0.575   7.537
 4270SOL     OW13375   1.940   0.556   8.834
 4270SOL    HW113376   2.032   0.555   8.793
 4270SOL    HW213377   1.934   0.630   8.901
 4271SOL     OW13378   2.423   0.222   8.595
 4271SOL    HW113379   2.461   0.138   8.632
 4271SOL    HW213380   2.335   0.241   8.639
 4272SOL     OW13381   2.728   0.454   8.090
 4272SOL    HW113382   2.696   0.526   8.028
 4272SOL    HW213383   2.752   0.373   8.037
 4273SOL     OW13384   2.879   0.039   8.201
 4273SOL    HW113385   2.807   0.044   8.132
 4273SOL    HW213386   2.855  -0.030   8.270
 4274SOL     OW13387   3.291   1.173   8.315
 4274SOL    HW113388   3.236   1.089   8.308
 4274SOL    HW213389   3.317   1.202   8.223
 4275SOL     OW13390   3.328   0.590   8.440
 4275SOL    HW113391   3.298   0.495   8.447
 4275SOL    HW213392   3.401   0.606   8.506
 4276SOL     OW13393   3.719   0.833   7.825
 4276SOL    HW113394   3.761   0.769   7.889
 4276SOL    HW213395   3.681   0.782   7.747
 4277SOL     OW13396   3.526   1.280   8.105
 4277SOL    HW113397   3.625   1.288   8.119
 4277SOL    HW213398   3.481   1.364   8.136
 4278SOL     OW13399   3.252   0.575   7.526
 4278SOL    HW113400   3.198   0.554   7.607
 4278SOL    HW213401   3.343   0.534   7.535
 4279SOL     OW13402   2.389   0.256   7.776
 4279SOL    HW113403   2.416   0.197   7.701
 4279SOL    HW213404   2.389   0.351   7.745
 4280SOL     OW13405   3.616   1.223   9.036
 4280SOL    HW113406   3.707   1.184   9.023
 4280SOL    HW213407   3.624   1.319   9.060
 4281SOL     OW13408   2.926   1.347   8.788
 4281SOL    HW113409   2.846   1.324   8.843
 4281SOL    HW213410   3.009   1.321   8.837
 4282SOL     OW13411   3.454   1.629   9.073
 4282SOL    HW113412   3.481   1.663   8.983
 4282SOL    HW213413   3.533   1.591   9.119
 4283SOL     OW13414   2.973   1.195   8.548
 4283SOL    HW113415   2.933   1.239   8.629
 4283SOL    HW213416   2.932   1.232   8.465
 4284SOL     OW13417   3.500   1.099   8.527
 4284SOL    HW113418   3.505   1.180   8.586
 4284SOL    HW213419   3.414   1.101   8.476
 4285SOL     OW13420   2.777   0.089   8.850
 4285SOL    HW113421   2.802   0.069   8.755
 4285SOL    HW213422   2.849   0.145   8.892
 4286SOL     OW13423   2.842   1.116   9.167
 4286SOL    HW113424   2.743   1.122   9.177
 4286SOL    HW213425   2.865   1.036   9.111
 4287SOL     OW13426   2.567   1.050   7.816
 4287SOL    HW113427   2.553   1.057   7.915
 4287SOL    HW213428   2.651   0.999   7.798
 4288SOL     OW13429   2.272   0.813   8.699
 4288SOL    HW113430   2.358   0.825   8.749
 4288SOL    HW213431   2.230   0.726   8.726
 4289SOL     OW13432   3.136   0.386   8.710
 4289SOL    HW113433   3.157   0.460   8.774
 4289SOL    HW213434   3.047   0.403   8.667
 4290SOL     OW13435   1.926   1.564   8.779
 4290SOL    HW113436   1.880   1.646   8.745
 4290SOL    HW213437   2.024   1.583   8.788
 4291SOL     OW13438   2.229   1.100   7.949
 4291SOL    HW113439   2.222   1.183   7.893
 4291SOL    HW213440   2.233   1.020   7.889
 4292SOL     OW13441   2.428   0.537   8.313
 4292SOL    HW113442   2.440   0.603   8.239
 4292SOL    HW213443   2.474   0.571   8.396
 4293SOL     OW13444   3.114   1.348   7.836
 4293SOL    HW113445   3.164   1.425   7.876
 4293SOL    HW213446   3.019   1.350   7.868
 4294SOL     OW13447   3.134   1.445   8.590
 4294SOL    HW113448   3.181   1.458   8.677
 4294SOL    HW213449   3.068   1.371   8.599
 4295SOL     OW13450   3.444   0.639   7.920
 4295SOL    HW113451   3.413   0.700   7.993
 4295SOL    HW213452   3.494   0.691   7.851
 4296SOL     OW13453   2.216   1.510   8.777
 4296SOL    HW113454   2.195   1.466   8.690
 4296SOL    HW213455   2.313   1.536   8.780
 4297SOL     OW13456   2.264   0.751   9.046
 4297SOL    HW113457   2.332   0.806   8.999
 4297SOL    HW213458   2.304   0.663   9.073
 4298SOL     OW13459   3.449   0.779   9.118
 4298SOL    HW113460   3.357   0.817   9.113
 4298SOL    HW213461   3.509   0.826   9.053
 4299SOL     OW13462   2.875   0.105   9.218
 4299SOL    HW113463   2.881   0.190   9.166
 4299SOL    HW213464   2.907   0.029   9.161
 4300SOL     OW13465   2.366   0.050   9.188
 4300SOL    HW113466   2.324  -0.007   9.118
 4300SOL    HW213467   2.300   0.119   9.220
 4301SOL     OW13468   2.435   0.870   8.477
 4301SOL    HW113469   2.479   0.959   8.468
 4301SOL    HW213470   2.372   0.870   8.554
 4302SOL     OW13471   3.222   0.862   8.493
 4302SOL    HW113472   3.147   0.862   8.427
 4302SOL    HW213473   3.259   0.770   8.502
 4303SOL     OW13474   3.071   0.525   7.723
 4303SOL    HW113475   3.084   0.441   7.777
 4303SOL    HW213476   3.042   0.599   7.783
 4304SOL     OW13477   2.169   0.213   8.679
 4304SOL    HW113478   2.146   0.250   8.769
 4304SOL    HW213479   2.139   0.118   8.673
 4305SOL     OW13480   1.899   1.310   8.730
 4305SOL    HW113481   1.952   1.261   8.798
 4305SOL    HW213482   1.921   1.408   8.735
 4306SOL     OW13483   2.594   0.634   8.512
 4306SOL    HW113484   2.653   0.608   8.436
 4306SOL    HW213485   2.566   0.730   8.501
 4307SOL     OW13486   3.590   0.935   9.302
 4307SOL    HW113487   3.544   0.928   9.213
 4307SOL    HW213488   3.528   0.979   9.368
 4308SOL     OW13489   2.169   0.063   8.066
 4308SOL    HW113490   2.158   0.157   8.099
 4308SOL    HW213491   2.164   0.000   8.143
 4309SOL     OW13492   3.484   0.367   7.822
 4309SOL    HW113493   3.486   0.291   7.886
 4309SOL    HW213494   3.436   0.444   7.862
 4310SOL     OW13495   2.885   0.766   8.414
 4310SOL    HW113496   2.900   0.787   8.510
 4310SOL    HW213497   2.855   0.671   8.405
 4311SOL     OW13498   2.842   1.573   9.148
 4311SOL    HW113499   2.822   1.617   9.060
 4311SOL    HW213500   2.881   1.482   9.132
 4312SOL     OW13501   3.721   1.518   9.053
 4312SOL    HW113502   3.735   1.545   8.958
 4312SOL    HW213503   3.804   1.540   9.106
 4313SOL     OW13504   2.212   0.898   9.252
 4313SOL    HW113505   2.288   0.942   9.300
 4313SOL    HW213506   2.247   0.851   9.170
 4314SOL     OW13507   3.402   0.274   7.573
 4314SOL    HW113508   3.341   0.199   7.596
 4314SOL    HW213509   3.424   0.326   7.656
 4315SOL     OW13510   3.165   0.838   7.490
 4315SOL    HW113511   3.199   0.745   7.505
 4315SOL    HW213512   3.183   0.865   7.395
 4316SOL     OW13513   2.930   1.333   8.297
 4316SOL    HW113514   2.937   1.249   8.242
 4316SOL    HW213515   2.992   1.402   8.261
 4317SOL     OW13516   2.181   0.810   8.397
 4317SOL    HW113517   2.274   0.846   8.402
 4317SOL    HW213518   2.175   0.725   8.449
 4318SOL     OW13519   2.201   0.509   8.454
 4318SOL    HW113520   2.149   0.426   8.437
 4318SOL    HW213521   2.278   0.514   8.390
 4319SOL     OW13522   3.000   0.380   9.126
 4319SOL    HW113523   2.955   0.443   9.190
 4319SOL    HW213524   3.093   0.411   9.109
 4320SOL     OW13525   3.022   0.207   8.925
 4320SOL    HW113526   3.022   0.271   9.002
 4320SOL    HW213527   3.050   0.255   8.842
 4321SOL     OW13528   1.870   1.326   7.648
 4321SOL    HW113529   1.777   1.347   7.617
 4321SOL    HW213530   1.880   1.227   7.661
 4322SOL     OW13531   1.950   1.801   8.375
 4322SOL    HW113532   1.908   1.715   8.348
 4322SOL    HW213533   2.044   1.804   8.341
 4323SOL     OW13534   2.366   1.568   8.358
 4323SOL    HW113535   2.432   1.642   8.367
 4323SOL    HW213536   2.410   1.489   8.316
 4324SOL     OW13537   2.864   0.796   8.686
 4324SOL    HW113538   2.905   0.764   8.772
 4324SOL    HW213539   2.768   0.769   8.683
 4325SOL     OW13540   1.902   0.544   8.562
 4325SOL    HW113541   1.987   0.511   8.521
 4325SOL    HW213542   1.915   0.559   8.660
 4326SOL     OW13543   2.051   0.520   9.170
 4326SOL    HW113544   2.110   0.480   9.100
 4326SOL    HW213545   1.993   0.591   9.129
 4327SOL     OW13546   3.231   0.950   9.108
 4327SOL    HW113547   3.270   1.039   9.128
 4327SOL    HW213548   3.241   0.930   9.011
 4328SOL     OW13549   2.677   0.572   7.773
 4328SOL    HW113550   2.684   0.483   7.727
 4328SOL    HW213551   2.583   0.606   7.765
 4329SOL     OW13552   3.519   0.604   8.654
 4329SOL    HW113553   3.481   0.535   8.716
 4329SOL    HW213554   3.601   0.568   8.610
 4330SOL     OW13555   2.114   1.564   9.192
 4330SOL    HW113556   2.084   1.621   9.268
 4330SOL    HW213557   2.107   1.467   9.218
 4331SOL     OW13558   2.533   0.464   8.717
 4331SOL    HW113559   2.499   0.375   8.687
 4331SOL    HW213560   2.559   0.518   8.637
 4332SOL     OW13561   2.792   1.678   8.913
 4332SOL    HW113562   2.768   1.660   8.818
 4332SOL    HW213563   2.822   1.772   8.923
 4333SOL     OW13564   2.335   0.500   7.639
 4333SOL    HW113565   2.396   0.580   7.643
 4333SOL    HW213566   2.240   0.531   7.646
 4334SOL     OW13567   2.021   1.137   8.914
 4334SOL    HW113568   2.043   1.076   8.990
 4334SOL    HW213569   2.031   1.088   8.828
 4335SOL     OW13570   3.209   1.059   8.682
 4335SOL    HW113571   3.233   0.996   8.608
 4335SOL    HW213572   3.119   1.099   8.664
 4336SOL     OW13573   3.164   0.855   7.757
 4336SOL    HW113574   3.078   0.824   7.799
 4336SOL    HW213575   3.160   0.841   7.658
 4337SOL     OW13576   3.621   1.747   8.602
 4337SOL    HW113577   3.682   1.777   8.529
 4337SOL    HW213578   3.583   1.658   8.580
 4338SOL     OW13579   3.114   1.731   8.576
 4338SOL    HW113580   3.198   1.736   8.522
 4338SOL    HW213581   3.091   1.635   8.594
 4339SOL     OW13582   1.945   1.258   8.470
 4339SOL    HW113583   1.940   1.257   8.570
 4339SOL    HW213584   1.862   1.217   8.432
 4340SOL     OW13585   2.550   1.662   9.164
 4340SOL    HW113586   2.494   1.743   9.173
 4340SOL    HW213587   2.602   1.666   9.078
 4341SOL     OW13588   3.588   0.135   7.971
 4341SOL    HW113589   3.661   0.118   7.904
 4341SOL    HW213590   3.557   0.048   8.009
 4342SOL     OW13591   3.250   1.573   7.925
 4342SOL    HW113592   3.317   1.585   7.851
 4342SOL    HW213593   3.210   1.662   7.948
 4343SOL     OW13594   1.992   1.794   9.299
 4343SOL    HW113595   1.951   1.720   9.352
 4343SOL    HW213596   2.056   1.845   9.357
 4344SOL     OW13597   3.142   0.927   8.120
 4344SOL    HW113598   3.202   0.846   8.122
 4344SOL    HW213599   3.182   0.996   8.060
 4345SOL     OW13600   2.692   1.273   8.870
 4345SOL    HW113601   2.687   1.306   8.965
 4345SOL    HW213602   2.606   1.292   8.824
 4346SOL     OW13603   3.512   1.720   8.842
 4346SOL    HW113604   3.565   1.730   8.758
 4346SOL    HW213605   3.485   1.810   8.876
 4347SOL     OW13606   3.703   0.175   8.411
 4347SOL    HW113607   3.742   0.090   8.375
 4347SOL    HW213608   3.605   0.177   8.392
 4348SOL     OW13609   2.125   0.326   8.168
 4348SOL    HW113610   2.046   0.377   8.134
 4348SOL    HW213611   2.116   0.311   8.266
 4349SOL     OW13612   3.056   1.612   7.479
 4349SOL    HW113613   3.062   1.519   7.516
 4349SOL    HW213614   2.997   1.612   7.399
 4350SOL     OW13615   2.684   1.002   8.820
 4350SOL    HW113616   2.724   1.001   8.728
 4350SOL    HW213617   2.694   1.094   8.860
 4351SOL     OW13618   2.778   0.910   7.739
 4351SOL    HW113619   2.841   0.948   7.671
 4351SOL    HW213620   2.818   0.827   7.778
 4352SOL     OW13621   3.366   1.607   7.492
 4352SOL    HW113622   3.274   1.644   7.499
 4352SOL    HW213623   3.404   1.627   7.402
 4353SOL     OW13624   2.234   1.288   8.938
 4353SOL    HW113625   2.221   1.381   8.904
 4353SOL    HW213626   2.150   1.236   8.925
 4354SOL     OW13627   3.476   1.292   8.737
 4354SOL    HW113628   3.536   1.295   8.817
 4354SOL    HW213629   3.401   1.356   8.750
 4355SOL     OW13630   2.901   1.098   8.144
 4355SOL    HW113631   2.831   1.051   8.198
 4355SOL    HW213632   2.960   1.030   8.101
 4356SOL     OW13633   2.876   0.236   8.419
 4356SOL    HW113634   2.868   0.200   8.326
 4356SOL    HW213635   2.874   0.160   8.484
 4357SOL     OW13636   3.571   0.385   8.829
 4357SOL    HW113637   3.644   0.454   8.833
 4357SOL    HW213638   3.599   0.310   8.770
 4358SOL     OW13639   2.117   1.348   7.738
 4358SOL    HW113640   2.021   1.349   7.711
 4358SOL    HW213641   2.129   1.401   7.822
 4359SOL     OW13642   1.967   1.013   9.174
 4359SOL    HW113643   1.890   0.980   9.228
 4359SOL    HW213644   2.052   0.983   9.216
 4360SOL     OW13645   2.534   0.203   8.937
 4360SOL    HW113646   2.624   0.187   8.897
 4360SOL    HW213647   2.542   0.208   9.036
 4361SOL     OW13648   1.937   0.345   7.481
 4361SOL    HW113649   1.845   0.317   7.452
 4361SOL    HW213650   1.968   0.422   7.425
 4362SOL     OW13651   3.302   0.856   8.846
 4362SOL    HW113652   3.245   0.908   8.783
 4362SOL    HW213653   3.398   0.868   8.822
 4363SOL     OW13654   1.934   0.166   7.766
 4363SOL    HW113655   1.917   0.249   7.712
 4363SOL    HW213656   2.024   0.129   7.744
 4364SOL     OW13657   3.045   1.335   7.567
 4364SOL    HW113658   2.946   1.324   7.569
 4364SOL    HW213659   3.079   1.350   7.660
 4365SOL     OW13660   2.475   0.842   8.879
 4365SOL    HW113661   2.531   0.923   8.862
 4365SOL    HW213662   2.534   0.762   8.882
 4366SOL     OW13663   3.355   1.767   8.407
 4366SOL    HW113664   3.388   1.831   8.338
 4366SOL    HW213665   3.421   1.761   8.482
 4367SOL     OW13666   2.578   0.565   9.156
 4367SOL    HW113667   2.597   0.630   9.230
 4367SOL    HW213668   2.638   0.485   9.165
 4368SOL     OW13669   3.312   1.220   9.081
 4368SOL    HW113670   3.303   1.210   9.180
 4368SOL    HW213671   3.408   1.213   9.055
 4369SOL     OW13672   2.252   1.741   9.008
 4369SOL    HW113673   2.161   1.782   9.006
 4369SOL    HW213674   2.245   1.647   9.040
 4370SOL     OW13675   3.536   0.883   8.702
 4370SOL    HW113676   3.509   0.794   8.665
 4370SOL    HW213677   3.537   0.951   8.629
 4371SOL     OW13678   3.087   0.325   7.897
 4371SOL    HW113679   3.152   0.251   7.886
 4371SOL    HW213680   3.107   0.375   7.981
 4372SOL     OW13681   2.456   0.745   8.100
 4372SOL    HW113682   2.506   0.830   8.081
 4372SOL    HW213683   2.368   0.747   8.052
 4373SOL     OW13684   3.639   0.342   9.090
 4373SOL    HW113685   3.622   0.373   8.996
 4373SOL    HW213686   3.555   0.305   9.128
 4374SOL     OW13687   3.592   0.934   8.965
 4374SOL    HW113688   3.630   1.025   8.980
 4374SOL    HW213689   3.584   0.917   8.866
 4375SOL     OW13690   2.721   1.374   7.464
 4375SOL    HW113691   2.675   1.389   7.552
 4375SOL    HW213692   2.765   1.459   7.434
 4376SOL     OW13693   2.523   1.790   8.401
 4376SOL    HW113694   2.477   1.878   8.388
 4376SOL    HW213695   2.622   1.802   8.394
 4377SOL     OW13696   2.721   0.956   8.309
 4377SOL    HW113697   2.775   0.887   8.357
 4377SOL    HW213698   2.689   1.025   8.375
 4378SOL     OW13699   2.945   0.984   7.535
 4378SOL    HW113700   2.922   1.037   7.453
 4378SOL    HW213701   3.026   0.928   7.516
 4379SOL     OW13702   3.723   1.569   8.299
 4379SOL    HW113703   3.652   1.557   8.229
 4379SOL    HW213704   3.724   1.490   8.359
 4380SOL     OW13705   2.083   1.314   9.292
 4380SOL    HW113706   2.018   1.241   9.271
 4380SOL    HW213707   2.087   1.328   9.390
 4381SOL     OW13708   1.941   1.240   8.101
 4381SOL    HW113709   1.940   1.193   8.189
 4381SOL    HW213710   2.023   1.212   8.050
 4382SOL     OW13711   2.534   1.391   9.072
 4382SOL    HW113712   2.456   1.341   9.110
 4382SOL    HW213713   2.531   1.486   9.103
 4383SOL     OW13714   3.686   0.192   8.675
 4383SOL    HW113715   3.682   0.102   8.719
 4383SOL    HW213716   3.689   0.181   8.576
 4384SOL     OW13717   2.290   0.424   7.968
 4384SOL    HW113718   2.320   0.352   7.906
 4384SOL    HW213719   2.251   0.384   8.051
 4385SOL     OW13720   3.567   1.487   8.552
 4385SOL    HW113721   3.474   1.462   8.525
 4385SOL    HW213722   3.593   1.437   8.634
 4386SOL     OW13723   2.179   0.547   8.728
 4386SOL    HW113724   2.217   0.488   8.800
 4386SOL    HW213725   2.219   0.521   8.640
 4387SOL     OW13726   2.674   1.586   8.135
 4387SOL    HW113727   2.706   1.596   8.041
 4387SOL    HW213728   2.595   1.524   8.137
 4388SOL     OW13729   3.286   0.214   8.560
 4388SOL    HW113730   3.338   0.149   8.615
 4388SOL    HW213731   3.237   0.277   8.621
 4389SOL     OW13732   2.863   0.034   8.602
 4389SOL    HW113733   2.800  -0.038   8.571
 4389SOL    HW213734   2.956  -0.002   8.602
 4390SOL     OW13735   2.632   1.330   7.749
 4390SOL    HW113736   2.586   1.243   7.766
 4390SOL    HW213737   2.723   1.327   7.790
 4391SOL     OW13738   2.480   1.567   8.732
 4391SOL    HW113739   2.475   1.649   8.789
 4391SOL    HW213740   2.569   1.564   8.687
 4392SOL     OW13741   3.214   0.052   7.616
 4392SOL    HW113742   3.249   0.011   7.532
 4392SOL    HW213743   3.124   0.014   7.636
 4393SOL     OW13744   3.162   0.453   8.139
 4393SOL    HW113745   3.103   0.533   8.143
 4393SOL    HW213746   3.177   0.418   8.232
 4394SOL     OW13747   3.455   0.221   8.330
 4394SOL    HW113748   3.371   0.220   8.384
 4394SOL    HW213749   3.457   0.304   8.274
 4395SOL     OW13750   1.901   1.077   7.748
 4395SOL    HW113751   2.000   1.066   7.739
 4395SOL    HW213752   1.861   0.991   7.780
 4396SOL     OW13753   2.737   1.646   7.785
 4396SOL    HW113754   2.660   1.611   7.731
 4396SOL    HW213755   2.705   1.717   7.847
 4397SOL     OW13756   2.092   0.628   9.423
 4397SOL    HW113757   1.999   0.626   9.460
 4397SOL    HW213758   2.093   0.589   9.331
 4398SOL     OW13759   2.087   0.275  10.306
 4398SOL    HW113760   2.122   0.258  10.398
 4398SOL    HW213761   1.999   0.230  10.294
 4399SOL     OW13762   1.881   0.368   9.957
 4399SOL    HW113763   1.799   0.411   9.996
 4399SOL    HW213764   1.853   0.295   9.894
 4400SOL     OW13765   2.431   1.275  10.475
 4400SOL    HW113766   2.338   1.268  10.438
 4400SOL    HW213767   2.442   1.364  10.519
 4401SOL     OW13768   3.417   1.511  10.013
 4401SOL    HW113769   3.360   1.495  10.094
 4401SOL    HW213770   3.358   1.521   9.933
 4402SOL     OW13771   2.997   0.703  10.027
 4402SOL    HW113772   3.054   0.781  10.002
 4402SOL    HW213773   2.937   0.729  10.103
 4403SOL     OW13774   3.617   0.607   9.541
 4403SOL    HW113775   3.605   0.594   9.442
 4403SOL    HW213776   3.587   0.526   9.590
 4404SOL     OW13777   2.630   1.144  10.333
 4404SOL    HW113778   2.552   1.161  10.393
 4404SOL    HW213779   2.664   1.231  10.297
 4405SOL     OW13780   2.712   0.798  11.133
 4405SOL    HW113781   2.708   0.874  11.198
 4405SOL    HW213782   2.734   0.834  11.042
 4406SOL     OW13783   2.547   1.012   9.975
 4406SOL    HW113784   2.616   0.996  10.045
 4406SOL    HW213785   2.474   1.069  10.013
 4407SOL     OW13786   2.548   1.161  11.113
 4407SOL    HW113787   2.608   1.240  11.127
 4407SOL    HW213788   2.462   1.192  11.072
 4408SOL     OW13789   2.197   1.435  10.371
 4408SOL    HW113790   2.119   1.404  10.318
 4408SOL    HW213791   2.255   1.493  10.314
 4409SOL     OW13792   3.322   1.505  10.649
 4409SOL    HW113793   3.346   1.599  10.675
 4409SOL    HW213794   3.306   1.451  10.731
 4410SOL     OW13795   2.300   0.392  10.809
 4410SOL    HW113796   2.382   0.336  10.818
 4410SOL    HW213797   2.219   0.334  10.813
 4411SOL     OW13798   3.465   0.447  10.047
 4411SOL    HW113799   3.391   0.493   9.997
 4411SOL    HW213800   3.516   0.515  10.100
 4412SOL     OW13801   2.093   1.713   9.793
 4412SOL    HW113802   2.127   1.790   9.847
 4412SOL    HW213803   2.137   1.713   9.703
 4413SOL     OW13804   2.989   1.341  11.000
 4413SOL    HW113805   3.036   1.341  11.088
 4413SOL    HW213806   2.941   1.254  10.989
 4414SOL     OW13807   2.092   1.434   9.848
 4414SOL    HW113808   2.066   1.530   9.848
 4414SOL    HW213809   2.021   1.380   9.893
 4415SOL     OW13810   2.102   1.091  10.196
 4415SOL    HW113811   2.116   1.007  10.248
 4415SOL    HW213812   2.047   1.155  10.251
 4416SOL     OW13813   2.482   1.786  10.749
 4416SOL    HW113814   2.390   1.769  10.784
 4416SOL    HW213815   2.510   1.878  10.775
 4417SOL     OW13816   2.468   0.964   9.433
 4417SOL    HW113817   2.475   1.048   9.379
 4417SOL    HW213818   2.514   0.977   9.521
 4418SOL     OW13819   3.456   0.114  10.790
 4418SOL    HW113820   3.438   0.181  10.718
 4418SOL    HW213821   3.453   0.160  10.879
 4419SOL     OW13822   1.984   0.643   9.873
 4419SOL    HW113823   1.939   0.555   9.890
 4419SOL    HW213824   1.983   0.697   9.957
 4420SOL     OW13825   3.704   1.767   9.669
 4420SOL    HW113826   3.758   1.738   9.749
 4420SOL    HW213827   3.734   1.857   9.640
 4421SOL     OW13828   1.889   1.596   9.427
 4421SOL    HW113829   1.870   1.500   9.448
 4421SOL    HW213830   1.856   1.654   9.502
 4422SOL     OW13831   3.551   0.922   9.922
 4422SOL    HW113832   3.646   0.893   9.930
 4422SOL    HW213833   3.543   0.987   9.847
 4423SOL     OW13834   3.503   1.108   9.742
 4423SOL    HW113835   3.589   1.110   9.690
 4423SOL    HW213836   3.517   1.155   9.830
 4424SOL     OW13837   1.975   0.737  10.907
 4424SOL    HW113838   2.063   0.724  10.952
 4424SOL    HW213839   1.962   0.834  10.885
 4425SOL     OW13840   2.475   1.365  10.036
 4425SOL    HW113841   2.426   1.278  10.045
 4425SOL    HW213842   2.452   1.408   9.949
 4426SOL     OW13843   3.155   1.228  10.733
 4426SOL    HW113844   3.192   1.155  10.675
 4426SOL    HW213845   3.207   1.233  10.818
 4427SOL     OW13846   2.671   0.004   9.812
 4427SOL    HW113847   2.711   0.095   9.803
 4427SOL    HW213848   2.571   0.012   9.818
 4428SOL     OW13849   2.059   0.976  10.574
 4428SOL    HW113850   2.148   0.931  10.560
 4428SOL    HW213851   1.986   0.911  10.555
 4429SOL     OW13852   3.387   0.999   9.500
 4429SOL    HW113853   3.324   0.923   9.513
 4429SOL    HW213854   3.435   1.017   9.586
 4430SOL     OW13855   3.049   1.792  10.926
 4430SOL    HW113856   3.073   1.852  10.850
 4430SOL    HW213857   3.056   1.697  10.896
 4431SOL     OW13858   2.179   0.251  11.111
 4431SOL    HW113859   2.250   0.322  11.117
 4431SOL    HW213860   2.091   0.290  11.139
 4432SOL     OW13861   3.328   1.417  10.263
 4432SOL    HW113862   3.269   1.423  10.343
 4432SOL    HW213863   3.313   1.329  10.217
 4433SOL     OW13864   3.529   1.714   9.882
 4433SOL    HW113865   3.488   1.691   9.794
 4433SOL    HW213866   3.511   1.640   9.947
 4434SOL     OW13867   2.460   0.729   9.580
 4434SOL    HW113868   2.484   0.798   9.512
 4434SOL    HW213869   2.382   0.762   9.634
 4435SOL     OW13870   3.143   0.345  10.254
 4435SOL    HW113871   3.057   0.295  10.241
 4435SOL    HW213872   3.205   0.291  10.310
 4436SOL     OW13873   3.438   1.662   9.617
 4436SOL    HW113874   3.527   1.708   9.620
 4436SOL    HW213875   3.417   1.638   9.522
 4437SOL     OW13876   2.669   0.605  10.775
 4437SOL    HW113877   2.622   0.602  10.864
 4437SOL    HW213878   2.618   0.550  10.709
 4438SOL     OW13879   3.256   0.469  10.984
 4438SOL    HW113880   3.236   0.512  11.072
 4438SOL    HW213881   3.334   0.407  10.993
 4439SOL     OW13882   2.835   0.890  10.882
 4439SOL    HW113883   2.881   0.806  10.853
 4439SOL    HW213884   2.779   0.924  10.807
 4440SOL     OW13885   2.853   0.410  10.552
 4440SOL    HW113886   2.776   0.444  10.606
 4440SOL    HW213887   2.819   0.359  10.473
 4441SOL     OW13888   2.903   0.701   9.739
 4441SOL    HW113889   2.929   0.697   9.835
 4441SOL    HW213890   2.818   0.650   9.725
 4442SOL     OW13891   1.938   0.811  10.099
 4442SOL    HW113892   2.037   0.799  10.108
 4442SOL    HW213893   1.914   0.906  10.120
 4443SOL     OW13894   2.727   0.348   9.505
 4443SOL    HW113895   2.786   0.411   9.456
 4443SOL    HW213896   2.746   0.254   9.476
 4444SOL     OW13897   3.581   0.585  11.141
 4444SOL    HW113898   3.555   0.674  11.105
 4444SOL    HW213899   3.579   0.517  11.068
 4445SOL     OW13900   3.224   1.144   9.855
 4445SOL    HW113901   3.307   1.115   9.807
 4445SOL    HW213902   3.175   1.211   9.799
 4446SOL     OW13903   2.412   0.196  10.195
 4446SOL    HW113904   2.407   0.191  10.295
 4446SOL    HW213905   2.414   0.292  10.166
 4447SOL     OW13906   2.870   1.456   9.787
 4447SOL    HW113907   2.824   1.528   9.735
 4447SOL    HW213908   2.866   1.476   9.885
 4448SOL     OW13909   2.213   1.801  10.163
 4448SOL    HW113910   2.263   1.715  10.169
 4448SOL    HW213911   2.278   1.878  10.160
 4449SOL     OW13912   3.657   1.066  10.183
 4449SOL    HW113913   3.595   1.051  10.107
 4449SOL    HW213914   3.605   1.077  10.268
 4450SOL     OW13915   3.089   1.550  10.816
 4450SOL    HW113916   3.095   1.473  10.880
 4450SOL    HW213917   3.037   1.524  10.736
 4451SOL     OW13918   2.183   0.943   9.552
 4451SOL    HW113919   2.265   0.982   9.510
 4451SOL    HW213920   2.156   0.861   9.503
 4452SOL     OW13921   3.320   0.735  10.038
 4452SOL    HW113922   3.315   0.670  10.113
 4452SOL    HW213923   3.400   0.794  10.051
 4453SOL     OW13924   2.323   1.266  11.037
 4453SOL    HW113925   2.273   1.267  10.951
 4453SOL    HW213926   2.260   1.248  11.113
 4454SOL     OW13927   2.973   1.776   9.547
 4454SOL    HW113928   2.913   1.714   9.597
 4454SOL    HW213929   3.004   1.732   9.462
 4455SOL     OW13930   2.064   0.285  10.808
 4455SOL    HW113931   1.984   0.345  10.795
 4455SOL    HW213932   2.054   0.236  10.894
 4456SOL     OW13933   3.494   1.377   9.391
 4456SOL    HW113934   3.462   1.471   9.381
 4456SOL    HW213935   3.418   1.314   9.379
 4457SOL     OW13936   2.326   1.743   9.633
 4457SOL    HW113937   2.359   1.782   9.719
 4457SOL    HW213938   2.402   1.736   9.568
 4458SOL     OW13939   3.262   0.107   9.736
 4458SOL    HW113940   3.238   0.070   9.646
 4458SOL    HW213941   3.361   0.123   9.740
 4459SOL     OW13942   2.111   1.785  10.551
 4459SOL    HW113943   2.168   1.720  10.601
 4459SOL    HW213944   2.095   1.752  10.458
 4460SOL     OW13945   2.802   1.698  10.214
 4460SOL    HW113946   2.882   1.641  10.235
 4460SOL    HW213947   2.753   1.658  10.137
 4461SOL     OW13948   2.244   0.700   9.790
 4461SOL    HW113949   2.289   0.610   9.787
 4461SOL    HW213950   2.150   0.689   9.823
 4462SOL     OW13951   3.409   0.222  11.039
 4462SOL    HW113952   3.404   0.259  11.131
 4462SOL    HW213953   3.337   0.153  11.027
 4463SOL     OW13954   2.476   0.122   9.427
 4463SOL    HW113955   2.574   0.100   9.434
 4463SOL    HW213956   2.445   0.105   9.334
 4464SOL     OW13957   2.643   0.264  11.059
 4464SOL    HW113958   2.710   0.203  11.102
 4464SOL    HW213959   2.570   0.283  11.124
 4465SOL     OW13960   2.750   1.514  10.505
 4465SOL    HW113961   2.727   1.489  10.411
 4465SOL    HW213962   2.811   1.445  10.544
 4466SOL     OW13963   3.213   0.590  10.743
 4466SOL    HW113964   3.241   0.547  10.828
 4466SOL    HW213965   3.238   0.686  10.744
 4467SOL     OW13966   2.665   1.402  10.234
 4467SOL    HW113967   2.755   1.416  10.192
 4467SOL    HW213968   2.594   1.404  10.163
 4468SOL     OW13969   2.784   0.503  10.209
 4468SOL    HW113970   2.759   0.494  10.113
 4468SOL    HW213971   2.832   0.421  10.240
 4469SOL     OW13972   2.401   0.064   9.822
 4469SOL    HW113973   2.320   0.065   9.880
 4469SOL    HW213974   2.404   0.147   9.767
 4470SOL     OW13975   3.296   1.188   9.351
 4470SOL    HW113976   3.328   1.112   9.408
 4470SOL    HW213977   3.204   1.215   9.381
 4471SOL     OW13978   2.159   0.035   9.481
 4471SOL    HW113979   2.208   0.119   9.460
 4471SOL    HW213980   2.221  -0.030   9.526
 4472SOL     OW13981   2.797   0.236   9.790
 4472SOL    HW113982   2.749   0.277   9.712
 4472SOL    HW213983   2.896   0.234   9.771
 4473SOL     OW13984   2.938   0.683  10.774
 4473SOL    HW113985   2.858   0.622  10.777
 4473SOL    HW213986   3.019   0.630  10.750
 4474SOL     OW13987   3.089   1.570  10.103
 4474SOL    HW113988   3.110   1.644  10.038
 4474SOL    HW213989   3.157   1.570  10.176
 4475SOL     OW13990   2.321   1.152  10.051
 4475SOL    HW113991   2.250   1.125  10.116
 4475SOL    HW213992   2.295   1.124   9.958
 4476SOL     OW13993   3.133   1.797   9.901
 4476SOL    HW113994   3.177   1.861   9.837
 4476SOL    HW213995   3.083   1.849   9.971
 4477SOL     OW13996   2.894   0.549   9.326
 4477SOL    HW113997   2.853   0.631   9.287
 4477SOL    HW213998   2.958   0.575   9.399
 4478SOL     OW13999   1.940   0.556  10.696
 4478SOL    HW114000   2.032   0.555  10.655
 4478SOL    HW214001   1.934   0.630  10.763
 4479SOL     OW14002   2.423   0.222  10.457
 4479SOL    HW114003   2.461   0.138  10.494
 4479SOL    HW214004   2.335   0.241  10.501
 4480SOL     OW14005   2.728   0.454   9.952
 4480SOL    HW114006   2.696   0.526   9.890
 4480SOL    HW214007   2.752   0.373   9.899
 4481SOL     OW14008   2.879   0.039  10.063
 4481SOL    HW114009   2.807   0.044   9.994
 4481SOL    HW214010   2.855  -0.030  10.132
 4482SOL     OW14011   3.291   1.173  10.177
 4482SOL    HW114012   3.236   1.089  10.170
 4482SOL    HW214013   3.317   1.202  10.085
 4483SOL     OW14014   3.328   0.590  10.302
 4483SOL    HW114015   3.298   0.495  10.309
 4483SOL    HW214016   3.401   0.606  10.368
 4484SOL     OW14017   3.719   0.833   9.687
 4484SOL    HW114018   3.761   0.769   9.751
 4484SOL    HW214019   3.681   0.782   9.609
 4485SOL     OW14020   2.350   1.385   9.484
 4485SOL    HW114021   2.263   1.370   9.531
 4485SOL    HW214022   2.333   1.411   9.389
 4486SOL     OW14023   3.526   1.280   9.967
 4486SOL    HW114024   3.625   1.288   9.981
 4486SOL    HW214025   3.481   1.364   9.998
 4487SOL     OW14026   3.252   0.575   9.388
 4487SOL    HW114027   3.198   0.554   9.469
 4487SOL    HW214028   3.343   0.534   9.397
 4488SOL     OW14029   2.389   0.256   9.638
 4488SOL    HW114030   2.416   0.197   9.563
 4488SOL    HW214031   2.389   0.351   9.607
 4489SOL     OW14032   3.616   1.223  10.898
 4489SOL    HW114033   3.707   1.184  10.885
 4489SOL    HW214034   3.624   1.319  10.922
 4490SOL     OW14035   2.926   1.347  10.650
 4490SOL    HW114036   2.846   1.324  10.705
 4490SOL    HW214037   3.009   1.321  10.699
 4491SOL     OW14038   3.454   1.629  10.935
 4491SOL    HW114039   3.481   1.663  10.845
 4491SOL    HW214040   3.533   1.591  10.981
 4492SOL     OW14041   2.973   1.195  10.410
 4492SOL    HW114042   2.933   1.239  10.491
 4492SOL    HW214043   2.932   1.232  10.327
 4493SOL     OW14044   3.500   1.099  10.389
 4493SOL    HW114045   3.505   1.180  10.448
 4493SOL    HW214046   3.414   1.101  10.338
 4494SOL     OW14047   2.777   0.089  10.712
 4494SOL    HW114048   2.802   0.069  10.617
 4494SOL    HW214049   2.849   0.145  10.754
 4495SOL     OW14050   2.842   1.116  11.029
 4495SOL    HW114051   2.743   1.122  11.039
 4495SOL    HW214052   2.865   1.036  10.973
 4496SOL     OW14053   2.567   1.050   9.678
 4496SOL    HW114054   2.553   1.057   9.777
 4496SOL    HW214055   2.651   0.999   9.660
 4497SOL     OW14056   2.272   0.813  10.561
 4497SOL    HW114057   2.358   0.825  10.611
 4497SOL    HW214058   2.230   0.726  10.588
 4498SOL     OW14059   3.136   0.386  10.572
 4498SOL    HW114060   3.157   0.460  10.636
 4498SOL    HW214061   3.047   0.403  10.529
 4499SOL     OW14062   1.926   1.564  10.641
 4499SOL    HW114063   1.880   1.646  10.607
 4499SOL    HW214064   2.024   1.583  10.650
 4500SOL     OW14065   2.229   1.100   9.811
 4500SOL    HW114066   2.222   1.183   9.755
 4500SOL    HW214067   2.233   1.020   9.751
 4501SOL     OW14068   2.428   0.537  10.175
 4501SOL    HW114069   2.440   0.603  10.101
 4501SOL    HW214070   2.474   0.571  10.258
 4502SOL     OW14071   3.114   1.348   9.698
 4502SOL    HW114072   3.164   1.425   9.738
 4502SOL    HW214073   3.019   1.350   9.730
 4503SOL     OW14074   3.134   1.445  10.452
 4503SOL    HW114075   3.181   1.458  10.539
 4503SOL    HW214076   3.068   1.371  10.461
 4504SOL     OW14077   3.444   0.639   9.782
 4504SOL    HW114078   3.413   0.700   9.855
 4504SOL    HW214079   3.494   0.691   9.713
 4505SOL     OW14080   2.216   1.510  10.639
 4505SOL    HW114081   2.195   1.466  10.552
 4505SOL    HW214082   2.313   1.536  10.642
 4506SOL     OW14083   2.264   0.751  10.908
 4506SOL    HW114084   2.332   0.806  10.861
 4506SOL    HW214085   2.304   0.663  10.935
 4507SOL     OW14086   3.449   0.779  10.980
 4507SOL    HW114087   3.357   0.817  10.975
 4507SOL    HW214088   3.509   0.826  10.915
 4508SOL     OW14089   2.875   0.105  11.080
 4508SOL    HW114090   2.881   0.190  11.028
 4508SOL    HW214091   2.907   0.029  11.023
 4509SOL     OW14092   2.366   0.050  11.050
 4509SOL    HW114093   2.324  -0.007  10.980
 4509SOL    HW214094   2.300   0.119  11.082
 4510SOL     OW14095   2.435   0.870  10.339
 4510SOL    HW114096   2.479   0.959  10.330
 4510SOL    HW214097   2.372   0.870  10.416
 4511SOL     OW14098   3.222   0.862  10.355
 4511SOL    HW114099   3.147   0.862  10.289
 4511SOL    HW214100   3.259   0.770  10.364
 4512SOL     OW14101   3.071   0.525   9.585
 4512SOL    HW114102   3.084   0.441   9.639
 4512SOL    HW214103   3.042   0.599   9.645
 4513SOL     OW14104   2.169   0.213  10.541
 4513SOL    HW114105   2.146   0.250  10.631
 4513SOL    HW214106   2.139   0.118  10.535
 4514SOL     OW14107   1.899   1.310  10.592
 4514SOL    HW114108   1.952   1.261  10.660
 4514SOL    HW214109   1.921   1.408  10.597
 4515SOL     OW14110   2.594   0.634  10.374
 4515SOL    HW114111   2.653   0.608  10.298
 4515SOL    HW214112   2.566   0.730  10.363
 4516SOL     OW14113   3.590   0.935  11.164
 4516SOL    HW114114   3.544   0.928  11.075
 4516SOL    HW214115   3.528   0.979  11.230
 4517SOL     OW14116   2.169   0.063   9.928
 4517SOL    HW114117   2.158   0.157   9.961
 4517SOL    HW214118   2.164   0.000  10.005
 4518SOL     OW14119   3.484   0.367   9.684
 4518SOL    HW114120   3.486   0.291   9.748
 4518SOL    HW214121   3.436   0.444   9.724
 4519SOL     OW14122   2.885   0.766  10.276
 4519SOL    HW114123   2.900   0.787  10.372
 4519SOL    HW214124   2.855   0.671  10.267
 4520SOL     OW14125   2.842   1.573  11.010
 4520SOL    HW114126   2.822   1.617  10.922
 4520SOL    HW214127   2.881   1.482  10.994
 4521SOL     OW14128   3.721   1.518  10.915
 4521SOL    HW114129   3.735   1.545  10.820
 4521SOL    HW214130   3.804   1.540  10.968
 4522SOL     OW14131   2.212   0.898  11.114
 4522SOL    HW114132   2.288   0.942  11.162
 4522SOL    HW214133   2.247   0.851  11.032
 4523SOL     OW14134   3.402   0.274   9.435
 4523SOL    HW114135   3.341   0.199   9.458
 4523SOL    HW214136   3.424   0.326   9.518
 4524SOL     OW14137   3.165   0.838   9.352
 4524SOL    HW114138   3.199   0.745   9.367
 4524SOL    HW214139   3.183   0.865   9.257
 4525SOL     OW14140   2.930   1.333  10.159
 4525SOL    HW114141   2.937   1.249  10.104
 4525SOL    HW214142   2.992   1.402  10.123
 4526SOL     OW14143   2.181   0.810  10.259
 4526SOL    HW114144   2.274   0.846  10.264
 4526SOL    HW214145   2.175   0.725  10.311
 4527SOL     OW14146   2.201   0.509  10.316
 4527SOL    HW114147   2.149   0.426  10.299
 4527SOL    HW214148   2.278   0.514  10.252
 4528SOL     OW14149   3.000   0.380  10.988
 4528SOL    HW114150   2.955   0.443  11.052
 4528SOL    HW214151   3.093   0.411  10.971
 4529SOL     OW14152   3.022   0.207  10.787
 4529SOL    HW114153   3.022   0.271  10.864
 4529SOL    HW214154   3.050   0.255  10.704
 4530SOL     OW14155   1.870   1.326   9.510
 4530SOL    HW114156   1.777   1.347   9.479
 4530SOL    HW214157   1.880   1.227   9.523
 4531SOL     OW14158   1.950   1.801  10.237
 4531SOL    HW114159   1.908   1.715  10.210
 4531SOL    HW214160   2.044   1.804  10.203
 4532SOL     OW14161   2.366   1.568  10.220
 4532SOL    HW114162   2.432   1.642  10.229
 4532SOL    HW214163   2.410   1.489  10.178
 4533SOL     OW14164   2.864   0.796  10.548
 4533SOL    HW114165   2.905   0.764  10.634
 4533SOL    HW214166   2.768   0.769  10.545
 4534SOL     OW14167   1.902   0.544  10.424
 4534SOL    HW114168   1.987   0.511  10.383
 4534SOL    HW214169   1.915   0.559  10.522
 4535SOL     OW14170   2.051   0.520  11.032
 4535SOL    HW114171   2.110   0.480  10.962
 4535SOL    HW214172   1.993   0.591  10.991
 4536SOL     OW14173   3.231   0.950  10.970
 4536SOL    HW114174   3.270   1.039  10.990
 4536SOL    HW214175   3.241   0.930  10.873
 4537SOL     OW14176   2.677   0.572   9.635
 4537SOL    HW114177   2.684   0.483   9.589
 4537SOL    HW214178   2.583   0.606   9.627
 4538SOL     OW14179   3.519   0.604  10.516
 4538SOL    HW114180   3.481   0.535  10.578
 4538SOL    HW214181   3.601   0.568  10.472
 4539SOL     OW14182   2.114   1.564  11.054
 4539SOL    HW114183   2.084   1.621  11.130
 4539SOL    HW214184   2.107   1.467  11.080
 4540SOL     OW14185   2.533   0.464  10.579
 4540SOL    HW114186   2.499   0.375  10.549
 4540SOL    HW214187   2.559   0.518  10.499
 4541SOL     OW14188   2.792   1.678  10.775
 4541SOL    HW114189   2.768   1.660  10.680
 4541SOL    HW214190   2.822   1.772  10.785
 4542SOL     OW14191   2.335   0.500   9.501
 4542SOL    HW114192   2.396   0.580   9.505
 4542SOL    HW214193   2.240   0.531   9.508
 4543SOL     OW14194   2.021   1.137  10.776
 4543SOL    HW114195   2.043   1.076  10.852
 4543SOL    HW214196   2.031   1.088  10.690
 4544SOL     OW14197   3.209   1.059  10.544
 4544SOL    HW114198   3.233   0.996  10.470
 4544SOL    HW214199   3.119   1.099  10.526
 4545SOL     OW14200   3.164   0.855   9.619
 4545SOL    HW114201   3.078   0.824   9.661
 4545SOL    HW214202   3.160   0.841   9.520
 4546SOL     OW14203   3.621   1.747  10.464
 4546SOL    HW114204   3.682   1.777  10.391
 4546SOL    HW214205   3.583   1.658  10.442
 4547SOL     OW14206   3.114   1.731  10.438
 4547SOL    HW114207   3.198   1.736  10.384
 4547SOL    HW214208   3.091   1.635  10.456
 4548SOL     OW14209   1.945   1.258  10.332
 4548SOL    HW114210   1.940   1.257  10.432
 4548SOL    HW214211   1.862   1.217  10.294
 4549SOL     OW14212   2.550   1.662  11.026
 4549SOL    HW114213   2.494   1.743  11.035
 4549SOL    HW214214   2.602   1.666  10.940
 4550SOL     OW14215   3.588   0.135   9.833
 4550SOL    HW114216   3.661   0.118   9.766
 4550SOL    HW214217   3.557   0.048   9.871
 4551SOL     OW14218   3.250   1.573   9.787
 4551SOL    HW114219   3.317   1.585   9.713
 4551SOL    HW214220   3.210   1.662   9.810
 4552SOL     OW14221   1.992   1.794  11.161
 4552SOL    HW114222   1.951   1.720  11.214
 4552SOL    HW214223   2.056   1.845  11.219
 4553SOL     OW14224   3.142   0.927   9.982
 4553SOL    HW114225   3.202   0.846   9.984
 4553SOL    HW214226   3.182   0.996   9.922
 4554SOL     OW14227   2.692   1.273  10.732
 4554SOL    HW114228   2.687   1.306  10.827
 4554SOL    HW214229   2.606   1.292  10.686
 4555SOL     OW14230   2.534   1.616   9.464
 4555SOL    HW114231   2.543   1.626   9.365
 4555SOL    HW214232   2.494   1.527   9.485
 4556SOL     OW14233   3.512   1.720  10.704
 4556SOL    HW114234   3.565   1.730  10.620
 4556SOL    HW214235   3.485   1.810  10.738
 4557SOL     OW14236   3.703   0.175  10.273
 4557SOL    HW114237   3.742   0.090  10.237
 4557SOL    HW214238   3.605   0.177  10.254
 4558SOL     OW14239   2.125   0.326  10.030
 4558SOL    HW114240   2.046   0.377   9.996
 4558SOL    HW214241   2.116   0.311  10.128
 4559SOL     OW14242   3.056   1.612   9.341
 4559SOL    HW114243   3.062   1.519   9.378
 4559SOL    HW214244   2.997   1.612   9.261
 4560SOL     OW14245   2.684   1.002  10.682
 4560SOL    HW114246   2.724   1.001  10.590
 4560SOL    HW214247   2.694   1.094  10.722
 4561SOL     OW14248   2.778   0.910   9.601
 4561SOL    HW114249   2.841   0.948   9.533
 4561SOL    HW214250   2.818   0.827   9.640
 4562SOL     OW14251   3.366   1.607   9.354
 4562SOL    HW114252   3.274   1.644   9.361
 4562SOL    HW214253   3.404   1.627   9.264
 4563SOL     OW14254   2.234   1.288  10.800
 4563SOL    HW114255   2.221   1.381  10.766
 4563SOL    HW214256   2.150   1.236  10.787
 4564SOL     OW14257   3.476   1.292  10.599
 4564SOL    HW114258   3.536   1.295  10.679
 4564SOL    HW214259   3.401   1.356  10.612
 4565SOL     OW14260   2.901   1.098  10.006
 4565SOL    HW114261   2.831   1.051  10.060
 4565SOL    HW214262   2.960   1.030   9.963
 4566SOL     OW14263   2.876   0.236  10.281
 4566SOL    HW114264   2.868   0.200  10.188
 4566SOL    HW214265   2.874   0.160  10.346
 4567SOL     OW14266   2.452   1.487   9.801
 4567SOL    HW114267   2.494   1.429   9.731
 4567SOL    HW214268   2.408   1.566   9.757
 4568SOL     OW14269   3.571   0.385  10.691
 4568SOL    HW114270   3.644   0.454  10.695
 4568SOL    HW214271   3.599   0.310  10.632
 4569SOL     OW14272   2.117   1.348   9.600
 4569SOL    HW114273   2.021   1.349   9.573
 4569SOL    HW214274   2.129   1.401   9.684
 4570SOL     OW14275   1.967   1.013  11.036
 4570SOL    HW114276   1.890   0.980  11.090
 4570SOL    HW214277   2.052   0.983  11.078
 4571SOL     OW14278   2.534   0.203  10.799
 4571SOL    HW114279   2.624   0.187  10.759
 4571SOL    HW214280   2.542   0.208  10.898
 4572SOL     OW14281   1.937   0.345   9.343
 4572SOL    HW114282   1.845   0.317   9.314
 4572SOL    HW214283   1.968   0.422   9.287
 4573SOL     OW14284   3.302   0.856  10.708
 4573SOL    HW114285   3.245   0.908  10.645
 4573SOL    HW214286   3.398   0.868  10.684
 4574SOL     OW14287   1.934   0.166   9.628
 4574SOL    HW114288   1.917   0.249   9.574
 4574SOL    HW214289   2.024   0.129   9.606
 4575SOL     OW14290   3.045   1.335   9.429
 4575SOL    HW114291   2.946   1.324   9.431
 4575SOL    HW214292   3.079   1.350   9.522
 4576SOL     OW14293   2.475   0.842  10.741
 4576SOL    HW114294   2.531   0.923  10.724
 4576SOL    HW214295   2.534   0.762  10.744
 4577SOL     OW14296   3.355   1.767  10.269
 4577SOL    HW114297   3.388   1.831  10.200
 4577SOL    HW214298   3.421   1.761  10.344
 4578SOL     OW14299   2.578   0.565  11.018
 4578SOL    HW114300   2.597   0.630  11.092
 4578SOL    HW214301   2.638   0.485  11.027
 4579SOL     OW14302   3.312   1.220  10.943
 4579SOL    HW114303   3.303   1.210  11.042
 4579SOL    HW214304   3.408   1.213  10.917
 4580SOL     OW14305   2.252   1.741  10.870
 4580SOL    HW114306   2.161   1.782  10.868
 4580SOL    HW214307   2.245   1.647  10.902
 4581SOL     OW14308   3.536   0.883  10.564
 4581SOL    HW114309   3.509   0.794  10.527
 4581SOL    HW214310   3.537   0.951  10.491
 4582SOL     OW14311   3.087   0.325   9.759
 4582SOL    HW114312   3.152   0.251   9.748
 4582SOL    HW214313   3.107   0.375   9.843
 4583SOL     OW14314   2.456   0.745   9.962
 4583SOL    HW114315   2.506   0.830   9.943
 4583SOL    HW214316   2.368   0.747   9.914
 4584SOL     OW14317   3.639   0.342  10.952
 4584SOL    HW114318   3.622   0.373  10.858
 4584SOL    HW214319   3.555   0.305  10.990
 4585SOL     OW14320   3.592   0.934  10.827
 4585SOL    HW114321   3.630   1.025  10.842
 4585SOL    HW214322   3.584   0.917  10.728
 4586SOL     OW14323   2.721   1.374   9.326
 4586SOL    HW114324   2.675   1.389   9.414
 4586SOL    HW214325   2.765   1.459   9.296
 4587SOL     OW14326   2.523   1.790  10.263
 4587SOL    HW114327   2.477   1.878  10.250
 4587SOL    HW214328   2.622   1.802  10.256
 4588SOL     OW14329   2.721   0.956  10.171
 4588SOL    HW114330   2.775   0.887  10.219
 4588SOL    HW214331   2.689   1.025  10.237
 4589SOL     OW14332   2.945   0.984   9.397
 4589SOL    HW114333   2.922   1.037   9.315
 4589SOL    HW214334   3.026   0.928   9.378
 4590SOL     OW14335   3.723   1.569  10.161
 4590SOL    HW114336   3.652   1.557  10.091
 4590SOL    HW214337   3.724   1.490  10.221
 4591SOL     OW14338   2.083   1.314  11.154
 4591SOL    HW114339   2.018   1.241  11.133
 4591SOL    HW214340   2.087   1.328  11.252
 4592SOL     OW14341   1.941   1.240   9.963
 4592SOL    HW114342   1.940   1.193  10.051
 4592SOL    HW214343   2.023   1.212   9.912
 4593SOL     OW14344   2.534   1.391  10.934
 4593SOL    HW114345   2.456   1.341  10.972
 4593SOL    HW214346   2.531   1.486  10.965
 4594SOL     OW14347   3.686   0.192  10.537
 4594SOL    HW114348   3.682   0.102  10.581
 4594SOL    HW214349   3.689   0.181  10.438
 4595SOL     OW14350   2.290   0.424   9.830
 4595SOL    HW114351   2.320   0.352   9.768
 4595SOL    HW214352   2.251   0.384   9.913
 4596SOL     OW14353   3.567   1.487  10.414
 4596SOL    HW114354   3.474   1.462  10.387
 4596SOL    HW214355   3.593   1.437  10.496
 4597SOL     OW14356   2.179   0.547  10.590
 4597SOL    HW114357   2.217   0.488  10.662
 4597SOL    HW214358   2.219   0.521  10.502
 4598SOL     OW14359   2.674   1.586   9.997
 4598SOL    HW114360   2.706   1.596   9.903
 4598SOL    HW214361   2.595   1.524   9.999
 4599SOL     OW14362   3.286   0.214  10.422
 4599SOL    HW114363   3.338   0.149  10.477
 4599SOL    HW214364   3.237   0.277  10.483
 4600SOL     OW14365   2.863   0.034  10.464
 4600SOL    HW114366   2.800  -0.038  10.433
 4600SOL    HW214367   2.956  -0.002  10.464
 4601SOL     OW14368   2.632   1.330   9.611
 4601SOL    HW114369   2.586   1.243   9.628
 4601SOL    HW214370   2.723   1.327   9.652
 4602SOL     OW14371   2.480   1.567  10.594
 4602SOL    HW114372   2.475   1.649  10.651
 4602SOL    HW214373   2.569   1.564  10.549
 4603SOL     OW14374   3.214   0.052   9.478
 4603SOL    HW114375   3.249   0.011   9.394
 4603SOL    HW214376   3.124   0.014   9.498
 4604SOL     OW14377   3.162   0.453  10.001
 4604SOL    HW114378   3.103   0.533  10.005
 4604SOL    HW214379   3.177   0.418  10.094
 4605SOL     OW14380   3.455   0.221  10.192
 4605SOL    HW114381   3.371   0.220  10.246
 4605SOL    HW214382   3.457   0.304  10.136
 4606SOL     OW14383   1.901   1.077   9.610
 4606SOL    HW114384   2.000   1.066   9.601
 4606SOL    HW214385   1.861   0.991   9.642
 4607SOL     OW14386   2.737   1.646   9.647
 4607SOL    HW114387   2.660   1.611   9.593
 4607SOL    HW214388   2.705   1.717   9.709
 4608SOL     OW14389   2.092   0.628  11.285
 4608SOL    HW114390   1.999   0.626  11.322
 4608SOL    HW214391   2.093   0.589  11.193
 4609SOL     OW14392   2.087   0.275  12.168
 4609SOL    HW114393   2.122   0.258  12.260
 4609SOL    HW214394   1.999   0.230  12.156
 4610SOL     OW14395   1.881   0.368  11.819
 4610SOL    HW114396   1.799   0.411  11.858
 4610SOL    HW214397   1.853   0.295  11.756
 4611SOL     OW14398   2.431   1.275  12.337
 4611SOL    HW114399   2.338   1.268  12.300
 4611SOL    HW214400   2.442   1.364  12.381
 4612SOL     OW14401   3.417   1.511  11.875
 4612SOL    HW114402   3.360   1.495  11.956
 4612SOL    HW214403   3.358   1.521  11.795
 4613SOL     OW14404   2.997   0.703  11.889
 4613SOL    HW114405   3.054   0.781  11.864
 4613SOL    HW214406   2.937   0.729  11.965
 4614SOL     OW14407   3.617   0.607  11.403
 4614SOL    HW114408   3.605   0.594  11.304
 4614SOL    HW214409   3.587   0.526  11.452
 4615SOL     OW14410   2.630   1.144  12.195
 4615SOL    HW114411   2.552   1.161  12.255
 4615SOL    HW214412   2.664   1.231  12.159
 4616SOL     OW14413   2.712   0.798  12.995
 4616SOL    HW114414   2.708   0.874  13.060
 4616SOL    HW214415   2.734   0.834  12.904
 4617SOL     OW14416   2.547   1.012  11.837
 4617SOL    HW114417   2.616   0.996  11.907
 4617SOL    HW214418   2.474   1.069  11.875
 4618SOL     OW14419   2.548   1.161  12.975
 4618SOL    HW114420   2.608   1.240  12.989
 4618SOL    HW214421   2.462   1.192  12.934
 4619SOL     OW14422   2.197   1.435  12.233
 4619SOL    HW114423   2.119   1.404  12.180
 4619SOL    HW214424   2.255   1.493  12.176
 4620SOL     OW14425   3.322   1.505  12.511
 4620SOL    HW114426   3.346   1.599  12.537
 4620SOL    HW214427   3.306   1.451  12.593
 4621SOL     OW14428   2.300   0.392  12.671
 4621SOL    HW114429   2.382   0.336  12.680
 4621SOL    HW214430   2.219   0.334  12.675
 4622SOL     OW14431   3.465   0.447  11.909
 4622SOL    HW114432   3.391   0.493  11.859
 4622SOL    HW214433   3.516   0.515  11.962
 4623SOL     OW14434   2.093   1.713  11.655
 4623SOL    HW114435   2.127   1.790  11.709
 4623SOL    HW214436   2.137   1.713  11.565
 4624SOL     OW14437   2.989   1.341  12.862
 4624SOL    HW114438   3.036   1.341  12.950
 4624SOL    HW214439   2.941   1.254  12.851
 4625SOL     OW14440   2.092   1.434  11.710
 4625SOL    HW114441   2.066   1.530  11.710
 4625SOL    HW214442   2.021   1.380  11.755
 4626SOL     OW14443   2.102   1.091  12.058
 4626SOL    HW114444   2.116   1.007  12.110
 4626SOL    HW214445   2.047   1.155  12.113
 4627SOL     OW14446   2.482   1.786  12.611
 4627SOL    HW114447   2.390   1.769  12.646
 4627SOL    HW214448   2.510   1.878  12.637
 4628SOL     OW14449   2.468   0.964  11.295
 4628SOL    HW114450   2.475   1.048  11.241
 4628SOL    HW214451   2.514   0.977  11.383
 4629SOL     OW14452   3.456   0.114  12.652
 4629SOL    HW114453   3.438   0.181  12.580
 4629SOL    HW214454   3.453   0.160  12.741
 4630SOL     OW14455   1.984   0.643  11.735
 4630SOL    HW114456   1.939   0.555  11.752
 4630SOL    HW214457   1.983   0.697  11.819
 4631SOL     OW14458   3.704   1.767  11.531
 4631SOL    HW114459   3.758   1.738  11.611
 4631SOL    HW214460   3.734   1.857  11.502
 4632SOL     OW14461   1.889   1.596  11.289
 4632SOL    HW114462   1.870   1.500  11.310
 4632SOL    HW214463   1.856   1.654  11.364
 4633SOL     OW14464   3.551   0.922  11.784
 4633SOL    HW114465   3.646   0.893  11.792
 4633SOL    HW214466   3.543   0.987  11.709
 4634SOL     OW14467   3.503   1.108  11.604
 4634SOL    HW114468   3.589   1.110  11.552
 4634SOL    HW214469   3.517   1.155  11.692
 4635SOL     OW14470   1.975   0.737  12.769
 4635SOL    HW114471   2.063   0.724  12.814
 4635SOL    HW214472   1.962   0.834  12.747
 4636SOL     OW14473   2.475   1.365  11.898
 4636SOL    HW114474   2.426   1.278  11.907
 4636SOL    HW214475   2.452   1.408  11.811
 4637SOL     OW14476   3.155   1.228  12.595
 4637SOL    HW114477   3.192   1.155  12.537
 4637SOL    HW214478   3.207   1.233  12.680
 4638SOL     OW14479   2.671   0.004  11.674
 4638SOL    HW114480   2.711   0.095  11.665
 4638SOL    HW214481   2.571   0.012  11.680
 4639SOL     OW14482   2.059   0.976  12.436
 4639SOL    HW114483   2.148   0.931  12.422
 4639SOL    HW214484   1.986   0.911  12.417
 4640SOL     OW14485   3.387   0.999  11.362
 4640SOL    HW114486   3.324   0.923  11.375
 4640SOL    HW214487   3.435   1.017  11.448
 4641SOL     OW14488   3.049   1.792  12.788
 4641SOL    HW114489   3.073   1.852  12.712
 4641SOL    HW214490   3.056   1.697  12.758
 4642SOL     OW14491   2.179   0.251  12.973
 4642SOL    HW114492   2.250   0.322  12.979
 4642SOL    HW214493   2.091   0.290  13.001
 4643SOL     OW14494   3.328   1.417  12.125
 4643SOL    HW114495   3.269   1.423  12.205
 4643SOL    HW214496   3.313   1.329  12.079
 4644SOL     OW14497   3.529   1.714  11.744
 4644SOL    HW114498   3.488   1.691  11.656
 4644SOL    HW214499   3.511   1.640  11.809
 4645SOL     OW14500   2.460   0.729  11.442
 4645SOL    HW114501   2.484   0.798  11.374
 4645SOL    HW214502   2.382   0.762  11.496
 4646SOL     OW14503   3.143   0.345  12.116
 4646SOL    HW114504   3.057   0.295  12.103
 4646SOL    HW214505   3.205   0.291  12.172
 4647SOL     OW14506   3.438   1.662  11.479
 4647SOL    HW114507   3.527   1.708  11.482
 4647SOL    HW214508   3.417   1.638  11.384
 4648SOL     OW14509   2.669   0.605  12.637
 4648SOL    HW114510   2.622   0.602  12.726
 4648SOL    HW214511   2.618   0.550  12.571
 4649SOL     OW14512   3.256   0.469  12.846
 4649SOL    HW114513   3.236   0.512  12.934
 4649SOL    HW214514   3.334   0.407  12.855
 4650SOL     OW14515   2.835   0.890  12.744
 4650SOL    HW114516   2.881   0.806  12.715
 4650SOL    HW214517   2.779   0.924  12.669
 4651SOL     OW14518   2.853   0.410  12.414
 4651SOL    HW114519   2.776   0.444  12.468
 4651SOL    HW214520   2.819   0.359  12.335
 4652SOL     OW14521   2.903   0.701  11.601
 4652SOL    HW114522   2.929   0.697  11.697
 4652SOL    HW214523   2.818   0.650  11.587
 4653SOL     OW14524   1.938   0.811  11.961
 4653SOL    HW114525   2.037   0.799  11.970
 4653SOL    HW214526   1.914   0.906  11.982
 4654SOL     OW14527   2.727   0.348  11.367
 4654SOL    HW114528   2.786   0.411  11.318
 4654SOL    HW214529   2.746   0.254  11.338
 4655SOL     OW14530   3.581   0.585  13.003
 4655SOL    HW114531   3.555   0.674  12.967
 4655SOL    HW214532   3.579   0.517  12.930
 4656SOL     OW14533   3.224   1.144  11.717
 4656SOL    HW114534   3.307   1.115  11.669
 4656SOL    HW214535   3.175   1.211  11.661
 4657SOL     OW14536   2.412   0.196  12.057
 4657SOL    HW114537   2.407   0.191  12.157
 4657SOL    HW214538   2.414   0.292  12.028
 4658SOL     OW14539   2.870   1.456  11.649
 4658SOL    HW114540   2.824   1.528  11.597
 4658SOL    HW214541   2.866   1.476  11.747
 4659SOL     OW14542   2.213   1.801  12.025
 4659SOL    HW114543   2.263   1.715  12.031
 4659SOL    HW214544   2.278   1.878  12.022
 4660SOL     OW14545   3.657   1.066  12.045
 4660SOL    HW114546   3.595   1.051  11.969
 4660SOL    HW214547   3.605   1.077  12.130
 4661SOL     OW14548   3.089   1.550  12.678
 4661SOL    HW114549   3.095   1.473  12.742
 4661SOL    HW214550   3.037   1.524  12.598
 4662SOL     OW14551   2.183   0.943  11.414
 4662SOL    HW114552   2.265   0.982  11.372
 4662SOL    HW214553   2.156   0.861  11.365
 4663SOL     OW14554   3.320   0.735  11.900
 4663SOL    HW114555   3.315   0.670  11.975
 4663SOL    HW214556   3.400   0.794  11.913
 4664SOL     OW14557   2.323   1.266  12.899
 4664SOL    HW114558   2.273   1.267  12.813
 4664SOL    HW214559   2.260   1.248  12.975
 4665SOL     OW14560   2.973   1.776  11.409
 4665SOL    HW114561   2.913   1.714  11.459
 4665SOL    HW214562   3.004   1.732  11.324
 4666SOL     OW14563   2.064   0.285  12.670
 4666SOL    HW114564   1.984   0.345  12.657
 4666SOL    HW214565   2.054   0.236  12.756
 4667SOL     OW14566   3.494   1.377  11.253
 4667SOL    HW114567   3.462   1.471  11.243
 4667SOL    HW214568   3.418   1.314  11.241
 4668SOL     OW14569   2.326   1.743  11.495
 4668SOL    HW114570   2.359   1.782  11.581
 4668SOL    HW214571   2.402   1.736  11.430
 4669SOL     OW14572   3.262   0.107  11.598
 4669SOL    HW114573   3.238   0.070  11.508
 4669SOL    HW214574   3.361   0.123  11.602
 4670SOL     OW14575   2.111   1.785  12.413
 4670SOL    HW114576   2.168   1.720  12.463
 4670SOL    HW214577   2.095   1.752  12.320
 4671SOL     OW14578   2.802   1.698  12.076
 4671SOL    HW114579   2.882   1.641  12.097
 4671SOL    HW214580   2.753   1.658  11.999
 4672SOL     OW14581   2.244   0.700  11.652
 4672SOL    HW114582   2.289   0.610  11.649
 4672SOL    HW214583   2.150   0.689  11.685
 4673SOL     OW14584   3.409   0.222  12.901
 4673SOL    HW114585   3.404   0.259  12.993
 4673SOL    HW214586   3.337   0.153  12.889
 4674SOL     OW14587   2.476   0.122  11.289
 4674SOL    HW114588   2.574   0.100  11.296
 4674SOL    HW214589   2.445   0.105  11.196
 4675SOL     OW14590   2.643   0.264  12.921
 4675SOL    HW114591   2.710   0.203  12.964
 4675SOL    HW214592   2.570   0.283  12.986
 4676SOL     OW14593   2.750   1.514  12.367
 4676SOL    HW114594   2.727   1.489  12.273
 4676SOL    HW214595   2.811   1.445  12.406
 4677SOL     OW14596   3.213   0.590  12.605
 4677SOL    HW114597   3.241   0.547  12.690
 4677SOL    HW214598   3.238   0.686  12.606
 4678SOL     OW14599   2.665   1.402  12.096
 4678SOL    HW114600   2.755   1.416  12.054
 4678SOL    HW214601   2.594   1.404  12.025
 4679SOL     OW14602   2.784   0.503  12.071
 4679SOL    HW114603   2.759   0.494  11.975
 4679SOL    HW214604   2.832   0.421  12.102
 4680SOL     OW14605   2.401   0.064  11.684
 4680SOL    HW114606   2.320   0.065  11.742
 4680SOL    HW214607   2.404   0.147  11.629
 4681SOL     OW14608   3.296   1.188  11.213
 4681SOL    HW114609   3.328   1.112  11.270
 4681SOL    HW214610   3.204   1.215  11.243
 4682SOL     OW14611   2.159   0.035  11.343
 4682SOL    HW114612   2.208   0.119  11.322
 4682SOL    HW214613   2.221  -0.030  11.388
 4683SOL     OW14614   2.797   0.236  11.652
 4683SOL    HW114615   2.749   0.277  11.574
 4683SOL    HW214616   2.896   0.234  11.633
 4684SOL     OW14617   2.938   0.683  12.636
 4684SOL    HW114618   2.858   0.622  12.639
 4684SOL    HW214619   3.019   0.630  12.612
 4685SOL     OW14620   3.089   1.570  11.965
 4685SOL    HW114621   3.110   1.644  11.900
 4685SOL    HW214622   3.157   1.570  12.038
 4686SOL     OW14623   2.321   1.152  11.913
 4686SOL    HW114624   2.250   1.125  11.978
 4686SOL    HW214625   2.295   1.124  11.820
 4687SOL     OW14626   3.133   1.797  11.763
 4687SOL    HW114627   3.177   1.861  11.699
 4687SOL    HW214628   3.083   1.849  11.833
 4688SOL     OW14629   2.894   0.549  11.188
 4688SOL    HW114630   2.853   0.631  11.149
 4688SOL    HW214631   2.958   0.575  11.261
 4689SOL     OW14632   1.940   0.556  12.558
 4689SOL    HW114633   2.032   0.555  12.517
 4689SOL    HW214634   1.934   0.630  12.625
 4690SOL     OW14635   2.423   0.222  12.319
 4690SOL    HW114636   2.461   0.138  12.356
 4690SOL    HW214637   2.335   0.241  12.363
 4691SOL     OW14638   2.728   0.454  11.814
 4691SOL    HW114639   2.696   0.526  11.752
 4691SOL    HW214640   2.752   0.373  11.761
 4692SOL     OW14641   2.879   0.039  11.925
 4692SOL    HW114642   2.807   0.044  11.856
 4692SOL    HW214643   2.855  -0.030  11.994
 4693SOL     OW14644   3.291   1.173  12.039
 4693SOL    HW114645   3.236   1.089  12.032
 4693SOL    HW214646   3.317   1.202  11.947
 4694SOL     OW14647   3.328   0.590  12.164
 4694SOL    HW114648   3.298   0.495  12.171
 4694SOL    HW214649   3.401   0.606  12.230
 4695SOL     OW14650   3.719   0.833  11.549
 4695SOL    HW114651   3.761   0.769  11.613
 4695SOL    HW214652   3.681   0.782  11.471
 4696SOL     OW14653   2.350   1.385  11.346
 4696SOL    HW114654   2.263   1.370  11.393
 4696SOL    HW214655   2.333   1.411  11.251
 4697SOL     OW14656   3.526   1.280  11.829
 4697SOL    HW114657   3.625   1.288  11.843
 4697SOL    HW214658   3.481   1.364  11.860
 4698SOL     OW14659   3.252   0.575  11.250
 4698SOL    HW114660   3.198   0.554  11.331
 4698SOL    HW214661   3.343   0.534  11.259
 4699SOL     OW14662   2.389   0.256  11.500
 4699SOL    HW114663   2.416   0.197  11.425
 4699SOL    HW214664   2.389   0.351  11.469
 4700SOL     OW14665   3.616   1.223  12.760
 4700SOL    HW114666   3.707   1.184  12.747
 4700SOL    HW214667   3.624   1.319  12.784
 4701SOL     OW14668   2.926   1.347  12.512
 4701SOL    HW114669   2.846   1.324  12.567
 4701SOL    HW214670   3.009   1.321  12.561
 4702SOL     OW14671   3.454   1.629  12.797
 4702SOL    HW114672   3.481   1.663  12.707
 4702SOL    HW214673   3.533   1.591  12.843
 4703SOL     OW14674   2.973   1.195  12.272
 4703SOL    HW114675   2.933   1.239  12.353
 4703SOL    HW214676   2.932   1.232  12.189
 4704SOL     OW14677   3.500   1.099  12.251
 4704SOL    HW114678   3.505   1.180  12.310
 4704SOL    HW214679   3.414   1.101  12.200
 4705SOL     OW14680   2.777   0.089  12.574
 4705SOL    HW114681   2.802   0.069  12.479
 4705SOL    HW214682   2.849   0.145  12.616
 4706SOL     OW14683   2.842   1.116  12.891
 4706SOL    HW114684   2.743   1.122  12.901
 4706SOL    HW214685   2.865   1.036  12.835
 4707SOL     OW14686   2.567   1.050  11.540
 4707SOL    HW114687   2.553   1.057  11.639
 4707SOL    HW214688   2.651   0.999  11.522
 4708SOL     OW14689   2.272   0.813  12.423
 4708SOL    HW114690   2.358   0.825  12.473
 4708SOL    HW214691   2.230   0.726  12.450
 4709SOL     OW14692   3.136   0.386  12.434
 4709SOL    HW114693   3.157   0.460  12.498
 4709SOL    HW214694   3.047   0.403  12.391
 4710SOL     OW14695   1.926   1.564  12.503
 4710SOL    HW114696   1.880   1.646  12.469
 4710SOL    HW214697   2.024   1.583  12.512
 4711SOL     OW14698   2.229   1.100  11.673
 4711SOL    HW114699   2.222   1.183  11.617
 4711SOL    HW214700   2.233   1.020  11.613
 4712SOL     OW14701   2.428   0.537  12.037
 4712SOL    HW114702   2.440   0.603  11.963
 4712SOL    HW214703   2.474   0.571  12.120
 4713SOL     OW14704   3.114   1.348  11.560
 4713SOL    HW114705   3.164   1.425  11.600
 4713SOL    HW214706   3.019   1.350  11.592
 4714SOL     OW14707   3.134   1.445  12.314
 4714SOL    HW114708   3.181   1.458  12.401
 4714SOL    HW214709   3.068   1.371  12.323
 4715SOL     OW14710   3.444   0.639  11.644
 4715SOL    HW114711   3.413   0.700  11.717
 4715SOL    HW214712   3.494   0.691  11.575
 4716SOL     OW14713   2.216   1.510  12.501
 4716SOL    HW114714   2.195   1.466  12.414
 4716SOL    HW214715   2.313   1.536  12.504
 4717SOL     OW14716   2.264   0.751  12.770
 4717SOL    HW114717   2.332   0.806  12.723
 4717SOL    HW214718   2.304   0.663  12.797
 4718SOL     OW14719   3.449   0.779  12.842
 4718SOL    HW114720   3.357   0.817  12.837
 4718SOL    HW214721   3.509   0.826  12.777
 4719SOL     OW14722   2.875   0.105  12.942
 4719SOL    HW114723   2.881   0.190  12.890
 4719SOL    HW214724   2.907   0.029  12.885
 4720SOL     OW14725   2.366   0.050  12.912
 4720SOL    HW114726   2.324  -0.007  12.842
 4720SOL    HW214727   2.300   0.119  12.944
 4721SOL     OW14728   2.435   0.870  12.201
 4721SOL    HW114729   2.479   0.959  12.192
 4721SOL    HW214730   2.372   0.870  12.278
 4722SOL     OW14731   3.222   0.862  12.217
 4722SOL    HW114732   3.147   0.862  12.151
 4722SOL    HW214733   3.259   0.770  12.226
 4723SOL     OW14734   3.071   0.525  11.447
 4723SOL    HW114735   3.084   0.441  11.501
 4723SOL    HW214736   3.042   0.599  11.507
 4724SOL     OW14737   2.169   0.213  12.403
 4724SOL    HW114738   2.146   0.250  12.493
 4724SOL    HW214739   2.139   0.118  12.397
 4725SOL     OW14740   1.899   1.310  12.454
 4725SOL    HW114741   1.952   1.261  12.522
 4725SOL    HW214742   1.921   1.408  12.459
 4726SOL     OW14743   2.594   0.634  12.236
 4726SOL    HW114744   2.653   0.608  12.160
 4726SOL    HW214745   2.566   0.730  12.225
 4727SOL     OW14746   3.590   0.935  13.026
 4727SOL    HW114747   3.544   0.928  12.937
 4727SOL    HW214748   3.528   0.979  13.092
 4728SOL     OW14749   2.169   0.063  11.790
 4728SOL    HW114750   2.158   0.157  11.823
 4728SOL    HW214751   2.164   0.000  11.867
 4729SOL     OW14752   3.484   0.367  11.546
 4729SOL    HW114753   3.486   0.291  11.610
 4729SOL    HW214754   3.436   0.444  11.586
 4730SOL     OW14755   2.885   0.766  12.138
 4730SOL    HW114756   2.900   0.787  12.234
 4730SOL    HW214757   2.855   0.671  12.129
 4731SOL     OW14758   2.842   1.573  12.872
 4731SOL    HW114759   2.822   1.617  12.784
 4731SOL    HW214760   2.881   1.482  12.856
 4732SOL     OW14761   3.721   1.518  12.777
 4732SOL    HW114762   3.735   1.545  12.682
 4732SOL    HW214763   3.804   1.540  12.830
 4733SOL     OW14764   2.212   0.898  12.976
 4733SOL    HW114765   2.288   0.942  13.024
 4733SOL    HW214766   2.247   0.851  12.894
 4734SOL     OW14767   3.402   0.274  11.297
 4734SOL    HW114768   3.341   0.199  11.320
 4734SOL    HW214769   3.424   0.326  11.380
 4735SOL     OW14770   3.165   0.838  11.214
 4735SOL    HW114771   3.199   0.745  11.229
 4735SOL    HW214772   3.183   0.865  11.119
 4736SOL     OW14773   2.930   1.333  12.021
 4736SOL    HW114774   2.937   1.249  11.966
 4736SOL    HW214775   2.992   1.402  11.985
 4737SOL     OW14776   2.181   0.810  12.121
 4737SOL    HW114777   2.274   0.846  12.126
 4737SOL    HW214778   2.175   0.725  12.173
 4738SOL     OW14779   2.201   0.509  12.178
 4738SOL    HW114780   2.149   0.426  12.161
 4738SOL    HW214781   2.278   0.514  12.114
 4739SOL     OW14782   3.000   0.380  12.850
 4739SOL    HW114783   2.955   0.443  12.914
 4739SOL    HW214784   3.093   0.411  12.833
 4740SOL     OW14785   3.022   0.207  12.649
 4740SOL    HW114786   3.022   0.271  12.726
 4740SOL    HW214787   3.050   0.255  12.566
 4741SOL     OW14788   1.870   1.326  11.372
 4741SOL    HW114789   1.777   1.347  11.341
 4741SOL    HW214790   1.880   1.227  11.385
 4742SOL     OW14791   1.950   1.801  12.099
 4742SOL    HW114792   1.908   1.715  12.072
 4742SOL    HW214793   2.044   1.804  12.065
 4743SOL     OW14794   2.366   1.568  12.082
 4743SOL    HW114795   2.432   1.642  12.091
 4743SOL    HW214796   2.410   1.489  12.040
 4744SOL     OW14797   2.864   0.796  12.410
 4744SOL    HW114798   2.905   0.764  12.496
 4744SOL    HW214799   2.768   0.769  12.407
 4745SOL     OW14800   1.902   0.544  12.286
 4745SOL    HW114801   1.987   0.511  12.245
 4745SOL    HW214802   1.915   0.559  12.384
 4746SOL     OW14803   2.051   0.520  12.894
 4746SOL    HW114804   2.110   0.480  12.824
 4746SOL    HW214805   1.993   0.591  12.853
 4747SOL     OW14806   3.231   0.950  12.832
 4747SOL    HW114807   3.270   1.039  12.852
 4747SOL    HW214808   3.241   0.930  12.735
 4748SOL     OW14809   2.677   0.572  11.497
 4748SOL    HW114810   2.684   0.483  11.451
 4748SOL    HW214811   2.583   0.606  11.489
 4749SOL     OW14812   3.519   0.604  12.378
 4749SOL    HW114813   3.481   0.535  12.440
 4749SOL    HW214814   3.601   0.568  12.334
 4750SOL     OW14815   2.114   1.564  12.916
 4750SOL    HW114816   2.084   1.621  12.992
 4750SOL    HW214817   2.107   1.467  12.942
 4751SOL     OW14818   2.533   0.464  12.441
 4751SOL    HW114819   2.499   0.375  12.411
 4751SOL    HW214820   2.559   0.518  12.361
 4752SOL     OW14821   2.792   1.678  12.637
 4752SOL    HW114822   2.768   1.660  12.542
 4752SOL    HW214823   2.822   1.772  12.647
 4753SOL     OW14824   2.335   0.500  11.363
 4753SOL    HW114825   2.396   0.580  11.367
 4753SOL    HW214826   2.240   0.531  11.370
 4754SOL     OW14827   2.021   1.137  12.638
 4754SOL    HW114828   2.043   1.076  12.714
 4754SOL    HW214829   2.031   1.088  12.552
 4755SOL     OW14830   3.209   1.059  12.406
 4755SOL    HW114831   3.233   0.996  12.332
 4755SOL    HW214832   3.119   1.099  12.388
 4756SOL     OW14833   3.164   0.855  11.481
 4756SOL    HW114834   3.078   0.824  11.523
 4756SOL    HW214835   3.160   0.841  11.382
 4757SOL     OW14836   3.621   1.747  12.326
 4757SOL    HW114837   3.682   1.777  12.253
 4757SOL    HW214838   3.583   1.658  12.304
 4758SOL     OW14839   3.114   1.731  12.300
 4758SOL    HW114840   3.198   1.736  12.246
 4758SOL    HW214841   3.091   1.635  12.318
 4759SOL     OW14842   1.945   1.258  12.194
 4759SOL    HW114843   1.940   1.257  12.294
 4759SOL    HW214844   1.862   1.217  12.156
 4760SOL     OW14845   2.550   1.662  12.888
 4760SOL    HW114846   2.494   1.743  12.897
 4760SOL    HW214847   2.602   1.666  12.802
 4761SOL     OW14848   3.588   0.135  11.695
 4761SOL    HW114849   3.661   0.118  11.628
 4761SOL    HW214850   3.557   0.048  11.733
 4762SOL     OW14851   3.250   1.573  11.649
 4762SOL    HW114852   3.317   1.585  11.575
 4762SOL    HW214853   3.210   1.662  11.672
 4763SOL     OW14854   1.992   1.794  13.023
 4763SOL    HW114855   1.951   1.720  13.076
 4763SOL    HW214856   2.056   1.845  13.081
 4764SOL     OW14857   3.142   0.927  11.844
 4764SOL    HW114858   3.202   0.846  11.846
 4764SOL    HW214859   3.182   0.996  11.784
 4765SOL     OW14860   2.692   1.273  12.594
 4765SOL    HW114861   2.687   1.306  12.689
 4765SOL    HW214862   2.606   1.292  12.548
 4766SOL     OW14863   2.534   1.616  11.326
 4766SOL    HW114864   2.543   1.626  11.227
 4766SOL    HW214865   2.494   1.527  11.347
 4767SOL     OW14866   3.512   1.720  12.566
 4767SOL    HW114867   3.565   1.730  12.482
 4767SOL    HW214868   3.485   1.810  12.600
 4768SOL     OW14869   3.703   0.175  12.135
 4768SOL    HW114870   3.742   0.090  12.099
 4768SOL    HW214871   3.605   0.177  12.116
 4769SOL     OW14872   2.125   0.326  11.892
 4769SOL    HW114873   2.046   0.377  11.858
 4769SOL    HW214874   2.116   0.311  11.990
 4770SOL     OW14875   3.056   1.612  11.203
 4770SOL    HW114876   3.062   1.519  11.240
 4770SOL    HW214877   2.997   1.612  11.123
 4771SOL     OW14878   2.684   1.002  12.544
 4771SOL    HW114879   2.724   1.001  12.452
 4771SOL    HW214880   2.694   1.094  12.584
 4772SOL     OW14881   2.778   0.910  11.463
 4772SOL    HW114882   2.841   0.948  11.395
 4772SOL    HW214883   2.818   0.827  11.502
 4773SOL     OW14884   3.366   1.607  11.216
 4773SOL    HW114885   3.274   1.644  11.223
 4773SOL    HW214886   3.404   1.627  11.126
 4774SOL     OW14887   2.234   1.288  12.662
 4774SOL    HW114888   2.221   1.381  12.628
 4774SOL    HW214889   2.150   1.236  12.649
 4775SOL     OW14890   3.476   1.292  12.461
 4775SOL    HW114891   3.536   1.295  12.541
 4775SOL    HW214892   3.401   1.356  12.474
 4776SOL     OW14893   2.901   1.098  11.868
 4776SOL    HW114894   2.831   1.051  11.922
 4776SOL    HW214895   2.960   1.030  11.825
 4777SOL     OW14896   2.876   0.236  12.143
 4777SOL    HW114897   2.868   0.200  12.050
 4777SOL    HW214898   2.874   0.160  12.208
 4778SOL     OW14899   2.452   1.487  11.663
 4778SOL    HW114900   2.494   1.429  11.593
 4778SOL    HW214901   2.408   1.566  11.619
 4779SOL     OW14902   3.571   0.385  12.553
 4779SOL    HW114903   3.644   0.454  12.557
 4779SOL    HW214904   3.599   0.310  12.494
 4780SOL     OW14905   2.117   1.348  11.462
 4780SOL    HW114906   2.021   1.349  11.435
 4780SOL    HW214907   2.129   1.401  11.546
 4781SOL     OW14908   1.967   1.013  12.898
 4781SOL    HW114909   1.890   0.980  12.952
 4781SOL    HW214910   2.052   0.983  12.940
 4782SOL     OW14911   2.534   0.203  12.661
 4782SOL    HW114912   2.624   0.187  12.621
 4782SOL    HW214913   2.542   0.208  12.760
 4783SOL     OW14914   1.937   0.345  11.205
 4783SOL    HW114915   1.845   0.317  11.176
 4783SOL    HW214916   1.968   0.422  11.149
 4784SOL     OW14917   3.302   0.856  12.570
 4784SOL    HW114918   3.245   0.908  12.507
 4784SOL    HW214919   3.398   0.868  12.546
 4785SOL     OW14920   1.934   0.166  11.490
 4785SOL    HW114921   1.917   0.249  11.436
 4785SOL    HW214922   2.024   0.129  11.468
 4786SOL     OW14923   3.045   1.335  11.291
 4786SOL    HW114924   2.946   1.324  11.293
 4786SOL    HW214925   3.079   1.350  11.384
 4787SOL     OW14926   2.475   0.842  12.603
 4787SOL    HW114927   2.531   0.923  12.586
 4787SOL    HW214928   2.534   0.762  12.606
 4788SOL     OW14929   3.355   1.767  12.131
 4788SOL    HW114930   3.388   1.831  12.062
 4788SOL    HW214931   3.421   1.761  12.206
 4789SOL     OW14932   2.578   0.565  12.880
 4789SOL    HW114933   2.597   0.630  12.954
 4789SOL    HW214934   2.638   0.485  12.889
 4790SOL     OW14935   3.312   1.220  12.805
 4790SOL    HW114936   3.303   1.210  12.904
 4790SOL    HW214937   3.408   1.213  12.779
 4791SOL     OW14938   2.252   1.741  12.732
 4791SOL    HW114939   2.161   1.782  12.730
 4791SOL    HW214940   2.245   1.647  12.764
 4792SOL     OW14941   3.536   0.883  12.426
 4792SOL    HW114942   3.509   0.794  12.389
 4792SOL    HW214943   3.537   0.951  12.353
 4793SOL     OW14944   3.087   0.325  11.621
 4793SOL    HW114945   3.152   0.251  11.610
 4793SOL    HW214946   3.107   0.375  11.705
 4794SOL     OW14947   2.456   0.745  11.824
 4794SOL    HW114948   2.506   0.830  11.805
 4794SOL    HW214949   2.368   0.747  11.776
 4795SOL     OW14950   3.639   0.342  12.814
 4795SOL    HW114951   3.622   0.373  12.720
 4795SOL    HW214952   3.555   0.305  12.852
 4796SOL     OW14953   3.592   0.934  12.689
 4796SOL    HW114954   3.630   1.025  12.704
 4796SOL    HW214955   3.584   0.917  12.590
 4797SOL     OW14956   2.721   1.374  11.188
 4797SOL    HW114957   2.675   1.389  11.276
 4797SOL    HW214958   2.765   1.459  11.158
 4798SOL     OW14959   2.523   1.790  12.125
 4798SOL    HW114960   2.477   1.878  12.112
 4798SOL    HW214961   2.622   1.802  12.118
 4799SOL     OW14962   2.721   0.956  12.033
 4799SOL    HW114963   2.775   0.887  12.081
 4799SOL    HW214964   2.689   1.025  12.099
 4800SOL     OW14965   2.945   0.984  11.259
 4800SOL    HW114966   2.922   1.037  11.177
 4800SOL    HW214967   3.026   0.928  11.240
 4801SOL     OW14968   3.723   1.569  12.023
 4801SOL    HW114969   3.652   1.557  11.953
 4801SOL    HW214970   3.724   1.490  12.083
 4802SOL     OW14971   2.083   1.314  13.016
 4802SOL    HW114972   2.018   1.241  12.995
 4802SOL    HW214973   2.087   1.328  13.114
 4803SOL     OW14974   1.941   1.240  11.825
 4803SOL    HW114975   1.940   1.193  11.913
 4803SOL    HW214976   2.023   1.212  11.774
 4804SOL     OW14977   2.534   1.391  12.796
 4804SOL    HW114978   2.456   1.341  12.834
 4804SOL    HW214979   2.531   1.486  12.827
 4805SOL     OW14980   3.686   0.192  12.399
 4805SOL    HW114981   3.682   0.102  12.443
 4805SOL    HW214982   3.689   0.181  12.300
 4806SOL     OW14983   2.290   0.424  11.692
 4806SOL    HW114984   2.320   0.352  11.630
 4806SOL    HW214985   2.251   0.384  11.775
 4807SOL     OW14986   3.567   1.487  12.276
 4807SOL    HW114987   3.474   1.462  12.249
 4807SOL    HW214988   3.593   1.437  12.358
 4808SOL     OW14989   2.179   0.547  12.452
 4808SOL    HW114990   2.217   0.488  12.524
 4808SOL    HW214991   2.219   0.521  12.364
 4809SOL     OW14992   2.674   1.586  11.859
 4809SOL    HW114993   2.706   1.596  11.765
 4809SOL    HW214994   2.595   1.524  11.861
 4810SOL     OW14995   3.286   0.214  12.284
 4810SOL    HW114996   3.338   0.149  12.339
 4810SOL    HW214997   3.237   0.277  12.345
 4811SOL     OW14998   2.863   0.034  12.326
 4811SOL    HW114999   2.800  -0.038  12.295
 4811SOL    HW215000   2.956  -0.002  12.326
 4812SOL     OW15001   2.632   1.330  11.473
 4812SOL    HW115002   2.586   1.243  11.490
 4812SOL    HW215003   2.723   1.327  11.514
 4813SOL     OW15004   2.480   1.567  12.456
 4813SOL    HW115005   2.475   1.649  12.513
 4813SOL    HW215006   2.569   1.564  12.411
 4814SOL     OW15007   3.214   0.052  11.340
 4814SOL    HW115008   3.249   0.011  11.256
 4814SOL    HW215009   3.124   0.014  11.360
 4815SOL     OW15010   3.162   0.453  11.863
 4815SOL    HW115011   3.103   0.533  11.867
 4815SOL    HW215012   3.177   0.418  11.956
 4816SOL     OW15013   3.455   0.221  12.054
 4816SOL    HW115014   3.371   0.220  12.108
 4816SOL    HW215015   3.457   0.304  11.998
 4817SOL     OW15016   1.901   1.077  11.472
 4817SOL    HW115017   2.000   1.066  11.463
 4817SOL    HW215018   1.861   0.991  11.504
 4818SOL     OW15019   2.737   1.646  11.509
 4818SOL    HW115020   2.660   1.611  11.455
 4818SOL    HW215021   2.705   1.717  11.571
 4819SOL     OW15022   2.092   0.628  13.147
 4819SOL    HW115023   1.999   0.626  13.184
 4819SOL    HW215024   2.093   0.589  13.055
 4820SOL     OW15025   2.087   0.275  14.030
 4820SOL    HW115026   2.122   0.258  14.122
 4820SOL    HW215027   1.999   0.230  14.018
 4821SOL     OW15028   1.881   0.368  13.681
 4821SOL    HW115029   1.799   0.411  13.720
 4821SOL    HW215030   1.853   0.295  13.618
 4822SOL     OW15031   3.417   1.511  13.737
 4822SOL    HW115032   3.360   1.495  13.818
 4822SOL    HW215033   3.358   1.521  13.657
 4823SOL     OW15034   2.997   0.703  13.751
 4823SOL    HW115035   3.054   0.781  13.726
 4823SOL    HW215036   2.937   0.729  13.827
 4824SOL     OW15037   3.617   0.607  13.265
 4824SOL    HW115038   3.605   0.594  13.166
 4824SOL    HW215039   3.587   0.526  13.314
 4825SOL     OW15040   2.547   1.012  13.699
 4825SOL    HW115041   2.616   0.996  13.769
 4825SOL    HW215042   2.474   1.069  13.737
 4826SOL     OW15043   3.465   0.447  13.771
 4826SOL    HW115044   3.391   0.493  13.721
 4826SOL    HW215045   3.516   0.515  13.824
 4827SOL     OW15046   2.093   1.713  13.517
 4827SOL    HW115047   2.127   1.790  13.571
 4827SOL    HW215048   2.137   1.713  13.427
 4828SOL     OW15049   2.092   1.434  13.572
 4828SOL    HW115050   2.066   1.530  13.572
 4828SOL    HW215051   2.021   1.380  13.617
 4829SOL     OW15052   2.102   1.091  13.920
 4829SOL    HW115053   2.116   1.007  13.972
 4829SOL    HW215054   2.047   1.155  13.975
 4830SOL     OW15055   2.468   0.964  13.157
 4830SOL    HW115056   2.475   1.048  13.103
 4830SOL    HW215057   2.514   0.977  13.245
 4831SOL     OW15058   1.984   0.643  13.597
 4831SOL    HW115059   1.939   0.555  13.614
 4831SOL    HW215060   1.983   0.697  13.681
 4832SOL     OW15061   3.704   1.767  13.393
 4832SOL    HW115062   3.758   1.738  13.473
 4832SOL    HW215063   3.734   1.857  13.364
 4833SOL     OW15064   1.889   1.596  13.151
 4833SOL    HW115065   1.870   1.500  13.172
 4833SOL    HW215066   1.856   1.654  13.226
 4834SOL     OW15067   3.551   0.922  13.646
 4834SOL    HW115068   3.646   0.893  13.654
 4834SOL    HW215069   3.543   0.987  13.571
 4835SOL     OW15070   3.503   1.108  13.466
 4835SOL    HW115071   3.589   1.110  13.414
 4835SOL    HW215072   3.517   1.155  13.554
 4836SOL     OW15073   2.475   1.365  13.760
 4836SOL    HW115074   2.426   1.278  13.769
 4836SOL    HW215075   2.452   1.408  13.673
 4837SOL     OW15076   2.671   0.004  13.536
 4837SOL    HW115077   2.711   0.095  13.527
 4837SOL    HW215078   2.571   0.012  13.542
 4838SOL     OW15079   3.387   0.999  13.224
 4838SOL    HW115080   3.324   0.923  13.237
 4838SOL    HW215081   3.435   1.017  13.310
 4839SOL     OW15082   3.529   1.714  13.606
 4839SOL    HW115083   3.488   1.691  13.518
 4839SOL    HW215084   3.511   1.640  13.671
 4840SOL     OW15085   2.460   0.729  13.304
 4840SOL    HW115086   2.484   0.798  13.236
 4840SOL    HW215087   2.382   0.762  13.358
 4841SOL     OW15088   3.143   0.345  13.978
 4841SOL    HW115089   3.057   0.295  13.965
 4841SOL    HW215090   3.205   0.291  14.034
 4842SOL     OW15091   3.438   1.662  13.341
 4842SOL    HW115092   3.527   1.708  13.344
 4842SOL    HW215093   3.417   1.638  13.246
 4843SOL     OW15094   2.903   0.701  13.463
 4843SOL    HW115095   2.929   0.697  13.559
 4843SOL    HW215096   2.818   0.650  13.449
 4844SOL     OW15097   1.938   0.811  13.823
 4844SOL    HW115098   2.037   0.799  13.832
 4844SOL    HW215099   1.914   0.906  13.844
 4845SOL     OW15100   2.727   0.348  13.229
 4845SOL    HW115101   2.786   0.411  13.180
 4845SOL    HW215102   2.746   0.254  13.200
 4846SOL     OW15103   3.224   1.144  13.579
 4846SOL    HW115104   3.307   1.115  13.531
 4846SOL    HW215105   3.175   1.211  13.523
 4847SOL     OW15106   2.870   1.456  13.511
 4847SOL    HW115107   2.824   1.528  13.459
 4847SOL    HW215108   2.866   1.476  13.609
 4848SOL     OW15109   2.213   1.801  13.887
 4848SOL    HW115110   2.263   1.715  13.893
 4848SOL    HW215111   2.278   1.878  13.884
 4849SOL     OW15112   3.657   1.066  13.907
 4849SOL    HW115113   3.595   1.051  13.831
 4849SOL    HW215114   3.605   1.077  13.992
 4850SOL     OW15115   2.183   0.943  13.276
 4850SOL    HW115116   2.265   0.982  13.234
 4850SOL    HW215117   2.156   0.861  13.227
 4851SOL     OW15118   3.320   0.735  13.762
 4851SOL    HW115119   3.315   0.670  13.837
 4851SOL    HW215120   3.400   0.794  13.775
 4852SOL     OW15121   2.973   1.776  13.271
 4852SOL    HW115122   2.913   1.714  13.321
 4852SOL    HW215123   3.004   1.732  13.186
 4853SOL     OW15124   3.494   1.377  13.115
 4853SOL    HW115125   3.462   1.471  13.105
 4853SOL    HW215126   3.418   1.314  13.103
 4854SOL     OW15127   2.326   1.743  13.357
 4854SOL    HW115128   2.359   1.782  13.443
 4854SOL    HW215129   2.402   1.736  13.292
 4855SOL     OW15130   3.262   0.107  13.460
 4855SOL    HW115131   3.238   0.070  13.370
 4855SOL    HW215132   3.361   0.123  13.464
 4856SOL     OW15133   2.802   1.698  13.938
 4856SOL    HW115134   2.882   1.641  13.959
 4856SOL    HW215135   2.753   1.658  13.861
 4857SOL     OW15136   2.244   0.700  13.514
 4857SOL    HW115137   2.289   0.610  13.511
 4857SOL    HW215138   2.150   0.689  13.547
 4858SOL     OW15139   2.476   0.122  13.151
 4858SOL    HW115140   2.574   0.100  13.158
 4858SOL    HW215141   2.445   0.105  13.058
 4859SOL     OW15142   2.401   0.064  13.546
 4859SOL    HW115143   2.320   0.065  13.604
 4859SOL    HW215144   2.404   0.147  13.491
 4860SOL     OW15145   3.296   1.188  13.075
 4860SOL    HW115146   3.328   1.112  13.132
 4860SOL    HW215147   3.204   1.215  13.105
 4861SOL     OW15148   2.159   0.035  13.205
 4861SOL    HW115149   2.208   0.119  13.184
 4861SOL    HW215150   2.221  -0.030  13.250
 4862SOL     OW15151   2.797   0.236  13.514
 4862SOL    HW115152   2.749   0.277  13.436
 4862SOL    HW215153   2.896   0.234  13.495
 4863SOL     OW15154   2.321   1.152  13.775
 4863SOL    HW115155   2.250   1.125  13.840
 4863SOL    HW215156   2.295   1.124  13.682
 4864SOL     OW15157   3.133   1.797  13.625
 4864SOL    HW115158   3.177   1.861  13.561
 4864SOL    HW215159   3.083   1.849  13.695
 4865SOL     OW15160   2.894   0.549  13.050
 4865SOL    HW115161   2.853   0.631  13.011
 4865SOL    HW215162   2.958   0.575  13.123
 4866SOL     OW15163   2.728   0.454  13.676
 4866SOL    HW115164   2.696   0.526  13.614
 4866SOL    HW215165   2.752   0.373  13.623
 4867SOL     OW15166   2.879   0.039  13.787
 4867SOL    HW115167   2.807   0.044  13.718
 4867SOL    HW215168   2.855  -0.030  13.856
 4868SOL     OW15169   3.719   0.833  13.411
 4868SOL    HW115170   3.761   0.769  13.475
 4868SOL    HW215171   3.681   0.782  13.333
 4869SOL     OW15172   2.350   1.385  13.208
 4869SOL    HW115173   2.263   1.370  13.255
 4869SOL    HW215174   2.333   1.411  13.113
 4870SOL     OW15175   3.526   1.280  13.691
 4870SOL    HW115176   3.625   1.288  13.705
 4870SOL    HW215177   3.481   1.364  13.722
 4871SOL     OW15178   3.252   0.575  13.112
 4871SOL    HW115179   3.198   0.554  13.193
 4871SOL    HW215180   3.343   0.534  13.121
 4872SOL     OW15181   2.389   0.256  13.362
 4872SOL    HW115182   2.416   0.197  13.287
 4872SOL    HW215183   2.389   0.351  13.331
 4873SOL     OW15184   2.567   1.050  13.402
 4873SOL    HW115185   2.553   1.057  13.501
 4873SOL    HW215186   2.651   0.999  13.384
 4874SOL     OW15187   2.229   1.100  13.535
 4874SOL    HW115188   2.222   1.183  13.479
 4874SOL    HW215189   2.233   1.020  13.475
 4875SOL     OW15190   2.428   0.537  13.899
 4875SOL    HW115191   2.440   0.603  13.825
 4875SOL    HW215192   2.474   0.571  13.982
 4876SOL     OW15193   3.114   1.348  13.422
 4876SOL    HW115194   3.164   1.425  13.462
 4876SOL    HW215195   3.019   1.350  13.454
 4877SOL     OW15196   3.444   0.639  13.506
 4877SOL    HW115197   3.413   0.700  13.579
 4877SOL    HW215198   3.494   0.691  13.437
 4878SOL     OW15199   3.071   0.525  13.309
 4878SOL    HW115200   3.084   0.441  13.363
 4878SOL    HW215201   3.042   0.599  13.369
 4879SOL     OW15202   2.169   0.063  13.652
 4879SOL    HW115203   2.158   0.157  13.685
 4879SOL    HW215204   2.164   0.000  13.729
 4880SOL     OW15205   3.484   0.367  13.408
 4880SOL    HW115206   3.486   0.291  13.472
 4880SOL    HW215207   3.436   0.444  13.448
 4881SOL     OW15208   3.402   0.274  13.159
 4881SOL    HW115209   3.341   0.199  13.182
 4881SOL    HW215210   3.424   0.326  13.242
 4882SOL     OW15211   3.165   0.838  13.076
 4882SOL    HW115212   3.199   0.745  13.091
 4882SOL    HW215213   3.183   0.865  12.981
 4883SOL     OW15214   1.870   1.326  13.234
 4883SOL    HW115215   1.777   1.347  13.203
 4883SOL    HW215216   1.880   1.227  13.247
 4884SOL     OW15217   2.677   0.572  13.359
 4884SOL    HW115218   2.684   0.483  13.313
 4884SOL    HW215219   2.583   0.606  13.351
 4885SOL     OW15220   2.335   0.500  13.225
 4885SOL    HW115221   2.396   0.580  13.229
 4885SOL    HW215222   2.240   0.531  13.232
 4886SOL     OW15223   3.164   0.855  13.343
 4886SOL    HW115224   3.078   0.824  13.385
 4886SOL    HW215225   3.160   0.841  13.244
 4887SOL     OW15226   3.588   0.135  13.557
 4887SOL    HW115227   3.661   0.118  13.490
 4887SOL    HW215228   3.557   0.048  13.595
 4888SOL     OW15229   3.250   1.573  13.511
 4888SOL    HW115230   3.317   1.585  13.437
 4888SOL    HW215231   3.210   1.662  13.534
 4889SOL     OW15232   3.142   0.927  13.706
 4889SOL    HW115233   3.202   0.846  13.708
 4889SOL    HW215234   3.182   0.996  13.646
 4890SOL     OW15235   2.534   1.616  13.188
 4890SOL    HW115236   2.543   1.626  13.089
 4890SOL    HW215237   2.494   1.527  13.209
 4891SOL     OW15238   3.703   0.175  13.997
 4891SOL    HW115239   3.742   0.090  13.961
 4891SOL    HW215240   3.605   0.177  13.978
 4892SOL     OW15241   2.125   0.326  13.754
 4892SOL    HW115242   2.046   0.377  13.720
 4892SOL    HW215243   2.116   0.311  13.852
 4893SOL     OW15244   3.056   1.612  13.065
 4893SOL    HW115245   3.062   1.519  13.102
 4893SOL    HW215246   2.997   1.612  12.985
 4894SOL     OW15247   2.778   0.910  13.325
 4894SOL    HW115248   2.841   0.948  13.257
 4894SOL    HW215249   2.818   0.827  13.364
 4895SOL     OW15250   3.366   1.607  13.078
 4895SOL    HW115251   3.274   1.644  13.085
 4895SOL    HW215252   3.404   1.627  12.988
 4896SOL     OW15253   2.901   1.098  13.730
 4896SOL    HW115254   2.831   1.051  13.784
 4896SOL    HW215255   2.960   1.030  13.687
 4897SOL     OW15256   2.452   1.487  13.525
 4897SOL    HW115257   2.494   1.429  13.455
 4897SOL    HW215258   2.408   1.566  13.481
 4898SOL     OW15259   2.117   1.348  13.324
 4898SOL    HW115260   2.021   1.349  13.297
 4898SOL    HW215261   2.129   1.401  13.408
 4899SOL     OW15262   1.937   0.345  13.067
 4899SOL    HW115263   1.845   0.317  13.038
 4899SOL    HW215264   1.968   0.422  13.011
 4900SOL     OW15265   1.934   0.166  13.352
 4900SOL    HW115266   1.917   0.249  13.298
 4900SOL    HW215267   2.024   0.129  13.330
 4901SOL     OW15268   3.045   1.335  13.153
 4901SOL    HW115269   2.946   1.324  13.155
 4901SOL    HW215270   3.079   1.350  13.246
 4902SOL     OW15271   3.087   0.325  13.483
 4902SOL    HW115272   3.152   0.251  13.472
 4902SOL    HW215273   3.107   0.375  13.567
 4903SOL     OW15274   2.456   0.745  13.686
 4903SOL    HW115275   2.506   0.830  13.667
 4903SOL    HW215276   2.368   0.747  13.638
 4904SOL     OW15277   2.721   1.374  13.050
 4904SOL    HW115278   2.675   1.389  13.138
 4904SOL    HW215279   2.765   1.459  13.020
 4905SOL     OW15280   2.523   1.790  13.987
 4905SOL    HW115281   2.477   1.878  13.974
 4905SOL    HW215282   2.622   1.802  13.980
 4906SOL     OW15283   2.721   0.956  13.895
 4906SOL    HW115284   2.775   0.887  13.943
 4906SOL    HW215285   2.689   1.025  13.961
 4907SOL     OW15286   2.945   0.984  13.121
 4907SOL    HW115287   2.922   1.037  13.039
 4907SOL    HW215288   3.026   0.928  13.102
 4908SOL     OW15289   1.941   1.240  13.687
 4908SOL    HW115290   1.940   1.193  13.775
 4908SOL    HW215291   2.023   1.212  13.636
 4909SOL     OW15292   2.290   0.424  13.554
 4909SOL    HW115293   2.320   0.352  13.492
 4909SOL    HW215294   2.251   0.384  13.637
 4910SOL     OW15295   3.567   1.487  14.138
 4910SOL    HW115296   3.474   1.462  14.111
 4910SOL    HW215297   3.593   1.437  14.220
 4911SOL     OW15298   2.674   1.586  13.721
 4911SOL    HW115299   2.706   1.596  13.627
 4911SOL    HW215300   2.595   1.524  13.723
 4912SOL     OW15301   2.632   1.330  13.335
 4912SOL    HW115302   2.586   1.243  13.352
 4912SOL    HW215303   2.723   1.327  13.376
 4913SOL     OW15304   3.214   0.052  13.202
 4913SOL    HW115305   3.249   0.011  13.118
 4913SOL    HW215306   3.124   0.014  13.222
 4914SOL     OW15307   3.162   0.453  13.725
 4914SOL    HW115308   3.103   0.533  13.729
 4914SOL    HW215309   3.177   0.418  13.818
 4915SOL     OW15310   1.901   1.077  13.334
 4915SOL    HW115311   2.000   1.066  13.325
 4915SOL    HW215312   1.861   0.991  13.366
 4916SOL     OW15313   2.737   1.646  13.371
 4916SOL    HW115314   2.660   1.611  13.317
 4916SOL    HW215315   2.705   1.717  13.433
 4917SOL     OW15316   2.092   2.490   0.113
 4917SOL    HW115317   1.999   2.488   0.150
 4917SOL    HW215318   2.093   2.451   0.021
 4918SOL     OW15319   1.881   2.230   0.647
 4918SOL    HW115320   1.799   2.273   0.686
 4918SOL    HW215321   1.853   2.157   0.584
 4919SOL     OW15322   2.431   3.137   1.165
 4919SOL    HW115323   2.338   3.130   1.128
 4919SOL    HW215324   2.442   3.226   1.209
 4920SOL     OW15325   3.417   3.373   0.703
 4920SOL    HW115326   3.360   3.357   0.784
 4920SOL    HW215327   3.358   3.383   0.623
 4921SOL     OW15328   2.997   2.565   0.717
 4921SOL    HW115329   3.054   2.643   0.692
 4921SOL    HW215330   2.937   2.591   0.793
 4922SOL     OW15331   3.617   2.469   0.231
 4922SOL    HW115332   3.605   2.456   0.132
 4922SOL    HW215333   3.587   2.388   0.280
 4923SOL     OW15334   2.630   3.006   1.023
 4923SOL    HW115335   2.552   3.023   1.083
 4923SOL    HW215336   2.664   3.093   0.987
 4924SOL     OW15337   2.712   2.660   1.823
 4924SOL    HW115338   2.708   2.736   1.888
 4924SOL    HW215339   2.734   2.696   1.732
 4925SOL     OW15340   2.547   2.874   0.665
 4925SOL    HW115341   2.616   2.858   0.735
 4925SOL    HW215342   2.474   2.931   0.703
 4926SOL     OW15343   2.548   3.023   1.803
 4926SOL    HW115344   2.608   3.102   1.817
 4926SOL    HW215345   2.462   3.054   1.762
 4927SOL     OW15346   2.197   3.297   1.061
 4927SOL    HW115347   2.119   3.266   1.008
 4927SOL    HW215348   2.255   3.355   1.004
 4928SOL     OW15349   3.322   3.367   1.339
 4928SOL    HW115350   3.346   3.461   1.365
 4928SOL    HW215351   3.306   3.313   1.421
 4929SOL     OW15352   2.300   2.254   1.499
 4929SOL    HW115353   2.382   2.198   1.508
 4929SOL    HW215354   2.219   2.196   1.503
 4930SOL     OW15355   3.465   2.309   0.737
 4930SOL    HW115356   3.391   2.355   0.687
 4930SOL    HW215357   3.516   2.377   0.790
 4931SOL     OW15358   2.093   3.575   0.483
 4931SOL    HW115359   2.127   3.652   0.537
 4931SOL    HW215360   2.137   3.575   0.393
 4932SOL     OW15361   2.989   3.203   1.690
 4932SOL    HW115362   3.036   3.203   1.778
 4932SOL    HW215363   2.941   3.116   1.679
 4933SOL     OW15364   2.092   3.296   0.538
 4933SOL    HW115365   2.066   3.392   0.538
 4933SOL    HW215366   2.021   3.242   0.583
 4934SOL     OW15367   2.102   2.953   0.886
 4934SOL    HW115368   2.116   2.869   0.938
 4934SOL    HW215369   2.047   3.017   0.941
 4935SOL     OW15370   2.482   3.648   1.439
 4935SOL    HW115371   2.390   3.631   1.474
 4935SOL    HW215372   2.510   3.740   1.465
 4936SOL     OW15373   2.468   2.826   0.123
 4936SOL    HW115374   2.475   2.910   0.069
 4936SOL    HW215375   2.514   2.839   0.211
 4937SOL     OW15376   3.456   1.976   1.480
 4937SOL    HW115377   3.438   2.043   1.408
 4937SOL    HW215378   3.453   2.022   1.569
 4938SOL     OW15379   1.984   2.505   0.563
 4938SOL    HW115380   1.939   2.417   0.580
 4938SOL    HW215381   1.983   2.559   0.647
 4939SOL     OW15382   3.704   3.629   0.359
 4939SOL    HW115383   3.758   3.600   0.439
 4939SOL    HW215384   3.734   3.719   0.330
 4940SOL     OW15385   1.889   3.458   0.117
 4940SOL    HW115386   1.870   3.362   0.138
 4940SOL    HW215387   1.856   3.516   0.192
 4941SOL     OW15388   3.551   2.784   0.612
 4941SOL    HW115389   3.646   2.755   0.620
 4941SOL    HW215390   3.543   2.849   0.537
 4942SOL     OW15391   3.503   2.970   0.432
 4942SOL    HW115392   3.589   2.972   0.380
 4942SOL    HW215393   3.517   3.017   0.520
 4943SOL     OW15394   1.975   2.599   1.597
 4943SOL    HW115395   2.063   2.586   1.642
 4943SOL    HW215396   1.962   2.696   1.575
 4944SOL     OW15397   2.475   3.227   0.726
 4944SOL    HW115398   2.426   3.140   0.735
 4944SOL    HW215399   2.452   3.270   0.639
 4945SOL     OW15400   3.155   3.090   1.423
 4945SOL    HW115401   3.192   3.017   1.365
 4945SOL    HW215402   3.207   3.095   1.508
 4946SOL     OW15403   2.671   1.866   0.502
 4946SOL    HW115404   2.711   1.957   0.493
 4946SOL    HW215405   2.571   1.874   0.508
 4947SOL     OW15406   2.059   2.838   1.264
 4947SOL    HW115407   2.148   2.793   1.250
 4947SOL    HW215408   1.986   2.773   1.245
 4948SOL     OW15409   3.387   2.861   0.190
 4948SOL    HW115410   3.324   2.785   0.203
 4948SOL    HW215411   3.435   2.879   0.276
 4949SOL     OW15412   3.049   3.654   1.616
 4949SOL    HW115413   3.073   3.714   1.540
 4949SOL    HW215414   3.056   3.559   1.586
 4950SOL     OW15415   3.328   3.279   0.953
 4950SOL    HW115416   3.269   3.285   1.033
 4950SOL    HW215417   3.313   3.191   0.907
 4951SOL     OW15418   3.529   3.576   0.572
 4951SOL    HW115419   3.488   3.553   0.484
 4951SOL    HW215420   3.511   3.502   0.637
 4952SOL     OW15421   2.460   2.591   0.270
 4952SOL    HW115422   2.484   2.660   0.202
 4952SOL    HW215423   2.382   2.624   0.324
 4953SOL     OW15424   3.143   2.207   0.944
 4953SOL    HW115425   3.057   2.157   0.931
 4953SOL    HW215426   3.205   2.153   1.000
 4954SOL     OW15427   3.438   3.524   0.307
 4954SOL    HW115428   3.527   3.570   0.310
 4954SOL    HW215429   3.417   3.500   0.212
 4955SOL     OW15430   2.669   2.467   1.465
 4955SOL    HW115431   2.622   2.464   1.554
 4955SOL    HW215432   2.618   2.412   1.399
 4956SOL     OW15433   3.256   2.331   1.674
 4956SOL    HW115434   3.236   2.374   1.762
 4956SOL    HW215435   3.334   2.269   1.683
 4957SOL     OW15436   2.835   2.752   1.572
 4957SOL    HW115437   2.881   2.668   1.543
 4957SOL    HW215438   2.779   2.786   1.497
 4958SOL     OW15439   2.853   2.272   1.242
 4958SOL    HW115440   2.776   2.306   1.296
 4958SOL    HW215441   2.819   2.221   1.163
 4959SOL     OW15442   2.903   2.563   0.429
 4959SOL    HW115443   2.929   2.559   0.525
 4959SOL    HW215444   2.818   2.512   0.415
 4960SOL     OW15445   1.938   2.673   0.789
 4960SOL    HW115446   2.037   2.661   0.798
 4960SOL    HW215447   1.914   2.768   0.810
 4961SOL     OW15448   1.992   3.683   1.571
 4961SOL    HW115449   1.982   3.668   1.670
 4961SOL    HW215450   1.906   3.719   1.535
 4962SOL     OW15451   2.727   2.210   0.195
 4962SOL    HW115452   2.786   2.273   0.146
 4962SOL    HW215453   2.746   2.116   0.166
 4963SOL     OW15454   3.581   2.447   1.831
 4963SOL    HW115455   3.555   2.536   1.795
 4963SOL    HW215456   3.579   2.379   1.758
 4964SOL     OW15457   3.224   3.006   0.545
 4964SOL    HW115458   3.307   2.977   0.497
 4964SOL    HW215459   3.175   3.073   0.489
 4965SOL     OW15460   2.412   2.058   0.885
 4965SOL    HW115461   2.407   2.053   0.985
 4965SOL    HW215462   2.414   2.154   0.856
 4966SOL     OW15463   2.870   3.318   0.477
 4966SOL    HW115464   2.824   3.390   0.425
 4966SOL    HW215465   2.866   3.338   0.575
 4967SOL     OW15466   2.213   3.663   0.853
 4967SOL    HW115467   2.263   3.577   0.859
 4967SOL    HW215468   2.278   3.740   0.850
 4968SOL     OW15469   3.657   2.928   0.873
 4968SOL    HW115470   3.595   2.913   0.797
 4968SOL    HW215471   3.605   2.939   0.958
 4969SOL     OW15472   3.089   3.412   1.506
 4969SOL    HW115473   3.095   3.335   1.570
 4969SOL    HW215474   3.037   3.386   1.426
 4970SOL     OW15475   2.183   2.805   0.242
 4970SOL    HW115476   2.265   2.844   0.200
 4970SOL    HW215477   2.156   2.723   0.193
 4971SOL     OW15478   3.320   2.597   0.728
 4971SOL    HW115479   3.315   2.532   0.803
 4971SOL    HW215480   3.400   2.656   0.741
 4972SOL     OW15481   2.323   3.128   1.727
 4972SOL    HW115482   2.273   3.129   1.641
 4972SOL    HW215483   2.260   3.110   1.803
 4973SOL     OW15484   2.973   3.638   0.237
 4973SOL    HW115485   2.913   3.576   0.287
 4973SOL    HW215486   3.004   3.594   0.152
 4974SOL     OW15487   3.494   3.239   0.081
 4974SOL    HW115488   3.462   3.333   0.071
 4974SOL    HW215489   3.418   3.176   0.069
 4975SOL     OW15490   2.326   3.605   0.323
 4975SOL    HW115491   2.359   3.644   0.409
 4975SOL    HW215492   2.402   3.598   0.258
 4976SOL     OW15493   3.262   1.969   0.426
 4976SOL    HW115494   3.238   1.932   0.336
 4976SOL    HW215495   3.361   1.985   0.430
 4977SOL     OW15496   2.111   3.647   1.241
 4977SOL    HW115497   2.168   3.582   1.291
 4977SOL    HW215498   2.095   3.614   1.148
 4978SOL     OW15499   2.802   3.560   0.904
 4978SOL    HW115500   2.882   3.503   0.925
 4978SOL    HW215501   2.753   3.520   0.827
 4979SOL     OW15502   2.244   2.562   0.480
 4979SOL    HW115503   2.289   2.472   0.477
 4979SOL    HW215504   2.150   2.551   0.513
 4980SOL     OW15505   3.409   2.084   1.729
 4980SOL    HW115506   3.404   2.121   1.821
 4980SOL    HW215507   3.337   2.015   1.717
 4981SOL     OW15508   2.643   2.126   1.749
 4981SOL    HW115509   2.710   2.065   1.792
 4981SOL    HW215510   2.570   2.145   1.814
 4982SOL     OW15511   2.750   3.376   1.195
 4982SOL    HW115512   2.727   3.351   1.101
 4982SOL    HW215513   2.811   3.307   1.234
 4983SOL     OW15514   3.213   2.452   1.433
 4983SOL    HW115515   3.241   2.409   1.518
 4983SOL    HW215516   3.238   2.548   1.434
 4984SOL     OW15517   2.665   3.264   0.924
 4984SOL    HW115518   2.755   3.278   0.882
 4984SOL    HW215519   2.594   3.266   0.853
 4985SOL     OW15520   2.784   2.365   0.899
 4985SOL    HW115521   2.759   2.356   0.803
 4985SOL    HW215522   2.832   2.283   0.930
 4986SOL     OW15523   2.401   1.926   0.512
 4986SOL    HW115524   2.320   1.927   0.570
 4986SOL    HW215525   2.404   2.009   0.457
 4987SOL     OW15526   3.296   3.050   0.041
 4987SOL    HW115527   3.328   2.974   0.098
 4987SOL    HW215528   3.204   3.077   0.071
 4988SOL     OW15529   2.797   2.098   0.480
 4988SOL    HW115530   2.749   2.139   0.402
 4988SOL    HW215531   2.896   2.096   0.461
 4989SOL     OW15532   2.938   2.545   1.464
 4989SOL    HW115533   2.858   2.484   1.467
 4989SOL    HW215534   3.019   2.492   1.440
 4990SOL     OW15535   3.089   3.432   0.793
 4990SOL    HW115536   3.110   3.506   0.728
 4990SOL    HW215537   3.157   3.432   0.866
 4991SOL     OW15538   2.321   3.014   0.741
 4991SOL    HW115539   2.250   2.987   0.806
 4991SOL    HW215540   2.295   2.986   0.648
 4992SOL     OW15541   3.133   3.659   0.591
 4992SOL    HW115542   3.177   3.723   0.527
 4992SOL    HW215543   3.083   3.711   0.661
 4993SOL     OW15544   2.894   2.411   0.016
 4993SOL    HW115545   2.853   2.493  -0.023
 4993SOL    HW215546   2.958   2.437   0.089
 4994SOL     OW15547   1.940   2.418   1.386
 4994SOL    HW115548   2.032   2.417   1.345
 4994SOL    HW215549   1.934   2.492   1.453
 4995SOL     OW15550   2.423   2.084   1.147
 4995SOL    HW115551   2.461   2.000   1.184
 4995SOL    HW215552   2.335   2.103   1.191
 4996SOL     OW15553   2.728   2.316   0.642
 4996SOL    HW115554   2.696   2.388   0.580
 4996SOL    HW215555   2.752   2.235   0.589
 4997SOL     OW15556   2.879   1.901   0.753
 4997SOL    HW115557   2.807   1.906   0.684
 4997SOL    HW215558   2.855   1.832   0.822
 4998SOL     OW15559   3.291   3.035   0.867
 4998SOL    HW115560   3.236   2.951   0.860
 4998SOL    HW215561   3.317   3.064   0.775
 4999SOL     OW15562   3.328   2.452   0.992
 4999SOL    HW115563   3.298   2.357   0.999
 4999SOL    HW215564   3.401   2.468   1.058
 5000SOL     OW15565   3.719   2.695   0.377
 5000SOL    HW115566   3.761   2.631   0.441
 5000SOL    HW215567   3.681   2.644   0.299
 5001SOL     OW15568   2.350   3.247   0.174
 5001SOL    HW115569   2.263   3.232   0.221
 5001SOL    HW215570   2.333   3.273   0.079
 5002SOL     OW15571   3.526   3.142   0.657
 5002SOL    HW115572   3.625   3.150   0.671
 5002SOL    HW215573   3.481   3.226   0.688
 5003SOL     OW15574   3.252   2.437   0.078
 5003SOL    HW115575   3.198   2.416   0.159
 5003SOL    HW215576   3.343   2.396   0.087
 5004SOL     OW15577   2.389   2.118   0.328
 5004SOL    HW115578   2.416   2.059   0.253
 5004SOL    HW215579   2.389   2.213   0.297
 5005SOL     OW15580   3.616   3.085   1.588
 5005SOL    HW115581   3.707   3.046   1.575
 5005SOL    HW215582   3.624   3.181   1.612
 5006SOL     OW15583   2.926   3.209   1.340
 5006SOL    HW115584   2.846   3.186   1.395
 5006SOL    HW215585   3.009   3.183   1.389
 5007SOL     OW15586   3.454   3.491   1.625
 5007SOL    HW115587   3.481   3.525   1.535
 5007SOL    HW215588   3.533   3.453   1.671
 5008SOL     OW15589   2.973   3.057   1.100
 5008SOL    HW115590   2.933   3.101   1.181
 5008SOL    HW215591   2.932   3.094   1.017
 5009SOL     OW15592   3.500   2.961   1.079
 5009SOL    HW115593   3.505   3.042   1.138
 5009SOL    HW215594   3.414   2.963   1.028
 5010SOL     OW15595   2.777   1.951   1.402
 5010SOL    HW115596   2.802   1.931   1.307
 5010SOL    HW215597   2.849   2.007   1.444
 5011SOL     OW15598   2.842   2.978   1.719
 5011SOL    HW115599   2.743   2.984   1.729
 5011SOL    HW215600   2.865   2.898   1.663
 5012SOL     OW15601   2.567   2.912   0.368
 5012SOL    HW115602   2.553   2.919   0.467
 5012SOL    HW215603   2.651   2.861   0.350
 5013SOL     OW15604   2.272   2.675   1.251
 5013SOL    HW115605   2.358   2.687   1.301
 5013SOL    HW215606   2.230   2.588   1.278
 5014SOL     OW15607   3.136   2.248   1.262
 5014SOL    HW115608   3.157   2.322   1.326
 5014SOL    HW215609   3.047   2.265   1.219
 5015SOL     OW15610   1.926   3.426   1.331
 5015SOL    HW115611   1.880   3.508   1.297
 5015SOL    HW215612   2.024   3.445   1.340
 5016SOL     OW15613   2.229   2.962   0.501
 5016SOL    HW115614   2.222   3.045   0.445
 5016SOL    HW215615   2.233   2.882   0.441
 5017SOL     OW15616   2.428   2.399   0.865
 5017SOL    HW115617   2.440   2.465   0.791
 5017SOL    HW215618   2.474   2.433   0.948
 5018SOL     OW15619   3.114   3.210   0.388
 5018SOL    HW115620   3.164   3.287   0.428
 5018SOL    HW215621   3.019   3.212   0.420
 5019SOL     OW15622   3.134   3.307   1.142
 5019SOL    HW115623   3.181   3.320   1.229
 5019SOL    HW215624   3.068   3.233   1.151
 5020SOL     OW15625   3.444   2.501   0.472
 5020SOL    HW115626   3.413   2.562   0.545
 5020SOL    HW215627   3.494   2.553   0.403
 5021SOL     OW15628   2.216   3.372   1.329
 5021SOL    HW115629   2.195   3.328   1.242
 5021SOL    HW215630   2.313   3.398   1.332
 5022SOL     OW15631   2.264   2.613   1.598
 5022SOL    HW115632   2.332   2.668   1.551
 5022SOL    HW215633   2.304   2.525   1.625
 5023SOL     OW15634   3.449   2.641   1.670
 5023SOL    HW115635   3.357   2.679   1.665
 5023SOL    HW215636   3.509   2.688   1.605
 5024SOL     OW15637   2.875   1.967   1.770
 5024SOL    HW115638   2.881   2.052   1.718
 5024SOL    HW215639   2.907   1.891   1.713
 5025SOL     OW15640   2.366   1.912   1.740
 5025SOL    HW115641   2.324   1.855   1.670
 5025SOL    HW215642   2.300   1.981   1.772
 5026SOL     OW15643   2.435   2.732   1.029
 5026SOL    HW115644   2.479   2.821   1.020
 5026SOL    HW215645   2.372   2.732   1.106
 5027SOL     OW15646   3.222   2.724   1.045
 5027SOL    HW115647   3.147   2.724   0.979
 5027SOL    HW215648   3.259   2.632   1.054
 5028SOL     OW15649   3.071   2.387   0.275
 5028SOL    HW115650   3.084   2.303   0.329
 5028SOL    HW215651   3.042   2.461   0.335
 5029SOL     OW15652   1.899   3.172   1.282
 5029SOL    HW115653   1.952   3.123   1.350
 5029SOL    HW215654   1.921   3.270   1.287
 5030SOL     OW15655   2.594   2.496   1.064
 5030SOL    HW115656   2.653   2.470   0.988
 5030SOL    HW215657   2.566   2.592   1.053
 5031SOL     OW15658   3.590   2.797   1.854
 5031SOL    HW115659   3.544   2.790   1.765
 5031SOL    HW215660   3.528   2.841   1.920
 5032SOL     OW15661   2.169   1.925   0.618
 5032SOL    HW115662   2.158   2.019   0.651
 5032SOL    HW215663   2.164   1.862   0.695
 5033SOL     OW15664   3.484   2.229   0.374
 5033SOL    HW115665   3.486   2.153   0.438
 5033SOL    HW215666   3.436   2.306   0.414
 5034SOL     OW15667   2.885   2.628   0.966
 5034SOL    HW115668   2.900   2.649   1.062
 5034SOL    HW215669   2.855   2.533   0.957
 5035SOL     OW15670   2.842   3.435   1.700
 5035SOL    HW115671   2.822   3.479   1.612
 5035SOL    HW215672   2.881   3.344   1.684
 5036SOL     OW15673   3.721   3.380   1.605
 5036SOL    HW115674   3.735   3.407   1.510
 5036SOL    HW215675   3.804   3.402   1.658
 5037SOL     OW15676   2.212   2.760   1.804
 5037SOL    HW115677   2.288   2.804   1.852
 5037SOL    HW215678   2.247   2.713   1.722
 5038SOL     OW15679   3.402   2.136   0.125
 5038SOL    HW115680   3.341   2.061   0.148
 5038SOL    HW215681   3.424   2.188   0.208
 5039SOL     OW15682   3.165   2.700   0.042
 5039SOL    HW115683   3.199   2.607   0.057
 5039SOL    HW215684   3.183   2.727  -0.053
 5040SOL     OW15685   2.930   3.195   0.849
 5040SOL    HW115686   2.937   3.111   0.794
 5040SOL    HW215687   2.992   3.264   0.813
 5041SOL     OW15688   2.181   2.672   0.949
 5041SOL    HW115689   2.274   2.708   0.954
 5041SOL    HW215690   2.175   2.587   1.001
 5042SOL     OW15691   2.201   2.371   1.006
 5042SOL    HW115692   2.149   2.288   0.989
 5042SOL    HW215693   2.278   2.376   0.942
 5043SOL     OW15694   3.000   2.242   1.678
 5043SOL    HW115695   2.955   2.305   1.742
 5043SOL    HW215696   3.093   2.273   1.661
 5044SOL     OW15697   3.022   2.069   1.477
 5044SOL    HW115698   3.022   2.133   1.554
 5044SOL    HW215699   3.050   2.117   1.394
 5045SOL     OW15700   1.870   3.188   0.200
 5045SOL    HW115701   1.777   3.209   0.169
 5045SOL    HW215702   1.880   3.089   0.213
 5046SOL     OW15703   1.950   3.663   0.927
 5046SOL    HW115704   1.908   3.577   0.900
 5046SOL    HW215705   2.044   3.666   0.893
 5047SOL     OW15706   2.366   3.430   0.910
 5047SOL    HW115707   2.432   3.504   0.919
 5047SOL    HW215708   2.410   3.351   0.868
 5048SOL     OW15709   2.864   2.658   1.238
 5048SOL    HW115710   2.905   2.626   1.324
 5048SOL    HW215711   2.768   2.631   1.235
 5049SOL     OW15712   1.902   2.406   1.114
 5049SOL    HW115713   1.987   2.373   1.073
 5049SOL    HW215714   1.915   2.421   1.212
 5050SOL     OW15715   2.051   2.382   1.722
 5050SOL    HW115716   2.110   2.342   1.652
 5050SOL    HW215717   1.993   2.453   1.681
 5051SOL     OW15718   3.231   2.812   1.660
 5051SOL    HW115719   3.270   2.901   1.680
 5051SOL    HW215720   3.241   2.792   1.563
 5052SOL     OW15721   2.677   2.434   0.325
 5052SOL    HW115722   2.684   2.345   0.279
 5052SOL    HW215723   2.583   2.468   0.317
 5053SOL     OW15724   3.519   2.466   1.206
 5053SOL    HW115725   3.481   2.397   1.268
 5053SOL    HW215726   3.601   2.430   1.162
 5054SOL     OW15727   2.114   3.426   1.744
 5054SOL    HW115728   2.084   3.483   1.820
 5054SOL    HW215729   2.107   3.329   1.770
 5055SOL     OW15730   2.533   2.326   1.269
 5055SOL    HW115731   2.499   2.237   1.239
 5055SOL    HW215732   2.559   2.380   1.189
 5056SOL     OW15733   2.792   3.540   1.465
 5056SOL    HW115734   2.768   3.522   1.370
 5056SOL    HW215735   2.822   3.634   1.475
 5057SOL     OW15736   2.335   2.362   0.191
 5057SOL    HW115737   2.396   2.442   0.195
 5057SOL    HW215738   2.240   2.393   0.198
 5058SOL     OW15739   2.021   2.999   1.466
 5058SOL    HW115740   2.043   2.938   1.542
 5058SOL    HW215741   2.031   2.950   1.380
 5059SOL     OW15742   3.209   2.921   1.234
 5059SOL    HW115743   3.233   2.858   1.160
 5059SOL    HW215744   3.119   2.961   1.216
 5060SOL     OW15745   3.164   2.717   0.309
 5060SOL    HW115746   3.078   2.686   0.351
 5060SOL    HW215747   3.160   2.703   0.210
 5061SOL     OW15748   3.621   3.609   1.154
 5061SOL    HW115749   3.682   3.639   1.081
 5061SOL    HW215750   3.583   3.520   1.132
 5062SOL     OW15751   3.114   3.593   1.128
 5062SOL    HW115752   3.198   3.598   1.074
 5062SOL    HW215753   3.091   3.497   1.146
 5063SOL     OW15754   1.945   3.120   1.022
 5063SOL    HW115755   1.940   3.119   1.122
 5063SOL    HW215756   1.862   3.079   0.984
 5064SOL     OW15757   2.550   3.524   1.716
 5064SOL    HW115758   2.494   3.605   1.725
 5064SOL    HW215759   2.602   3.528   1.630
 5065SOL     OW15760   2.765   1.948   0.133
 5065SOL    HW115761   2.816   1.949   0.047
 5065SOL    HW215762   2.821   1.906   0.204
 5066SOL     OW15763   3.588   1.997   0.523
 5066SOL    HW115764   3.661   1.980   0.456
 5066SOL    HW215765   3.557   1.910   0.561
 5067SOL     OW15766   3.250   3.435   0.477
 5067SOL    HW115767   3.317   3.447   0.403
 5067SOL    HW215768   3.210   3.524   0.500
 5068SOL     OW15769   1.992   3.656   1.851
 5068SOL    HW115770   1.951   3.582   1.904
 5068SOL    HW215771   2.056   3.707   1.909
 5069SOL     OW15772   3.142   2.789   0.672
 5069SOL    HW115773   3.202   2.708   0.674
 5069SOL    HW215774   3.182   2.858   0.612
 5070SOL     OW15775   2.692   3.135   1.422
 5070SOL    HW115776   2.687   3.168   1.517
 5070SOL    HW215777   2.606   3.154   1.376
 5071SOL     OW15778   2.534   3.478   0.154
 5071SOL    HW115779   2.543   3.488   0.055
 5071SOL    HW215780   2.494   3.389   0.175
 5072SOL     OW15781   3.512   3.582   1.394
 5072SOL    HW115782   3.565   3.592   1.310
 5072SOL    HW215783   3.485   3.672   1.428
 5073SOL     OW15784   3.703   2.037   0.963
 5073SOL    HW115785   3.742   1.952   0.927
 5073SOL    HW215786   3.605   2.039   0.944
 5074SOL     OW15787   3.056   3.474   0.031
 5074SOL    HW115788   3.062   3.381   0.068
 5074SOL    HW215789   2.997   3.474  -0.049
 5075SOL     OW15790   2.684   2.864   1.372
 5075SOL    HW115791   2.724   2.863   1.280
 5075SOL    HW215792   2.694   2.956   1.412
 5076SOL     OW15793   2.778   2.772   0.291
 5076SOL    HW115794   2.841   2.810   0.223
 5076SOL    HW215795   2.818   2.689   0.330
 5077SOL     OW15796   3.366   3.469   0.044
 5077SOL    HW115797   3.274   3.506   0.051
 5077SOL    HW215798   3.404   3.489  -0.046
 5078SOL     OW15799   2.234   3.150   1.490
 5078SOL    HW115800   2.221   3.243   1.456
 5078SOL    HW215801   2.150   3.098   1.477
 5079SOL     OW15802   3.476   3.154   1.289
 5079SOL    HW115803   3.536   3.157   1.369
 5079SOL    HW215804   3.401   3.218   1.302
 5080SOL     OW15805   2.901   2.960   0.696
 5080SOL    HW115806   2.831   2.913   0.750
 5080SOL    HW215807   2.960   2.892   0.653
 5081SOL     OW15808   2.876   2.098   0.971
 5081SOL    HW115809   2.868   2.062   0.878
 5081SOL    HW215810   2.874   2.022   1.036
 5082SOL     OW15811   2.452   3.349   0.491
 5082SOL    HW115812   2.494   3.291   0.421
 5082SOL    HW215813   2.408   3.428   0.447
 5083SOL     OW15814   3.571   2.247   1.381
 5083SOL    HW115815   3.644   2.316   1.385
 5083SOL    HW215816   3.599   2.172   1.322
 5084SOL     OW15817   2.117   3.210   0.290
 5084SOL    HW115818   2.021   3.211   0.263
 5084SOL    HW215819   2.129   3.263   0.374
 5085SOL     OW15820   1.967   2.875   1.726
 5085SOL    HW115821   1.890   2.842   1.780
 5085SOL    HW215822   2.052   2.845   1.768
 5086SOL     OW15823   2.534   2.065   1.489
 5086SOL    HW115824   2.624   2.049   1.449
 5086SOL    HW215825   2.542   2.070   1.588
 5087SOL     OW15826   1.937   2.207   0.033
 5087SOL    HW115827   1.845   2.179   0.004
 5087SOL    HW215828   1.968   2.284  -0.023
 5088SOL     OW15829   3.302   2.718   1.398
 5088SOL    HW115830   3.245   2.770   1.335
 5088SOL    HW215831   3.398   2.730   1.374
 5089SOL     OW15832   3.045   3.197   0.119
 5089SOL    HW115833   2.946   3.186   0.121
 5089SOL    HW215834   3.079   3.212   0.212
 5090SOL     OW15835   2.475   2.704   1.431
 5090SOL    HW115836   2.531   2.785   1.414
 5090SOL    HW215837   2.534   2.624   1.434
 5091SOL     OW15838   3.355   3.629   0.959
 5091SOL    HW115839   3.388   3.693   0.890
 5091SOL    HW215840   3.421   3.623   1.034
 5092SOL     OW15841   2.578   2.427   1.708
 5092SOL    HW115842   2.597   2.492   1.782
 5092SOL    HW215843   2.638   2.347   1.717
 5093SOL     OW15844   3.312   3.082   1.633
 5093SOL    HW115845   3.303   3.072   1.732
 5093SOL    HW215846   3.408   3.075   1.607
 5094SOL     OW15847   2.252   3.603   1.560
 5094SOL    HW115848   2.161   3.644   1.558
 5094SOL    HW215849   2.245   3.509   1.592
 5095SOL     OW15850   3.536   2.745   1.254
 5095SOL    HW115851   3.509   2.656   1.217
 5095SOL    HW215852   3.537   2.813   1.181
 5096SOL     OW15853   3.087   2.187   0.449
 5096SOL    HW115854   3.152   2.113   0.438
 5096SOL    HW215855   3.107   2.237   0.533
 5097SOL     OW15856   2.456   2.607   0.652
 5097SOL    HW115857   2.506   2.692   0.633
 5097SOL    HW215858   2.368   2.609   0.604
 5098SOL     OW15859   3.639   2.204   1.642
 5098SOL    HW115860   3.622   2.235   1.548
 5098SOL    HW215861   3.555   2.167   1.680
 5099SOL     OW15862   3.592   2.796   1.517
 5099SOL    HW115863   3.630   2.887   1.532
 5099SOL    HW215864   3.584   2.779   1.418
 5100SOL     OW15865   2.721   3.236   0.016
 5100SOL    HW115866   2.675   3.251   0.104
 5100SOL    HW215867   2.765   3.321  -0.014
 5101SOL     OW15868   2.523   3.652   0.953
 5101SOL    HW115869   2.477   3.740   0.940
 5101SOL    HW215870   2.622   3.664   0.946
 5102SOL     OW15871   2.721   2.818   0.861
 5102SOL    HW115872   2.775   2.749   0.909
 5102SOL    HW215873   2.689   2.887   0.927
 5103SOL     OW15874   2.945   2.846   0.087
 5103SOL    HW115875   2.922   2.899   0.005
 5103SOL    HW215876   3.026   2.790   0.068
 5104SOL     OW15877   3.723   3.431   0.851
 5104SOL    HW115878   3.652   3.419   0.781
 5104SOL    HW215879   3.724   3.352   0.911
 5105SOL     OW15880   2.083   3.176   1.844
 5105SOL    HW115881   2.018   3.103   1.823
 5105SOL    HW215882   2.087   3.190   1.942
 5106SOL     OW15883   1.941   3.102   0.653
 5106SOL    HW115884   1.940   3.055   0.741
 5106SOL    HW215885   2.023   3.074   0.602
 5107SOL     OW15886   2.534   3.253   1.624
 5107SOL    HW115887   2.456   3.203   1.662
 5107SOL    HW215888   2.531   3.348   1.655
 5108SOL     OW15889   3.686   2.054   1.227
 5108SOL    HW115890   3.682   1.964   1.271
 5108SOL    HW215891   3.689   2.043   1.128
 5109SOL     OW15892   2.290   2.286   0.520
 5109SOL    HW115893   2.320   2.214   0.458
 5109SOL    HW215894   2.251   2.246   0.603
 5110SOL     OW15895   3.567   3.349   1.104
 5110SOL    HW115896   3.474   3.324   1.077
 5110SOL    HW215897   3.593   3.299   1.186
 5111SOL     OW15898   2.179   2.409   1.280
 5111SOL    HW115899   2.217   2.350   1.352
 5111SOL    HW215900   2.219   2.383   1.192
 5112SOL     OW15901   2.674   3.448   0.687
 5112SOL    HW115902   2.706   3.458   0.593
 5112SOL    HW215903   2.595   3.386   0.689
 5113SOL     OW15904   3.286   2.076   1.112
 5113SOL    HW115905   3.338   2.011   1.167
 5113SOL    HW215906   3.237   2.139   1.173
 5114SOL     OW15907   2.863   1.896   1.154
 5114SOL    HW115908   2.800   1.824   1.123
 5114SOL    HW215909   2.956   1.860   1.154
 5115SOL     OW15910   2.632   3.192   0.301
 5115SOL    HW115911   2.586   3.105   0.318
 5115SOL    HW215912   2.723   3.189   0.342
 5116SOL     OW15913   2.480   3.429   1.284
 5116SOL    HW115914   2.475   3.511   1.341
 5116SOL    HW215915   2.569   3.426   1.239
 5117SOL     OW15916   3.214   1.914   0.168
 5117SOL    HW115917   3.249   1.873   0.084
 5117SOL    HW215918   3.124   1.876   0.188
 5118SOL     OW15919   3.162   2.315   0.691
 5118SOL    HW115920   3.103   2.395   0.695
 5118SOL    HW215921   3.177   2.280   0.784
 5119SOL     OW15922   3.455   2.083   0.882
 5119SOL    HW115923   3.371   2.082   0.936
 5119SOL    HW215924   3.457   2.166   0.826
 5120SOL     OW15925   1.901   2.939   0.300
 5120SOL    HW115926   2.000   2.928   0.291
 5120SOL    HW215927   1.861   2.853   0.332
 5121SOL     OW15928   2.737   3.508   0.337
 5121SOL    HW115929   2.660   3.473   0.283
 5121SOL    HW215930   2.705   3.579   0.399
 5122SOL     OW15931   2.092   2.490   1.975
 5122SOL    HW115932   1.999   2.488   2.012
 5122SOL    HW215933   2.093   2.451   1.883
 5123SOL     OW15934   1.881   2.230   2.509
 5123SOL    HW115935   1.799   2.273   2.548
 5123SOL    HW215936   1.853   2.157   2.446
 5124SOL     OW15937   2.431   3.137   3.027
 5124SOL    HW115938   2.338   3.130   2.990
 5124SOL    HW215939   2.442   3.226   3.071
 5125SOL     OW15940   3.417   3.373   2.565
 5125SOL    HW115941   3.360   3.357   2.646
 5125SOL    HW215942   3.358   3.383   2.485
 5126SOL     OW15943   2.997   2.565   2.579
 5126SOL    HW115944   3.054   2.643   2.554
 5126SOL    HW215945   2.937   2.591   2.655
 5127SOL     OW15946   3.617   2.469   2.093
 5127SOL    HW115947   3.605   2.456   1.994
 5127SOL    HW215948   3.587   2.388   2.142
 5128SOL     OW15949   2.630   3.006   2.885
 5128SOL    HW115950   2.552   3.023   2.945
 5128SOL    HW215951   2.664   3.093   2.849
 5129SOL     OW15952   2.712   2.660   3.685
 5129SOL    HW115953   2.708   2.736   3.750
 5129SOL    HW215954   2.734   2.696   3.594
 5130SOL     OW15955   2.547   2.874   2.527
 5130SOL    HW115956   2.616   2.858   2.597
 5130SOL    HW215957   2.474   2.931   2.565
 5131SOL     OW15958   2.548   3.023   3.665
 5131SOL    HW115959   2.608   3.102   3.679
 5131SOL    HW215960   2.462   3.054   3.624
 5132SOL     OW15961   2.197   3.297   2.923
 5132SOL    HW115962   2.119   3.266   2.870
 5132SOL    HW215963   2.255   3.355   2.866
 5133SOL     OW15964   3.322   3.367   3.201
 5133SOL    HW115965   3.346   3.461   3.227
 5133SOL    HW215966   3.306   3.313   3.283
 5134SOL     OW15967   2.300   2.254   3.361
 5134SOL    HW115968   2.382   2.198   3.370
 5134SOL    HW215969   2.219   2.196   3.365
 5135SOL     OW15970   3.465   2.309   2.599
 5135SOL    HW115971   3.391   2.355   2.549
 5135SOL    HW215972   3.516   2.377   2.652
 5136SOL     OW15973   2.093   3.575   2.345
 5136SOL    HW115974   2.127   3.652   2.399
 5136SOL    HW215975   2.137   3.575   2.255
 5137SOL     OW15976   2.989   3.203   3.552
 5137SOL    HW115977   3.036   3.203   3.640
 5137SOL    HW215978   2.941   3.116   3.541
 5138SOL     OW15979   2.092   3.296   2.400
 5138SOL    HW115980   2.066   3.392   2.400
 5138SOL    HW215981   2.021   3.242   2.445
 5139SOL     OW15982   2.102   2.953   2.748
 5139SOL    HW115983   2.116   2.869   2.800
 5139SOL    HW215984   2.047   3.017   2.803
 5140SOL     OW15985   2.482   3.648   3.301
 5140SOL    HW115986   2.390   3.631   3.336
 5140SOL    HW215987   2.510   3.740   3.327
 5141SOL     OW15988   2.468   2.826   1.985
 5141SOL    HW115989   2.475   2.910   1.931
 5141SOL    HW215990   2.514   2.839   2.073
 5142SOL     OW15991   3.456   1.976   3.342
 5142SOL    HW115992   3.438   2.043   3.270
 5142SOL    HW215993   3.453   2.022   3.431
 5143SOL     OW15994   1.984   2.505   2.425
 5143SOL    HW115995   1.939   2.417   2.442
 5143SOL    HW215996   1.983   2.559   2.509
 5144SOL     OW15997   3.704   3.629   2.221
 5144SOL    HW115998   3.758   3.600   2.301
 5144SOL    HW215999   3.734   3.719   2.192
 5145SOL     OW16000   1.889   3.458   1.979
 5145SOL    HW116001   1.870   3.362   2.000
 5145SOL    HW216002   1.856   3.516   2.054
 5146SOL     OW16003   3.551   2.784   2.474
 5146SOL    HW116004   3.646   2.755   2.482
 5146SOL    HW216005   3.543   2.849   2.399
 5147SOL     OW16006   3.503   2.970   2.294
 5147SOL    HW116007   3.589   2.972   2.242
 5147SOL    HW216008   3.517   3.017   2.382
 5148SOL     OW16009   1.975   2.599   3.459
 5148SOL    HW116010   2.063   2.586   3.504
 5148SOL    HW216011   1.962   2.696   3.437
 5149SOL     OW16012   2.475   3.227   2.588
 5149SOL    HW116013   2.426   3.140   2.597
 5149SOL    HW216014   2.452   3.270   2.501
 5150SOL     OW16015   3.155   3.090   3.285
 5150SOL    HW116016   3.192   3.017   3.227
 5150SOL    HW216017   3.207   3.095   3.370
 5151SOL     OW16018   2.671   1.866   2.364
 5151SOL    HW116019   2.711   1.957   2.355
 5151SOL    HW216020   2.571   1.874   2.370
 5152SOL     OW16021   2.059   2.838   3.126
 5152SOL    HW116022   2.148   2.793   3.112
 5152SOL    HW216023   1.986   2.773   3.107
 5153SOL     OW16024   3.387   2.861   2.052
 5153SOL    HW116025   3.324   2.785   2.065
 5153SOL    HW216026   3.435   2.879   2.138
 5154SOL     OW16027   3.049   3.654   3.478
 5154SOL    HW116028   3.073   3.714   3.402
 5154SOL    HW216029   3.056   3.559   3.448
 5155SOL     OW16030   3.328   3.279   2.815
 5155SOL    HW116031   3.269   3.285   2.895
 5155SOL    HW216032   3.313   3.191   2.769
 5156SOL     OW16033   3.529   3.576   2.434
 5156SOL    HW116034   3.488   3.553   2.346
 5156SOL    HW216035   3.511   3.502   2.499
 5157SOL     OW16036   2.460   2.591   2.132
 5157SOL    HW116037   2.484   2.660   2.064
 5157SOL    HW216038   2.382   2.624   2.186
 5158SOL     OW16039   3.143   2.207   2.806
 5158SOL    HW116040   3.057   2.157   2.793
 5158SOL    HW216041   3.205   2.153   2.862
 5159SOL     OW16042   3.438   3.524   2.169
 5159SOL    HW116043   3.527   3.570   2.172
 5159SOL    HW216044   3.417   3.500   2.074
 5160SOL     OW16045   2.669   2.467   3.327
 5160SOL    HW116046   2.622   2.464   3.416
 5160SOL    HW216047   2.618   2.412   3.261
 5161SOL     OW16048   3.256   2.331   3.536
 5161SOL    HW116049   3.236   2.374   3.624
 5161SOL    HW216050   3.334   2.269   3.545
 5162SOL     OW16051   2.835   2.752   3.434
 5162SOL    HW116052   2.881   2.668   3.405
 5162SOL    HW216053   2.779   2.786   3.359
 5163SOL     OW16054   2.853   2.272   3.104
 5163SOL    HW116055   2.776   2.306   3.158
 5163SOL    HW216056   2.819   2.221   3.025
 5164SOL     OW16057   2.903   2.563   2.291
 5164SOL    HW116058   2.929   2.559   2.387
 5164SOL    HW216059   2.818   2.512   2.277
 5165SOL     OW16060   1.938   2.673   2.651
 5165SOL    HW116061   2.037   2.661   2.660
 5165SOL    HW216062   1.914   2.768   2.672
 5166SOL     OW16063   1.992   3.683   3.433
 5166SOL    HW116064   1.982   3.668   3.532
 5166SOL    HW216065   1.906   3.719   3.397
 5167SOL     OW16066   2.727   2.210   2.057
 5167SOL    HW116067   2.786   2.273   2.008
 5167SOL    HW216068   2.746   2.116   2.028
 5168SOL     OW16069   3.581   2.447   3.693
 5168SOL    HW116070   3.555   2.536   3.657
 5168SOL    HW216071   3.579   2.379   3.620
 5169SOL     OW16072   3.224   3.006   2.407
 5169SOL    HW116073   3.307   2.977   2.359
 5169SOL    HW216074   3.175   3.073   2.351
 5170SOL     OW16075   2.412   2.058   2.747
 5170SOL    HW116076   2.407   2.053   2.847
 5170SOL    HW216077   2.414   2.154   2.718
 5171SOL     OW16078   2.870   3.318   2.339
 5171SOL    HW116079   2.824   3.390   2.287
 5171SOL    HW216080   2.866   3.338   2.437
 5172SOL     OW16081   2.213   3.663   2.715
 5172SOL    HW116082   2.263   3.577   2.721
 5172SOL    HW216083   2.278   3.740   2.712
 5173SOL     OW16084   3.657   2.928   2.735
 5173SOL    HW116085   3.595   2.913   2.659
 5173SOL    HW216086   3.605   2.939   2.820
 5174SOL     OW16087   3.089   3.412   3.368
 5174SOL    HW116088   3.095   3.335   3.432
 5174SOL    HW216089   3.037   3.386   3.288
 5175SOL     OW16090   2.183   2.805   2.104
 5175SOL    HW116091   2.265   2.844   2.062
 5175SOL    HW216092   2.156   2.723   2.055
 5176SOL     OW16093   3.320   2.597   2.590
 5176SOL    HW116094   3.315   2.532   2.665
 5176SOL    HW216095   3.400   2.656   2.603
 5177SOL     OW16096   2.323   3.128   3.589
 5177SOL    HW116097   2.273   3.129   3.503
 5177SOL    HW216098   2.260   3.110   3.665
 5178SOL     OW16099   2.973   3.638   2.099
 5178SOL    HW116100   2.913   3.576   2.149
 5178SOL    HW216101   3.004   3.594   2.014
 5179SOL     OW16102   3.494   3.239   1.943
 5179SOL    HW116103   3.462   3.333   1.933
 5179SOL    HW216104   3.418   3.176   1.931
 5180SOL     OW16105   2.326   3.605   2.185
 5180SOL    HW116106   2.359   3.644   2.271
 5180SOL    HW216107   2.402   3.598   2.120
 5181SOL     OW16108   3.262   1.969   2.288
 5181SOL    HW116109   3.238   1.932   2.198
 5181SOL    HW216110   3.361   1.985   2.292
 5182SOL     OW16111   2.111   3.647   3.103
 5182SOL    HW116112   2.168   3.582   3.153
 5182SOL    HW216113   2.095   3.614   3.010
 5183SOL     OW16114   2.802   3.560   2.766
 5183SOL    HW116115   2.882   3.503   2.787
 5183SOL    HW216116   2.753   3.520   2.689
 5184SOL     OW16117   2.244   2.562   2.342
 5184SOL    HW116118   2.289   2.472   2.339
 5184SOL    HW216119   2.150   2.551   2.375
 5185SOL     OW16120   3.409   2.084   3.591
 5185SOL    HW116121   3.404   2.121   3.683
 5185SOL    HW216122   3.337   2.015   3.579
 5186SOL     OW16123   2.476   1.984   1.979
 5186SOL    HW116124   2.574   1.962   1.986
 5186SOL    HW216125   2.445   1.967   1.886
 5187SOL     OW16126   2.643   2.126   3.611
 5187SOL    HW116127   2.710   2.065   3.654
 5187SOL    HW216128   2.570   2.145   3.676
 5188SOL     OW16129   2.750   3.376   3.057
 5188SOL    HW116130   2.727   3.351   2.963
 5188SOL    HW216131   2.811   3.307   3.096
 5189SOL     OW16132   3.213   2.452   3.295
 5189SOL    HW116133   3.241   2.409   3.380
 5189SOL    HW216134   3.238   2.548   3.296
 5190SOL     OW16135   2.665   3.264   2.786
 5190SOL    HW116136   2.755   3.278   2.744
 5190SOL    HW216137   2.594   3.266   2.715
 5191SOL     OW16138   2.784   2.365   2.761
 5191SOL    HW116139   2.759   2.356   2.665
 5191SOL    HW216140   2.832   2.283   2.792
 5192SOL     OW16141   2.401   1.926   2.374
 5192SOL    HW116142   2.320   1.927   2.432
 5192SOL    HW216143   2.404   2.009   2.319
 5193SOL     OW16144   3.296   3.050   1.903
 5193SOL    HW116145   3.328   2.974   1.960
 5193SOL    HW216146   3.204   3.077   1.933
 5194SOL     OW16147   2.797   2.098   2.342
 5194SOL    HW116148   2.749   2.139   2.264
 5194SOL    HW216149   2.896   2.096   2.323
 5195SOL     OW16150   2.938   2.545   3.326
 5195SOL    HW116151   2.858   2.484   3.329
 5195SOL    HW216152   3.019   2.492   3.302
 5196SOL     OW16153   3.089   3.432   2.655
 5196SOL    HW116154   3.110   3.506   2.590
 5196SOL    HW216155   3.157   3.432   2.728
 5197SOL     OW16156   2.321   3.014   2.603
 5197SOL    HW116157   2.250   2.987   2.668
 5197SOL    HW216158   2.295   2.986   2.510
 5198SOL     OW16159   3.133   3.659   2.453
 5198SOL    HW116160   3.177   3.723   2.389
 5198SOL    HW216161   3.083   3.711   2.523
 5199SOL     OW16162   2.894   2.411   1.878
 5199SOL    HW116163   2.853   2.493   1.839
 5199SOL    HW216164   2.958   2.437   1.951
 5200SOL     OW16165   1.940   2.418   3.248
 5200SOL    HW116166   2.032   2.417   3.207
 5200SOL    HW216167   1.934   2.492   3.315
 5201SOL     OW16168   2.423   2.084   3.009
 5201SOL    HW116169   2.461   2.000   3.046
 5201SOL    HW216170   2.335   2.103   3.053
 5202SOL     OW16171   2.728   2.316   2.504
 5202SOL    HW116172   2.696   2.388   2.442
 5202SOL    HW216173   2.752   2.235   2.451
 5203SOL     OW16174   2.879   1.901   2.615
 5203SOL    HW116175   2.807   1.906   2.546
 5203SOL    HW216176   2.855   1.832   2.684
 5204SOL     OW16177   3.291   3.035   2.729
 5204SOL    HW116178   3.236   2.951   2.722
 5204SOL    HW216179   3.317   3.064   2.637
 5205SOL     OW16180   3.328   2.452   2.854
 5205SOL    HW116181   3.298   2.357   2.861
 5205SOL    HW216182   3.401   2.468   2.920
 5206SOL     OW16183   3.719   2.695   2.239
 5206SOL    HW116184   3.761   2.631   2.303
 5206SOL    HW216185   3.681   2.644   2.161
 5207SOL     OW16186   2.350   3.247   2.036
 5207SOL    HW116187   2.263   3.232   2.083
 5207SOL    HW216188   2.333   3.273   1.941
 5208SOL     OW16189   3.526   3.142   2.519
 5208SOL    HW116190   3.625   3.150   2.533
 5208SOL    HW216191   3.481   3.226   2.550
 5209SOL     OW16192   3.252   2.437   1.940
 5209SOL    HW116193   3.198   2.416   2.021
 5209SOL    HW216194   3.343   2.396   1.949
 5210SOL     OW16195   2.389   2.118   2.190
 5210SOL    HW116196   2.416   2.059   2.115
 5210SOL    HW216197   2.389   2.213   2.159
 5211SOL     OW16198   3.616   3.085   3.450
 5211SOL    HW116199   3.707   3.046   3.437
 5211SOL    HW216200   3.624   3.181   3.474
 5212SOL     OW16201   2.926   3.209   3.202
 5212SOL    HW116202   2.846   3.186   3.257
 5212SOL    HW216203   3.009   3.183   3.251
 5213SOL     OW16204   3.454   3.491   3.487
 5213SOL    HW116205   3.481   3.525   3.397
 5213SOL    HW216206   3.533   3.453   3.533
 5214SOL     OW16207   2.973   3.057   2.962
 5214SOL    HW116208   2.933   3.101   3.043
 5214SOL    HW216209   2.932   3.094   2.879
 5215SOL     OW16210   3.500   2.961   2.941
 5215SOL    HW116211   3.505   3.042   3.000
 5215SOL    HW216212   3.414   2.963   2.890
 5216SOL     OW16213   2.777   1.951   3.264
 5216SOL    HW116214   2.802   1.931   3.169
 5216SOL    HW216215   2.849   2.007   3.306
 5217SOL     OW16216   2.842   2.978   3.581
 5217SOL    HW116217   2.743   2.984   3.591
 5217SOL    HW216218   2.865   2.898   3.525
 5218SOL     OW16219   2.567   2.912   2.230
 5218SOL    HW116220   2.553   2.919   2.329
 5218SOL    HW216221   2.651   2.861   2.212
 5219SOL     OW16222   2.272   2.675   3.113
 5219SOL    HW116223   2.358   2.687   3.163
 5219SOL    HW216224   2.230   2.588   3.140
 5220SOL     OW16225   3.136   2.248   3.124
 5220SOL    HW116226   3.157   2.322   3.188
 5220SOL    HW216227   3.047   2.265   3.081
 5221SOL     OW16228   1.926   3.426   3.193
 5221SOL    HW116229   1.880   3.508   3.159
 5221SOL    HW216230   2.024   3.445   3.202
 5222SOL     OW16231   2.229   2.962   2.363
 5222SOL    HW116232   2.222   3.045   2.307
 5222SOL    HW216233   2.233   2.882   2.303
 5223SOL     OW16234   2.428   2.399   2.727
 5223SOL    HW116235   2.440   2.465   2.653
 5223SOL    HW216236   2.474   2.433   2.810
 5224SOL     OW16237   3.114   3.210   2.250
 5224SOL    HW116238   3.164   3.287   2.290
 5224SOL    HW216239   3.019   3.212   2.282
 5225SOL     OW16240   3.134   3.307   3.004
 5225SOL    HW116241   3.181   3.320   3.091
 5225SOL    HW216242   3.068   3.233   3.013
 5226SOL     OW16243   3.444   2.501   2.334
 5226SOL    HW116244   3.413   2.562   2.407
 5226SOL    HW216245   3.494   2.553   2.265
 5227SOL     OW16246   2.216   3.372   3.191
 5227SOL    HW116247   2.195   3.328   3.104
 5227SOL    HW216248   2.313   3.398   3.194
 5228SOL     OW16249   2.264   2.613   3.460
 5228SOL    HW116250   2.332   2.668   3.413
 5228SOL    HW216251   2.304   2.525   3.487
 5229SOL     OW16252   3.449   2.641   3.532
 5229SOL    HW116253   3.357   2.679   3.527
 5229SOL    HW216254   3.509   2.688   3.467
 5230SOL     OW16255   2.875   1.967   3.632
 5230SOL    HW116256   2.881   2.052   3.580
 5230SOL    HW216257   2.907   1.891   3.575
 5231SOL     OW16258   2.366   1.912   3.602
 5231SOL    HW116259   2.324   1.855   3.532
 5231SOL    HW216260   2.300   1.981   3.634
 5232SOL     OW16261   2.435   2.732   2.891
 5232SOL    HW116262   2.479   2.821   2.882
 5232SOL    HW216263   2.372   2.732   2.968
 5233SOL     OW16264   3.222   2.724   2.907
 5233SOL    HW116265   3.147   2.724   2.841
 5233SOL    HW216266   3.259   2.632   2.916
 5234SOL     OW16267   3.071   2.387   2.137
 5234SOL    HW116268   3.084   2.303   2.191
 5234SOL    HW216269   3.042   2.461   2.197
 5235SOL     OW16270   1.899   3.172   3.144
 5235SOL    HW116271   1.952   3.123   3.212
 5235SOL    HW216272   1.921   3.270   3.149
 5236SOL     OW16273   2.594   2.496   2.926
 5236SOL    HW116274   2.653   2.470   2.850
 5236SOL    HW216275   2.566   2.592   2.915
 5237SOL     OW16276   3.590   2.797   3.716
 5237SOL    HW116277   3.544   2.790   3.627
 5237SOL    HW216278   3.528   2.841   3.782
 5238SOL     OW16279   2.169   1.925   2.480
 5238SOL    HW116280   2.158   2.019   2.513
 5238SOL    HW216281   2.164   1.862   2.557
 5239SOL     OW16282   3.484   2.229   2.236
 5239SOL    HW116283   3.486   2.153   2.300
 5239SOL    HW216284   3.436   2.306   2.276
 5240SOL     OW16285   2.885   2.628   2.828
 5240SOL    HW116286   2.900   2.649   2.924
 5240SOL    HW216287   2.855   2.533   2.819
 5241SOL     OW16288   2.842   3.435   3.562
 5241SOL    HW116289   2.822   3.479   3.474
 5241SOL    HW216290   2.881   3.344   3.546
 5242SOL     OW16291   3.721   3.380   3.467
 5242SOL    HW116292   3.735   3.407   3.372
 5242SOL    HW216293   3.804   3.402   3.520
 5243SOL     OW16294   2.212   2.760   3.666
 5243SOL    HW116295   2.288   2.804   3.714
 5243SOL    HW216296   2.247   2.713   3.584
 5244SOL     OW16297   3.402   2.136   1.987
 5244SOL    HW116298   3.341   2.061   2.010
 5244SOL    HW216299   3.424   2.188   2.070
 5245SOL     OW16300   3.165   2.700   1.904
 5245SOL    HW116301   3.199   2.607   1.919
 5245SOL    HW216302   3.183   2.727   1.809
 5246SOL     OW16303   2.930   3.195   2.711
 5246SOL    HW116304   2.937   3.111   2.656
 5246SOL    HW216305   2.992   3.264   2.675
 5247SOL     OW16306   2.181   2.672   2.811
 5247SOL    HW116307   2.274   2.708   2.816
 5247SOL    HW216308   2.175   2.587   2.863
 5248SOL     OW16309   2.201   2.371   2.868
 5248SOL    HW116310   2.149   2.288   2.851
 5248SOL    HW216311   2.278   2.376   2.804
 5249SOL     OW16312   3.000   2.242   3.540
 5249SOL    HW116313   2.955   2.305   3.604
 5249SOL    HW216314   3.093   2.273   3.523
 5250SOL     OW16315   3.022   2.069   3.339
 5250SOL    HW116316   3.022   2.133   3.416
 5250SOL    HW216317   3.050   2.117   3.256
 5251SOL     OW16318   1.870   3.188   2.062
 5251SOL    HW116319   1.777   3.209   2.031
 5251SOL    HW216320   1.880   3.089   2.075
 5252SOL     OW16321   1.950   3.663   2.789
 5252SOL    HW116322   1.908   3.577   2.762
 5252SOL    HW216323   2.044   3.666   2.755
 5253SOL     OW16324   2.366   3.430   2.772
 5253SOL    HW116325   2.432   3.504   2.781
 5253SOL    HW216326   2.410   3.351   2.730
 5254SOL     OW16327   2.864   2.658   3.100
 5254SOL    HW116328   2.905   2.626   3.186
 5254SOL    HW216329   2.768   2.631   3.097
 5255SOL     OW16330   1.902   2.406   2.976
 5255SOL    HW116331   1.987   2.373   2.935
 5255SOL    HW216332   1.915   2.421   3.074
 5256SOL     OW16333   2.051   2.382   3.584
 5256SOL    HW116334   2.110   2.342   3.514
 5256SOL    HW216335   1.993   2.453   3.543
 5257SOL     OW16336   3.231   2.812   3.522
 5257SOL    HW116337   3.270   2.901   3.542
 5257SOL    HW216338   3.241   2.792   3.425
 5258SOL     OW16339   2.677   2.434   2.187
 5258SOL    HW116340   2.684   2.345   2.141
 5258SOL    HW216341   2.583   2.468   2.179
 5259SOL     OW16342   3.519   2.466   3.068
 5259SOL    HW116343   3.481   2.397   3.130
 5259SOL    HW216344   3.601   2.430   3.024
 5260SOL     OW16345   2.114   3.426   3.606
 5260SOL    HW116346   2.084   3.483   3.682
 5260SOL    HW216347   2.107   3.329   3.632
 5261SOL     OW16348   2.533   2.326   3.131
 5261SOL    HW116349   2.499   2.237   3.101
 5261SOL    HW216350   2.559   2.380   3.051
 5262SOL     OW16351   2.792   3.540   3.327
 5262SOL    HW116352   2.768   3.522   3.232
 5262SOL    HW216353   2.822   3.634   3.337
 5263SOL     OW16354   2.335   2.362   2.053
 5263SOL    HW116355   2.396   2.442   2.057
 5263SOL    HW216356   2.240   2.393   2.060
 5264SOL     OW16357   2.021   2.999   3.328
 5264SOL    HW116358   2.043   2.938   3.404
 5264SOL    HW216359   2.031   2.950   3.242
 5265SOL     OW16360   3.209   2.921   3.096
 5265SOL    HW116361   3.233   2.858   3.022
 5265SOL    HW216362   3.119   2.961   3.078
 5266SOL     OW16363   3.164   2.717   2.171
 5266SOL    HW116364   3.078   2.686   2.213
 5266SOL    HW216365   3.160   2.703   2.072
 5267SOL     OW16366   3.621   3.609   3.016
 5267SOL    HW116367   3.682   3.639   2.943
 5267SOL    HW216368   3.583   3.520   2.994
 5268SOL     OW16369   3.114   3.593   2.990
 5268SOL    HW116370   3.198   3.598   2.936
 5268SOL    HW216371   3.091   3.497   3.008
 5269SOL     OW16372   1.945   3.120   2.884
 5269SOL    HW116373   1.940   3.119   2.984
 5269SOL    HW216374   1.862   3.079   2.846
 5270SOL     OW16375   2.550   3.524   3.578
 5270SOL    HW116376   2.494   3.605   3.587
 5270SOL    HW216377   2.602   3.528   3.492
 5271SOL     OW16378   3.588   1.997   2.385
 5271SOL    HW116379   3.661   1.980   2.318
 5271SOL    HW216380   3.557   1.910   2.423
 5272SOL     OW16381   3.250   3.435   2.339
 5272SOL    HW116382   3.317   3.447   2.265
 5272SOL    HW216383   3.210   3.524   2.362
 5273SOL     OW16384   1.992   3.656   3.713
 5273SOL    HW116385   1.951   3.582   3.766
 5273SOL    HW216386   2.056   3.707   3.771
 5274SOL     OW16387   3.142   2.789   2.534
 5274SOL    HW116388   3.202   2.708   2.536
 5274SOL    HW216389   3.182   2.858   2.474
 5275SOL     OW16390   2.692   3.135   3.284
 5275SOL    HW116391   2.687   3.168   3.379
 5275SOL    HW216392   2.606   3.154   3.238
 5276SOL     OW16393   2.534   3.478   2.016
 5276SOL    HW116394   2.543   3.488   1.917
 5276SOL    HW216395   2.494   3.389   2.037
 5277SOL     OW16396   3.512   3.582   3.256
 5277SOL    HW116397   3.565   3.592   3.172
 5277SOL    HW216398   3.485   3.672   3.290
 5278SOL     OW16399   3.703   2.037   2.825
 5278SOL    HW116400   3.742   1.952   2.789
 5278SOL    HW216401   3.605   2.039   2.806
 5279SOL     OW16402   3.056   3.474   1.893
 5279SOL    HW116403   3.062   3.381   1.930
 5279SOL    HW216404   2.997   3.474   1.813
 5280SOL     OW16405   2.684   2.864   3.234
 5280SOL    HW116406   2.724   2.863   3.142
 5280SOL    HW216407   2.694   2.956   3.274
 5281SOL     OW16408   2.778   2.772   2.153
 5281SOL    HW116409   2.841   2.810   2.085
 5281SOL    HW216410   2.818   2.689   2.192
 5282SOL     OW16411   3.366   3.469   1.906
 5282SOL    HW116412   3.274   3.506   1.913
 5282SOL    HW216413   3.404   3.489   1.816
 5283SOL     OW16414   2.234   3.150   3.352
 5283SOL    HW116415   2.221   3.243   3.318
 5283SOL    HW216416   2.150   3.098   3.339
 5284SOL     OW16417   3.476   3.154   3.151
 5284SOL    HW116418   3.536   3.157   3.231
 5284SOL    HW216419   3.401   3.218   3.164
 5285SOL     OW16420   2.901   2.960   2.558
 5285SOL    HW116421   2.831   2.913   2.612
 5285SOL    HW216422   2.960   2.892   2.515
 5286SOL     OW16423   2.876   2.098   2.833
 5286SOL    HW116424   2.868   2.062   2.740
 5286SOL    HW216425   2.874   2.022   2.898
 5287SOL     OW16426   2.452   3.349   2.353
 5287SOL    HW116427   2.494   3.291   2.283
 5287SOL    HW216428   2.408   3.428   2.309
 5288SOL     OW16429   3.571   2.247   3.243
 5288SOL    HW116430   3.644   2.316   3.247
 5288SOL    HW216431   3.599   2.172   3.184
 5289SOL     OW16432   2.117   3.210   2.152
 5289SOL    HW116433   2.021   3.211   2.125
 5289SOL    HW216434   2.129   3.263   2.236
 5290SOL     OW16435   1.967   2.875   3.588
 5290SOL    HW116436   1.890   2.842   3.642
 5290SOL    HW216437   2.052   2.845   3.630
 5291SOL     OW16438   2.534   2.065   3.351
 5291SOL    HW116439   2.624   2.049   3.311
 5291SOL    HW216440   2.542   2.070   3.450
 5292SOL     OW16441   1.937   2.207   1.895
 5292SOL    HW116442   1.845   2.179   1.866
 5292SOL    HW216443   1.968   2.284   1.839
 5293SOL     OW16444   3.302   2.718   3.260
 5293SOL    HW116445   3.245   2.770   3.197
 5293SOL    HW216446   3.398   2.730   3.236
 5294SOL     OW16447   3.045   3.197   1.981
 5294SOL    HW116448   2.946   3.186   1.983
 5294SOL    HW216449   3.079   3.212   2.074
 5295SOL     OW16450   2.475   2.704   3.293
 5295SOL    HW116451   2.531   2.785   3.276
 5295SOL    HW216452   2.534   2.624   3.296
 5296SOL     OW16453   3.355   3.629   2.821
 5296SOL    HW116454   3.388   3.693   2.752
 5296SOL    HW216455   3.421   3.623   2.896
 5297SOL     OW16456   2.578   2.427   3.570
 5297SOL    HW116457   2.597   2.492   3.644
 5297SOL    HW216458   2.638   2.347   3.579
 5298SOL     OW16459   3.312   3.082   3.495
 5298SOL    HW116460   3.303   3.072   3.594
 5298SOL    HW216461   3.408   3.075   3.469
 5299SOL     OW16462   2.252   3.603   3.422
 5299SOL    HW116463   2.161   3.644   3.420
 5299SOL    HW216464   2.245   3.509   3.454
 5300SOL     OW16465   3.536   2.745   3.116
 5300SOL    HW116466   3.509   2.656   3.079
 5300SOL    HW216467   3.537   2.813   3.043
 5301SOL     OW16468   3.087   2.187   2.311
 5301SOL    HW116469   3.152   2.113   2.300
 5301SOL    HW216470   3.107   2.237   2.395
 5302SOL     OW16471   2.456   2.607   2.514
 5302SOL    HW116472   2.506   2.692   2.495
 5302SOL    HW216473   2.368   2.609   2.466
 5303SOL     OW16474   3.639   2.204   3.504
 5303SOL    HW116475   3.622   2.235   3.410
 5303SOL    HW216476   3.555   2.167   3.542
 5304SOL     OW16477   3.592   2.796   3.379
 5304SOL    HW116478   3.630   2.887   3.394
 5304SOL    HW216479   3.584   2.779   3.280
 5305SOL     OW16480   2.721   3.236   1.878
 5305SOL    HW116481   2.675   3.251   1.966
 5305SOL    HW216482   2.765   3.321   1.848
 5306SOL     OW16483   2.523   3.652   2.815
 5306SOL    HW116484   2.477   3.740   2.802
 5306SOL    HW216485   2.622   3.664   2.808
 5307SOL     OW16486   2.721   2.818   2.723
 5307SOL    HW116487   2.775   2.749   2.771
 5307SOL    HW216488   2.689   2.887   2.789
 5308SOL     OW16489   2.945   2.846   1.949
 5308SOL    HW116490   2.922   2.899   1.867
 5308SOL    HW216491   3.026   2.790   1.930
 5309SOL     OW16492   3.723   3.431   2.713
 5309SOL    HW116493   3.652   3.419   2.643
 5309SOL    HW216494   3.724   3.352   2.773
 5310SOL     OW16495   2.083   3.176   3.706
 5310SOL    HW116496   2.018   3.103   3.685
 5310SOL    HW216497   2.087   3.190   3.804
 5311SOL     OW16498   1.941   3.102   2.515
 5311SOL    HW116499   1.940   3.055   2.603
 5311SOL    HW216500   2.023   3.074   2.464
 5312SOL     OW16501   2.534   3.253   3.486
 5312SOL    HW116502   2.456   3.203   3.524
 5312SOL    HW216503   2.531   3.348   3.517
 5313SOL     OW16504   3.686   2.054   3.089
 5313SOL    HW116505   3.682   1.964   3.133
 5313SOL    HW216506   3.689   2.043   2.990
 5314SOL     OW16507   2.290   2.286   2.382
 5314SOL    HW116508   2.320   2.214   2.320
 5314SOL    HW216509   2.251   2.246   2.465
 5315SOL     OW16510   3.567   3.349   2.966
 5315SOL    HW116511   3.474   3.324   2.939
 5315SOL    HW216512   3.593   3.299   3.048
 5316SOL     OW16513   2.179   2.409   3.142
 5316SOL    HW116514   2.217   2.350   3.214
 5316SOL    HW216515   2.219   2.383   3.054
 5317SOL     OW16516   2.674   3.448   2.549
 5317SOL    HW116517   2.706   3.458   2.455
 5317SOL    HW216518   2.595   3.386   2.551
 5318SOL     OW16519   3.286   2.076   2.974
 5318SOL    HW116520   3.338   2.011   3.029
 5318SOL    HW216521   3.237   2.139   3.035
 5319SOL     OW16522   2.863   1.896   3.016
 5319SOL    HW116523   2.800   1.824   2.985
 5319SOL    HW216524   2.956   1.860   3.016
 5320SOL     OW16525   2.632   3.192   2.163
 5320SOL    HW116526   2.586   3.105   2.180
 5320SOL    HW216527   2.723   3.189   2.204
 5321SOL     OW16528   2.480   3.429   3.146
 5321SOL    HW116529   2.475   3.511   3.203
 5321SOL    HW216530   2.569   3.426   3.101
 5322SOL     OW16531   3.214   1.914   2.030
 5322SOL    HW116532   3.249   1.873   1.946
 5322SOL    HW216533   3.124   1.876   2.050
 5323SOL     OW16534   3.162   2.315   2.553
 5323SOL    HW116535   3.103   2.395   2.557
 5323SOL    HW216536   3.177   2.280   2.646
 5324SOL     OW16537   3.455   2.083   2.744
 5324SOL    HW116538   3.371   2.082   2.798
 5324SOL    HW216539   3.457   2.166   2.688
 5325SOL     OW16540   1.901   2.939   2.162
 5325SOL    HW116541   2.000   2.928   2.153
 5325SOL    HW216542   1.861   2.853   2.194
 5326SOL     OW16543   2.737   3.508   2.199
 5326SOL    HW116544   2.660   3.473   2.145
 5326SOL    HW216545   2.705   3.579   2.261
 5327SOL     OW16546   2.092   2.490   3.837
 5327SOL    HW116547   1.999   2.488   3.874
 5327SOL    HW216548   2.093   2.451   3.745
 5328SOL     OW16549   1.881   2.230   4.371
 5328SOL    HW116550   1.799   2.273   4.410
 5328SOL    HW216551   1.853   2.157   4.308
 5329SOL     OW16552   2.431   3.137   4.889
 5329SOL    HW116553   2.338   3.130   4.852
 5329SOL    HW216554   2.442   3.226   4.933
 5330SOL     OW16555   3.417   3.373   4.427
 5330SOL    HW116556   3.360   3.357   4.508
 5330SOL    HW216557   3.358   3.383   4.347
 5331SOL     OW16558   2.997   2.565   4.441
 5331SOL    HW116559   3.054   2.643   4.416
 5331SOL    HW216560   2.937   2.591   4.517
 5332SOL     OW16561   3.617   2.469   3.955
 5332SOL    HW116562   3.605   2.456   3.856
 5332SOL    HW216563   3.587   2.388   4.004
 5333SOL     OW16564   2.630   3.006   4.747
 5333SOL    HW116565   2.552   3.023   4.807
 5333SOL    HW216566   2.664   3.093   4.711
 5334SOL     OW16567   2.712   2.660   5.547
 5334SOL    HW116568   2.708   2.736   5.612
 5334SOL    HW216569   2.734   2.696   5.456
 5335SOL     OW16570   2.547   2.874   4.389
 5335SOL    HW116571   2.616   2.858   4.459
 5335SOL    HW216572   2.474   2.931   4.427
 5336SOL     OW16573   2.548   3.023   5.527
 5336SOL    HW116574   2.608   3.102   5.541
 5336SOL    HW216575   2.462   3.054   5.486
 5337SOL     OW16576   2.197   3.297   4.785
 5337SOL    HW116577   2.119   3.266   4.732
 5337SOL    HW216578   2.255   3.355   4.728
 5338SOL     OW16579   3.322   3.367   5.063
 5338SOL    HW116580   3.346   3.461   5.089
 5338SOL    HW216581   3.306   3.313   5.145
 5339SOL     OW16582   2.300   2.254   5.223
 5339SOL    HW116583   2.382   2.198   5.232
 5339SOL    HW216584   2.219   2.196   5.227
 5340SOL     OW16585   3.465   2.309   4.461
 5340SOL    HW116586   3.391   2.355   4.411
 5340SOL    HW216587   3.516   2.377   4.514
 5341SOL     OW16588   2.093   3.575   4.207
 5341SOL    HW116589   2.127   3.652   4.261
 5341SOL    HW216590   2.137   3.575   4.117
 5342SOL     OW16591   2.989   3.203   5.414
 5342SOL    HW116592   3.036   3.203   5.502
 5342SOL    HW216593   2.941   3.116   5.403
 5343SOL     OW16594   2.092   3.296   4.262
 5343SOL    HW116595   2.066   3.392   4.262
 5343SOL    HW216596   2.021   3.242   4.307
 5344SOL     OW16597   2.102   2.953   4.610
 5344SOL    HW116598   2.116   2.869   4.662
 5344SOL    HW216599   2.047   3.017   4.665
 5345SOL     OW16600   2.482   3.648   5.163
 5345SOL    HW116601   2.390   3.631   5.198
 5345SOL    HW216602   2.510   3.740   5.189
 5346SOL     OW16603   2.468   2.826   3.847
 5346SOL    HW116604   2.475   2.910   3.793
 5346SOL    HW216605   2.514   2.839   3.935
 5347SOL     OW16606   3.456   1.976   5.204
 5347SOL    HW116607   3.438   2.043   5.132
 5347SOL    HW216608   3.453   2.022   5.293
 5348SOL     OW16609   1.984   2.505   4.287
 5348SOL    HW116610   1.939   2.417   4.304
 5348SOL    HW216611   1.983   2.559   4.371
 5349SOL     OW16612   3.704   3.629   4.083
 5349SOL    HW116613   3.758   3.600   4.163
 5349SOL    HW216614   3.734   3.719   4.054
 5350SOL     OW16615   1.889   3.458   3.841
 5350SOL    HW116616   1.870   3.362   3.862
 5350SOL    HW216617   1.856   3.516   3.916
 5351SOL     OW16618   3.551   2.784   4.336
 5351SOL    HW116619   3.646   2.755   4.344
 5351SOL    HW216620   3.543   2.849   4.261
 5352SOL     OW16621   3.503   2.970   4.156
 5352SOL    HW116622   3.589   2.972   4.104
 5352SOL    HW216623   3.517   3.017   4.244
 5353SOL     OW16624   1.975   2.599   5.321
 5353SOL    HW116625   2.063   2.586   5.366
 5353SOL    HW216626   1.962   2.696   5.299
 5354SOL     OW16627   2.475   3.227   4.450
 5354SOL    HW116628   2.426   3.140   4.459
 5354SOL    HW216629   2.452   3.270   4.363
 5355SOL     OW16630   3.155   3.090   5.147
 5355SOL    HW116631   3.192   3.017   5.089
 5355SOL    HW216632   3.207   3.095   5.232
 5356SOL     OW16633   2.671   1.866   4.226
 5356SOL    HW116634   2.711   1.957   4.217
 5356SOL    HW216635   2.571   1.874   4.232
 5357SOL     OW16636   2.059   2.838   4.988
 5357SOL    HW116637   2.148   2.793   4.974
 5357SOL    HW216638   1.986   2.773   4.969
 5358SOL     OW16639   3.387   2.861   3.914
 5358SOL    HW116640   3.324   2.785   3.927
 5358SOL    HW216641   3.435   2.879   4.000
 5359SOL     OW16642   3.049   3.654   5.340
 5359SOL    HW116643   3.073   3.714   5.264
 5359SOL    HW216644   3.056   3.559   5.310
 5360SOL     OW16645   3.328   3.279   4.677
 5360SOL    HW116646   3.269   3.285   4.757
 5360SOL    HW216647   3.313   3.191   4.631
 5361SOL     OW16648   3.529   3.576   4.296
 5361SOL    HW116649   3.488   3.553   4.208
 5361SOL    HW216650   3.511   3.502   4.361
 5362SOL     OW16651   2.460   2.591   3.994
 5362SOL    HW116652   2.484   2.660   3.926
 5362SOL    HW216653   2.382   2.624   4.048
 5363SOL     OW16654   3.143   2.207   4.668
 5363SOL    HW116655   3.057   2.157   4.655
 5363SOL    HW216656   3.205   2.153   4.724
 5364SOL     OW16657   3.438   3.524   4.031
 5364SOL    HW116658   3.527   3.570   4.034
 5364SOL    HW216659   3.417   3.500   3.936
 5365SOL     OW16660   2.669   2.467   5.189
 5365SOL    HW116661   2.622   2.464   5.278
 5365SOL    HW216662   2.618   2.412   5.123
 5366SOL     OW16663   3.256   2.331   5.398
 5366SOL    HW116664   3.236   2.374   5.486
 5366SOL    HW216665   3.334   2.269   5.407
 5367SOL     OW16666   2.835   2.752   5.296
 5367SOL    HW116667   2.881   2.668   5.267
 5367SOL    HW216668   2.779   2.786   5.221
 5368SOL     OW16669   2.853   2.272   4.966
 5368SOL    HW116670   2.776   2.306   5.020
 5368SOL    HW216671   2.819   2.221   4.887
 5369SOL     OW16672   2.903   2.563   4.153
 5369SOL    HW116673   2.929   2.559   4.249
 5369SOL    HW216674   2.818   2.512   4.139
 5370SOL     OW16675   1.938   2.673   4.513
 5370SOL    HW116676   2.037   2.661   4.522
 5370SOL    HW216677   1.914   2.768   4.534
 5371SOL     OW16678   1.992   3.683   5.295
 5371SOL    HW116679   1.982   3.668   5.394
 5371SOL    HW216680   1.906   3.719   5.259
 5372SOL     OW16681   2.727   2.210   3.919
 5372SOL    HW116682   2.786   2.273   3.870
 5372SOL    HW216683   2.746   2.116   3.890
 5373SOL     OW16684   3.581   2.447   5.555
 5373SOL    HW116685   3.555   2.536   5.519
 5373SOL    HW216686   3.579   2.379   5.482
 5374SOL     OW16687   3.224   3.006   4.269
 5374SOL    HW116688   3.307   2.977   4.221
 5374SOL    HW216689   3.175   3.073   4.213
 5375SOL     OW16690   2.412   2.058   4.609
 5375SOL    HW116691   2.407   2.053   4.709
 5375SOL    HW216692   2.414   2.154   4.580
 5376SOL     OW16693   2.870   3.318   4.201
 5376SOL    HW116694   2.824   3.390   4.149
 5376SOL    HW216695   2.866   3.338   4.299
 5377SOL     OW16696   2.213   3.663   4.577
 5377SOL    HW116697   2.263   3.577   4.583
 5377SOL    HW216698   2.278   3.740   4.574
 5378SOL     OW16699   3.657   2.928   4.597
 5378SOL    HW116700   3.595   2.913   4.521
 5378SOL    HW216701   3.605   2.939   4.682
 5379SOL     OW16702   3.089   3.412   5.230
 5379SOL    HW116703   3.095   3.335   5.294
 5379SOL    HW216704   3.037   3.386   5.150
 5380SOL     OW16705   2.183   2.805   3.966
 5380SOL    HW116706   2.265   2.844   3.924
 5380SOL    HW216707   2.156   2.723   3.917
 5381SOL     OW16708   3.320   2.597   4.452
 5381SOL    HW116709   3.315   2.532   4.527
 5381SOL    HW216710   3.400   2.656   4.465
 5382SOL     OW16711   2.323   3.128   5.451
 5382SOL    HW116712   2.273   3.129   5.365
 5382SOL    HW216713   2.260   3.110   5.527
 5383SOL     OW16714   2.973   3.638   3.961
 5383SOL    HW116715   2.913   3.576   4.011
 5383SOL    HW216716   3.004   3.594   3.876
 5384SOL     OW16717   3.494   3.239   3.805
 5384SOL    HW116718   3.462   3.333   3.795
 5384SOL    HW216719   3.418   3.176   3.793
 5385SOL     OW16720   2.326   3.605   4.047
 5385SOL    HW116721   2.359   3.644   4.133
 5385SOL    HW216722   2.402   3.598   3.982
 5386SOL     OW16723   3.262   1.969   4.150
 5386SOL    HW116724   3.238   1.932   4.060
 5386SOL    HW216725   3.361   1.985   4.154
 5387SOL     OW16726   2.111   3.647   4.965
 5387SOL    HW116727   2.168   3.582   5.015
 5387SOL    HW216728   2.095   3.614   4.872
 5388SOL     OW16729   2.802   3.560   4.628
 5388SOL    HW116730   2.882   3.503   4.649
 5388SOL    HW216731   2.753   3.520   4.551
 5389SOL     OW16732   2.244   2.562   4.204
 5389SOL    HW116733   2.289   2.472   4.201
 5389SOL    HW216734   2.150   2.551   4.237
 5390SOL     OW16735   3.409   2.084   5.453
 5390SOL    HW116736   3.404   2.121   5.545
 5390SOL    HW216737   3.337   2.015   5.441
 5391SOL     OW16738   2.476   1.984   3.841
 5391SOL    HW116739   2.574   1.962   3.848
 5391SOL    HW216740   2.445   1.967   3.748
 5392SOL     OW16741   2.643   2.126   5.473
 5392SOL    HW116742   2.710   2.065   5.516
 5392SOL    HW216743   2.570   2.145   5.538
 5393SOL     OW16744   2.750   3.376   4.919
 5393SOL    HW116745   2.727   3.351   4.825
 5393SOL    HW216746   2.811   3.307   4.958
 5394SOL     OW16747   3.213   2.452   5.157
 5394SOL    HW116748   3.241   2.409   5.242
 5394SOL    HW216749   3.238   2.548   5.158
 5395SOL     OW16750   2.665   3.264   4.648
 5395SOL    HW116751   2.755   3.278   4.606
 5395SOL    HW216752   2.594   3.266   4.577
 5396SOL     OW16753   2.784   2.365   4.623
 5396SOL    HW116754   2.759   2.356   4.527
 5396SOL    HW216755   2.832   2.283   4.654
 5397SOL     OW16756   2.401   1.926   4.236
 5397SOL    HW116757   2.320   1.927   4.294
 5397SOL    HW216758   2.404   2.009   4.181
 5398SOL     OW16759   3.296   3.050   3.765
 5398SOL    HW116760   3.328   2.974   3.822
 5398SOL    HW216761   3.204   3.077   3.795
 5399SOL     OW16762   2.797   2.098   4.204
 5399SOL    HW116763   2.749   2.139   4.126
 5399SOL    HW216764   2.896   2.096   4.185
 5400SOL     OW16765   2.938   2.545   5.188
 5400SOL    HW116766   2.858   2.484   5.191
 5400SOL    HW216767   3.019   2.492   5.164
 5401SOL     OW16768   3.089   3.432   4.517
 5401SOL    HW116769   3.110   3.506   4.452
 5401SOL    HW216770   3.157   3.432   4.590
 5402SOL     OW16771   2.321   3.014   4.465
 5402SOL    HW116772   2.250   2.987   4.530
 5402SOL    HW216773   2.295   2.986   4.372
 5403SOL     OW16774   3.133   3.659   4.315
 5403SOL    HW116775   3.177   3.723   4.251
 5403SOL    HW216776   3.083   3.711   4.385
 5404SOL     OW16777   2.894   2.411   3.740
 5404SOL    HW116778   2.853   2.493   3.701
 5404SOL    HW216779   2.958   2.437   3.813
 5405SOL     OW16780   1.940   2.418   5.110
 5405SOL    HW116781   2.032   2.417   5.069
 5405SOL    HW216782   1.934   2.492   5.177
 5406SOL     OW16783   2.423   2.084   4.871
 5406SOL    HW116784   2.461   2.000   4.908
 5406SOL    HW216785   2.335   2.103   4.915
 5407SOL     OW16786   2.728   2.316   4.366
 5407SOL    HW116787   2.696   2.388   4.304
 5407SOL    HW216788   2.752   2.235   4.313
 5408SOL     OW16789   2.879   1.901   4.477
 5408SOL    HW116790   2.807   1.906   4.408
 5408SOL    HW216791   2.855   1.832   4.546
 5409SOL     OW16792   3.291   3.035   4.591
 5409SOL    HW116793   3.236   2.951   4.584
 5409SOL    HW216794   3.317   3.064   4.499
 5410SOL     OW16795   3.328   2.452   4.716
 5410SOL    HW116796   3.298   2.357   4.723
 5410SOL    HW216797   3.401   2.468   4.782
 5411SOL     OW16798   3.719   2.695   4.101
 5411SOL    HW116799   3.761   2.631   4.165
 5411SOL    HW216800   3.681   2.644   4.023
 5412SOL     OW16801   2.350   3.247   3.898
 5412SOL    HW116802   2.263   3.232   3.945
 5412SOL    HW216803   2.333   3.273   3.803
 5413SOL     OW16804   3.526   3.142   4.381
 5413SOL    HW116805   3.625   3.150   4.395
 5413SOL    HW216806   3.481   3.226   4.412
 5414SOL     OW16807   3.252   2.437   3.802
 5414SOL    HW116808   3.198   2.416   3.883
 5414SOL    HW216809   3.343   2.396   3.811
 5415SOL     OW16810   2.389   2.118   4.052
 5415SOL    HW116811   2.416   2.059   3.977
 5415SOL    HW216812   2.389   2.213   4.021
 5416SOL     OW16813   3.616   3.085   5.312
 5416SOL    HW116814   3.707   3.046   5.299
 5416SOL    HW216815   3.624   3.181   5.336
 5417SOL     OW16816   2.926   3.209   5.064
 5417SOL    HW116817   2.846   3.186   5.119
 5417SOL    HW216818   3.009   3.183   5.113
 5418SOL     OW16819   3.454   3.491   5.349
 5418SOL    HW116820   3.481   3.525   5.259
 5418SOL    HW216821   3.533   3.453   5.395
 5419SOL     OW16822   2.973   3.057   4.824
 5419SOL    HW116823   2.933   3.101   4.905
 5419SOL    HW216824   2.932   3.094   4.741
 5420SOL     OW16825   3.500   2.961   4.803
 5420SOL    HW116826   3.505   3.042   4.862
 5420SOL    HW216827   3.414   2.963   4.752
 5421SOL     OW16828   2.777   1.951   5.126
 5421SOL    HW116829   2.802   1.931   5.031
 5421SOL    HW216830   2.849   2.007   5.168
 5422SOL     OW16831   2.842   2.978   5.443
 5422SOL    HW116832   2.743   2.984   5.453
 5422SOL    HW216833   2.865   2.898   5.387
 5423SOL     OW16834   2.567   2.912   4.092
 5423SOL    HW116835   2.553   2.919   4.191
 5423SOL    HW216836   2.651   2.861   4.074
 5424SOL     OW16837   2.272   2.675   4.975
 5424SOL    HW116838   2.358   2.687   5.025
 5424SOL    HW216839   2.230   2.588   5.002
 5425SOL     OW16840   3.136   2.248   4.986
 5425SOL    HW116841   3.157   2.322   5.050
 5425SOL    HW216842   3.047   2.265   4.943
 5426SOL     OW16843   1.926   3.426   5.055
 5426SOL    HW116844   1.880   3.508   5.021
 5426SOL    HW216845   2.024   3.445   5.064
 5427SOL     OW16846   2.229   2.962   4.225
 5427SOL    HW116847   2.222   3.045   4.169
 5427SOL    HW216848   2.233   2.882   4.165
 5428SOL     OW16849   2.428   2.399   4.589
 5428SOL    HW116850   2.440   2.465   4.515
 5428SOL    HW216851   2.474   2.433   4.672
 5429SOL     OW16852   3.114   3.210   4.112
 5429SOL    HW116853   3.164   3.287   4.152
 5429SOL    HW216854   3.019   3.212   4.144
 5430SOL     OW16855   3.134   3.307   4.866
 5430SOL    HW116856   3.181   3.320   4.953
 5430SOL    HW216857   3.068   3.233   4.875
 5431SOL     OW16858   3.444   2.501   4.196
 5431SOL    HW116859   3.413   2.562   4.269
 5431SOL    HW216860   3.494   2.553   4.127
 5432SOL     OW16861   2.216   3.372   5.053
 5432SOL    HW116862   2.195   3.328   4.966
 5432SOL    HW216863   2.313   3.398   5.056
 5433SOL     OW16864   2.264   2.613   5.322
 5433SOL    HW116865   2.332   2.668   5.275
 5433SOL    HW216866   2.304   2.525   5.349
 5434SOL     OW16867   3.449   2.641   5.394
 5434SOL    HW116868   3.357   2.679   5.389
 5434SOL    HW216869   3.509   2.688   5.329
 5435SOL     OW16870   2.875   1.967   5.494
 5435SOL    HW116871   2.881   2.052   5.442
 5435SOL    HW216872   2.907   1.891   5.437
 5436SOL     OW16873   2.366   1.912   5.464
 5436SOL    HW116874   2.324   1.855   5.394
 5436SOL    HW216875   2.300   1.981   5.496
 5437SOL     OW16876   2.435   2.732   4.753
 5437SOL    HW116877   2.479   2.821   4.744
 5437SOL    HW216878   2.372   2.732   4.830
 5438SOL     OW16879   3.222   2.724   4.769
 5438SOL    HW116880   3.147   2.724   4.703
 5438SOL    HW216881   3.259   2.632   4.778
 5439SOL     OW16882   3.071   2.387   3.999
 5439SOL    HW116883   3.084   2.303   4.053
 5439SOL    HW216884   3.042   2.461   4.059
 5440SOL     OW16885   1.899   3.172   5.006
 5440SOL    HW116886   1.952   3.123   5.074
 5440SOL    HW216887   1.921   3.270   5.011
 5441SOL     OW16888   2.594   2.496   4.788
 5441SOL    HW116889   2.653   2.470   4.712
 5441SOL    HW216890   2.566   2.592   4.777
 5442SOL     OW16891   3.590   2.797   5.578
 5442SOL    HW116892   3.544   2.790   5.489
 5442SOL    HW216893   3.528   2.841   5.644
 5443SOL     OW16894   2.169   1.925   4.342
 5443SOL    HW116895   2.158   2.019   4.375
 5443SOL    HW216896   2.164   1.862   4.419
 5444SOL     OW16897   3.484   2.229   4.098
 5444SOL    HW116898   3.486   2.153   4.162
 5444SOL    HW216899   3.436   2.306   4.138
 5445SOL     OW16900   2.885   2.628   4.690
 5445SOL    HW116901   2.900   2.649   4.786
 5445SOL    HW216902   2.855   2.533   4.681
 5446SOL     OW16903   2.842   3.435   5.424
 5446SOL    HW116904   2.822   3.479   5.336
 5446SOL    HW216905   2.881   3.344   5.408
 5447SOL     OW16906   3.721   3.380   5.329
 5447SOL    HW116907   3.735   3.407   5.234
 5447SOL    HW216908   3.804   3.402   5.382
 5448SOL     OW16909   2.212   2.760   5.528
 5448SOL    HW116910   2.288   2.804   5.576
 5448SOL    HW216911   2.247   2.713   5.446
 5449SOL     OW16912   3.402   2.136   3.849
 5449SOL    HW116913   3.341   2.061   3.872
 5449SOL    HW216914   3.424   2.188   3.932
 5450SOL     OW16915   3.165   2.700   3.766
 5450SOL    HW116916   3.199   2.607   3.781
 5450SOL    HW216917   3.183   2.727   3.671
 5451SOL     OW16918   2.930   3.195   4.573
 5451SOL    HW116919   2.937   3.111   4.518
 5451SOL    HW216920   2.992   3.264   4.537
 5452SOL     OW16921   2.181   2.672   4.673
 5452SOL    HW116922   2.274   2.708   4.678
 5452SOL    HW216923   2.175   2.587   4.725
 5453SOL     OW16924   2.201   2.371   4.730
 5453SOL    HW116925   2.149   2.288   4.713
 5453SOL    HW216926   2.278   2.376   4.666
 5454SOL     OW16927   3.000   2.242   5.402
 5454SOL    HW116928   2.955   2.305   5.466
 5454SOL    HW216929   3.093   2.273   5.385
 5455SOL     OW16930   3.022   2.069   5.201
 5455SOL    HW116931   3.022   2.133   5.278
 5455SOL    HW216932   3.050   2.117   5.118
 5456SOL     OW16933   1.870   3.188   3.924
 5456SOL    HW116934   1.777   3.209   3.893
 5456SOL    HW216935   1.880   3.089   3.937
 5457SOL     OW16936   1.950   3.663   4.651
 5457SOL    HW116937   1.908   3.577   4.624
 5457SOL    HW216938   2.044   3.666   4.617
 5458SOL     OW16939   2.366   3.430   4.634
 5458SOL    HW116940   2.432   3.504   4.643
 5458SOL    HW216941   2.410   3.351   4.592
 5459SOL     OW16942   2.864   2.658   4.962
 5459SOL    HW116943   2.905   2.626   5.048
 5459SOL    HW216944   2.768   2.631   4.959
 5460SOL     OW16945   1.902   2.406   4.838
 5460SOL    HW116946   1.987   2.373   4.797
 5460SOL    HW216947   1.915   2.421   4.936
 5461SOL     OW16948   2.051   2.382   5.446
 5461SOL    HW116949   2.110   2.342   5.376
 5461SOL    HW216950   1.993   2.453   5.405
 5462SOL     OW16951   3.231   2.812   5.384
 5462SOL    HW116952   3.270   2.901   5.404
 5462SOL    HW216953   3.241   2.792   5.287
 5463SOL     OW16954   2.677   2.434   4.049
 5463SOL    HW116955   2.684   2.345   4.003
 5463SOL    HW216956   2.583   2.468   4.041
 5464SOL     OW16957   3.519   2.466   4.930
 5464SOL    HW116958   3.481   2.397   4.992
 5464SOL    HW216959   3.601   2.430   4.886
 5465SOL     OW16960   2.114   3.426   5.468
 5465SOL    HW116961   2.084   3.483   5.544
 5465SOL    HW216962   2.107   3.329   5.494
 5466SOL     OW16963   2.533   2.326   4.993
 5466SOL    HW116964   2.499   2.237   4.963
 5466SOL    HW216965   2.559   2.380   4.913
 5467SOL     OW16966   2.792   3.540   5.189
 5467SOL    HW116967   2.768   3.522   5.094
 5467SOL    HW216968   2.822   3.634   5.199
 5468SOL     OW16969   2.335   2.362   3.915
 5468SOL    HW116970   2.396   2.442   3.919
 5468SOL    HW216971   2.240   2.393   3.922
 5469SOL     OW16972   2.021   2.999   5.190
 5469SOL    HW116973   2.043   2.938   5.266
 5469SOL    HW216974   2.031   2.950   5.104
 5470SOL     OW16975   3.209   2.921   4.958
 5470SOL    HW116976   3.233   2.858   4.884
 5470SOL    HW216977   3.119   2.961   4.940
 5471SOL     OW16978   3.164   2.717   4.033
 5471SOL    HW116979   3.078   2.686   4.075
 5471SOL    HW216980   3.160   2.703   3.934
 5472SOL     OW16981   3.621   3.609   4.878
 5472SOL    HW116982   3.682   3.639   4.805
 5472SOL    HW216983   3.583   3.520   4.856
 5473SOL     OW16984   3.114   3.593   4.852
 5473SOL    HW116985   3.198   3.598   4.798
 5473SOL    HW216986   3.091   3.497   4.870
 5474SOL     OW16987   1.945   3.120   4.746
 5474SOL    HW116988   1.940   3.119   4.846
 5474SOL    HW216989   1.862   3.079   4.708
 5475SOL     OW16990   2.550   3.524   5.440
 5475SOL    HW116991   2.494   3.605   5.449
 5475SOL    HW216992   2.602   3.528   5.354
 5476SOL     OW16993   3.588   1.997   4.247
 5476SOL    HW116994   3.661   1.980   4.180
 5476SOL    HW216995   3.557   1.910   4.285
 5477SOL     OW16996   3.250   3.435   4.201
 5477SOL    HW116997   3.317   3.447   4.127
 5477SOL    HW216998   3.210   3.524   4.224
 5478SOL     OW16999   1.992   3.656   5.575
 5478SOL    HW117000   1.951   3.582   5.628
 5478SOL    HW217001   2.056   3.707   5.633
 5479SOL     OW17002   3.142   2.789   4.396
 5479SOL    HW117003   3.202   2.708   4.398
 5479SOL    HW217004   3.182   2.858   4.336
 5480SOL     OW17005   2.692   3.135   5.146
 5480SOL    HW117006   2.687   3.168   5.241
 5480SOL    HW217007   2.606   3.154   5.100
 5481SOL     OW17008   2.534   3.478   3.878
 5481SOL    HW117009   2.543   3.488   3.779
 5481SOL    HW217010   2.494   3.389   3.899
 5482SOL     OW17011   3.512   3.582   5.118
 5482SOL    HW117012   3.565   3.592   5.034
 5482SOL    HW217013   3.485   3.672   5.152
 5483SOL     OW17014   3.703   2.037   4.687
 5483SOL    HW117015   3.742   1.952   4.651
 5483SOL    HW217016   3.605   2.039   4.668
 5484SOL     OW17017   3.056   3.474   3.755
 5484SOL    HW117018   3.062   3.381   3.792
 5484SOL    HW217019   2.997   3.474   3.675
 5485SOL     OW17020   2.684   2.864   5.096
 5485SOL    HW117021   2.724   2.863   5.004
 5485SOL    HW217022   2.694   2.956   5.136
 5486SOL     OW17023   2.778   2.772   4.015
 5486SOL    HW117024   2.841   2.810   3.947
 5486SOL    HW217025   2.818   2.689   4.054
 5487SOL     OW17026   3.366   3.469   3.768
 5487SOL    HW117027   3.274   3.506   3.775
 5487SOL    HW217028   3.404   3.489   3.678
 5488SOL     OW17029   2.234   3.150   5.214
 5488SOL    HW117030   2.221   3.243   5.180
 5488SOL    HW217031   2.150   3.098   5.201
 5489SOL     OW17032   3.476   3.154   5.013
 5489SOL    HW117033   3.536   3.157   5.093
 5489SOL    HW217034   3.401   3.218   5.026
 5490SOL     OW17035   2.901   2.960   4.420
 5490SOL    HW117036   2.831   2.913   4.474
 5490SOL    HW217037   2.960   2.892   4.377
 5491SOL     OW17038   2.876   2.098   4.695
 5491SOL    HW117039   2.868   2.062   4.602
 5491SOL    HW217040   2.874   2.022   4.760
 5492SOL     OW17041   2.452   3.349   4.215
 5492SOL    HW117042   2.494   3.291   4.145
 5492SOL    HW217043   2.408   3.428   4.171
 5493SOL     OW17044   3.571   2.247   5.105
 5493SOL    HW117045   3.644   2.316   5.109
 5493SOL    HW217046   3.599   2.172   5.046
 5494SOL     OW17047   2.117   3.210   4.014
 5494SOL    HW117048   2.021   3.211   3.987
 5494SOL    HW217049   2.129   3.263   4.098
 5495SOL     OW17050   1.967   2.875   5.450
 5495SOL    HW117051   1.890   2.842   5.504
 5495SOL    HW217052   2.052   2.845   5.492
 5496SOL     OW17053   2.534   2.065   5.213
 5496SOL    HW117054   2.624   2.049   5.173
 5496SOL    HW217055   2.542   2.070   5.312
 5497SOL     OW17056   1.937   2.207   3.757
 5497SOL    HW117057   1.845   2.179   3.728
 5497SOL    HW217058   1.968   2.284   3.701
 5498SOL     OW17059   3.302   2.718   5.122
 5498SOL    HW117060   3.245   2.770   5.059
 5498SOL    HW217061   3.398   2.730   5.098
 5499SOL     OW17062   3.045   3.197   3.843
 5499SOL    HW117063   2.946   3.186   3.845
 5499SOL    HW217064   3.079   3.212   3.936
 5500SOL     OW17065   2.475   2.704   5.155
 5500SOL    HW117066   2.531   2.785   5.138
 5500SOL    HW217067   2.534   2.624   5.158
 5501SOL     OW17068   3.355   3.629   4.683
 5501SOL    HW117069   3.388   3.693   4.614
 5501SOL    HW217070   3.421   3.623   4.758
 5502SOL     OW17071   2.578   2.427   5.432
 5502SOL    HW117072   2.597   2.492   5.506
 5502SOL    HW217073   2.638   2.347   5.441
 5503SOL     OW17074   3.312   3.082   5.357
 5503SOL    HW117075   3.303   3.072   5.456
 5503SOL    HW217076   3.408   3.075   5.331
 5504SOL     OW17077   2.252   3.603   5.284
 5504SOL    HW117078   2.161   3.644   5.282
 5504SOL    HW217079   2.245   3.509   5.316
 5505SOL     OW17080   3.536   2.745   4.978
 5505SOL    HW117081   3.509   2.656   4.941
 5505SOL    HW217082   3.537   2.813   4.905
 5506SOL     OW17083   3.087   2.187   4.173
 5506SOL    HW117084   3.152   2.113   4.162
 5506SOL    HW217085   3.107   2.237   4.257
 5507SOL     OW17086   2.456   2.607   4.376
 5507SOL    HW117087   2.506   2.692   4.357
 5507SOL    HW217088   2.368   2.609   4.328
 5508SOL     OW17089   3.639   2.204   5.366
 5508SOL    HW117090   3.622   2.235   5.272
 5508SOL    HW217091   3.555   2.167   5.404
 5509SOL     OW17092   3.592   2.796   5.241
 5509SOL    HW117093   3.630   2.887   5.256
 5509SOL    HW217094   3.584   2.779   5.142
 5510SOL     OW17095   2.721   3.236   3.740
 5510SOL    HW117096   2.675   3.251   3.828
 5510SOL    HW217097   2.765   3.321   3.710
 5511SOL     OW17098   2.523   3.652   4.677
 5511SOL    HW117099   2.477   3.740   4.664
 5511SOL    HW217100   2.622   3.664   4.670
 5512SOL     OW17101   2.721   2.818   4.585
 5512SOL    HW117102   2.775   2.749   4.633
 5512SOL    HW217103   2.689   2.887   4.651
 5513SOL     OW17104   2.945   2.846   3.811
 5513SOL    HW117105   2.922   2.899   3.729
 5513SOL    HW217106   3.026   2.790   3.792
 5514SOL     OW17107   3.723   3.431   4.575
 5514SOL    HW117108   3.652   3.419   4.505
 5514SOL    HW217109   3.724   3.352   4.635
 5515SOL     OW17110   2.083   3.176   5.568
 5515SOL    HW117111   2.018   3.103   5.547
 5515SOL    HW217112   2.087   3.190   5.666
 5516SOL     OW17113   1.941   3.102   4.377
 5516SOL    HW117114   1.940   3.055   4.465
 5516SOL    HW217115   2.023   3.074   4.326
 5517SOL     OW17116   2.534   3.253   5.348
 5517SOL    HW117117   2.456   3.203   5.386
 5517SOL    HW217118   2.531   3.348   5.379
 5518SOL     OW17119   3.686   2.054   4.951
 5518SOL    HW117120   3.682   1.964   4.995
 5518SOL    HW217121   3.689   2.043   4.852
 5519SOL     OW17122   2.290   2.286   4.244
 5519SOL    HW117123   2.320   2.214   4.182
 5519SOL    HW217124   2.251   2.246   4.327
 5520SOL     OW17125   3.567   3.349   4.828
 5520SOL    HW117126   3.474   3.324   4.801
 5520SOL    HW217127   3.593   3.299   4.910
 5521SOL     OW17128   2.179   2.409   5.004
 5521SOL    HW117129   2.217   2.350   5.076
 5521SOL    HW217130   2.219   2.383   4.916
 5522SOL     OW17131   2.674   3.448   4.411
 5522SOL    HW117132   2.706   3.458   4.317
 5522SOL    HW217133   2.595   3.386   4.413
 5523SOL     OW17134   3.286   2.076   4.836
 5523SOL    HW117135   3.338   2.011   4.891
 5523SOL    HW217136   3.237   2.139   4.897
 5524SOL     OW17137   2.863   1.896   4.878
 5524SOL    HW117138   2.800   1.824   4.847
 5524SOL    HW217139   2.956   1.860   4.878
 5525SOL     OW17140   2.632   3.192   4.025
 5525SOL    HW117141   2.586   3.105   4.042
 5525SOL    HW217142   2.723   3.189   4.066
 5526SOL     OW17143   2.480   3.429   5.008
 5526SOL    HW117144   2.475   3.511   5.065
 5526SOL    HW217145   2.569   3.426   4.963
 5527SOL     OW17146   3.214   1.914   3.892
 5527SOL    HW117147   3.249   1.873   3.808
 5527SOL    HW217148   3.124   1.876   3.912
 5528SOL     OW17149   3.162   2.315   4.415
 5528SOL    HW117150   3.103   2.395   4.419
 5528SOL    HW217151   3.177   2.280   4.508
 5529SOL     OW17152   3.455   2.083   4.606
 5529SOL    HW117153   3.371   2.082   4.660
 5529SOL    HW217154   3.457   2.166   4.550
 5530SOL     OW17155   1.901   2.939   4.024
 5530SOL    HW117156   2.000   2.928   4.015
 5530SOL    HW217157   1.861   2.853   4.056
 5531SOL     OW17158   2.737   3.508   4.061
 5531SOL    HW117159   2.660   3.473   4.007
 5531SOL    HW217160   2.705   3.579   4.123
 5532SOL     OW17161   2.092   2.490   5.699
 5532SOL    HW117162   1.999   2.488   5.736
 5532SOL    HW217163   2.093   2.451   5.607
 5533SOL     OW17164   1.881   2.230   6.233
 5533SOL    HW117165   1.799   2.273   6.272
 5533SOL    HW217166   1.853   2.157   6.170
 5534SOL     OW17167   2.431   3.137   6.751
 5534SOL    HW117168   2.338   3.130   6.714
 5534SOL    HW217169   2.442   3.226   6.795
 5535SOL     OW17170   3.417   3.373   6.289
 5535SOL    HW117171   3.360   3.357   6.370
 5535SOL    HW217172   3.358   3.383   6.209
 5536SOL     OW17173   2.997   2.565   6.303
 5536SOL    HW117174   3.054   2.643   6.278
 5536SOL    HW217175   2.937   2.591   6.379
 5537SOL     OW17176   3.617   2.469   5.817
 5537SOL    HW117177   3.605   2.456   5.718
 5537SOL    HW217178   3.587   2.388   5.866
 5538SOL     OW17179   2.630   3.006   6.609
 5538SOL    HW117180   2.552   3.023   6.669
 5538SOL    HW217181   2.664   3.093   6.573
 5539SOL     OW17182   2.712   2.660   7.409
 5539SOL    HW117183   2.708   2.736   7.474
 5539SOL    HW217184   2.734   2.696   7.318
 5540SOL     OW17185   2.547   2.874   6.251
 5540SOL    HW117186   2.616   2.858   6.321
 5540SOL    HW217187   2.474   2.931   6.289
 5541SOL     OW17188   2.548   3.023   7.389
 5541SOL    HW117189   2.608   3.102   7.403
 5541SOL    HW217190   2.462   3.054   7.348
 5542SOL     OW17191   2.197   3.297   6.647
 5542SOL    HW117192   2.119   3.266   6.594
 5542SOL    HW217193   2.255   3.355   6.590
 5543SOL     OW17194   3.322   3.367   6.925
 5543SOL    HW117195   3.346   3.461   6.951
 5543SOL    HW217196   3.306   3.313   7.007
 5544SOL     OW17197   3.465   2.309   6.323
 5544SOL    HW117198   3.391   2.355   6.273
 5544SOL    HW217199   3.516   2.377   6.376
 5545SOL     OW17200   2.093   3.575   6.069
 5545SOL    HW117201   2.127   3.652   6.123
 5545SOL    HW217202   2.137   3.575   5.979
 5546SOL     OW17203   2.989   3.203   7.276
 5546SOL    HW117204   3.036   3.203   7.364
 5546SOL    HW217205   2.941   3.116   7.265
 5547SOL     OW17206   2.092   3.296   6.124
 5547SOL    HW117207   2.066   3.392   6.124
 5547SOL    HW217208   2.021   3.242   6.169
 5548SOL     OW17209   2.102   2.953   6.472
 5548SOL    HW117210   2.116   2.869   6.524
 5548SOL    HW217211   2.047   3.017   6.527
 5549SOL     OW17212   2.482   3.648   7.025
 5549SOL    HW117213   2.390   3.631   7.060
 5549SOL    HW217214   2.510   3.740   7.051
 5550SOL     OW17215   2.468   2.826   5.709
 5550SOL    HW117216   2.475   2.910   5.655
 5550SOL    HW217217   2.514   2.839   5.797
 5551SOL     OW17218   3.456   1.976   7.066
 5551SOL    HW117219   3.438   2.043   6.994
 5551SOL    HW217220   3.453   2.022   7.155
 5552SOL     OW17221   3.704   3.629   5.945
 5552SOL    HW117222   3.758   3.600   6.025
 5552SOL    HW217223   3.734   3.719   5.916
 5553SOL     OW17224   1.889   3.458   5.703
 5553SOL    HW117225   1.870   3.362   5.724
 5553SOL    HW217226   1.856   3.516   5.778
 5554SOL     OW17227   3.551   2.784   6.198
 5554SOL    HW117228   3.646   2.755   6.206
 5554SOL    HW217229   3.543   2.849   6.123
 5555SOL     OW17230   3.503   2.970   6.018
 5555SOL    HW117231   3.589   2.972   5.966
 5555SOL    HW217232   3.517   3.017   6.106
 5556SOL     OW17233   2.475   3.227   6.312
 5556SOL    HW117234   2.426   3.140   6.321
 5556SOL    HW217235   2.452   3.270   6.225
 5557SOL     OW17236   3.155   3.090   7.009
 5557SOL    HW117237   3.192   3.017   6.951
 5557SOL    HW217238   3.207   3.095   7.094
 5558SOL     OW17239   2.059   2.838   6.850
 5558SOL    HW117240   2.148   2.793   6.836
 5558SOL    HW217241   1.986   2.773   6.831
 5559SOL     OW17242   3.387   2.861   5.776
 5559SOL    HW117243   3.324   2.785   5.789
 5559SOL    HW217244   3.435   2.879   5.862
 5560SOL     OW17245   3.049   3.654   7.202
 5560SOL    HW117246   3.073   3.714   7.126
 5560SOL    HW217247   3.056   3.559   7.172
 5561SOL     OW17248   3.328   3.279   6.539
 5561SOL    HW117249   3.269   3.285   6.619
 5561SOL    HW217250   3.313   3.191   6.493
 5562SOL     OW17251   3.529   3.576   6.158
 5562SOL    HW117252   3.488   3.553   6.070
 5562SOL    HW217253   3.511   3.502   6.223
 5563SOL     OW17254   2.460   2.591   5.856
 5563SOL    HW117255   2.484   2.660   5.788
 5563SOL    HW217256   2.382   2.624   5.910
 5564SOL     OW17257   3.143   2.207   6.530
 5564SOL    HW117258   3.057   2.157   6.517
 5564SOL    HW217259   3.205   2.153   6.586
 5565SOL     OW17260   3.438   3.524   5.893
 5565SOL    HW117261   3.527   3.570   5.896
 5565SOL    HW217262   3.417   3.500   5.798
 5566SOL     OW17263   2.669   2.467   7.051
 5566SOL    HW117264   2.622   2.464   7.140
 5566SOL    HW217265   2.618   2.412   6.985
 5567SOL     OW17266   3.256   2.331   7.260
 5567SOL    HW117267   3.236   2.374   7.348
 5567SOL    HW217268   3.334   2.269   7.269
 5568SOL     OW17269   2.835   2.752   7.158
 5568SOL    HW117270   2.881   2.668   7.129
 5568SOL    HW217271   2.779   2.786   7.083
 5569SOL     OW17272   2.903   2.563   6.015
 5569SOL    HW117273   2.929   2.559   6.111
 5569SOL    HW217274   2.818   2.512   6.001
 5570SOL     OW17275   1.992   3.683   7.157
 5570SOL    HW117276   1.982   3.668   7.256
 5570SOL    HW217277   1.906   3.719   7.121
 5571SOL     OW17278   2.727   2.210   5.781
 5571SOL    HW117279   2.786   2.273   5.732
 5571SOL    HW217280   2.746   2.116   5.752
 5572SOL     OW17281   3.581   2.447   7.417
 5572SOL    HW117282   3.555   2.536   7.381
 5572SOL    HW217283   3.579   2.379   7.344
 5573SOL     OW17284   3.224   3.006   6.131
 5573SOL    HW117285   3.307   2.977   6.083
 5573SOL    HW217286   3.175   3.073   6.075
 5574SOL     OW17287   2.870   3.318   6.063
 5574SOL    HW117288   2.824   3.390   6.011
 5574SOL    HW217289   2.866   3.338   6.161
 5575SOL     OW17290   2.213   3.663   6.439
 5575SOL    HW117291   2.263   3.577   6.445
 5575SOL    HW217292   2.278   3.740   6.436
 5576SOL     OW17293   3.657   2.928   6.459
 5576SOL    HW117294   3.595   2.913   6.383
 5576SOL    HW217295   3.605   2.939   6.544
 5577SOL     OW17296   3.089   3.412   7.092
 5577SOL    HW117297   3.095   3.335   7.156
 5577SOL    HW217298   3.037   3.386   7.012
 5578SOL     OW17299   2.183   2.805   5.828
 5578SOL    HW117300   2.265   2.844   5.786
 5578SOL    HW217301   2.156   2.723   5.779
 5579SOL     OW17302   3.320   2.597   6.314
 5579SOL    HW117303   3.315   2.532   6.389
 5579SOL    HW217304   3.400   2.656   6.327
 5580SOL     OW17305   2.323   3.128   7.313
 5580SOL    HW117306   2.273   3.129   7.227
 5580SOL    HW217307   2.260   3.110   7.389
 5581SOL     OW17308   2.973   3.638   5.823
 5581SOL    HW117309   2.913   3.576   5.873
 5581SOL    HW217310   3.004   3.594   5.738
 5582SOL     OW17311   3.494   3.239   5.667
 5582SOL    HW117312   3.462   3.333   5.657
 5582SOL    HW217313   3.418   3.176   5.655
 5583SOL     OW17314   2.326   3.605   5.909
 5583SOL    HW117315   2.359   3.644   5.995
 5583SOL    HW217316   2.402   3.598   5.844
 5584SOL     OW17317   3.262   1.969   6.012
 5584SOL    HW117318   3.238   1.932   5.922
 5584SOL    HW217319   3.361   1.985   6.016
 5585SOL     OW17320   2.111   3.647   6.827
 5585SOL    HW117321   2.168   3.582   6.877
 5585SOL    HW217322   2.095   3.614   6.734
 5586SOL     OW17323   2.802   3.560   6.490
 5586SOL    HW117324   2.882   3.503   6.511
 5586SOL    HW217325   2.753   3.520   6.413
 5587SOL     OW17326   2.244   2.562   6.066
 5587SOL    HW117327   2.289   2.472   6.063
 5587SOL    HW217328   2.150   2.551   6.099
 5588SOL     OW17329   3.409   2.084   7.315
 5588SOL    HW117330   3.404   2.121   7.407
 5588SOL    HW217331   3.337   2.015   7.303
 5589SOL     OW17332   2.476   1.984   5.703
 5589SOL    HW117333   2.574   1.962   5.710
 5589SOL    HW217334   2.445   1.967   5.610
 5590SOL     OW17335   2.750   3.376   6.781
 5590SOL    HW117336   2.727   3.351   6.687
 5590SOL    HW217337   2.811   3.307   6.820
 5591SOL     OW17338   3.213   2.452   7.019
 5591SOL    HW117339   3.241   2.409   7.104
 5591SOL    HW217340   3.238   2.548   7.020
 5592SOL     OW17341   2.665   3.264   6.510
 5592SOL    HW117342   2.755   3.278   6.468
 5592SOL    HW217343   2.594   3.266   6.439
 5593SOL     OW17344   2.784   2.365   6.485
 5593SOL    HW117345   2.759   2.356   6.389
 5593SOL    HW217346   2.832   2.283   6.516
 5594SOL     OW17347   3.296   3.050   5.627
 5594SOL    HW117348   3.328   2.974   5.684
 5594SOL    HW217349   3.204   3.077   5.657
 5595SOL     OW17350   2.797   2.098   6.066
 5595SOL    HW117351   2.749   2.139   5.988
 5595SOL    HW217352   2.896   2.096   6.047
 5596SOL     OW17353   2.938   2.545   7.050
 5596SOL    HW117354   2.858   2.484   7.053
 5596SOL    HW217355   3.019   2.492   7.026
 5597SOL     OW17356   3.089   3.432   6.379
 5597SOL    HW117357   3.110   3.506   6.314
 5597SOL    HW217358   3.157   3.432   6.452
 5598SOL     OW17359   2.321   3.014   6.327
 5598SOL    HW117360   2.250   2.987   6.392
 5598SOL    HW217361   2.295   2.986   6.234
 5599SOL     OW17362   3.133   3.659   6.177
 5599SOL    HW117363   3.177   3.723   6.113
 5599SOL    HW217364   3.083   3.711   6.247
 5600SOL     OW17365   2.894   2.411   5.602
 5600SOL    HW117366   2.853   2.493   5.563
 5600SOL    HW217367   2.958   2.437   5.675
 5601SOL     OW17368   2.728   2.316   6.228
 5601SOL    HW117369   2.696   2.388   6.166
 5601SOL    HW217370   2.752   2.235   6.175
 5602SOL     OW17371   2.879   1.901   6.339
 5602SOL    HW117372   2.807   1.906   6.270
 5602SOL    HW217373   2.855   1.832   6.408
 5603SOL     OW17374   3.291   3.035   6.453
 5603SOL    HW117375   3.236   2.951   6.446
 5603SOL    HW217376   3.317   3.064   6.361
 5604SOL     OW17377   3.328   2.452   6.578
 5604SOL    HW117378   3.298   2.357   6.585
 5604SOL    HW217379   3.401   2.468   6.644
 5605SOL     OW17380   3.719   2.695   5.963
 5605SOL    HW117381   3.761   2.631   6.027
 5605SOL    HW217382   3.681   2.644   5.885
 5606SOL     OW17383   2.350   3.247   5.760
 5606SOL    HW117384   2.263   3.232   5.807
 5606SOL    HW217385   2.333   3.273   5.665
 5607SOL     OW17386   3.526   3.142   6.243
 5607SOL    HW117387   3.625   3.150   6.257
 5607SOL    HW217388   3.481   3.226   6.274
 5608SOL     OW17389   3.252   2.437   5.664
 5608SOL    HW117390   3.198   2.416   5.745
 5608SOL    HW217391   3.343   2.396   5.673
 5609SOL     OW17392   3.616   3.085   7.174
 5609SOL    HW117393   3.707   3.046   7.161
 5609SOL    HW217394   3.624   3.181   7.198
 5610SOL     OW17395   2.926   3.209   6.926
 5610SOL    HW117396   2.846   3.186   6.981
 5610SOL    HW217397   3.009   3.183   6.975
 5611SOL     OW17398   3.454   3.491   7.211
 5611SOL    HW117399   3.481   3.525   7.121
 5611SOL    HW217400   3.533   3.453   7.257
 5612SOL     OW17401   2.973   3.057   6.686
 5612SOL    HW117402   2.933   3.101   6.767
 5612SOL    HW217403   2.932   3.094   6.603
 5613SOL     OW17404   3.500   2.961   6.665
 5613SOL    HW117405   3.505   3.042   6.724
 5613SOL    HW217406   3.414   2.963   6.614
 5614SOL     OW17407   2.842   2.978   7.305
 5614SOL    HW117408   2.743   2.984   7.315
 5614SOL    HW217409   2.865   2.898   7.249
 5615SOL     OW17410   2.567   2.912   5.954
 5615SOL    HW117411   2.553   2.919   6.053
 5615SOL    HW217412   2.651   2.861   5.936
 5616SOL     OW17413   3.136   2.248   6.848
 5616SOL    HW117414   3.157   2.322   6.912
 5616SOL    HW217415   3.047   2.265   6.805
 5617SOL     OW17416   1.926   3.426   6.917
 5617SOL    HW117417   1.880   3.508   6.883
 5617SOL    HW217418   2.024   3.445   6.926
 5618SOL     OW17419   2.229   2.962   6.087
 5618SOL    HW117420   2.222   3.045   6.031
 5618SOL    HW217421   2.233   2.882   6.027
 5619SOL     OW17422   3.114   3.210   5.974
 5619SOL    HW117423   3.164   3.287   6.014
 5619SOL    HW217424   3.019   3.212   6.006
 5620SOL     OW17425   3.134   3.307   6.728
 5620SOL    HW117426   3.181   3.320   6.815
 5620SOL    HW217427   3.068   3.233   6.737
 5621SOL     OW17428   3.444   2.501   6.058
 5621SOL    HW117429   3.413   2.562   6.131
 5621SOL    HW217430   3.494   2.553   5.989
 5622SOL     OW17431   2.216   3.372   6.915
 5622SOL    HW117432   2.195   3.328   6.828
 5622SOL    HW217433   2.313   3.398   6.918
 5623SOL     OW17434   3.449   2.641   7.256
 5623SOL    HW117435   3.357   2.679   7.251
 5623SOL    HW217436   3.509   2.688   7.191
 5624SOL     OW17437   2.875   1.967   7.356
 5624SOL    HW117438   2.881   2.052   7.304
 5624SOL    HW217439   2.907   1.891   7.299
 5625SOL     OW17440   3.222   2.724   6.631
 5625SOL    HW117441   3.147   2.724   6.565
 5625SOL    HW217442   3.259   2.632   6.640
 5626SOL     OW17443   3.071   2.387   5.861
 5626SOL    HW117444   3.084   2.303   5.915
 5626SOL    HW217445   3.042   2.461   5.921
 5627SOL     OW17446   2.169   2.075   6.817
 5627SOL    HW117447   2.146   2.112   6.907
 5627SOL    HW217448   2.139   1.980   6.811
 5628SOL     OW17449   1.899   3.172   6.868
 5628SOL    HW117450   1.952   3.123   6.936
 5628SOL    HW217451   1.921   3.270   6.873
 5629SOL     OW17452   2.594   2.496   6.650
 5629SOL    HW117453   2.653   2.470   6.574
 5629SOL    HW217454   2.566   2.592   6.639
 5630SOL     OW17455   3.590   2.797   7.440
 5630SOL    HW117456   3.544   2.790   7.351
 5630SOL    HW217457   3.528   2.841   7.506
 5631SOL     OW17458   3.484   2.229   5.960
 5631SOL    HW117459   3.486   2.153   6.024
 5631SOL    HW217460   3.436   2.306   6.000
 5632SOL     OW17461   2.885   2.628   6.552
 5632SOL    HW117462   2.900   2.649   6.648
 5632SOL    HW217463   2.855   2.533   6.543
 5633SOL     OW17464   2.842   3.435   7.286
 5633SOL    HW117465   2.822   3.479   7.198
 5633SOL    HW217466   2.881   3.344   7.270
 5634SOL     OW17467   3.721   3.380   7.191
 5634SOL    HW117468   3.735   3.407   7.096
 5634SOL    HW217469   3.804   3.402   7.244
 5635SOL     OW17470   3.402   2.136   5.711
 5635SOL    HW117471   3.341   2.061   5.734
 5635SOL    HW217472   3.424   2.188   5.794
 5636SOL     OW17473   3.165   2.700   5.628
 5636SOL    HW117474   3.199   2.607   5.643
 5636SOL    HW217475   3.183   2.727   5.533
 5637SOL     OW17476   2.930   3.195   6.435
 5637SOL    HW117477   2.937   3.111   6.380
 5637SOL    HW217478   2.992   3.264   6.399
 5638SOL     OW17479   3.000   2.242   7.264
 5638SOL    HW117480   2.955   2.305   7.328
 5638SOL    HW217481   3.093   2.273   7.247
 5639SOL     OW17482   3.022   2.069   7.063
 5639SOL    HW117483   3.022   2.133   7.140
 5639SOL    HW217484   3.050   2.117   6.980
 5640SOL     OW17485   1.870   3.188   5.786
 5640SOL    HW117486   1.777   3.209   5.755
 5640SOL    HW217487   1.880   3.089   5.799
 5641SOL     OW17488   1.950   3.663   6.513
 5641SOL    HW117489   1.908   3.577   6.486
 5641SOL    HW217490   2.044   3.666   6.479
 5642SOL     OW17491   2.366   3.430   6.496
 5642SOL    HW117492   2.432   3.504   6.505
 5642SOL    HW217493   2.410   3.351   6.454
 5643SOL     OW17494   2.864   2.658   6.824
 5643SOL    HW117495   2.905   2.626   6.910
 5643SOL    HW217496   2.768   2.631   6.821
 5644SOL     OW17497   3.231   2.812   7.246
 5644SOL    HW117498   3.270   2.901   7.266
 5644SOL    HW217499   3.241   2.792   7.149
 5645SOL     OW17500   2.677   2.434   5.911
 5645SOL    HW117501   2.684   2.345   5.865
 5645SOL    HW217502   2.583   2.468   5.903
 5646SOL     OW17503   3.519   2.466   6.792
 5646SOL    HW117504   3.481   2.397   6.854
 5646SOL    HW217505   3.601   2.430   6.748
 5647SOL     OW17506   2.114   3.426   7.330
 5647SOL    HW117507   2.084   3.483   7.406
 5647SOL    HW217508   2.107   3.329   7.356
 5648SOL     OW17509   2.792   3.540   7.051
 5648SOL    HW117510   2.768   3.522   6.956
 5648SOL    HW217511   2.822   3.634   7.061
 5649SOL     OW17512   2.335   2.362   5.777
 5649SOL    HW117513   2.396   2.442   5.781
 5649SOL    HW217514   2.240   2.393   5.784
 5650SOL     OW17515   2.021   2.999   7.052
 5650SOL    HW117516   2.043   2.938   7.128
 5650SOL    HW217517   2.031   2.950   6.966
 5651SOL     OW17518   3.209   2.921   6.820
 5651SOL    HW117519   3.233   2.858   6.746
 5651SOL    HW217520   3.119   2.961   6.802
 5652SOL     OW17521   3.164   2.717   5.895
 5652SOL    HW117522   3.078   2.686   5.937
 5652SOL    HW217523   3.160   2.703   5.796
 5653SOL     OW17524   3.621   3.609   6.740
 5653SOL    HW117525   3.682   3.639   6.667
 5653SOL    HW217526   3.583   3.520   6.718
 5654SOL     OW17527   3.114   3.593   6.714
 5654SOL    HW117528   3.198   3.598   6.660
 5654SOL    HW217529   3.091   3.497   6.732
 5655SOL     OW17530   1.945   3.120   6.608
 5655SOL    HW117531   1.940   3.119   6.708
 5655SOL    HW217532   1.862   3.079   6.570
 5656SOL     OW17533   2.550   3.524   7.302
 5656SOL    HW117534   2.494   3.605   7.311
 5656SOL    HW217535   2.602   3.528   7.216
 5657SOL     OW17536   3.588   1.997   6.109
 5657SOL    HW117537   3.661   1.980   6.042
 5657SOL    HW217538   3.557   1.910   6.147
 5658SOL     OW17539   3.250   3.435   6.063
 5658SOL    HW117540   3.317   3.447   5.989
 5658SOL    HW217541   3.210   3.524   6.086
 5659SOL     OW17542   1.992   3.656   7.437
 5659SOL    HW117543   1.951   3.582   7.490
 5659SOL    HW217544   2.056   3.707   7.495
 5660SOL     OW17545   3.142   2.789   6.258
 5660SOL    HW117546   3.202   2.708   6.260
 5660SOL    HW217547   3.182   2.858   6.198
 5661SOL     OW17548   2.692   3.135   7.008
 5661SOL    HW117549   2.687   3.168   7.103
 5661SOL    HW217550   2.606   3.154   6.962
 5662SOL     OW17551   2.534   3.478   5.740
 5662SOL    HW117552   2.543   3.488   5.641
 5662SOL    HW217553   2.494   3.389   5.761
 5663SOL     OW17554   3.512   3.582   6.980
 5663SOL    HW117555   3.565   3.592   6.896
 5663SOL    HW217556   3.485   3.672   7.014
 5664SOL     OW17557   3.703   2.037   6.549
 5664SOL    HW117558   3.742   1.952   6.513
 5664SOL    HW217559   3.605   2.039   6.530
 5665SOL     OW17560   3.056   3.474   5.617
 5665SOL    HW117561   3.062   3.381   5.654
 5665SOL    HW217562   2.997   3.474   5.537
 5666SOL     OW17563   2.684   2.864   6.958
 5666SOL    HW117564   2.724   2.863   6.866
 5666SOL    HW217565   2.694   2.956   6.998
 5667SOL     OW17566   2.778   2.772   5.877
 5667SOL    HW117567   2.841   2.810   5.809
 5667SOL    HW217568   2.818   2.689   5.916
 5668SOL     OW17569   3.366   3.469   5.630
 5668SOL    HW117570   3.274   3.506   5.637
 5668SOL    HW217571   3.404   3.489   5.540
 5669SOL     OW17572   2.234   3.150   7.076
 5669SOL    HW117573   2.221   3.243   7.042
 5669SOL    HW217574   2.150   3.098   7.063
 5670SOL     OW17575   3.476   3.154   6.875
 5670SOL    HW117576   3.536   3.157   6.955
 5670SOL    HW217577   3.401   3.218   6.888
 5671SOL     OW17578   2.901   2.960   6.282
 5671SOL    HW117579   2.831   2.913   6.336
 5671SOL    HW217580   2.960   2.892   6.239
 5672SOL     OW17581   2.876   2.098   6.557
 5672SOL    HW117582   2.868   2.062   6.464
 5672SOL    HW217583   2.874   2.022   6.622
 5673SOL     OW17584   2.452   3.349   6.077
 5673SOL    HW117585   2.494   3.291   6.007
 5673SOL    HW217586   2.408   3.428   6.033
 5674SOL     OW17587   3.571   2.247   6.967
 5674SOL    HW117588   3.644   2.316   6.971
 5674SOL    HW217589   3.599   2.172   6.908
 5675SOL     OW17590   2.117   3.210   5.876
 5675SOL    HW117591   2.021   3.211   5.849
 5675SOL    HW217592   2.129   3.263   5.960
 5676SOL     OW17593   1.967   2.875   7.312
 5676SOL    HW117594   1.890   2.842   7.366
 5676SOL    HW217595   2.052   2.845   7.354
 5677SOL     OW17596   1.937   2.207   5.619
 5677SOL    HW117597   1.845   2.179   5.590
 5677SOL    HW217598   1.968   2.284   5.563
 5678SOL     OW17599   3.302   2.718   6.984
 5678SOL    HW117600   3.245   2.770   6.921
 5678SOL    HW217601   3.398   2.730   6.960
 5679SOL     OW17602   3.045   3.197   5.705
 5679SOL    HW117603   2.946   3.186   5.707
 5679SOL    HW217604   3.079   3.212   5.798
 5680SOL     OW17605   3.355   3.629   6.545
 5680SOL    HW117606   3.388   3.693   6.476
 5680SOL    HW217607   3.421   3.623   6.620
 5681SOL     OW17608   3.312   3.082   7.219
 5681SOL    HW117609   3.303   3.072   7.318
 5681SOL    HW217610   3.408   3.075   7.193
 5682SOL     OW17611   2.252   3.603   7.146
 5682SOL    HW117612   2.161   3.644   7.144
 5682SOL    HW217613   2.245   3.509   7.178
 5683SOL     OW17614   3.536   2.745   6.840
 5683SOL    HW117615   3.509   2.656   6.803
 5683SOL    HW217616   3.537   2.813   6.767
 5684SOL     OW17617   3.087   2.187   6.035
 5684SOL    HW117618   3.152   2.113   6.024
 5684SOL    HW217619   3.107   2.237   6.119
 5685SOL     OW17620   2.456   2.607   6.238
 5685SOL    HW117621   2.506   2.692   6.219
 5685SOL    HW217622   2.368   2.609   6.190
 5686SOL     OW17623   3.639   2.204   7.228
 5686SOL    HW117624   3.622   2.235   7.134
 5686SOL    HW217625   3.555   2.167   7.266
 5687SOL     OW17626   3.592   2.796   7.103
 5687SOL    HW117627   3.630   2.887   7.118
 5687SOL    HW217628   3.584   2.779   7.004
 5688SOL     OW17629   2.721   3.236   5.602
 5688SOL    HW117630   2.675   3.251   5.690
 5688SOL    HW217631   2.765   3.321   5.572
 5689SOL     OW17632   2.523   3.652   6.539
 5689SOL    HW117633   2.477   3.740   6.526
 5689SOL    HW217634   2.622   3.664   6.532
 5690SOL     OW17635   2.721   2.818   6.447
 5690SOL    HW117636   2.775   2.749   6.495
 5690SOL    HW217637   2.689   2.887   6.513
 5691SOL     OW17638   2.945   2.846   5.673
 5691SOL    HW117639   2.922   2.899   5.591
 5691SOL    HW217640   3.026   2.790   5.654
 5692SOL     OW17641   3.723   3.431   6.437
 5692SOL    HW117642   3.652   3.419   6.367
 5692SOL    HW217643   3.724   3.352   6.497
 5693SOL     OW17644   2.083   3.176   7.430
 5693SOL    HW117645   2.018   3.103   7.409
 5693SOL    HW217646   2.087   3.190   7.528
 5694SOL     OW17647   1.941   3.102   6.239
 5694SOL    HW117648   1.940   3.055   6.327
 5694SOL    HW217649   2.023   3.074   6.188
 5695SOL     OW17650   2.534   3.253   7.210
 5695SOL    HW117651   2.456   3.203   7.248
 5695SOL    HW217652   2.531   3.348   7.241
 5696SOL     OW17653   3.686   2.054   6.813
 5696SOL    HW117654   3.682   1.964   6.857
 5696SOL    HW217655   3.689   2.043   6.714
 5697SOL     OW17656   3.567   3.349   6.690
 5697SOL    HW117657   3.474   3.324   6.663
 5697SOL    HW217658   3.593   3.299   6.772
 5698SOL     OW17659   2.674   3.448   6.273
 5698SOL    HW117660   2.706   3.458   6.179
 5698SOL    HW217661   2.595   3.386   6.275
 5699SOL     OW17662   3.286   2.076   6.698
 5699SOL    HW117663   3.338   2.011   6.753
 5699SOL    HW217664   3.237   2.139   6.759
 5700SOL     OW17665   2.863   1.896   6.740
 5700SOL    HW117666   2.800   1.824   6.709
 5700SOL    HW217667   2.956   1.860   6.740
 5701SOL     OW17668   2.632   3.192   5.887
 5701SOL    HW117669   2.586   3.105   5.904
 5701SOL    HW217670   2.723   3.189   5.928
 5702SOL     OW17671   2.480   3.429   6.870
 5702SOL    HW117672   2.475   3.511   6.927
 5702SOL    HW217673   2.569   3.426   6.825
 5703SOL     OW17674   3.214   1.914   5.754
 5703SOL    HW117675   3.249   1.873   5.670
 5703SOL    HW217676   3.124   1.876   5.774
 5704SOL     OW17677   3.162   2.315   6.277
 5704SOL    HW117678   3.103   2.395   6.281
 5704SOL    HW217679   3.177   2.280   6.370
 5705SOL     OW17680   3.455   2.083   6.468
 5705SOL    HW117681   3.371   2.082   6.522
 5705SOL    HW217682   3.457   2.166   6.412
 5706SOL     OW17683   1.901   2.939   5.886
 5706SOL    HW117684   2.000   2.928   5.877
 5706SOL    HW217685   1.861   2.853   5.918
 5707SOL     OW17686   2.737   3.508   5.923
 5707SOL    HW117687   2.660   3.473   5.869
 5707SOL    HW217688   2.705   3.579   5.985
 5708SOL     OW17689   2.431   3.137   8.613
 5708SOL    HW117690   2.338   3.130   8.576
 5708SOL    HW217691   2.442   3.226   8.657
 5709SOL     OW17692   3.417   3.373   8.151
 5709SOL    HW117693   3.360   3.357   8.232
 5709SOL    HW217694   3.358   3.383   8.071
 5710SOL     OW17695   2.997   2.565   8.165
 5710SOL    HW117696   3.054   2.643   8.140
 5710SOL    HW217697   2.937   2.591   8.241
 5711SOL     OW17698   3.617   2.469   7.679
 5711SOL    HW117699   3.605   2.456   7.580
 5711SOL    HW217700   3.587   2.388   7.728
 5712SOL     OW17701   2.630   3.006   8.471
 5712SOL    HW117702   2.552   3.023   8.531
 5712SOL    HW217703   2.664   3.093   8.435
 5713SOL     OW17704   2.712   2.660   9.271
 5713SOL    HW117705   2.708   2.736   9.336
 5713SOL    HW217706   2.734   2.696   9.180
 5714SOL     OW17707   2.547   2.874   8.113
 5714SOL    HW117708   2.616   2.858   8.183
 5714SOL    HW217709   2.474   2.931   8.151
 5715SOL     OW17710   2.548   3.023   9.251
 5715SOL    HW117711   2.608   3.102   9.265
 5715SOL    HW217712   2.462   3.054   9.210
 5716SOL     OW17713   2.197   3.297   8.509
 5716SOL    HW117714   2.119   3.266   8.456
 5716SOL    HW217715   2.255   3.355   8.452
 5717SOL     OW17716   3.322   3.367   8.787
 5717SOL    HW117717   3.346   3.461   8.813
 5717SOL    HW217718   3.306   3.313   8.869
 5718SOL     OW17719   2.300   2.254   8.947
 5718SOL    HW117720   2.382   2.198   8.956
 5718SOL    HW217721   2.219   2.196   8.951
 5719SOL     OW17722   3.465   2.309   8.185
 5719SOL    HW117723   3.391   2.355   8.135
 5719SOL    HW217724   3.516   2.377   8.238
 5720SOL     OW17725   2.093   3.575   7.931
 5720SOL    HW117726   2.127   3.652   7.985
 5720SOL    HW217727   2.137   3.575   7.841
 5721SOL     OW17728   2.989   3.203   9.138
 5721SOL    HW117729   3.036   3.203   9.226
 5721SOL    HW217730   2.941   3.116   9.127
 5722SOL     OW17731   2.092   3.296   7.986
 5722SOL    HW117732   2.066   3.392   7.986
 5722SOL    HW217733   2.021   3.242   8.031
 5723SOL     OW17734   2.102   2.953   8.334
 5723SOL    HW117735   2.116   2.869   8.386
 5723SOL    HW217736   2.047   3.017   8.389
 5724SOL     OW17737   2.482   3.648   8.887
 5724SOL    HW117738   2.390   3.631   8.922
 5724SOL    HW217739   2.510   3.740   8.913
 5725SOL     OW17740   2.468   2.826   7.571
 5725SOL    HW117741   2.475   2.910   7.517
 5725SOL    HW217742   2.514   2.839   7.659
 5726SOL     OW17743   3.456   1.976   8.928
 5726SOL    HW117744   3.438   2.043   8.856
 5726SOL    HW217745   3.453   2.022   9.017
 5727SOL     OW17746   3.704   3.629   7.807
 5727SOL    HW117747   3.758   3.600   7.887
 5727SOL    HW217748   3.734   3.719   7.778
 5728SOL     OW17749   1.889   3.458   7.565
 5728SOL    HW117750   1.870   3.362   7.586
 5728SOL    HW217751   1.856   3.516   7.640
 5729SOL     OW17752   3.551   2.784   8.060
 5729SOL    HW117753   3.646   2.755   8.068
 5729SOL    HW217754   3.543   2.849   7.985
 5730SOL     OW17755   3.503   2.970   7.880
 5730SOL    HW117756   3.589   2.972   7.828
 5730SOL    HW217757   3.517   3.017   7.968
 5731SOL     OW17758   1.975   2.599   9.045
 5731SOL    HW117759   2.063   2.586   9.090
 5731SOL    HW217760   1.962   2.696   9.023
 5732SOL     OW17761   2.475   3.227   8.174
 5732SOL    HW117762   2.426   3.140   8.183
 5732SOL    HW217763   2.452   3.270   8.087
 5733SOL     OW17764   3.155   3.090   8.871
 5733SOL    HW117765   3.192   3.017   8.813
 5733SOL    HW217766   3.207   3.095   8.956
 5734SOL     OW17767   2.671   1.866   7.950
 5734SOL    HW117768   2.711   1.957   7.941
 5734SOL    HW217769   2.571   1.874   7.956
 5735SOL     OW17770   2.059   2.838   8.712
 5735SOL    HW117771   2.148   2.793   8.698
 5735SOL    HW217772   1.986   2.773   8.693
 5736SOL     OW17773   3.387   2.861   7.638
 5736SOL    HW117774   3.324   2.785   7.651
 5736SOL    HW217775   3.435   2.879   7.724
 5737SOL     OW17776   3.049   3.654   9.064
 5737SOL    HW117777   3.073   3.714   8.988
 5737SOL    HW217778   3.056   3.559   9.034
 5738SOL     OW17779   2.179   2.113   9.249
 5738SOL    HW117780   2.250   2.184   9.255
 5738SOL    HW217781   2.091   2.152   9.277
 5739SOL     OW17782   3.328   3.279   8.401
 5739SOL    HW117783   3.269   3.285   8.481
 5739SOL    HW217784   3.313   3.191   8.355
 5740SOL     OW17785   3.529   3.576   8.020
 5740SOL    HW117786   3.488   3.553   7.932
 5740SOL    HW217787   3.511   3.502   8.085
 5741SOL     OW17788   2.460   2.591   7.718
 5741SOL    HW117789   2.484   2.660   7.650
 5741SOL    HW217790   2.382   2.624   7.772
 5742SOL     OW17791   3.143   2.207   8.392
 5742SOL    HW117792   3.057   2.157   8.379
 5742SOL    HW217793   3.205   2.153   8.448
 5743SOL     OW17794   3.438   3.524   7.755
 5743SOL    HW117795   3.527   3.570   7.758
 5743SOL    HW217796   3.417   3.500   7.660
 5744SOL     OW17797   2.669   2.467   8.913
 5744SOL    HW117798   2.622   2.464   9.002
 5744SOL    HW217799   2.618   2.412   8.847
 5745SOL     OW17800   3.256   2.331   9.122
 5745SOL    HW117801   3.236   2.374   9.210
 5745SOL    HW217802   3.334   2.269   9.131
 5746SOL     OW17803   2.835   2.752   9.020
 5746SOL    HW117804   2.881   2.668   8.991
 5746SOL    HW217805   2.779   2.786   8.945
 5747SOL     OW17806   2.853   2.272   8.690
 5747SOL    HW117807   2.776   2.306   8.744
 5747SOL    HW217808   2.819   2.221   8.611
 5748SOL     OW17809   2.903   2.563   7.877
 5748SOL    HW117810   2.929   2.559   7.973
 5748SOL    HW217811   2.818   2.512   7.863
 5749SOL     OW17812   1.938   2.673   8.237
 5749SOL    HW117813   2.037   2.661   8.246
 5749SOL    HW217814   1.914   2.768   8.258
 5750SOL     OW17815   1.992   3.683   9.019
 5750SOL    HW117816   1.982   3.668   9.118
 5750SOL    HW217817   1.906   3.719   8.983
 5751SOL     OW17818   2.727   2.210   7.643
 5751SOL    HW117819   2.786   2.273   7.594
 5751SOL    HW217820   2.746   2.116   7.614
 5752SOL     OW17821   3.581   2.447   9.279
 5752SOL    HW117822   3.555   2.536   9.243
 5752SOL    HW217823   3.579   2.379   9.206
 5753SOL     OW17824   3.224   3.006   7.993
 5753SOL    HW117825   3.307   2.977   7.945
 5753SOL    HW217826   3.175   3.073   7.937
 5754SOL     OW17827   2.412   2.058   8.333
 5754SOL    HW117828   2.407   2.053   8.433
 5754SOL    HW217829   2.414   2.154   8.304
 5755SOL     OW17830   2.870   3.318   7.925
 5755SOL    HW117831   2.824   3.390   7.873
 5755SOL    HW217832   2.866   3.338   8.023
 5756SOL     OW17833   2.213   3.663   8.301
 5756SOL    HW117834   2.263   3.577   8.307
 5756SOL    HW217835   2.278   3.740   8.298
 5757SOL     OW17836   3.657   2.928   8.321
 5757SOL    HW117837   3.595   2.913   8.245
 5757SOL    HW217838   3.605   2.939   8.406
 5758SOL     OW17839   3.089   3.412   8.954
 5758SOL    HW117840   3.095   3.335   9.018
 5758SOL    HW217841   3.037   3.386   8.874
 5759SOL     OW17842   2.183   2.805   7.690
 5759SOL    HW117843   2.265   2.844   7.648
 5759SOL    HW217844   2.156   2.723   7.641
 5760SOL     OW17845   3.320   2.597   8.176
 5760SOL    HW117846   3.315   2.532   8.251
 5760SOL    HW217847   3.400   2.656   8.189
 5761SOL     OW17848   2.323   3.128   9.175
 5761SOL    HW117849   2.273   3.129   9.089
 5761SOL    HW217850   2.260   3.110   9.251
 5762SOL     OW17851   2.973   3.638   7.685
 5762SOL    HW117852   2.913   3.576   7.735
 5762SOL    HW217853   3.004   3.594   7.600
 5763SOL     OW17854   3.494   3.239   7.529
 5763SOL    HW117855   3.462   3.333   7.519
 5763SOL    HW217856   3.418   3.176   7.517
 5764SOL     OW17857   2.326   3.605   7.771
 5764SOL    HW117858   2.359   3.644   7.857
 5764SOL    HW217859   2.402   3.598   7.706
 5765SOL     OW17860   3.262   1.969   7.874
 5765SOL    HW117861   3.238   1.932   7.784
 5765SOL    HW217862   3.361   1.985   7.878
 5766SOL     OW17863   2.111   3.647   8.689
 5766SOL    HW117864   2.168   3.582   8.739
 5766SOL    HW217865   2.095   3.614   8.596
 5767SOL     OW17866   2.802   3.560   8.352
 5767SOL    HW117867   2.882   3.503   8.373
 5767SOL    HW217868   2.753   3.520   8.275
 5768SOL     OW17869   3.409   2.084   9.177
 5768SOL    HW117870   3.404   2.121   9.269
 5768SOL    HW217871   3.337   2.015   9.165
 5769SOL     OW17872   2.643   2.126   9.197
 5769SOL    HW117873   2.710   2.065   9.240
 5769SOL    HW217874   2.570   2.145   9.262
 5770SOL     OW17875   2.750   3.376   8.643
 5770SOL    HW117876   2.727   3.351   8.549
 5770SOL    HW217877   2.811   3.307   8.682
 5771SOL     OW17878   3.213   2.452   8.881
 5771SOL    HW117879   3.241   2.409   8.966
 5771SOL    HW217880   3.238   2.548   8.882
 5772SOL     OW17881   2.665   3.264   8.372
 5772SOL    HW117882   2.755   3.278   8.330
 5772SOL    HW217883   2.594   3.266   8.301
 5773SOL     OW17884   2.784   2.365   8.347
 5773SOL    HW117885   2.759   2.356   8.251
 5773SOL    HW217886   2.832   2.283   8.378
 5774SOL     OW17887   2.401   1.926   7.960
 5774SOL    HW117888   2.320   1.927   8.018
 5774SOL    HW217889   2.404   2.009   7.905
 5775SOL     OW17890   3.296   3.050   7.489
 5775SOL    HW117891   3.328   2.974   7.546
 5775SOL    HW217892   3.204   3.077   7.519
 5776SOL     OW17893   2.938   2.545   8.912
 5776SOL    HW117894   2.858   2.484   8.915
 5776SOL    HW217895   3.019   2.492   8.888
 5777SOL     OW17896   3.089   3.432   8.241
 5777SOL    HW117897   3.110   3.506   8.176
 5777SOL    HW217898   3.157   3.432   8.314
 5778SOL     OW17899   2.321   3.014   8.189
 5778SOL    HW117900   2.250   2.987   8.254
 5778SOL    HW217901   2.295   2.986   8.096
 5779SOL     OW17902   3.133   3.659   8.039
 5779SOL    HW117903   3.177   3.723   7.975
 5779SOL    HW217904   3.083   3.711   8.109
 5780SOL     OW17905   2.894   2.411   7.464
 5780SOL    HW117906   2.853   2.493   7.425
 5780SOL    HW217907   2.958   2.437   7.537
 5781SOL     OW17908   1.940   2.418   8.834
 5781SOL    HW117909   2.032   2.417   8.793
 5781SOL    HW217910   1.934   2.492   8.901
 5782SOL     OW17911   2.423   2.084   8.595
 5782SOL    HW117912   2.461   2.000   8.632
 5782SOL    HW217913   2.335   2.103   8.639
 5783SOL     OW17914   2.728   2.316   8.090
 5783SOL    HW117915   2.696   2.388   8.028
 5783SOL    HW217916   2.752   2.235   8.037
 5784SOL     OW17917   2.879   1.901   8.201
 5784SOL    HW117918   2.807   1.906   8.132
 5784SOL    HW217919   2.855   1.832   8.270
 5785SOL     OW17920   3.291   3.035   8.315
 5785SOL    HW117921   3.236   2.951   8.308
 5785SOL    HW217922   3.317   3.064   8.223
 5786SOL     OW17923   3.328   2.452   8.440
 5786SOL    HW117924   3.298   2.357   8.447
 5786SOL    HW217925   3.401   2.468   8.506
 5787SOL     OW17926   3.719   2.695   7.825
 5787SOL    HW117927   3.761   2.631   7.889
 5787SOL    HW217928   3.681   2.644   7.747
 5788SOL     OW17929   2.350   3.247   7.622
 5788SOL    HW117930   2.263   3.232   7.669
 5788SOL    HW217931   2.333   3.273   7.527
 5789SOL     OW17932   3.526   3.142   8.105
 5789SOL    HW117933   3.625   3.150   8.119
 5789SOL    HW217934   3.481   3.226   8.136
 5790SOL     OW17935   3.252   2.437   7.526
 5790SOL    HW117936   3.198   2.416   7.607
 5790SOL    HW217937   3.343   2.396   7.535
 5791SOL     OW17938   3.616   3.085   9.036
 5791SOL    HW117939   3.707   3.046   9.023
 5791SOL    HW217940   3.624   3.181   9.060
 5792SOL     OW17941   2.926   3.209   8.788
 5792SOL    HW117942   2.846   3.186   8.843
 5792SOL    HW217943   3.009   3.183   8.837
 5793SOL     OW17944   3.454   3.491   9.073
 5793SOL    HW117945   3.481   3.525   8.983
 5793SOL    HW217946   3.533   3.453   9.119
 5794SOL     OW17947   2.973   3.057   8.548
 5794SOL    HW117948   2.933   3.101   8.629
 5794SOL    HW217949   2.932   3.094   8.465
 5795SOL     OW17950   3.500   2.961   8.527
 5795SOL    HW117951   3.505   3.042   8.586
 5795SOL    HW217952   3.414   2.963   8.476
 5796SOL     OW17953   2.777   1.951   8.850
 5796SOL    HW117954   2.802   1.931   8.755
 5796SOL    HW217955   2.849   2.007   8.892
 5797SOL     OW17956   2.842   2.978   9.167
 5797SOL    HW117957   2.743   2.984   9.177
 5797SOL    HW217958   2.865   2.898   9.111
 5798SOL     OW17959   2.567   2.912   7.816
 5798SOL    HW117960   2.553   2.919   7.915
 5798SOL    HW217961   2.651   2.861   7.798
 5799SOL     OW17962   2.272   2.675   8.699
 5799SOL    HW117963   2.358   2.687   8.749
 5799SOL    HW217964   2.230   2.588   8.726
 5800SOL     OW17965   3.136   2.248   8.710
 5800SOL    HW117966   3.157   2.322   8.774
 5800SOL    HW217967   3.047   2.265   8.667
 5801SOL     OW17968   1.926   3.426   8.779
 5801SOL    HW117969   1.880   3.508   8.745
 5801SOL    HW217970   2.024   3.445   8.788
 5802SOL     OW17971   2.229   2.962   7.949
 5802SOL    HW117972   2.222   3.045   7.893
 5802SOL    HW217973   2.233   2.882   7.889
 5803SOL     OW17974   2.428   2.399   8.313
 5803SOL    HW117975   2.440   2.465   8.239
 5803SOL    HW217976   2.474   2.433   8.396
 5804SOL     OW17977   3.114   3.210   7.836
 5804SOL    HW117978   3.164   3.287   7.876
 5804SOL    HW217979   3.019   3.212   7.868
 5805SOL     OW17980   3.134   3.307   8.590
 5805SOL    HW117981   3.181   3.320   8.677
 5805SOL    HW217982   3.068   3.233   8.599
 5806SOL     OW17983   3.444   2.501   7.920
 5806SOL    HW117984   3.413   2.562   7.993
 5806SOL    HW217985   3.494   2.553   7.851
 5807SOL     OW17986   2.216   3.372   8.777
 5807SOL    HW117987   2.195   3.328   8.690
 5807SOL    HW217988   2.313   3.398   8.780
 5808SOL     OW17989   2.264   2.613   9.046
 5808SOL    HW117990   2.332   2.668   8.999
 5808SOL    HW217991   2.304   2.525   9.073
 5809SOL     OW17992   3.449   2.641   9.118
 5809SOL    HW117993   3.357   2.679   9.113
 5809SOL    HW217994   3.509   2.688   9.053
 5810SOL     OW17995   2.875   1.967   9.218
 5810SOL    HW117996   2.881   2.052   9.166
 5810SOL    HW217997   2.907   1.891   9.161
 5811SOL     OW17998   2.366   1.912   9.188
 5811SOL    HW117999   2.324   1.855   9.118
 5811SOL    HW218000   2.300   1.981   9.220
 5812SOL     OW18001   2.435   2.732   8.477
 5812SOL    HW118002   2.479   2.821   8.468
 5812SOL    HW218003   2.372   2.732   8.554
 5813SOL     OW18004   3.222   2.724   8.493
 5813SOL    HW118005   3.147   2.724   8.427
 5813SOL    HW218006   3.259   2.632   8.502
 5814SOL     OW18007   3.071   2.387   7.723
 5814SOL    HW118008   3.084   2.303   7.777
 5814SOL    HW218009   3.042   2.461   7.783
 5815SOL     OW18010   2.169   2.075   8.679
 5815SOL    HW118011   2.146   2.112   8.769
 5815SOL    HW218012   2.139   1.980   8.673
 5816SOL     OW18013   1.899   3.172   8.730
 5816SOL    HW118014   1.952   3.123   8.798
 5816SOL    HW218015   1.921   3.270   8.735
 5817SOL     OW18016   2.594   2.496   8.512
 5817SOL    HW118017   2.653   2.470   8.436
 5817SOL    HW218018   2.566   2.592   8.501
 5818SOL     OW18019   3.590   2.797   9.302
 5818SOL    HW118020   3.544   2.790   9.213
 5818SOL    HW218021   3.528   2.841   9.368
 5819SOL     OW18022   3.484   2.229   7.822
 5819SOL    HW118023   3.486   2.153   7.886
 5819SOL    HW218024   3.436   2.306   7.862
 5820SOL     OW18025   2.885   2.628   8.414
 5820SOL    HW118026   2.900   2.649   8.510
 5820SOL    HW218027   2.855   2.533   8.405
 5821SOL     OW18028   2.842   3.435   9.148
 5821SOL    HW118029   2.822   3.479   9.060
 5821SOL    HW218030   2.881   3.344   9.132
 5822SOL     OW18031   3.721   3.380   9.053
 5822SOL    HW118032   3.735   3.407   8.958
 5822SOL    HW218033   3.804   3.402   9.106
 5823SOL     OW18034   2.212   2.760   9.252
 5823SOL    HW118035   2.288   2.804   9.300
 5823SOL    HW218036   2.247   2.713   9.170
 5824SOL     OW18037   3.402   2.136   7.573
 5824SOL    HW118038   3.341   2.061   7.596
 5824SOL    HW218039   3.424   2.188   7.656
 5825SOL     OW18040   3.165   2.700   7.490
 5825SOL    HW118041   3.199   2.607   7.505
 5825SOL    HW218042   3.183   2.727   7.395
 5826SOL     OW18043   2.930   3.195   8.297
 5826SOL    HW118044   2.937   3.111   8.242
 5826SOL    HW218045   2.992   3.264   8.261
 5827SOL     OW18046   2.181   2.672   8.397
 5827SOL    HW118047   2.274   2.708   8.402
 5827SOL    HW218048   2.175   2.587   8.449
 5828SOL     OW18049   2.201   2.371   8.454
 5828SOL    HW118050   2.149   2.288   8.437
 5828SOL    HW218051   2.278   2.376   8.390
 5829SOL     OW18052   3.000   2.242   9.126
 5829SOL    HW118053   2.955   2.305   9.190
 5829SOL    HW218054   3.093   2.273   9.109
 5830SOL     OW18055   3.022   2.069   8.925
 5830SOL    HW118056   3.022   2.133   9.002
 5830SOL    HW218057   3.050   2.117   8.842
 5831SOL     OW18058   1.870   3.188   7.648
 5831SOL    HW118059   1.777   3.209   7.617
 5831SOL    HW218060   1.880   3.089   7.661
 5832SOL     OW18061   1.950   3.663   8.375
 5832SOL    HW118062   1.908   3.577   8.348
 5832SOL    HW218063   2.044   3.666   8.341
 5833SOL     OW18064   2.366   3.430   8.358
 5833SOL    HW118065   2.432   3.504   8.367
 5833SOL    HW218066   2.410   3.351   8.316
 5834SOL     OW18067   2.864   2.658   8.686
 5834SOL    HW118068   2.905   2.626   8.772
 5834SOL    HW218069   2.768   2.631   8.683
 5835SOL     OW18070   1.902   2.406   8.562
 5835SOL    HW118071   1.987   2.373   8.521
 5835SOL    HW218072   1.915   2.421   8.660
 5836SOL     OW18073   2.051   2.382   9.170
 5836SOL    HW118074   2.110   2.342   9.100
 5836SOL    HW218075   1.993   2.453   9.129
 5837SOL     OW18076   3.231   2.812   9.108
 5837SOL    HW118077   3.270   2.901   9.128
 5837SOL    HW218078   3.241   2.792   9.011
 5838SOL     OW18079   2.677   2.434   7.773
 5838SOL    HW118080   2.684   2.345   7.727
 5838SOL    HW218081   2.583   2.468   7.765
 5839SOL     OW18082   3.519   2.466   8.654
 5839SOL    HW118083   3.481   2.397   8.716
 5839SOL    HW218084   3.601   2.430   8.610
 5840SOL     OW18085   2.114   3.426   9.192
 5840SOL    HW118086   2.084   3.483   9.268
 5840SOL    HW218087   2.107   3.329   9.218
 5841SOL     OW18088   2.533   2.326   8.717
 5841SOL    HW118089   2.499   2.237   8.687
 5841SOL    HW218090   2.559   2.380   8.637
 5842SOL     OW18091   2.792   3.540   8.913
 5842SOL    HW118092   2.768   3.522   8.818
 5842SOL    HW218093   2.822   3.634   8.923
 5843SOL     OW18094   2.021   2.999   8.914
 5843SOL    HW118095   2.043   2.938   8.990
 5843SOL    HW218096   2.031   2.950   8.828
 5844SOL     OW18097   3.209   2.921   8.682
 5844SOL    HW118098   3.233   2.858   8.608
 5844SOL    HW218099   3.119   2.961   8.664
 5845SOL     OW18100   3.164   2.717   7.757
 5845SOL    HW118101   3.078   2.686   7.799
 5845SOL    HW218102   3.160   2.703   7.658
 5846SOL     OW18103   3.621   3.609   8.602
 5846SOL    HW118104   3.682   3.639   8.529
 5846SOL    HW218105   3.583   3.520   8.580
 5847SOL     OW18106   3.114   3.593   8.576
 5847SOL    HW118107   3.198   3.598   8.522
 5847SOL    HW218108   3.091   3.497   8.594
 5848SOL     OW18109   1.945   3.120   8.470
 5848SOL    HW118110   1.940   3.119   8.570
 5848SOL    HW218111   1.862   3.079   8.432
 5849SOL     OW18112   2.550   3.524   9.164
 5849SOL    HW118113   2.494   3.605   9.173
 5849SOL    HW218114   2.602   3.528   9.078
 5850SOL     OW18115   3.588   1.997   7.971
 5850SOL    HW118116   3.661   1.980   7.904
 5850SOL    HW218117   3.557   1.910   8.009
 5851SOL     OW18118   3.250   3.435   7.925
 5851SOL    HW118119   3.317   3.447   7.851
 5851SOL    HW218120   3.210   3.524   7.948
 5852SOL     OW18121   1.992   3.656   9.299
 5852SOL    HW118122   1.951   3.582   9.352
 5852SOL    HW218123   2.056   3.707   9.357
 5853SOL     OW18124   3.142   2.789   8.120
 5853SOL    HW118125   3.202   2.708   8.122
 5853SOL    HW218126   3.182   2.858   8.060
 5854SOL     OW18127   2.692   3.135   8.870
 5854SOL    HW118128   2.687   3.168   8.965
 5854SOL    HW218129   2.606   3.154   8.824
 5855SOL     OW18130   2.534   3.478   7.602
 5855SOL    HW118131   2.543   3.488   7.503
 5855SOL    HW218132   2.494   3.389   7.623
 5856SOL     OW18133   3.512   3.582   8.842
 5856SOL    HW118134   3.565   3.592   8.758
 5856SOL    HW218135   3.485   3.672   8.876
 5857SOL     OW18136   3.703   2.037   8.411
 5857SOL    HW118137   3.742   1.952   8.375
 5857SOL    HW218138   3.605   2.039   8.392
 5858SOL     OW18139   3.056   3.474   7.479
 5858SOL    HW118140   3.062   3.381   7.516
 5858SOL    HW218141   2.997   3.474   7.399
 5859SOL     OW18142   2.684   2.864   8.820
 5859SOL    HW118143   2.724   2.863   8.728
 5859SOL    HW218144   2.694   2.956   8.860
 5860SOL     OW18145   2.778   2.772   7.739
 5860SOL    HW118146   2.841   2.810   7.671
 5860SOL    HW218147   2.818   2.689   7.778
 5861SOL     OW18148   3.366   3.469   7.492
 5861SOL    HW118149   3.274   3.506   7.499
 5861SOL    HW218150   3.404   3.489   7.402
 5862SOL     OW18151   2.234   3.150   8.938
 5862SOL    HW118152   2.221   3.243   8.904
 5862SOL    HW218153   2.150   3.098   8.925
 5863SOL     OW18154   3.476   3.154   8.737
 5863SOL    HW118155   3.536   3.157   8.817
 5863SOL    HW218156   3.401   3.218   8.750
 5864SOL     OW18157   2.901   2.960   8.144
 5864SOL    HW118158   2.831   2.913   8.198
 5864SOL    HW218159   2.960   2.892   8.101
 5865SOL     OW18160   2.876   2.098   8.419
 5865SOL    HW118161   2.868   2.062   8.326
 5865SOL    HW218162   2.874   2.022   8.484
 5866SOL     OW18163   2.452   3.349   7.939
 5866SOL    HW118164   2.494   3.291   7.869
 5866SOL    HW218165   2.408   3.428   7.895
 5867SOL     OW18166   3.571   2.247   8.829
 5867SOL    HW118167   3.644   2.316   8.833
 5867SOL    HW218168   3.599   2.172   8.770
 5868SOL     OW18169   2.117   3.210   7.738
 5868SOL    HW118170   2.021   3.211   7.711
 5868SOL    HW218171   2.129   3.263   7.822
 5869SOL     OW18172   1.967   2.875   9.174
 5869SOL    HW118173   1.890   2.842   9.228
 5869SOL    HW218174   2.052   2.845   9.216
 5870SOL     OW18175   2.534   2.065   8.937
 5870SOL    HW118176   2.624   2.049   8.897
 5870SOL    HW218177   2.542   2.070   9.036
 5871SOL     OW18178   3.302   2.718   8.846
 5871SOL    HW118179   3.245   2.770   8.783
 5871SOL    HW218180   3.398   2.730   8.822
 5872SOL     OW18181   3.045   3.197   7.567
 5872SOL    HW118182   2.946   3.186   7.569
 5872SOL    HW218183   3.079   3.212   7.660
 5873SOL     OW18184   2.475   2.704   8.879
 5873SOL    HW118185   2.531   2.785   8.862
 5873SOL    HW218186   2.534   2.624   8.882
 5874SOL     OW18187   3.355   3.629   8.407
 5874SOL    HW118188   3.388   3.693   8.338
 5874SOL    HW218189   3.421   3.623   8.482
 5875SOL     OW18190   2.578   2.427   9.156
 5875SOL    HW118191   2.597   2.492   9.230
 5875SOL    HW218192   2.638   2.347   9.165
 5876SOL     OW18193   3.312   3.082   9.081
 5876SOL    HW118194   3.303   3.072   9.180
 5876SOL    HW218195   3.408   3.075   9.055
 5877SOL     OW18196   2.252   3.603   9.008
 5877SOL    HW118197   2.161   3.644   9.006
 5877SOL    HW218198   2.245   3.509   9.040
 5878SOL     OW18199   3.536   2.745   8.702
 5878SOL    HW118200   3.509   2.656   8.665
 5878SOL    HW218201   3.537   2.813   8.629
 5879SOL     OW18202   3.087   2.187   7.897
 5879SOL    HW118203   3.152   2.113   7.886
 5879SOL    HW218204   3.107   2.237   7.981
 5880SOL     OW18205   2.456   2.607   8.100
 5880SOL    HW118206   2.506   2.692   8.081
 5880SOL    HW218207   2.368   2.609   8.052
 5881SOL     OW18208   3.639   2.204   9.090
 5881SOL    HW118209   3.622   2.235   8.996
 5881SOL    HW218210   3.555   2.167   9.128
 5882SOL     OW18211   3.592   2.796   8.965
 5882SOL    HW118212   3.630   2.887   8.980
 5882SOL    HW218213   3.584   2.779   8.866
 5883SOL     OW18214   2.721   3.236   7.464
 5883SOL    HW118215   2.675   3.251   7.552
 5883SOL    HW218216   2.765   3.321   7.434
 5884SOL     OW18217   2.523   3.652   8.401
 5884SOL    HW118218   2.477   3.740   8.388
 5884SOL    HW218219   2.622   3.664   8.394
 5885SOL     OW18220   2.721   2.818   8.309
 5885SOL    HW118221   2.775   2.749   8.357
 5885SOL    HW218222   2.689   2.887   8.375
 5886SOL     OW18223   2.945   2.846   7.535
 5886SOL    HW118224   2.922   2.899   7.453
 5886SOL    HW218225   3.026   2.790   7.516
 5887SOL     OW18226   3.723   3.431   8.299
 5887SOL    HW118227   3.652   3.419   8.229
 5887SOL    HW218228   3.724   3.352   8.359
 5888SOL     OW18229   2.083   3.176   9.292
 5888SOL    HW118230   2.018   3.103   9.271
 5888SOL    HW218231   2.087   3.190   9.390
 5889SOL     OW18232   1.941   3.102   8.101
 5889SOL    HW118233   1.940   3.055   8.189
 5889SOL    HW218234   2.023   3.074   8.050
 5890SOL     OW18235   2.534   3.253   9.072
 5890SOL    HW118236   2.456   3.203   9.110
 5890SOL    HW218237   2.531   3.348   9.103
 5891SOL     OW18238   3.686   2.054   8.675
 5891SOL    HW118239   3.682   1.964   8.719
 5891SOL    HW218240   3.689   2.043   8.576
 5892SOL     OW18241   3.567   3.349   8.552
 5892SOL    HW118242   3.474   3.324   8.525
 5892SOL    HW218243   3.593   3.299   8.634
 5893SOL     OW18244   2.179   2.409   8.728
 5893SOL    HW118245   2.217   2.350   8.800
 5893SOL    HW218246   2.219   2.383   8.640
 5894SOL     OW18247   2.674   3.448   8.135
 5894SOL    HW118248   2.706   3.458   8.041
 5894SOL    HW218249   2.595   3.386   8.137
 5895SOL     OW18250   3.286   2.076   8.560
 5895SOL    HW118251   3.338   2.011   8.615
 5895SOL    HW218252   3.237   2.139   8.621
 5896SOL     OW18253   2.863   1.896   8.602
 5896SOL    HW118254   2.800   1.824   8.571
 5896SOL    HW218255   2.956   1.860   8.602
 5897SOL     OW18256   2.632   3.192   7.749
 5897SOL    HW118257   2.586   3.105   7.766
 5897SOL    HW218258   2.723   3.189   7.790
 5898SOL     OW18259   2.480   3.429   8.732
 5898SOL    HW118260   2.475   3.511   8.789
 5898SOL    HW218261   2.569   3.426   8.687
 5899SOL     OW18262   3.214   1.914   7.616
 5899SOL    HW118263   3.249   1.873   7.532
 5899SOL    HW218264   3.124   1.876   7.636
 5900SOL     OW18265   3.162   2.315   8.139
 5900SOL    HW118266   3.103   2.395   8.143
 5900SOL    HW218267   3.177   2.280   8.232
 5901SOL     OW18268   3.455   2.083   8.330
 5901SOL    HW118269   3.371   2.082   8.384
 5901SOL    HW218270   3.457   2.166   8.274
 5902SOL     OW18271   1.901   2.939   7.748
 5902SOL    HW118272   2.000   2.928   7.739
 5902SOL    HW218273   1.861   2.853   7.780
 5903SOL     OW18274   2.737   3.508   7.785
 5903SOL    HW118275   2.660   3.473   7.731
 5903SOL    HW218276   2.705   3.579   7.847
 5904SOL     OW18277   2.092   2.490   9.423
 5904SOL    HW118278   1.999   2.488   9.460
 5904SOL    HW218279   2.093   2.451   9.331
 5905SOL     OW18280   1.881   2.230   9.957
 5905SOL    HW118281   1.799   2.273   9.996
 5905SOL    HW218282   1.853   2.157   9.894
 5906SOL     OW18283   2.431   3.137  10.475
 5906SOL    HW118284   2.338   3.130  10.438
 5906SOL    HW218285   2.442   3.226  10.519
 5907SOL     OW18286   3.417   3.373  10.013
 5907SOL    HW118287   3.360   3.357  10.094
 5907SOL    HW218288   3.358   3.383   9.933
 5908SOL     OW18289   2.997   2.565  10.027
 5908SOL    HW118290   3.054   2.643  10.002
 5908SOL    HW218291   2.937   2.591  10.103
 5909SOL     OW18292   3.617   2.469   9.541
 5909SOL    HW118293   3.605   2.456   9.442
 5909SOL    HW218294   3.587   2.388   9.590
 5910SOL     OW18295   2.630   3.006  10.333
 5910SOL    HW118296   2.552   3.023  10.393
 5910SOL    HW218297   2.664   3.093  10.297
 5911SOL     OW18298   2.712   2.660  11.133
 5911SOL    HW118299   2.708   2.736  11.198
 5911SOL    HW218300   2.734   2.696  11.042
 5912SOL     OW18301   2.547   2.874   9.975
 5912SOL    HW118302   2.616   2.858  10.045
 5912SOL    HW218303   2.474   2.931  10.013
 5913SOL     OW18304   2.548   3.023  11.113
 5913SOL    HW118305   2.608   3.102  11.127
 5913SOL    HW218306   2.462   3.054  11.072
 5914SOL     OW18307   2.197   3.297  10.371
 5914SOL    HW118308   2.119   3.266  10.318
 5914SOL    HW218309   2.255   3.355  10.314
 5915SOL     OW18310   3.322   3.367  10.649
 5915SOL    HW118311   3.346   3.461  10.675
 5915SOL    HW218312   3.306   3.313  10.731
 5916SOL     OW18313   2.300   2.254  10.809
 5916SOL    HW118314   2.382   2.198  10.818
 5916SOL    HW218315   2.219   2.196  10.813
 5917SOL     OW18316   3.465   2.309  10.047
 5917SOL    HW118317   3.391   2.355   9.997
 5917SOL    HW218318   3.516   2.377  10.100
 5918SOL     OW18319   2.093   3.575   9.793
 5918SOL    HW118320   2.127   3.652   9.847
 5918SOL    HW218321   2.137   3.575   9.703
 5919SOL     OW18322   2.989   3.203  11.000
 5919SOL    HW118323   3.036   3.203  11.088
 5919SOL    HW218324   2.941   3.116  10.989
 5920SOL     OW18325   2.092   3.296   9.848
 5920SOL    HW118326   2.066   3.392   9.848
 5920SOL    HW218327   2.021   3.242   9.893
 5921SOL     OW18328   2.102   2.953  10.196
 5921SOL    HW118329   2.116   2.869  10.248
 5921SOL    HW218330   2.047   3.017  10.251
 5922SOL     OW18331   2.482   3.648  10.749
 5922SOL    HW118332   2.390   3.631  10.784
 5922SOL    HW218333   2.510   3.740  10.775
 5923SOL     OW18334   2.468   2.826   9.433
 5923SOL    HW118335   2.475   2.910   9.379
 5923SOL    HW218336   2.514   2.839   9.521
 5924SOL     OW18337   3.456   1.976  10.790
 5924SOL    HW118338   3.438   2.043  10.718
 5924SOL    HW218339   3.453   2.022  10.879
 5925SOL     OW18340   1.984   2.505   9.873
 5925SOL    HW118341   1.939   2.417   9.890
 5925SOL    HW218342   1.983   2.559   9.957
 5926SOL     OW18343   3.704   3.629   9.669
 5926SOL    HW118344   3.758   3.600   9.749
 5926SOL    HW218345   3.734   3.719   9.640
 5927SOL     OW18346   1.889   3.458   9.427
 5927SOL    HW118347   1.870   3.362   9.448
 5927SOL    HW218348   1.856   3.516   9.502
 5928SOL     OW18349   3.551   2.784   9.922
 5928SOL    HW118350   3.646   2.755   9.930
 5928SOL    HW218351   3.543   2.849   9.847
 5929SOL     OW18352   3.503   2.970   9.742
 5929SOL    HW118353   3.589   2.972   9.690
 5929SOL    HW218354   3.517   3.017   9.830
 5930SOL     OW18355   1.975   2.599  10.907
 5930SOL    HW118356   2.063   2.586  10.952
 5930SOL    HW218357   1.962   2.696  10.885
 5931SOL     OW18358   2.475   3.227  10.036
 5931SOL    HW118359   2.426   3.140  10.045
 5931SOL    HW218360   2.452   3.270   9.949
 5932SOL     OW18361   3.155   3.090  10.733
 5932SOL    HW118362   3.192   3.017  10.675
 5932SOL    HW218363   3.207   3.095  10.818
 5933SOL     OW18364   2.671   1.866   9.812
 5933SOL    HW118365   2.711   1.957   9.803
 5933SOL    HW218366   2.571   1.874   9.818
 5934SOL     OW18367   2.059   2.838  10.574
 5934SOL    HW118368   2.148   2.793  10.560
 5934SOL    HW218369   1.986   2.773  10.555
 5935SOL     OW18370   3.387   2.861   9.500
 5935SOL    HW118371   3.324   2.785   9.513
 5935SOL    HW218372   3.435   2.879   9.586
 5936SOL     OW18373   3.049   3.654  10.926
 5936SOL    HW118374   3.073   3.714  10.850
 5936SOL    HW218375   3.056   3.559  10.896
 5937SOL     OW18376   2.179   2.113  11.111
 5937SOL    HW118377   2.250   2.184  11.117
 5937SOL    HW218378   2.091   2.152  11.139
 5938SOL     OW18379   3.328   3.279  10.263
 5938SOL    HW118380   3.269   3.285  10.343
 5938SOL    HW218381   3.313   3.191  10.217
 5939SOL     OW18382   3.529   3.576   9.882
 5939SOL    HW118383   3.488   3.553   9.794
 5939SOL    HW218384   3.511   3.502   9.947
 5940SOL     OW18385   2.460   2.591   9.580
 5940SOL    HW118386   2.484   2.660   9.512
 5940SOL    HW218387   2.382   2.624   9.634
 5941SOL     OW18388   3.143   2.207  10.254
 5941SOL    HW118389   3.057   2.157  10.241
 5941SOL    HW218390   3.205   2.153  10.310
 5942SOL     OW18391   3.438   3.524   9.617
 5942SOL    HW118392   3.527   3.570   9.620
 5942SOL    HW218393   3.417   3.500   9.522
 5943SOL     OW18394   2.669   2.467  10.775
 5943SOL    HW118395   2.622   2.464  10.864
 5943SOL    HW218396   2.618   2.412  10.709
 5944SOL     OW18397   3.256   2.331  10.984
 5944SOL    HW118398   3.236   2.374  11.072
 5944SOL    HW218399   3.334   2.269  10.993
 5945SOL     OW18400   2.835   2.752  10.882
 5945SOL    HW118401   2.881   2.668  10.853
 5945SOL    HW218402   2.779   2.786  10.807
 5946SOL     OW18403   2.853   2.272  10.552
 5946SOL    HW118404   2.776   2.306  10.606
 5946SOL    HW218405   2.819   2.221  10.473
 5947SOL     OW18406   2.903   2.563   9.739
 5947SOL    HW118407   2.929   2.559   9.835
 5947SOL    HW218408   2.818   2.512   9.725
 5948SOL     OW18409   1.938   2.673  10.099
 5948SOL    HW118410   2.037   2.661  10.108
 5948SOL    HW218411   1.914   2.768  10.120
 5949SOL     OW18412   1.992   3.683  10.881
 5949SOL    HW118413   1.982   3.668  10.980
 5949SOL    HW218414   1.906   3.719  10.845
 5950SOL     OW18415   2.727   2.210   9.505
 5950SOL    HW118416   2.786   2.273   9.456
 5950SOL    HW218417   2.746   2.116   9.476
 5951SOL     OW18418   3.581   2.447  11.141
 5951SOL    HW118419   3.555   2.536  11.105
 5951SOL    HW218420   3.579   2.379  11.068
 5952SOL     OW18421   3.224   3.006   9.855
 5952SOL    HW118422   3.307   2.977   9.807
 5952SOL    HW218423   3.175   3.073   9.799
 5953SOL     OW18424   2.412   2.058  10.195
 5953SOL    HW118425   2.407   2.053  10.295
 5953SOL    HW218426   2.414   2.154  10.166
 5954SOL     OW18427   2.870   3.318   9.787
 5954SOL    HW118428   2.824   3.390   9.735
 5954SOL    HW218429   2.866   3.338   9.885
 5955SOL     OW18430   2.213   3.663  10.163
 5955SOL    HW118431   2.263   3.577  10.169
 5955SOL    HW218432   2.278   3.740  10.160
 5956SOL     OW18433   3.657   2.928  10.183
 5956SOL    HW118434   3.595   2.913  10.107
 5956SOL    HW218435   3.605   2.939  10.268
 5957SOL     OW18436   3.089   3.412  10.816
 5957SOL    HW118437   3.095   3.335  10.880
 5957SOL    HW218438   3.037   3.386  10.736
 5958SOL     OW18439   2.183   2.805   9.552
 5958SOL    HW118440   2.265   2.844   9.510
 5958SOL    HW218441   2.156   2.723   9.503
 5959SOL     OW18442   3.320   2.597  10.038
 5959SOL    HW118443   3.315   2.532  10.113
 5959SOL    HW218444   3.400   2.656  10.051
 5960SOL     OW18445   2.323   3.128  11.037
 5960SOL    HW118446   2.273   3.129  10.951
 5960SOL    HW218447   2.260   3.110  11.113
 5961SOL     OW18448   2.973   3.638   9.547
 5961SOL    HW118449   2.913   3.576   9.597
 5961SOL    HW218450   3.004   3.594   9.462
 5962SOL     OW18451   3.494   3.239   9.391
 5962SOL    HW118452   3.462   3.333   9.381
 5962SOL    HW218453   3.418   3.176   9.379
 5963SOL     OW18454   2.326   3.605   9.633
 5963SOL    HW118455   2.359   3.644   9.719
 5963SOL    HW218456   2.402   3.598   9.568
 5964SOL     OW18457   3.262   1.969   9.736
 5964SOL    HW118458   3.238   1.932   9.646
 5964SOL    HW218459   3.361   1.985   9.740
 5965SOL     OW18460   2.111   3.647  10.551
 5965SOL    HW118461   2.168   3.582  10.601
 5965SOL    HW218462   2.095   3.614  10.458
 5966SOL     OW18463   2.802   3.560  10.214
 5966SOL    HW118464   2.882   3.503  10.235
 5966SOL    HW218465   2.753   3.520  10.137
 5967SOL     OW18466   2.244   2.562   9.790
 5967SOL    HW118467   2.289   2.472   9.787
 5967SOL    HW218468   2.150   2.551   9.823
 5968SOL     OW18469   3.409   2.084  11.039
 5968SOL    HW118470   3.404   2.121  11.131
 5968SOL    HW218471   3.337   2.015  11.027
 5969SOL     OW18472   2.476   1.984   9.427
 5969SOL    HW118473   2.574   1.962   9.434
 5969SOL    HW218474   2.445   1.967   9.334
 5970SOL     OW18475   2.643   2.126  11.059
 5970SOL    HW118476   2.710   2.065  11.102
 5970SOL    HW218477   2.570   2.145  11.124
 5971SOL     OW18478   2.750   3.376  10.505
 5971SOL    HW118479   2.727   3.351  10.411
 5971SOL    HW218480   2.811   3.307  10.544
 5972SOL     OW18481   3.213   2.452  10.743
 5972SOL    HW118482   3.241   2.409  10.828
 5972SOL    HW218483   3.238   2.548  10.744
 5973SOL     OW18484   2.665   3.264  10.234
 5973SOL    HW118485   2.755   3.278  10.192
 5973SOL    HW218486   2.594   3.266  10.163
 5974SOL     OW18487   2.784   2.365  10.209
 5974SOL    HW118488   2.759   2.356  10.113
 5974SOL    HW218489   2.832   2.283  10.240
 5975SOL     OW18490   2.401   1.926   9.822
 5975SOL    HW118491   2.320   1.927   9.880
 5975SOL    HW218492   2.404   2.009   9.767
 5976SOL     OW18493   3.296   3.050   9.351
 5976SOL    HW118494   3.328   2.974   9.408
 5976SOL    HW218495   3.204   3.077   9.381
 5977SOL     OW18496   2.797   2.098   9.790
 5977SOL    HW118497   2.749   2.139   9.712
 5977SOL    HW218498   2.896   2.096   9.771
 5978SOL     OW18499   2.938   2.545  10.774
 5978SOL    HW118500   2.858   2.484  10.777
 5978SOL    HW218501   3.019   2.492  10.750
 5979SOL     OW18502   3.089   3.432  10.103
 5979SOL    HW118503   3.110   3.506  10.038
 5979SOL    HW218504   3.157   3.432  10.176
 5980SOL     OW18505   2.321   3.014  10.051
 5980SOL    HW118506   2.250   2.987  10.116
 5980SOL    HW218507   2.295   2.986   9.958
 5981SOL     OW18508   3.133   3.659   9.901
 5981SOL    HW118509   3.177   3.723   9.837
 5981SOL    HW218510   3.083   3.711   9.971
 5982SOL     OW18511   2.894   2.411   9.326
 5982SOL    HW118512   2.853   2.493   9.287
 5982SOL    HW218513   2.958   2.437   9.399
 5983SOL     OW18514   1.940   2.418  10.696
 5983SOL    HW118515   2.032   2.417  10.655
 5983SOL    HW218516   1.934   2.492  10.763
 5984SOL     OW18517   2.423   2.084  10.457
 5984SOL    HW118518   2.461   2.000  10.494
 5984SOL    HW218519   2.335   2.103  10.501
 5985SOL     OW18520   2.728   2.316   9.952
 5985SOL    HW118521   2.696   2.388   9.890
 5985SOL    HW218522   2.752   2.235   9.899
 5986SOL     OW18523   2.879   1.901  10.063
 5986SOL    HW118524   2.807   1.906   9.994
 5986SOL    HW218525   2.855   1.832  10.132
 5987SOL     OW18526   3.291   3.035  10.177
 5987SOL    HW118527   3.236   2.951  10.170
 5987SOL    HW218528   3.317   3.064  10.085
 5988SOL     OW18529   3.328   2.452  10.302
 5988SOL    HW118530   3.298   2.357  10.309
 5988SOL    HW218531   3.401   2.468  10.368
 5989SOL     OW18532   3.719   2.695   9.687
 5989SOL    HW118533   3.761   2.631   9.751
 5989SOL    HW218534   3.681   2.644   9.609
 5990SOL     OW18535   2.350   3.247   9.484
 5990SOL    HW118536   2.263   3.232   9.531
 5990SOL    HW218537   2.333   3.273   9.389
 5991SOL     OW18538   3.526   3.142   9.967
 5991SOL    HW118539   3.625   3.150   9.981
 5991SOL    HW218540   3.481   3.226   9.998
 5992SOL     OW18541   3.252   2.437   9.388
 5992SOL    HW118542   3.198   2.416   9.469
 5992SOL    HW218543   3.343   2.396   9.397
 5993SOL     OW18544   2.389   2.118   9.638
 5993SOL    HW118545   2.416   2.059   9.563
 5993SOL    HW218546   2.389   2.213   9.607
 5994SOL     OW18547   3.616   3.085  10.898
 5994SOL    HW118548   3.707   3.046  10.885
 5994SOL    HW218549   3.624   3.181  10.922
 5995SOL     OW18550   2.926   3.209  10.650
 5995SOL    HW118551   2.846   3.186  10.705
 5995SOL    HW218552   3.009   3.183  10.699
 5996SOL     OW18553   3.454   3.491  10.935
 5996SOL    HW118554   3.481   3.525  10.845
 5996SOL    HW218555   3.533   3.453  10.981
 5997SOL     OW18556   2.973   3.057  10.410
 5997SOL    HW118557   2.933   3.101  10.491
 5997SOL    HW218558   2.932   3.094  10.327
 5998SOL     OW18559   3.500   2.961  10.389
 5998SOL    HW118560   3.505   3.042  10.448
 5998SOL    HW218561   3.414   2.963  10.338
 5999SOL     OW18562   2.777   1.951  10.712
 5999SOL    HW118563   2.802   1.931  10.617
 5999SOL    HW218564   2.849   2.007  10.754
 6000SOL     OW18565   2.842   2.978  11.029
 6000SOL    HW118566   2.743   2.984  11.039
 6000SOL    HW218567   2.865   2.898  10.973
 6001SOL     OW18568   2.567   2.912   9.678
 6001SOL    HW118569   2.553   2.919   9.777
 6001SOL    HW218570   2.651   2.861   9.660
 6002SOL     OW18571   2.272   2.675  10.561
 6002SOL    HW118572   2.358   2.687  10.611
 6002SOL    HW218573   2.230   2.588  10.588
 6003SOL     OW18574   3.136   2.248  10.572
 6003SOL    HW118575   3.157   2.322  10.636
 6003SOL    HW218576   3.047   2.265  10.529
 6004SOL     OW18577   1.926   3.426  10.641
 6004SOL    HW118578   1.880   3.508  10.607
 6004SOL    HW218579   2.024   3.445  10.650
 6005SOL     OW18580   2.229   2.962   9.811
 6005SOL    HW118581   2.222   3.045   9.755
 6005SOL    HW218582   2.233   2.882   9.751
 6006SOL     OW18583   2.428   2.399  10.175
 6006SOL    HW118584   2.440   2.465  10.101
 6006SOL    HW218585   2.474   2.433  10.258
 6007SOL     OW18586   3.114   3.210   9.698
 6007SOL    HW118587   3.164   3.287   9.738
 6007SOL    HW218588   3.019   3.212   9.730
 6008SOL     OW18589   3.134   3.307  10.452
 6008SOL    HW118590   3.181   3.320  10.539
 6008SOL    HW218591   3.068   3.233  10.461
 6009SOL     OW18592   3.444   2.501   9.782
 6009SOL    HW118593   3.413   2.562   9.855
 6009SOL    HW218594   3.494   2.553   9.713
 6010SOL     OW18595   2.216   3.372  10.639
 6010SOL    HW118596   2.195   3.328  10.552
 6010SOL    HW218597   2.313   3.398  10.642
 6011SOL     OW18598   2.264   2.613  10.908
 6011SOL    HW118599   2.332   2.668  10.861
 6011SOL    HW218600   2.304   2.525  10.935
 6012SOL     OW18601   3.449   2.641  10.980
 6012SOL    HW118602   3.357   2.679  10.975
 6012SOL    HW218603   3.509   2.688  10.915
 6013SOL     OW18604   2.875   1.967  11.080
 6013SOL    HW118605   2.881   2.052  11.028
 6013SOL    HW218606   2.907   1.891  11.023
 6014SOL     OW18607   2.366   1.912  11.050
 6014SOL    HW118608   2.324   1.855  10.980
 6014SOL    HW218609   2.300   1.981  11.082
 6015SOL     OW18610   2.435   2.732  10.339
 6015SOL    HW118611   2.479   2.821  10.330
 6015SOL    HW218612   2.372   2.732  10.416
 6016SOL     OW18613   3.222   2.724  10.355
 6016SOL    HW118614   3.147   2.724  10.289
 6016SOL    HW218615   3.259   2.632  10.364
 6017SOL     OW18616   3.071   2.387   9.585
 6017SOL    HW118617   3.084   2.303   9.639
 6017SOL    HW218618   3.042   2.461   9.645
 6018SOL     OW18619   1.899   3.172  10.592
 6018SOL    HW118620   1.952   3.123  10.660
 6018SOL    HW218621   1.921   3.270  10.597
 6019SOL     OW18622   2.594   2.496  10.374
 6019SOL    HW118623   2.653   2.470  10.298
 6019SOL    HW218624   2.566   2.592  10.363
 6020SOL     OW18625   3.590   2.797  11.164
 6020SOL    HW118626   3.544   2.790  11.075
 6020SOL    HW218627   3.528   2.841  11.230
 6021SOL     OW18628   3.484   2.229   9.684
 6021SOL    HW118629   3.486   2.153   9.748
 6021SOL    HW218630   3.436   2.306   9.724
 6022SOL     OW18631   2.885   2.628  10.276
 6022SOL    HW118632   2.900   2.649  10.372
 6022SOL    HW218633   2.855   2.533  10.267
 6023SOL     OW18634   2.842   3.435  11.010
 6023SOL    HW118635   2.822   3.479  10.922
 6023SOL    HW218636   2.881   3.344  10.994
 6024SOL     OW18637   3.721   3.380  10.915
 6024SOL    HW118638   3.735   3.407  10.820
 6024SOL    HW218639   3.804   3.402  10.968
 6025SOL     OW18640   2.212   2.760  11.114
 6025SOL    HW118641   2.288   2.804  11.162
 6025SOL    HW218642   2.247   2.713  11.032
 6026SOL     OW18643   3.402   2.136   9.435
 6026SOL    HW118644   3.341   2.061   9.458
 6026SOL    HW218645   3.424   2.188   9.518
 6027SOL     OW18646   3.165   2.700   9.352
 6027SOL    HW118647   3.199   2.607   9.367
 6027SOL    HW218648   3.183   2.727   9.257
 6028SOL     OW18649   2.930   3.195  10.159
 6028SOL    HW118650   2.937   3.111  10.104
 6028SOL    HW218651   2.992   3.264  10.123
 6029SOL     OW18652   2.181   2.672  10.259
 6029SOL    HW118653   2.274   2.708  10.264
 6029SOL    HW218654   2.175   2.587  10.311
 6030SOL     OW18655   2.201   2.371  10.316
 6030SOL    HW118656   2.149   2.288  10.299
 6030SOL    HW218657   2.278   2.376  10.252
 6031SOL     OW18658   3.000   2.242  10.988
 6031SOL    HW118659   2.955   2.305  11.052
 6031SOL    HW218660   3.093   2.273  10.971
 6032SOL     OW18661   3.022   2.069  10.787
 6032SOL    HW118662   3.022   2.133  10.864
 6032SOL    HW218663   3.050   2.117  10.704
 6033SOL     OW18664   1.870   3.188   9.510
 6033SOL    HW118665   1.777   3.209   9.479
 6033SOL    HW218666   1.880   3.089   9.523
 6034SOL     OW18667   1.950   3.663  10.237
 6034SOL    HW118668   1.908   3.577  10.210
 6034SOL    HW218669   2.044   3.666  10.203
 6035SOL     OW18670   2.366   3.430  10.220
 6035SOL    HW118671   2.432   3.504  10.229
 6035SOL    HW218672   2.410   3.351  10.178
 6036SOL     OW18673   2.864   2.658  10.548
 6036SOL    HW118674   2.905   2.626  10.634
 6036SOL    HW218675   2.768   2.631  10.545
 6037SOL     OW18676   1.902   2.406  10.424
 6037SOL    HW118677   1.987   2.373  10.383
 6037SOL    HW218678   1.915   2.421  10.522
 6038SOL     OW18679   2.051   2.382  11.032
 6038SOL    HW118680   2.110   2.342  10.962
 6038SOL    HW218681   1.993   2.453  10.991
 6039SOL     OW18682   3.231   2.812  10.970
 6039SOL    HW118683   3.270   2.901  10.990
 6039SOL    HW218684   3.241   2.792  10.873
 6040SOL     OW18685   2.677   2.434   9.635
 6040SOL    HW118686   2.684   2.345   9.589
 6040SOL    HW218687   2.583   2.468   9.627
 6041SOL     OW18688   3.519   2.466  10.516
 6041SOL    HW118689   3.481   2.397  10.578
 6041SOL    HW218690   3.601   2.430  10.472
 6042SOL     OW18691   2.114   3.426  11.054
 6042SOL    HW118692   2.084   3.483  11.130
 6042SOL    HW218693   2.107   3.329  11.080
 6043SOL     OW18694   2.533   2.326  10.579
 6043SOL    HW118695   2.499   2.237  10.549
 6043SOL    HW218696   2.559   2.380  10.499
 6044SOL     OW18697   2.792   3.540  10.775
 6044SOL    HW118698   2.768   3.522  10.680
 6044SOL    HW218699   2.822   3.634  10.785
 6045SOL     OW18700   2.335   2.362   9.501
 6045SOL    HW118701   2.396   2.442   9.505
 6045SOL    HW218702   2.240   2.393   9.508
 6046SOL     OW18703   2.021   2.999  10.776
 6046SOL    HW118704   2.043   2.938  10.852
 6046SOL    HW218705   2.031   2.950  10.690
 6047SOL     OW18706   3.209   2.921  10.544
 6047SOL    HW118707   3.233   2.858  10.470
 6047SOL    HW218708   3.119   2.961  10.526
 6048SOL     OW18709   3.164   2.717   9.619
 6048SOL    HW118710   3.078   2.686   9.661
 6048SOL    HW218711   3.160   2.703   9.520
 6049SOL     OW18712   3.621   3.609  10.464
 6049SOL    HW118713   3.682   3.639  10.391
 6049SOL    HW218714   3.583   3.520  10.442
 6050SOL     OW18715   3.114   3.593  10.438
 6050SOL    HW118716   3.198   3.598  10.384
 6050SOL    HW218717   3.091   3.497  10.456
 6051SOL     OW18718   1.945   3.120  10.332
 6051SOL    HW118719   1.940   3.119  10.432
 6051SOL    HW218720   1.862   3.079  10.294
 6052SOL     OW18721   2.550   3.524  11.026
 6052SOL    HW118722   2.494   3.605  11.035
 6052SOL    HW218723   2.602   3.528  10.940
 6053SOL     OW18724   3.588   1.997   9.833
 6053SOL    HW118725   3.661   1.980   9.766
 6053SOL    HW218726   3.557   1.910   9.871
 6054SOL     OW18727   3.250   3.435   9.787
 6054SOL    HW118728   3.317   3.447   9.713
 6054SOL    HW218729   3.210   3.524   9.810
 6055SOL     OW18730   1.992   3.656  11.161
 6055SOL    HW118731   1.951   3.582  11.214
 6055SOL    HW218732   2.056   3.707  11.219
 6056SOL     OW18733   3.142   2.789   9.982
 6056SOL    HW118734   3.202   2.708   9.984
 6056SOL    HW218735   3.182   2.858   9.922
 6057SOL     OW18736   2.692   3.135  10.732
 6057SOL    HW118737   2.687   3.168  10.827
 6057SOL    HW218738   2.606   3.154  10.686
 6058SOL     OW18739   2.534   3.478   9.464
 6058SOL    HW118740   2.543   3.488   9.365
 6058SOL    HW218741   2.494   3.389   9.485
 6059SOL     OW18742   3.512   3.582  10.704
 6059SOL    HW118743   3.565   3.592  10.620
 6059SOL    HW218744   3.485   3.672  10.738
 6060SOL     OW18745   3.703   2.037  10.273
 6060SOL    HW118746   3.742   1.952  10.237
 6060SOL    HW218747   3.605   2.039  10.254
 6061SOL     OW18748   3.056   3.474   9.341
 6061SOL    HW118749   3.062   3.381   9.378
 6061SOL    HW218750   2.997   3.474   9.261
 6062SOL     OW18751   2.684   2.864  10.682
 6062SOL    HW118752   2.724   2.863  10.590
 6062SOL    HW218753   2.694   2.956  10.722
 6063SOL     OW18754   2.778   2.772   9.601
 6063SOL    HW118755   2.841   2.810   9.533
 6063SOL    HW218756   2.818   2.689   9.640
 6064SOL     OW18757   3.366   3.469   9.354
 6064SOL    HW118758   3.274   3.506   9.361
 6064SOL    HW218759   3.404   3.489   9.264
 6065SOL     OW18760   2.234   3.150  10.800
 6065SOL    HW118761   2.221   3.243  10.766
 6065SOL    HW218762   2.150   3.098  10.787
 6066SOL     OW18763   3.476   3.154  10.599
 6066SOL    HW118764   3.536   3.157  10.679
 6066SOL    HW218765   3.401   3.218  10.612
 6067SOL     OW18766   2.901   2.960  10.006
 6067SOL    HW118767   2.831   2.913  10.060
 6067SOL    HW218768   2.960   2.892   9.963
 6068SOL     OW18769   2.876   2.098  10.281
 6068SOL    HW118770   2.868   2.062  10.188
 6068SOL    HW218771   2.874   2.022  10.346
 6069SOL     OW18772   2.452   3.349   9.801
 6069SOL    HW118773   2.494   3.291   9.731
 6069SOL    HW218774   2.408   3.428   9.757
 6070SOL     OW18775   3.571   2.247  10.691
 6070SOL    HW118776   3.644   2.316  10.695
 6070SOL    HW218777   3.599   2.172  10.632
 6071SOL     OW18778   2.117   3.210   9.600
 6071SOL    HW118779   2.021   3.211   9.573
 6071SOL    HW218780   2.129   3.263   9.684
 6072SOL     OW18781   1.967   2.875  11.036
 6072SOL    HW118782   1.890   2.842  11.090
 6072SOL    HW218783   2.052   2.845  11.078
 6073SOL     OW18784   2.534   2.065  10.799
 6073SOL    HW118785   2.624   2.049  10.759
 6073SOL    HW218786   2.542   2.070  10.898
 6074SOL     OW18787   3.302   2.718  10.708
 6074SOL    HW118788   3.245   2.770  10.645
 6074SOL    HW218789   3.398   2.730  10.684
 6075SOL     OW18790   3.045   3.197   9.429
 6075SOL    HW118791   2.946   3.186   9.431
 6075SOL    HW218792   3.079   3.212   9.522
 6076SOL     OW18793   2.475   2.704  10.741
 6076SOL    HW118794   2.531   2.785  10.724
 6076SOL    HW218795   2.534   2.624  10.744
 6077SOL     OW18796   3.355   3.629  10.269
 6077SOL    HW118797   3.388   3.693  10.200
 6077SOL    HW218798   3.421   3.623  10.344
 6078SOL     OW18799   2.578   2.427  11.018
 6078SOL    HW118800   2.597   2.492  11.092
 6078SOL    HW218801   2.638   2.347  11.027
 6079SOL     OW18802   3.312   3.082  10.943
 6079SOL    HW118803   3.303   3.072  11.042
 6079SOL    HW218804   3.408   3.075  10.917
 6080SOL     OW18805   2.252   3.603  10.870
 6080SOL    HW118806   2.161   3.644  10.868
 6080SOL    HW218807   2.245   3.509  10.902
 6081SOL     OW18808   3.536   2.745  10.564
 6081SOL    HW118809   3.509   2.656  10.527
 6081SOL    HW218810   3.537   2.813  10.491
 6082SOL     OW18811   3.087   2.187   9.759
 6082SOL    HW118812   3.152   2.113   9.748
 6082SOL    HW218813   3.107   2.237   9.843
 6083SOL     OW18814   2.456   2.607   9.962
 6083SOL    HW118815   2.506   2.692   9.943
 6083SOL    HW218816   2.368   2.609   9.914
 6084SOL     OW18817   3.639   2.204  10.952
 6084SOL    HW118818   3.622   2.235  10.858
 6084SOL    HW218819   3.555   2.167  10.990
 6085SOL     OW18820   3.592   2.796  10.827
 6085SOL    HW118821   3.630   2.887  10.842
 6085SOL    HW218822   3.584   2.779  10.728
 6086SOL     OW18823   2.721   3.236   9.326
 6086SOL    HW118824   2.675   3.251   9.414
 6086SOL    HW218825   2.765   3.321   9.296
 6087SOL     OW18826   2.523   3.652  10.263
 6087SOL    HW118827   2.477   3.740  10.250
 6087SOL    HW218828   2.622   3.664  10.256
 6088SOL     OW18829   2.721   2.818  10.171
 6088SOL    HW118830   2.775   2.749  10.219
 6088SOL    HW218831   2.689   2.887  10.237
 6089SOL     OW18832   2.945   2.846   9.397
 6089SOL    HW118833   2.922   2.899   9.315
 6089SOL    HW218834   3.026   2.790   9.378
 6090SOL     OW18835   3.723   3.431  10.161
 6090SOL    HW118836   3.652   3.419  10.091
 6090SOL    HW218837   3.724   3.352  10.221
 6091SOL     OW18838   2.083   3.176  11.154
 6091SOL    HW118839   2.018   3.103  11.133
 6091SOL    HW218840   2.087   3.190  11.252
 6092SOL     OW18841   1.941   3.102   9.963
 6092SOL    HW118842   1.940   3.055  10.051
 6092SOL    HW218843   2.023   3.074   9.912
 6093SOL     OW18844   2.534   3.253  10.934
 6093SOL    HW118845   2.456   3.203  10.972
 6093SOL    HW218846   2.531   3.348  10.965
 6094SOL     OW18847   3.686   2.054  10.537
 6094SOL    HW118848   3.682   1.964  10.581
 6094SOL    HW218849   3.689   2.043  10.438
 6095SOL     OW18850   2.290   2.286   9.830
 6095SOL    HW118851   2.320   2.214   9.768
 6095SOL    HW218852   2.251   2.246   9.913
 6096SOL     OW18853   3.567   3.349  10.414
 6096SOL    HW118854   3.474   3.324  10.387
 6096SOL    HW218855   3.593   3.299  10.496
 6097SOL     OW18856   2.179   2.409  10.590
 6097SOL    HW118857   2.217   2.350  10.662
 6097SOL    HW218858   2.219   2.383  10.502
 6098SOL     OW18859   2.674   3.448   9.997
 6098SOL    HW118860   2.706   3.458   9.903
 6098SOL    HW218861   2.595   3.386   9.999
 6099SOL     OW18862   3.286   2.076  10.422
 6099SOL    HW118863   3.338   2.011  10.477
 6099SOL    HW218864   3.237   2.139  10.483
 6100SOL     OW18865   2.863   1.896  10.464
 6100SOL    HW118866   2.800   1.824  10.433
 6100SOL    HW218867   2.956   1.860  10.464
 6101SOL     OW18868   2.632   3.192   9.611
 6101SOL    HW118869   2.586   3.105   9.628
 6101SOL    HW218870   2.723   3.189   9.652
 6102SOL     OW18871   2.480   3.429  10.594
 6102SOL    HW118872   2.475   3.511  10.651
 6102SOL    HW218873   2.569   3.426  10.549
 6103SOL     OW18874   3.214   1.914   9.478
 6103SOL    HW118875   3.249   1.873   9.394
 6103SOL    HW218876   3.124   1.876   9.498
 6104SOL     OW18877   3.162   2.315  10.001
 6104SOL    HW118878   3.103   2.395  10.005
 6104SOL    HW218879   3.177   2.280  10.094
 6105SOL     OW18880   3.455   2.083  10.192
 6105SOL    HW118881   3.371   2.082  10.246
 6105SOL    HW218882   3.457   2.166  10.136
 6106SOL     OW18883   1.901   2.939   9.610
 6106SOL    HW118884   2.000   2.928   9.601
 6106SOL    HW218885   1.861   2.853   9.642
 6107SOL     OW18886   2.737   3.508   9.647
 6107SOL    HW118887   2.660   3.473   9.593
 6107SOL    HW218888   2.705   3.579   9.709
 6108SOL     OW18889   2.092   2.490  11.285
 6108SOL    HW118890   1.999   2.488  11.322
 6108SOL    HW218891   2.093   2.451  11.193
 6109SOL     OW18892   1.881   2.230  11.819
 6109SOL    HW118893   1.799   2.273  11.858
 6109SOL    HW218894   1.853   2.157  11.756
 6110SOL     OW18895   2.431   3.137  12.337
 6110SOL    HW118896   2.338   3.130  12.300
 6110SOL    HW218897   2.442   3.226  12.381
 6111SOL     OW18898   3.417   3.373  11.875
 6111SOL    HW118899   3.360   3.357  11.956
 6111SOL    HW218900   3.358   3.383  11.795
 6112SOL     OW18901   2.997   2.565  11.889
 6112SOL    HW118902   3.054   2.643  11.864
 6112SOL    HW218903   2.937   2.591  11.965
 6113SOL     OW18904   3.617   2.469  11.403
 6113SOL    HW118905   3.605   2.456  11.304
 6113SOL    HW218906   3.587   2.388  11.452
 6114SOL     OW18907   2.630   3.006  12.195
 6114SOL    HW118908   2.552   3.023  12.255
 6114SOL    HW218909   2.664   3.093  12.159
 6115SOL     OW18910   2.712   2.660  12.995
 6115SOL    HW118911   2.708   2.736  13.060
 6115SOL    HW218912   2.734   2.696  12.904
 6116SOL     OW18913   2.547   2.874  11.837
 6116SOL    HW118914   2.616   2.858  11.907
 6116SOL    HW218915   2.474   2.931  11.875
 6117SOL     OW18916   2.548   3.023  12.975
 6117SOL    HW118917   2.608   3.102  12.989
 6117SOL    HW218918   2.462   3.054  12.934
 6118SOL     OW18919   2.197   3.297  12.233
 6118SOL    HW118920   2.119   3.266  12.180
 6118SOL    HW218921   2.255   3.355  12.176
 6119SOL     OW18922   3.322   3.367  12.511
 6119SOL    HW118923   3.346   3.461  12.537
 6119SOL    HW218924   3.306   3.313  12.593
 6120SOL     OW18925   2.300   2.254  12.671
 6120SOL    HW118926   2.382   2.198  12.680
 6120SOL    HW218927   2.219   2.196  12.675
 6121SOL     OW18928   3.465   2.309  11.909
 6121SOL    HW118929   3.391   2.355  11.859
 6121SOL    HW218930   3.516   2.377  11.962
 6122SOL     OW18931   2.093   3.575  11.655
 6122SOL    HW118932   2.127   3.652  11.709
 6122SOL    HW218933   2.137   3.575  11.565
 6123SOL     OW18934   2.989   3.203  12.862
 6123SOL    HW118935   3.036   3.203  12.950
 6123SOL    HW218936   2.941   3.116  12.851
 6124SOL     OW18937   2.092   3.296  11.710
 6124SOL    HW118938   2.066   3.392  11.710
 6124SOL    HW218939   2.021   3.242  11.755
 6125SOL     OW18940   2.102   2.953  12.058
 6125SOL    HW118941   2.116   2.869  12.110
 6125SOL    HW218942   2.047   3.017  12.113
 6126SOL     OW18943   2.482   3.648  12.611
 6126SOL    HW118944   2.390   3.631  12.646
 6126SOL    HW218945   2.510   3.740  12.637
 6127SOL     OW18946   2.468   2.826  11.295
 6127SOL    HW118947   2.475   2.910  11.241
 6127SOL    HW218948   2.514   2.839  11.383
 6128SOL     OW18949   3.456   1.976  12.652
 6128SOL    HW118950   3.438   2.043  12.580
 6128SOL    HW218951   3.453   2.022  12.741
 6129SOL     OW18952   1.984   2.505  11.735
 6129SOL    HW118953   1.939   2.417  11.752
 6129SOL    HW218954   1.983   2.559  11.819
 6130SOL     OW18955   3.704   3.629  11.531
 6130SOL    HW118956   3.758   3.600  11.611
 6130SOL    HW218957   3.734   3.719  11.502
 6131SOL     OW18958   1.889   3.458  11.289
 6131SOL    HW118959   1.870   3.362  11.310
 6131SOL    HW218960   1.856   3.516  11.364
 6132SOL     OW18961   3.551   2.784  11.784
 6132SOL    HW118962   3.646   2.755  11.792
 6132SOL    HW218963   3.543   2.849  11.709
 6133SOL     OW18964   3.503   2.970  11.604
 6133SOL    HW118965   3.589   2.972  11.552
 6133SOL    HW218966   3.517   3.017  11.692
 6134SOL     OW18967   1.975   2.599  12.769
 6134SOL    HW118968   2.063   2.586  12.814
 6134SOL    HW218969   1.962   2.696  12.747
 6135SOL     OW18970   2.475   3.227  11.898
 6135SOL    HW118971   2.426   3.140  11.907
 6135SOL    HW218972   2.452   3.270  11.811
 6136SOL     OW18973   3.155   3.090  12.595
 6136SOL    HW118974   3.192   3.017  12.537
 6136SOL    HW218975   3.207   3.095  12.680
 6137SOL     OW18976   2.671   1.866  11.674
 6137SOL    HW118977   2.711   1.957  11.665
 6137SOL    HW218978   2.571   1.874  11.680
 6138SOL     OW18979   2.059   2.838  12.436
 6138SOL    HW118980   2.148   2.793  12.422
 6138SOL    HW218981   1.986   2.773  12.417
 6139SOL     OW18982   3.387   2.861  11.362
 6139SOL    HW118983   3.324   2.785  11.375
 6139SOL    HW218984   3.435   2.879  11.448
 6140SOL     OW18985   3.049   3.654  12.788
 6140SOL    HW118986   3.073   3.714  12.712
 6140SOL    HW218987   3.056   3.559  12.758
 6141SOL     OW18988   2.179   2.113  12.973
 6141SOL    HW118989   2.250   2.184  12.979
 6141SOL    HW218990   2.091   2.152  13.001
 6142SOL     OW18991   3.328   3.279  12.125
 6142SOL    HW118992   3.269   3.285  12.205
 6142SOL    HW218993   3.313   3.191  12.079
 6143SOL     OW18994   3.529   3.576  11.744
 6143SOL    HW118995   3.488   3.553  11.656
 6143SOL    HW218996   3.511   3.502  11.809
 6144SOL     OW18997   2.460   2.591  11.442
 6144SOL    HW118998   2.484   2.660  11.374
 6144SOL    HW218999   2.382   2.624  11.496
 6145SOL     OW19000   3.143   2.207  12.116
 6145SOL    HW119001   3.057   2.157  12.103
 6145SOL    HW219002   3.205   2.153  12.172
 6146SOL     OW19003   3.438   3.524  11.479
 6146SOL    HW119004   3.527   3.570  11.482
 6146SOL    HW219005   3.417   3.500  11.384
 6147SOL     OW19006   2.669   2.467  12.637
 6147SOL    HW119007   2.622   2.464  12.726
 6147SOL    HW219008   2.618   2.412  12.571
 6148SOL     OW19009   3.256   2.331  12.846
 6148SOL    HW119010   3.236   2.374  12.934
 6148SOL    HW219011   3.334   2.269  12.855
 6149SOL     OW19012   2.835   2.752  12.744
 6149SOL    HW119013   2.881   2.668  12.715
 6149SOL    HW219014   2.779   2.786  12.669
 6150SOL     OW19015   2.853   2.272  12.414
 6150SOL    HW119016   2.776   2.306  12.468
 6150SOL    HW219017   2.819   2.221  12.335
 6151SOL     OW19018   2.903   2.563  11.601
 6151SOL    HW119019   2.929   2.559  11.697
 6151SOL    HW219020   2.818   2.512  11.587
 6152SOL     OW19021   1.938   2.673  11.961
 6152SOL    HW119022   2.037   2.661  11.970
 6152SOL    HW219023   1.914   2.768  11.982
 6153SOL     OW19024   1.992   3.683  12.743
 6153SOL    HW119025   1.982   3.668  12.842
 6153SOL    HW219026   1.906   3.719  12.707
 6154SOL     OW19027   2.727   2.210  11.367
 6154SOL    HW119028   2.786   2.273  11.318
 6154SOL    HW219029   2.746   2.116  11.338
 6155SOL     OW19030   3.581   2.447  13.003
 6155SOL    HW119031   3.555   2.536  12.967
 6155SOL    HW219032   3.579   2.379  12.930
 6156SOL     OW19033   3.224   3.006  11.717
 6156SOL    HW119034   3.307   2.977  11.669
 6156SOL    HW219035   3.175   3.073  11.661
 6157SOL     OW19036   2.412   2.058  12.057
 6157SOL    HW119037   2.407   2.053  12.157
 6157SOL    HW219038   2.414   2.154  12.028
 6158SOL     OW19039   2.870   3.318  11.649
 6158SOL    HW119040   2.824   3.390  11.597
 6158SOL    HW219041   2.866   3.338  11.747
 6159SOL     OW19042   2.213   3.663  12.025
 6159SOL    HW119043   2.263   3.577  12.031
 6159SOL    HW219044   2.278   3.740  12.022
 6160SOL     OW19045   3.657   2.928  12.045
 6160SOL    HW119046   3.595   2.913  11.969
 6160SOL    HW219047   3.605   2.939  12.130
 6161SOL     OW19048   3.089   3.412  12.678
 6161SOL    HW119049   3.095   3.335  12.742
 6161SOL    HW219050   3.037   3.386  12.598
 6162SOL     OW19051   2.183   2.805  11.414
 6162SOL    HW119052   2.265   2.844  11.372
 6162SOL    HW219053   2.156   2.723  11.365
 6163SOL     OW19054   3.320   2.597  11.900
 6163SOL    HW119055   3.315   2.532  11.975
 6163SOL    HW219056   3.400   2.656  11.913
 6164SOL     OW19057   2.323   3.128  12.899
 6164SOL    HW119058   2.273   3.129  12.813
 6164SOL    HW219059   2.260   3.110  12.975
 6165SOL     OW19060   2.973   3.638  11.409
 6165SOL    HW119061   2.913   3.576  11.459
 6165SOL    HW219062   3.004   3.594  11.324
 6166SOL     OW19063   3.494   3.239  11.253
 6166SOL    HW119064   3.462   3.333  11.243
 6166SOL    HW219065   3.418   3.176  11.241
 6167SOL     OW19066   2.326   3.605  11.495
 6167SOL    HW119067   2.359   3.644  11.581
 6167SOL    HW219068   2.402   3.598  11.430
 6168SOL     OW19069   3.262   1.969  11.598
 6168SOL    HW119070   3.238   1.932  11.508
 6168SOL    HW219071   3.361   1.985  11.602
 6169SOL     OW19072   2.111   3.647  12.413
 6169SOL    HW119073   2.168   3.582  12.463
 6169SOL    HW219074   2.095   3.614  12.320
 6170SOL     OW19075   2.802   3.560  12.076
 6170SOL    HW119076   2.882   3.503  12.097
 6170SOL    HW219077   2.753   3.520  11.999
 6171SOL     OW19078   2.244   2.562  11.652
 6171SOL    HW119079   2.289   2.472  11.649
 6171SOL    HW219080   2.150   2.551  11.685
 6172SOL     OW19081   3.409   2.084  12.901
 6172SOL    HW119082   3.404   2.121  12.993
 6172SOL    HW219083   3.337   2.015  12.889
 6173SOL     OW19084   2.476   1.984  11.289
 6173SOL    HW119085   2.574   1.962  11.296
 6173SOL    HW219086   2.445   1.967  11.196
 6174SOL     OW19087   2.643   2.126  12.921
 6174SOL    HW119088   2.710   2.065  12.964
 6174SOL    HW219089   2.570   2.145  12.986
 6175SOL     OW19090   2.750   3.376  12.367
 6175SOL    HW119091   2.727   3.351  12.273
 6175SOL    HW219092   2.811   3.307  12.406
 6176SOL     OW19093   3.213   2.452  12.605
 6176SOL    HW119094   3.241   2.409  12.690
 6176SOL    HW219095   3.238   2.548  12.606
 6177SOL     OW19096   2.665   3.264  12.096
 6177SOL    HW119097   2.755   3.278  12.054
 6177SOL    HW219098   2.594   3.266  12.025
 6178SOL     OW19099   2.784   2.365  12.071
 6178SOL    HW119100   2.759   2.356  11.975
 6178SOL    HW219101   2.832   2.283  12.102
 6179SOL     OW19102   2.401   1.926  11.684
 6179SOL    HW119103   2.320   1.927  11.742
 6179SOL    HW219104   2.404   2.009  11.629
 6180SOL     OW19105   3.296   3.050  11.213
 6180SOL    HW119106   3.328   2.974  11.270
 6180SOL    HW219107   3.204   3.077  11.243
 6181SOL     OW19108   2.797   2.098  11.652
 6181SOL    HW119109   2.749   2.139  11.574
 6181SOL    HW219110   2.896   2.096  11.633
 6182SOL     OW19111   2.938   2.545  12.636
 6182SOL    HW119112   2.858   2.484  12.639
 6182SOL    HW219113   3.019   2.492  12.612
 6183SOL     OW19114   3.089   3.432  11.965
 6183SOL    HW119115   3.110   3.506  11.900
 6183SOL    HW219116   3.157   3.432  12.038
 6184SOL     OW19117   2.321   3.014  11.913
 6184SOL    HW119118   2.250   2.987  11.978
 6184SOL    HW219119   2.295   2.986  11.820
 6185SOL     OW19120   3.133   3.659  11.763
 6185SOL    HW119121   3.177   3.723  11.699
 6185SOL    HW219122   3.083   3.711  11.833
 6186SOL     OW19123   2.894   2.411  11.188
 6186SOL    HW119124   2.853   2.493  11.149
 6186SOL    HW219125   2.958   2.437  11.261
 6187SOL     OW19126   1.940   2.418  12.558
 6187SOL    HW119127   2.032   2.417  12.517
 6187SOL    HW219128   1.934   2.492  12.625
 6188SOL     OW19129   2.423   2.084  12.319
 6188SOL    HW119130   2.461   2.000  12.356
 6188SOL    HW219131   2.335   2.103  12.363
 6189SOL     OW19132   2.728   2.316  11.814
 6189SOL    HW119133   2.696   2.388  11.752
 6189SOL    HW219134   2.752   2.235  11.761
 6190SOL     OW19135   2.879   1.901  11.925
 6190SOL    HW119136   2.807   1.906  11.856
 6190SOL    HW219137   2.855   1.832  11.994
 6191SOL     OW19138   3.291   3.035  12.039
 6191SOL    HW119139   3.236   2.951  12.032
 6191SOL    HW219140   3.317   3.064  11.947
 6192SOL     OW19141   3.328   2.452  12.164
 6192SOL    HW119142   3.298   2.357  12.171
 6192SOL    HW219143   3.401   2.468  12.230
 6193SOL     OW19144   3.719   2.695  11.549
 6193SOL    HW119145   3.761   2.631  11.613
 6193SOL    HW219146   3.681   2.644  11.471
 6194SOL     OW19147   2.350   3.247  11.346
 6194SOL    HW119148   2.263   3.232  11.393
 6194SOL    HW219149   2.333   3.273  11.251
 6195SOL     OW19150   3.526   3.142  11.829
 6195SOL    HW119151   3.625   3.150  11.843
 6195SOL    HW219152   3.481   3.226  11.860
 6196SOL     OW19153   3.252   2.437  11.250
 6196SOL    HW119154   3.198   2.416  11.331
 6196SOL    HW219155   3.343   2.396  11.259
 6197SOL     OW19156   2.389   2.118  11.500
 6197SOL    HW119157   2.416   2.059  11.425
 6197SOL    HW219158   2.389   2.213  11.469
 6198SOL     OW19159   3.616   3.085  12.760
 6198SOL    HW119160   3.707   3.046  12.747
 6198SOL    HW219161   3.624   3.181  12.784
 6199SOL     OW19162   2.926   3.209  12.512
 6199SOL    HW119163   2.846   3.186  12.567
 6199SOL    HW219164   3.009   3.183  12.561
 6200SOL     OW19165   3.454   3.491  12.797
 6200SOL    HW119166   3.481   3.525  12.707
 6200SOL    HW219167   3.533   3.453  12.843
 6201SOL     OW19168   2.973   3.057  12.272
 6201SOL    HW119169   2.933   3.101  12.353
 6201SOL    HW219170   2.932   3.094  12.189
 6202SOL     OW19171   3.500   2.961  12.251
 6202SOL    HW119172   3.505   3.042  12.310
 6202SOL    HW219173   3.414   2.963  12.200
 6203SOL     OW19174   2.777   1.951  12.574
 6203SOL    HW119175   2.802   1.931  12.479
 6203SOL    HW219176   2.849   2.007  12.616
 6204SOL     OW19177   2.842   2.978  12.891
 6204SOL    HW119178   2.743   2.984  12.901
 6204SOL    HW219179   2.865   2.898  12.835
 6205SOL     OW19180   2.567   2.912  11.540
 6205SOL    HW119181   2.553   2.919  11.639
 6205SOL    HW219182   2.651   2.861  11.522
 6206SOL     OW19183   2.272   2.675  12.423
 6206SOL    HW119184   2.358   2.687  12.473
 6206SOL    HW219185   2.230   2.588  12.450
 6207SOL     OW19186   3.136   2.248  12.434
 6207SOL    HW119187   3.157   2.322  12.498
 6207SOL    HW219188   3.047   2.265  12.391
 6208SOL     OW19189   1.926   3.426  12.503
 6208SOL    HW119190   1.880   3.508  12.469
 6208SOL    HW219191   2.024   3.445  12.512
 6209SOL     OW19192   2.229   2.962  11.673
 6209SOL    HW119193   2.222   3.045  11.617
 6209SOL    HW219194   2.233   2.882  11.613
 6210SOL     OW19195   2.428   2.399  12.037
 6210SOL    HW119196   2.440   2.465  11.963
 6210SOL    HW219197   2.474   2.433  12.120
 6211SOL     OW19198   3.114   3.210  11.560
 6211SOL    HW119199   3.164   3.287  11.600
 6211SOL    HW219200   3.019   3.212  11.592
 6212SOL     OW19201   3.134   3.307  12.314
 6212SOL    HW119202   3.181   3.320  12.401
 6212SOL    HW219203   3.068   3.233  12.323
 6213SOL     OW19204   3.444   2.501  11.644
 6213SOL    HW119205   3.413   2.562  11.717
 6213SOL    HW219206   3.494   2.553  11.575
 6214SOL     OW19207   2.216   3.372  12.501
 6214SOL    HW119208   2.195   3.328  12.414
 6214SOL    HW219209   2.313   3.398  12.504
 6215SOL     OW19210   2.264   2.613  12.770
 6215SOL    HW119211   2.332   2.668  12.723
 6215SOL    HW219212   2.304   2.525  12.797
 6216SOL     OW19213   3.449   2.641  12.842
 6216SOL    HW119214   3.357   2.679  12.837
 6216SOL    HW219215   3.509   2.688  12.777
 6217SOL     OW19216   2.875   1.967  12.942
 6217SOL    HW119217   2.881   2.052  12.890
 6217SOL    HW219218   2.907   1.891  12.885
 6218SOL     OW19219   2.366   1.912  12.912
 6218SOL    HW119220   2.324   1.855  12.842
 6218SOL    HW219221   2.300   1.981  12.944
 6219SOL     OW19222   2.435   2.732  12.201
 6219SOL    HW119223   2.479   2.821  12.192
 6219SOL    HW219224   2.372   2.732  12.278
 6220SOL     OW19225   3.222   2.724  12.217
 6220SOL    HW119226   3.147   2.724  12.151
 6220SOL    HW219227   3.259   2.632  12.226
 6221SOL     OW19228   3.071   2.387  11.447
 6221SOL    HW119229   3.084   2.303  11.501
 6221SOL    HW219230   3.042   2.461  11.507
 6222SOL     OW19231   1.899   3.172  12.454
 6222SOL    HW119232   1.952   3.123  12.522
 6222SOL    HW219233   1.921   3.270  12.459
 6223SOL     OW19234   2.594   2.496  12.236
 6223SOL    HW119235   2.653   2.470  12.160
 6223SOL    HW219236   2.566   2.592  12.225
 6224SOL     OW19237   3.590   2.797  13.026
 6224SOL    HW119238   3.544   2.790  12.937
 6224SOL    HW219239   3.528   2.841  13.092
 6225SOL     OW19240   3.484   2.229  11.546
 6225SOL    HW119241   3.486   2.153  11.610
 6225SOL    HW219242   3.436   2.306  11.586
 6226SOL     OW19243   2.885   2.628  12.138
 6226SOL    HW119244   2.900   2.649  12.234
 6226SOL    HW219245   2.855   2.533  12.129
 6227SOL     OW19246   2.842   3.435  12.872
 6227SOL    HW119247   2.822   3.479  12.784
 6227SOL    HW219248   2.881   3.344  12.856
 6228SOL     OW19249   3.721   3.380  12.777
 6228SOL    HW119250   3.735   3.407  12.682
 6228SOL    HW219251   3.804   3.402  12.830
 6229SOL     OW19252   2.212   2.760  12.976
 6229SOL    HW119253   2.288   2.804  13.024
 6229SOL    HW219254   2.247   2.713  12.894
 6230SOL     OW19255   3.402   2.136  11.297
 6230SOL    HW119256   3.341   2.061  11.320
 6230SOL    HW219257   3.424   2.188  11.380
 6231SOL     OW19258   3.165   2.700  11.214
 6231SOL    HW119259   3.199   2.607  11.229
 6231SOL    HW219260   3.183   2.727  11.119
 6232SOL     OW19261   2.930   3.195  12.021
 6232SOL    HW119262   2.937   3.111  11.966
 6232SOL    HW219263   2.992   3.264  11.985
 6233SOL     OW19264   2.181   2.672  12.121
 6233SOL    HW119265   2.274   2.708  12.126
 6233SOL    HW219266   2.175   2.587  12.173
 6234SOL     OW19267   2.201   2.371  12.178
 6234SOL    HW119268   2.149   2.288  12.161
 6234SOL    HW219269   2.278   2.376  12.114
 6235SOL     OW19270   3.000   2.242  12.850
 6235SOL    HW119271   2.955   2.305  12.914
 6235SOL    HW219272   3.093   2.273  12.833
 6236SOL     OW19273   3.022   2.069  12.649
 6236SOL    HW119274   3.022   2.133  12.726
 6236SOL    HW219275   3.050   2.117  12.566
 6237SOL     OW19276   1.870   3.188  11.372
 6237SOL    HW119277   1.777   3.209  11.341
 6237SOL    HW219278   1.880   3.089  11.385
 6238SOL     OW19279   1.950   3.663  12.099
 6238SOL    HW119280   1.908   3.577  12.072
 6238SOL    HW219281   2.044   3.666  12.065
 6239SOL     OW19282   2.366   3.430  12.082
 6239SOL    HW119283   2.432   3.504  12.091
 6239SOL    HW219284   2.410   3.351  12.040
 6240SOL     OW19285   2.864   2.658  12.410
 6240SOL    HW119286   2.905   2.626  12.496
 6240SOL    HW219287   2.768   2.631  12.407
 6241SOL     OW19288   1.902   2.406  12.286
 6241SOL    HW119289   1.987   2.373  12.245
 6241SOL    HW219290   1.915   2.421  12.384
 6242SOL     OW19291   2.051   2.382  12.894
 6242SOL    HW119292   2.110   2.342  12.824
 6242SOL    HW219293   1.993   2.453  12.853
 6243SOL     OW19294   3.231   2.812  12.832
 6243SOL    HW119295   3.270   2.901  12.852
 6243SOL    HW219296   3.241   2.792  12.735
 6244SOL     OW19297   2.677   2.434  11.497
 6244SOL    HW119298   2.684   2.345  11.451
 6244SOL    HW219299   2.583   2.468  11.489
 6245SOL     OW19300   3.519   2.466  12.378
 6245SOL    HW119301   3.481   2.397  12.440
 6245SOL    HW219302   3.601   2.430  12.334
 6246SOL     OW19303   2.114   3.426  12.916
 6246SOL    HW119304   2.084   3.483  12.992
 6246SOL    HW219305   2.107   3.329  12.942
 6247SOL     OW19306   2.533   2.326  12.441
 6247SOL    HW119307   2.499   2.237  12.411
 6247SOL    HW219308   2.559   2.380  12.361
 6248SOL     OW19309   2.792   3.540  12.637
 6248SOL    HW119310   2.768   3.522  12.542
 6248SOL    HW219311   2.822   3.634  12.647
 6249SOL     OW19312   2.335   2.362  11.363
 6249SOL    HW119313   2.396   2.442  11.367
 6249SOL    HW219314   2.240   2.393  11.370
 6250SOL     OW19315   2.021   2.999  12.638
 6250SOL    HW119316   2.043   2.938  12.714
 6250SOL    HW219317   2.031   2.950  12.552
 6251SOL     OW19318   3.209   2.921  12.406
 6251SOL    HW119319   3.233   2.858  12.332
 6251SOL    HW219320   3.119   2.961  12.388
 6252SOL     OW19321   3.164   2.717  11.481
 6252SOL    HW119322   3.078   2.686  11.523
 6252SOL    HW219323   3.160   2.703  11.382
 6253SOL     OW19324   3.621   3.609  12.326
 6253SOL    HW119325   3.682   3.639  12.253
 6253SOL    HW219326   3.583   3.520  12.304
 6254SOL     OW19327   3.114   3.593  12.300
 6254SOL    HW119328   3.198   3.598  12.246
 6254SOL    HW219329   3.091   3.497  12.318
 6255SOL     OW19330   1.945   3.120  12.194
 6255SOL    HW119331   1.940   3.119  12.294
 6255SOL    HW219332   1.862   3.079  12.156
 6256SOL     OW19333   2.550   3.524  12.888
 6256SOL    HW119334   2.494   3.605  12.897
 6256SOL    HW219335   2.602   3.528  12.802
 6257SOL     OW19336   3.588   1.997  11.695
 6257SOL    HW119337   3.661   1.980  11.628
 6257SOL    HW219338   3.557   1.910  11.733
 6258SOL     OW19339   3.250   3.435  11.649
 6258SOL    HW119340   3.317   3.447  11.575
 6258SOL    HW219341   3.210   3.524  11.672
 6259SOL     OW19342   1.992   3.656  13.023
 6259SOL    HW119343   1.951   3.582  13.076
 6259SOL    HW219344   2.056   3.707  13.081
 6260SOL     OW19345   3.142   2.789  11.844
 6260SOL    HW119346   3.202   2.708  11.846
 6260SOL    HW219347   3.182   2.858  11.784
 6261SOL     OW19348   2.692   3.135  12.594
 6261SOL    HW119349   2.687   3.168  12.689
 6261SOL    HW219350   2.606   3.154  12.548
 6262SOL     OW19351   2.534   3.478  11.326
 6262SOL    HW119352   2.543   3.488  11.227
 6262SOL    HW219353   2.494   3.389  11.347
 6263SOL     OW19354   3.512   3.582  12.566
 6263SOL    HW119355   3.565   3.592  12.482
 6263SOL    HW219356   3.485   3.672  12.600
 6264SOL     OW19357   3.703   2.037  12.135
 6264SOL    HW119358   3.742   1.952  12.099
 6264SOL    HW219359   3.605   2.039  12.116
 6265SOL     OW19360   3.056   3.474  11.203
 6265SOL    HW119361   3.062   3.381  11.240
 6265SOL    HW219362   2.997   3.474  11.123
 6266SOL     OW19363   2.684   2.864  12.544
 6266SOL    HW119364   2.724   2.863  12.452
 6266SOL    HW219365   2.694   2.956  12.584
 6267SOL     OW19366   2.778   2.772  11.463
 6267SOL    HW119367   2.841   2.810  11.395
 6267SOL    HW219368   2.818   2.689  11.502
 6268SOL     OW19369   3.366   3.469  11.216
 6268SOL    HW119370   3.274   3.506  11.223
 6268SOL    HW219371   3.404   3.489  11.126
 6269SOL     OW19372   2.234   3.150  12.662
 6269SOL    HW119373   2.221   3.243  12.628
 6269SOL    HW219374   2.150   3.098  12.649
 6270SOL     OW19375   3.476   3.154  12.461
 6270SOL    HW119376   3.536   3.157  12.541
 6270SOL    HW219377   3.401   3.218  12.474
 6271SOL     OW19378   2.901   2.960  11.868
 6271SOL    HW119379   2.831   2.913  11.922
 6271SOL    HW219380   2.960   2.892  11.825
 6272SOL     OW19381   2.876   2.098  12.143
 6272SOL    HW119382   2.868   2.062  12.050
 6272SOL    HW219383   2.874   2.022  12.208
 6273SOL     OW19384   2.452   3.349  11.663
 6273SOL    HW119385   2.494   3.291  11.593
 6273SOL    HW219386   2.408   3.428  11.619
 6274SOL     OW19387   3.571   2.247  12.553
 6274SOL    HW119388   3.644   2.316  12.557
 6274SOL    HW219389   3.599   2.172  12.494
 6275SOL     OW19390   2.117   3.210  11.462
 6275SOL    HW119391   2.021   3.211  11.435
 6275SOL    HW219392   2.129   3.263  11.546
 6276SOL     OW19393   1.967   2.875  12.898
 6276SOL    HW119394   1.890   2.842  12.952
 6276SOL    HW219395   2.052   2.845  12.940
 6277SOL     OW19396   2.534   2.065  12.661
 6277SOL    HW119397   2.624   2.049  12.621
 6277SOL    HW219398   2.542   2.070  12.760
 6278SOL     OW19399   3.302   2.718  12.570
 6278SOL    HW119400   3.245   2.770  12.507
 6278SOL    HW219401   3.398   2.730  12.546
 6279SOL     OW19402   3.045   3.197  11.291
 6279SOL    HW119403   2.946   3.186  11.293
 6279SOL    HW219404   3.079   3.212  11.384
 6280SOL     OW19405   2.475   2.704  12.603
 6280SOL    HW119406   2.531   2.785  12.586
 6280SOL    HW219407   2.534   2.624  12.606
 6281SOL     OW19408   3.355   3.629  12.131
 6281SOL    HW119409   3.388   3.693  12.062
 6281SOL    HW219410   3.421   3.623  12.206
 6282SOL     OW19411   2.578   2.427  12.880
 6282SOL    HW119412   2.597   2.492  12.954
 6282SOL    HW219413   2.638   2.347  12.889
 6283SOL     OW19414   3.312   3.082  12.805
 6283SOL    HW119415   3.303   3.072  12.904
 6283SOL    HW219416   3.408   3.075  12.779
 6284SOL     OW19417   2.252   3.603  12.732
 6284SOL    HW119418   2.161   3.644  12.730
 6284SOL    HW219419   2.245   3.509  12.764
 6285SOL     OW19420   3.536   2.745  12.426
 6285SOL    HW119421   3.509   2.656  12.389
 6285SOL    HW219422   3.537   2.813  12.353
 6286SOL     OW19423   3.087   2.187  11.621
 6286SOL    HW119424   3.152   2.113  11.610
 6286SOL    HW219425   3.107   2.237  11.705
 6287SOL     OW19426   2.456   2.607  11.824
 6287SOL    HW119427   2.506   2.692  11.805
 6287SOL    HW219428   2.368   2.609  11.776
 6288SOL     OW19429   3.639   2.204  12.814
 6288SOL    HW119430   3.622   2.235  12.720
 6288SOL    HW219431   3.555   2.167  12.852
 6289SOL     OW19432   3.592   2.796  12.689
 6289SOL    HW119433   3.630   2.887  12.704
 6289SOL    HW219434   3.584   2.779  12.590
 6290SOL     OW19435   2.721   3.236  11.188
 6290SOL    HW119436   2.675   3.251  11.276
 6290SOL    HW219437   2.765   3.321  11.158
 6291SOL     OW19438   2.523   3.652  12.125
 6291SOL    HW119439   2.477   3.740  12.112
 6291SOL    HW219440   2.622   3.664  12.118
 6292SOL     OW19441   2.721   2.818  12.033
 6292SOL    HW119442   2.775   2.749  12.081
 6292SOL    HW219443   2.689   2.887  12.099
 6293SOL     OW19444   2.945   2.846  11.259
 6293SOL    HW119445   2.922   2.899  11.177
 6293SOL    HW219446   3.026   2.790  11.240
 6294SOL     OW19447   3.723   3.431  12.023
 6294SOL    HW119448   3.652   3.419  11.953
 6294SOL    HW219449   3.724   3.352  12.083
 6295SOL     OW19450   2.083   3.176  13.016
 6295SOL    HW119451   2.018   3.103  12.995
 6295SOL    HW219452   2.087   3.190  13.114
 6296SOL     OW19453   1.941   3.102  11.825
 6296SOL    HW119454   1.940   3.055  11.913
 6296SOL    HW219455   2.023   3.074  11.774
 6297SOL     OW19456   2.534   3.253  12.796
 6297SOL    HW119457   2.456   3.203  12.834
 6297SOL    HW219458   2.531   3.348  12.827
 6298SOL     OW19459   3.686   2.054  12.399
 6298SOL    HW119460   3.682   1.964  12.443
 6298SOL    HW219461   3.689   2.043  12.300
 6299SOL     OW19462   2.290   2.286  11.692
 6299SOL    HW119463   2.320   2.214  11.630
 6299SOL    HW219464   2.251   2.246  11.775
 6300SOL     OW19465   3.567   3.349  12.276
 6300SOL    HW119466   3.474   3.324  12.249
 6300SOL    HW219467   3.593   3.299  12.358
 6301SOL     OW19468   2.179   2.409  12.452
 6301SOL    HW119469   2.217   2.350  12.524
 6301SOL    HW219470   2.219   2.383  12.364
 6302SOL     OW19471   2.674   3.448  11.859
 6302SOL    HW119472   2.706   3.458  11.765
 6302SOL    HW219473   2.595   3.386  11.861
 6303SOL     OW19474   3.286   2.076  12.284
 6303SOL    HW119475   3.338   2.011  12.339
 6303SOL    HW219476   3.237   2.139  12.345
 6304SOL     OW19477   2.863   1.896  12.326
 6304SOL    HW119478   2.800   1.824  12.295
 6304SOL    HW219479   2.956   1.860  12.326
 6305SOL     OW19480   2.632   3.192  11.473
 6305SOL    HW119481   2.586   3.105  11.490
 6305SOL    HW219482   2.723   3.189  11.514
 6306SOL     OW19483   2.480   3.429  12.456
 6306SOL    HW119484   2.475   3.511  12.513
 6306SOL    HW219485   2.569   3.426  12.411
 6307SOL     OW19486   3.214   1.914  11.340
 6307SOL    HW119487   3.249   1.873  11.256
 6307SOL    HW219488   3.124   1.876  11.360
 6308SOL     OW19489   3.162   2.315  11.863
 6308SOL    HW119490   3.103   2.395  11.867
 6308SOL    HW219491   3.177   2.280  11.956
 6309SOL     OW19492   3.455   2.083  12.054
 6309SOL    HW119493   3.371   2.082  12.108
 6309SOL    HW219494   3.457   2.166  11.998
 6310SOL     OW19495   1.901   2.939  11.472
 6310SOL    HW119496   2.000   2.928  11.463
 6310SOL    HW219497   1.861   2.853  11.504
 6311SOL     OW19498   2.737   3.508  11.509
 6311SOL    HW119499   2.660   3.473  11.455
 6311SOL    HW219500   2.705   3.579  11.571
 6312SOL     OW19501   2.092   2.490  13.147
 6312SOL    HW119502   1.999   2.488  13.184
 6312SOL    HW219503   2.093   2.451  13.055
 6313SOL     OW19504   1.881   2.230  13.681
 6313SOL    HW119505   1.799   2.273  13.720
 6313SOL    HW219506   1.853   2.157  13.618
 6314SOL     OW19507   3.417   3.373  13.737
 6314SOL    HW119508   3.360   3.357  13.818
 6314SOL    HW219509   3.358   3.383  13.657
 6315SOL     OW19510   2.997   2.565  13.751
 6315SOL    HW119511   3.054   2.643  13.726
 6315SOL    HW219512   2.937   2.591  13.827
 6316SOL     OW19513   3.617   2.469  13.265
 6316SOL    HW119514   3.605   2.456  13.166
 6316SOL    HW219515   3.587   2.388  13.314
 6317SOL     OW19516   2.547   2.874  13.699
 6317SOL    HW119517   2.616   2.858  13.769
 6317SOL    HW219518   2.474   2.931  13.737
 6318SOL     OW19519   3.465   2.309  13.771
 6318SOL    HW119520   3.391   2.355  13.721
 6318SOL    HW219521   3.516   2.377  13.824
 6319SOL     OW19522   2.093   3.575  13.517
 6319SOL    HW119523   2.127   3.652  13.571
 6319SOL    HW219524   2.137   3.575  13.427
 6320SOL     OW19525   2.092   3.296  13.572
 6320SOL    HW119526   2.066   3.392  13.572
 6320SOL    HW219527   2.021   3.242  13.617
 6321SOL     OW19528   2.102   2.953  13.920
 6321SOL    HW119529   2.116   2.869  13.972
 6321SOL    HW219530   2.047   3.017  13.975
 6322SOL     OW19531   2.468   2.826  13.157
 6322SOL    HW119532   2.475   2.910  13.103
 6322SOL    HW219533   2.514   2.839  13.245
 6323SOL     OW19534   1.984   2.505  13.597
 6323SOL    HW119535   1.939   2.417  13.614
 6323SOL    HW219536   1.983   2.559  13.681
 6324SOL     OW19537   3.704   3.629  13.393
 6324SOL    HW119538   3.758   3.600  13.473
 6324SOL    HW219539   3.734   3.719  13.364
 6325SOL     OW19540   1.889   3.458  13.151
 6325SOL    HW119541   1.870   3.362  13.172
 6325SOL    HW219542   1.856   3.516  13.226
 6326SOL     OW19543   3.551   2.784  13.646
 6326SOL    HW119544   3.646   2.755  13.654
 6326SOL    HW219545   3.543   2.849  13.571
 6327SOL     OW19546   3.503   2.970  13.466
 6327SOL    HW119547   3.589   2.972  13.414
 6327SOL    HW219548   3.517   3.017  13.554
 6328SOL     OW19549   2.475   3.227  13.760
 6328SOL    HW119550   2.426   3.140  13.769
 6328SOL    HW219551   2.452   3.270  13.673
 6329SOL     OW19552   2.671   1.866  13.536
 6329SOL    HW119553   2.711   1.957  13.527
 6329SOL    HW219554   2.571   1.874  13.542
 6330SOL     OW19555   3.387   2.861  13.224
 6330SOL    HW119556   3.324   2.785  13.237
 6330SOL    HW219557   3.435   2.879  13.310
 6331SOL     OW19558   3.529   3.576  13.606
 6331SOL    HW119559   3.488   3.553  13.518
 6331SOL    HW219560   3.511   3.502  13.671
 6332SOL     OW19561   2.460   2.591  13.304
 6332SOL    HW119562   2.484   2.660  13.236
 6332SOL    HW219563   2.382   2.624  13.358
 6333SOL     OW19564   3.143   2.207  13.978
 6333SOL    HW119565   3.057   2.157  13.965
 6333SOL    HW219566   3.205   2.153  14.034
 6334SOL     OW19567   3.438   3.524  13.341
 6334SOL    HW119568   3.527   3.570  13.344
 6334SOL    HW219569   3.417   3.500  13.246
 6335SOL     OW19570   2.903   2.563  13.463
 6335SOL    HW119571   2.929   2.559  13.559
 6335SOL    HW219572   2.818   2.512  13.449
 6336SOL     OW19573   1.938   2.673  13.823
 6336SOL    HW119574   2.037   2.661  13.832
 6336SOL    HW219575   1.914   2.768  13.844
 6337SOL     OW19576   2.727   2.210  13.229
 6337SOL    HW119577   2.786   2.273  13.180
 6337SOL    HW219578   2.746   2.116  13.200
 6338SOL     OW19579   3.224   3.006  13.579
 6338SOL    HW119580   3.307   2.977  13.531
 6338SOL    HW219581   3.175   3.073  13.523
 6339SOL     OW19582   2.870   3.318  13.511
 6339SOL    HW119583   2.824   3.390  13.459
 6339SOL    HW219584   2.866   3.338  13.609
 6340SOL     OW19585   2.213   3.663  13.887
 6340SOL    HW119586   2.263   3.577  13.893
 6340SOL    HW219587   2.278   3.740  13.884
 6341SOL     OW19588   3.657   2.928  13.907
 6341SOL    HW119589   3.595   2.913  13.831
 6341SOL    HW219590   3.605   2.939  13.992
 6342SOL     OW19591   2.183   2.805  13.276
 6342SOL    HW119592   2.265   2.844  13.234
 6342SOL    HW219593   2.156   2.723  13.227
 6343SOL     OW19594   3.320   2.597  13.762
 6343SOL    HW119595   3.315   2.532  13.837
 6343SOL    HW219596   3.400   2.656  13.775
 6344SOL     OW19597   2.973   3.638  13.271
 6344SOL    HW119598   2.913   3.576  13.321
 6344SOL    HW219599   3.004   3.594  13.186
 6345SOL     OW19600   3.494   3.239  13.115
 6345SOL    HW119601   3.462   3.333  13.105
 6345SOL    HW219602   3.418   3.176  13.103
 6346SOL     OW19603   2.326   3.605  13.357
 6346SOL    HW119604   2.359   3.644  13.443
 6346SOL    HW219605   2.402   3.598  13.292
 6347SOL     OW19606   3.262   1.969  13.460
 6347SOL    HW119607   3.238   1.932  13.370
 6347SOL    HW219608   3.361   1.985  13.464
 6348SOL     OW19609   2.802   3.560  13.938
 6348SOL    HW119610   2.882   3.503  13.959
 6348SOL    HW219611   2.753   3.520  13.861
 6349SOL     OW19612   2.244   2.562  13.514
 6349SOL    HW119613   2.289   2.472  13.511
 6349SOL    HW219614   2.150   2.551  13.547
 6350SOL     OW19615   2.476   1.984  13.151
 6350SOL    HW119616   2.574   1.962  13.158
 6350SOL    HW219617   2.445   1.967  13.058
 6351SOL     OW19618   2.401   1.926  13.546
 6351SOL    HW119619   2.320   1.927  13.604
 6351SOL    HW219620   2.404   2.009  13.491
 6352SOL     OW19621   3.296   3.050  13.075
 6352SOL    HW119622   3.328   2.974  13.132
 6352SOL    HW219623   3.204   3.077  13.105
 6353SOL     OW19624   2.797   2.098  13.514
 6353SOL    HW119625   2.749   2.139  13.436
 6353SOL    HW219626   2.896   2.096  13.495
 6354SOL     OW19627   2.321   3.014  13.775
 6354SOL    HW119628   2.250   2.987  13.840
 6354SOL    HW219629   2.295   2.986  13.682
 6355SOL     OW19630   3.133   3.659  13.625
 6355SOL    HW119631   3.177   3.723  13.561
 6355SOL    HW219632   3.083   3.711  13.695
 6356SOL     OW19633   2.894   2.411  13.050
 6356SOL    HW119634   2.853   2.493  13.011
 6356SOL    HW219635   2.958   2.437  13.123
 6357SOL     OW19636   2.728   2.316  13.676
 6357SOL    HW119637   2.696   2.388  13.614
 6357SOL    HW219638   2.752   2.235  13.623
 6358SOL     OW19639   2.879   1.901  13.787
 6358SOL    HW119640   2.807   1.906  13.718
 6358SOL    HW219641   2.855   1.832  13.856
 6359SOL     OW19642   3.719   2.695  13.411
 6359SOL    HW119643   3.761   2.631  13.475
 6359SOL    HW219644   3.681   2.644  13.333
 6360SOL     OW19645   2.350   3.247  13.208
 6360SOL    HW119646   2.263   3.232  13.255
 6360SOL    HW219647   2.333   3.273  13.113
 6361SOL     OW19648   3.526   3.142  13.691
 6361SOL    HW119649   3.625   3.150  13.705
 6361SOL    HW219650   3.481   3.226  13.722
 6362SOL     OW19651   3.252   2.437  13.112
 6362SOL    HW119652   3.198   2.416  13.193
 6362SOL    HW219653   3.343   2.396  13.121
 6363SOL     OW19654   2.389   2.118  13.362
 6363SOL    HW119655   2.416   2.059  13.287
 6363SOL    HW219656   2.389   2.213  13.331
 6364SOL     OW19657   2.567   2.912  13.402
 6364SOL    HW119658   2.553   2.919  13.501
 6364SOL    HW219659   2.651   2.861  13.384
 6365SOL     OW19660   2.229   2.962  13.535
 6365SOL    HW119661   2.222   3.045  13.479
 6365SOL    HW219662   2.233   2.882  13.475
 6366SOL     OW19663   2.428   2.399  13.899
 6366SOL    HW119664   2.440   2.465  13.825
 6366SOL    HW219665   2.474   2.433  13.982
 6367SOL     OW19666   3.114   3.210  13.422
 6367SOL    HW119667   3.164   3.287  13.462
 6367SOL    HW219668   3.019   3.212  13.454
 6368SOL     OW19669   3.444   2.501  13.506
 6368SOL    HW119670   3.413   2.562  13.579
 6368SOL    HW219671   3.494   2.553  13.437
 6369SOL     OW19672   3.071   2.387  13.309
 6369SOL    HW119673   3.084   2.303  13.363
 6369SOL    HW219674   3.042   2.461  13.369
 6370SOL     OW19675   3.484   2.229  13.408
 6370SOL    HW119676   3.486   2.153  13.472
 6370SOL    HW219677   3.436   2.306  13.448
 6371SOL     OW19678   3.402   2.136  13.159
 6371SOL    HW119679   3.341   2.061  13.182
 6371SOL    HW219680   3.424   2.188  13.242
 6372SOL     OW19681   3.165   2.700  13.076
 6372SOL    HW119682   3.199   2.607  13.091
 6372SOL    HW219683   3.183   2.727  12.981
 6373SOL     OW19684   1.870   3.188  13.234
 6373SOL    HW119685   1.777   3.209  13.203
 6373SOL    HW219686   1.880   3.089  13.247
 6374SOL     OW19687   2.677   2.434  13.359
 6374SOL    HW119688   2.684   2.345  13.313
 6374SOL    HW219689   2.583   2.468  13.351
 6375SOL     OW19690   2.335   2.362  13.225
 6375SOL    HW119691   2.396   2.442  13.229
 6375SOL    HW219692   2.240   2.393  13.232
 6376SOL     OW19693   3.164   2.717  13.343
 6376SOL    HW119694   3.078   2.686  13.385
 6376SOL    HW219695   3.160   2.703  13.244
 6377SOL     OW19696   3.588   1.997  13.557
 6377SOL    HW119697   3.661   1.980  13.490
 6377SOL    HW219698   3.557   1.910  13.595
 6378SOL     OW19699   3.250   3.435  13.511
 6378SOL    HW119700   3.317   3.447  13.437
 6378SOL    HW219701   3.210   3.524  13.534
 6379SOL     OW19702   3.142   2.789  13.706
 6379SOL    HW119703   3.202   2.708  13.708
 6379SOL    HW219704   3.182   2.858  13.646
 6380SOL     OW19705   2.534   3.478  13.188
 6380SOL    HW119706   2.543   3.488  13.089
 6380SOL    HW219707   2.494   3.389  13.209
 6381SOL     OW19708   3.703   2.037  13.997
 6381SOL    HW119709   3.742   1.952  13.961
 6381SOL    HW219710   3.605   2.039  13.978
 6382SOL     OW19711   2.125   2.188  13.754
 6382SOL    HW119712   2.046   2.239  13.720
 6382SOL    HW219713   2.116   2.173  13.852
 6383SOL     OW19714   3.056   3.474  13.065
 6383SOL    HW119715   3.062   3.381  13.102
 6383SOL    HW219716   2.997   3.474  12.985
 6384SOL     OW19717   2.778   2.772  13.325
 6384SOL    HW119718   2.841   2.810  13.257
 6384SOL    HW219719   2.818   2.689  13.364
 6385SOL     OW19720   3.366   3.469  13.078
 6385SOL    HW119721   3.274   3.506  13.085
 6385SOL    HW219722   3.404   3.489  12.988
 6386SOL     OW19723   2.901   2.960  13.730
 6386SOL    HW119724   2.831   2.913  13.784
 6386SOL    HW219725   2.960   2.892  13.687
 6387SOL     OW19726   2.452   3.349  13.525
 6387SOL    HW119727   2.494   3.291  13.455
 6387SOL    HW219728   2.408   3.428  13.481
 6388SOL     OW19729   2.117   3.210  13.324
 6388SOL    HW119730   2.021   3.211  13.297
 6388SOL    HW219731   2.129   3.263  13.408
 6389SOL     OW19732   3.045   3.197  13.153
 6389SOL    HW119733   2.946   3.186  13.155
 6389SOL    HW219734   3.079   3.212  13.246
 6390SOL     OW19735   3.087   2.187  13.483
 6390SOL    HW119736   3.152   2.113  13.472
 6390SOL    HW219737   3.107   2.237  13.567
 6391SOL     OW19738   2.456   2.607  13.686
 6391SOL    HW119739   2.506   2.692  13.667
 6391SOL    HW219740   2.368   2.609  13.638
 6392SOL     OW19741   2.721   3.236  13.050
 6392SOL    HW119742   2.675   3.251  13.138
 6392SOL    HW219743   2.765   3.321  13.020
 6393SOL     OW19744   2.523   3.652  13.987
 6393SOL    HW119745   2.477   3.740  13.974
 6393SOL    HW219746   2.622   3.664  13.980
 6394SOL     OW19747   2.721   2.818  13.895
 6394SOL    HW119748   2.775   2.749  13.943
 6394SOL    HW219749   2.689   2.887  13.961
 6395SOL     OW19750   2.945   2.846  13.121
 6395SOL    HW119751   2.922   2.899  13.039
 6395SOL    HW219752   3.026   2.790  13.102
 6396SOL     OW19753   1.941   3.102  13.687
 6396SOL    HW119754   1.940   3.055  13.775
 6396SOL    HW219755   2.023   3.074  13.636
 6397SOL     OW19756   2.290   2.286  13.554
 6397SOL    HW119757   2.320   2.214  13.492
 6397SOL    HW219758   2.251   2.246  13.637
 6398SOL     OW19759   3.567   3.349  14.138
 6398SOL    HW119760   3.474   3.324  14.111
 6398SOL    HW219761   3.593   3.299  14.220
 6399SOL     OW19762   2.674   3.448  13.721
 6399SOL    HW119763   2.706   3.458  13.627
 6399SOL    HW219764   2.595   3.386  13.723
 6400SOL     OW19765   2.632   3.192  13.335
 6400SOL    HW119766   2.586   3.105  13.352
 6400SOL    HW219767   2.723   3.189  13.376
 6401SOL     OW19768   3.214   1.914  13.202
 6401SOL    HW119769   3.249   1.873  13.118
 6401SOL    HW219770   3.124   1.876  13.222
 6402SOL     OW19771   3.162   2.315  13.725
 6402SOL    HW119772   3.103   2.395  13.729
 6402SOL    HW219773   3.177   2.280  13.818
 6403SOL     OW19774   1.901   2.939  13.334
 6403SOL    HW119775   2.000   2.928  13.325
 6403SOL    HW219776   1.861   2.853  13.366
 6404SOL     OW19777   2.737   3.508  13.371
 6404SOL    HW119778   2.660   3.473  13.317
 6404SOL    HW219779   2.705   3.579  13.433
 6405SOL     OW19780   2.087   3.999   0.996
 6405SOL    HW119781   2.122   3.982   1.088
 6405SOL    HW219782   1.999   3.954   0.984
 6406SOL     OW19783   1.881   4.092   0.647
 6406SOL    HW119784   1.799   4.135   0.686
 6406SOL    HW219785   1.853   4.019   0.584
 6407SOL     OW19786   3.617   4.331   0.231
 6407SOL    HW119787   3.605   4.318   0.132
 6407SOL    HW219788   3.587   4.250   0.280
 6408SOL     OW19789   2.300   4.116   1.499
 6408SOL    HW119790   2.382   4.060   1.508
 6408SOL    HW219791   2.219   4.058   1.503
 6409SOL     OW19792   3.456   3.838   1.480
 6409SOL    HW119793   3.438   3.905   1.408
 6409SOL    HW219794   3.453   3.884   1.569
 6410SOL     OW19795   2.671   3.728   0.502
 6410SOL    HW119796   2.711   3.819   0.493
 6410SOL    HW219797   2.571   3.736   0.508
 6411SOL     OW19798   3.143   4.069   0.944
 6411SOL    HW119799   3.057   4.019   0.931
 6411SOL    HW219800   3.205   4.015   1.000
 6412SOL     OW19801   2.412   3.920   0.885
 6412SOL    HW119802   2.407   3.915   0.985
 6412SOL    HW219803   2.414   4.016   0.856
 6413SOL     OW19804   2.064   4.009   1.498
 6413SOL    HW119805   1.984   4.069   1.485
 6413SOL    HW219806   2.054   3.960   1.584
 6414SOL     OW19807   3.262   3.831   0.426
 6414SOL    HW119808   3.238   3.794   0.336
 6414SOL    HW219809   3.361   3.847   0.430
 6415SOL     OW19810   3.409   3.946   1.729
 6415SOL    HW119811   3.404   3.983   1.821
 6415SOL    HW219812   3.337   3.877   1.717
 6416SOL     OW19813   2.643   3.988   1.749
 6416SOL    HW119814   2.710   3.927   1.792
 6416SOL    HW219815   2.570   4.007   1.814
 6417SOL     OW19816   2.401   3.788   0.512
 6417SOL    HW119817   2.320   3.789   0.570
 6417SOL    HW219818   2.404   3.871   0.457
 6418SOL     OW19819   2.159   3.759   0.171
 6418SOL    HW119820   2.208   3.843   0.150
 6418SOL    HW219821   2.221   3.694   0.216
 6419SOL     OW19822   2.423   3.946   1.147
 6419SOL    HW119823   2.461   3.862   1.184
 6419SOL    HW219824   2.335   3.965   1.191
 6420SOL     OW19825   2.879   3.763   0.753
 6420SOL    HW119826   2.807   3.768   0.684
 6420SOL    HW219827   2.855   3.694   0.822
 6421SOL     OW19828   2.777   3.813   1.402
 6421SOL    HW119829   2.802   3.793   1.307
 6421SOL    HW219830   2.849   3.869   1.444
 6422SOL     OW19831   3.136   4.110   1.262
 6422SOL    HW119832   3.157   4.184   1.326
 6422SOL    HW219833   3.047   4.127   1.219
 6423SOL     OW19834   2.366   3.774   1.740
 6423SOL    HW119835   2.324   3.717   1.670
 6423SOL    HW219836   2.300   3.843   1.772
 6424SOL     OW19837   2.169   3.937   1.231
 6424SOL    HW119838   2.146   3.974   1.321
 6424SOL    HW219839   2.139   3.842   1.225
 6425SOL     OW19840   3.402   3.998   0.125
 6425SOL    HW119841   3.341   3.923   0.148
 6425SOL    HW219842   3.424   4.050   0.208
 6426SOL     OW19843   3.022   3.931   1.477
 6426SOL    HW119844   3.022   3.995   1.554
 6426SOL    HW219845   3.050   3.979   1.394
 6427SOL     OW19846   2.765   3.810   0.133
 6427SOL    HW119847   2.816   3.811   0.047
 6427SOL    HW219848   2.821   3.768   0.204
 6428SOL     OW19849   3.588   3.859   0.523
 6428SOL    HW119850   3.661   3.842   0.456
 6428SOL    HW219851   3.557   3.772   0.561
 6429SOL     OW19852   3.703   3.899   0.963
 6429SOL    HW119853   3.742   3.814   0.927
 6429SOL    HW219854   3.605   3.901   0.944
 6430SOL     OW19855   2.534   3.927   1.489
 6430SOL    HW119856   2.624   3.911   1.449
 6430SOL    HW219857   2.542   3.932   1.588
 6431SOL     OW19858   1.934   3.890   0.318
 6431SOL    HW119859   1.917   3.973   0.264
 6431SOL    HW219860   2.024   3.853   0.296
 6432SOL     OW19861   3.087   4.049   0.449
 6432SOL    HW119862   3.152   3.975   0.438
 6432SOL    HW219863   3.107   4.099   0.533
 6433SOL     OW19864   3.639   4.066   1.642
 6433SOL    HW119865   3.622   4.097   1.548
 6433SOL    HW219866   3.555   4.029   1.680
 6434SOL     OW19867   3.686   3.916   1.227
 6434SOL    HW119868   3.682   3.826   1.271
 6434SOL    HW219869   3.689   3.905   1.128
 6435SOL     OW19870   3.286   3.938   1.112
 6435SOL    HW119871   3.338   3.873   1.167
 6435SOL    HW219872   3.237   4.001   1.173
 6436SOL     OW19873   2.863   3.758   1.154
 6436SOL    HW119874   2.800   3.686   1.123
 6436SOL    HW219875   2.956   3.722   1.154
 6437SOL     OW19876   3.214   3.776   0.168
 6437SOL    HW119877   3.249   3.735   0.084
 6437SOL    HW219878   3.124   3.738   0.188
 6438SOL     OW19879   3.162   4.177   0.691
 6438SOL    HW119880   3.103   4.257   0.695
 6438SOL    HW219881   3.177   4.142   0.784
 6439SOL     OW19882   3.455   3.945   0.882
 6439SOL    HW119883   3.371   3.944   0.936
 6439SOL    HW219884   3.457   4.028   0.826
 6440SOL     OW19885   2.087   3.999   2.858
 6440SOL    HW119886   2.122   3.982   2.950
 6440SOL    HW219887   1.999   3.954   2.846
 6441SOL     OW19888   1.881   4.092   2.509
 6441SOL    HW119889   1.799   4.135   2.548
 6441SOL    HW219890   1.853   4.019   2.446
 6442SOL     OW19891   3.617   4.331   2.093
 6442SOL    HW119892   3.605   4.318   1.994
 6442SOL    HW219893   3.587   4.250   2.142
 6443SOL     OW19894   2.300   4.116   3.361
 6443SOL    HW119895   2.382   4.060   3.370
 6443SOL    HW219896   2.219   4.058   3.365
 6444SOL     OW19897   3.456   3.838   3.342
 6444SOL    HW119898   3.438   3.905   3.270
 6444SOL    HW219899   3.453   3.884   3.431
 6445SOL     OW19900   2.671   3.728   2.364
 6445SOL    HW119901   2.711   3.819   2.355
 6445SOL    HW219902   2.571   3.736   2.370
 6446SOL     OW19903   3.143   4.069   2.806
 6446SOL    HW119904   3.057   4.019   2.793
 6446SOL    HW219905   3.205   4.015   2.862
 6447SOL     OW19906   2.412   3.920   2.747
 6447SOL    HW119907   2.407   3.915   2.847
 6447SOL    HW219908   2.414   4.016   2.718
 6448SOL     OW19909   2.064   4.009   3.360
 6448SOL    HW119910   1.984   4.069   3.347
 6448SOL    HW219911   2.054   3.960   3.446
 6449SOL     OW19912   3.262   3.831   2.288
 6449SOL    HW119913   3.238   3.794   2.198
 6449SOL    HW219914   3.361   3.847   2.292
 6450SOL     OW19915   3.409   3.946   3.591
 6450SOL    HW119916   3.404   3.983   3.683
 6450SOL    HW219917   3.337   3.877   3.579
 6451SOL     OW19918   2.476   3.846   1.979
 6451SOL    HW119919   2.574   3.824   1.986
 6451SOL    HW219920   2.445   3.829   1.886
 6452SOL     OW19921   2.643   3.988   3.611
 6452SOL    HW119922   2.710   3.927   3.654
 6452SOL    HW219923   2.570   4.007   3.676
 6453SOL     OW19924   2.401   3.788   2.374
 6453SOL    HW119925   2.320   3.789   2.432
 6453SOL    HW219926   2.404   3.871   2.319
 6454SOL     OW19927   2.159   3.759   2.033
 6454SOL    HW119928   2.208   3.843   2.012
 6454SOL    HW219929   2.221   3.694   2.078
 6455SOL     OW19930   2.423   3.946   3.009
 6455SOL    HW119931   2.461   3.862   3.046
 6455SOL    HW219932   2.335   3.965   3.053
 6456SOL     OW19933   2.879   3.763   2.615
 6456SOL    HW119934   2.807   3.768   2.546
 6456SOL    HW219935   2.855   3.694   2.684
 6457SOL     OW19936   2.777   3.813   3.264
 6457SOL    HW119937   2.802   3.793   3.169
 6457SOL    HW219938   2.849   3.869   3.306
 6458SOL     OW19939   3.136   4.110   3.124
 6458SOL    HW119940   3.157   4.184   3.188
 6458SOL    HW219941   3.047   4.127   3.081
 6459SOL     OW19942   2.366   3.774   3.602
 6459SOL    HW119943   2.324   3.717   3.532
 6459SOL    HW219944   2.300   3.843   3.634
 6460SOL     OW19945   2.169   3.937   3.093
 6460SOL    HW119946   2.146   3.974   3.183
 6460SOL    HW219947   2.139   3.842   3.087
 6461SOL     OW19948   3.402   3.998   1.987
 6461SOL    HW119949   3.341   3.923   2.010
 6461SOL    HW219950   3.424   4.050   2.070
 6462SOL     OW19951   3.022   3.931   3.339
 6462SOL    HW119952   3.022   3.995   3.416
 6462SOL    HW219953   3.050   3.979   3.256
 6463SOL     OW19954   2.765   3.810   1.995
 6463SOL    HW119955   2.816   3.811   1.909
 6463SOL    HW219956   2.821   3.768   2.066
 6464SOL     OW19957   3.588   3.859   2.385
 6464SOL    HW119958   3.661   3.842   2.318
 6464SOL    HW219959   3.557   3.772   2.423
 6465SOL     OW19960   3.703   3.899   2.825
 6465SOL    HW119961   3.742   3.814   2.789
 6465SOL    HW219962   3.605   3.901   2.806
 6466SOL     OW19963   2.534   3.927   3.351
 6466SOL    HW119964   2.624   3.911   3.311
 6466SOL    HW219965   2.542   3.932   3.450
 6467SOL     OW19966   1.937   4.069   1.895
 6467SOL    HW119967   1.845   4.041   1.866
 6467SOL    HW219968   1.968   4.146   1.839
 6468SOL     OW19969   1.934   3.890   2.180
 6468SOL    HW119970   1.917   3.973   2.126
 6468SOL    HW219971   2.024   3.853   2.158
 6469SOL     OW19972   3.087   4.049   2.311
 6469SOL    HW119973   3.152   3.975   2.300
 6469SOL    HW219974   3.107   4.099   2.395
 6470SOL     OW19975   3.639   4.066   3.504
 6470SOL    HW119976   3.622   4.097   3.410
 6470SOL    HW219977   3.555   4.029   3.542
 6471SOL     OW19978   3.686   3.916   3.089
 6471SOL    HW119979   3.682   3.826   3.133
 6471SOL    HW219980   3.689   3.905   2.990
 6472SOL     OW19981   3.286   3.938   2.974
 6472SOL    HW119982   3.338   3.873   3.029
 6472SOL    HW219983   3.237   4.001   3.035
 6473SOL     OW19984   2.863   3.758   3.016
 6473SOL    HW119985   2.800   3.686   2.985
 6473SOL    HW219986   2.956   3.722   3.016
 6474SOL     OW19987   3.214   3.776   2.030
 6474SOL    HW119988   3.249   3.735   1.946
 6474SOL    HW219989   3.124   3.738   2.050
 6475SOL     OW19990   3.162   4.177   2.553
 6475SOL    HW119991   3.103   4.257   2.557
 6475SOL    HW219992   3.177   4.142   2.646
 6476SOL     OW19993   3.455   3.945   2.744
 6476SOL    HW119994   3.371   3.944   2.798
 6476SOL    HW219995   3.457   4.028   2.688
 6477SOL     OW19996   2.087   3.999   4.720
 6477SOL    HW119997   2.122   3.982   4.812
 6477SOL    HW219998   1.999   3.954   4.708
 6478SOL     OW19999   1.881   4.092   4.371
 6478SOL    HW120000   1.799   4.135   4.410
 6478SOL    HW220001   1.853   4.019   4.308
 6479SOL     OW20002   3.617   4.331   3.955
 6479SOL    HW120003   3.605   4.318   3.856
 6479SOL    HW220004   3.587   4.250   4.004
 6480SOL     OW20005   2.300   4.116   5.223
 6480SOL    HW120006   2.382   4.060   5.232
 6480SOL    HW220007   2.219   4.058   5.227
 6481SOL     OW20008   3.456   3.838   5.204
 6481SOL    HW120009   3.438   3.905   5.132
 6481SOL    HW220010   3.453   3.884   5.293
 6482SOL     OW20011   2.671   3.728   4.226
 6482SOL    HW120012   2.711   3.819   4.217
 6482SOL    HW220013   2.571   3.736   4.232
 6483SOL     OW20014   3.143   4.069   4.668
 6483SOL    HW120015   3.057   4.019   4.655
 6483SOL    HW220016   3.205   4.015   4.724
 6484SOL     OW20017   2.412   3.920   4.609
 6484SOL    HW120018   2.407   3.915   4.709
 6484SOL    HW220019   2.414   4.016   4.580
 6485SOL     OW20020   2.064   4.009   5.222
 6485SOL    HW120021   1.984   4.069   5.209
 6485SOL    HW220022   2.054   3.960   5.308
 6486SOL     OW20023   3.262   3.831   4.150
 6486SOL    HW120024   3.238   3.794   4.060
 6486SOL    HW220025   3.361   3.847   4.154
 6487SOL     OW20026   3.409   3.946   5.453
 6487SOL    HW120027   3.404   3.983   5.545
 6487SOL    HW220028   3.337   3.877   5.441
 6488SOL     OW20029   2.476   3.846   3.841
 6488SOL    HW120030   2.574   3.824   3.848
 6488SOL    HW220031   2.445   3.829   3.748
 6489SOL     OW20032   2.643   3.988   5.473
 6489SOL    HW120033   2.710   3.927   5.516
 6489SOL    HW220034   2.570   4.007   5.538
 6490SOL     OW20035   2.401   3.788   4.236
 6490SOL    HW120036   2.320   3.789   4.294
 6490SOL    HW220037   2.404   3.871   4.181
 6491SOL     OW20038   2.159   3.759   3.895
 6491SOL    HW120039   2.208   3.843   3.874
 6491SOL    HW220040   2.221   3.694   3.940
 6492SOL     OW20041   2.423   3.946   4.871
 6492SOL    HW120042   2.461   3.862   4.908
 6492SOL    HW220043   2.335   3.965   4.915
 6493SOL     OW20044   2.879   3.763   4.477
 6493SOL    HW120045   2.807   3.768   4.408
 6493SOL    HW220046   2.855   3.694   4.546
 6494SOL     OW20047   2.777   3.813   5.126
 6494SOL    HW120048   2.802   3.793   5.031
 6494SOL    HW220049   2.849   3.869   5.168
 6495SOL     OW20050   3.136   4.110   4.986
 6495SOL    HW120051   3.157   4.184   5.050
 6495SOL    HW220052   3.047   4.127   4.943
 6496SOL     OW20053   2.366   3.774   5.464
 6496SOL    HW120054   2.324   3.717   5.394
 6496SOL    HW220055   2.300   3.843   5.496
 6497SOL     OW20056   2.169   3.937   4.955
 6497SOL    HW120057   2.146   3.974   5.045
 6497SOL    HW220058   2.139   3.842   4.949
 6498SOL     OW20059   3.402   3.998   3.849
 6498SOL    HW120060   3.341   3.923   3.872
 6498SOL    HW220061   3.424   4.050   3.932
 6499SOL     OW20062   3.022   3.931   5.201
 6499SOL    HW120063   3.022   3.995   5.278
 6499SOL    HW220064   3.050   3.979   5.118
 6500SOL     OW20065   2.765   3.810   3.857
 6500SOL    HW120066   2.816   3.811   3.771
 6500SOL    HW220067   2.821   3.768   3.928
 6501SOL     OW20068   3.588   3.859   4.247
 6501SOL    HW120069   3.661   3.842   4.180
 6501SOL    HW220070   3.557   3.772   4.285
 6502SOL     OW20071   3.703   3.899   4.687
 6502SOL    HW120072   3.742   3.814   4.651
 6502SOL    HW220073   3.605   3.901   4.668
 6503SOL     OW20074   2.534   3.927   5.213
 6503SOL    HW120075   2.624   3.911   5.173
 6503SOL    HW220076   2.542   3.932   5.312
 6504SOL     OW20077   1.937   4.069   3.757
 6504SOL    HW120078   1.845   4.041   3.728
 6504SOL    HW220079   1.968   4.146   3.701
 6505SOL     OW20080   1.934   3.890   4.042
 6505SOL    HW120081   1.917   3.973   3.988
 6505SOL    HW220082   2.024   3.853   4.020
 6506SOL     OW20083   3.087   4.049   4.173
 6506SOL    HW120084   3.152   3.975   4.162
 6506SOL    HW220085   3.107   4.099   4.257
 6507SOL     OW20086   3.639   4.066   5.366
 6507SOL    HW120087   3.622   4.097   5.272
 6507SOL    HW220088   3.555   4.029   5.404
 6508SOL     OW20089   3.686   3.916   4.951
 6508SOL    HW120090   3.682   3.826   4.995
 6508SOL    HW220091   3.689   3.905   4.852
 6509SOL     OW20092   3.286   3.938   4.836
 6509SOL    HW120093   3.338   3.873   4.891
 6509SOL    HW220094   3.237   4.001   4.897
 6510SOL     OW20095   2.863   3.758   4.878
 6510SOL    HW120096   2.800   3.686   4.847
 6510SOL    HW220097   2.956   3.722   4.878
 6511SOL     OW20098   3.214   3.776   3.892
 6511SOL    HW120099   3.249   3.735   3.808
 6511SOL    HW220100   3.124   3.738   3.912
 6512SOL     OW20101   3.162   4.177   4.415
 6512SOL    HW120102   3.103   4.257   4.419
 6512SOL    HW220103   3.177   4.142   4.508
 6513SOL     OW20104   3.455   3.945   4.606
 6513SOL    HW120105   3.371   3.944   4.660
 6513SOL    HW220106   3.457   4.028   4.550
 6514SOL     OW20107   2.087   3.999   6.582
 6514SOL    HW120108   2.122   3.982   6.674
 6514SOL    HW220109   1.999   3.954   6.570
 6515SOL     OW20110   1.881   4.092   6.233
 6515SOL    HW120111   1.799   4.135   6.272
 6515SOL    HW220112   1.853   4.019   6.170
 6516SOL     OW20113   3.617   4.331   5.817
 6516SOL    HW120114   3.605   4.318   5.718
 6516SOL    HW220115   3.587   4.250   5.866
 6517SOL     OW20116   2.300   4.116   7.085
 6517SOL    HW120117   2.382   4.060   7.094
 6517SOL    HW220118   2.219   4.058   7.089
 6518SOL     OW20119   3.456   3.838   7.066
 6518SOL    HW120120   3.438   3.905   6.994
 6518SOL    HW220121   3.453   3.884   7.155
 6519SOL     OW20122   2.671   3.728   6.088
 6519SOL    HW120123   2.711   3.819   6.079
 6519SOL    HW220124   2.571   3.736   6.094
 6520SOL     OW20125   3.143   4.069   6.530
 6520SOL    HW120126   3.057   4.019   6.517
 6520SOL    HW220127   3.205   4.015   6.586
 6521SOL     OW20128   2.412   3.920   6.471
 6521SOL    HW120129   2.407   3.915   6.571
 6521SOL    HW220130   2.414   4.016   6.442
 6522SOL     OW20131   2.064   4.009   7.084
 6522SOL    HW120132   1.984   4.069   7.071
 6522SOL    HW220133   2.054   3.960   7.170
 6523SOL     OW20134   3.262   3.831   6.012
 6523SOL    HW120135   3.238   3.794   5.922
 6523SOL    HW220136   3.361   3.847   6.016
 6524SOL     OW20137   3.409   3.946   7.315
 6524SOL    HW120138   3.404   3.983   7.407
 6524SOL    HW220139   3.337   3.877   7.303
 6525SOL     OW20140   2.476   3.846   5.703
 6525SOL    HW120141   2.574   3.824   5.710
 6525SOL    HW220142   2.445   3.829   5.610
 6526SOL     OW20143   2.643   3.988   7.335
 6526SOL    HW120144   2.710   3.927   7.378
 6526SOL    HW220145   2.570   4.007   7.400
 6527SOL     OW20146   2.401   3.788   6.098
 6527SOL    HW120147   2.320   3.789   6.156
 6527SOL    HW220148   2.404   3.871   6.043
 6528SOL     OW20149   2.159   3.759   5.757
 6528SOL    HW120150   2.208   3.843   5.736
 6528SOL    HW220151   2.221   3.694   5.802
 6529SOL     OW20152   2.423   3.946   6.733
 6529SOL    HW120153   2.461   3.862   6.770
 6529SOL    HW220154   2.335   3.965   6.777
 6530SOL     OW20155   2.879   3.763   6.339
 6530SOL    HW120156   2.807   3.768   6.270
 6530SOL    HW220157   2.855   3.694   6.408
 6531SOL     OW20158   2.777   3.813   6.988
 6531SOL    HW120159   2.802   3.793   6.893
 6531SOL    HW220160   2.849   3.869   7.030
 6532SOL     OW20161   3.136   4.110   6.848
 6532SOL    HW120162   3.157   4.184   6.912
 6532SOL    HW220163   3.047   4.127   6.805
 6533SOL     OW20164   2.366   3.774   7.326
 6533SOL    HW120165   2.324   3.717   7.256
 6533SOL    HW220166   2.300   3.843   7.358
 6534SOL     OW20167   2.169   3.937   6.817
 6534SOL    HW120168   2.146   3.974   6.907
 6534SOL    HW220169   2.139   3.842   6.811
 6535SOL     OW20170   3.402   3.998   5.711
 6535SOL    HW120171   3.341   3.923   5.734
 6535SOL    HW220172   3.424   4.050   5.794
 6536SOL     OW20173   3.022   3.931   7.063
 6536SOL    HW120174   3.022   3.995   7.140
 6536SOL    HW220175   3.050   3.979   6.980
 6537SOL     OW20176   2.765   3.810   5.719
 6537SOL    HW120177   2.816   3.811   5.633
 6537SOL    HW220178   2.821   3.768   5.790
 6538SOL     OW20179   3.588   3.859   6.109
 6538SOL    HW120180   3.661   3.842   6.042
 6538SOL    HW220181   3.557   3.772   6.147
 6539SOL     OW20182   3.703   3.899   6.549
 6539SOL    HW120183   3.742   3.814   6.513
 6539SOL    HW220184   3.605   3.901   6.530
 6540SOL     OW20185   2.534   3.927   7.075
 6540SOL    HW120186   2.624   3.911   7.035
 6540SOL    HW220187   2.542   3.932   7.174
 6541SOL     OW20188   1.937   4.069   5.619
 6541SOL    HW120189   1.845   4.041   5.590
 6541SOL    HW220190   1.968   4.146   5.563
 6542SOL     OW20191   1.934   3.890   5.904
 6542SOL    HW120192   1.917   3.973   5.850
 6542SOL    HW220193   2.024   3.853   5.882
 6543SOL     OW20194   3.087   4.049   6.035
 6543SOL    HW120195   3.152   3.975   6.024
 6543SOL    HW220196   3.107   4.099   6.119
 6544SOL     OW20197   3.639   4.066   7.228
 6544SOL    HW120198   3.622   4.097   7.134
 6544SOL    HW220199   3.555   4.029   7.266
 6545SOL     OW20200   3.686   3.916   6.813
 6545SOL    HW120201   3.682   3.826   6.857
 6545SOL    HW220202   3.689   3.905   6.714
 6546SOL     OW20203   3.286   3.938   6.698
 6546SOL    HW120204   3.338   3.873   6.753
 6546SOL    HW220205   3.237   4.001   6.759
 6547SOL     OW20206   2.863   3.758   6.740
 6547SOL    HW120207   2.800   3.686   6.709
 6547SOL    HW220208   2.956   3.722   6.740
 6548SOL     OW20209   3.214   3.776   5.754
 6548SOL    HW120210   3.249   3.735   5.670
 6548SOL    HW220211   3.124   3.738   5.774
 6549SOL     OW20212   3.162   4.177   6.277
 6549SOL    HW120213   3.103   4.257   6.281
 6549SOL    HW220214   3.177   4.142   6.370
 6550SOL     OW20215   3.455   3.945   6.468
 6550SOL    HW120216   3.371   3.944   6.522
 6550SOL    HW220217   3.457   4.028   6.412
 6551SOL     OW20218   2.087   3.999   8.444
 6551SOL    HW120219   2.122   3.982   8.536
 6551SOL    HW220220   1.999   3.954   8.432
 6552SOL     OW20221   1.881   4.092   8.095
 6552SOL    HW120222   1.799   4.135   8.134
 6552SOL    HW220223   1.853   4.019   8.032
 6553SOL     OW20224   3.617   4.331   7.679
 6553SOL    HW120225   3.605   4.318   7.580
 6553SOL    HW220226   3.587   4.250   7.728
 6554SOL     OW20227   2.300   4.116   8.947
 6554SOL    HW120228   2.382   4.060   8.956
 6554SOL    HW220229   2.219   4.058   8.951
 6555SOL     OW20230   3.456   3.838   8.928
 6555SOL    HW120231   3.438   3.905   8.856
 6555SOL    HW220232   3.453   3.884   9.017
 6556SOL     OW20233   2.671   3.728   7.950
 6556SOL    HW120234   2.711   3.819   7.941
 6556SOL    HW220235   2.571   3.736   7.956
 6557SOL     OW20236   3.143   4.069   8.392
 6557SOL    HW120237   3.057   4.019   8.379
 6557SOL    HW220238   3.205   4.015   8.448
 6558SOL     OW20239   2.412   3.920   8.333
 6558SOL    HW120240   2.407   3.915   8.433
 6558SOL    HW220241   2.414   4.016   8.304
 6559SOL     OW20242   2.064   4.009   8.946
 6559SOL    HW120243   1.984   4.069   8.933
 6559SOL    HW220244   2.054   3.960   9.032
 6560SOL     OW20245   3.262   3.831   7.874
 6560SOL    HW120246   3.238   3.794   7.784
 6560SOL    HW220247   3.361   3.847   7.878
 6561SOL     OW20248   3.409   3.946   9.177
 6561SOL    HW120249   3.404   3.983   9.269
 6561SOL    HW220250   3.337   3.877   9.165
 6562SOL     OW20251   2.476   3.846   7.565
 6562SOL    HW120252   2.574   3.824   7.572
 6562SOL    HW220253   2.445   3.829   7.472
 6563SOL     OW20254   2.643   3.988   9.197
 6563SOL    HW120255   2.710   3.927   9.240
 6563SOL    HW220256   2.570   4.007   9.262
 6564SOL     OW20257   2.401   3.788   7.960
 6564SOL    HW120258   2.320   3.789   8.018
 6564SOL    HW220259   2.404   3.871   7.905
 6565SOL     OW20260   2.159   3.759   7.619
 6565SOL    HW120261   2.208   3.843   7.598
 6565SOL    HW220262   2.221   3.694   7.664
 6566SOL     OW20263   2.423   3.946   8.595
 6566SOL    HW120264   2.461   3.862   8.632
 6566SOL    HW220265   2.335   3.965   8.639
 6567SOL     OW20266   2.879   3.763   8.201
 6567SOL    HW120267   2.807   3.768   8.132
 6567SOL    HW220268   2.855   3.694   8.270
 6568SOL     OW20269   2.777   3.813   8.850
 6568SOL    HW120270   2.802   3.793   8.755
 6568SOL    HW220271   2.849   3.869   8.892
 6569SOL     OW20272   3.136   4.110   8.710
 6569SOL    HW120273   3.157   4.184   8.774
 6569SOL    HW220274   3.047   4.127   8.667
 6570SOL     OW20275   2.366   3.774   9.188
 6570SOL    HW120276   2.324   3.717   9.118
 6570SOL    HW220277   2.300   3.843   9.220
 6571SOL     OW20278   2.169   3.937   8.679
 6571SOL    HW120279   2.146   3.974   8.769
 6571SOL    HW220280   2.139   3.842   8.673
 6572SOL     OW20281   3.402   3.998   7.573
 6572SOL    HW120282   3.341   3.923   7.596
 6572SOL    HW220283   3.424   4.050   7.656
 6573SOL     OW20284   3.022   3.931   8.925
 6573SOL    HW120285   3.022   3.995   9.002
 6573SOL    HW220286   3.050   3.979   8.842
 6574SOL     OW20287   2.765   3.810   7.581
 6574SOL    HW120288   2.816   3.811   7.495
 6574SOL    HW220289   2.821   3.768   7.652
 6575SOL     OW20290   3.588   3.859   7.971
 6575SOL    HW120291   3.661   3.842   7.904
 6575SOL    HW220292   3.557   3.772   8.009
 6576SOL     OW20293   3.703   3.899   8.411
 6576SOL    HW120294   3.742   3.814   8.375
 6576SOL    HW220295   3.605   3.901   8.392
 6577SOL     OW20296   2.534   3.927   8.937
 6577SOL    HW120297   2.624   3.911   8.897
 6577SOL    HW220298   2.542   3.932   9.036
 6578SOL     OW20299   1.937   4.069   7.481
 6578SOL    HW120300   1.845   4.041   7.452
 6578SOL    HW220301   1.968   4.146   7.425
 6579SOL     OW20302   1.934   3.890   7.766
 6579SOL    HW120303   1.917   3.973   7.712
 6579SOL    HW220304   2.024   3.853   7.744
 6580SOL     OW20305   3.087   4.049   7.897
 6580SOL    HW120306   3.152   3.975   7.886
 6580SOL    HW220307   3.107   4.099   7.981
 6581SOL     OW20308   3.639   4.066   9.090
 6581SOL    HW120309   3.622   4.097   8.996
 6581SOL    HW220310   3.555   4.029   9.128
 6582SOL     OW20311   3.686   3.916   8.675
 6582SOL    HW120312   3.682   3.826   8.719
 6582SOL    HW220313   3.689   3.905   8.576
 6583SOL     OW20314   3.286   3.938   8.560
 6583SOL    HW120315   3.338   3.873   8.615
 6583SOL    HW220316   3.237   4.001   8.621
 6584SOL     OW20317   2.863   3.758   8.602
 6584SOL    HW120318   2.800   3.686   8.571
 6584SOL    HW220319   2.956   3.722   8.602
 6585SOL     OW20320   3.214   3.776   7.616
 6585SOL    HW120321   3.249   3.735   7.532
 6585SOL    HW220322   3.124   3.738   7.636
 6586SOL     OW20323   3.162   4.177   8.139
 6586SOL    HW120324   3.103   4.257   8.143
 6586SOL    HW220325   3.177   4.142   8.232
 6587SOL     OW20326   3.455   3.945   8.330
 6587SOL    HW120327   3.371   3.944   8.384
 6587SOL    HW220328   3.457   4.028   8.274
 6588SOL     OW20329   2.087   3.999  10.306
 6588SOL    HW120330   2.122   3.982  10.398
 6588SOL    HW220331   1.999   3.954  10.294
 6589SOL     OW20332   1.881   4.092   9.957
 6589SOL    HW120333   1.799   4.135   9.996
 6589SOL    HW220334   1.853   4.019   9.894
 6590SOL     OW20335   3.617   4.331   9.541
 6590SOL    HW120336   3.605   4.318   9.442
 6590SOL    HW220337   3.587   4.250   9.590
 6591SOL     OW20338   2.300   4.116  10.809
 6591SOL    HW120339   2.382   4.060  10.818
 6591SOL    HW220340   2.219   4.058  10.813
 6592SOL     OW20341   3.456   3.838  10.790
 6592SOL    HW120342   3.438   3.905  10.718
 6592SOL    HW220343   3.453   3.884  10.879
 6593SOL     OW20344   2.671   3.728   9.812
 6593SOL    HW120345   2.711   3.819   9.803
 6593SOL    HW220346   2.571   3.736   9.818
 6594SOL     OW20347   3.143   4.069  10.254
 6594SOL    HW120348   3.057   4.019  10.241
 6594SOL    HW220349   3.205   4.015  10.310
 6595SOL     OW20350   2.412   3.920  10.195
 6595SOL    HW120351   2.407   3.915  10.295
 6595SOL    HW220352   2.414   4.016  10.166
 6596SOL     OW20353   2.064   4.009  10.808
 6596SOL    HW120354   1.984   4.069  10.795
 6596SOL    HW220355   2.054   3.960  10.894
 6597SOL     OW20356   3.262   3.831   9.736
 6597SOL    HW120357   3.238   3.794   9.646
 6597SOL    HW220358   3.361   3.847   9.740
 6598SOL     OW20359   3.409   3.946  11.039
 6598SOL    HW120360   3.404   3.983  11.131
 6598SOL    HW220361   3.337   3.877  11.027
 6599SOL     OW20362   2.476   3.846   9.427
 6599SOL    HW120363   2.574   3.824   9.434
 6599SOL    HW220364   2.445   3.829   9.334
 6600SOL     OW20365   2.643   3.988  11.059
 6600SOL    HW120366   2.710   3.927  11.102
 6600SOL    HW220367   2.570   4.007  11.124
 6601SOL     OW20368   2.401   3.788   9.822
 6601SOL    HW120369   2.320   3.789   9.880
 6601SOL    HW220370   2.404   3.871   9.767
 6602SOL     OW20371   2.159   3.759   9.481
 6602SOL    HW120372   2.208   3.843   9.460
 6602SOL    HW220373   2.221   3.694   9.526
 6603SOL     OW20374   2.423   3.946  10.457
 6603SOL    HW120375   2.461   3.862  10.494
 6603SOL    HW220376   2.335   3.965  10.501
 6604SOL     OW20377   2.879   3.763  10.063
 6604SOL    HW120378   2.807   3.768   9.994
 6604SOL    HW220379   2.855   3.694  10.132
 6605SOL     OW20380   2.777   3.813  10.712
 6605SOL    HW120381   2.802   3.793  10.617
 6605SOL    HW220382   2.849   3.869  10.754
 6606SOL     OW20383   3.136   4.110  10.572
 6606SOL    HW120384   3.157   4.184  10.636
 6606SOL    HW220385   3.047   4.127  10.529
 6607SOL     OW20386   2.366   3.774  11.050
 6607SOL    HW120387   2.324   3.717  10.980
 6607SOL    HW220388   2.300   3.843  11.082
 6608SOL     OW20389   2.169   3.937  10.541
 6608SOL    HW120390   2.146   3.974  10.631
 6608SOL    HW220391   2.139   3.842  10.535
 6609SOL     OW20392   3.402   3.998   9.435
 6609SOL    HW120393   3.341   3.923   9.458
 6609SOL    HW220394   3.424   4.050   9.518
 6610SOL     OW20395   3.022   3.931  10.787
 6610SOL    HW120396   3.022   3.995  10.864
 6610SOL    HW220397   3.050   3.979  10.704
 6611SOL     OW20398   2.765   3.810   9.443
 6611SOL    HW120399   2.816   3.811   9.357
 6611SOL    HW220400   2.821   3.768   9.514
 6612SOL     OW20401   3.588   3.859   9.833
 6612SOL    HW120402   3.661   3.842   9.766
 6612SOL    HW220403   3.557   3.772   9.871
 6613SOL     OW20404   3.703   3.899  10.273
 6613SOL    HW120405   3.742   3.814  10.237
 6613SOL    HW220406   3.605   3.901  10.254
 6614SOL     OW20407   2.534   3.927  10.799
 6614SOL    HW120408   2.624   3.911  10.759
 6614SOL    HW220409   2.542   3.932  10.898
 6615SOL     OW20410   1.937   4.069   9.343
 6615SOL    HW120411   1.845   4.041   9.314
 6615SOL    HW220412   1.968   4.146   9.287
 6616SOL     OW20413   1.934   3.890   9.628
 6616SOL    HW120414   1.917   3.973   9.574
 6616SOL    HW220415   2.024   3.853   9.606
 6617SOL     OW20416   3.087   4.049   9.759
 6617SOL    HW120417   3.152   3.975   9.748
 6617SOL    HW220418   3.107   4.099   9.843
 6618SOL     OW20419   3.639   4.066  10.952
 6618SOL    HW120420   3.622   4.097  10.858
 6618SOL    HW220421   3.555   4.029  10.990
 6619SOL     OW20422   3.686   3.916  10.537
 6619SOL    HW120423   3.682   3.826  10.581
 6619SOL    HW220424   3.689   3.905  10.438
 6620SOL     OW20425   3.286   3.938  10.422
 6620SOL    HW120426   3.338   3.873  10.477
 6620SOL    HW220427   3.237   4.001  10.483
 6621SOL     OW20428   2.863   3.758  10.464
 6621SOL    HW120429   2.800   3.686  10.433
 6621SOL    HW220430   2.956   3.722  10.464
 6622SOL     OW20431   3.214   3.776   9.478
 6622SOL    HW120432   3.249   3.735   9.394
 6622SOL    HW220433   3.124   3.738   9.498
 6623SOL     OW20434   3.162   4.177  10.001
 6623SOL    HW120435   3.103   4.257  10.005
 6623SOL    HW220436   3.177   4.142  10.094
 6624SOL     OW20437   3.455   3.945  10.192
 6624SOL    HW120438   3.371   3.944  10.246
 6624SOL    HW220439   3.457   4.028  10.136
 6625SOL     OW20440   2.087   3.999  12.168
 6625SOL    HW120441   2.122   3.982  12.260
 6625SOL    HW220442   1.999   3.954  12.156
 6626SOL     OW20443   1.881   4.092  11.819
 6626SOL    HW120444   1.799   4.135  11.858
 6626SOL    HW220445   1.853   4.019  11.756
 6627SOL     OW20446   3.617   4.331  11.403
 6627SOL    HW120447   3.605   4.318  11.304
 6627SOL    HW220448   3.587   4.250  11.452
 6628SOL     OW20449   2.300   4.116  12.671
 6628SOL    HW120450   2.382   4.060  12.680
 6628SOL    HW220451   2.219   4.058  12.675
 6629SOL     OW20452   3.456   3.838  12.652
 6629SOL    HW120453   3.438   3.905  12.580
 6629SOL    HW220454   3.453   3.884  12.741
 6630SOL     OW20455   2.671   3.728  11.674
 6630SOL    HW120456   2.711   3.819  11.665
 6630SOL    HW220457   2.571   3.736  11.680
 6631SOL     OW20458   3.143   4.069  12.116
 6631SOL    HW120459   3.057   4.019  12.103
 6631SOL    HW220460   3.205   4.015  12.172
 6632SOL     OW20461   2.412   3.920  12.057
 6632SOL    HW120462   2.407   3.915  12.157
 6632SOL    HW220463   2.414   4.016  12.028
 6633SOL     OW20464   2.064   4.009  12.670
 6633SOL    HW120465   1.984   4.069  12.657
 6633SOL    HW220466   2.054   3.960  12.756
 6634SOL     OW20467   3.262   3.831  11.598
 6634SOL    HW120468   3.238   3.794  11.508
 6634SOL    HW220469   3.361   3.847  11.602
 6635SOL     OW20470   3.409   3.946  12.901
 6635SOL    HW120471   3.404   3.983  12.993
 6635SOL    HW220472   3.337   3.877  12.889
 6636SOL     OW20473   2.476   3.846  11.289
 6636SOL    HW120474   2.574   3.824  11.296
 6636SOL    HW220475   2.445   3.829  11.196
 6637SOL     OW20476   2.643   3.988  12.921
 6637SOL    HW120477   2.710   3.927  12.964
 6637SOL    HW220478   2.570   4.007  12.986
 6638SOL     OW20479   2.401   3.788  11.684
 6638SOL    HW120480   2.320   3.789  11.742
 6638SOL    HW220481   2.404   3.871  11.629
 6639SOL     OW20482   2.159   3.759  11.343
 6639SOL    HW120483   2.208   3.843  11.322
 6639SOL    HW220484   2.221   3.694  11.388
 6640SOL     OW20485   2.423   3.946  12.319
 6640SOL    HW120486   2.461   3.862  12.356
 6640SOL    HW220487   2.335   3.965  12.363
 6641SOL     OW20488   2.879   3.763  11.925
 6641SOL    HW120489   2.807   3.768  11.856
 6641SOL    HW220490   2.855   3.694  11.994
 6642SOL     OW20491   2.777   3.813  12.574
 6642SOL    HW120492   2.802   3.793  12.479
 6642SOL    HW220493   2.849   3.869  12.616
 6643SOL     OW20494   3.136   4.110  12.434
 6643SOL    HW120495   3.157   4.184  12.498
 6643SOL    HW220496   3.047   4.127  12.391
 6644SOL     OW20497   2.366   3.774  12.912
 6644SOL    HW120498   2.324   3.717  12.842
 6644SOL    HW220499   2.300   3.843  12.944
 6645SOL     OW20500   2.169   3.937  12.403
 6645SOL    HW120501   2.146   3.974  12.493
 6645SOL    HW220502   2.139   3.842  12.397
 6646SOL     OW20503   3.402   3.998  11.297
 6646SOL    HW120504   3.341   3.923  11.320
 6646SOL    HW220505   3.424   4.050  11.380
 6647SOL     OW20506   3.022   3.931  12.649
 6647SOL    HW120507   3.022   3.995  12.726
 6647SOL    HW220508   3.050   3.979  12.566
 6648SOL     OW20509   2.765   3.810  11.305
 6648SOL    HW120510   2.816   3.811  11.219
 6648SOL    HW220511   2.821   3.768  11.376
 6649SOL     OW20512   3.588   3.859  11.695
 6649SOL    HW120513   3.661   3.842  11.628
 6649SOL    HW220514   3.557   3.772  11.733
 6650SOL     OW20515   3.703   3.899  12.135
 6650SOL    HW120516   3.742   3.814  12.099
 6650SOL    HW220517   3.605   3.901  12.116
 6651SOL     OW20518   2.534   3.927  12.661
 6651SOL    HW120519   2.624   3.911  12.621
 6651SOL    HW220520   2.542   3.932  12.760
 6652SOL     OW20521   1.937   4.069  11.205
 6652SOL    HW120522   1.845   4.041  11.176
 6652SOL    HW220523   1.968   4.146  11.149
 6653SOL     OW20524   1.934   3.890  11.490
 6653SOL    HW120525   1.917   3.973  11.436
 6653SOL    HW220526   2.024   3.853  11.468
 6654SOL     OW20527   3.087   4.049  11.621
 6654SOL    HW120528   3.152   3.975  11.610
 6654SOL    HW220529   3.107   4.099  11.705
 6655SOL     OW20530   3.639   4.066  12.814
 6655SOL    HW120531   3.622   4.097  12.720
 6655SOL    HW220532   3.555   4.029  12.852
 6656SOL     OW20533   3.686   3.916  12.399
 6656SOL    HW120534   3.682   3.826  12.443
 6656SOL    HW220535   3.689   3.905  12.300
 6657SOL     OW20536   3.286   3.938  12.284
 6657SOL    HW120537   3.338   3.873  12.339
 6657SOL    HW220538   3.237   4.001  12.345
 6658SOL     OW20539   2.863   3.758  12.326
 6658SOL    HW120540   2.800   3.686  12.295
 6658SOL    HW220541   2.956   3.722  12.326
 6659SOL     OW20542   3.214   3.776  11.340
 6659SOL    HW120543   3.249   3.735  11.256
 6659SOL    HW220544   3.124   3.738  11.360
 6660SOL     OW20545   3.162   4.177  11.863
 6660SOL    HW120546   3.103   4.257  11.867
 6660SOL    HW220547   3.177   4.142  11.956
 6661SOL     OW20548   3.455   3.945  12.054
 6661SOL    HW120549   3.371   3.944  12.108
 6661SOL    HW220550   3.457   4.028  11.998
 6662SOL     OW20551   1.881   4.092  13.681
 6662SOL    HW120552   1.799   4.135  13.720
 6662SOL    HW220553   1.853   4.019  13.618
 6663SOL     OW20554   3.617   4.331  13.265
 6663SOL    HW120555   3.605   4.318  13.166
 6663SOL    HW220556   3.587   4.250  13.314
 6664SOL     OW20557   3.465   4.171  13.771
 6664SOL    HW120558   3.391   4.217  13.721
 6664SOL    HW220559   3.516   4.239  13.824
 6665SOL     OW20560   2.671   3.728  13.536
 6665SOL    HW120561   2.711   3.819  13.527
 6665SOL    HW220562   2.571   3.736  13.542
 6666SOL     OW20563   3.262   3.831  13.460
 6666SOL    HW120564   3.238   3.794  13.370
 6666SOL    HW220565   3.361   3.847  13.464
 6667SOL     OW20566   2.476   3.846  13.151
 6667SOL    HW120567   2.574   3.824  13.158
 6667SOL    HW220568   2.445   3.829  13.058
 6668SOL     OW20569   2.401   3.788  13.546
 6668SOL    HW120570   2.320   3.789  13.604
 6668SOL    HW220571   2.404   3.871  13.491
 6669SOL     OW20572   2.159   3.759  13.205
 6669SOL    HW120573   2.208   3.843  13.184
 6669SOL    HW220574   2.221   3.694  13.250
 6670SOL     OW20575   2.879   3.763  13.787
 6670SOL    HW120576   2.807   3.768  13.718
 6670SOL    HW220577   2.855   3.694  13.856
 6671SOL     OW20578   3.402   3.998  13.159
 6671SOL    HW120579   3.341   3.923  13.182
 6671SOL    HW220580   3.424   4.050  13.242
 6672SOL     OW20581   2.765   3.810  13.167
 6672SOL    HW120582   2.816   3.811  13.081
 6672SOL    HW220583   2.821   3.768  13.238
 6673SOL     OW20584   3.588   3.859  13.557
 6673SOL    HW120585   3.661   3.842  13.490
 6673SOL    HW220586   3.557   3.772  13.595
 6674SOL     OW20587   3.703   3.899  13.997
 6674SOL    HW120588   3.742   3.814  13.961
 6674SOL    HW220589   3.605   3.901  13.978
 6675SOL     OW20590   1.937   4.069  13.067
 6675SOL    HW120591   1.845   4.041  13.038
 6675SOL    HW220592   1.968   4.146  13.011
 6676SOL     OW20593   1.934   3.890  13.352
 6676SOL    HW120594   1.917   3.973  13.298
 6676SOL    HW220595   2.024   3.853  13.330
 6677SOL     OW20596   3.087   4.049  13.483
 6677SOL    HW120597   3.152   3.975  13.472
 6677SOL    HW220598   3.107   4.099  13.567
 6678SOL     OW20599   3.214   3.776  13.202
 6678SOL    HW120600   3.249   3.735  13.118
 6678SOL    HW220601   3.124   3.738  13.222
 6679SOL     OW20602   3.162   4.177  13.725
 6679SOL    HW120603   3.103   4.257  13.729
 6679SOL    HW220604   3.177   4.142  13.818
 6680SOL     OW20605   3.954   0.628   0.113
 6680SOL    HW120606   3.861   0.626   0.150
 6680SOL    HW220607   3.955   0.589   0.021
 6681SOL     OW20608   3.949   0.275   0.996
 6681SOL    HW120609   3.984   0.258   1.088
 6681SOL    HW220610   3.861   0.230   0.984
 6682SOL     OW20611   3.743   0.368   0.647
 6682SOL    HW120612   3.661   0.411   0.686
 6682SOL    HW220613   3.715   0.295   0.584
 6683SOL     OW20614   4.059   1.435   1.061
 6683SOL    HW120615   3.981   1.404   1.008
 6683SOL    HW220616   4.117   1.493   1.004
 6684SOL     OW20617   3.955   1.713   0.483
 6684SOL    HW120618   3.989   1.790   0.537
 6684SOL    HW220619   3.999   1.713   0.393
 6685SOL     OW20620   3.954   1.434   0.538
 6685SOL    HW120621   3.928   1.530   0.538
 6685SOL    HW220622   3.883   1.380   0.583
 6686SOL     OW20623   3.846   0.643   0.563
 6686SOL    HW120624   3.801   0.555   0.580
 6686SOL    HW220625   3.845   0.697   0.647
 6687SOL     OW20626   3.751   1.596   0.117
 6687SOL    HW120627   3.732   1.500   0.138
 6687SOL    HW220628   3.718   1.654   0.192
 6688SOL     OW20629   3.837   0.737   1.597
 6688SOL    HW120630   3.925   0.724   1.642
 6688SOL    HW220631   3.824   0.834   1.575
 6689SOL     OW20632   3.800   0.811   0.789
 6689SOL    HW120633   3.899   0.799   0.798
 6689SOL    HW220634   3.776   0.906   0.810
 6690SOL     OW20635   3.854   1.821   1.571
 6690SOL    HW120636   3.844   1.806   1.670
 6690SOL    HW220637   3.768   1.857   1.535
 6691SOL     OW20638   3.926   0.285   1.498
 6691SOL    HW120639   3.846   0.345   1.485
 6691SOL    HW220640   3.916   0.236   1.584
 6692SOL     OW20641   3.802   0.556   1.386
 6692SOL    HW120642   3.894   0.555   1.345
 6692SOL    HW220643   3.796   0.630   1.453
 6693SOL     OW20644   3.788   1.564   1.331
 6693SOL    HW120645   3.742   1.646   1.297
 6693SOL    HW220646   3.886   1.583   1.340
 6694SOL     OW20647   4.091   1.100   0.501
 6694SOL    HW120648   4.084   1.183   0.445
 6694SOL    HW220649   4.095   1.020   0.441
 6695SOL     OW20650   4.031   0.213   1.231
 6695SOL    HW120651   4.008   0.250   1.321
 6695SOL    HW220652   4.001   0.118   1.225
 6696SOL     OW20653   3.761   1.310   1.282
 6696SOL    HW120654   3.814   1.261   1.350
 6696SOL    HW220655   3.783   1.408   1.287
 6697SOL     OW20656   3.732   1.326   0.200
 6697SOL    HW120657   3.639   1.347   0.169
 6697SOL    HW220658   3.742   1.227   0.213
 6698SOL     OW20659   3.812   1.801   0.927
 6698SOL    HW120660   3.770   1.715   0.900
 6698SOL    HW220661   3.906   1.804   0.893
 6699SOL     OW20662   4.228   1.568   0.910
 6699SOL    HW120663   4.294   1.642   0.919
 6699SOL    HW220664   4.272   1.489   0.868
 6700SOL     OW20665   3.764   0.544   1.114
 6700SOL    HW120666   3.849   0.511   1.073
 6700SOL    HW220667   3.777   0.559   1.212
 6701SOL     OW20668   3.913   0.520   1.722
 6701SOL    HW120669   3.972   0.480   1.652
 6701SOL    HW220670   3.855   0.591   1.681
 6702SOL     OW20671   3.976   1.564   1.744
 6702SOL    HW120672   3.946   1.621   1.820
 6702SOL    HW220673   3.969   1.467   1.770
 6703SOL     OW20674   3.883   1.137   1.466
 6703SOL    HW120675   3.905   1.076   1.542
 6703SOL    HW220676   3.893   1.088   1.380
 6704SOL     OW20677   3.807   1.258   1.022
 6704SOL    HW120678   3.802   1.257   1.122
 6704SOL    HW220679   3.724   1.217   0.984
 6705SOL     OW20680   3.854   1.794   1.851
 6705SOL    HW120681   3.813   1.720   1.904
 6705SOL    HW220682   3.918   1.845   1.909
 6706SOL     OW20683   3.799   0.345   0.033
 6706SOL    HW120684   3.707   0.317   0.004
 6706SOL    HW220685   3.830   0.422  -0.023
 6707SOL     OW20686   3.796   0.166   0.318
 6707SOL    HW120687   3.779   0.249   0.264
 6707SOL    HW220688   3.886   0.129   0.296
 6708SOL     OW20689   3.803   1.240   0.653
 6708SOL    HW120690   3.802   1.193   0.741
 6708SOL    HW220691   3.885   1.212   0.602
 6709SOL     OW20692   3.763   1.077   0.300
 6709SOL    HW120693   3.862   1.066   0.291
 6709SOL    HW220694   3.723   0.991   0.332
 6710SOL     OW20695   3.954   0.628   1.975
 6710SOL    HW120696   3.861   0.626   2.012
 6710SOL    HW220697   3.955   0.589   1.883
 6711SOL     OW20698   3.949   0.275   2.858
 6711SOL    HW120699   3.984   0.258   2.950
 6711SOL    HW220700   3.861   0.230   2.846
 6712SOL     OW20701   3.743   0.368   2.509
 6712SOL    HW120702   3.661   0.411   2.548
 6712SOL    HW220703   3.715   0.295   2.446
 6713SOL     OW20704   4.059   1.435   2.923
 6713SOL    HW120705   3.981   1.404   2.870
 6713SOL    HW220706   4.117   1.493   2.866
 6714SOL     OW20707   3.955   1.713   2.345
 6714SOL    HW120708   3.989   1.790   2.399
 6714SOL    HW220709   3.999   1.713   2.255
 6715SOL     OW20710   3.954   1.434   2.400
 6715SOL    HW120711   3.928   1.530   2.400
 6715SOL    HW220712   3.883   1.380   2.445
 6716SOL     OW20713   3.846   0.643   2.425
 6716SOL    HW120714   3.801   0.555   2.442
 6716SOL    HW220715   3.845   0.697   2.509
 6717SOL     OW20716   3.751   1.596   1.979
 6717SOL    HW120717   3.732   1.500   2.000
 6717SOL    HW220718   3.718   1.654   2.054
 6718SOL     OW20719   3.837   0.737   3.459
 6718SOL    HW120720   3.925   0.724   3.504
 6718SOL    HW220721   3.824   0.834   3.437
 6719SOL     OW20722   3.800   0.811   2.651
 6719SOL    HW120723   3.899   0.799   2.660
 6719SOL    HW220724   3.776   0.906   2.672
 6720SOL     OW20725   3.854   1.821   3.433
 6720SOL    HW120726   3.844   1.806   3.532
 6720SOL    HW220727   3.768   1.857   3.397
 6721SOL     OW20728   3.926   0.285   3.360
 6721SOL    HW120729   3.846   0.345   3.347
 6721SOL    HW220730   3.916   0.236   3.446
 6722SOL     OW20731   3.802   0.556   3.248
 6722SOL    HW120732   3.894   0.555   3.207
 6722SOL    HW220733   3.796   0.630   3.315
 6723SOL     OW20734   4.251   0.256   2.190
 6723SOL    HW120735   4.278   0.197   2.115
 6723SOL    HW220736   4.251   0.351   2.159
 6724SOL     OW20737   3.788   1.564   3.193
 6724SOL    HW120738   3.742   1.646   3.159
 6724SOL    HW220739   3.886   1.583   3.202
 6725SOL     OW20740   4.091   1.100   2.363
 6725SOL    HW120741   4.084   1.183   2.307
 6725SOL    HW220742   4.095   1.020   2.303
 6726SOL     OW20743   4.031   0.213   3.093
 6726SOL    HW120744   4.008   0.250   3.183
 6726SOL    HW220745   4.001   0.118   3.087
 6727SOL     OW20746   3.761   1.310   3.144
 6727SOL    HW120747   3.814   1.261   3.212
 6727SOL    HW220748   3.783   1.408   3.149
 6728SOL     OW20749   3.732   1.326   2.062
 6728SOL    HW120750   3.639   1.347   2.031
 6728SOL    HW220751   3.742   1.227   2.075
 6729SOL     OW20752   3.812   1.801   2.789
 6729SOL    HW120753   3.770   1.715   2.762
 6729SOL    HW220754   3.906   1.804   2.755
 6730SOL     OW20755   4.228   1.568   2.772
 6730SOL    HW120756   4.294   1.642   2.781
 6730SOL    HW220757   4.272   1.489   2.730
 6731SOL     OW20758   3.764   0.544   2.976
 6731SOL    HW120759   3.849   0.511   2.935
 6731SOL    HW220760   3.777   0.559   3.074
 6732SOL     OW20761   3.913   0.520   3.584
 6732SOL    HW120762   3.972   0.480   3.514
 6732SOL    HW220763   3.855   0.591   3.543
 6733SOL     OW20764   3.976   1.564   3.606
 6733SOL    HW120765   3.946   1.621   3.682
 6733SOL    HW220766   3.969   1.467   3.632
 6734SOL     OW20767   3.883   1.137   3.328
 6734SOL    HW120768   3.905   1.076   3.404
 6734SOL    HW220769   3.893   1.088   3.242
 6735SOL     OW20770   3.807   1.258   2.884
 6735SOL    HW120771   3.802   1.257   2.984
 6735SOL    HW220772   3.724   1.217   2.846
 6736SOL     OW20773   3.854   1.794   3.713
 6736SOL    HW120774   3.813   1.720   3.766
 6736SOL    HW220775   3.918   1.845   3.771
 6737SOL     OW20776   3.799   0.345   1.895
 6737SOL    HW120777   3.707   0.317   1.866
 6737SOL    HW220778   3.830   0.422   1.839
 6738SOL     OW20779   3.796   0.166   2.180
 6738SOL    HW120780   3.779   0.249   2.126
 6738SOL    HW220781   3.886   0.129   2.158
 6739SOL     OW20782   3.803   1.240   2.515
 6739SOL    HW120783   3.802   1.193   2.603
 6739SOL    HW220784   3.885   1.212   2.464
 6740SOL     OW20785   3.763   1.077   2.162
 6740SOL    HW120786   3.862   1.066   2.153
 6740SOL    HW220787   3.723   0.991   2.194
 6741SOL     OW20788   3.954   0.628   3.837
 6741SOL    HW120789   3.861   0.626   3.874
 6741SOL    HW220790   3.955   0.589   3.745
 6742SOL     OW20791   3.949   0.275   4.720
 6742SOL    HW120792   3.984   0.258   4.812
 6742SOL    HW220793   3.861   0.230   4.708
 6743SOL     OW20794   3.743   0.368   4.371
 6743SOL    HW120795   3.661   0.411   4.410
 6743SOL    HW220796   3.715   0.295   4.308
 6744SOL     OW20797   4.059   1.435   4.785
 6744SOL    HW120798   3.981   1.404   4.732
 6744SOL    HW220799   4.117   1.493   4.728
 6745SOL     OW20800   3.955   1.713   4.207
 6745SOL    HW120801   3.989   1.790   4.261
 6745SOL    HW220802   3.999   1.713   4.117
 6746SOL     OW20803   3.954   1.434   4.262
 6746SOL    HW120804   3.928   1.530   4.262
 6746SOL    HW220805   3.883   1.380   4.307
 6747SOL     OW20806   3.846   0.643   4.287
 6747SOL    HW120807   3.801   0.555   4.304
 6747SOL    HW220808   3.845   0.697   4.371
 6748SOL     OW20809   3.751   1.596   3.841
 6748SOL    HW120810   3.732   1.500   3.862
 6748SOL    HW220811   3.718   1.654   3.916
 6749SOL     OW20812   3.837   0.737   5.321
 6749SOL    HW120813   3.925   0.724   5.366
 6749SOL    HW220814   3.824   0.834   5.299
 6750SOL     OW20815   3.800   0.811   4.513
 6750SOL    HW120816   3.899   0.799   4.522
 6750SOL    HW220817   3.776   0.906   4.534
 6751SOL     OW20818   3.854   1.821   5.295
 6751SOL    HW120819   3.844   1.806   5.394
 6751SOL    HW220820   3.768   1.857   5.259
 6752SOL     OW20821   3.926   0.285   5.222
 6752SOL    HW120822   3.846   0.345   5.209
 6752SOL    HW220823   3.916   0.236   5.308
 6753SOL     OW20824   3.802   0.556   5.110
 6753SOL    HW120825   3.894   0.555   5.069
 6753SOL    HW220826   3.796   0.630   5.177
 6754SOL     OW20827   4.251   0.256   4.052
 6754SOL    HW120828   4.278   0.197   3.977
 6754SOL    HW220829   4.251   0.351   4.021
 6755SOL     OW20830   3.788   1.564   5.055
 6755SOL    HW120831   3.742   1.646   5.021
 6755SOL    HW220832   3.886   1.583   5.064
 6756SOL     OW20833   4.091   1.100   4.225
 6756SOL    HW120834   4.084   1.183   4.169
 6756SOL    HW220835   4.095   1.020   4.165
 6757SOL     OW20836   4.031   0.213   4.955
 6757SOL    HW120837   4.008   0.250   5.045
 6757SOL    HW220838   4.001   0.118   4.949
 6758SOL     OW20839   3.761   1.310   5.006
 6758SOL    HW120840   3.814   1.261   5.074
 6758SOL    HW220841   3.783   1.408   5.011
 6759SOL     OW20842   3.732   1.326   3.924
 6759SOL    HW120843   3.639   1.347   3.893
 6759SOL    HW220844   3.742   1.227   3.937
 6760SOL     OW20845   3.812   1.801   4.651
 6760SOL    HW120846   3.770   1.715   4.624
 6760SOL    HW220847   3.906   1.804   4.617
 6761SOL     OW20848   4.228   1.568   4.634
 6761SOL    HW120849   4.294   1.642   4.643
 6761SOL    HW220850   4.272   1.489   4.592
 6762SOL     OW20851   3.764   0.544   4.838
 6762SOL    HW120852   3.849   0.511   4.797
 6762SOL    HW220853   3.777   0.559   4.936
 6763SOL     OW20854   3.913   0.520   5.446
 6763SOL    HW120855   3.972   0.480   5.376
 6763SOL    HW220856   3.855   0.591   5.405
 6764SOL     OW20857   3.976   1.564   5.468
 6764SOL    HW120858   3.946   1.621   5.544
 6764SOL    HW220859   3.969   1.467   5.494
 6765SOL     OW20860   3.883   1.137   5.190
 6765SOL    HW120861   3.905   1.076   5.266
 6765SOL    HW220862   3.893   1.088   5.104
 6766SOL     OW20863   3.807   1.258   4.746
 6766SOL    HW120864   3.802   1.257   4.846
 6766SOL    HW220865   3.724   1.217   4.708
 6767SOL     OW20866   3.854   1.794   5.575
 6767SOL    HW120867   3.813   1.720   5.628
 6767SOL    HW220868   3.918   1.845   5.633
 6768SOL     OW20869   3.799   0.345   3.757
 6768SOL    HW120870   3.707   0.317   3.728
 6768SOL    HW220871   3.830   0.422   3.701
 6769SOL     OW20872   3.796   0.166   4.042
 6769SOL    HW120873   3.779   0.249   3.988
 6769SOL    HW220874   3.886   0.129   4.020
 6770SOL     OW20875   3.803   1.240   4.377
 6770SOL    HW120876   3.802   1.193   4.465
 6770SOL    HW220877   3.885   1.212   4.326
 6771SOL     OW20878   3.763   1.077   4.024
 6771SOL    HW120879   3.862   1.066   4.015
 6771SOL    HW220880   3.723   0.991   4.056
 6772SOL     OW20881   3.954   0.628   5.699
 6772SOL    HW120882   3.861   0.626   5.736
 6772SOL    HW220883   3.955   0.589   5.607
 6773SOL     OW20884   3.949   0.275   6.582
 6773SOL    HW120885   3.984   0.258   6.674
 6773SOL    HW220886   3.861   0.230   6.570
 6774SOL     OW20887   3.743   0.368   6.233
 6774SOL    HW120888   3.661   0.411   6.272
 6774SOL    HW220889   3.715   0.295   6.170
 6775SOL     OW20890   4.059   1.435   6.647
 6775SOL    HW120891   3.981   1.404   6.594
 6775SOL    HW220892   4.117   1.493   6.590
 6776SOL     OW20893   3.955   1.713   6.069
 6776SOL    HW120894   3.989   1.790   6.123
 6776SOL    HW220895   3.999   1.713   5.979
 6777SOL     OW20896   3.954   1.434   6.124
 6777SOL    HW120897   3.928   1.530   6.124
 6777SOL    HW220898   3.883   1.380   6.169
 6778SOL     OW20899   3.846   0.643   6.149
 6778SOL    HW120900   3.801   0.555   6.166
 6778SOL    HW220901   3.845   0.697   6.233
 6779SOL     OW20902   3.751   1.596   5.703
 6779SOL    HW120903   3.732   1.500   5.724
 6779SOL    HW220904   3.718   1.654   5.778
 6780SOL     OW20905   3.837   0.737   7.183
 6780SOL    HW120906   3.925   0.724   7.228
 6780SOL    HW220907   3.824   0.834   7.161
 6781SOL     OW20908   3.800   0.811   6.375
 6781SOL    HW120909   3.899   0.799   6.384
 6781SOL    HW220910   3.776   0.906   6.396
 6782SOL     OW20911   3.854   1.821   7.157
 6782SOL    HW120912   3.844   1.806   7.256
 6782SOL    HW220913   3.768   1.857   7.121
 6783SOL     OW20914   3.926   0.285   7.084
 6783SOL    HW120915   3.846   0.345   7.071
 6783SOL    HW220916   3.916   0.236   7.170
 6784SOL     OW20917   3.802   0.556   6.972
 6784SOL    HW120918   3.894   0.555   6.931
 6784SOL    HW220919   3.796   0.630   7.039
 6785SOL     OW20920   4.251   0.256   5.914
 6785SOL    HW120921   4.278   0.197   5.839
 6785SOL    HW220922   4.251   0.351   5.883
 6786SOL     OW20923   3.788   1.564   6.917
 6786SOL    HW120924   3.742   1.646   6.883
 6786SOL    HW220925   3.886   1.583   6.926
 6787SOL     OW20926   4.091   1.100   6.087
 6787SOL    HW120927   4.084   1.183   6.031
 6787SOL    HW220928   4.095   1.020   6.027
 6788SOL     OW20929   4.031   0.213   6.817
 6788SOL    HW120930   4.008   0.250   6.907
 6788SOL    HW220931   4.001   0.118   6.811
 6789SOL     OW20932   3.761   1.310   6.868
 6789SOL    HW120933   3.814   1.261   6.936
 6789SOL    HW220934   3.783   1.408   6.873
 6790SOL     OW20935   3.732   1.326   5.786
 6790SOL    HW120936   3.639   1.347   5.755
 6790SOL    HW220937   3.742   1.227   5.799
 6791SOL     OW20938   3.812   1.801   6.513
 6791SOL    HW120939   3.770   1.715   6.486
 6791SOL    HW220940   3.906   1.804   6.479
 6792SOL     OW20941   4.228   1.568   6.496
 6792SOL    HW120942   4.294   1.642   6.505
 6792SOL    HW220943   4.272   1.489   6.454
 6793SOL     OW20944   3.764   0.544   6.700
 6793SOL    HW120945   3.849   0.511   6.659
 6793SOL    HW220946   3.777   0.559   6.798
 6794SOL     OW20947   3.913   0.520   7.308
 6794SOL    HW120948   3.972   0.480   7.238
 6794SOL    HW220949   3.855   0.591   7.267
 6795SOL     OW20950   3.976   1.564   7.330
 6795SOL    HW120951   3.946   1.621   7.406
 6795SOL    HW220952   3.969   1.467   7.356
 6796SOL     OW20953   3.883   1.137   7.052
 6796SOL    HW120954   3.905   1.076   7.128
 6796SOL    HW220955   3.893   1.088   6.966
 6797SOL     OW20956   3.807   1.258   6.608
 6797SOL    HW120957   3.802   1.257   6.708
 6797SOL    HW220958   3.724   1.217   6.570
 6798SOL     OW20959   3.854   1.794   7.437
 6798SOL    HW120960   3.813   1.720   7.490
 6798SOL    HW220961   3.918   1.845   7.495
 6799SOL     OW20962   3.799   0.345   5.619
 6799SOL    HW120963   3.707   0.317   5.590
 6799SOL    HW220964   3.830   0.422   5.563
 6800SOL     OW20965   3.796   0.166   5.904
 6800SOL    HW120966   3.779   0.249   5.850
 6800SOL    HW220967   3.886   0.129   5.882
 6801SOL     OW20968   3.803   1.240   6.239
 6801SOL    HW120969   3.802   1.193   6.327
 6801SOL    HW220970   3.885   1.212   6.188
 6802SOL     OW20971   3.763   1.077   5.886
 6802SOL    HW120972   3.862   1.066   5.877
 6802SOL    HW220973   3.723   0.991   5.918
 6803SOL     OW20974   3.954   0.628   7.561
 6803SOL    HW120975   3.861   0.626   7.598
 6803SOL    HW220976   3.955   0.589   7.469
 6804SOL     OW20977   3.949   0.275   8.444
 6804SOL    HW120978   3.984   0.258   8.536
 6804SOL    HW220979   3.861   0.230   8.432
 6805SOL     OW20980   3.743   0.368   8.095
 6805SOL    HW120981   3.661   0.411   8.134
 6805SOL    HW220982   3.715   0.295   8.032
 6806SOL     OW20983   4.059   1.435   8.509
 6806SOL    HW120984   3.981   1.404   8.456
 6806SOL    HW220985   4.117   1.493   8.452
 6807SOL     OW20986   3.955   1.713   7.931
 6807SOL    HW120987   3.989   1.790   7.985
 6807SOL    HW220988   3.999   1.713   7.841
 6808SOL     OW20989   3.954   1.434   7.986
 6808SOL    HW120990   3.928   1.530   7.986
 6808SOL    HW220991   3.883   1.380   8.031
 6809SOL     OW20992   3.846   0.643   8.011
 6809SOL    HW120993   3.801   0.555   8.028
 6809SOL    HW220994   3.845   0.697   8.095
 6810SOL     OW20995   3.751   1.596   7.565
 6810SOL    HW120996   3.732   1.500   7.586
 6810SOL    HW220997   3.718   1.654   7.640
 6811SOL     OW20998   3.837   0.737   9.045
 6811SOL    HW120999   3.925   0.724   9.090
 6811SOL    HW221000   3.824   0.834   9.023
 6812SOL     OW21001   3.800   0.811   8.237
 6812SOL    HW121002   3.899   0.799   8.246
 6812SOL    HW221003   3.776   0.906   8.258
 6813SOL     OW21004   3.854   1.821   9.019
 6813SOL    HW121005   3.844   1.806   9.118
 6813SOL    HW221006   3.768   1.857   8.983
 6814SOL     OW21007   3.926   0.285   8.946
 6814SOL    HW121008   3.846   0.345   8.933
 6814SOL    HW221009   3.916   0.236   9.032
 6815SOL     OW21010   3.802   0.556   8.834
 6815SOL    HW121011   3.894   0.555   8.793
 6815SOL    HW221012   3.796   0.630   8.901
 6816SOL     OW21013   4.251   0.256   7.776
 6816SOL    HW121014   4.278   0.197   7.701
 6816SOL    HW221015   4.251   0.351   7.745
 6817SOL     OW21016   3.788   1.564   8.779
 6817SOL    HW121017   3.742   1.646   8.745
 6817SOL    HW221018   3.886   1.583   8.788
 6818SOL     OW21019   4.091   1.100   7.949
 6818SOL    HW121020   4.084   1.183   7.893
 6818SOL    HW221021   4.095   1.020   7.889
 6819SOL     OW21022   4.031   0.213   8.679
 6819SOL    HW121023   4.008   0.250   8.769
 6819SOL    HW221024   4.001   0.118   8.673
 6820SOL     OW21025   3.761   1.310   8.730
 6820SOL    HW121026   3.814   1.261   8.798
 6820SOL    HW221027   3.783   1.408   8.735
 6821SOL     OW21028   3.732   1.326   7.648
 6821SOL    HW121029   3.639   1.347   7.617
 6821SOL    HW221030   3.742   1.227   7.661
 6822SOL     OW21031   3.812   1.801   8.375
 6822SOL    HW121032   3.770   1.715   8.348
 6822SOL    HW221033   3.906   1.804   8.341
 6823SOL     OW21034   4.228   1.568   8.358
 6823SOL    HW121035   4.294   1.642   8.367
 6823SOL    HW221036   4.272   1.489   8.316
 6824SOL     OW21037   3.764   0.544   8.562
 6824SOL    HW121038   3.849   0.511   8.521
 6824SOL    HW221039   3.777   0.559   8.660
 6825SOL     OW21040   3.913   0.520   9.170
 6825SOL    HW121041   3.972   0.480   9.100
 6825SOL    HW221042   3.855   0.591   9.129
 6826SOL     OW21043   3.976   1.564   9.192
 6826SOL    HW121044   3.946   1.621   9.268
 6826SOL    HW221045   3.969   1.467   9.218
 6827SOL     OW21046   3.883   1.137   8.914
 6827SOL    HW121047   3.905   1.076   8.990
 6827SOL    HW221048   3.893   1.088   8.828
 6828SOL     OW21049   3.807   1.258   8.470
 6828SOL    HW121050   3.802   1.257   8.570
 6828SOL    HW221051   3.724   1.217   8.432
 6829SOL     OW21052   3.854   1.794   9.299
 6829SOL    HW121053   3.813   1.720   9.352
 6829SOL    HW221054   3.918   1.845   9.357
 6830SOL     OW21055   3.799   0.345   7.481
 6830SOL    HW121056   3.707   0.317   7.452
 6830SOL    HW221057   3.830   0.422   7.425
 6831SOL     OW21058   3.796   0.166   7.766
 6831SOL    HW121059   3.779   0.249   7.712
 6831SOL    HW221060   3.886   0.129   7.744
 6832SOL     OW21061   3.803   1.240   8.101
 6832SOL    HW121062   3.802   1.193   8.189
 6832SOL    HW221063   3.885   1.212   8.050
 6833SOL     OW21064   3.763   1.077   7.748
 6833SOL    HW121065   3.862   1.066   7.739
 6833SOL    HW221066   3.723   0.991   7.780
 6834SOL     OW21067   3.954   0.628   9.423
 6834SOL    HW121068   3.861   0.626   9.460
 6834SOL    HW221069   3.955   0.589   9.331
 6835SOL     OW21070   3.949   0.275  10.306
 6835SOL    HW121071   3.984   0.258  10.398
 6835SOL    HW221072   3.861   0.230  10.294
 6836SOL     OW21073   3.743   0.368   9.957
 6836SOL    HW121074   3.661   0.411   9.996
 6836SOL    HW221075   3.715   0.295   9.894
 6837SOL     OW21076   4.059   1.435  10.371
 6837SOL    HW121077   3.981   1.404  10.318
 6837SOL    HW221078   4.117   1.493  10.314
 6838SOL     OW21079   3.955   1.713   9.793
 6838SOL    HW121080   3.989   1.790   9.847
 6838SOL    HW221081   3.999   1.713   9.703
 6839SOL     OW21082   3.954   1.434   9.848
 6839SOL    HW121083   3.928   1.530   9.848
 6839SOL    HW221084   3.883   1.380   9.893
 6840SOL     OW21085   3.846   0.643   9.873
 6840SOL    HW121086   3.801   0.555   9.890
 6840SOL    HW221087   3.845   0.697   9.957
 6841SOL     OW21088   3.751   1.596   9.427
 6841SOL    HW121089   3.732   1.500   9.448
 6841SOL    HW221090   3.718   1.654   9.502
 6842SOL     OW21091   3.837   0.737  10.907
 6842SOL    HW121092   3.925   0.724  10.952
 6842SOL    HW221093   3.824   0.834  10.885
 6843SOL     OW21094   3.800   0.811  10.099
 6843SOL    HW121095   3.899   0.799  10.108
 6843SOL    HW221096   3.776   0.906  10.120
 6844SOL     OW21097   3.854   1.821  10.881
 6844SOL    HW121098   3.844   1.806  10.980
 6844SOL    HW221099   3.768   1.857  10.845
 6845SOL     OW21100   3.926   0.285  10.808
 6845SOL    HW121101   3.846   0.345  10.795
 6845SOL    HW221102   3.916   0.236  10.894
 6846SOL     OW21103   3.802   0.556  10.696
 6846SOL    HW121104   3.894   0.555  10.655
 6846SOL    HW221105   3.796   0.630  10.763
 6847SOL     OW21106   4.251   0.256   9.638
 6847SOL    HW121107   4.278   0.197   9.563
 6847SOL    HW221108   4.251   0.351   9.607
 6848SOL     OW21109   3.788   1.564  10.641
 6848SOL    HW121110   3.742   1.646  10.607
 6848SOL    HW221111   3.886   1.583  10.650
 6849SOL     OW21112   4.091   1.100   9.811
 6849SOL    HW121113   4.084   1.183   9.755
 6849SOL    HW221114   4.095   1.020   9.751
 6850SOL     OW21115   4.031   0.213  10.541
 6850SOL    HW121116   4.008   0.250  10.631
 6850SOL    HW221117   4.001   0.118  10.535
 6851SOL     OW21118   3.761   1.310  10.592
 6851SOL    HW121119   3.814   1.261  10.660
 6851SOL    HW221120   3.783   1.408  10.597
 6852SOL     OW21121   3.732   1.326   9.510
 6852SOL    HW121122   3.639   1.347   9.479
 6852SOL    HW221123   3.742   1.227   9.523
 6853SOL     OW21124   3.812   1.801  10.237
 6853SOL    HW121125   3.770   1.715  10.210
 6853SOL    HW221126   3.906   1.804  10.203
 6854SOL     OW21127   4.228   1.568  10.220
 6854SOL    HW121128   4.294   1.642  10.229
 6854SOL    HW221129   4.272   1.489  10.178
 6855SOL     OW21130   3.764   0.544  10.424
 6855SOL    HW121131   3.849   0.511  10.383
 6855SOL    HW221132   3.777   0.559  10.522
 6856SOL     OW21133   3.913   0.520  11.032
 6856SOL    HW121134   3.972   0.480  10.962
 6856SOL    HW221135   3.855   0.591  10.991
 6857SOL     OW21136   3.976   1.564  11.054
 6857SOL    HW121137   3.946   1.621  11.130
 6857SOL    HW221138   3.969   1.467  11.080
 6858SOL     OW21139   3.883   1.137  10.776
 6858SOL    HW121140   3.905   1.076  10.852
 6858SOL    HW221141   3.893   1.088  10.690
 6859SOL     OW21142   3.807   1.258  10.332
 6859SOL    HW121143   3.802   1.257  10.432
 6859SOL    HW221144   3.724   1.217  10.294
 6860SOL     OW21145   3.854   1.794  11.161
 6860SOL    HW121146   3.813   1.720  11.214
 6860SOL    HW221147   3.918   1.845  11.219
 6861SOL     OW21148   3.799   0.345   9.343
 6861SOL    HW121149   3.707   0.317   9.314
 6861SOL    HW221150   3.830   0.422   9.287
 6862SOL     OW21151   3.796   0.166   9.628
 6862SOL    HW121152   3.779   0.249   9.574
 6862SOL    HW221153   3.886   0.129   9.606
 6863SOL     OW21154   3.803   1.240   9.963
 6863SOL    HW121155   3.802   1.193  10.051
 6863SOL    HW221156   3.885   1.212   9.912
 6864SOL     OW21157   3.763   1.077   9.610
 6864SOL    HW121158   3.862   1.066   9.601
 6864SOL    HW221159   3.723   0.991   9.642
 6865SOL     OW21160   3.954   0.628  11.285
 6865SOL    HW121161   3.861   0.626  11.322
 6865SOL    HW221162   3.955   0.589  11.193
 6866SOL     OW21163   3.949   0.275  12.168
 6866SOL    HW121164   3.984   0.258  12.260
 6866SOL    HW221165   3.861   0.230  12.156
 6867SOL     OW21166   3.743   0.368  11.819
 6867SOL    HW121167   3.661   0.411  11.858
 6867SOL    HW221168   3.715   0.295  11.756
 6868SOL     OW21169   4.059   1.435  12.233
 6868SOL    HW121170   3.981   1.404  12.180
 6868SOL    HW221171   4.117   1.493  12.176
 6869SOL     OW21172   3.955   1.713  11.655
 6869SOL    HW121173   3.989   1.790  11.709
 6869SOL    HW221174   3.999   1.713  11.565
 6870SOL     OW21175   3.954   1.434  11.710
 6870SOL    HW121176   3.928   1.530  11.710
 6870SOL    HW221177   3.883   1.380  11.755
 6871SOL     OW21178   3.846   0.643  11.735
 6871SOL    HW121179   3.801   0.555  11.752
 6871SOL    HW221180   3.845   0.697  11.819
 6872SOL     OW21181   3.751   1.596  11.289
 6872SOL    HW121182   3.732   1.500  11.310
 6872SOL    HW221183   3.718   1.654  11.364
 6873SOL     OW21184   3.837   0.737  12.769
 6873SOL    HW121185   3.925   0.724  12.814
 6873SOL    HW221186   3.824   0.834  12.747
 6874SOL     OW21187   3.800   0.811  11.961
 6874SOL    HW121188   3.899   0.799  11.970
 6874SOL    HW221189   3.776   0.906  11.982
 6875SOL     OW21190   3.854   1.821  12.743
 6875SOL    HW121191   3.844   1.806  12.842
 6875SOL    HW221192   3.768   1.857  12.707
 6876SOL     OW21193   3.926   0.285  12.670
 6876SOL    HW121194   3.846   0.345  12.657
 6876SOL    HW221195   3.916   0.236  12.756
 6877SOL     OW21196   3.802   0.556  12.558
 6877SOL    HW121197   3.894   0.555  12.517
 6877SOL    HW221198   3.796   0.630  12.625
 6878SOL     OW21199   4.251   0.256  11.500
 6878SOL    HW121200   4.278   0.197  11.425
 6878SOL    HW221201   4.251   0.351  11.469
 6879SOL     OW21202   3.788   1.564  12.503
 6879SOL    HW121203   3.742   1.646  12.469
 6879SOL    HW221204   3.886   1.583  12.512
 6880SOL     OW21205   4.091   1.100  11.673
 6880SOL    HW121206   4.084   1.183  11.617
 6880SOL    HW221207   4.095   1.020  11.613
 6881SOL     OW21208   4.031   0.213  12.403
 6881SOL    HW121209   4.008   0.250  12.493
 6881SOL    HW221210   4.001   0.118  12.397
 6882SOL     OW21211   3.761   1.310  12.454
 6882SOL    HW121212   3.814   1.261  12.522
 6882SOL    HW221213   3.783   1.408  12.459
 6883SOL     OW21214   3.732   1.326  11.372
 6883SOL    HW121215   3.639   1.347  11.341
 6883SOL    HW221216   3.742   1.227  11.385
 6884SOL     OW21217   3.812   1.801  12.099
 6884SOL    HW121218   3.770   1.715  12.072
 6884SOL    HW221219   3.906   1.804  12.065
 6885SOL     OW21220   4.228   1.568  12.082
 6885SOL    HW121221   4.294   1.642  12.091
 6885SOL    HW221222   4.272   1.489  12.040
 6886SOL     OW21223   3.764   0.544  12.286
 6886SOL    HW121224   3.849   0.511  12.245
 6886SOL    HW221225   3.777   0.559  12.384
 6887SOL     OW21226   3.913   0.520  12.894
 6887SOL    HW121227   3.972   0.480  12.824
 6887SOL    HW221228   3.855   0.591  12.853
 6888SOL     OW21229   3.976   1.564  12.916
 6888SOL    HW121230   3.946   1.621  12.992
 6888SOL    HW221231   3.969   1.467  12.942
 6889SOL     OW21232   3.883   1.137  12.638
 6889SOL    HW121233   3.905   1.076  12.714
 6889SOL    HW221234   3.893   1.088  12.552
 6890SOL     OW21235   3.807   1.258  12.194
 6890SOL    HW121236   3.802   1.257  12.294
 6890SOL    HW221237   3.724   1.217  12.156
 6891SOL     OW21238   3.854   1.794  13.023
 6891SOL    HW121239   3.813   1.720  13.076
 6891SOL    HW221240   3.918   1.845  13.081
 6892SOL     OW21241   3.799   0.345  11.205
 6892SOL    HW121242   3.707   0.317  11.176
 6892SOL    HW221243   3.830   0.422  11.149
 6893SOL     OW21244   3.796   0.166  11.490
 6893SOL    HW121245   3.779   0.249  11.436
 6893SOL    HW221246   3.886   0.129  11.468
 6894SOL     OW21247   3.803   1.240  11.825
 6894SOL    HW121248   3.802   1.193  11.913
 6894SOL    HW221249   3.885   1.212  11.774
 6895SOL     OW21250   3.763   1.077  11.472
 6895SOL    HW121251   3.862   1.066  11.463
 6895SOL    HW221252   3.723   0.991  11.504
 6896SOL     OW21253   3.954   0.628  13.147
 6896SOL    HW121254   3.861   0.626  13.184
 6896SOL    HW221255   3.955   0.589  13.055
 6897SOL     OW21256   3.743   0.368  13.681
 6897SOL    HW121257   3.661   0.411  13.720
 6897SOL    HW221258   3.715   0.295  13.618
 6898SOL     OW21259   3.955   1.713  13.517
 6898SOL    HW121260   3.989   1.790  13.571
 6898SOL    HW221261   3.999   1.713  13.427
 6899SOL     OW21262   3.954   1.434  13.572
 6899SOL    HW121263   3.928   1.530  13.572
 6899SOL    HW221264   3.883   1.380  13.617
 6900SOL     OW21265   3.964   1.091  13.920
 6900SOL    HW121266   3.978   1.007  13.972
 6900SOL    HW221267   3.909   1.155  13.975
 6901SOL     OW21268   3.846   0.643  13.597
 6901SOL    HW121269   3.801   0.555  13.614
 6901SOL    HW221270   3.845   0.697  13.681
 6902SOL     OW21271   3.751   1.596  13.151
 6902SOL    HW121272   3.732   1.500  13.172
 6902SOL    HW221273   3.718   1.654  13.226
 6903SOL     OW21274   3.800   0.811  13.823
 6903SOL    HW121275   3.899   0.799  13.832
 6903SOL    HW221276   3.776   0.906  13.844
 6904SOL     OW21277   4.075   1.801  13.887
 6904SOL    HW121278   4.125   1.715  13.893
 6904SOL    HW221279   4.140   1.878  13.884
 6905SOL     OW21280   4.251   0.256  13.362
 6905SOL    HW121281   4.278   0.197  13.287
 6905SOL    HW221282   4.251   0.351  13.331
 6906SOL     OW21283   4.091   1.100  13.535
 6906SOL    HW121284   4.084   1.183  13.479
 6906SOL    HW221285   4.095   1.020  13.475
 6907SOL     OW21286   3.732   1.326  13.234
 6907SOL    HW121287   3.639   1.347  13.203
 6907SOL    HW221288   3.742   1.227  13.247
 6908SOL     OW21289   4.228   1.568  13.944
 6908SOL    HW121290   4.294   1.642  13.953
 6908SOL    HW221291   4.272   1.489  13.902
 6909SOL     OW21292   3.799   0.345  13.067
 6909SOL    HW121293   3.707   0.317  13.038
 6909SOL    HW221294   3.830   0.422  13.011
 6910SOL     OW21295   3.796   0.166  13.352
 6910SOL    HW121296   3.779   0.249  13.298
 6910SOL    HW221297   3.886   0.129  13.330
 6911SOL     OW21298   3.803   1.240  13.687
 6911SOL    HW121299   3.802   1.193  13.775
 6911SOL    HW221300   3.885   1.212  13.636
 6912SOL     OW21301   3.763   1.077  13.334
 6912SOL    HW121302   3.862   1.066  13.325
 6912SOL    HW221303   3.723   0.991  13.366
 6913SOL     OW21304   3.954   2.490   0.113
 6913SOL    HW121305   3.861   2.488   0.150
 6913SOL    HW221306   3.955   2.451   0.021
 6914SOL     OW21307   3.949   2.137   0.996
 6914SOL    HW121308   3.984   2.120   1.088
 6914SOL    HW221309   3.861   2.092   0.984
 6915SOL     OW21310   3.743   2.230   0.647
 6915SOL    HW121311   3.661   2.273   0.686
 6915SOL    HW221312   3.715   2.157   0.584
 6916SOL     OW21313   4.059   3.297   1.061
 6916SOL    HW121314   3.981   3.266   1.008
 6916SOL    HW221315   4.117   3.355   1.004
 6917SOL     OW21316   3.955   3.575   0.483
 6917SOL    HW121317   3.989   3.652   0.537
 6917SOL    HW221318   3.999   3.575   0.393
 6918SOL     OW21319   3.954   3.296   0.538
 6918SOL    HW121320   3.928   3.392   0.538
 6918SOL    HW221321   3.883   3.242   0.583
 6919SOL     OW21322   3.846   2.505   0.563
 6919SOL    HW121323   3.801   2.417   0.580
 6919SOL    HW221324   3.845   2.559   0.647
 6920SOL     OW21325   3.751   3.458   0.117
 6920SOL    HW121326   3.732   3.362   0.138
 6920SOL    HW221327   3.718   3.516   0.192
 6921SOL     OW21328   3.837   2.599   1.597
 6921SOL    HW121329   3.925   2.586   1.642
 6921SOL    HW221330   3.824   2.696   1.575
 6922SOL     OW21331   3.800   2.673   0.789
 6922SOL    HW121332   3.899   2.661   0.798
 6922SOL    HW221333   3.776   2.768   0.810
 6923SOL     OW21334   3.854   3.683   1.571
 6923SOL    HW121335   3.844   3.668   1.670
 6923SOL    HW221336   3.768   3.719   1.535
 6924SOL     OW21337   3.926   2.147   1.498
 6924SOL    HW121338   3.846   2.207   1.485
 6924SOL    HW221339   3.916   2.098   1.584
 6925SOL     OW21340   3.802   2.418   1.386
 6925SOL    HW121341   3.894   2.417   1.345
 6925SOL    HW221342   3.796   2.492   1.453
 6926SOL     OW21343   3.788   3.426   1.331
 6926SOL    HW121344   3.742   3.508   1.297
 6926SOL    HW221345   3.886   3.445   1.340
 6927SOL     OW21346   4.091   2.962   0.501
 6927SOL    HW121347   4.084   3.045   0.445
 6927SOL    HW221348   4.095   2.882   0.441
 6928SOL     OW21349   4.031   2.075   1.231
 6928SOL    HW121350   4.008   2.112   1.321
 6928SOL    HW221351   4.001   1.980   1.225
 6929SOL     OW21352   3.761   3.172   1.282
 6929SOL    HW121353   3.814   3.123   1.350
 6929SOL    HW221354   3.783   3.270   1.287
 6930SOL     OW21355   4.031   1.925   0.618
 6930SOL    HW121356   4.020   2.019   0.651
 6930SOL    HW221357   4.026   1.862   0.695
 6931SOL     OW21358   3.732   3.188   0.200
 6931SOL    HW121359   3.639   3.209   0.169
 6931SOL    HW221360   3.742   3.089   0.213
 6932SOL     OW21361   3.812   3.663   0.927
 6932SOL    HW121362   3.770   3.577   0.900
 6932SOL    HW221363   3.906   3.666   0.893
 6933SOL     OW21364   4.228   3.430   0.910
 6933SOL    HW121365   4.294   3.504   0.919
 6933SOL    HW221366   4.272   3.351   0.868
 6934SOL     OW21367   3.764   2.406   1.114
 6934SOL    HW121368   3.849   2.373   1.073
 6934SOL    HW221369   3.777   2.421   1.212
 6935SOL     OW21370   3.913   2.382   1.722
 6935SOL    HW121371   3.972   2.342   1.652
 6935SOL    HW221372   3.855   2.453   1.681
 6936SOL     OW21373   3.976   3.426   1.744
 6936SOL    HW121374   3.946   3.483   1.820
 6936SOL    HW221375   3.969   3.329   1.770
 6937SOL     OW21376   3.883   2.999   1.466
 6937SOL    HW121377   3.905   2.938   1.542
 6937SOL    HW221378   3.893   2.950   1.380
 6938SOL     OW21379   3.807   3.120   1.022
 6938SOL    HW121380   3.802   3.119   1.122
 6938SOL    HW221381   3.724   3.079   0.984
 6939SOL     OW21382   3.854   3.656   1.851
 6939SOL    HW121383   3.813   3.582   1.904
 6939SOL    HW221384   3.918   3.707   1.909
 6940SOL     OW21385   3.799   2.207   0.033
 6940SOL    HW121386   3.707   2.179   0.004
 6940SOL    HW221387   3.830   2.284  -0.023
 6941SOL     OW21388   3.796   2.028   0.318
 6941SOL    HW121389   3.779   2.111   0.264
 6941SOL    HW221390   3.886   1.991   0.296
 6942SOL     OW21391   3.803   3.102   0.653
 6942SOL    HW121392   3.802   3.055   0.741
 6942SOL    HW221393   3.885   3.074   0.602
 6943SOL     OW21394   3.763   2.939   0.300
 6943SOL    HW121395   3.862   2.928   0.291
 6943SOL    HW221396   3.723   2.853   0.332
 6944SOL     OW21397   3.954   2.490   1.975
 6944SOL    HW121398   3.861   2.488   2.012
 6944SOL    HW221399   3.955   2.451   1.883
 6945SOL     OW21400   3.949   2.137   2.858
 6945SOL    HW121401   3.984   2.120   2.950
 6945SOL    HW221402   3.861   2.092   2.846
 6946SOL     OW21403   3.743   2.230   2.509
 6946SOL    HW121404   3.661   2.273   2.548
 6946SOL    HW221405   3.715   2.157   2.446
 6947SOL     OW21406   4.059   3.297   2.923
 6947SOL    HW121407   3.981   3.266   2.870
 6947SOL    HW221408   4.117   3.355   2.866
 6948SOL     OW21409   3.955   3.575   2.345
 6948SOL    HW121410   3.989   3.652   2.399
 6948SOL    HW221411   3.999   3.575   2.255
 6949SOL     OW21412   3.954   3.296   2.400
 6949SOL    HW121413   3.928   3.392   2.400
 6949SOL    HW221414   3.883   3.242   2.445
 6950SOL     OW21415   3.846   2.505   2.425
 6950SOL    HW121416   3.801   2.417   2.442
 6950SOL    HW221417   3.845   2.559   2.509
 6951SOL     OW21418   3.751   3.458   1.979
 6951SOL    HW121419   3.732   3.362   2.000
 6951SOL    HW221420   3.718   3.516   2.054
 6952SOL     OW21421   3.837   2.599   3.459
 6952SOL    HW121422   3.925   2.586   3.504
 6952SOL    HW221423   3.824   2.696   3.437
 6953SOL     OW21424   3.800   2.673   2.651
 6953SOL    HW121425   3.899   2.661   2.660
 6953SOL    HW221426   3.776   2.768   2.672
 6954SOL     OW21427   3.854   3.683   3.433
 6954SOL    HW121428   3.844   3.668   3.532
 6954SOL    HW221429   3.768   3.719   3.397
 6955SOL     OW21430   3.926   2.147   3.360
 6955SOL    HW121431   3.846   2.207   3.347
 6955SOL    HW221432   3.916   2.098   3.446
 6956SOL     OW21433   4.021   1.897   2.033
 6956SOL    HW121434   4.070   1.981   2.012
 6956SOL    HW221435   4.083   1.832   2.078
 6957SOL     OW21436   3.802   2.418   3.248
 6957SOL    HW121437   3.894   2.417   3.207
 6957SOL    HW221438   3.796   2.492   3.315
 6958SOL     OW21439   4.251   2.118   2.190
 6958SOL    HW121440   4.278   2.059   2.115
 6958SOL    HW221441   4.251   2.213   2.159
 6959SOL     OW21442   3.788   3.426   3.193
 6959SOL    HW121443   3.742   3.508   3.159
 6959SOL    HW221444   3.886   3.445   3.202
 6960SOL     OW21445   4.091   2.962   2.363
 6960SOL    HW121446   4.084   3.045   2.307
 6960SOL    HW221447   4.095   2.882   2.303
 6961SOL     OW21448   4.031   2.075   3.093
 6961SOL    HW121449   4.008   2.112   3.183
 6961SOL    HW221450   4.001   1.980   3.087
 6962SOL     OW21451   3.761   3.172   3.144
 6962SOL    HW121452   3.814   3.123   3.212
 6962SOL    HW221453   3.783   3.270   3.149
 6963SOL     OW21454   4.031   1.925   2.480
 6963SOL    HW121455   4.020   2.019   2.513
 6963SOL    HW221456   4.026   1.862   2.557
 6964SOL     OW21457   3.732   3.188   2.062
 6964SOL    HW121458   3.639   3.209   2.031
 6964SOL    HW221459   3.742   3.089   2.075
 6965SOL     OW21460   3.812   3.663   2.789
 6965SOL    HW121461   3.770   3.577   2.762
 6965SOL    HW221462   3.906   3.666   2.755
 6966SOL     OW21463   4.228   3.430   2.772
 6966SOL    HW121464   4.294   3.504   2.781
 6966SOL    HW221465   4.272   3.351   2.730
 6967SOL     OW21466   3.764   2.406   2.976
 6967SOL    HW121467   3.849   2.373   2.935
 6967SOL    HW221468   3.777   2.421   3.074
 6968SOL     OW21469   3.913   2.382   3.584
 6968SOL    HW121470   3.972   2.342   3.514
 6968SOL    HW221471   3.855   2.453   3.543
 6969SOL     OW21472   3.976   3.426   3.606
 6969SOL    HW121473   3.946   3.483   3.682
 6969SOL    HW221474   3.969   3.329   3.632
 6970SOL     OW21475   3.883   2.999   3.328
 6970SOL    HW121476   3.905   2.938   3.404
 6970SOL    HW221477   3.893   2.950   3.242
 6971SOL     OW21478   3.807   3.120   2.884
 6971SOL    HW121479   3.802   3.119   2.984
 6971SOL    HW221480   3.724   3.079   2.846
 6972SOL     OW21481   3.854   3.656   3.713
 6972SOL    HW121482   3.813   3.582   3.766
 6972SOL    HW221483   3.918   3.707   3.771
 6973SOL     OW21484   3.799   2.207   1.895
 6973SOL    HW121485   3.707   2.179   1.866
 6973SOL    HW221486   3.830   2.284   1.839
 6974SOL     OW21487   3.796   2.028   2.180
 6974SOL    HW121488   3.779   2.111   2.126
 6974SOL    HW221489   3.886   1.991   2.158
 6975SOL     OW21490   3.803   3.102   2.515
 6975SOL    HW121491   3.802   3.055   2.603
 6975SOL    HW221492   3.885   3.074   2.464
 6976SOL     OW21493   3.763   2.939   2.162
 6976SOL    HW121494   3.862   2.928   2.153
 6976SOL    HW221495   3.723   2.853   2.194
 6977SOL     OW21496   3.954   2.490   3.837
 6977SOL    HW121497   3.861   2.488   3.874
 6977SOL    HW221498   3.955   2.451   3.745
 6978SOL     OW21499   3.949   2.137   4.720
 6978SOL    HW121500   3.984   2.120   4.812
 6978SOL    HW221501   3.861   2.092   4.708
 6979SOL     OW21502   3.743   2.230   4.371
 6979SOL    HW121503   3.661   2.273   4.410
 6979SOL    HW221504   3.715   2.157   4.308
 6980SOL     OW21505   4.059   3.297   4.785
 6980SOL    HW121506   3.981   3.266   4.732
 6980SOL    HW221507   4.117   3.355   4.728
 6981SOL     OW21508   3.955   3.575   4.207
 6981SOL    HW121509   3.989   3.652   4.261
 6981SOL    HW221510   3.999   3.575   4.117
 6982SOL     OW21511   3.954   3.296   4.262
 6982SOL    HW121512   3.928   3.392   4.262
 6982SOL    HW221513   3.883   3.242   4.307
 6983SOL     OW21514   3.846   2.505   4.287
 6983SOL    HW121515   3.801   2.417   4.304
 6983SOL    HW221516   3.845   2.559   4.371
 6984SOL     OW21517   3.751   3.458   3.841
 6984SOL    HW121518   3.732   3.362   3.862
 6984SOL    HW221519   3.718   3.516   3.916
 6985SOL     OW21520   3.837   2.599   5.321
 6985SOL    HW121521   3.925   2.586   5.366
 6985SOL    HW221522   3.824   2.696   5.299
 6986SOL     OW21523   3.800   2.673   4.513
 6986SOL    HW121524   3.899   2.661   4.522
 6986SOL    HW221525   3.776   2.768   4.534
 6987SOL     OW21526   3.854   3.683   5.295
 6987SOL    HW121527   3.844   3.668   5.394
 6987SOL    HW221528   3.768   3.719   5.259
 6988SOL     OW21529   3.926   2.147   5.222
 6988SOL    HW121530   3.846   2.207   5.209
 6988SOL    HW221531   3.916   2.098   5.308
 6989SOL     OW21532   4.021   1.897   3.895
 6989SOL    HW121533   4.070   1.981   3.874
 6989SOL    HW221534   4.083   1.832   3.940
 6990SOL     OW21535   3.802   2.418   5.110
 6990SOL    HW121536   3.894   2.417   5.069
 6990SOL    HW221537   3.796   2.492   5.177
 6991SOL     OW21538   4.251   2.118   4.052
 6991SOL    HW121539   4.278   2.059   3.977
 6991SOL    HW221540   4.251   2.213   4.021
 6992SOL     OW21541   3.788   3.426   5.055
 6992SOL    HW121542   3.742   3.508   5.021
 6992SOL    HW221543   3.886   3.445   5.064
 6993SOL     OW21544   4.091   2.962   4.225
 6993SOL    HW121545   4.084   3.045   4.169
 6993SOL    HW221546   4.095   2.882   4.165
 6994SOL     OW21547   4.031   2.075   4.955
 6994SOL    HW121548   4.008   2.112   5.045
 6994SOL    HW221549   4.001   1.980   4.949
 6995SOL     OW21550   3.761   3.172   5.006
 6995SOL    HW121551   3.814   3.123   5.074
 6995SOL    HW221552   3.783   3.270   5.011
 6996SOL     OW21553   4.031   1.925   4.342
 6996SOL    HW121554   4.020   2.019   4.375
 6996SOL    HW221555   4.026   1.862   4.419
 6997SOL     OW21556   3.732   3.188   3.924
 6997SOL    HW121557   3.639   3.209   3.893
 6997SOL    HW221558   3.742   3.089   3.937
 6998SOL     OW21559   3.812   3.663   4.651
 6998SOL    HW121560   3.770   3.577   4.624
 6998SOL    HW221561   3.906   3.666   4.617
 6999SOL     OW21562   4.228   3.430   4.634
 6999SOL    HW121563   4.294   3.504   4.643
 6999SOL    HW221564   4.272   3.351   4.592
 7000SOL     OW21565   3.764   2.406   4.838
 7000SOL    HW121566   3.849   2.373   4.797
 7000SOL    HW221567   3.777   2.421   4.936
 7001SOL     OW21568   3.913   2.382   5.446
 7001SOL    HW121569   3.972   2.342   5.376
 7001SOL    HW221570   3.855   2.453   5.405
 7002SOL     OW21571   3.976   3.426   5.468
 7002SOL    HW121572   3.946   3.483   5.544
 7002SOL    HW221573   3.969   3.329   5.494
 7003SOL     OW21574   3.883   2.999   5.190
 7003SOL    HW121575   3.905   2.938   5.266
 7003SOL    HW221576   3.893   2.950   5.104
 7004SOL     OW21577   3.807   3.120   4.746
 7004SOL    HW121578   3.802   3.119   4.846
 7004SOL    HW221579   3.724   3.079   4.708
 7005SOL     OW21580   3.854   3.656   5.575
 7005SOL    HW121581   3.813   3.582   5.628
 7005SOL    HW221582   3.918   3.707   5.633
 7006SOL     OW21583   3.799   2.207   3.757
 7006SOL    HW121584   3.707   2.179   3.728
 7006SOL    HW221585   3.830   2.284   3.701
 7007SOL     OW21586   3.796   2.028   4.042
 7007SOL    HW121587   3.779   2.111   3.988
 7007SOL    HW221588   3.886   1.991   4.020
 7008SOL     OW21589   3.803   3.102   4.377
 7008SOL    HW121590   3.802   3.055   4.465
 7008SOL    HW221591   3.885   3.074   4.326
 7009SOL     OW21592   3.763   2.939   4.024
 7009SOL    HW121593   3.862   2.928   4.015
 7009SOL    HW221594   3.723   2.853   4.056
 7010SOL     OW21595   3.954   2.490   5.699
 7010SOL    HW121596   3.861   2.488   5.736
 7010SOL    HW221597   3.955   2.451   5.607
 7011SOL     OW21598   3.949   2.137   6.582
 7011SOL    HW121599   3.984   2.120   6.674
 7011SOL    HW221600   3.861   2.092   6.570
 7012SOL     OW21601   3.743   2.230   6.233
 7012SOL    HW121602   3.661   2.273   6.272
 7012SOL    HW221603   3.715   2.157   6.170
 7013SOL     OW21604   4.059   3.297   6.647
 7013SOL    HW121605   3.981   3.266   6.594
 7013SOL    HW221606   4.117   3.355   6.590
 7014SOL     OW21607   3.955   3.575   6.069
 7014SOL    HW121608   3.989   3.652   6.123
 7014SOL    HW221609   3.999   3.575   5.979
 7015SOL     OW21610   3.954   3.296   6.124
 7015SOL    HW121611   3.928   3.392   6.124
 7015SOL    HW221612   3.883   3.242   6.169
 7016SOL     OW21613   3.846   2.505   6.149
 7016SOL    HW121614   3.801   2.417   6.166
 7016SOL    HW221615   3.845   2.559   6.233
 7017SOL     OW21616   3.751   3.458   5.703
 7017SOL    HW121617   3.732   3.362   5.724
 7017SOL    HW221618   3.718   3.516   5.778
 7018SOL     OW21619   3.837   2.599   7.183
 7018SOL    HW121620   3.925   2.586   7.228
 7018SOL    HW221621   3.824   2.696   7.161
 7019SOL     OW21622   3.800   2.673   6.375
 7019SOL    HW121623   3.899   2.661   6.384
 7019SOL    HW221624   3.776   2.768   6.396
 7020SOL     OW21625   3.854   3.683   7.157
 7020SOL    HW121626   3.844   3.668   7.256
 7020SOL    HW221627   3.768   3.719   7.121
 7021SOL     OW21628   3.926   2.147   7.084
 7021SOL    HW121629   3.846   2.207   7.071
 7021SOL    HW221630   3.916   2.098   7.170
 7022SOL     OW21631   4.021   1.897   5.757
 7022SOL    HW121632   4.070   1.981   5.736
 7022SOL    HW221633   4.083   1.832   5.802
 7023SOL     OW21634   3.802   2.418   6.972
 7023SOL    HW121635   3.894   2.417   6.931
 7023SOL    HW221636   3.796   2.492   7.039
 7024SOL     OW21637   4.251   2.118   5.914
 7024SOL    HW121638   4.278   2.059   5.839
 7024SOL    HW221639   4.251   2.213   5.883
 7025SOL     OW21640   3.788   3.426   6.917
 7025SOL    HW121641   3.742   3.508   6.883
 7025SOL    HW221642   3.886   3.445   6.926
 7026SOL     OW21643   4.091   2.962   6.087
 7026SOL    HW121644   4.084   3.045   6.031
 7026SOL    HW221645   4.095   2.882   6.027
 7027SOL     OW21646   4.031   2.075   6.817
 7027SOL    HW121647   4.008   2.112   6.907
 7027SOL    HW221648   4.001   1.980   6.811
 7028SOL     OW21649   3.761   3.172   6.868
 7028SOL    HW121650   3.814   3.123   6.936
 7028SOL    HW221651   3.783   3.270   6.873
 7029SOL     OW21652   4.031   1.925   6.204
 7029SOL    HW121653   4.020   2.019   6.237
 7029SOL    HW221654   4.026   1.862   6.281
 7030SOL     OW21655   3.732   3.188   5.786
 7030SOL    HW121656   3.639   3.209   5.755
 7030SOL    HW221657   3.742   3.089   5.799
 7031SOL     OW21658   3.812   3.663   6.513
 7031SOL    HW121659   3.770   3.577   6.486
 7031SOL    HW221660   3.906   3.666   6.479
 7032SOL     OW21661   4.228   3.430   6.496
 7032SOL    HW121662   4.294   3.504   6.505
 7032SOL    HW221663   4.272   3.351   6.454
 7033SOL     OW21664   3.764   2.406   6.700
 7033SOL    HW121665   3.849   2.373   6.659
 7033SOL    HW221666   3.777   2.421   6.798
 7034SOL     OW21667   3.913   2.382   7.308
 7034SOL    HW121668   3.972   2.342   7.238
 7034SOL    HW221669   3.855   2.453   7.267
 7035SOL     OW21670   3.976   3.426   7.330
 7035SOL    HW121671   3.946   3.483   7.406
 7035SOL    HW221672   3.969   3.329   7.356
 7036SOL     OW21673   3.883   2.999   7.052
 7036SOL    HW121674   3.905   2.938   7.128
 7036SOL    HW221675   3.893   2.950   6.966
 7037SOL     OW21676   3.807   3.120   6.608
 7037SOL    HW121677   3.802   3.119   6.708
 7037SOL    HW221678   3.724   3.079   6.570
 7038SOL     OW21679   3.854   3.656   7.437
 7038SOL    HW121680   3.813   3.582   7.490
 7038SOL    HW221681   3.918   3.707   7.495
 7039SOL     OW21682   3.799   2.207   5.619
 7039SOL    HW121683   3.707   2.179   5.590
 7039SOL    HW221684   3.830   2.284   5.563
 7040SOL     OW21685   3.796   2.028   5.904
 7040SOL    HW121686   3.779   2.111   5.850
 7040SOL    HW221687   3.886   1.991   5.882
 7041SOL     OW21688   3.803   3.102   6.239
 7041SOL    HW121689   3.802   3.055   6.327
 7041SOL    HW221690   3.885   3.074   6.188
 7042SOL     OW21691   3.763   2.939   5.886
 7042SOL    HW121692   3.862   2.928   5.877
 7042SOL    HW221693   3.723   2.853   5.918
 7043SOL     OW21694   3.954   2.490   7.561
 7043SOL    HW121695   3.861   2.488   7.598
 7043SOL    HW221696   3.955   2.451   7.469
 7044SOL     OW21697   3.949   2.137   8.444
 7044SOL    HW121698   3.984   2.120   8.536
 7044SOL    HW221699   3.861   2.092   8.432
 7045SOL     OW21700   3.743   2.230   8.095
 7045SOL    HW121701   3.661   2.273   8.134
 7045SOL    HW221702   3.715   2.157   8.032
 7046SOL     OW21703   4.059   3.297   8.509
 7046SOL    HW121704   3.981   3.266   8.456
 7046SOL    HW221705   4.117   3.355   8.452
 7047SOL     OW21706   3.955   3.575   7.931
 7047SOL    HW121707   3.989   3.652   7.985
 7047SOL    HW221708   3.999   3.575   7.841
 7048SOL     OW21709   3.954   3.296   7.986
 7048SOL    HW121710   3.928   3.392   7.986
 7048SOL    HW221711   3.883   3.242   8.031
 7049SOL     OW21712   3.846   2.505   8.011
 7049SOL    HW121713   3.801   2.417   8.028
 7049SOL    HW221714   3.845   2.559   8.095
 7050SOL     OW21715   3.751   3.458   7.565
 7050SOL    HW121716   3.732   3.362   7.586
 7050SOL    HW221717   3.718   3.516   7.640
 7051SOL     OW21718   3.837   2.599   9.045
 7051SOL    HW121719   3.925   2.586   9.090
 7051SOL    HW221720   3.824   2.696   9.023
 7052SOL     OW21721   3.800   2.673   8.237
 7052SOL    HW121722   3.899   2.661   8.246
 7052SOL    HW221723   3.776   2.768   8.258
 7053SOL     OW21724   3.854   3.683   9.019
 7053SOL    HW121725   3.844   3.668   9.118
 7053SOL    HW221726   3.768   3.719   8.983
 7054SOL     OW21727   3.926   2.147   8.946
 7054SOL    HW121728   3.846   2.207   8.933
 7054SOL    HW221729   3.916   2.098   9.032
 7055SOL     OW21730   4.021   1.897   7.619
 7055SOL    HW121731   4.070   1.981   7.598
 7055SOL    HW221732   4.083   1.832   7.664
 7056SOL     OW21733   3.802   2.418   8.834
 7056SOL    HW121734   3.894   2.417   8.793
 7056SOL    HW221735   3.796   2.492   8.901
 7057SOL     OW21736   4.251   2.118   7.776
 7057SOL    HW121737   4.278   2.059   7.701
 7057SOL    HW221738   4.251   2.213   7.745
 7058SOL     OW21739   3.788   3.426   8.779
 7058SOL    HW121740   3.742   3.508   8.745
 7058SOL    HW221741   3.886   3.445   8.788
 7059SOL     OW21742   4.091   2.962   7.949
 7059SOL    HW121743   4.084   3.045   7.893
 7059SOL    HW221744   4.095   2.882   7.889
 7060SOL     OW21745   4.031   2.075   8.679
 7060SOL    HW121746   4.008   2.112   8.769
 7060SOL    HW221747   4.001   1.980   8.673
 7061SOL     OW21748   3.761   3.172   8.730
 7061SOL    HW121749   3.814   3.123   8.798
 7061SOL    HW221750   3.783   3.270   8.735
 7062SOL     OW21751   4.031   1.925   8.066
 7062SOL    HW121752   4.020   2.019   8.099
 7062SOL    HW221753   4.026   1.862   8.143
 7063SOL     OW21754   3.732   3.188   7.648
 7063SOL    HW121755   3.639   3.209   7.617
 7063SOL    HW221756   3.742   3.089   7.661
 7064SOL     OW21757   3.812   3.663   8.375
 7064SOL    HW121758   3.770   3.577   8.348
 7064SOL    HW221759   3.906   3.666   8.341
 7065SOL     OW21760   4.228   3.430   8.358
 7065SOL    HW121761   4.294   3.504   8.367
 7065SOL    HW221762   4.272   3.351   8.316
 7066SOL     OW21763   3.764   2.406   8.562
 7066SOL    HW121764   3.849   2.373   8.521
 7066SOL    HW221765   3.777   2.421   8.660
 7067SOL     OW21766   3.913   2.382   9.170
 7067SOL    HW121767   3.972   2.342   9.100
 7067SOL    HW221768   3.855   2.453   9.129
 7068SOL     OW21769   3.976   3.426   9.192
 7068SOL    HW121770   3.946   3.483   9.268
 7068SOL    HW221771   3.969   3.329   9.218
 7069SOL     OW21772   3.883   2.999   8.914
 7069SOL    HW121773   3.905   2.938   8.990
 7069SOL    HW221774   3.893   2.950   8.828
 7070SOL     OW21775   3.807   3.120   8.470
 7070SOL    HW121776   3.802   3.119   8.570
 7070SOL    HW221777   3.724   3.079   8.432
 7071SOL     OW21778   3.854   3.656   9.299
 7071SOL    HW121779   3.813   3.582   9.352
 7071SOL    HW221780   3.918   3.707   9.357
 7072SOL     OW21781   3.799   2.207   7.481
 7072SOL    HW121782   3.707   2.179   7.452
 7072SOL    HW221783   3.830   2.284   7.425
 7073SOL     OW21784   3.796   2.028   7.766
 7073SOL    HW121785   3.779   2.111   7.712
 7073SOL    HW221786   3.886   1.991   7.744
 7074SOL     OW21787   3.803   3.102   8.101
 7074SOL    HW121788   3.802   3.055   8.189
 7074SOL    HW221789   3.885   3.074   8.050
 7075SOL     OW21790   3.763   2.939   7.748
 7075SOL    HW121791   3.862   2.928   7.739
 7075SOL    HW221792   3.723   2.853   7.780
 7076SOL     OW21793   3.954   2.490   9.423
 7076SOL    HW121794   3.861   2.488   9.460
 7076SOL    HW221795   3.955   2.451   9.331
 7077SOL     OW21796   3.949   2.137  10.306
 7077SOL    HW121797   3.984   2.120  10.398
 7077SOL    HW221798   3.861   2.092  10.294
 7078SOL     OW21799   3.743   2.230   9.957
 7078SOL    HW121800   3.661   2.273   9.996
 7078SOL    HW221801   3.715   2.157   9.894
 7079SOL     OW21802   4.059   3.297  10.371
 7079SOL    HW121803   3.981   3.266  10.318
 7079SOL    HW221804   4.117   3.355  10.314
 7080SOL     OW21805   3.955   3.575   9.793
 7080SOL    HW121806   3.989   3.652   9.847
 7080SOL    HW221807   3.999   3.575   9.703
 7081SOL     OW21808   3.954   3.296   9.848
 7081SOL    HW121809   3.928   3.392   9.848
 7081SOL    HW221810   3.883   3.242   9.893
 7082SOL     OW21811   3.846   2.505   9.873
 7082SOL    HW121812   3.801   2.417   9.890
 7082SOL    HW221813   3.845   2.559   9.957
 7083SOL     OW21814   3.751   3.458   9.427
 7083SOL    HW121815   3.732   3.362   9.448
 7083SOL    HW221816   3.718   3.516   9.502
 7084SOL     OW21817   3.837   2.599  10.907
 7084SOL    HW121818   3.925   2.586  10.952
 7084SOL    HW221819   3.824   2.696  10.885
 7085SOL     OW21820   3.800   2.673  10.099
 7085SOL    HW121821   3.899   2.661  10.108
 7085SOL    HW221822   3.776   2.768  10.120
 7086SOL     OW21823   3.854   3.683  10.881
 7086SOL    HW121824   3.844   3.668  10.980
 7086SOL    HW221825   3.768   3.719  10.845
 7087SOL     OW21826   3.926   2.147  10.808
 7087SOL    HW121827   3.846   2.207  10.795
 7087SOL    HW221828   3.916   2.098  10.894
 7088SOL     OW21829   4.021   1.897   9.481
 7088SOL    HW121830   4.070   1.981   9.460
 7088SOL    HW221831   4.083   1.832   9.526
 7089SOL     OW21832   3.802   2.418  10.696
 7089SOL    HW121833   3.894   2.417  10.655
 7089SOL    HW221834   3.796   2.492  10.763
 7090SOL     OW21835   4.251   2.118   9.638
 7090SOL    HW121836   4.278   2.059   9.563
 7090SOL    HW221837   4.251   2.213   9.607
 7091SOL     OW21838   3.788   3.426  10.641
 7091SOL    HW121839   3.742   3.508  10.607
 7091SOL    HW221840   3.886   3.445  10.650
 7092SOL     OW21841   4.091   2.962   9.811
 7092SOL    HW121842   4.084   3.045   9.755
 7092SOL    HW221843   4.095   2.882   9.751
 7093SOL     OW21844   4.031   2.075  10.541
 7093SOL    HW121845   4.008   2.112  10.631
 7093SOL    HW221846   4.001   1.980  10.535
 7094SOL     OW21847   3.761   3.172  10.592
 7094SOL    HW121848   3.814   3.123  10.660
 7094SOL    HW221849   3.783   3.270  10.597
 7095SOL     OW21850   4.031   1.925   9.928
 7095SOL    HW121851   4.020   2.019   9.961
 7095SOL    HW221852   4.026   1.862  10.005
 7096SOL     OW21853   3.732   3.188   9.510
 7096SOL    HW121854   3.639   3.209   9.479
 7096SOL    HW221855   3.742   3.089   9.523
 7097SOL     OW21856   3.812   3.663  10.237
 7097SOL    HW121857   3.770   3.577  10.210
 7097SOL    HW221858   3.906   3.666  10.203
 7098SOL     OW21859   4.228   3.430  10.220
 7098SOL    HW121860   4.294   3.504  10.229
 7098SOL    HW221861   4.272   3.351  10.178
 7099SOL     OW21862   3.764   2.406  10.424
 7099SOL    HW121863   3.849   2.373  10.383
 7099SOL    HW221864   3.777   2.421  10.522
 7100SOL     OW21865   3.913   2.382  11.032
 7100SOL    HW121866   3.972   2.342  10.962
 7100SOL    HW221867   3.855   2.453  10.991
 7101SOL     OW21868   3.976   3.426  11.054
 7101SOL    HW121869   3.946   3.483  11.130
 7101SOL    HW221870   3.969   3.329  11.080
 7102SOL     OW21871   3.883   2.999  10.776
 7102SOL    HW121872   3.905   2.938  10.852
 7102SOL    HW221873   3.893   2.950  10.690
 7103SOL     OW21874   3.807   3.120  10.332
 7103SOL    HW121875   3.802   3.119  10.432
 7103SOL    HW221876   3.724   3.079  10.294
 7104SOL     OW21877   3.854   3.656  11.161
 7104SOL    HW121878   3.813   3.582  11.214
 7104SOL    HW221879   3.918   3.707  11.219
 7105SOL     OW21880   3.799   2.207   9.343
 7105SOL    HW121881   3.707   2.179   9.314
 7105SOL    HW221882   3.830   2.284   9.287
 7106SOL     OW21883   3.796   2.028   9.628
 7106SOL    HW121884   3.779   2.111   9.574
 7106SOL    HW221885   3.886   1.991   9.606
 7107SOL     OW21886   3.803   3.102   9.963
 7107SOL    HW121887   3.802   3.055  10.051
 7107SOL    HW221888   3.885   3.074   9.912
 7108SOL     OW21889   3.763   2.939   9.610
 7108SOL    HW121890   3.862   2.928   9.601
 7108SOL    HW221891   3.723   2.853   9.642
 7109SOL     OW21892   3.954   2.490  11.285
 7109SOL    HW121893   3.861   2.488  11.322
 7109SOL    HW221894   3.955   2.451  11.193
 7110SOL     OW21895   3.949   2.137  12.168
 7110SOL    HW121896   3.984   2.120  12.260
 7110SOL    HW221897   3.861   2.092  12.156
 7111SOL     OW21898   3.743   2.230  11.819
 7111SOL    HW121899   3.661   2.273  11.858
 7111SOL    HW221900   3.715   2.157  11.756
 7112SOL     OW21901   4.059   3.297  12.233
 7112SOL    HW121902   3.981   3.266  12.180
 7112SOL    HW221903   4.117   3.355  12.176
 7113SOL     OW21904   3.955   3.575  11.655
 7113SOL    HW121905   3.989   3.652  11.709
 7113SOL    HW221906   3.999   3.575  11.565
 7114SOL     OW21907   3.954   3.296  11.710
 7114SOL    HW121908   3.928   3.392  11.710
 7114SOL    HW221909   3.883   3.242  11.755
 7115SOL     OW21910   3.846   2.505  11.735
 7115SOL    HW121911   3.801   2.417  11.752
 7115SOL    HW221912   3.845   2.559  11.819
 7116SOL     OW21913   3.751   3.458  11.289
 7116SOL    HW121914   3.732   3.362  11.310
 7116SOL    HW221915   3.718   3.516  11.364
 7117SOL     OW21916   3.837   2.599  12.769
 7117SOL    HW121917   3.925   2.586  12.814
 7117SOL    HW221918   3.824   2.696  12.747
 7118SOL     OW21919   3.800   2.673  11.961
 7118SOL    HW121920   3.899   2.661  11.970
 7118SOL    HW221921   3.776   2.768  11.982
 7119SOL     OW21922   3.854   3.683  12.743
 7119SOL    HW121923   3.844   3.668  12.842
 7119SOL    HW221924   3.768   3.719  12.707
 7120SOL     OW21925   3.926   2.147  12.670
 7120SOL    HW121926   3.846   2.207  12.657
 7120SOL    HW221927   3.916   2.098  12.756
 7121SOL     OW21928   4.021   1.897  11.343
 7121SOL    HW121929   4.070   1.981  11.322
 7121SOL    HW221930   4.083   1.832  11.388
 7122SOL     OW21931   3.802   2.418  12.558
 7122SOL    HW121932   3.894   2.417  12.517
 7122SOL    HW221933   3.796   2.492  12.625
 7123SOL     OW21934   4.251   2.118  11.500
 7123SOL    HW121935   4.278   2.059  11.425
 7123SOL    HW221936   4.251   2.213  11.469
 7124SOL     OW21937   3.788   3.426  12.503
 7124SOL    HW121938   3.742   3.508  12.469
 7124SOL    HW221939   3.886   3.445  12.512
 7125SOL     OW21940   4.091   2.962  11.673
 7125SOL    HW121941   4.084   3.045  11.617
 7125SOL    HW221942   4.095   2.882  11.613
 7126SOL     OW21943   4.031   2.075  12.403
 7126SOL    HW121944   4.008   2.112  12.493
 7126SOL    HW221945   4.001   1.980  12.397
 7127SOL     OW21946   3.761   3.172  12.454
 7127SOL    HW121947   3.814   3.123  12.522
 7127SOL    HW221948   3.783   3.270  12.459
 7128SOL     OW21949   4.031   1.925  11.790
 7128SOL    HW121950   4.020   2.019  11.823
 7128SOL    HW221951   4.026   1.862  11.867
 7129SOL     OW21952   3.732   3.188  11.372
 7129SOL    HW121953   3.639   3.209  11.341
 7129SOL    HW221954   3.742   3.089  11.385
 7130SOL     OW21955   3.812   3.663  12.099
 7130SOL    HW121956   3.770   3.577  12.072
 7130SOL    HW221957   3.906   3.666  12.065
 7131SOL     OW21958   4.228   3.430  12.082
 7131SOL    HW121959   4.294   3.504  12.091
 7131SOL    HW221960   4.272   3.351  12.040
 7132SOL     OW21961   3.764   2.406  12.286
 7132SOL    HW121962   3.849   2.373  12.245
 7132SOL    HW221963   3.777   2.421  12.384
 7133SOL     OW21964   3.913   2.382  12.894
 7133SOL    HW121965   3.972   2.342  12.824
 7133SOL    HW221966   3.855   2.453  12.853
 7134SOL     OW21967   3.976   3.426  12.916
 7134SOL    HW121968   3.946   3.483  12.992
 7134SOL    HW221969   3.969   3.329  12.942
 7135SOL     OW21970   3.883   2.999  12.638
 7135SOL    HW121971   3.905   2.938  12.714
 7135SOL    HW221972   3.893   2.950  12.552
 7136SOL     OW21973   3.807   3.120  12.194
 7136SOL    HW121974   3.802   3.119  12.294
 7136SOL    HW221975   3.724   3.079  12.156
 7137SOL     OW21976   3.854   3.656  13.023
 7137SOL    HW121977   3.813   3.582  13.076
 7137SOL    HW221978   3.918   3.707  13.081
 7138SOL     OW21979   3.799   2.207  11.205
 7138SOL    HW121980   3.707   2.179  11.176
 7138SOL    HW221981   3.830   2.284  11.149
 7139SOL     OW21982   3.796   2.028  11.490
 7139SOL    HW121983   3.779   2.111  11.436
 7139SOL    HW221984   3.886   1.991  11.468
 7140SOL     OW21985   3.803   3.102  11.825
 7140SOL    HW121986   3.802   3.055  11.913
 7140SOL    HW221987   3.885   3.074  11.774
 7141SOL     OW21988   3.763   2.939  11.472
 7141SOL    HW121989   3.862   2.928  11.463
 7141SOL    HW221990   3.723   2.853  11.504
 7142SOL     OW21991   3.954   2.490  13.147
 7142SOL    HW121992   3.861   2.488  13.184
 7142SOL    HW221993   3.955   2.451  13.055
 7143SOL     OW21994   3.743   2.230  13.681
 7143SOL    HW121995   3.661   2.273  13.720
 7143SOL    HW221996   3.715   2.157  13.618
 7144SOL     OW21997   3.955   3.575  13.517
 7144SOL    HW121998   3.989   3.652  13.571
 7144SOL    HW221999   3.999   3.575  13.427
 7145SOL     OW22000   3.954   3.296  13.572
 7145SOL    HW122001   3.928   3.392  13.572
 7145SOL    HW222002   3.883   3.242  13.617
 7146SOL     OW22003   3.964   2.953  13.920
 7146SOL    HW122004   3.978   2.869  13.972
 7146SOL    HW222005   3.909   3.017  13.975
 7147SOL     OW22006   3.846   2.505  13.597
 7147SOL    HW122007   3.801   2.417  13.614
 7147SOL    HW222008   3.845   2.559  13.681
 7148SOL     OW22009   3.751   3.458  13.151
 7148SOL    HW122010   3.732   3.362  13.172
 7148SOL    HW222011   3.718   3.516  13.226
 7149SOL     OW22012   3.800   2.673  13.823
 7149SOL    HW122013   3.899   2.661  13.832
 7149SOL    HW222014   3.776   2.768  13.844
 7150SOL     OW22015   4.075   3.663  13.887
 7150SOL    HW122016   4.125   3.577  13.893
 7150SOL    HW222017   4.140   3.740  13.884
 7151SOL     OW22018   4.021   1.897  13.205
 7151SOL    HW122019   4.070   1.981  13.184
 7151SOL    HW222020   4.083   1.832  13.250
 7152SOL     OW22021   4.251   2.118  13.362
 7152SOL    HW122022   4.278   2.059  13.287
 7152SOL    HW222023   4.251   2.213  13.331
 7153SOL     OW22024   4.091   2.962  13.535
 7153SOL    HW122025   4.084   3.045  13.479
 7153SOL    HW222026   4.095   2.882  13.475
 7154SOL     OW22027   4.031   1.925  13.652
 7154SOL    HW122028   4.020   2.019  13.685
 7154SOL    HW222029   4.026   1.862  13.729
 7155SOL     OW22030   3.732   3.188  13.234
 7155SOL    HW122031   3.639   3.209  13.203
 7155SOL    HW222032   3.742   3.089  13.247
 7156SOL     OW22033   4.228   3.430  13.944
 7156SOL    HW122034   4.294   3.504  13.953
 7156SOL    HW222035   4.272   3.351  13.902
 7157SOL     OW22036   3.799   2.207  13.067
 7157SOL    HW122037   3.707   2.179  13.038
 7157SOL    HW222038   3.830   2.284  13.011
 7158SOL     OW22039   3.796   2.028  13.352
 7158SOL    HW122040   3.779   2.111  13.298
 7158SOL    HW222041   3.886   1.991  13.330
 7159SOL     OW22042   3.803   3.102  13.687
 7159SOL    HW122043   3.802   3.055  13.775
 7159SOL    HW222044   3.885   3.074  13.636
 7160SOL     OW22045   3.763   2.939  13.334
 7160SOL    HW122046   3.862   2.928  13.325
 7160SOL    HW222047   3.723   2.853  13.366
 7161SOL     OW22048   3.949   3.999   0.996
 7161SOL    HW122049   3.984   3.982   1.088
 7161SOL    HW222050   3.861   3.954   0.984
 7162SOL     OW22051   3.743   4.092   0.647
 7162SOL    HW122052   3.661   4.135   0.686
 7162SOL    HW222053   3.715   4.019   0.584
 7163SOL     OW22054   3.926   4.009   1.498
 7163SOL    HW122055   3.846   4.069   1.485
 7163SOL    HW222056   3.916   3.960   1.584
 7164SOL     OW22057   4.021   3.759   0.171
 7164SOL    HW122058   4.070   3.843   0.150
 7164SOL    HW222059   4.083   3.694   0.216
 7165SOL     OW22060   4.031   3.937   1.231
 7165SOL    HW122061   4.008   3.974   1.321
 7165SOL    HW222062   4.001   3.842   1.225
 7166SOL     OW22063   4.031   3.787   0.618
 7166SOL    HW122064   4.020   3.881   0.651
 7166SOL    HW222065   4.026   3.724   0.695
 7167SOL     OW22066   3.796   3.890   0.318
 7167SOL    HW122067   3.779   3.973   0.264
 7167SOL    HW222068   3.886   3.853   0.296
 7168SOL     OW22069   3.949   3.999   2.858
 7168SOL    HW122070   3.984   3.982   2.950
 7168SOL    HW222071   3.861   3.954   2.846
 7169SOL     OW22072   3.743   4.092   2.509
 7169SOL    HW122073   3.661   4.135   2.548
 7169SOL    HW222074   3.715   4.019   2.446
 7170SOL     OW22075   3.926   4.009   3.360
 7170SOL    HW122076   3.846   4.069   3.347
 7170SOL    HW222077   3.916   3.960   3.446
 7171SOL     OW22078   4.021   3.759   2.033
 7171SOL    HW122079   4.070   3.843   2.012
 7171SOL    HW222080   4.083   3.694   2.078
 7172SOL     OW22081   4.031   3.937   3.093
 7172SOL    HW122082   4.008   3.974   3.183
 7172SOL    HW222083   4.001   3.842   3.087
 7173SOL     OW22084   4.031   3.787   2.480
 7173SOL    HW122085   4.020   3.881   2.513
 7173SOL    HW222086   4.026   3.724   2.557
 7174SOL     OW22087   3.799   4.069   1.895
 7174SOL    HW122088   3.707   4.041   1.866
 7174SOL    HW222089   3.830   4.146   1.839
 7175SOL     OW22090   3.796   3.890   2.180
 7175SOL    HW122091   3.779   3.973   2.126
 7175SOL    HW222092   3.886   3.853   2.158
 7176SOL     OW22093   3.949   3.999   4.720
 7176SOL    HW122094   3.984   3.982   4.812
 7176SOL    HW222095   3.861   3.954   4.708
 7177SOL     OW22096   3.743   4.092   4.371
 7177SOL    HW122097   3.661   4.135   4.410
 7177SOL    HW222098   3.715   4.019   4.308
 7178SOL     OW22099   3.926   4.009   5.222
 7178SOL    HW122100   3.846   4.069   5.209
 7178SOL    HW222101   3.916   3.960   5.308
 7179SOL     OW22102   4.021   3.759   3.895
 7179SOL    HW122103   4.070   3.843   3.874
 7179SOL    HW222104   4.083   3.694   3.940
 7180SOL     OW22105   4.031   3.937   4.955
 7180SOL    HW122106   4.008   3.974   5.045
 7180SOL    HW222107   4.001   3.842   4.949
 7181SOL     OW22108   4.031   3.787   4.342
 7181SOL    HW122109   4.020   3.881   4.375
 7181SOL    HW222110   4.026   3.724   4.419
 7182SOL     OW22111   3.799   4.069   3.757
 7182SOL    HW122112   3.707   4.041   3.728
 7182SOL    HW222113   3.830   4.146   3.701
 7183SOL     OW22114   3.796   3.890   4.042
 7183SOL    HW122115   3.779   3.973   3.988
 7183SOL    HW222116   3.886   3.853   4.020
 7184SOL     OW22117   3.949   3.999   6.582
 7184SOL    HW122118   3.984   3.982   6.674
 7184SOL    HW222119   3.861   3.954   6.570
 7185SOL     OW22120   3.743   4.092   6.233
 7185SOL    HW122121   3.661   4.135   6.272
 7185SOL    HW222122   3.715   4.019   6.170
 7186SOL     OW22123   3.926   4.009   7.084
 7186SOL    HW122124   3.846   4.069   7.071
 7186SOL    HW222125   3.916   3.960   7.170
 7187SOL     OW22126   4.021   3.759   5.757
 7187SOL    HW122127   4.070   3.843   5.736
 7187SOL    HW222128   4.083   3.694   5.802
 7188SOL     OW22129   4.031   3.937   6.817
 7188SOL    HW122130   4.008   3.974   6.907
 7188SOL    HW222131   4.001   3.842   6.811
 7189SOL     OW22132   4.031   3.787   6.204
 7189SOL    HW122133   4.020   3.881   6.237
 7189SOL    HW222134   4.026   3.724   6.281
 7190SOL     OW22135   3.799   4.069   5.619
 7190SOL    HW122136   3.707   4.041   5.590
 7190SOL    HW222137   3.830   4.146   5.563
 7191SOL     OW22138   3.796   3.890   5.904
 7191SOL    HW122139   3.779   3.973   5.850
 7191SOL    HW222140   3.886   3.853   5.882
 7192SOL     OW22141   3.949   3.999   8.444
 7192SOL    HW122142   3.984   3.982   8.536
 7192SOL    HW222143   3.861   3.954   8.432
 7193SOL     OW22144   3.743   4.092   8.095
 7193SOL    HW122145   3.661   4.135   8.134
 7193SOL    HW222146   3.715   4.019   8.032
 7194SOL     OW22147   3.926   4.009   8.946
 7194SOL    HW122148   3.846   4.069   8.933
 7194SOL    HW222149   3.916   3.960   9.032
 7195SOL     OW22150   4.021   3.759   7.619
 7195SOL    HW122151   4.070   3.843   7.598
 7195SOL    HW222152   4.083   3.694   7.664
 7196SOL     OW22153   4.031   3.937   8.679
 7196SOL    HW122154   4.008   3.974   8.769
 7196SOL    HW222155   4.001   3.842   8.673
 7197SOL     OW22156   4.031   3.787   8.066
 7197SOL    HW122157   4.020   3.881   8.099
 7197SOL    HW222158   4.026   3.724   8.143
 7198SOL     OW22159   3.799   4.069   7.481
 7198SOL    HW122160   3.707   4.041   7.452
 7198SOL    HW222161   3.830   4.146   7.425
 7199SOL     OW22162   3.796   3.890   7.766
 7199SOL    HW122163   3.779   3.973   7.712
 7199SOL    HW222164   3.886   3.853   7.744
 7200SOL     OW22165   3.949   3.999  10.306
 7200SOL    HW122166   3.984   3.982  10.398
 7200SOL    HW222167   3.861   3.954  10.294
 7201SOL     OW22168   3.743   4.092   9.957
 7201SOL    HW122169   3.661   4.135   9.996
 7201SOL    HW222170   3.715   4.019   9.894
 7202SOL     OW22171   3.926   4.009  10.808
 7202SOL    HW122172   3.846   4.069  10.795
 7202SOL    HW222173   3.916   3.960  10.894
 7203SOL     OW22174   4.021   3.759   9.481
 7203SOL    HW122175   4.070   3.843   9.460
 7203SOL    HW222176   4.083   3.694   9.526
 7204SOL     OW22177   4.031   3.937  10.541
 7204SOL    HW122178   4.008   3.974  10.631
 7204SOL    HW222179   4.001   3.842  10.535
 7205SOL     OW22180   4.031   3.787   9.928
 7205SOL    HW122181   4.020   3.881   9.961
 7205SOL    HW222182   4.026   3.724  10.005
 7206SOL     OW22183   3.799   4.069   9.343
 7206SOL    HW122184   3.707   4.041   9.314
 7206SOL    HW222185   3.830   4.146   9.287
 7207SOL     OW22186   3.796   3.890   9.628
 7207SOL    HW122187   3.779   3.973   9.574
 7207SOL    HW222188   3.886   3.853   9.606
 7208SOL     OW22189   3.949   3.999  12.168
 7208SOL    HW122190   3.984   3.982  12.260
 7208SOL    HW222191   3.861   3.954  12.156
 7209SOL     OW22192   3.743   4.092  11.819
 7209SOL    HW122193   3.661   4.135  11.858
 7209SOL    HW222194   3.715   4.019  11.756
 7210SOL     OW22195   3.926   4.009  12.670
 7210SOL    HW122196   3.846   4.069  12.657
 7210SOL    HW222197   3.916   3.960  12.756
 7211SOL     OW22198   4.021   3.759  11.343
 7211SOL    HW122199   4.070   3.843  11.322
 7211SOL    HW222200   4.083   3.694  11.388
 7212SOL     OW22201   4.031   3.937  12.403
 7212SOL    HW122202   4.008   3.974  12.493
 7212SOL    HW222203   4.001   3.842  12.397
 7213SOL     OW22204   4.031   3.787  11.790
 7213SOL    HW122205   4.020   3.881  11.823
 7213SOL    HW222206   4.026   3.724  11.867
 7214SOL     OW22207   3.799   4.069  11.205
 7214SOL    HW122208   3.707   4.041  11.176
 7214SOL    HW222209   3.830   4.146  11.149
 7215SOL     OW22210   3.796   3.890  11.490
 7215SOL    HW122211   3.779   3.973  11.436
 7215SOL    HW222212   3.886   3.853  11.468
 7216SOL     OW22213   3.743   4.092  13.681
 7216SOL    HW122214   3.661   4.135  13.720
 7216SOL    HW222215   3.715   4.019  13.618
 7217SOL     OW22216   4.021   3.759  13.205
 7217SOL    HW122217   4.070   3.843  13.184
 7217SOL    HW222218   4.083   3.694  13.250
 7218SOL     OW22219   4.031   3.787  13.652
 7218SOL    HW122220   4.020   3.881  13.685
 7218SOL    HW222221   4.026   3.724  13.729
 7219SOL     OW22222   3.799   4.069  13.067
 7219SOL    HW122223   3.707   4.041  13.038
 7219SOL    HW222224   3.830   4.146  13.011
 7220SOL     OW22225   3.796   3.890  13.352
 7220SOL    HW122226   3.779   3.973  13.298
 7220SOL    HW222227   3.886   3.853  13.330
   4.00000   4.00000  13.90000
