2gCDOH_1PEG_l14
22230
    1LIG      O    1   1.945   2.002   0.046
    1LIG      C    2   2.016   2.016   0.199
    1LIG     C1    3   1.940   1.986   0.365
    1LIG     O1    4   1.999   2.027   0.518
    1LIG     C2    5   1.942   1.989   0.672
    1LIG     C3    6   2.010   2.047   0.833
    1LIG     O2    7   1.961   2.004   0.987
    1LIG     C4    8   2.023   2.043   1.137
    1LIG     C5    9   1.956   1.994   1.301
    1LIG     O3   10   2.019   2.032   1.451
    1LIG     C6   11   1.963   1.986   1.602
    1LIG     C7   12   2.030   2.035   1.765
    1LIG     O4   13   1.970   1.996   1.917
    1LIG     C8   14   2.029   2.032   2.070
    1LIG     C9   15   1.951   1.992   2.231
    1LIG     O5   16   2.005   2.034   2.384
    1LIG    C10   17   1.945   1.993   2.535
    1LIG    C11   18   2.011   2.051   2.694
    1LIG     O6   19   1.960   2.006   2.845
    1LIG    C12   20   2.022   2.045   2.994
    1LIG    C13   21   1.954   1.996   3.156
    1LIG     O7   22   2.016   2.033   3.305
    1LIG    C14   23   1.960   1.987   3.455
    1LIG    C15   24   2.027   2.036   3.616
    1LIG     O8   25   1.968   1.997   3.767
    1LIG    C16   26   2.028   2.032   3.919
    1LIG    C17   27   1.950   1.991   4.079
    1LIG     O9   28   2.006   2.032   4.231
    1LIG    C18   29   1.944   1.993   4.381
    1LIG    C19   30   2.011   2.050   4.539
    1LIG    O10   31   1.959   2.005   4.689
    1LIG    C20   32   2.022   2.044   4.837
    1LIG    C21   33   1.953   1.997   4.998
    1LIG    O11   34   2.017   2.034   5.146
    1LIG    C22   35   1.962   1.987   5.295
    1LIG    C23   36   2.032   2.036   5.454
    1LIG    O12   37   1.974   1.995   5.604
    1LIG    C24   38   2.039   2.026   5.754
    1LIG    C25   39   1.959   1.989   5.913
    1LIG    O13   40   2.020   2.019   6.064
    1LIG    C26   41   1.972   1.968   6.214
    1LIG    C27   42   2.024   2.037   6.373
    1LIG    O14   43   1.969   1.986   6.521
    1LIG    C28   44   2.018   2.033   6.672
    1LIG    C29   45   1.941   1.986   6.831
    1LIG    O15   46   1.994   2.028   6.982
    1LIG    C30   47   1.949   1.969   7.131
    1LIG    C31   48   2.011   2.028   7.291
    1LIG    O16   49   1.964   1.982   7.444
    1LIG    C32   50   2.031   2.020   7.593
    1LIG    C33   51   1.960   1.981   7.757
    1LIG    O17   52   2.021   2.024   7.906
    1LIG    C34   53   1.961   1.985   8.058
    1LIG    C35   54   2.023   2.041   8.219
    1LIG    O18   55   1.963   1.997   8.367
    1LIG    C36   56   2.015   2.039   8.519
    1LIG    C37   57   1.938   1.993   8.677
    1LIG    O19   58   1.994   2.033   8.830
    1LIG    C38   59   1.939   1.985   8.980
    1LIG    C39   60   2.010   2.033   9.140
    1LIG    O20   61   1.956   1.991   9.292
    1LIG    C40   62   2.016   2.035   9.442
    1LIG    C41   63   1.951   1.985   9.605
    1LIG    O21   64   2.008   2.030   9.755
    1LIG    C42   65   1.954   1.986   9.906
    1LIG    C43   66   2.023   2.040  10.065
    1LIG    O22   67   1.967   1.998  10.216
    1LIG    C44   68   2.026   2.038  10.366
    1LIG    C45   69   1.951   1.995  10.526
    1LIG    O23   70   2.009   2.032  10.678
    1LIG    C46   71   1.951   1.986  10.826
    1LIG    C47   72   2.020   2.032  10.988
    1LIG    O24   73   1.964   1.990  11.140
    1LIG    C48   74   2.022   2.034  11.290
    1LIG    C49   75   1.955   1.984  11.453
    1LIG    O25   76   2.012   2.028  11.604
    1LIG    C50   77   1.956   1.986  11.755
    1LIG    C51   78   2.025   2.038  11.916
    1LIG    O26   79   1.969   1.998  12.068
    1LIG    C52   80   2.027   2.037  12.220
    1LIG    C53   81   1.952   1.994  12.381
    1LIG    O27   82   2.009   2.031  12.535
    1LIG    C54   83   1.951   1.983  12.685
    1LIG    C55   84   2.019   2.029  12.849
    1LIG    O28   85   1.962   1.985  13.002
    1LIG    C56   86   2.018   2.025  13.157
    1LIG    C57   87   1.947   1.973  13.320
    1LIG    O29   88   2.004   2.005  13.475
    1LIG    C58   89   1.934   1.974  13.626
    1LIG    C59   90   2.014   1.980  13.793
    1LIG      H   91   2.054   2.119   0.204
    1LIG     H1   92   2.107   1.954   0.196
    1LIG     H2   93   1.925   1.877   0.367
    1LIG     H3   94   1.839   2.028   0.359
    1LIG     H4   95   1.945   1.879   0.679
    1LIG     H5   96   1.836   2.015   0.674
    1LIG     H6   97   2.004   2.157   0.829
    1LIG     H7   98   2.118   2.027   0.828
    1LIG     H8   99   2.030   2.152   1.140
    1LIG     H9  100   2.128   2.010   1.136
    1LIG    H10  101   1.945   1.886   1.298
    1LIG    H11  102   1.854   2.033   1.301
    1LIG    H12  103   1.966   1.876   1.603
    1LIG    H13  104   1.856   2.010   1.605
    1LIG    H14  105   2.037   2.144   1.762
    1LIG    H15  106   2.134   2.002   1.764
    1LIG    H16  107   2.046   2.140   2.073
    1LIG    H17  108   2.129   1.988   2.075
    1LIG    H18  109   1.940   1.883   2.231
    1LIG    H19  110   1.848   2.029   2.224
    1LIG    H20  111   1.947   1.884   2.540
    1LIG    H21  112   1.839   2.020   2.534
    1LIG    H22  113   2.005   2.160   2.691
    1LIG    H23  114   2.119   2.031   2.690
    1LIG    H24  115   2.029   2.154   2.997
    1LIG    H25  116   2.127   2.011   2.994
    1LIG    H26  117   1.941   1.888   3.153
    1LIG    H27  118   1.851   2.036   3.155
    1LIG    H28  119   1.963   1.877   3.455
    1LIG    H29  120   1.853   2.012   3.457
    1LIG    H30  121   2.034   2.145   3.612
    1LIG    H31  122   2.132   2.003   3.615
    1LIG    H32  123   2.048   2.139   3.922
    1LIG    H33  124   2.128   1.986   3.923
    1LIG    H34  125   1.939   1.882   4.078
    1LIG    H35  126   1.848   2.030   4.072
    1LIG    H36  127   1.944   1.883   4.386
    1LIG    H37  128   1.838   2.022   4.380
    1LIG    H38  129   2.005   2.160   4.536
    1LIG    H39  130   2.118   2.030   4.535
    1LIG    H40  131   2.031   2.153   4.840
    1LIG    H41  132   2.126   2.008   4.837
    1LIG    H42  133   1.939   1.889   4.996
    1LIG    H43  134   1.851   2.038   4.998
    1LIG    H44  135   1.964   1.877   5.295
    1LIG    H45  136   1.856   2.013   5.298
    1LIG    H46  137   2.037   2.145   5.451
    1LIG    H47  138   2.136   2.004   5.451
    1LIG    H48  139   2.065   2.132   5.758
    1LIG    H49  140   2.136   1.974   5.757
    1LIG    H50  141   1.933   1.882   5.909
    1LIG    H51  142   1.863   2.040   5.908
    1LIG    H52  143   1.997   1.862   6.219
    1LIG    H53  144   1.863   1.969   6.215
    1LIG    H54  145   2.007   2.145   6.369
    1LIG    H55  146   2.133   2.027   6.375
    1LIG    H56  147   2.025   2.142   6.672
    1LIG    H57  148   2.123   2.002   6.680
    1LIG    H58  149   1.937   1.877   6.830
    1LIG    H59  150   1.837   2.019   6.823
    1LIG    H60  151   1.972   1.862   7.129
    1LIG    H61  152   1.840   1.972   7.136
    1LIG    H62  153   2.006   2.137   7.287
    1LIG    H63  154   2.118   2.008   7.285
    1LIG    H64  155   2.051   2.128   7.594
    1LIG    H65  156   2.131   1.974   7.594
    1LIG    H66  157   1.950   1.872   7.758
    1LIG    H67  158   1.858   2.019   7.754
    1LIG    H68  159   1.959   1.875   8.063
    1LIG    H69  160   1.857   2.015   8.058
    1LIG    H70  161   2.021   2.150   8.215
    1LIG    H71  162   2.130   2.018   8.220
    1LIG    H72  163   2.023   2.148   8.520
    1LIG    H73  164   2.119   2.003   8.524
    1LIG    H74  165   1.929   1.884   8.676
    1LIG    H75  166   1.835   2.030   8.672
    1LIG    H76  167   1.940   1.875   8.979
    1LIG    H77  168   1.833   2.012   8.985
    1LIG    H78  169   2.016   2.142   9.138
    1LIG    H79  170   2.114   1.998   9.135
    1LIG    H80  171   2.019   2.144   9.443
    1LIG    H81  172   2.121   2.003   9.443
    1LIG    H82  173   1.951   1.875   9.603
    1LIG    H83  174   1.844   2.013   9.603
    1LIG    H84  175   1.957   1.876   9.909
    1LIG    H85  176   1.848   2.012   9.909
    1LIG    H86  177   2.024   2.150  10.062
    1LIG    H87  178   2.129   2.014  10.061
    1LIG    H88  179   2.036   2.147  10.367
    1LIG    H89  180   2.129   2.001  10.370
    1LIG    H90  181   1.936   1.886  10.524
    1LIG    H91  182   1.849   2.036  10.522
    1LIG    H92  183   1.949   1.876  10.825
    1LIG    H93  184   1.846   2.016  10.829
    1LIG    H94  185   2.026   2.141  10.986
    1LIG    H95  186   2.124   1.997  10.983
    1LIG    H96  187   2.024   2.144  11.292
    1LIG    H97  188   2.128   2.004  11.292
    1LIG    H98  189   1.955   1.874  11.451
    1LIG    H99  190   1.849   2.012  11.450
    1LIG   H100  191   1.954   1.876  11.758
    1LIG   H101  192   1.850   2.016  11.757
    1LIG   H102  193   2.030   2.147  11.912
    1LIG   H103  194   2.131   2.008  11.912
    1LIG   H104  195   2.038   2.146  12.220
    1LIG   H105  196   2.130   1.999  12.223
    1LIG   H106  197   1.937   1.886  12.379
    1LIG   H107  198   1.850   2.035  12.376
    1LIG   H108  199   1.950   1.874  12.683
    1LIG   H109  200   1.846   2.013  12.687
    1LIG   H110  201   2.024   2.138  12.848
    1LIG   H111  202   2.123   1.995  12.845
    1LIG   H112  203   2.020   2.135  13.160
    1LIG   H113  204   2.123   1.995  13.160
    1LIG   H114  205   1.940   1.863  13.312
    1LIG   H115  206   1.843   2.007  13.317
    1LIG   H116  207   1.897   1.871  13.619
    1LIG   H117  208   1.843   2.035  13.632
    1LIG   H118  209   2.100   2.047  13.785
    1LIG   H119  210   2.058   1.879  13.799
    2MOL     C1  211   2.690   2.198   6.466
    2MOL     H1  212   2.795   2.165   6.466
    2MOL     O1  213   2.661   2.259   6.339
    2MOL     C2  214   2.527   2.315   6.323
    2MOL     H2  215   2.453   2.235   6.331
    2MOL     C3  216   2.516   2.379   6.182
    2MOL     H3  217   2.412   2.407   6.163
    2MOL     H4  218   2.544   2.304   6.108
    2MOL     O2  219   2.600   2.494   6.169
    2MOL     H5  220   2.629   2.494   6.075
    2MOL     C4  221   2.670   2.303   6.579
    2MOL     H6  222   2.740   2.385   6.560
    2MOL     O3  223   2.698   2.247   6.707
    2MOL     H7  224   2.660   2.156   6.705
    2MOL     C5  225   2.527   2.361   6.575
    2MOL     H8  226   2.455   2.279   6.587
    2MOL     O4  227   2.508   2.458   6.679
    2MOL     H9  228   2.548   2.417   6.759
    2MOL     C6  229   2.500   2.420   6.435
    2MOL    H10  230   2.566   2.507   6.422
    2MOL     O5  231   2.361   2.458   6.431
    2MOL     C7  232   2.335   2.587   6.372
    2MOL    H11  233   2.426   2.630   6.328
    2MOL     O6  234   2.235   2.572   6.268
    2MOL     C8  235   2.106   2.521   6.310
    2MOL    H12  236   2.119   2.420   6.353
    2MOL     C9  237   2.015   2.508   6.184
    2MOL    H13  238   1.942   2.428   6.201
    2MOL    H14  239   2.076   2.479   6.098
    2MOL     O7  240   1.942   2.629   6.156
    2MOL    H15  241   1.866   2.625   6.218
    2MOL    C10  242   2.284   2.683   6.482
    2MOL    H16  243   2.271   2.782   6.437
    2MOL     O8  244   2.379   2.691   6.587
    2MOL    H17  245   2.411   2.599   6.604
    2MOL    C11  246   2.148   2.633   6.537
    2MOL    H18  247   2.164   2.534   6.582
    2MOL     O9  248   2.096   2.724   6.636
    2MOL    H19  249   2.164   2.723   6.709
    2MOL    C12  250   2.049   2.616   6.419
    2MOL    H20  251   2.035   2.715   6.374
    2MOL    O10  252   1.924   2.565   6.473
    2MOL    C13  253   1.810   2.649   6.450
    2MOL    H21  254   1.842   2.751   6.424
    2MOL    O11  255   1.732   2.594   6.341
    2MOL    C14  256   1.667   2.467   6.366
    2MOL    H22  257   1.742   2.392   6.392
    2MOL    C15  258   1.593   2.422   6.235
    2MOL    H23  259   1.583   2.313   6.235
    2MOL    H24  260   1.657   2.449   6.150
    2MOL    O12  261   1.464   2.481   6.219
    2MOL    H25  262   1.401   2.421   6.266
    2MOL    C16  263   1.724   2.663   6.579
    2MOL    H26  264   1.652   2.744   6.563
    2MOL    O13  265   1.812   2.695   6.686
    2MOL    H27  266   1.901   2.679   6.647
    2MOL    C17  267   1.645   2.534   6.611
    2MOL    H28  268   1.717   2.456   6.638
    2MOL    O14  269   1.553   2.555   6.720
    2MOL    H29  270   1.607   2.593   6.793
    2MOL    C18  271   1.570   2.485   6.486
    2MOL    H30  272   1.492   2.557   6.460
    2MOL    O15  273   1.514   2.357   6.522
    2MOL    C19  274   1.372   2.342   6.507
    2MOL    H31  275   1.321   2.439   6.500
    2MOL    O16  276   1.350   2.264   6.386
    2MOL    C20  277   1.410   2.131   6.389
    2MOL    H32  278   1.518   2.139   6.406
    2MOL    C21  279   1.390   2.062   6.253
    2MOL    H33  280   1.456   1.975   6.247
    2MOL    H34  281   1.420   2.132   6.175
    2MOL    O17  282   1.254   2.020   6.232
    2MOL    H35  283   1.249   1.928   6.266
    2MOL    C22  284   1.318   2.266   6.632
    2MOL    H36  285   1.209   2.261   6.625
    2MOL    O18  286   1.356   2.338   6.749
    2MOL    H37  287   1.436   2.388   6.723
    2MOL    C23  288   1.375   2.123   6.640
    2MOL    H38  289   1.485   2.130   6.651
    2MOL    O19  290   1.320   2.051   6.752
    2MOL    H39  291   1.319   2.116   6.825
    2MOL    C24  292   1.346   2.052   6.506
    2MOL    H40  293   1.238   2.046   6.491
    2MOL    O20  294   1.406   1.922   6.510
    2MOL    C25  295   1.317   1.810   6.492
    2MOL    H41  296   1.211   1.840   6.504
    2MOL    O21  297   1.338   1.753   6.360
    2MOL    C26  298   1.473   1.704   6.334
    2MOL    H42  299   1.544   1.787   6.339
    2MOL    C27  300   1.481   1.646   6.189
    2MOL    H43  301   1.586   1.630   6.164
    2MOL    H44  302   1.442   1.721   6.119
    2MOL    O22  303   1.409   1.523   6.173
    2MOL    H45  304   1.461   1.473   6.107
    2MOL    C28  305   1.350   1.707   6.602
    2MOL    H46  306   1.284   1.621   6.588
    2MOL    O23  307   1.330   1.767   6.729
    2MOL    H47  308   1.356   1.861   6.718
    2MOL    C29  309   1.498   1.663   6.583
    2MOL    H48  310   1.560   1.753   6.587
    2MOL    O24  311   1.543   1.570   6.684
    2MOL    H49  312   1.477   1.567   6.757
    2MOL    C30  313   1.513   1.601   6.443
    2MOL    H50  314   1.448   1.513   6.437
    2MOL    O25  315   1.652   1.564   6.428
    2MOL    C31  316   1.676   1.432   6.373
    2MOL    H51  317   1.583   1.390   6.330
    2MOL    O26  318   1.774   1.445   6.268
    2MOL    C32  319   1.902   1.497   6.313
    2MOL    H52  320   1.886   1.594   6.361
    2MOL    C33  321   1.996   1.520   6.193
    2MOL    H53  322   2.074   1.590   6.224
    2MOL    H54  323   1.938   1.567   6.112
    2MOL    O27  324   2.057   1.400   6.145
    2MOL    H55  325   2.150   1.405   6.177
    2MOL    C34  326   1.726   1.335   6.483
    2MOL    H56  327   1.733   1.235   6.438
    2MOL    O28  328   1.634   1.332   6.590
    2MOL    H57  329   1.610   1.427   6.608
    2MOL    C35  330   1.866   1.374   6.536
    2MOL    H58  331   1.856   1.468   6.591
    2MOL    O29  332   1.922   1.272   6.623
    2MOL    H59  333   1.872   1.272   6.710
    2MOL    C36  334   1.960   1.398   6.417
    2MOL    H60  335   1.978   1.303   6.366
    2MOL    O30  336   2.082   1.453   6.471
    2MOL    C37  337   2.189   1.357   6.473
    2MOL    H61  338   2.150   1.256   6.461
    2MOL    O31  339   2.277   1.385   6.363
    2MOL    C38  340   2.340   1.514   6.365
    2MOL    H62  341   2.264   1.592   6.368
    2MOL    C39  342   2.415   1.529   6.230
    2MOL    H63  343   2.491   1.451   6.223
    2MOL    H64  344   2.465   1.627   6.226
    2MOL    O32  345   2.322   1.516   6.122
    2MOL    H65  346   2.352   1.575   6.049
    2MOL    C40  347   2.267   1.362   6.606
    2MOL    H66  348   2.337   1.278   6.605
    2MOL    O33  349   2.177   1.350   6.716
    2MOL    H67  350   2.092   1.317   6.676
    2MOL    C41  351   2.346   1.493   6.620
    2MOL    H68  352   2.273   1.575   6.630
    2MOL    O34  353   2.428   1.487   6.738
    2MOL    H69  354   2.399   1.406   6.785
    2MOL    C42  355   2.430   1.522   6.492
    2MOL    H70  356   2.509   1.446   6.484
    2MOL    O35  357   2.484   1.655   6.509
    2MOL    C43  358   2.628   1.664   6.517
    2MOL    H71  359   2.674   1.565   6.524
    2MOL    O36  360   2.674   1.731   6.398
    2MOL    C44  361   2.623   1.865   6.375
    2MOL    H72  362   2.514   1.864   6.365
    2MOL    C45  363   2.684   1.916   6.242
    2MOL    H73  364   2.793   1.924   6.252
    2MOL    H74  365   2.645   2.016   6.222
    2MOL    O37  366   2.651   1.829   6.132
    2MOL    H75  367   2.625   1.892   6.062
    2MOL    C46  368   2.672   1.748   6.641
    2MOL    H76  369   2.782   1.754   6.639
    2MOL    O38  370   2.631   1.686   6.763
    2MOL    H77  371   2.551   1.633   6.744
    2MOL    C47  372   2.615   1.891   6.630
    2MOL    H78  373   2.506   1.883   6.628
    2MOL    O39  374   2.656   1.971   6.742
    2MOL    H79  375   2.677   1.910   6.817
    2MOL    C48  376   2.663   1.955   6.497
    2MOL    H80  377   2.773   1.963   6.499
    2MOL    O40  378   2.601   2.085   6.485
    3MOL     C1  379   1.322   2.201   7.433
    3MOL     H1  380   1.218   2.166   7.437
    3MOL     O1  381   1.360   2.258   7.559
    3MOL     C2  382   1.496   2.309   7.567
    3MOL     H2  383   1.568   2.229   7.546
    3MOL     C3  384   1.519   2.360   7.710
    3MOL     H3  385   1.625   2.386   7.722
    3MOL     H4  386   1.497   2.278   7.781
    3MOL     O2  387   1.437   2.473   7.740
    3MOL     H5  388   1.478   2.510   7.822
    3MOL     C4  389   1.334   2.307   7.320
    3MOL     H6  390   1.261   2.387   7.337
    3MOL     O3  391   1.310   2.246   7.193
    3MOL     H7  392   1.342   2.153   7.203
    3MOL     C5  393   1.476   2.368   7.320
    3MOL     H8  394   1.544   2.286   7.299
    3MOL     O4  395   1.491   2.470   7.219
    3MOL     H9  396   1.442   2.441   7.139
    3MOL     C6  397   1.512   2.422   7.461
    3MOL    H10  398   1.442   2.503   7.485
    3MOL     O5  399   1.648   2.471   7.457
    3MOL     C7  400   1.672   2.603   7.514
    3MOL    H11  401   1.579   2.645   7.555
    3MOL     O6  402   1.771   2.592   7.619
    3MOL     C8  403   1.900   2.543   7.575
    3MOL    H12  404   1.886   2.449   7.523
    3MOL     C9  405   1.992   2.513   7.696
    3MOL    H13  406   2.070   2.442   7.665
    3MOL    H14  407   1.933   2.463   7.773
    3MOL     O7  408   2.054   2.632   7.747
    3MOL    H15  409   2.142   2.636   7.705
    3MOL    C10  410   1.723   2.698   7.402
    3MOL    H16  411   1.732   2.799   7.445
    3MOL     O8  412   1.632   2.700   7.294
    3MOL    H17  413   1.597   2.609   7.284
    3MOL    C11  414   1.863   2.654   7.351
    3MOL    H18  415   1.851   2.554   7.308
    3MOL     O9  416   1.915   2.744   7.251
    3MOL    H19  417   1.842   2.757   7.184
    3MOL    C12  418   1.959   2.642   7.472
    3MOL    H20  419   1.971   2.741   7.519
    3MOL    O10  420   2.085   2.591   7.424
    3MOL    C13  421   2.202   2.668   7.457
    3MOL    H21  422   2.176   2.772   7.484
    3MOL    O11  423   2.270   2.604   7.568
    3MOL    C14  424   2.326   2.472   7.543
    3MOL    H22  425   2.245   2.403   7.516
    3MOL    C15  426   2.394   2.416   7.672
    3MOL    H23  427   2.392   2.307   7.668
    3MOL    H24  428   2.333   2.446   7.758
    3MOL    O12  429   2.529   2.460   7.691
    3MOL    H25  430   2.583   2.407   7.628
    3MOL    C16  431   2.292   2.675   7.331
    3MOL    H26  432   2.373   2.747   7.349
    3MOL    O13  433   2.212   2.719   7.222
    3MOL    H27  434   2.118   2.709   7.251
    3MOL    C17  435   2.352   2.537   7.299
    3MOL    H28  436   2.270   2.468   7.276
    3MOL    O14  437   2.440   2.544   7.186
    3MOL    H29  438   2.397   2.609   7.125
    3MOL    C18  439   2.424   2.482   7.423
    3MOL    H30  440   2.505   2.551   7.450
    3MOL    O15  441   2.473   2.351   7.390
    3MOL    C19  442   2.615   2.334   7.402
    3MOL    H31  443   2.666   2.431   7.406
    3MOL    O16  444   2.641   2.259   7.524
    3MOL    C20  445   2.587   2.124   7.525
    3MOL    H32  446   2.479   2.128   7.508
    3MOL    C21  447   2.610   2.058   7.664
    3MOL    H33  448   2.541   1.974   7.676
    3MOL    H34  449   2.584   2.132   7.741
    3MOL    O17  450   2.744   2.012   7.684
    3MOL    H35  451   2.751   1.926   7.638
    3MOL    C22  452   2.667   2.259   7.277
    3MOL    H36  453   2.777   2.258   7.282
    3MOL    O18  454   2.624   2.328   7.160
    3MOL    H37  455   2.559   2.394   7.193
    3MOL    C23  456   2.617   2.114   7.274
    3MOL    H38  457   2.508   2.117   7.266
    3MOL    O19  458   2.673   2.043   7.162
    3MOL    H39  459   2.676   2.107   7.088
    3MOL    C24  460   2.653   2.046   7.408
    3MOL    H40  461   2.762   2.044   7.421
    3MOL    O20  462   2.598   1.913   7.405
    3MOL    C25  463   2.686   1.801   7.420
    3MOL    H41  464   2.792   1.831   7.411
    3MOL    O21  465   2.660   1.744   7.550
    3MOL    C26  466   2.522   1.701   7.571
    3MOL    H42  467   2.453   1.784   7.553
    3MOL    C27  468   2.505   1.661   7.721
    3MOL    H43  469   2.405   1.618   7.736
    3MOL    H44  470   2.509   1.753   7.781
    3MOL    O22  471   2.607   1.570   7.766
    3MOL    H45  472   2.644   1.527   7.687
    3MOL    C28  473   2.652   1.699   7.308
    3MOL    H46  474   2.725   1.617   7.312
    3MOL    O23  475   2.660   1.764   7.181
    3MOL    H47  476   2.662   1.861   7.201
    3MOL    C29  477   2.509   1.642   7.324
    3MOL    H48  478   2.440   1.726   7.312
    3MOL    O24  479   2.482   1.544   7.222
    3MOL    H49  480   2.524   1.582   7.141
    3MOL    C30  481   2.489   1.589   7.469
    3MOL    H50  482   2.556   1.504   7.485
    3MOL    O25  483   2.352   1.547   7.482
    3MOL    C31  484   2.328   1.416   7.540
    3MOL    H51  485   2.419   1.374   7.584
    3MOL    O26  486   2.227   1.429   7.644
    3MOL    C32  487   2.100   1.482   7.596
    3MOL    H52  488   2.121   1.580   7.552
    3MOL    C33  489   2.002   1.506   7.713
    3MOL    H53  490   1.923   1.575   7.680
    3MOL    H54  491   2.056   1.555   7.794
    3MOL    O27  492   1.943   1.385   7.761
    3MOL    H55  493   1.854   1.381   7.719
    3MOL    C34  494   2.276   1.320   7.429
    3MOL    H56  495   2.259   1.221   7.473
    3MOL    O28  496   2.374   1.311   7.326
    3MOL    H57  497   2.391   1.404   7.296
    3MOL    C35  498   2.143   1.373   7.371
    3MOL    H58  499   2.160   1.473   7.330
    3MOL    O29  500   2.091   1.286   7.270
    3MOL    H59  501   2.166   1.258   7.213
    3MOL    C36  502   2.044   1.387   7.489
    3MOL    H60  503   2.030   1.288   7.535
    3MOL    O30  504   1.920   1.438   7.436
    3MOL    C37  505   1.812   1.343   7.443
    3MOL    H61  506   1.849   1.240   7.458
    3MOL    O31  507   1.726   1.380   7.553
    3MOL    C38  508   1.662   1.511   7.543
    3MOL    H62  509   1.738   1.590   7.539
    3MOL    C39  510   1.574   1.532   7.668
    3MOL    H63  511   1.501   1.450   7.676
    3MOL    H64  512   1.518   1.626   7.657
    3MOL    O32  513   1.653   1.539   7.788
    3MOL    H65  514   1.616   1.470   7.847
    3MOL    C40  515   1.734   1.343   7.309
    3MOL    H66  516   1.660   1.262   7.315
    3MOL    O33  517   1.823   1.320   7.200
    3MOL    H67  518   1.911   1.295   7.238
    3MOL    C41  519   1.660   1.477   7.288
    3MOL    H68  520   1.736   1.556   7.274
    3MOL    O34  521   1.576   1.471   7.173
    3MOL    H69  522   1.633   1.489   7.095
    3MOL    C42  523   1.578   1.516   7.413
    3MOL    H70  524   1.493   1.446   7.422
    3MOL    O35  525   1.533   1.651   7.392
    3MOL    C43  526   1.391   1.671   7.389
    3MOL    H71  527   1.338   1.575   7.384
    3MOL    O36  528   1.353   1.742   7.509
    3MOL    C44  529   1.407   1.876   7.525
    3MOL    H72  530   1.517   1.873   7.523
    3MOL    C45  531   1.362   1.935   7.661
    3MOL    H73  532   1.255   1.956   7.657
    3MOL    H74  533   1.413   2.031   7.677
    3MOL    O37  534   1.390   1.847   7.772
    3MOL    H75  535   1.300   1.828   7.808
    3MOL    C46  536   1.352   1.753   7.263
    3MOL    H76  537   1.242   1.753   7.255
    3MOL    O38  538   1.409   1.698   7.146
    3MOL    H77  539   1.470   1.627   7.176
    3MOL    C47  540   1.401   1.898   7.273
    3MOL    H78  541   1.511   1.895   7.273
    3MOL    O39  542   1.354   1.972   7.160
    3MOL    H79  543   1.353   1.906   7.087
    3MOL    C48  544   1.356   1.961   7.405
    3MOL    H80  545   1.246   1.964   7.408
    3MOL    O40  546   1.413   2.092   7.406
    4SOL     OW  547   0.228   0.661   0.119
    4SOL    HW1  548   0.134   0.648   0.130
    4SOL    HW2  549   0.250   0.614   0.039
    5SOL     OW  550   0.223   0.291   0.983
    5SOL    HW1  551   0.246   0.250   1.066
    5SOL    HW2  552   0.128   0.282   0.977
    6SOL     OW  553   0.020   0.384   0.633
    6SOL    HW1  554   3.929   0.399   0.659
    6SOL    HW2  555   0.025   0.289   0.622
    7SOL     OW  556   0.583   1.293   1.196
    7SOL    HW1  557   0.497   1.294   1.155
    7SOL    HW2  558   0.596   1.382   1.227
    8SOL     OW  559   1.569   1.512   0.708
    8SOL    HW1  560   1.526   1.492   0.791
    8SOL    HW2  561   1.497   1.518   0.644
    9SOL     OW  562   1.134   0.698   0.695
    9SOL    HW1  563   1.181   0.781   0.685
    9SOL    HW2  564   1.086   0.708   0.777
   10SOL     OW  565   1.770   0.623   0.212
   10SOL    HW1  566   1.785   0.596   0.121
   10SOL    HW2  567   1.773   0.542   0.262
   11SOL     OW  568   0.750   1.137   1.044
   11SOL    HW1  569   0.688   1.174   1.108
   11SOL    HW2  570   0.787   1.213   1.000
   12SOL     OW  571   0.874   0.767   1.825
   12SOL    HW1  572   0.863   0.838   1.888
   12SOL    HW2  573   0.895   0.810   1.743
   13SOL     OW  574   0.684   1.000   0.646
   13SOL    HW1  575   0.750   0.989   0.715
   13SOL    HW2  576   0.616   1.053   0.687
   14SOL     OW  577   0.713   1.148   1.819
   14SOL    HW1  578   0.761   1.226   1.848
   14SOL    HW2  579   0.633   1.183   1.780
   15SOL     OW  580   0.352   1.400   1.078
   15SOL    HW1  581   0.271   1.378   1.033
   15SOL    HW2  582   0.398   1.458   1.018
   16SOL     OW  583   1.460   1.503   1.359
   16SOL    HW1  584   1.514   1.582   1.368
   16SOL    HW2  585   1.393   1.512   1.427
   17SOL     OW  586   0.459   0.409   1.493
   17SOL    HW1  587   0.541   0.360   1.493
   17SOL    HW2  588   0.391   0.341   1.497
   18SOL     OW  589   1.611   0.450   0.735
   18SOL    HW1  590   1.543   0.486   0.677
   18SOL    HW2  591   1.628   0.521   0.797
   19SOL     OW  592   0.223   1.710   0.472
   19SOL    HW1  593   0.242   1.789   0.523
   19SOL    HW2  594   0.287   1.711   0.401
   20SOL     OW  595   1.138   1.342   1.694
   20SOL    HW1  596   1.179   1.336   1.780
   20SOL    HW2  597   1.085   1.262   1.686
   21SOL     OW  598   0.247   1.447   0.542
   21SOL    HW1  599   0.224   1.539   0.527
   21SOL    HW2  600   0.173   1.412   0.593
   22SOL     OW  601   0.248   1.064   0.883
   22SOL    HW1  602   0.269   0.978   0.921
   22SOL    HW2  603   0.196   1.108   0.950
   23SOL     OW  604   0.608   1.794   1.425
   23SOL    HW1  605   0.526   1.776   1.470
   23SOL    HW2  606   0.632   1.882   1.452
   24SOL     OW  607   0.559   0.980   0.169
   24SOL    HW1  608   0.588   1.020   0.087
   24SOL    HW2  609   0.614   1.020   0.236
   25SOL     OW  610   1.583   0.142   1.455
   25SOL    HW1  611   1.614   0.214   1.401
   25SOL    HW2  612   1.546   0.184   1.533
   26SOL     OW  613   0.140   0.655   0.568
   26SOL    HW1  614   0.098   0.569   0.575
   26SOL    HW2  615   0.104   0.705   0.641
   27SOL     OW  616   0.030   1.596   0.139
   27SOL    HW1  617   0.030   1.501   0.150
   27SOL    HW2  618   3.977   1.629   0.212
   28SOL     OW  619   1.687   0.918   0.646
   28SOL    HW1  620   1.770   0.875   0.625
   28SOL    HW2  621   1.667   0.969   0.568
   29SOL     OW  622   1.650   1.104   0.430
   29SOL    HW1  623   1.738   1.104   0.393
   29SOL    HW2  624   1.655   1.166   0.503
   30SOL     OW  625   0.144   0.756   1.589
   30SOL    HW1  626   0.240   0.752   1.582
   30SOL    HW2  627   0.126   0.842   1.625
   31SOL     OW  628   0.613   1.388   0.737
   31SOL    HW1  629   0.567   1.304   0.745
   31SOL    HW2  630   0.599   1.414   0.647
   32SOL     OW  631   1.286   1.237   1.421
   32SOL    HW1  632   1.317   1.169   1.361
   32SOL    HW2  633   1.345   1.231   1.496
   33SOL     OW  634   0.825   0.004   0.523
   33SOL    HW1  635   0.869   0.084   0.494
   33SOL    HW2  636   0.732   0.026   0.521
   34SOL     OW  637   0.184   0.948   1.280
   34SOL    HW1  638   0.272   0.913   1.268
   34SOL    HW2  639   0.132   0.907   1.211
   35SOL     OW  640   1.529   1.000   0.206
   35SOL    HW1  641   1.461   0.942   0.241
   35SOL    HW2  642   1.572   1.036   0.283
   36SOL     OW  643   1.184   1.811   1.625
   36SOL    HW1  644   1.191   1.872   1.552
   36SOL    HW2  645   1.202   1.725   1.588
   37SOL     OW  646   0.347   0.248   1.849
   37SOL    HW1  647   0.390   0.331   1.829
   37SOL    HW2  648   0.255   0.271   1.864
   38SOL     OW  649   1.465   1.419   0.947
   38SOL    HW1  650   1.399   1.435   1.014
   38SOL    HW2  651   1.452   1.328   0.921
   39SOL     OW  652   1.665   1.748   0.579
   39SOL    HW1  653   1.633   1.733   0.490
   39SOL    HW2  654   1.645   1.667   0.626
   40SOL     OW  655   0.594   0.713   0.267
   40SOL    HW1  656   0.594   0.798   0.222
   40SOL    HW2  657   0.533   0.724   0.340
   41SOL     OW  658   1.274   0.372   0.940
   41SOL    HW1  659   1.187   0.333   0.948
   41SOL    HW2  660   1.332   0.311   0.986
   42SOL     OW  661   1.559   1.719   0.320
   42SOL    HW1  662   1.624   1.649   0.321
   42SOL    HW2  663   1.527   1.720   0.230
   43SOL     OW  664   0.794   0.615   1.452
   43SOL    HW1  665   0.765   0.589   1.540
   43SOL    HW2  666   0.758   0.548   1.394
   44SOL     OW  667   1.392   0.475   1.677
   44SOL    HW1  668   1.399   0.521   1.761
   44SOL    HW2  669   1.448   0.398   1.687
   45SOL     OW  670   0.950   0.886   1.586
   45SOL    HW1  671   1.005   0.818   1.548
   45SOL    HW2  672   0.901   0.922   1.512
   46SOL     OW  673   0.994   0.402   1.235
   46SOL    HW1  674   0.907   0.421   1.272
   46SOL    HW2  675   0.977   0.374   1.145
   47SOL     OW  676   1.052   0.704   0.428
   47SOL    HW1  677   1.071   0.695   0.522
   47SOL    HW2  678   0.969   0.658   0.416
   48SOL     OW  679   0.082   0.830   0.790
   48SOL    HW1  680   0.152   0.795   0.845
   48SOL    HW2  681   0.106   0.922   0.777
   49SOL     OW  682   0.130   1.866   1.580
   49SOL    HW1  683   0.138   1.830   1.668
   49SOL    HW2  684   0.038   1.856   1.558
   50SOL     OW  685   0.875   0.361   0.223
   50SOL    HW1  686   0.910   0.420   0.156
   50SOL    HW2  687   0.878   0.274   0.183
   51SOL     OW  688   1.706   0.575   1.830
   51SOL    HW1  689   1.669   0.649   1.781
   51SOL    HW2  690   1.730   0.511   1.763
   52SOL     OW  691   1.381   1.142   0.543
   52SOL    HW1  692   1.459   1.130   0.488
   52SOL    HW2  693   1.327   1.204   0.494
   53SOL     OW  694   0.563   0.196   0.881
   53SOL    HW1  695   0.567   0.221   0.973
   53SOL    HW2  696   0.549   0.279   0.835
   54SOL     OW  697   1.001   1.441   0.475
   54SOL    HW1  698   0.971   1.516   0.423
   54SOL    HW2  699   0.977   1.463   0.565
   55SOL     OW  700   0.364   1.824   0.876
   55SOL    HW1  701   0.426   1.751   0.885
   55SOL    HW2  702   0.417   1.902   0.890
   56SOL     OW  703   1.800   1.048   0.874
   56SOL    HW1  704   1.747   1.033   0.796
   56SOL    HW2  705   1.736   1.057   0.945
   57SOL     OW  706   1.227   1.540   1.513
   57SOL    HW1  707   1.215   1.467   1.575
   57SOL    HW2  708   1.161   1.525   1.446
   58SOL     OW  709   0.306   0.928   0.242
   58SOL    HW1  710   0.397   0.942   0.217
   58SOL    HW2  711   0.292   0.834   0.233
   59SOL     OW  712   1.479   0.751   0.729
   59SOL    HW1  713   1.476   0.709   0.815
   59SOL    HW2  714   1.557   0.806   0.733
   60SOL     OW  715   0.470   1.262   1.738
   60SOL    HW1  716   0.445   1.269   1.646
   60SOL    HW2  717   0.388   1.263   1.786
   61SOL     OW  718   1.120   1.779   0.227
   61SOL    HW1  719   1.056   1.733   0.281
   61SOL    HW2  720   1.149   1.713   0.164
   62SOL     OW  721   0.202   0.293   1.501
   62SOL    HW1  722   0.108   0.312   1.501
   62SOL    HW2  723   0.211   0.216   1.558
   63SOL     OW  724   1.633   1.376   0.093
   63SOL    HW1  725   1.602   1.456   0.050
   63SOL    HW2  726   1.566   1.311   0.074
   64SOL     OW  727   0.473   1.731   0.323
   64SOL    HW1  728   0.515   1.790   0.385
   64SOL    HW2  729   0.546   1.694   0.273
   65SOL     OW  730   1.443   0.139   0.394
   65SOL    HW1  731   1.394   0.058   0.408
   65SOL    HW2  732   1.526   0.125   0.441
   66SOL     OW  733   0.254   1.790   1.230
   66SOL    HW1  734   0.298   1.723   1.282
   66SOL    HW2  735   0.252   1.755   1.141
   67SOL     OW  736   0.939   1.700   0.897
   67SOL    HW1  737   1.018   1.651   0.919
   67SOL    HW2  738   0.897   1.648   0.827
   68SOL     OW  739   0.398   0.694   0.470
   68SOL    HW1  740   0.421   0.602   0.485
   68SOL    HW2  741   0.306   0.700   0.497
   69SOL     OW  742   1.528   0.227   1.726
   69SOL    HW1  743   1.522   0.252   1.819
   69SOL    HW2  744   1.515   0.132   1.726
   70SOL     OW  745   0.628   0.111   0.123
   70SOL    HW1  746   0.724   0.109   0.127
   70SOL    HW2  747   0.608   0.132   0.032
   71SOL     OW  748   0.775   0.286   1.771
   71SOL    HW1  749   0.853   0.230   1.771
   71SOL    HW2  750   0.721   0.251   1.842
   72SOL     OW  751   0.875   1.523   1.194
   72SOL    HW1  752   0.859   1.485   1.108
   72SOL    HW2  753   0.945   1.468   1.231
   73SOL     OW  754   1.338   0.588   1.431
   73SOL    HW1  755   1.369   0.558   1.517
   73SOL    HW2  756   1.374   0.676   1.421
   74SOL     OW  757   0.817   1.390   0.944
   74SOL    HW1  758   0.903   1.379   0.902
   74SOL    HW2  759   0.755   1.395   0.871
   75SOL     OW  760   0.930   0.513   0.898
   75SOL    HW1  761   0.905   0.504   0.806
   75SOL    HW2  762   0.955   0.424   0.925
   76SOL     OW  763   0.552   0.050   0.499
   76SOL    HW1  764   0.477   0.057   0.558
   76SOL    HW2  765   0.545   0.128   0.443
   77SOL     OW  766   1.430   1.208   0.044
   77SOL    HW1  767   1.448   1.127   0.092
   77SOL    HW2  768   1.339   1.228   0.064
   78SOL     OW  769   0.360   3.988   0.176
   78SOL    HW1  770   0.322   0.073   0.152
   78SOL    HW2  771   0.443   0.010   0.218
   79SOL     OW  772   0.945   0.250   0.466
   79SOL    HW1  773   0.912   0.289   0.385
   79SOL    HW2  774   1.040   0.252   0.457
   80SOL     OW  775   1.079   0.685   1.457
   80SOL    HW1  776   1.010   0.619   1.464
   80SOL    HW2  777   1.160   0.635   1.452
   81SOL     OW  778   1.220   1.572   0.796
   81SOL    HW1  779   1.234   1.639   0.728
   81SOL    HW2  780   1.290   1.586   0.859
   82SOL     OW  781   0.465   1.152   0.731
   82SOL    HW1  782   0.395   1.125   0.791
   82SOL    HW2  783   0.428   1.138   0.644
   83SOL     OW  784   1.260   1.794   0.610
   83SOL    HW1  785   1.308   1.858   0.557
   83SOL    HW2  786   1.194   1.845   0.655
   84SOL     OW  787   0.997   0.530   0.050
   84SOL    HW1  788   0.993   0.523  13.854
   84SOL    HW2  789   1.089   0.547   0.070
   85SOL     OW  790   0.082   0.575   1.392
   85SOL    HW1  791   0.171   0.557   1.362
   85SOL    HW2  792   0.092   0.646   1.456
   86SOL     OW  793   0.572   0.231   1.160
   86SOL    HW1  794   0.593   0.138   1.167
   86SOL    HW2  795   0.481   0.238   1.189
   87SOL     OW  796   0.871   0.463   0.638
   87SOL    HW1  797   0.825   0.516   0.573
   87SOL    HW2  798   0.892   0.381   0.592
   88SOL     OW  799   0.997   0.039   0.780
   88SOL    HW1  800   0.951   0.068   0.701
   88SOL    HW2  801   1.009   3.945   0.767
   89SOL     OW  802   1.439   1.160   0.856
   89SOL    HW1  803   1.368   1.096   0.857
   89SOL    HW2  804   1.461   1.170   0.764
   90SOL     OW  805   1.464   0.609   0.971
   90SOL    HW1  806   1.408   0.531   0.976
   90SOL    HW2  807   1.523   0.601   1.046
   91SOL     OW  808   1.842   0.817   0.386
   91SOL    HW1  809   1.897   0.763   0.442
   91SOL    HW2  810   1.812   0.757   0.317
   92SOL     OW  811   0.492   1.384   0.166
   92SOL    HW1  812   0.422   1.349   0.222
   92SOL    HW2  813   0.446   1.426   0.094
   93SOL     OW  814   1.675   1.266   0.640
   93SOL    HW1  815   1.769   1.262   0.659
   93SOL    HW2  816   1.649   1.354   0.665
   94SOL     OW  817   1.422   0.591   0.086
   94SOL    HW1  818   1.353   0.578   0.151
   94SOL    HW2  819   1.472   0.509   0.089
   95SOL     OW  820   0.530   0.260   0.329
   95SOL    HW1  821   0.567   0.211   0.255
   95SOL    HW2  822   0.503   0.343   0.292
   96SOL     OW  823   1.749   1.241   1.566
   96SOL    HW1  824   1.836   1.203   1.559
   96SOL    HW2  825   1.765   1.332   1.593
   97SOL     OW  826   1.055   1.353   1.332
   97SOL    HW1  827   0.979   1.322   1.382
   97SOL    HW2  828   1.130   1.312   1.374
   98SOL     OW  829   1.609   1.627   1.656
   98SOL    HW1  830   1.602   1.663   1.567
   98SOL    HW2  831   1.692   1.579   1.655
   99SOL     OW  832   1.134   1.209   1.103
   99SOL    HW1  833   1.074   1.246   1.167
   99SOL    HW2  834   1.104   1.243   1.019
  100SOL     OW  835   1.623   1.096   1.076
  100SOL    HW1  836   1.617   1.159   1.148
  100SOL    HW2  837   1.547   1.115   1.021
  101SOL     OW  838   0.912   0.118   1.401
  101SOL    HW1  839   0.932   0.089   1.312
  101SOL    HW2  840   0.993   0.159   1.431
  102SOL     OW  841   0.984   1.116   1.723
  102SOL    HW1  842   0.893   1.132   1.747
  102SOL    HW2  843   0.981   1.037   1.669
  103SOL     OW  844   0.717   1.061   0.378
  103SOL    HW1  845   0.702   1.042   0.470
  103SOL    HW2  846   0.791   1.006   0.353
  104SOL     OW  847   0.424   0.818   1.253
  104SOL    HW1  848   0.492   0.824   1.320
  104SOL    HW2  849   0.389   0.729   1.262
  105SOL     OW  850   1.265   0.375   1.278
  105SOL    HW1  851   1.299   0.453   1.322
  105SOL    HW2  852   1.177   0.399   1.249
  106SOL     OW  853   0.065   1.579   1.345
  106SOL    HW1  854   0.071   1.624   1.261
  106SOL    HW2  855   0.156   1.570   1.374
  107SOL     OW  856   0.361   1.102   0.480
  107SOL    HW1  857   0.350   1.179   0.423
  107SOL    HW2  858   0.377   1.030   0.420
  108SOL     OW  859   0.554   0.530   0.857
  108SOL    HW1  860   0.567   0.589   0.783
  108SOL    HW2  861   0.620   0.557   0.921
  109SOL     OW  862   1.248   1.347   0.400
  109SOL    HW1  863   1.303   1.421   0.428
  109SOL    HW2  864   1.160   1.369   0.432
  110SOL     OW  865   1.288   1.461   1.149
  110SOL    HW1  866   1.344   1.466   1.226
  110SOL    HW2  867   1.232   1.384   1.164
  111SOL     OW  868   1.576   0.638   0.491
  111SOL    HW1  869   1.532   0.692   0.557
  111SOL    HW2  870   1.608   0.701   0.427
  112SOL     OW  871   0.345   1.528   1.317
  112SOL    HW1  872   0.336   1.477   1.237
  112SOL    HW2  873   0.440   1.543   1.325
  113SOL     OW  874   0.419   0.736   1.601
  113SOL    HW1  875   0.483   0.781   1.545
  113SOL    HW2  876   0.456   0.648   1.613
  114SOL     OW  877   1.606   0.782   1.687
  114SOL    HW1  878   1.520   0.823   1.680
  114SOL    HW2  879   1.659   0.823   1.618
  115SOL     OW  880   1.007   0.140   1.780
  115SOL    HW1  881   1.065   0.208   1.747
  115SOL    HW2  882   0.998   0.079   1.707
  116SOL     OW  883   0.486   0.037   1.763
  116SOL    HW1  884   0.490   0.050   1.668
  116SOL    HW2  885   0.423   0.103   1.793
  117SOL     OW  886   0.585   0.876   1.032
  117SOL    HW1  887   0.619   0.965   1.036
  117SOL    HW2  888   0.529   0.868   1.109
  118SOL     OW  889   1.349   0.858   1.023
  118SOL    HW1  890   1.263   0.843   0.983
  118SOL    HW2  891   1.394   0.774   1.015
  119SOL     OW  892   1.217   0.553   0.266
  119SOL    HW1  893   1.224   0.473   0.317
  119SOL    HW2  894   1.159   0.610   0.317
  120SOL     OW  895   0.310   0.211   1.239
  120SOL    HW1  896   0.267   0.248   1.316
  120SOL    HW2  897   0.297   0.117   1.246
  121SOL     OW  898   0.064   1.306   1.280
  121SOL    HW1  899   0.092   1.262   1.361
  121SOL    HW2  900   0.053   1.398   1.305
  122SOL     OW  901   0.723   0.633   1.050
  122SOL    HW1  902   0.798   0.620   0.993
  122SOL    HW2  903   0.693   0.722   1.030
  123SOL     OW  904   1.739   0.959   1.858
  123SOL    HW1  905   1.694   0.894   1.804
  123SOL    HW2  906   1.678   0.976   1.930
  124SOL     OW  907   0.335   0.055   0.661
  124SOL    HW1  908   0.310   0.148   0.667
  124SOL    HW2  909   0.287   0.013   0.732
  125SOL     OW  910   1.576   0.392   0.392
  125SOL    HW1  911   1.543   0.332   0.459
  125SOL    HW2  912   1.568   0.479   0.431
  126SOL     OW  913   1.031   0.759   0.958
  126SOL    HW1  914   1.021   0.776   1.052
  126SOL    HW2  915   1.003   0.668   0.947
  127SOL     OW  916   0.981   1.566   1.721
  127SOL    HW1  917   0.966   1.610   1.637
  127SOL    HW2  918   1.025   1.484   1.697
  128SOL     OW  919   1.853   1.500   1.602
  128SOL    HW1  920   1.870   1.532   1.513
  128SOL    HW2  921   1.936   1.512   1.648
  129SOL     OW  922   0.355   0.923   1.797
  129SOL    HW1  923   0.432   0.942   1.850
  129SOL    HW2  924   0.384   0.854   1.737
  130SOL     OW  925   1.531   0.273   0.145
  130SOL    HW1  926   1.467   0.201   0.146
  130SOL    HW2  927   1.535   0.303   0.236
  131SOL     OW  928   1.287   0.832   0.056
  131SOL    HW1  929   1.334   0.749   0.061
  131SOL    HW2  930   1.304   0.865  13.868
  132SOL     OW  931   1.068   1.338   0.856
  132SOL    HW1  932   1.073   1.266   0.793
  132SOL    HW2  933   1.127   1.405   0.821
  133SOL     OW  934   0.314   0.802   0.950
  133SOL    HW1  935   0.408   0.818   0.945
  133SOL    HW2  936   0.306   0.712   0.982
  134SOL     OW  937   0.340   0.529   1.016
  134SOL    HW1  938   0.297   0.445   0.999
  134SOL    HW2  939   0.415   0.531   0.957
  135SOL     OW  940   1.134   0.380   1.699
  135SOL    HW1  941   1.085   0.434   1.761
  135SOL    HW2  942   1.220   0.420   1.694
  136SOL     OW  943   1.151   0.226   1.482
  136SOL    HW1  944   1.142   0.279   1.560
  136SOL    HW2  945   1.179   0.287   1.414
  137SOL     OW  946   0.016   1.323   0.194
  137SOL    HW1  947   3.922   1.337   0.184
  137SOL    HW2  948   0.025   1.230   0.212
  138SOL     OW  949   0.079   1.799   0.887
  138SOL    HW1  950   0.087   1.704   0.887
  138SOL    HW2  951   0.169   1.831   0.893
  139SOL     OW  952   0.497   1.571   0.910
  139SOL    HW1  953   0.567   1.632   0.935
  139SOL    HW2  954   0.541   1.509   0.852
  140SOL     OW  955   0.974   0.787   1.223
  140SOL    HW1  956   1.032   0.769   1.297
  140SOL    HW2  957   0.890   0.748   1.247
  141SOL     OW  958   0.035   0.580   1.112
  141SOL    HW1  959   0.089   0.520   1.061
  141SOL    HW2  960   0.061   0.566   1.202
  142SOL     OW  961   0.211   0.515   1.722
  142SOL    HW1  962   0.255   0.473   1.648
  142SOL    HW2  963   0.167   0.591   1.684
  143SOL     OW  964   1.380   0.935   1.656
  143SOL    HW1  965   1.401   1.028   1.652
  143SOL    HW2  966   1.376   0.907   1.564
  144SOL     OW  967   0.815   0.581   0.377
  144SOL    HW1  968   0.825   0.503   0.323
  144SOL    HW2  969   0.741   0.628   0.339
  145SOL     OW  970   1.639   0.602   1.181
  145SOL    HW1  971   1.630   0.542   1.254
  145SOL    HW2  972   1.727   0.586   1.147
  146SOL     OW  973   0.301   1.543   1.722
  146SOL    HW1  974   0.255   1.612   1.769
  146SOL    HW2  975   0.273   1.462   1.764
  147SOL     OW  976   0.716   0.451   1.252
  147SOL    HW1  977   0.663   0.375   1.230
  147SOL    HW2  978   0.703   0.512   1.179
  148SOL     OW  979   0.923   1.679   1.471
  148SOL    HW1  980   0.898   1.640   1.387
  148SOL    HW2  981   0.917   1.773   1.456
  149SOL     OW  982   0.424   0.490   0.227
  149SOL    HW1  983   0.500   0.547   0.236
  149SOL    HW2  984   0.352   0.548   0.205
  150SOL     OW  985   0.154   1.134   1.476
  150SOL    HW1  986   0.155   1.084   1.557
  150SOL    HW2  987   0.170   1.068   1.407
  151SOL     OW  988   1.321   1.044   1.220
  151SOL    HW1  989   1.343   0.980   1.152
  151SOL    HW2  990   1.254   1.100   1.181
  152SOL     OW  991   1.317   0.859   0.328
  152SOL    HW1  992   1.244   0.824   0.380
  152SOL    HW2  993   1.291   0.843   0.237
  153SOL     OW  994   1.761   1.732   1.150
  153SOL    HW1  995   1.831   1.760   1.091
  153SOL    HW2  996   1.742   1.642   1.125
  154SOL     OW  997   1.243   1.734   1.105
  154SOL    HW1  998   1.326   1.757   1.064
  154SOL    HW2  999   1.252   1.641   1.126
  155SOL     OW 1000   0.079   1.216   1.027
  155SOL    HW1 1001   0.086   1.242   1.119
  155SOL    HW2 1002   3.986   1.227   1.006
  156SOL     OW 1003   0.680   1.669   1.738
  156SOL    HW1 1004   0.620   1.743   1.728
  156SOL    HW2 1005   0.748   1.685   1.672
  157SOL     OW 1006   0.902   0.105   0.132
  157SOL    HW1 1007   0.941   0.092   0.046
  157SOL    HW2 1008   0.910   0.019   0.175
  158SOL     OW 1009   1.701   0.122   0.497
  158SOL    HW1 1010   1.781   0.132   0.447
  158SOL    HW2 1011   1.691   0.028   0.509
  159SOL     OW 1012   1.387   1.574   0.489
  159SOL    HW1 1013   1.442   1.615   0.422
  159SOL    HW2 1014   1.335   1.646   0.525
  160SOL     OW 1015   0.177   1.761   1.831
  160SOL    HW1 1016   0.121   1.709   1.889
  160SOL    HW2 1017   0.216   1.826   1.889
  161SOL     OW 1018   1.276   0.929   0.672
  161SOL    HW1 1019   1.350   0.869   0.684
  161SOL    HW2 1020   1.311   1.000   0.618
  162SOL     OW 1021   0.806   1.275   1.425
  162SOL    HW1 1022   0.778   1.317   1.507
  162SOL    HW2 1023   0.734   1.290   1.364
  163SOL     OW 1024   0.672   1.587   0.189
  163SOL    HW1 1025   0.665   1.619   0.099
  163SOL    HW2 1026   0.627   1.503   0.188
  164SOL     OW 1027   1.618   1.730   1.391
  164SOL    HW1 1028   1.669   1.733   1.310
  164SOL    HW2 1029   1.608   1.822   1.417
  165SOL     OW 1030   1.839   0.179   0.964
  165SOL    HW1 1031   1.873   0.116   0.900
  165SOL    HW2 1032   1.750   0.196   0.935
  166SOL     OW 1033   0.275   0.320   0.715
  166SOL    HW1 1034   0.189   0.355   0.689
  166SOL    HW2 1035   0.267   0.306   0.809
  167SOL     OW 1036   1.217   1.599   0.037
  167SOL    HW1 1037   1.207   1.507   0.062
  167SOL    HW2 1038   1.180   1.604  13.848
  168SOL     OW 1039   0.823   1.006   1.375
  168SOL    HW1 1040   0.867   0.999   1.290
  168SOL    HW2 1041   0.821   1.099   1.394
  169SOL     OW 1042   0.922   0.911   0.288
  169SOL    HW1 1043   0.992   0.952   0.237
  169SOL    HW2 1044   0.966   0.842   0.337
  170SOL     OW 1045   1.480   1.659   0.062
  170SOL    HW1 1046   1.388   1.633   0.058
  170SOL    HW2 1047   1.514   1.637  13.875
  171SOL     OW 1048   0.374   1.302   1.492
  171SOL    HW1 1049   0.358   1.382   1.442
  171SOL    HW2 1050   0.297   1.248   1.474
  172SOL     OW 1051   1.607   1.284   1.278
  172SOL    HW1 1052   1.669   1.270   1.350
  172SOL    HW2 1053   1.548   1.352   1.311
  173SOL     OW 1054   1.059   1.110   0.709
  173SOL    HW1 1055   0.987   1.059   0.747
  173SOL    HW2 1056   1.123   1.044   0.683
  174SOL     OW 1057   1.015   0.250   0.970
  174SOL    HW1 1058   1.005   0.200   0.889
  174SOL    HW2 1059   1.012   0.184   1.040
  175SOL     OW 1060   0.608   1.485   0.483
  175SOL    HW1 1061   0.654   1.437   0.415
  175SOL    HW2 1062   0.536   1.529   0.438
  176SOL     OW 1063   1.721   0.395   1.371
  176SOL    HW1 1064   1.794   0.456   1.376
  176SOL    HW2 1065   1.754   0.323   1.317
  177SOL     OW 1066   0.267   1.312   0.312
  177SOL    HW1 1067   0.188   1.338   0.265
  177SOL    HW2 1068   0.266   1.363   0.393
  178SOL     OW 1069   0.109   0.999   1.718
  178SOL    HW1 1070   0.050   0.992   1.793
  178SOL    HW2 1071   0.196   0.981   1.755
  179SOL     OW 1072   0.695   0.258   1.504
  179SOL    HW1 1073   0.762   0.204   1.462
  179SOL    HW2 1074   0.723   0.266   1.595
  180SOL     OW 1075   0.069   0.364   0.035
  180SOL    HW1 1076   3.980   0.375   0.069
  180SOL    HW2 1077   0.061   0.378  13.841
  181SOL     OW 1078   1.425   0.856   1.397
  181SOL    HW1 1079   1.376   0.918   1.343
  181SOL    HW2 1080   1.514   0.859   1.362
  182SOL     OW 1081   0.052   0.203   0.320
  182SOL    HW1 1082   0.083   0.276   0.268
  182SOL    HW2 1083   0.131   0.159   0.350
  183SOL     OW 1084   1.187   1.344   0.123
  183SOL    HW1 1085   1.092   1.336   0.111
  183SOL    HW2 1086   1.201   1.331   0.216
  184SOL     OW 1087   0.622   0.828   1.437
  184SOL    HW1 1088   0.679   0.904   1.422
  184SOL    HW2 1089   0.682   0.754   1.445
  185SOL     OW 1090   1.489   1.790   0.986
  185SOL    HW1 1091   1.510   1.857   0.921
  185SOL    HW2 1092   1.573   1.767   1.025
  186SOL     OW 1093   0.718   0.560   1.706
  186SOL    HW1 1094   0.764   0.621   1.764
  186SOL    HW2 1095   0.742   0.473   1.739
  187SOL     OW 1096   1.473   1.195   1.629
  187SOL    HW1 1097   1.461   1.210   1.723
  187SOL    HW2 1098   1.566   1.214   1.613
  188SOL     OW 1099   0.377   1.744   1.555
  188SOL    HW1 1100   0.290   1.782   1.544
  188SOL    HW2 1101   0.361   1.661   1.601
  189SOL     OW 1102   1.665   0.880   1.256
  189SOL    HW1 1103   1.661   0.795   1.213
  189SOL    HW2 1104   1.655   0.943   1.184
  190SOL     OW 1105   1.232   0.336   0.431
  190SOL    HW1 1106   1.293   0.262   0.428
  190SOL    HW2 1107   1.247   0.375   0.517
  191SOL     OW 1108   0.588   0.736   0.674
  191SOL    HW1 1109   0.626   0.822   0.657
  191SOL    HW2 1110   0.522   0.726   0.605
  192SOL     OW 1111   1.749   0.384   1.643
  192SOL    HW1 1112   1.731   0.390   1.549
  192SOL    HW2 1113   1.692   0.313   1.673
  193SOL     OW 1114   1.747   0.934   1.511
  193SOL    HW1 1115   1.738   1.028   1.524
  193SOL    HW2 1116   1.730   0.920   1.418
  194SOL     OW 1117   0.908   1.400   0.070
  194SOL    HW1 1118   0.846   1.378   0.139
  194SOL    HW2 1119   0.858   1.393  13.889
  195SOL     OW 1120   0.664   1.785   0.939
  195SOL    HW1 1121   0.644   1.877   0.919
  195SOL    HW2 1122   0.759   1.779   0.933
  196SOL     OW 1123   0.869   0.969   0.853
  196SOL    HW1 1124   0.920   0.897   0.891
  196SOL    HW2 1125   0.831   1.014   0.928
  197SOL     OW 1126   1.097   1.017   0.113
  197SOL    HW1 1127   1.087   1.061   0.028
  197SOL    HW2 1128   1.170   0.956   0.100
  198SOL     OW 1129   1.843   1.529   0.826
  198SOL    HW1 1130   1.758   1.535   0.783
  198SOL    HW2 1131   1.825   1.478   0.905
  199SOL     OW 1132   0.228   1.304   1.857
  199SOL    HW1 1133   0.154   1.250   1.828
  199SOL    HW2 1134   0.214   1.317   1.950
  200SOL     OW 1135   0.116   1.287   0.733
  200SOL    HW1 1136   0.132   1.237   0.813
  200SOL    HW2 1137   0.103   1.220   0.666
  201SOL     OW 1138   0.683   1.407   1.630
  201SOL    HW1 1139   0.604   1.364   1.662
  201SOL    HW2 1140   0.679   1.495   1.668
  202SOL     OW 1141   1.810   0.183   1.236
  202SOL    HW1 1142   1.813   0.089   1.253
  202SOL    HW2 1143   1.826   0.192   1.142
  203SOL     OW 1144   0.444   0.437   0.534
  203SOL    HW1 1145   0.473   0.363   0.481
  203SOL    HW2 1146   0.391   0.398   0.603
  204SOL     OW 1147   1.701   1.477   1.082
  204SOL    HW1 1148   1.618   1.460   1.038
  204SOL    HW2 1149   1.706   1.411   1.151
  205SOL     OW 1150   0.335   0.559   1.294
  205SOL    HW1 1151   0.390   0.503   1.347
  205SOL    HW2 1152   0.350   0.530   1.204
  206SOL     OW 1153   0.831   1.579   0.675
  206SOL    HW1 1154   0.813   1.645   0.608
  206SOL    HW2 1155   0.755   1.520   0.672
  207SOL     OW 1156   1.459   0.255   1.110
  207SOL    HW1 1157   1.478   0.169   1.146
  207SOL    HW2 1158   1.404   0.297   1.176
  208SOL     OW 1159   1.002   0.026   1.145
  208SOL    HW1 1160   0.919   3.999   1.106
  208SOL    HW2 1161   1.052   3.945   1.154
  209SOL     OW 1162   0.781   1.324   0.320
  209SOL    HW1 1163   0.750   1.235   0.337
  209SOL    HW2 1164   0.861   1.332   0.373
  210SOL     OW 1165   0.621   1.557   1.287
  210SOL    HW1 1166   0.622   1.639   1.336
  210SOL    HW2 1167   0.709   1.550   1.250
  211SOL     OW 1168   1.318   0.069   0.126
  211SOL    HW1 1169   1.334   3.979   0.097
  211SOL    HW2 1170   1.257   0.061   0.199
  212SOL     OW 1171   1.279   0.454   0.681
  212SOL    HW1 1172   1.233   0.538   0.675
  212SOL    HW2 1173   1.283   0.436   0.775
  213SOL     OW 1174   1.587   0.209   0.868
  213SOL    HW1 1175   1.538   0.234   0.946
  213SOL    HW2 1176   1.587   0.288   0.814
  214SOL     OW 1177   0.045   1.027   0.257
  214SOL    HW1 1178   0.138   1.007   0.253
  214SOL    HW2 1179   0.006   0.953   0.303
  215SOL     OW 1180   0.895   1.657   0.342
  215SOL    HW1 1181   0.818   1.629   0.293
  215SOL    HW2 1182   0.864   1.729   0.396
  216SOL     OW 1183   0.232   0.630   1.977
  216SOL    HW1 1184   0.139   0.634   1.999
  216SOL    HW2 1185   0.235   0.600   1.887
  217SOL     OW 1186   0.223   0.290   2.844
  217SOL    HW1 1187   0.246   0.250   2.928
  217SOL    HW2 1188   0.128   0.281   2.838
  218SOL     OW 1189   0.019   0.384   2.498
  218SOL    HW1 1190   3.928   0.400   2.522
  218SOL    HW2 1191   0.025   0.290   2.485
  219SOL     OW 1192   0.583   1.293   3.059
  219SOL    HW1 1193   0.497   1.294   3.017
  219SOL    HW2 1194   0.596   1.382   3.089
  220SOL     OW 1195   1.571   1.514   2.571
  220SOL    HW1 1196   1.527   1.493   2.654
  220SOL    HW2 1197   1.499   1.520   2.508
  221SOL     OW 1198   1.134   0.699   2.557
  221SOL    HW1 1199   1.181   0.781   2.545
  221SOL    HW2 1200   1.085   0.710   2.639
  222SOL     OW 1201   1.772   0.620   2.085
  222SOL    HW1 1202   1.748   0.612   1.993
  222SOL    HW2 1203   1.753   0.534   2.122
  223SOL     OW 1204   0.750   1.137   2.907
  223SOL    HW1 1205   0.688   1.174   2.970
  223SOL    HW2 1206   0.787   1.213   2.862
  224SOL     OW 1207   0.874   0.767   3.687
  224SOL    HW1 1208   0.863   0.838   3.750
  224SOL    HW2 1209   0.895   0.810   3.605
  225SOL     OW 1210   0.685   1.001   2.507
  225SOL    HW1 1211   0.751   0.990   2.575
  225SOL    HW2 1212   0.616   1.053   2.548
  226SOL     OW 1213   0.713   1.148   3.681
  226SOL    HW1 1214   0.761   1.226   3.710
  226SOL    HW2 1215   0.633   1.183   3.642
  227SOL     OW 1216   0.352   1.399   2.941
  227SOL    HW1 1217   0.271   1.377   2.895
  227SOL    HW2 1218   0.398   1.457   2.880
  228SOL     OW 1219   1.460   1.503   3.221
  228SOL    HW1 1220   1.514   1.581   3.230
  228SOL    HW2 1221   1.393   1.512   3.289
  229SOL     OW 1222   0.459   0.409   3.355
  229SOL    HW1 1223   0.541   0.360   3.355
  229SOL    HW2 1224   0.391   0.341   3.359
  230SOL     OW 1225   1.612   0.451   2.597
  230SOL    HW1 1226   1.544   0.482   2.537
  230SOL    HW2 1227   1.625   0.523   2.659
  231SOL     OW 1228   0.219   1.720   2.318
  231SOL    HW1 1229   0.240   1.794   2.376
  231SOL    HW2 1230   0.296   1.712   2.261
  232SOL     OW 1231   1.138   1.342   3.556
  232SOL    HW1 1232   1.179   1.336   3.642
  232SOL    HW2 1233   1.085   1.262   3.548
  233SOL     OW 1234   0.252   1.452   2.401
  233SOL    HW1 1235   0.216   1.540   2.387
  233SOL    HW2 1236   0.186   1.407   2.453
  234SOL     OW 1237   0.248   1.064   2.746
  234SOL    HW1 1238   0.268   0.979   2.784
  234SOL    HW2 1239   0.195   1.109   2.812
  235SOL     OW 1240   0.608   1.794   3.287
  235SOL    HW1 1241   0.526   1.776   3.332
  235SOL    HW2 1242   0.632   1.882   3.314
  236SOL     OW 1243   0.574   0.987   2.002
  236SOL    HW1 1244   0.624   1.030   1.933
  236SOL    HW2 1245   0.615   1.017   2.083
  237SOL     OW 1246   1.583   0.142   3.317
  237SOL    HW1 1247   1.614   0.214   3.263
  237SOL    HW2 1248   1.546   0.184   3.395
  238SOL     OW 1249   0.142   0.653   2.431
  238SOL    HW1 1250   0.100   0.567   2.436
  238SOL    HW2 1251   0.103   0.703   2.503
  239SOL     OW 1252   0.044   1.588   1.999
  239SOL    HW1 1253   0.039   1.497   2.027
  239SOL    HW2 1254   3.958   1.624   2.021
  240SOL     OW 1255   1.688   0.918   2.506
  240SOL    HW1 1256   1.771   0.876   2.486
  240SOL    HW2 1257   1.667   0.970   2.428
  241SOL     OW 1258   1.650   1.104   2.291
  241SOL    HW1 1259   1.737   1.106   2.251
  241SOL    HW2 1260   1.656   1.167   2.364
  242SOL     OW 1261   0.144   0.756   3.451
  242SOL    HW1 1262   0.240   0.752   3.444
  242SOL    HW2 1263   0.126   0.842   3.487
  243SOL     OW 1264   0.613   1.388   2.599
  243SOL    HW1 1265   0.568   1.304   2.607
  243SOL    HW2 1266   0.598   1.415   2.508
  244SOL     OW 1267   1.286   1.236   3.283
  244SOL    HW1 1268   1.317   1.168   3.223
  244SOL    HW2 1269   1.345   1.231   3.358
  245SOL     OW 1270   0.822   0.005   2.380
  245SOL    HW1 1271   0.867   0.086   2.354
  245SOL    HW2 1272   0.729   0.028   2.378
  246SOL     OW 1273   0.183   0.948   3.142
  246SOL    HW1 1274   0.272   0.913   3.130
  246SOL    HW2 1275   0.132   0.907   3.072
  247SOL     OW 1276   1.531   0.998   2.063
  247SOL    HW1 1277   1.462   0.941   2.096
  247SOL    HW2 1278   1.574   1.032   2.141
  248SOL     OW 1279   1.184   1.811   3.487
  248SOL    HW1 1280   1.191   1.872   3.414
  248SOL    HW2 1281   1.202   1.725   3.450
  249SOL     OW 1282   0.347   0.248   3.711
  249SOL    HW1 1283   0.390   0.331   3.691
  249SOL    HW2 1284   0.255   0.271   3.726
  250SOL     OW 1285   1.465   1.420   2.809
  250SOL    HW1 1286   1.399   1.435   2.876
  250SOL    HW2 1287   1.452   1.328   2.783
  251SOL     OW 1288   1.664   1.738   2.417
  251SOL    HW1 1289   1.631   1.701   2.335
  251SOL    HW2 1290   1.646   1.671   2.483
  252SOL     OW 1291   0.595   0.716   2.130
  252SOL    HW1 1292   0.600   0.801   2.086
  252SOL    HW2 1293   0.533   0.729   2.201
  253SOL     OW 1294   1.274   0.372   2.803
  253SOL    HW1 1295   1.187   0.333   2.811
  253SOL    HW2 1296   1.332   0.311   2.849
  254SOL     OW 1297   1.575   1.672   2.158
  254SOL    HW1 1298   1.663   1.698   2.134
  254SOL    HW2 1299   1.533   1.648   2.076
  255SOL     OW 1300   0.794   0.615   3.314
  255SOL    HW1 1301   0.765   0.589   3.401
  255SOL    HW2 1302   0.758   0.548   3.256
  256SOL     OW 1303   1.392   0.475   3.539
  256SOL    HW1 1304   1.399   0.521   3.623
  256SOL    HW2 1305   1.448   0.399   3.549
  257SOL     OW 1306   0.950   0.886   3.448
  257SOL    HW1 1307   1.005   0.818   3.410
  257SOL    HW2 1308   0.901   0.922   3.374
  258SOL     OW 1309   0.994   0.402   3.097
  258SOL    HW1 1310   0.907   0.421   3.134
  258SOL    HW2 1311   0.977   0.375   3.007
  259SOL     OW 1312   1.053   0.700   2.287
  259SOL    HW1 1313   1.071   0.693   2.380
  259SOL    HW2 1314   0.970   0.654   2.274
  260SOL     OW 1315   0.082   0.831   2.652
  260SOL    HW1 1316   0.152   0.796   2.707
  260SOL    HW2 1317   0.107   0.922   2.637
  261SOL     OW 1318   0.130   1.866   3.442
  261SOL    HW1 1319   0.138   1.830   3.530
  261SOL    HW2 1320   0.038   1.856   3.420
  262SOL     OW 1321   0.895   0.352   2.061
  262SOL    HW1 1322   0.937   0.413   2.000
  262SOL    HW2 1323   0.891   0.269   2.014
  263SOL     OW 1324   1.706   0.575   3.692
  263SOL    HW1 1325   1.669   0.649   3.643
  263SOL    HW2 1326   1.730   0.511   3.625
  264SOL     OW 1327   1.380   1.141   2.401
  264SOL    HW1 1328   1.460   1.131   2.349
  264SOL    HW2 1329   1.327   1.204   2.351
  265SOL     OW 1330   0.563   0.195   2.742
  265SOL    HW1 1331   0.567   0.220   2.834
  265SOL    HW2 1332   0.547   0.277   2.695
  266SOL     OW 1333   1.000   1.443   2.331
  266SOL    HW1 1334   0.969   1.519   2.281
  266SOL    HW2 1335   0.978   1.464   2.421
  267SOL     OW 1336   0.364   1.825   2.735
  267SOL    HW1 1337   0.426   1.752   2.745
  267SOL    HW2 1338   0.417   1.903   2.750
  268SOL     OW 1339   1.800   1.049   2.735
  268SOL    HW1 1340   1.747   1.034   2.657
  268SOL    HW2 1341   1.736   1.057   2.806
  269SOL     OW 1342   1.227   1.540   3.375
  269SOL    HW1 1343   1.215   1.467   3.437
  269SOL    HW2 1344   1.161   1.525   3.308
  270SOL     OW 1345   0.310   0.952   2.104
  270SOL    HW1 1346   0.394   0.974   2.062
  270SOL    HW2 1347   0.298   0.858   2.087
  271SOL     OW 1348   1.480   0.751   2.590
  271SOL    HW1 1349   1.476   0.710   2.677
  271SOL    HW2 1350   1.558   0.806   2.593
  272SOL     OW 1351   0.470   1.262   3.600
  272SOL    HW1 1352   0.445   1.269   3.508
  272SOL    HW2 1353   0.388   1.263   3.648
  273SOL     OW 1354   1.123   1.776   2.092
  273SOL    HW1 1355   1.047   1.737   2.135
  273SOL    HW2 1356   1.146   1.713   2.023
  274SOL     OW 1357   0.202   0.293   3.363
  274SOL    HW1 1358   0.108   0.312   3.363
  274SOL    HW2 1359   0.211   0.216   3.420
  275SOL     OW 1360   1.628   1.381   1.950
  275SOL    HW1 1361   1.586   1.465   1.934
  275SOL    HW2 1362   1.560   1.316   1.930
  276SOL     OW 1363   0.466   1.739   2.177
  276SOL    HW1 1364   0.510   1.795   2.241
  276SOL    HW2 1365   0.537   1.702   2.125
  277SOL     OW 1366   1.444   0.171   2.268
  277SOL    HW1 1367   1.392   0.102   2.225
  277SOL    HW2 1368   1.511   0.123   2.317
  278SOL     OW 1369   0.253   1.790   3.092
  278SOL    HW1 1370   0.298   1.723   3.144
  278SOL    HW2 1371   0.252   1.755   3.003
  279SOL     OW 1372   0.939   1.699   2.759
  279SOL    HW1 1373   1.018   1.651   2.780
  279SOL    HW2 1374   0.897   1.649   2.689
  280SOL     OW 1375   0.399   0.695   2.332
  280SOL    HW1 1376   0.424   0.603   2.348
  280SOL    HW2 1377   0.307   0.699   2.358
  281SOL     OW 1378   1.528   0.227   3.588
  281SOL    HW1 1379   1.522   0.252   3.681
  281SOL    HW2 1380   1.515   0.132   3.588
  282SOL     OW 1381   0.646   0.127   1.966
  282SOL    HW1 1382   0.666   0.042   2.004
  282SOL    HW2 1383   0.586   0.107   1.894
  283SOL     OW 1384   0.775   0.286   3.632
  283SOL    HW1 1385   0.853   0.230   3.633
  283SOL    HW2 1386   0.721   0.251   3.704
  284SOL     OW 1387   0.875   1.523   3.056
  284SOL    HW1 1388   0.859   1.485   2.970
  284SOL    HW2 1389   0.945   1.468   3.093
  285SOL     OW 1390   1.338   0.588   3.293
  285SOL    HW1 1391   1.369   0.558   3.379
  285SOL    HW2 1392   1.374   0.676   3.283
  286SOL     OW 1393   0.817   1.390   2.806
  286SOL    HW1 1394   0.903   1.379   2.764
  286SOL    HW2 1395   0.755   1.395   2.733
  287SOL     OW 1396   0.931   0.513   2.761
  287SOL    HW1 1397   0.906   0.504   2.669
  287SOL    HW2 1398   0.955   0.424   2.787
  288SOL     OW 1399   0.547   0.055   2.349
  288SOL    HW1 1400   0.473   0.063   2.410
  288SOL    HW2 1401   0.548   0.139   2.302
  289SOL     OW 1402   1.427   1.199   1.901
  289SOL    HW1 1403   1.457   1.124   1.953
  289SOL    HW2 1404   1.342   1.222   1.938
  290SOL     OW 1405   0.352   0.032   2.062
  290SOL    HW1 1406   0.357   0.087   1.984
  290SOL    HW2 1407   0.439   0.039   2.102
  291SOL     OW 1408   0.944   0.251   2.321
  291SOL    HW1 1409   0.919   0.290   2.237
  291SOL    HW2 1410   1.040   0.256   2.321
  292SOL     OW 1411   1.079   0.685   3.319
  292SOL    HW1 1412   1.010   0.619   3.326
  292SOL    HW2 1413   1.160   0.635   3.314
  293SOL     OW 1414   1.219   1.572   2.657
  293SOL    HW1 1415   1.234   1.638   2.589
  293SOL    HW2 1416   1.290   1.586   2.720
  294SOL     OW 1417   0.467   1.152   2.595
  294SOL    HW1 1418   0.396   1.126   2.655
  294SOL    HW2 1419   0.431   1.136   2.508
  295SOL     OW 1420   1.262   1.791   2.473
  295SOL    HW1 1421   1.308   1.854   2.417
  295SOL    HW2 1422   1.195   1.843   2.518
  296SOL     OW 1423   1.021   0.540   1.893
  296SOL    HW1 1424   0.978   0.623   1.873
  296SOL    HW2 1425   1.085   0.561   1.961
  297SOL     OW 1426   0.082   0.575   3.254
  297SOL    HW1 1427   0.171   0.557   3.225
  297SOL    HW2 1428   0.092   0.646   3.318
  298SOL     OW 1429   0.572   0.231   3.021
  298SOL    HW1 1430   0.593   0.138   3.029
  298SOL    HW2 1431   0.481   0.238   3.051
  299SOL     OW 1432   0.871   0.461   2.499
  299SOL    HW1 1433   0.821   0.514   2.438
  299SOL    HW2 1434   0.892   0.381   2.451
  300SOL     OW 1435   0.997   0.038   2.644
  300SOL    HW1 1436   0.958   0.069   2.562
  300SOL    HW2 1437   1.009   3.944   2.630
  301SOL     OW 1438   1.439   1.160   2.719
  301SOL    HW1 1439   1.368   1.097   2.718
  301SOL    HW2 1440   1.465   1.170   2.627
  302SOL     OW 1441   1.464   0.609   2.833
  302SOL    HW1 1442   1.408   0.531   2.838
  302SOL    HW2 1443   1.523   0.601   2.908
  303SOL     OW 1444   1.842   0.818   2.252
  303SOL    HW1 1445   1.900   0.766   2.308
  303SOL    HW2 1446   1.815   0.757   2.183
  304SOL     OW 1447   0.487   1.423   2.020
  304SOL    HW1 1448   0.411   1.392   2.070
  304SOL    HW2 1449   0.475   1.386   1.933
  305SOL     OW 1450   1.674   1.263   2.506
  305SOL    HW1 1451   1.768   1.261   2.520
  305SOL    HW2 1452   1.648   1.353   2.527
  306SOL     OW 1453   1.395   0.577   1.930
  306SOL    HW1 1454   1.332   0.557   1.999
  306SOL    HW2 1455   1.480   0.558   1.969
  307SOL     OW 1456   0.556   0.270   2.179
  307SOL    HW1 1457   0.606   0.231   2.108
  307SOL    HW2 1458   0.528   0.355   2.144
  308SOL     OW 1459   1.749   1.241   3.428
  308SOL    HW1 1460   1.836   1.203   3.421
  308SOL    HW2 1461   1.765   1.332   3.455
  309SOL     OW 1462   1.055   1.353   3.194
  309SOL    HW1 1463   0.979   1.322   3.244
  309SOL    HW2 1464   1.130   1.312   3.236
  310SOL     OW 1465   1.609   1.627   3.518
  310SOL    HW1 1466   1.602   1.663   3.429
  310SOL    HW2 1467   1.692   1.579   3.517
  311SOL     OW 1468   1.134   1.209   2.965
  311SOL    HW1 1469   1.074   1.246   3.029
  311SOL    HW2 1470   1.104   1.243   2.881
  312SOL     OW 1471   1.623   1.096   2.938
  312SOL    HW1 1472   1.617   1.158   3.010
  312SOL    HW2 1473   1.547   1.115   2.883
  313SOL     OW 1474   0.912   0.118   3.263
  313SOL    HW1 1475   0.932   0.089   3.174
  313SOL    HW2 1476   0.993   0.159   3.293
  314SOL     OW 1477   0.984   1.115   3.585
  314SOL    HW1 1478   0.893   1.132   3.609
  314SOL    HW2 1479   0.981   1.037   3.531
  315SOL     OW 1480   0.708   1.062   2.232
  315SOL    HW1 1481   0.694   1.044   2.325
  315SOL    HW2 1482   0.784   1.009   2.209
  316SOL     OW 1483   0.424   0.818   3.115
  316SOL    HW1 1484   0.492   0.825   3.182
  316SOL    HW2 1485   0.389   0.729   3.125
  317SOL     OW 1486   1.265   0.375   3.140
  317SOL    HW1 1487   1.299   0.453   3.184
  317SOL    HW2 1488   1.178   0.399   3.111
  318SOL     OW 1489   0.065   1.579   3.207
  318SOL    HW1 1490   0.071   1.626   3.124
  318SOL    HW2 1491   0.156   1.569   3.236
  319SOL     OW 1492   0.368   1.104   2.343
  319SOL    HW1 1493   0.362   1.183   2.289
  319SOL    HW2 1494   0.367   1.032   2.279
  320SOL     OW 1495   0.554   0.531   2.718
  320SOL    HW1 1496   0.567   0.591   2.645
  320SOL    HW2 1497   0.620   0.558   2.783
  321SOL     OW 1498   1.247   1.349   2.252
  321SOL    HW1 1499   1.303   1.420   2.285
  321SOL    HW2 1500   1.160   1.370   2.285
  322SOL     OW 1501   1.288   1.461   3.011
  322SOL    HW1 1502   1.344   1.466   3.088
  322SOL    HW2 1503   1.233   1.384   3.025
  323SOL     OW 1504   1.573   0.635   2.351
  323SOL    HW1 1505   1.529   0.688   2.418
  323SOL    HW2 1506   1.619   0.699   2.297
  324SOL     OW 1507   0.345   1.528   3.180
  324SOL    HW1 1508   0.336   1.477   3.099
  324SOL    HW2 1509   0.440   1.542   3.187
  325SOL     OW 1510   0.420   0.736   3.463
  325SOL    HW1 1511   0.483   0.781   3.407
  325SOL    HW2 1512   0.456   0.648   3.475
  326SOL     OW 1513   1.606   0.782   3.549
  326SOL    HW1 1514   1.520   0.823   3.542
  326SOL    HW2 1515   1.659   0.823   3.480
  327SOL     OW 1516   1.007   0.140   3.642
  327SOL    HW1 1517   1.065   0.209   3.609
  327SOL    HW2 1518   0.998   0.079   3.569
  328SOL     OW 1519   0.486   0.037   3.625
  328SOL    HW1 1520   0.490   0.050   3.530
  328SOL    HW2 1521   0.423   0.103   3.656
  329SOL     OW 1522   0.585   0.876   2.894
  329SOL    HW1 1523   0.619   0.965   2.897
  329SOL    HW2 1524   0.529   0.868   2.971
  330SOL     OW 1525   1.349   0.858   2.885
  330SOL    HW1 1526   1.263   0.843   2.845
  330SOL    HW2 1527   1.394   0.774   2.877
  331SOL     OW 1528   1.198   0.538   2.117
  331SOL    HW1 1529   1.207   0.459   2.170
  331SOL    HW2 1530   1.155   0.601   2.175
  332SOL     OW 1531   0.310   0.211   3.101
  332SOL    HW1 1532   0.267   0.248   3.178
  332SOL    HW2 1533   0.296   0.117   3.108
  333SOL     OW 1534   0.063   1.306   3.142
  333SOL    HW1 1535   0.092   1.262   3.222
  333SOL    HW2 1536   0.053   1.398   3.167
  334SOL     OW 1537   0.723   0.633   2.913
  334SOL    HW1 1538   0.799   0.620   2.855
  334SOL    HW2 1539   0.693   0.722   2.893
  335SOL     OW 1540   1.739   0.959   3.720
  335SOL    HW1 1541   1.694   0.894   3.666
  335SOL    HW2 1542   1.678   0.976   3.792
  336SOL     OW 1543   0.333   0.054   2.520
  336SOL    HW1 1544   0.304   0.145   2.521
  336SOL    HW2 1545   0.299   0.017   2.601
  337SOL     OW 1546   1.609   0.395   2.240
  337SOL    HW1 1547   1.564   0.326   2.290
  337SOL    HW2 1548   1.589   0.476   2.287
  338SOL     OW 1549   1.031   0.759   2.820
  338SOL    HW1 1550   1.021   0.776   2.914
  338SOL    HW2 1551   1.003   0.668   2.809
  339SOL     OW 1552   0.981   1.566   3.582
  339SOL    HW1 1553   0.966   1.610   3.499
  339SOL    HW2 1554   1.025   1.484   3.559
  340SOL     OW 1555   1.853   1.500   3.464
  340SOL    HW1 1556   1.870   1.532   3.375
  340SOL    HW2 1557   1.937   1.511   3.510
  341SOL     OW 1558   0.355   0.922   3.659
  341SOL    HW1 1559   0.432   0.942   3.712
  341SOL    HW2 1560   0.384   0.854   3.599
  342SOL     OW 1561   1.502   0.274   1.995
  342SOL    HW1 1562   1.430   0.212   2.007
  342SOL    HW2 1563   1.515   0.312   2.082
  343SOL     OW 1564   1.287   0.827   1.890
  343SOL    HW1 1565   1.329   0.741   1.894
  343SOL    HW2 1566   1.319   0.866   1.808
  344SOL     OW 1567   1.068   1.338   2.719
  344SOL    HW1 1568   1.073   1.266   2.656
  344SOL    HW2 1569   1.127   1.405   2.684
  345SOL     OW 1570   0.313   0.802   2.812
  345SOL    HW1 1571   0.407   0.818   2.806
  345SOL    HW2 1572   0.306   0.712   2.844
  346SOL     OW 1573   0.339   0.529   2.878
  346SOL    HW1 1574   0.297   0.445   2.860
  346SOL    HW2 1575   0.414   0.531   2.819
  347SOL     OW 1576   1.134   0.379   3.561
  347SOL    HW1 1577   1.085   0.434   3.623
  347SOL    HW2 1578   1.220   0.420   3.556
  348SOL     OW 1579   1.151   0.225   3.344
  348SOL    HW1 1580   1.142   0.279   3.422
  348SOL    HW2 1581   1.179   0.287   3.276
  349SOL     OW 1582   0.001   1.315   2.044
  349SOL    HW1 1583   3.907   1.332   2.048
  349SOL    HW2 1584   0.010   1.221   2.063
  350SOL     OW 1585   0.079   1.799   2.749
  350SOL    HW1 1586   0.088   1.704   2.750
  350SOL    HW2 1587   0.169   1.832   2.754
  351SOL     OW 1588   0.497   1.571   2.771
  351SOL    HW1 1589   0.566   1.632   2.798
  351SOL    HW2 1590   0.540   1.509   2.714
  352SOL     OW 1591   0.974   0.787   3.085
  352SOL    HW1 1592   1.032   0.769   3.159
  352SOL    HW2 1593   0.890   0.748   3.109
  353SOL     OW 1594   0.034   0.579   2.974
  353SOL    HW1 1595   0.092   0.522   2.923
  353SOL    HW2 1596   0.061   0.565   3.065
  354SOL     OW 1597   0.211   0.515   3.584
  354SOL    HW1 1598   0.255   0.473   3.510
  354SOL    HW2 1599   0.167   0.591   3.546
  355SOL     OW 1600   1.380   0.935   3.518
  355SOL    HW1 1601   1.401   1.028   3.514
  355SOL    HW2 1602   1.376   0.907   3.426
  356SOL     OW 1603   0.819   0.572   2.226
  356SOL    HW1 1604   0.826   0.496   2.168
  356SOL    HW2 1605   0.744   0.621   2.193
  357SOL     OW 1606   1.639   0.602   3.043
  357SOL    HW1 1607   1.630   0.542   3.116
  357SOL    HW2 1608   1.727   0.586   3.009
  358SOL     OW 1609   0.301   1.543   3.584
  358SOL    HW1 1610   0.255   1.612   3.631
  358SOL    HW2 1611   0.273   1.462   3.626
  359SOL     OW 1612   0.715   0.451   3.114
  359SOL    HW1 1613   0.663   0.375   3.091
  359SOL    HW2 1614   0.703   0.512   3.041
  360SOL     OW 1615   0.923   1.679   3.333
  360SOL    HW1 1616   0.898   1.640   3.249
  360SOL    HW2 1617   0.917   1.773   3.318
  361SOL     OW 1618   0.451   0.492   2.061
  361SOL    HW1 1619   0.515   0.561   2.078
  361SOL    HW2 1620   0.372   0.539   2.036
  362SOL     OW 1621   0.154   1.134   3.338
  362SOL    HW1 1622   0.155   1.084   3.419
  362SOL    HW2 1623   0.170   1.069   3.269
  363SOL     OW 1624   1.321   1.044   3.082
  363SOL    HW1 1625   1.343   0.981   3.014
  363SOL    HW2 1626   1.254   1.100   3.043
  364SOL     OW 1627   1.316   0.856   2.166
  364SOL    HW1 1628   1.241   0.827   2.218
  364SOL    HW2 1629   1.288   0.844   2.075
  365SOL     OW 1630   1.757   1.733   3.010
  365SOL    HW1 1631   1.830   1.759   2.953
  365SOL    HW2 1632   1.739   1.642   2.986
  366SOL     OW 1633   1.243   1.734   2.967
  366SOL    HW1 1634   1.326   1.757   2.926
  366SOL    HW2 1635   1.252   1.641   2.988
  367SOL     OW 1636   0.079   1.217   2.889
  367SOL    HW1 1637   0.085   1.243   2.981
  367SOL    HW2 1638   3.986   1.228   2.867
  368SOL     OW 1639   0.680   1.669   3.600
  368SOL    HW1 1640   0.620   1.743   3.590
  368SOL    HW2 1641   0.748   1.685   3.534
  369SOL     OW 1642   1.716   0.123   2.352
  369SOL    HW1 1643   1.793   0.134   2.297
  369SOL    HW2 1644   1.706   0.028   2.360
  370SOL     OW 1645   1.392   1.568   2.351
  370SOL    HW1 1646   1.446   1.603   2.280
  370SOL    HW2 1647   1.341   1.644   2.381
  371SOL     OW 1648   0.177   1.761   3.693
  371SOL    HW1 1649   0.121   1.709   3.751
  371SOL    HW2 1650   0.216   1.826   3.751
  372SOL     OW 1651   1.277   0.929   2.533
  372SOL    HW1 1652   1.351   0.870   2.546
  372SOL    HW2 1653   1.312   1.000   2.479
  373SOL     OW 1654   0.806   1.275   3.287
  373SOL    HW1 1655   0.778   1.317   3.369
  373SOL    HW2 1656   0.734   1.290   3.226
  374SOL     OW 1657   0.670   1.624   2.017
  374SOL    HW1 1658   0.682   1.637   1.923
  374SOL    HW2 1659   0.614   1.547   2.024
  375SOL     OW 1660   1.618   1.730   3.253
  375SOL    HW1 1661   1.668   1.734   3.171
  375SOL    HW2 1662   1.608   1.822   3.278
  376SOL     OW 1663   1.839   0.179   2.827
  376SOL    HW1 1664   1.873   0.116   2.763
  376SOL    HW2 1665   1.750   0.197   2.798
  377SOL     OW 1666   0.276   0.322   2.576
  377SOL    HW1 1667   0.191   0.356   2.549
  377SOL    HW2 1668   0.267   0.307   2.670
  378SOL     OW 1669   1.206   1.602   1.894
  378SOL    HW1 1670   1.195   1.510   1.921
  378SOL    HW2 1671   1.140   1.615   1.826
  379SOL     OW 1672   0.823   1.006   3.237
  379SOL    HW1 1673   0.867   1.000   3.152
  379SOL    HW2 1674   0.821   1.099   3.256
  380SOL     OW 1675   0.915   0.911   2.153
  380SOL    HW1 1676   0.976   0.944   2.086
  380SOL    HW2 1677   0.965   0.843   2.199
  381SOL     OW 1678   1.484   1.622   1.902
  381SOL    HW1 1679   1.390   1.616   1.885
  381SOL    HW2 1680   1.524   1.630   1.815
  382SOL     OW 1681   0.374   1.302   3.354
  382SOL    HW1 1682   0.359   1.382   3.304
  382SOL    HW2 1683   0.297   1.248   3.336
  383SOL     OW 1684   1.607   1.284   3.141
  383SOL    HW1 1685   1.669   1.270   3.213
  383SOL    HW2 1686   1.548   1.352   3.173
  384SOL     OW 1687   1.059   1.110   2.572
  384SOL    HW1 1688   0.987   1.060   2.609
  384SOL    HW2 1689   1.123   1.044   2.545
  385SOL     OW 1690   1.015   0.250   2.833
  385SOL    HW1 1691   1.005   0.199   2.752
  385SOL    HW2 1692   1.012   0.185   2.903
  386SOL     OW 1693   0.607   1.488   2.344
  386SOL    HW1 1694   0.654   1.439   2.277
  386SOL    HW2 1695   0.530   1.523   2.298
  387SOL     OW 1696   1.721   0.395   3.233
  387SOL    HW1 1697   1.794   0.456   3.238
  387SOL    HW2 1698   1.754   0.323   3.179
  388SOL     OW 1699   0.255   1.341   2.156
  388SOL    HW1 1700   0.161   1.345   2.138
  388SOL    HW2 1701   0.265   1.381   2.242
  389SOL     OW 1702   0.109   0.999   3.580
  389SOL    HW1 1703   0.050   0.992   3.655
  389SOL    HW2 1704   0.196   0.981   3.617
  390SOL     OW 1705   0.695   0.258   3.366
  390SOL    HW1 1706   0.762   0.204   3.324
  390SOL    HW2 1707   0.723   0.266   3.457
  391SOL     OW 1708   0.088   0.317   1.886
  391SOL    HW1 1709   3.993   0.317   1.879
  391SOL    HW2 1710   0.115   0.400   1.847
  392SOL     OW 1711   1.425   0.856   3.259
  392SOL    HW1 1712   1.376   0.918   3.205
  392SOL    HW2 1713   1.514   0.859   3.224
  393SOL     OW 1714   0.035   0.173   2.146
  393SOL    HW1 1715   0.037   0.226   2.066
  393SOL    HW2 1716   0.110   0.204   2.197
  394SOL     OW 1717   1.178   1.335   1.980
  394SOL    HW1 1718   1.087   1.305   1.981
  394SOL    HW2 1719   1.204   1.336   2.072
  395SOL     OW 1720   0.622   0.828   3.299
  395SOL    HW1 1721   0.679   0.904   3.284
  395SOL    HW2 1722   0.682   0.754   3.307
  396SOL     OW 1723   1.489   1.790   2.848
  396SOL    HW1 1724   1.510   1.858   2.784
  396SOL    HW2 1725   1.573   1.768   2.888
  397SOL     OW 1726   0.718   0.560   3.568
  397SOL    HW1 1727   0.764   0.621   3.626
  397SOL    HW2 1728   0.742   0.474   3.601
  398SOL     OW 1729   1.473   1.195   3.491
  398SOL    HW1 1730   1.461   1.210   3.585
  398SOL    HW2 1731   1.566   1.214   3.475
  399SOL     OW 1732   0.377   1.744   3.417
  399SOL    HW1 1733   0.290   1.782   3.406
  399SOL    HW2 1734   0.361   1.661   3.463
  400SOL     OW 1735   1.665   0.880   3.118
  400SOL    HW1 1736   1.661   0.795   3.074
  400SOL    HW2 1737   1.655   0.943   3.046
  401SOL     OW 1738   1.222   0.338   2.302
  401SOL    HW1 1739   1.291   0.271   2.295
  401SOL    HW2 1740   1.240   0.382   2.386
  402SOL     OW 1741   0.589   0.737   2.534
  402SOL    HW1 1742   0.627   0.823   2.519
  402SOL    HW2 1743   0.523   0.727   2.466
  403SOL     OW 1744   1.749   0.384   3.505
  403SOL    HW1 1745   1.731   0.390   3.411
  403SOL    HW2 1746   1.692   0.313   3.535
  404SOL     OW 1747   1.748   0.934   3.373
  404SOL    HW1 1748   1.738   1.028   3.386
  404SOL    HW2 1749   1.730   0.920   3.280
  405SOL     OW 1750   0.863   1.365   1.903
  405SOL    HW1 1751   0.826   1.393   1.986
  405SOL    HW2 1752   0.879   1.446   1.855
  406SOL     OW 1753   0.663   1.785   2.802
  406SOL    HW1 1754   0.644   1.877   2.782
  406SOL    HW2 1755   0.759   1.779   2.795
  407SOL     OW 1756   0.869   0.969   2.715
  407SOL    HW1 1757   0.920   0.897   2.753
  407SOL    HW2 1758   0.831   1.014   2.790
  408SOL     OW 1759   1.077   0.989   1.951
  408SOL    HW1 1760   1.056   1.041   1.873
  408SOL    HW2 1761   1.151   0.935   1.924
  409SOL     OW 1762   1.842   1.537   2.692
  409SOL    HW1 1763   1.758   1.536   2.646
  409SOL    HW2 1764   1.828   1.480   2.768
  410SOL     OW 1765   0.228   1.304   3.719
  410SOL    HW1 1766   0.154   1.251   3.690
  410SOL    HW2 1767   0.214   1.317   3.812
  411SOL     OW 1768   0.127   1.284   2.586
  411SOL    HW1 1769   0.141   1.232   2.665
  411SOL    HW2 1770   0.106   1.221   2.518
  412SOL     OW 1771   0.683   1.407   3.492
  412SOL    HW1 1772   0.603   1.364   3.524
  412SOL    HW2 1773   0.679   1.495   3.530
  413SOL     OW 1774   1.810   0.183   3.099
  413SOL    HW1 1775   1.813   0.089   3.115
  413SOL    HW2 1776   1.826   0.192   3.005
  414SOL     OW 1777   0.446   0.438   2.393
  414SOL    HW1 1778   0.468   0.362   2.340
  414SOL    HW2 1779   0.390   0.403   2.463
  415SOL     OW 1780   1.701   1.476   2.946
  415SOL    HW1 1781   1.618   1.460   2.901
  415SOL    HW2 1782   1.705   1.410   3.015
  416SOL     OW 1783   0.335   0.559   3.156
  416SOL    HW1 1784   0.390   0.503   3.209
  416SOL    HW2 1785   0.350   0.530   3.066
  417SOL     OW 1786   0.831   1.579   2.537
  417SOL    HW1 1787   0.813   1.645   2.469
  417SOL    HW2 1788   0.755   1.521   2.534
  418SOL     OW 1789   1.460   0.255   2.972
  418SOL    HW1 1790   1.479   0.169   3.008
  418SOL    HW2 1791   1.405   0.298   3.038
  419SOL     OW 1792   1.002   0.026   3.008
  419SOL    HW1 1793   0.919   3.998   2.968
  419SOL    HW2 1794   1.053   3.945   3.016
  420SOL     OW 1795   0.774   1.333   2.182
  420SOL    HW1 1796   0.746   1.242   2.189
  420SOL    HW2 1797   0.855   1.338   2.231
  421SOL     OW 1798   0.621   1.557   3.149
  421SOL    HW1 1799   0.622   1.639   3.198
  421SOL    HW2 1800   0.709   1.550   3.112
  422SOL     OW 1801   1.308   0.074   2.028
  422SOL    HW1 1802   1.318   3.989   1.984
  422SOL    HW2 1803   1.224   0.067   2.073
  423SOL     OW 1804   1.280   0.456   2.546
  423SOL    HW1 1805   1.233   0.540   2.540
  423SOL    HW2 1806   1.282   0.437   2.640
  424SOL     OW 1807   1.587   0.209   2.730
  424SOL    HW1 1808   1.538   0.235   2.808
  424SOL    HW2 1809   1.588   0.288   2.676
  425SOL     OW 1810   0.047   1.047   2.105
  425SOL    HW1 1811   0.142   1.031   2.097
  425SOL    HW2 1812   0.011   0.961   2.128
  426SOL     OW 1813   0.888   1.659   2.200
  426SOL    HW1 1814   0.813   1.643   2.143
  426SOL    HW2 1815   0.861   1.731   2.256
  427SOL     OW 1816   0.232   0.630   3.839
  427SOL    HW1 1817   0.139   0.634   3.861
  427SOL    HW2 1818   0.235   0.600   3.749
  428SOL     OW 1819   0.223   0.290   4.706
  428SOL    HW1 1820   0.246   0.250   4.790
  428SOL    HW2 1821   0.128   0.281   4.700
  429SOL     OW 1822   0.019   0.384   4.360
  429SOL    HW1 1823   3.928   0.400   4.384
  429SOL    HW2 1824   0.025   0.290   4.347
  430SOL     OW 1825   0.583   1.293   4.921
  430SOL    HW1 1826   0.497   1.293   4.879
  430SOL    HW2 1827   0.596   1.382   4.951
  431SOL     OW 1828   1.571   1.514   4.433
  431SOL    HW1 1829   1.528   1.493   4.516
  431SOL    HW2 1830   1.499   1.520   4.370
  432SOL     OW 1831   1.134   0.699   4.419
  432SOL    HW1 1832   1.181   0.781   4.407
  432SOL    HW2 1833   1.085   0.710   4.501
  433SOL     OW 1834   1.772   0.620   3.947
  433SOL    HW1 1835   1.748   0.612   3.855
  433SOL    HW2 1836   1.753   0.533   3.984
  434SOL     OW 1837   0.750   1.137   4.769
  434SOL    HW1 1838   0.688   1.174   4.832
  434SOL    HW2 1839   0.787   1.213   4.724
  435SOL     OW 1840   0.874   0.767   5.549
  435SOL    HW1 1841   0.861   0.838   5.611
  435SOL    HW2 1842   0.896   0.810   5.466
  436SOL     OW 1843   0.685   1.001   4.369
  436SOL    HW1 1844   0.751   0.990   4.437
  436SOL    HW2 1845   0.616   1.053   4.410
  437SOL     OW 1846   0.713   1.149   5.543
  437SOL    HW1 1847   0.761   1.226   5.573
  437SOL    HW2 1848   0.633   1.184   5.504
  438SOL     OW 1849   0.352   1.399   4.803
  438SOL    HW1 1850   0.271   1.377   4.757
  438SOL    HW2 1851   0.398   1.457   4.742
  439SOL     OW 1852   1.460   1.503   5.083
  439SOL    HW1 1853   1.514   1.581   5.092
  439SOL    HW2 1854   1.393   1.512   5.151
  440SOL     OW 1855   0.459   0.409   5.217
  440SOL    HW1 1856   0.541   0.360   5.217
  440SOL    HW2 1857   0.391   0.341   5.221
  441SOL     OW 1858   1.612   0.451   4.459
  441SOL    HW1 1859   1.544   0.482   4.399
  441SOL    HW2 1860   1.625   0.523   4.521
  442SOL     OW 1861   0.219   1.720   4.180
  442SOL    HW1 1862   0.240   1.794   4.238
  442SOL    HW2 1863   0.296   1.712   4.123
  443SOL     OW 1864   1.137   1.342   5.417
  443SOL    HW1 1865   1.178   1.335   5.503
  443SOL    HW2 1866   1.085   1.262   5.409
  444SOL     OW 1867   0.252   1.452   4.263
  444SOL    HW1 1868   0.216   1.540   4.249
  444SOL    HW2 1869   0.186   1.407   4.315
  445SOL     OW 1870   0.249   1.064   4.608
  445SOL    HW1 1871   0.268   0.979   4.646
  445SOL    HW2 1872   0.195   1.109   4.674
  446SOL     OW 1873   0.609   1.794   5.149
  446SOL    HW1 1874   0.526   1.776   5.194
  446SOL    HW2 1875   0.632   1.882   5.176
  447SOL     OW 1876   0.574   0.987   3.864
  447SOL    HW1 1877   0.624   1.031   3.795
  447SOL    HW2 1878   0.615   1.017   3.945
  448SOL     OW 1879   1.583   0.142   5.179
  448SOL    HW1 1880   1.615   0.214   5.125
  448SOL    HW2 1881   1.546   0.184   5.257
  449SOL     OW 1882   0.142   0.653   4.293
  449SOL    HW1 1883   0.100   0.567   4.298
  449SOL    HW2 1884   0.103   0.703   4.365
  450SOL     OW 1885   0.044   1.588   3.861
  450SOL    HW1 1886   0.039   1.497   3.889
  450SOL    HW2 1887   3.958   1.624   3.883
  451SOL     OW 1888   1.688   0.917   4.368
  451SOL    HW1 1889   1.771   0.876   4.348
  451SOL    HW2 1890   1.668   0.970   4.290
  452SOL     OW 1891   1.650   1.104   4.153
  452SOL    HW1 1892   1.736   1.106   4.113
  452SOL    HW2 1893   1.656   1.167   4.226
  453SOL     OW 1894   0.144   0.756   5.313
  453SOL    HW1 1895   0.240   0.752   5.306
  453SOL    HW2 1896   0.126   0.842   5.349
  454SOL     OW 1897   0.613   1.388   4.461
  454SOL    HW1 1898   0.567   1.304   4.469
  454SOL    HW2 1899   0.598   1.415   4.370
  455SOL     OW 1900   1.286   1.236   5.145
  455SOL    HW1 1901   1.316   1.168   5.085
  455SOL    HW2 1902   1.346   1.231   5.220
  456SOL     OW 1903   0.822   0.005   4.241
  456SOL    HW1 1904   0.867   0.086   4.216
  456SOL    HW2 1905   0.729   0.028   4.240
  457SOL     OW 1906   0.183   0.948   5.004
  457SOL    HW1 1907   0.272   0.913   4.992
  457SOL    HW2 1908   0.132   0.908   4.934
  458SOL     OW 1909   1.531   0.998   3.925
  458SOL    HW1 1910   1.462   0.941   3.958
  458SOL    HW2 1911   1.574   1.032   4.003
  459SOL     OW 1912   1.184   1.810   5.350
  459SOL    HW1 1913   1.191   1.872   5.277
  459SOL    HW2 1914   1.202   1.725   5.311
  460SOL     OW 1915   0.347   0.248   5.573
  460SOL    HW1 1916   0.389   0.331   5.553
  460SOL    HW2 1917   0.255   0.271   5.588
  461SOL     OW 1918   1.465   1.419   4.671
  461SOL    HW1 1919   1.399   1.435   4.738
  461SOL    HW2 1920   1.452   1.328   4.645
  462SOL     OW 1921   1.663   1.739   4.279
  462SOL    HW1 1922   1.631   1.702   4.197
  462SOL    HW2 1923   1.646   1.671   4.345
  463SOL     OW 1924   0.595   0.716   3.992
  463SOL    HW1 1925   0.600   0.801   3.948
  463SOL    HW2 1926   0.533   0.729   4.063
  464SOL     OW 1927   1.274   0.372   4.665
  464SOL    HW1 1928   1.187   0.333   4.673
  464SOL    HW2 1929   1.332   0.311   4.711
  465SOL     OW 1930   1.575   1.672   4.021
  465SOL    HW1 1931   1.664   1.697   3.996
  465SOL    HW2 1932   1.533   1.648   3.938
  466SOL     OW 1933   0.794   0.615   5.176
  466SOL    HW1 1934   0.765   0.589   5.263
  466SOL    HW2 1935   0.758   0.548   5.118
  467SOL     OW 1936   1.392   0.475   5.401
  467SOL    HW1 1937   1.400   0.521   5.485
  467SOL    HW2 1938   1.448   0.399   5.411
  468SOL     OW 1939   0.950   0.886   5.310
  468SOL    HW1 1940   1.005   0.818   5.272
  468SOL    HW2 1941   0.901   0.922   5.236
  469SOL     OW 1942   0.994   0.402   4.959
  469SOL    HW1 1943   0.907   0.421   4.996
  469SOL    HW2 1944   0.977   0.375   4.869
  470SOL     OW 1945   1.053   0.700   4.149
  470SOL    HW1 1946   1.071   0.693   4.242
  470SOL    HW2 1947   0.970   0.654   4.136
  471SOL     OW 1948   0.082   0.831   4.514
  471SOL    HW1 1949   0.152   0.796   4.569
  471SOL    HW2 1950   0.107   0.922   4.499
  472SOL     OW 1951   0.130   1.866   5.304
  472SOL    HW1 1952   0.138   1.830   5.392
  472SOL    HW2 1953   0.038   1.856   5.282
  473SOL     OW 1954   0.895   0.352   3.923
  473SOL    HW1 1955   0.937   0.413   3.862
  473SOL    HW2 1956   0.891   0.269   3.876
  474SOL     OW 1957   1.705   0.575   5.554
  474SOL    HW1 1958   1.669   0.648   5.504
  474SOL    HW2 1959   1.730   0.511   5.487
  475SOL     OW 1960   1.380   1.141   4.263
  475SOL    HW1 1961   1.460   1.131   4.211
  475SOL    HW2 1962   1.327   1.204   4.213
  476SOL     OW 1963   0.563   0.195   4.604
  476SOL    HW1 1964   0.567   0.220   4.696
  476SOL    HW2 1965   0.547   0.277   4.557
  477SOL     OW 1966   1.000   1.443   4.193
  477SOL    HW1 1967   0.969   1.519   4.143
  477SOL    HW2 1968   0.978   1.464   4.283
  478SOL     OW 1969   0.364   1.825   4.597
  478SOL    HW1 1970   0.426   1.752   4.607
  478SOL    HW2 1971   0.417   1.903   4.612
  479SOL     OW 1972   1.800   1.049   4.597
  479SOL    HW1 1973   1.747   1.034   4.519
  479SOL    HW2 1974   1.736   1.057   4.668
  480SOL     OW 1975   1.227   1.540   5.237
  480SOL    HW1 1976   1.215   1.467   5.298
  480SOL    HW2 1977   1.161   1.525   5.169
  481SOL     OW 1978   0.310   0.952   3.966
  481SOL    HW1 1979   0.394   0.974   3.924
  481SOL    HW2 1980   0.298   0.859   3.949
  482SOL     OW 1981   1.480   0.751   4.452
  482SOL    HW1 1982   1.477   0.710   4.539
  482SOL    HW2 1983   1.558   0.806   4.455
  483SOL     OW 1984   0.470   1.261   5.462
  483SOL    HW1 1985   0.445   1.269   5.370
  483SOL    HW2 1986   0.388   1.263   5.510
  484SOL     OW 1987   1.123   1.776   3.954
  484SOL    HW1 1988   1.047   1.737   3.997
  484SOL    HW2 1989   1.146   1.713   3.885
  485SOL     OW 1990   0.202   0.293   5.225
  485SOL    HW1 1991   0.108   0.312   5.225
  485SOL    HW2 1992   0.210   0.216   5.282
  486SOL     OW 1993   1.628   1.381   3.812
  486SOL    HW1 1994   1.586   1.466   3.796
  486SOL    HW2 1995   1.560   1.316   3.792
  487SOL     OW 1996   0.466   1.739   4.039
  487SOL    HW1 1997   0.510   1.795   4.103
  487SOL    HW2 1998   0.537   1.702   3.987
  488SOL     OW 1999   1.444   0.171   4.130
  488SOL    HW1 2000   1.392   0.102   4.087
  488SOL    HW2 2001   1.511   0.123   4.179
  489SOL     OW 2002   0.254   1.790   4.954
  489SOL    HW1 2003   0.298   1.722   5.006
  489SOL    HW2 2004   0.252   1.755   4.865
  490SOL     OW 2005   0.939   1.699   4.621
  490SOL    HW1 2006   1.019   1.651   4.641
  490SOL    HW2 2007   0.897   1.649   4.551
  491SOL     OW 2008   0.399   0.695   4.194
  491SOL    HW1 2009   0.424   0.603   4.210
  491SOL    HW2 2010   0.307   0.699   4.220
  492SOL     OW 2011   1.528   0.227   5.450
  492SOL    HW1 2012   1.522   0.252   5.543
  492SOL    HW2 2013   1.515   0.132   5.450
  493SOL     OW 2014   0.646   0.127   3.827
  493SOL    HW1 2015   0.666   0.042   3.866
  493SOL    HW2 2016   0.586   0.107   3.756
  494SOL     OW 2017   0.775   0.286   5.495
  494SOL    HW1 2018   0.853   0.231   5.495
  494SOL    HW2 2019   0.721   0.251   5.566
  495SOL     OW 2020   0.875   1.522   4.918
  495SOL    HW1 2021   0.859   1.485   4.832
  495SOL    HW2 2022   0.945   1.468   4.955
  496SOL     OW 2023   1.338   0.588   5.155
  496SOL    HW1 2024   1.369   0.558   5.241
  496SOL    HW2 2025   1.374   0.676   5.145
  497SOL     OW 2026   0.817   1.390   4.668
  497SOL    HW1 2027   0.903   1.379   4.626
  497SOL    HW2 2028   0.755   1.395   4.595
  498SOL     OW 2029   0.931   0.513   4.623
  498SOL    HW1 2030   0.906   0.504   4.531
  498SOL    HW2 2031   0.955   0.424   4.649
  499SOL     OW 2032   0.547   0.055   4.211
  499SOL    HW1 2033   0.473   0.063   4.272
  499SOL    HW2 2034   0.548   0.139   4.164
  500SOL     OW 2035   1.427   1.199   3.763
  500SOL    HW1 2036   1.457   1.124   3.815
  500SOL    HW2 2037   1.342   1.222   3.800
  501SOL     OW 2038   0.352   0.032   3.924
  501SOL    HW1 2039   0.357   0.087   3.846
  501SOL    HW2 2040   0.439   0.039   3.964
  502SOL     OW 2041   0.944   0.251   4.183
  502SOL    HW1 2042   0.919   0.290   4.099
  502SOL    HW2 2043   1.040   0.256   4.183
  503SOL     OW 2044   1.079   0.685   5.181
  503SOL    HW1 2045   1.011   0.619   5.188
  503SOL    HW2 2046   1.161   0.635   5.176
  504SOL     OW 2047   1.219   1.572   4.519
  504SOL    HW1 2048   1.234   1.638   4.451
  504SOL    HW2 2049   1.290   1.586   4.582
  505SOL     OW 2050   0.467   1.152   4.457
  505SOL    HW1 2051   0.396   1.126   4.517
  505SOL    HW2 2052   0.431   1.136   4.370
  506SOL     OW 2053   1.262   1.791   4.335
  506SOL    HW1 2054   1.308   1.854   4.280
  506SOL    HW2 2055   1.195   1.843   4.380
  507SOL     OW 2056   1.021   0.540   3.755
  507SOL    HW1 2057   0.978   0.623   3.735
  507SOL    HW2 2058   1.085   0.561   3.823
  508SOL     OW 2059   0.082   0.575   5.116
  508SOL    HW1 2060   0.171   0.557   5.086
  508SOL    HW2 2061   0.092   0.646   5.180
  509SOL     OW 2062   0.572   0.231   4.883
  509SOL    HW1 2063   0.593   0.138   4.891
  509SOL    HW2 2064   0.481   0.238   4.913
  510SOL     OW 2065   0.871   0.461   4.361
  510SOL    HW1 2066   0.821   0.514   4.300
  510SOL    HW2 2067   0.892   0.381   4.313
  511SOL     OW 2068   0.997   0.038   4.506
  511SOL    HW1 2069   0.958   0.069   4.424
  511SOL    HW2 2070   1.009   3.944   4.492
  512SOL     OW 2071   1.439   1.160   4.581
  512SOL    HW1 2072   1.368   1.096   4.580
  512SOL    HW2 2073   1.465   1.170   4.489
  513SOL     OW 2074   1.464   0.609   4.695
  513SOL    HW1 2075   1.408   0.531   4.700
  513SOL    HW2 2076   1.523   0.601   4.770
  514SOL     OW 2077   1.842   0.818   4.114
  514SOL    HW1 2078   1.900   0.766   4.170
  514SOL    HW2 2079   1.815   0.758   4.044
  515SOL     OW 2080   0.487   1.423   3.882
  515SOL    HW1 2081   0.411   1.392   3.932
  515SOL    HW2 2082   0.475   1.386   3.795
  516SOL     OW 2083   1.674   1.263   4.368
  516SOL    HW1 2084   1.768   1.261   4.382
  516SOL    HW2 2085   1.648   1.353   4.390
  517SOL     OW 2086   1.395   0.577   3.792
  517SOL    HW1 2087   1.332   0.557   3.861
  517SOL    HW2 2088   1.480   0.558   3.831
  518SOL     OW 2089   0.556   0.270   4.041
  518SOL    HW1 2090   0.606   0.231   3.970
  518SOL    HW2 2091   0.528   0.355   4.006
  519SOL     OW 2092   1.749   1.242   5.290
  519SOL    HW1 2093   1.836   1.203   5.283
  519SOL    HW2 2094   1.765   1.332   5.317
  520SOL     OW 2095   1.055   1.354   5.056
  520SOL    HW1 2096   0.979   1.322   5.106
  520SOL    HW2 2097   1.130   1.312   5.098
  521SOL     OW 2098   1.609   1.626   5.378
  521SOL    HW1 2099   1.602   1.663   5.290
  521SOL    HW2 2100   1.692   1.579   5.379
  522SOL     OW 2101   1.134   1.209   4.827
  522SOL    HW1 2102   1.074   1.246   4.891
  522SOL    HW2 2103   1.104   1.243   4.743
  523SOL     OW 2104   1.623   1.096   4.800
  523SOL    HW1 2105   1.616   1.158   4.872
  523SOL    HW2 2106   1.547   1.115   4.745
  524SOL     OW 2107   0.912   0.118   5.125
  524SOL    HW1 2108   0.932   0.089   5.036
  524SOL    HW2 2109   0.993   0.159   5.155
  525SOL     OW 2110   0.984   1.115   5.448
  525SOL    HW1 2111   0.893   1.131   5.471
  525SOL    HW2 2112   0.981   1.037   5.393
  526SOL     OW 2113   0.708   1.062   4.094
  526SOL    HW1 2114   0.694   1.044   4.187
  526SOL    HW2 2115   0.784   1.009   4.071
  527SOL     OW 2116   0.424   0.818   4.977
  527SOL    HW1 2117   0.492   0.825   5.044
  527SOL    HW2 2118   0.389   0.729   4.987
  528SOL     OW 2119   1.265   0.375   5.002
  528SOL    HW1 2120   1.299   0.453   5.046
  528SOL    HW2 2121   1.177   0.399   4.973
  529SOL     OW 2122   0.065   1.579   5.069
  529SOL    HW1 2123   0.071   1.625   4.985
  529SOL    HW2 2124   0.156   1.570   5.098
  530SOL     OW 2125   0.368   1.104   4.205
  530SOL    HW1 2126   0.362   1.183   4.151
  530SOL    HW2 2127   0.367   1.032   4.141
  531SOL     OW 2128   0.554   0.531   4.580
  531SOL    HW1 2129   0.567   0.591   4.507
  531SOL    HW2 2130   0.620   0.558   4.645
  532SOL     OW 2131   1.247   1.349   4.114
  532SOL    HW1 2132   1.303   1.420   4.147
  532SOL    HW2 2133   1.160   1.370   4.147
  533SOL     OW 2134   1.288   1.461   4.873
  533SOL    HW1 2135   1.344   1.465   4.950
  533SOL    HW2 2136   1.233   1.384   4.887
  534SOL     OW 2137   1.573   0.635   4.213
  534SOL    HW1 2138   1.529   0.688   4.279
  534SOL    HW2 2139   1.619   0.699   4.159
  535SOL     OW 2140   0.345   1.528   5.041
  535SOL    HW1 2141   0.336   1.477   4.961
  535SOL    HW2 2142   0.440   1.543   5.049
  536SOL     OW 2143   0.420   0.736   5.325
  536SOL    HW1 2144   0.483   0.781   5.269
  536SOL    HW2 2145   0.456   0.648   5.337
  537SOL     OW 2146   1.606   0.782   5.411
  537SOL    HW1 2147   1.520   0.823   5.403
  537SOL    HW2 2148   1.658   0.823   5.341
  538SOL     OW 2149   1.006   0.140   5.504
  538SOL    HW1 2150   1.065   0.209   5.471
  538SOL    HW2 2151   0.998   0.079   5.431
  539SOL     OW 2152   0.485   0.037   5.487
  539SOL    HW1 2153   0.490   0.050   5.392
  539SOL    HW2 2154   0.423   0.103   5.518
  540SOL     OW 2155   0.585   0.876   4.756
  540SOL    HW1 2156   0.619   0.965   4.759
  540SOL    HW2 2157   0.529   0.868   4.833
  541SOL     OW 2158   1.349   0.858   4.747
  541SOL    HW1 2159   1.263   0.843   4.707
  541SOL    HW2 2160   1.394   0.774   4.739
  542SOL     OW 2161   1.198   0.538   3.979
  542SOL    HW1 2162   1.207   0.459   4.032
  542SOL    HW2 2163   1.155   0.601   4.037
  543SOL     OW 2164   0.310   0.211   4.963
  543SOL    HW1 2165   0.267   0.248   5.040
  543SOL    HW2 2166   0.296   0.117   4.970
  544SOL     OW 2167   0.064   1.306   5.004
  544SOL    HW1 2168   0.092   1.262   5.084
  544SOL    HW2 2169   0.054   1.398   5.029
  545SOL     OW 2170   0.723   0.633   4.775
  545SOL    HW1 2171   0.799   0.620   4.717
  545SOL    HW2 2172   0.693   0.722   4.755
  546SOL     OW 2173   1.739   0.959   5.581
  546SOL    HW1 2174   1.695   0.894   5.527
  546SOL    HW2 2175   1.677   0.976   5.652
  547SOL     OW 2176   0.333   0.054   4.382
  547SOL    HW1 2177   0.304   0.145   4.383
  547SOL    HW2 2178   0.299   0.017   4.463
  548SOL     OW 2179   1.609   0.395   4.102
  548SOL    HW1 2180   1.564   0.326   4.152
  548SOL    HW2 2181   1.589   0.476   4.149
  549SOL     OW 2182   1.031   0.759   4.682
  549SOL    HW1 2183   1.021   0.776   4.776
  549SOL    HW2 2184   1.003   0.668   4.671
  550SOL     OW 2185   0.981   1.566   5.444
  550SOL    HW1 2186   0.965   1.610   5.361
  550SOL    HW2 2187   1.025   1.484   5.420
  551SOL     OW 2188   1.853   1.500   5.326
  551SOL    HW1 2189   1.870   1.532   5.237
  551SOL    HW2 2190   1.936   1.510   5.372
  552SOL     OW 2191   0.355   0.922   5.521
  552SOL    HW1 2192   0.432   0.942   5.574
  552SOL    HW2 2193   0.384   0.854   5.461
  553SOL     OW 2194   1.502   0.273   3.857
  553SOL    HW1 2195   1.430   0.212   3.869
  553SOL    HW2 2196   1.515   0.312   3.944
  554SOL     OW 2197   1.287   0.827   3.751
  554SOL    HW1 2198   1.329   0.741   3.756
  554SOL    HW2 2199   1.319   0.866   3.670
  555SOL     OW 2200   1.068   1.338   4.581
  555SOL    HW1 2201   1.073   1.266   4.518
  555SOL    HW2 2202   1.127   1.405   4.546
  556SOL     OW 2203   0.313   0.802   4.674
  556SOL    HW1 2204   0.407   0.818   4.668
  556SOL    HW2 2205   0.306   0.712   4.706
  557SOL     OW 2206   0.339   0.529   4.740
  557SOL    HW1 2207   0.297   0.445   4.722
  557SOL    HW2 2208   0.414   0.531   4.681
  558SOL     OW 2209   1.134   0.379   5.423
  558SOL    HW1 2210   1.085   0.434   5.485
  558SOL    HW2 2211   1.220   0.420   5.418
  559SOL     OW 2212   1.151   0.225   5.206
  559SOL    HW1 2213   1.142   0.279   5.284
  559SOL    HW2 2214   1.179   0.287   5.138
  560SOL     OW 2215   0.001   1.315   3.906
  560SOL    HW1 2216   3.907   1.332   3.910
  560SOL    HW2 2217   0.010   1.221   3.925
  561SOL     OW 2218   0.079   1.799   4.611
  561SOL    HW1 2219   0.088   1.704   4.612
  561SOL    HW2 2220   0.169   1.831   4.616
  562SOL     OW 2221   0.497   1.571   4.633
  562SOL    HW1 2222   0.566   1.632   4.659
  562SOL    HW2 2223   0.540   1.509   4.576
  563SOL     OW 2224   0.974   0.787   4.947
  563SOL    HW1 2225   1.032   0.769   5.021
  563SOL    HW2 2226   0.891   0.747   4.971
  564SOL     OW 2227   0.034   0.579   4.836
  564SOL    HW1 2228   0.092   0.522   4.785
  564SOL    HW2 2229   0.061   0.565   4.927
  565SOL     OW 2230   0.211   0.515   5.446
  565SOL    HW1 2231   0.255   0.473   5.372
  565SOL    HW2 2232   0.167   0.591   5.408
  566SOL     OW 2233   1.379   0.935   5.380
  566SOL    HW1 2234   1.401   1.028   5.376
  566SOL    HW2 2235   1.375   0.907   5.289
  567SOL     OW 2236   0.819   0.572   4.088
  567SOL    HW1 2237   0.826   0.496   4.030
  567SOL    HW2 2238   0.744   0.621   4.055
  568SOL     OW 2239   1.639   0.602   4.905
  568SOL    HW1 2240   1.630   0.542   4.978
  568SOL    HW2 2241   1.727   0.586   4.871
  569SOL     OW 2242   0.302   1.543   5.446
  569SOL    HW1 2243   0.255   1.612   5.493
  569SOL    HW2 2244   0.272   1.462   5.488
  570SOL     OW 2245   0.715   0.451   4.976
  570SOL    HW1 2246   0.663   0.375   4.953
  570SOL    HW2 2247   0.703   0.512   4.903
  571SOL     OW 2248   0.922   1.679   5.195
  571SOL    HW1 2249   0.898   1.640   5.111
  571SOL    HW2 2250   0.917   1.774   5.180
  572SOL     OW 2251   0.451   0.492   3.923
  572SOL    HW1 2252   0.515   0.561   3.940
  572SOL    HW2 2253   0.372   0.539   3.898
  573SOL     OW 2254   0.154   1.134   5.200
  573SOL    HW1 2255   0.155   1.084   5.281
  573SOL    HW2 2256   0.170   1.069   5.131
  574SOL     OW 2257   1.321   1.044   4.944
  574SOL    HW1 2258   1.343   0.980   4.876
  574SOL    HW2 2259   1.254   1.100   4.905
  575SOL     OW 2260   1.316   0.856   4.028
  575SOL    HW1 2261   1.241   0.827   4.080
  575SOL    HW2 2262   1.288   0.844   3.937
  576SOL     OW 2263   1.752   1.733   4.868
  576SOL    HW1 2264   1.827   1.758   4.813
  576SOL    HW2 2265   1.735   1.642   4.846
  577SOL     OW 2266   1.243   1.734   4.829
  577SOL    HW1 2267   1.327   1.757   4.788
  577SOL    HW2 2268   1.252   1.641   4.850
  578SOL     OW 2269   0.079   1.217   4.751
  578SOL    HW1 2270   0.085   1.243   4.843
  578SOL    HW2 2271   3.986   1.228   4.729
  579SOL     OW 2272   0.680   1.669   5.462
  579SOL    HW1 2273   0.620   1.743   5.452
  579SOL    HW2 2274   0.748   1.685   5.396
  580SOL     OW 2275   1.716   0.123   4.214
  580SOL    HW1 2276   1.793   0.134   4.159
  580SOL    HW2 2277   1.706   0.028   4.222
  581SOL     OW 2278   1.392   1.568   4.213
  581SOL    HW1 2279   1.446   1.603   4.142
  581SOL    HW2 2280   1.341   1.644   4.243
  582SOL     OW 2281   0.177   1.761   5.556
  582SOL    HW1 2282   0.121   1.709   5.613
  582SOL    HW2 2283   0.216   1.826   5.613
  583SOL     OW 2284   1.277   0.929   4.395
  583SOL    HW1 2285   1.351   0.870   4.408
  583SOL    HW2 2286   1.312   1.000   4.341
  584SOL     OW 2287   0.806   1.275   5.150
  584SOL    HW1 2288   0.778   1.317   5.231
  584SOL    HW2 2289   0.735   1.291   5.088
  585SOL     OW 2290   0.670   1.624   3.879
  585SOL    HW1 2291   0.682   1.637   3.785
  585SOL    HW2 2292   0.614   1.547   3.886
  586SOL     OW 2293   1.618   1.730   5.114
  586SOL    HW1 2294   1.667   1.734   5.032
  586SOL    HW2 2295   1.608   1.822   5.140
  587SOL     OW 2296   1.840   0.179   4.689
  587SOL    HW1 2297   1.873   0.116   4.624
  587SOL    HW2 2298   1.750   0.197   4.660
  588SOL     OW 2299   0.276   0.322   4.438
  588SOL    HW1 2300   0.191   0.356   4.411
  588SOL    HW2 2301   0.267   0.307   4.532
  589SOL     OW 2302   1.206   1.602   3.756
  589SOL    HW1 2303   1.196   1.510   3.782
  589SOL    HW2 2304   1.140   1.615   3.688
  590SOL     OW 2305   0.823   1.006   5.099
  590SOL    HW1 2306   0.866   0.999   5.013
  590SOL    HW2 2307   0.821   1.099   5.117
  591SOL     OW 2308   0.915   0.911   4.015
  591SOL    HW1 2309   0.976   0.944   3.948
  591SOL    HW2 2310   0.965   0.843   4.061
  592SOL     OW 2311   1.484   1.623   3.764
  592SOL    HW1 2312   1.390   1.616   3.747
  592SOL    HW2 2313   1.524   1.631   3.677
  593SOL     OW 2314   0.374   1.302   5.216
  593SOL    HW1 2315   0.359   1.383   5.166
  593SOL    HW2 2316   0.298   1.248   5.198
  594SOL     OW 2317   1.607   1.283   5.003
  594SOL    HW1 2318   1.669   1.270   5.074
  594SOL    HW2 2319   1.548   1.352   5.035
  595SOL     OW 2320   1.059   1.110   4.434
  595SOL    HW1 2321   0.987   1.060   4.471
  595SOL    HW2 2322   1.123   1.044   4.407
  596SOL     OW 2323   1.015   0.250   4.695
  596SOL    HW1 2324   1.005   0.200   4.614
  596SOL    HW2 2325   1.012   0.185   4.765
  597SOL     OW 2326   0.607   1.488   4.206
  597SOL    HW1 2327   0.654   1.439   4.139
  597SOL    HW2 2328   0.530   1.523   4.160
  598SOL     OW 2329   1.721   0.395   5.095
  598SOL    HW1 2330   1.794   0.456   5.100
  598SOL    HW2 2331   1.754   0.323   5.041
  599SOL     OW 2332   0.255   1.341   4.018
  599SOL    HW1 2333   0.161   1.345   4.000
  599SOL    HW2 2334   0.265   1.381   4.104
  600SOL     OW 2335   0.109   0.999   5.442
  600SOL    HW1 2336   0.049   0.992   5.517
  600SOL    HW2 2337   0.196   0.981   5.479
  601SOL     OW 2338   0.695   0.258   5.228
  601SOL    HW1 2339   0.762   0.204   5.186
  601SOL    HW2 2340   0.723   0.266   5.319
  602SOL     OW 2341   0.088   0.317   3.748
  602SOL    HW1 2342   3.993   0.317   3.741
  602SOL    HW2 2343   0.115   0.400   3.709
  603SOL     OW 2344   1.425   0.856   5.121
  603SOL    HW1 2345   1.376   0.918   5.067
  603SOL    HW2 2346   1.514   0.859   5.086
  604SOL     OW 2347   0.035   0.173   4.008
  604SOL    HW1 2348   0.037   0.226   3.928
  604SOL    HW2 2349   0.110   0.204   4.059
  605SOL     OW 2350   1.178   1.335   3.842
  605SOL    HW1 2351   1.087   1.305   3.843
  605SOL    HW2 2352   1.204   1.336   3.934
  606SOL     OW 2353   0.622   0.828   5.161
  606SOL    HW1 2354   0.679   0.904   5.146
  606SOL    HW2 2355   0.682   0.754   5.169
  607SOL     OW 2356   1.489   1.790   4.711
  607SOL    HW1 2357   1.510   1.857   4.646
  607SOL    HW2 2358   1.573   1.769   4.751
  608SOL     OW 2359   0.718   0.560   5.430
  608SOL    HW1 2360   0.764   0.621   5.488
  608SOL    HW2 2361   0.742   0.473   5.463
  609SOL     OW 2362   1.474   1.195   5.352
  609SOL    HW1 2363   1.462   1.210   5.446
  609SOL    HW2 2364   1.566   1.214   5.336
  610SOL     OW 2365   0.377   1.744   5.280
  610SOL    HW1 2366   0.290   1.782   5.268
  610SOL    HW2 2367   0.361   1.662   5.325
  611SOL     OW 2368   1.664   0.880   4.980
  611SOL    HW1 2369   1.661   0.795   4.936
  611SOL    HW2 2370   1.655   0.943   4.908
  612SOL     OW 2371   1.222   0.338   4.164
  612SOL    HW1 2372   1.291   0.271   4.157
  612SOL    HW2 2373   1.240   0.382   4.248
  613SOL     OW 2374   0.589   0.737   4.396
  613SOL    HW1 2375   0.627   0.823   4.381
  613SOL    HW2 2376   0.523   0.727   4.328
  614SOL     OW 2377   1.749   0.384   5.367
  614SOL    HW1 2378   1.732   0.390   5.273
  614SOL    HW2 2379   1.692   0.313   5.397
  615SOL     OW 2380   1.747   0.934   5.235
  615SOL    HW1 2381   1.738   1.028   5.248
  615SOL    HW2 2382   1.730   0.920   5.142
  616SOL     OW 2383   0.863   1.365   3.765
  616SOL    HW1 2384   0.826   1.393   3.848
  616SOL    HW2 2385   0.879   1.446   3.717
  617SOL     OW 2386   0.664   1.785   4.664
  617SOL    HW1 2387   0.644   1.877   4.644
  617SOL    HW2 2388   0.759   1.779   4.657
  618SOL     OW 2389   0.869   0.969   4.577
  618SOL    HW1 2390   0.920   0.897   4.615
  618SOL    HW2 2391   0.831   1.014   4.652
  619SOL     OW 2392   1.077   0.989   3.813
  619SOL    HW1 2393   1.056   1.041   3.735
  619SOL    HW2 2394   1.151   0.935   3.786
  620SOL     OW 2395   1.843   1.540   4.557
  620SOL    HW1 2396   1.760   1.539   4.510
  620SOL    HW2 2397   1.828   1.482   4.631
  621SOL     OW 2398   0.228   1.304   5.581
  621SOL    HW1 2399   0.154   1.251   5.552
  621SOL    HW2 2400   0.213   1.317   5.674
  622SOL     OW 2401   0.127   1.285   4.448
  622SOL    HW1 2402   0.140   1.232   4.527
  622SOL    HW2 2403   0.106   1.221   4.380
  623SOL     OW 2404   0.684   1.406   5.356
  623SOL    HW1 2405   0.604   1.364   5.386
  623SOL    HW2 2406   0.680   1.495   5.392
  624SOL     OW 2407   1.809   0.183   4.961
  624SOL    HW1 2408   1.813   0.089   4.977
  624SOL    HW2 2409   1.826   0.192   4.867
  625SOL     OW 2410   0.446   0.438   4.255
  625SOL    HW1 2411   0.468   0.362   4.202
  625SOL    HW2 2412   0.390   0.403   4.325
  626SOL     OW 2413   1.701   1.475   4.808
  626SOL    HW1 2414   1.618   1.458   4.763
  626SOL    HW2 2415   1.705   1.408   4.877
  627SOL     OW 2416   0.335   0.559   5.018
  627SOL    HW1 2417   0.390   0.503   5.071
  627SOL    HW2 2418   0.350   0.530   4.928
  628SOL     OW 2419   0.831   1.579   4.399
  628SOL    HW1 2420   0.813   1.645   4.331
  628SOL    HW2 2421   0.755   1.521   4.396
  629SOL     OW 2422   1.460   0.255   4.834
  629SOL    HW1 2423   1.479   0.169   4.870
  629SOL    HW2 2424   1.405   0.298   4.900
  630SOL     OW 2425   1.002   0.026   4.870
  630SOL    HW1 2426   0.919   3.998   4.829
  630SOL    HW2 2427   1.053   3.946   4.878
  631SOL     OW 2428   0.773   1.333   4.044
  631SOL    HW1 2429   0.746   1.242   4.051
  631SOL    HW2 2430   0.855   1.338   4.093
  632SOL     OW 2431   0.621   1.557   5.011
  632SOL    HW1 2432   0.622   1.639   5.060
  632SOL    HW2 2433   0.709   1.550   4.974
  633SOL     OW 2434   1.308   0.073   3.890
  633SOL    HW1 2435   1.319   3.989   3.846
  633SOL    HW2 2436   1.224   0.067   3.935
  634SOL     OW 2437   1.280   0.456   4.408
  634SOL    HW1 2438   1.233   0.540   4.402
  634SOL    HW2 2439   1.282   0.437   4.502
  635SOL     OW 2440   1.587   0.209   4.592
  635SOL    HW1 2441   1.538   0.235   4.670
  635SOL    HW2 2442   1.588   0.288   4.538
  636SOL     OW 2443   0.047   1.047   3.967
  636SOL    HW1 2444   0.142   1.031   3.959
  636SOL    HW2 2445   0.011   0.961   3.990
  637SOL     OW 2446   0.888   1.659   4.062
  637SOL    HW1 2447   0.813   1.643   4.005
  637SOL    HW2 2448   0.861   1.731   4.118
  638SOL     OW 2449   0.232   0.630   5.702
  638SOL    HW1 2450   0.139   0.634   5.723
  638SOL    HW2 2451   0.235   0.600   5.611
  639SOL     OW 2452   0.223   0.290   6.568
  639SOL    HW1 2453   0.246   0.250   6.652
  639SOL    HW2 2454   0.128   0.282   6.562
  640SOL     OW 2455   0.019   0.384   6.222
  640SOL    HW1 2456   3.928   0.400   6.246
  640SOL    HW2 2457   0.024   0.289   6.209
  641SOL     OW 2458   0.583   1.294   6.783
  641SOL    HW1 2459   0.497   1.295   6.741
  641SOL    HW2 2460   0.596   1.383   6.814
  642SOL     OW 2461   1.133   0.698   6.280
  642SOL    HW1 2462   1.181   0.781   6.268
  642SOL    HW2 2463   1.087   0.710   6.363
  643SOL     OW 2464   1.771   0.619   5.808
  643SOL    HW1 2465   1.747   0.612   5.716
  643SOL    HW2 2466   1.753   0.533   5.845
  644SOL     OW 2467   0.746   1.137   6.629
  644SOL    HW1 2468   0.686   1.175   6.693
  644SOL    HW2 2469   0.786   1.213   6.585
  645SOL     OW 2470   0.874   0.766   7.410
  645SOL    HW1 2471   0.865   0.838   7.473
  645SOL    HW2 2472   0.895   0.809   7.327
  646SOL     OW 2473   0.685   1.001   6.231
  646SOL    HW1 2474   0.751   0.990   6.300
  646SOL    HW2 2475   0.616   1.053   6.272
  647SOL     OW 2476   0.710   1.147   7.404
  647SOL    HW1 2477   0.759   1.224   7.435
  647SOL    HW2 2478   0.631   1.183   7.365
  648SOL     OW 2479   0.352   1.400   6.665
  648SOL    HW1 2480   0.271   1.376   6.619
  648SOL    HW2 2481   0.398   1.458   6.604
  649SOL     OW 2482   1.431   1.512   6.925
  649SOL    HW1 2483   1.473   1.592   6.956
  649SOL    HW2 2484   1.364   1.492   6.990
  650SOL     OW 2485   0.459   0.409   7.080
  650SOL    HW1 2486   0.541   0.360   7.080
  650SOL    HW2 2487   0.391   0.341   7.083
  651SOL     OW 2488   1.612   0.451   6.322
  651SOL    HW1 2489   1.545   0.483   6.262
  651SOL    HW2 2490   1.624   0.522   6.385
  652SOL     OW 2491   0.219   1.720   6.042
  652SOL    HW1 2492   0.240   1.794   6.100
  652SOL    HW2 2493   0.295   1.712   5.985
  653SOL     OW 2494   1.133   1.334   7.288
  653SOL    HW1 2495   1.183   1.325   7.369
  653SOL    HW2 2496   1.079   1.255   7.283
  654SOL     OW 2497   0.253   1.453   6.125
  654SOL    HW1 2498   0.216   1.540   6.110
  654SOL    HW2 2499   0.187   1.407   6.177
  655SOL     OW 2500   0.249   1.065   6.470
  655SOL    HW1 2501   0.269   0.979   6.508
  655SOL    HW2 2502   0.196   1.109   6.536
  656SOL     OW 2503   0.604   1.795   7.008
  656SOL    HW1 2504   0.522   1.776   7.054
  656SOL    HW2 2505   0.627   1.884   7.036
  657SOL     OW 2506   0.574   0.987   5.726
  657SOL    HW1 2507   0.624   1.031   5.657
  657SOL    HW2 2508   0.615   1.017   5.807
  658SOL     OW 2509   1.584   0.142   7.041
  658SOL    HW1 2510   1.615   0.214   6.987
  658SOL    HW2 2511   1.546   0.184   7.119
  659SOL     OW 2512   0.142   0.653   6.155
  659SOL    HW1 2513   0.100   0.568   6.159
  659SOL    HW2 2514   0.103   0.703   6.227
  660SOL     OW 2515   0.044   1.588   5.723
  660SOL    HW1 2516   0.040   1.497   5.752
  660SOL    HW2 2517   3.957   1.624   5.745
  661SOL     OW 2518   1.692   0.916   6.228
  661SOL    HW1 2519   1.777   0.874   6.215
  661SOL    HW2 2520   1.675   0.962   6.146
  662SOL     OW 2521   1.658   1.111   6.015
  662SOL    HW1 2522   1.740   1.100   5.967
  662SOL    HW2 2523   1.674   1.181   6.077
  663SOL     OW 2524   0.144   0.756   7.175
  663SOL    HW1 2525   0.240   0.752   7.168
  663SOL    HW2 2526   0.126   0.843   7.211
  664SOL     OW 2527   0.613   1.388   6.324
  664SOL    HW1 2528   0.568   1.304   6.332
  664SOL    HW2 2529   0.599   1.415   6.233
  665SOL     OW 2530   1.272   1.230   6.997
  665SOL    HW1 2531   1.313   1.167   6.937
  665SOL    HW2 2532   1.324   1.223   7.077
  666SOL     OW 2533   0.822   0.005   6.103
  666SOL    HW1 2534   0.867   0.086   6.078
  666SOL    HW2 2535   0.729   0.028   6.102
  667SOL     OW 2536   0.183   0.948   6.866
  667SOL    HW1 2537   0.272   0.913   6.854
  667SOL    HW2 2538   0.132   0.908   6.796
  668SOL     OW 2539   1.531   0.999   5.785
  668SOL    HW1 2540   1.462   0.942   5.818
  668SOL    HW2 2541   1.576   1.031   5.864
  669SOL     OW 2542   0.347   0.248   7.435
  669SOL    HW1 2543   0.390   0.331   7.414
  669SOL    HW2 2544   0.255   0.271   7.450
  670SOL     OW 2545   0.595   0.716   5.854
  670SOL    HW1 2546   0.599   0.801   5.810
  670SOL    HW2 2547   0.532   0.729   5.925
  671SOL     OW 2548   1.274   0.371   6.527
  671SOL    HW1 2549   1.187   0.332   6.535
  671SOL    HW2 2550   1.332   0.311   6.573
  672SOL     OW 2551   1.582   1.671   5.881
  672SOL    HW1 2552   1.670   1.695   5.853
  672SOL    HW2 2553   1.536   1.647   5.800
  673SOL     OW 2554   0.793   0.615   7.038
  673SOL    HW1 2555   0.764   0.588   7.125
  673SOL    HW2 2556   0.758   0.548   6.980
  674SOL     OW 2557   1.391   0.475   7.263
  674SOL    HW1 2558   1.399   0.521   7.347
  674SOL    HW2 2559   1.449   0.399   7.273
  675SOL     OW 2560   0.949   0.885   7.171
  675SOL    HW1 2561   1.006   0.817   7.133
  675SOL    HW2 2562   0.901   0.920   7.096
  676SOL     OW 2563   0.993   0.402   6.822
  676SOL    HW1 2564   0.907   0.421   6.858
  676SOL    HW2 2565   0.976   0.374   6.732
  677SOL     OW 2566   1.053   0.700   6.011
  677SOL    HW1 2567   1.071   0.693   6.104
  677SOL    HW2 2568   0.970   0.654   5.998
  678SOL     OW 2569   0.082   0.831   6.376
  678SOL    HW1 2570   0.152   0.796   6.431
  678SOL    HW2 2571   0.107   0.922   6.361
  679SOL     OW 2572   0.130   1.866   7.166
  679SOL    HW1 2573   0.138   1.831   7.254
  679SOL    HW2 2574   0.037   1.856   7.144
  680SOL     OW 2575   0.895   0.352   5.785
  680SOL    HW1 2576   0.937   0.413   5.724
  680SOL    HW2 2577   0.891   0.269   5.738
  681SOL     OW 2578   1.706   0.576   7.415
  681SOL    HW1 2579   1.670   0.650   7.367
  681SOL    HW2 2580   1.730   0.512   7.348
  682SOL     OW 2581   1.387   1.151   6.132
  682SOL    HW1 2582   1.457   1.128   6.071
  682SOL    HW2 2583   1.328   1.207   6.080
  683SOL     OW 2584   0.562   0.195   6.465
  683SOL    HW1 2585   0.567   0.220   6.558
  683SOL    HW2 2586   0.547   0.277   6.419
  684SOL     OW 2587   0.991   1.440   6.056
  684SOL    HW1 2588   0.963   1.515   6.005
  684SOL    HW2 2589   0.967   1.461   6.146
  685SOL     OW 2590   0.364   1.825   6.459
  685SOL    HW1 2591   0.425   1.752   6.469
  685SOL    HW2 2592   0.416   1.903   6.474
  686SOL     OW 2593   1.799   0.994   6.480
  686SOL    HW1 2594   1.740   0.991   6.405
  686SOL    HW2 2595   1.745   1.023   6.553
  687SOL     OW 2596   1.199   1.504   7.084
  687SOL    HW1 2597   1.189   1.436   7.150
  687SOL    HW2 2598   1.140   1.477   7.013
  688SOL     OW 2599   0.310   0.952   5.828
  688SOL    HW1 2600   0.393   0.974   5.786
  688SOL    HW2 2601   0.298   0.859   5.811
  689SOL     OW 2602   1.480   0.752   6.314
  689SOL    HW1 2603   1.473   0.710   6.400
  689SOL    HW2 2604   1.557   0.808   6.321
  690SOL     OW 2605   0.469   1.262   7.324
  690SOL    HW1 2606   0.444   1.269   7.232
  690SOL    HW2 2607   0.386   1.264   7.372
  691SOL     OW 2608   1.118   1.775   5.812
  691SOL    HW1 2609   1.043   1.736   5.857
  691SOL    HW2 2610   1.143   1.710   5.746
  692SOL     OW 2611   0.202   0.292   7.087
  692SOL    HW1 2612   0.108   0.312   7.087
  692SOL    HW2 2613   0.211   0.216   7.144
  693SOL     OW 2614   1.627   1.380   5.678
  693SOL    HW1 2615   1.587   1.465   5.661
  693SOL    HW2 2616   1.559   1.316   5.654
  694SOL     OW 2617   0.466   1.738   5.901
  694SOL    HW1 2618   0.509   1.795   5.965
  694SOL    HW2 2619   0.537   1.701   5.849
  695SOL     OW 2620   1.444   0.170   5.992
  695SOL    HW1 2621   1.392   0.102   5.950
  695SOL    HW2 2622   1.511   0.123   6.041
  696SOL     OW 2623   0.253   1.790   6.816
  696SOL    HW1 2624   0.298   1.723   6.868
  696SOL    HW2 2625   0.252   1.755   6.727
  697SOL     OW 2626   0.942   1.686   6.488
  697SOL    HW1 2627   0.986   1.614   6.534
  697SOL    HW2 2628   0.901   1.645   6.412
  698SOL     OW 2629   0.399   0.694   6.056
  698SOL    HW1 2630   0.424   0.603   6.072
  698SOL    HW2 2631   0.307   0.699   6.082
  699SOL     OW 2632   1.529   0.227   7.312
  699SOL    HW1 2633   1.522   0.252   7.405
  699SOL    HW2 2634   1.515   0.132   7.312
  700SOL     OW 2635   0.646   0.127   5.689
  700SOL    HW1 2636   0.666   0.042   5.728
  700SOL    HW2 2637   0.586   0.107   5.618
  701SOL     OW 2638   0.775   0.285   7.356
  701SOL    HW1 2639   0.853   0.230   7.357
  701SOL    HW2 2640   0.721   0.251   7.427
  702SOL     OW 2641   0.880   1.523   6.775
  702SOL    HW1 2642   0.857   1.480   6.693
  702SOL    HW2 2643   0.945   1.465   6.815
  703SOL     OW 2644   1.338   0.587   7.016
  703SOL    HW1 2645   1.369   0.559   7.102
  703SOL    HW2 2646   1.373   0.675   7.005
  704SOL     OW 2647   0.820   1.391   6.528
  704SOL    HW1 2648   0.903   1.377   6.483
  704SOL    HW2 2649   0.755   1.395   6.458
  705SOL     OW 2650   0.931   0.513   6.485
  705SOL    HW1 2651   0.906   0.504   6.393
  705SOL    HW2 2652   0.955   0.424   6.512
  706SOL     OW 2653   0.547   0.055   6.073
  706SOL    HW1 2654   0.473   0.063   6.134
  706SOL    HW2 2655   0.548   0.139   6.026
  707SOL     OW 2656   1.426   1.200   5.624
  707SOL    HW1 2657   1.456   1.124   5.674
  707SOL    HW2 2658   1.340   1.220   5.659
  708SOL     OW 2659   0.352   0.032   5.786
  708SOL    HW1 2660   0.357   0.087   5.708
  708SOL    HW2 2661   0.439   0.039   5.826
  709SOL     OW 2662   0.945   0.251   6.045
  709SOL    HW1 2663   0.919   0.290   5.961
  709SOL    HW2 2664   1.040   0.256   6.045
  710SOL     OW 2665   1.080   0.685   7.043
  710SOL    HW1 2666   1.012   0.617   7.049
  710SOL    HW2 2667   1.162   0.637   7.038
  711SOL     OW 2668   0.467   1.152   6.319
  711SOL    HW1 2669   0.396   1.126   6.378
  711SOL    HW2 2670   0.431   1.137   6.232
  712SOL     OW 2671   1.021   0.540   5.617
  712SOL    HW1 2672   0.978   0.623   5.597
  712SOL    HW2 2673   1.085   0.561   5.685
  713SOL     OW 2674   0.082   0.575   6.979
  713SOL    HW1 2675   0.171   0.557   6.949
  713SOL    HW2 2676   0.092   0.646   7.042
  714SOL     OW 2677   0.572   0.231   6.745
  714SOL    HW1 2678   0.593   0.138   6.753
  714SOL    HW2 2679   0.481   0.237   6.774
  715SOL     OW 2680   0.871   0.461   6.224
  715SOL    HW1 2681   0.821   0.514   6.162
  715SOL    HW2 2682   0.892   0.381   6.175
  716SOL     OW 2683   0.997   0.038   6.368
  716SOL    HW1 2684   0.957   0.069   6.286
  716SOL    HW2 2685   1.009   3.944   6.354
  717SOL     OW 2686   1.445   1.133   6.421
  717SOL    HW1 2687   1.377   1.073   6.451
  717SOL    HW2 2688   1.422   1.151   6.330
  718SOL     OW 2689   1.463   0.607   6.555
  718SOL    HW1 2690   1.406   0.530   6.561
  718SOL    HW2 2691   1.522   0.600   6.630
  719SOL     OW 2692   1.837   0.818   5.975
  719SOL    HW1 2693   1.897   0.767   6.030
  719SOL    HW2 2694   1.812   0.757   5.905
  720SOL     OW 2695   0.487   1.423   5.744
  720SOL    HW1 2696   0.411   1.392   5.794
  720SOL    HW2 2697   0.474   1.386   5.656
  721SOL     OW 2698   1.396   0.578   5.655
  721SOL    HW1 2699   1.332   0.557   5.724
  721SOL    HW2 2700   1.481   0.556   5.693
  722SOL     OW 2701   0.556   0.270   5.903
  722SOL    HW1 2702   0.606   0.231   5.832
  722SOL    HW2 2703   0.528   0.355   5.868
  723SOL     OW 2704   1.040   1.340   6.913
  723SOL    HW1 2705   0.967   1.308   6.966
  723SOL    HW2 2706   1.117   1.297   6.951
  724SOL     OW 2707   1.112   1.187   6.691
  724SOL    HW1 2708   1.069   1.240   6.757
  724SOL    HW2 2709   1.091   1.230   6.608
  725SOL     OW 2710   1.610   1.065   6.672
  725SOL    HW1 2711   1.609   1.131   6.740
  725SOL    HW2 2712   1.557   1.102   6.601
  726SOL     OW 2713   0.912   0.118   6.987
  726SOL    HW1 2714   0.932   0.089   6.898
  726SOL    HW2 2715   0.993   0.159   7.017
  727SOL     OW 2716   0.980   1.111   7.312
  727SOL    HW1 2717   0.888   1.127   7.333
  727SOL    HW2 2718   0.978   1.034   7.255
  728SOL     OW 2719   0.708   1.062   5.956
  728SOL    HW1 2720   0.694   1.043   6.049
  728SOL    HW2 2721   0.784   1.009   5.933
  729SOL     OW 2722   0.423   0.818   6.839
  729SOL    HW1 2723   0.492   0.825   6.906
  729SOL    HW2 2724   0.389   0.729   6.848
  730SOL     OW 2725   1.265   0.374   6.864
  730SOL    HW1 2726   1.299   0.452   6.908
  730SOL    HW2 2727   1.178   0.399   6.835
  731SOL     OW 2728   0.065   1.579   6.931
  731SOL    HW1 2729   0.071   1.624   6.847
  731SOL    HW2 2730   0.156   1.570   6.960
  732SOL     OW 2731   0.369   1.104   6.066
  732SOL    HW1 2732   0.362   1.183   6.013
  732SOL    HW2 2733   0.367   1.032   6.003
  733SOL     OW 2734   0.554   0.531   6.442
  733SOL    HW1 2735   0.567   0.591   6.368
  733SOL    HW2 2736   0.619   0.558   6.506
  734SOL     OW 2737   1.238   1.351   5.978
  734SOL    HW1 2738   1.280   1.433   6.006
  734SOL    HW2 2739   1.148   1.359   6.009
  735SOL     OW 2740   1.265   1.424   6.721
  735SOL    HW1 2741   1.316   1.449   6.799
  735SOL    HW2 2742   1.246   1.331   6.734
  736SOL     OW 2743   1.571   0.635   6.076
  736SOL    HW1 2744   1.530   0.688   6.144
  736SOL    HW2 2745   1.622   0.697   6.025
  737SOL     OW 2746   0.346   1.528   6.904
  737SOL    HW1 2747   0.337   1.477   6.823
  737SOL    HW2 2748   0.440   1.543   6.912
  738SOL     OW 2749   0.420   0.736   7.187
  738SOL    HW1 2750   0.483   0.781   7.131
  738SOL    HW2 2751   0.456   0.648   7.199
  739SOL     OW 2752   1.606   0.784   7.275
  739SOL    HW1 2753   1.519   0.822   7.267
  739SOL    HW2 2754   1.657   0.827   7.206
  740SOL     OW 2755   1.008   0.139   7.366
  740SOL    HW1 2756   1.065   0.209   7.334
  740SOL    HW2 2757   0.998   0.079   7.292
  741SOL     OW 2758   0.486   0.037   7.349
  741SOL    HW1 2759   0.490   0.050   7.255
  741SOL    HW2 2760   0.423   0.102   7.380
  742SOL     OW 2761   0.585   0.876   6.618
  742SOL    HW1 2762   0.620   0.965   6.621
  742SOL    HW2 2763   0.530   0.868   6.695
  743SOL     OW 2764   1.345   0.859   6.599
  743SOL    HW1 2765   1.256   0.836   6.572
  743SOL    HW2 2766   1.393   0.776   6.596
  744SOL     OW 2767   1.198   0.539   5.842
  744SOL    HW1 2768   1.208   0.459   5.894
  744SOL    HW2 2769   1.155   0.601   5.900
  745SOL     OW 2770   0.310   0.211   6.825
  745SOL    HW1 2771   0.267   0.248   6.902
  745SOL    HW2 2772   0.296   0.117   6.832
  746SOL     OW 2773   0.062   1.306   6.867
  746SOL    HW1 2774   0.092   1.262   6.947
  746SOL    HW2 2775   0.053   1.398   6.891
  747SOL     OW 2776   0.722   0.632   6.636
  747SOL    HW1 2777   0.799   0.619   6.580
  747SOL    HW2 2778   0.693   0.722   6.617
  748SOL     OW 2779   1.737   0.970   7.440
  748SOL    HW1 2780   1.692   0.904   7.387
  748SOL    HW2 2781   1.678   0.984   7.514
  749SOL     OW 2782   0.333   0.054   6.244
  749SOL    HW1 2783   0.304   0.145   6.245
  749SOL    HW2 2784   0.299   0.017   6.325
  750SOL     OW 2785   1.609   0.395   5.964
  750SOL    HW1 2786   1.564   0.326   6.014
  750SOL    HW2 2787   1.588   0.476   6.011
  751SOL     OW 2788   1.032   0.759   6.544
  751SOL    HW1 2789   1.022   0.776   6.638
  751SOL    HW2 2790   1.004   0.668   6.533
  752SOL     OW 2791   0.969   1.559   7.285
  752SOL    HW1 2792   0.956   1.602   7.200
  752SOL    HW2 2793   1.021   1.481   7.264
  753SOL     OW 2794   1.974   1.597   7.169
  753SOL    HW1 2795   1.933   1.575   7.086
  753SOL    HW2 2796   1.958   1.521   7.225
  754SOL     OW 2797   0.355   0.922   7.383
  754SOL    HW1 2798   0.433   0.943   7.436
  754SOL    HW2 2799   0.385   0.854   7.323
  755SOL     OW 2800   1.501   0.274   5.719
  755SOL    HW1 2801   1.429   0.212   5.731
  755SOL    HW2 2802   1.515   0.312   5.806
  756SOL     OW 2803   1.288   0.828   5.615
  756SOL    HW1 2804   1.330   0.741   5.618
  756SOL    HW2 2805   1.319   0.866   5.533
  757SOL     OW 2806   1.065   1.335   6.430
  757SOL    HW1 2807   1.061   1.257   6.375
  757SOL    HW2 2808   1.152   1.372   6.412
  758SOL     OW 2809   0.313   0.802   6.536
  758SOL    HW1 2810   0.407   0.818   6.531
  758SOL    HW2 2811   0.306   0.712   6.568
  759SOL     OW 2812   0.339   0.529   6.602
  759SOL    HW1 2813   0.297   0.445   6.584
  759SOL    HW2 2814   0.414   0.531   6.543
  760SOL     OW 2815   1.133   0.379   7.286
  760SOL    HW1 2816   1.085   0.434   7.348
  760SOL    HW2 2817   1.220   0.420   7.280
  761SOL     OW 2818   1.151   0.225   7.069
  761SOL    HW1 2819   1.142   0.279   7.147
  761SOL    HW2 2820   1.179   0.287   7.000
  762SOL     OW 2821   0.001   1.315   5.768
  762SOL    HW1 2822   3.907   1.332   5.771
  762SOL    HW2 2823   0.010   1.221   5.787
  763SOL     OW 2824   0.079   1.799   6.473
  763SOL    HW1 2825   0.088   1.704   6.474
  763SOL    HW2 2826   0.169   1.832   6.478
  764SOL     OW 2827   0.497   1.572   6.495
  764SOL    HW1 2828   0.567   1.633   6.520
  764SOL    HW2 2829   0.540   1.509   6.438
  765SOL     OW 2830   0.974   0.786   6.808
  765SOL    HW1 2831   1.033   0.769   6.882
  765SOL    HW2 2832   0.891   0.748   6.835
  766SOL     OW 2833   0.034   0.579   6.698
  766SOL    HW1 2834   0.092   0.523   6.647
  766SOL    HW2 2835   0.061   0.565   6.789
  767SOL     OW 2836   0.211   0.515   7.308
  767SOL    HW1 2837   0.256   0.474   7.234
  767SOL    HW2 2838   0.168   0.591   7.270
  768SOL     OW 2839   1.373   0.925   7.240
  768SOL    HW1 2840   1.389   1.019   7.236
  768SOL    HW2 2841   1.373   0.897   7.148
  769SOL     OW 2842   0.819   0.572   5.950
  769SOL    HW1 2843   0.826   0.496   5.892
  769SOL    HW2 2844   0.744   0.621   5.917
  770SOL     OW 2845   1.637   0.595   6.764
  770SOL    HW1 2846   1.629   0.537   6.839
  770SOL    HW2 2847   1.726   0.580   6.731
  771SOL     OW 2848   0.300   1.543   7.307
  771SOL    HW1 2849   0.254   1.612   7.355
  771SOL    HW2 2850   0.272   1.462   7.350
  772SOL     OW 2851   0.715   0.451   6.838
  772SOL    HW1 2852   0.663   0.374   6.815
  772SOL    HW2 2853   0.703   0.512   6.765
  773SOL     OW 2854   0.908   1.685   7.050
  773SOL    HW1 2855   0.901   1.640   6.966
  773SOL    HW2 2856   0.898   1.778   7.030
  774SOL     OW 2857   0.451   0.492   5.785
  774SOL    HW1 2858   0.515   0.561   5.802
  774SOL    HW2 2859   0.372   0.539   5.760
  775SOL     OW 2860   0.154   1.134   7.062
  775SOL    HW1 2861   0.155   1.084   7.143
  775SOL    HW2 2862   0.169   1.069   6.993
  776SOL     OW 2863   1.314   1.035   6.806
  776SOL    HW1 2864   1.347   0.981   6.734
  776SOL    HW2 2865   1.240   1.083   6.767
  777SOL     OW 2866   1.314   0.862   5.891
  777SOL    HW1 2867   1.243   0.826   5.944
  777SOL    HW2 2868   1.288   0.847   5.801
  778SOL     OW 2869   1.771   1.715   6.745
  778SOL    HW1 2870   1.835   1.726   6.674
  778SOL    HW2 2871   1.699   1.666   6.704
  779SOL     OW 2872   0.079   1.217   6.613
  779SOL    HW1 2873   0.085   1.242   6.705
  779SOL    HW2 2874   3.986   1.228   6.591
  780SOL     OW 2875   0.682   1.671   7.325
  780SOL    HW1 2876   0.622   1.744   7.312
  780SOL    HW2 2877   0.748   1.680   7.257
  781SOL     OW 2878   1.716   0.123   6.077
  781SOL    HW1 2879   1.793   0.135   6.021
  781SOL    HW2 2880   1.706   0.029   6.084
  782SOL     OW 2881   0.177   1.761   7.417
  782SOL    HW1 2882   0.121   1.709   7.475
  782SOL    HW2 2883   0.217   1.826   7.475
  783SOL     OW 2884   1.276   0.928   6.251
  783SOL    HW1 2885   1.350   0.869   6.269
  783SOL    HW2 2886   1.315   1.000   6.201
  784SOL     OW 2887   0.798   1.270   7.015
  784SOL    HW1 2888   0.771   1.314   7.095
  784SOL    HW2 2889   0.726   1.285   6.954
  785SOL     OW 2890   0.670   1.623   5.741
  785SOL    HW1 2891   0.681   1.637   5.647
  785SOL    HW2 2892   0.613   1.546   5.748
  786SOL     OW 2893   1.652   1.708   6.987
  786SOL    HW1 2894   1.696   1.713   6.902
  786SOL    HW2 2895   1.629   1.799   7.007
  787SOL     OW 2896   1.839   0.178   6.551
  787SOL    HW1 2897   1.871   0.115   6.487
  787SOL    HW2 2898   1.749   0.197   6.522
  788SOL     OW 2899   0.276   0.322   6.300
  788SOL    HW1 2900   0.191   0.356   6.273
  788SOL    HW2 2901   0.267   0.307   6.394
  789SOL     OW 2902   1.206   1.601   5.616
  789SOL    HW1 2903   1.195   1.510   5.642
  789SOL    HW2 2904   1.140   1.616   5.548
  790SOL     OW 2905   0.824   1.004   6.959
  790SOL    HW1 2906   0.870   1.000   6.875
  790SOL    HW2 2907   0.819   1.097   6.979
  791SOL     OW 2908   0.916   0.912   5.877
  791SOL    HW1 2909   0.977   0.944   5.811
  791SOL    HW2 2910   0.965   0.843   5.923
  792SOL     OW 2911   1.485   1.618   5.624
  792SOL    HW1 2912   1.391   1.612   5.608
  792SOL    HW2 2913   1.524   1.628   5.538
  793SOL     OW 2914   0.374   1.302   7.078
  793SOL    HW1 2915   0.359   1.382   7.028
  793SOL    HW2 2916   0.297   1.248   7.060
  794SOL     OW 2917   1.591   1.254   6.895
  794SOL    HW1 2918   1.685   1.273   6.895
  794SOL    HW2 2919   1.549   1.340   6.892
  795SOL     OW 2920   1.058   1.104   6.294
  795SOL    HW1 2921   0.986   1.054   6.333
  795SOL    HW2 2922   1.123   1.038   6.269
  796SOL     OW 2923   1.014   0.250   6.557
  796SOL    HW1 2924   1.005   0.199   6.476
  796SOL    HW2 2925   1.012   0.185   6.627
  797SOL     OW 2926   0.607   1.488   6.069
  797SOL    HW1 2927   0.653   1.439   6.001
  797SOL    HW2 2928   0.530   1.524   6.024
  798SOL     OW 2929   1.721   0.394   6.958
  798SOL    HW1 2930   1.794   0.456   6.962
  798SOL    HW2 2931   1.755   0.322   6.903
  799SOL     OW 2932   0.255   1.341   5.880
  799SOL    HW1 2933   0.161   1.345   5.862
  799SOL    HW2 2934   0.265   1.381   5.967
  800SOL     OW 2935   0.109   0.999   7.305
  800SOL    HW1 2936   0.050   0.991   7.379
  800SOL    HW2 2937   0.196   0.981   7.341
  801SOL     OW 2938   0.694   0.258   7.090
  801SOL    HW1 2939   0.762   0.204   7.048
  801SOL    HW2 2940   0.723   0.266   7.181
  802SOL     OW 2941   0.088   0.317   5.610
  802SOL    HW1 2942   3.993   0.317   5.603
  802SOL    HW2 2943   0.115   0.400   5.571
  803SOL     OW 2944   1.424   0.852   6.981
  803SOL    HW1 2945   1.377   0.916   6.928
  803SOL    HW2 2946   1.515   0.857   6.951
  804SOL     OW 2947   0.035   0.173   5.870
  804SOL    HW1 2948   0.037   0.226   5.790
  804SOL    HW2 2949   0.110   0.204   5.921
  805SOL     OW 2950   1.175   1.334   5.701
  805SOL    HW1 2951   1.083   1.307   5.699
  805SOL    HW2 2952   1.199   1.334   5.794
  806SOL     OW 2953   0.622   0.828   7.023
  806SOL    HW1 2954   0.679   0.903   7.007
  806SOL    HW2 2955   0.682   0.754   7.031
  807SOL     OW 2956   0.717   0.560   7.292
  807SOL    HW1 2957   0.763   0.622   7.350
  807SOL    HW2 2958   0.742   0.474   7.325
  808SOL     OW 2959   1.437   1.190   7.212
  808SOL    HW1 2960   1.438   1.202   7.307
  808SOL    HW2 2961   1.510   1.243   7.180
  809SOL     OW 2962   0.376   1.744   7.142
  809SOL    HW1 2963   0.289   1.782   7.131
  809SOL    HW2 2964   0.360   1.661   7.187
  810SOL     OW 2965   1.668   0.865   6.847
  810SOL    HW1 2966   1.661   0.781   6.802
  810SOL    HW2 2967   1.652   0.930   6.779
  811SOL     OW 2968   1.223   0.339   6.026
  811SOL    HW1 2969   1.291   0.272   6.019
  811SOL    HW2 2970   1.240   0.382   6.110
  812SOL     OW 2971   0.589   0.737   6.258
  812SOL    HW1 2972   0.627   0.823   6.242
  812SOL    HW2 2973   0.523   0.727   6.190
  813SOL     OW 2974   1.749   0.383   7.230
  813SOL    HW1 2975   1.732   0.390   7.136
  813SOL    HW2 2976   1.690   0.314   7.259
  814SOL     OW 2977   1.740   0.936   7.099
  814SOL    HW1 2978   1.768   1.027   7.102
  814SOL    HW2 2979   1.726   0.918   7.006
  815SOL     OW 2980   0.868   1.365   5.629
  815SOL    HW1 2981   0.825   1.393   5.710
  815SOL    HW2 2982   0.880   1.446   5.578
  816SOL     OW 2983   0.663   1.787   6.523
  816SOL    HW1 2984   0.641   1.878   6.504
  816SOL    HW2 2985   0.759   1.785   6.521
  817SOL     OW 2986   0.869   0.968   6.440
  817SOL    HW1 2987   0.920   0.897   6.478
  817SOL    HW2 2988   0.830   1.013   6.515
  818SOL     OW 2989   1.078   0.991   5.676
  818SOL    HW1 2990   1.056   1.041   5.598
  818SOL    HW2 2991   1.152   0.935   5.649
  819SOL     OW 2992   0.227   1.304   7.443
  819SOL    HW1 2993   0.154   1.249   7.415
  819SOL    HW2 2994   0.213   1.317   7.536
  820SOL     OW 2995   0.128   1.285   6.310
  820SOL    HW1 2996   0.141   1.232   6.389
  820SOL    HW2 2997   0.107   1.221   6.242
  821SOL     OW 2998   0.679   1.408   7.217
  821SOL    HW1 2999   0.600   1.366   7.250
  821SOL    HW2 3000   0.679   1.495   7.256
  822SOL     OW 3001   1.811   0.183   6.823
  822SOL    HW1 3002   1.814   0.088   6.839
  822SOL    HW2 3003   1.826   0.191   6.729
  823SOL     OW 3004   0.446   0.438   6.117
  823SOL    HW1 3005   0.468   0.362   6.064
  823SOL    HW2 3006   0.391   0.403   6.187
  824SOL     OW 3007   0.335   0.559   6.880
  824SOL    HW1 3008   0.391   0.503   6.933
  824SOL    HW2 3009   0.350   0.530   6.790
  825SOL     OW 3010   0.831   1.582   6.260
  825SOL    HW1 3011   0.813   1.650   6.195
  825SOL    HW2 3012   0.755   1.524   6.256
  826SOL     OW 3013   1.460   0.255   6.696
  826SOL    HW1 3014   1.478   0.169   6.732
  826SOL    HW2 3015   1.405   0.298   6.762
  827SOL     OW 3016   1.002   0.026   6.732
  827SOL    HW1 3017   0.920   3.998   6.691
  827SOL    HW2 3018   1.053   3.946   6.740
  828SOL     OW 3019   0.770   1.333   5.905
  828SOL    HW1 3020   0.743   1.241   5.912
  828SOL    HW2 3021   0.852   1.338   5.956
  829SOL     OW 3022   0.623   1.557   6.872
  829SOL    HW1 3023   0.623   1.639   6.921
  829SOL    HW2 3024   0.711   1.551   6.836
  830SOL     OW 3025   1.307   0.074   5.751
  830SOL    HW1 3026   1.319   3.989   5.709
  830SOL    HW2 3027   1.223   0.066   5.796
  831SOL     OW 3028   1.279   0.456   6.270
  831SOL    HW1 3029   1.233   0.540   6.264
  831SOL    HW2 3030   1.282   0.437   6.364
  832SOL     OW 3031   1.587   0.210   6.454
  832SOL    HW1 3032   1.538   0.235   6.532
  832SOL    HW2 3033   1.588   0.289   6.400
  833SOL     OW 3034   0.047   1.046   5.829
  833SOL    HW1 3035   0.141   1.031   5.821
  833SOL    HW2 3036   0.011   0.961   5.851
  834SOL     OW 3037   0.887   1.656   5.922
  834SOL    HW1 3038   0.813   1.641   5.865
  834SOL    HW2 3039   0.860   1.728   5.979
  835SOL     OW 3040   0.232   0.630   7.563
  835SOL    HW1 3041   0.139   0.634   7.584
  835SOL    HW2 3042   0.235   0.600   7.473
  836SOL     OW 3043   0.223   0.290   8.430
  836SOL    HW1 3044   0.246   0.250   8.514
  836SOL    HW2 3045   0.128   0.282   8.424
  837SOL     OW 3046   0.019   0.384   8.085
  837SOL    HW1 3047   3.928   0.400   8.109
  837SOL    HW2 3048   0.025   0.290   8.071
  838SOL     OW 3049   0.583   1.293   8.645
  838SOL    HW1 3050   0.497   1.294   8.603
  838SOL    HW2 3051   0.596   1.383   8.675
  839SOL     OW 3052   1.567   1.515   8.155
  839SOL    HW1 3053   1.528   1.494   8.240
  839SOL    HW2 3054   1.492   1.524   8.096
  840SOL     OW 3055   1.134   0.699   8.143
  840SOL    HW1 3056   1.181   0.781   8.131
  840SOL    HW2 3057   1.086   0.710   8.225
  841SOL     OW 3058   1.773   0.618   7.670
  841SOL    HW1 3059   1.748   0.613   7.578
  841SOL    HW2 3060   1.754   0.530   7.705
  842SOL     OW 3061   0.750   1.138   8.493
  842SOL    HW1 3062   0.689   1.175   8.556
  842SOL    HW2 3063   0.787   1.213   8.447
  843SOL     OW 3064   0.874   0.767   9.273
  843SOL    HW1 3065   0.863   0.838   9.336
  843SOL    HW2 3066   0.895   0.810   9.191
  844SOL     OW 3067   0.685   1.001   8.093
  844SOL    HW1 3068   0.751   0.990   8.161
  844SOL    HW2 3069   0.616   1.053   8.134
  845SOL     OW 3070   0.713   1.148   9.267
  845SOL    HW1 3071   0.761   1.226   9.296
  845SOL    HW2 3072   0.633   1.183   9.228
  846SOL     OW 3073   0.352   1.400   8.527
  846SOL    HW1 3074   0.271   1.377   8.481
  846SOL    HW2 3075   0.398   1.457   8.466
  847SOL     OW 3076   1.460   1.502   8.808
  847SOL    HW1 3077   1.514   1.580   8.817
  847SOL    HW2 3078   1.393   1.511   8.875
  848SOL     OW 3079   0.459   0.409   8.941
  848SOL    HW1 3080   0.541   0.360   8.942
  848SOL    HW2 3081   0.391   0.341   8.945
  849SOL     OW 3082   1.611   0.451   8.183
  849SOL    HW1 3083   1.545   0.482   8.122
  849SOL    HW2 3084   1.625   0.524   8.244
  850SOL     OW 3085   0.219   1.720   7.904
  850SOL    HW1 3086   0.240   1.793   7.962
  850SOL    HW2 3087   0.295   1.711   7.847
  851SOL     OW 3088   1.138   1.342   9.142
  851SOL    HW1 3089   1.179   1.336   9.228
  851SOL    HW2 3090   1.085   1.262   9.134
  852SOL     OW 3091   0.251   1.452   7.987
  852SOL    HW1 3092   0.216   1.540   7.972
  852SOL    HW2 3093   0.183   1.408   8.038
  853SOL     OW 3094   0.248   1.065   8.332
  853SOL    HW1 3095   0.268   0.979   8.369
  853SOL    HW2 3096   0.195   1.109   8.398
  854SOL     OW 3097   0.609   1.794   8.873
  854SOL    HW1 3098   0.526   1.776   8.918
  854SOL    HW2 3099   0.632   1.882   8.900
  855SOL     OW 3100   0.574   0.987   7.588
  855SOL    HW1 3101   0.623   1.030   7.519
  855SOL    HW2 3102   0.615   1.017   7.669
  856SOL     OW 3103   1.583   0.142   8.903
  856SOL    HW1 3104   1.614   0.214   8.849
  856SOL    HW2 3105   1.546   0.184   8.981
  857SOL     OW 3106   0.142   0.653   8.017
  857SOL    HW1 3107   0.100   0.567   8.022
  857SOL    HW2 3108   0.103   0.702   8.089
  858SOL     OW 3109   0.044   1.588   7.585
  858SOL    HW1 3110   0.039   1.497   7.612
  858SOL    HW2 3111   3.958   1.625   7.608
  859SOL     OW 3112   1.689   0.920   8.089
  859SOL    HW1 3113   1.771   0.877   8.066
  859SOL    HW2 3114   1.667   0.973   8.012
  860SOL     OW 3115   1.645   1.108   7.876
  860SOL    HW1 3116   1.730   1.107   7.832
  860SOL    HW2 3117   1.656   1.170   7.948
  861SOL     OW 3118   0.144   0.756   9.037
  861SOL    HW1 3119   0.240   0.752   9.030
  861SOL    HW2 3120   0.126   0.842   9.073
  862SOL     OW 3121   0.612   1.387   8.186
  862SOL    HW1 3122   0.567   1.303   8.194
  862SOL    HW2 3123   0.597   1.414   8.095
  863SOL     OW 3124   1.286   1.237   8.869
  863SOL    HW1 3125   1.316   1.168   8.809
  863SOL    HW2 3126   1.345   1.231   8.944
  864SOL     OW 3127   0.822   0.005   7.966
  864SOL    HW1 3128   0.867   0.086   7.940
  864SOL    HW2 3129   0.729   0.028   7.964
  865SOL     OW 3130   0.183   0.948   8.728
  865SOL    HW1 3131   0.272   0.913   8.716
  865SOL    HW2 3132   0.132   0.907   8.658
  866SOL     OW 3133   1.532   1.000   7.647
  866SOL    HW1 3134   1.463   0.943   7.681
  866SOL    HW2 3135   1.576   1.035   7.724
  867SOL     OW 3136   1.184   1.811   9.074
  867SOL    HW1 3137   1.191   1.872   9.000
  867SOL    HW2 3138   1.202   1.725   9.036
  868SOL     OW 3139   0.347   0.248   9.297
  868SOL    HW1 3140   0.390   0.331   9.277
  868SOL    HW2 3141   0.255   0.271   9.312
  869SOL     OW 3142   1.466   1.419   8.394
  869SOL    HW1 3143   1.400   1.435   8.461
  869SOL    HW2 3144   1.452   1.328   8.368
  870SOL     OW 3145   1.659   1.739   8.005
  870SOL    HW1 3146   1.669   1.686   7.925
  870SOL    HW2 3147   1.640   1.675   8.074
  871SOL     OW 3148   0.596   0.716   7.716
  871SOL    HW1 3149   0.600   0.800   7.671
  871SOL    HW2 3150   0.533   0.729   7.787
  872SOL     OW 3151   1.274   0.372   8.389
  872SOL    HW1 3152   1.187   0.333   8.397
  872SOL    HW2 3153   1.332   0.311   8.435
  873SOL     OW 3154   0.794   0.615   8.900
  873SOL    HW1 3155   0.765   0.588   8.988
  873SOL    HW2 3156   0.758   0.548   8.842
  874SOL     OW 3157   1.392   0.475   9.125
  874SOL    HW1 3158   1.399   0.521   9.209
  874SOL    HW2 3159   1.448   0.399   9.135
  875SOL     OW 3160   0.950   0.886   9.034
  875SOL    HW1 3161   1.005   0.818   8.996
  875SOL    HW2 3162   0.901   0.922   8.960
  876SOL     OW 3163   0.994   0.402   8.683
  876SOL    HW1 3164   0.907   0.421   8.719
  876SOL    HW2 3165   0.977   0.374   8.593
  877SOL     OW 3166   1.053   0.700   7.873
  877SOL    HW1 3167   1.071   0.693   7.966
  877SOL    HW2 3168   0.970   0.654   7.860
  878SOL     OW 3169   0.081   0.831   8.238
  878SOL    HW1 3170   0.152   0.795   8.293
  878SOL    HW2 3171   0.107   0.922   8.222
  879SOL     OW 3172   0.130   1.867   9.028
  879SOL    HW1 3173   0.138   1.830   9.116
  879SOL    HW2 3174   0.038   1.856   9.006
  880SOL     OW 3175   0.895   0.353   7.647
  880SOL    HW1 3176   0.937   0.414   7.586
  880SOL    HW2 3177   0.891   0.270   7.599
  881SOL     OW 3178   1.706   0.575   9.278
  881SOL    HW1 3179   1.669   0.649   9.229
  881SOL    HW2 3180   1.730   0.511   9.211
  882SOL     OW 3181   1.382   1.141   7.988
  882SOL    HW1 3182   1.461   1.129   7.936
  882SOL    HW2 3183   1.329   1.204   7.937
  883SOL     OW 3184   0.563   0.195   8.328
  883SOL    HW1 3185   0.567   0.220   8.420
  883SOL    HW2 3186   0.547   0.277   8.281
  884SOL     OW 3187   1.002   1.439   7.921
  884SOL    HW1 3188   0.962   1.511   7.872
  884SOL    HW2 3189   0.981   1.457   8.012
  885SOL     OW 3190   0.364   1.825   8.321
  885SOL    HW1 3191   0.426   1.752   8.331
  885SOL    HW2 3192   0.417   1.903   8.336
  886SOL     OW 3193   1.801   1.048   8.321
  886SOL    HW1 3194   1.749   1.034   8.242
  886SOL    HW2 3195   1.735   1.056   8.391
  887SOL     OW 3196   1.227   1.540   8.961
  887SOL    HW1 3197   1.215   1.467   9.023
  887SOL    HW2 3198   1.161   1.525   8.894
  888SOL     OW 3199   0.310   0.952   7.690
  888SOL    HW1 3200   0.394   0.974   7.648
  888SOL    HW2 3201   0.298   0.859   7.672
  889SOL     OW 3202   1.481   0.752   8.176
  889SOL    HW1 3203   1.477   0.710   8.262
  889SOL    HW2 3204   1.559   0.806   8.179
  890SOL     OW 3205   0.470   1.262   9.186
  890SOL    HW1 3206   0.445   1.269   9.094
  890SOL    HW2 3207   0.388   1.264   9.234
  891SOL     OW 3208   1.098   1.763   7.724
  891SOL    HW1 3209   1.019   1.722   7.757
  891SOL    HW2 3210   1.118   1.714   7.643
  892SOL     OW 3211   0.202   0.293   8.949
  892SOL    HW1 3212   0.108   0.312   8.949
  892SOL    HW2 3213   0.211   0.216   9.006
  893SOL     OW 3214   0.465   1.738   7.765
  893SOL    HW1 3215   0.510   1.794   7.828
  893SOL    HW2 3216   0.535   1.702   7.711
  894SOL     OW 3217   1.443   0.171   7.855
  894SOL    HW1 3218   1.393   0.103   7.809
  894SOL    HW2 3219   1.511   0.122   7.902
  895SOL     OW 3220   0.253   1.790   8.678
  895SOL    HW1 3221   0.298   1.722   8.729
  895SOL    HW2 3222   0.252   1.756   8.589
  896SOL     OW 3223   0.936   1.700   8.344
  896SOL    HW1 3224   1.012   1.648   8.370
  896SOL    HW2 3225   0.895   1.650   8.274
  897SOL     OW 3226   0.399   0.695   7.918
  897SOL    HW1 3227   0.424   0.604   7.934
  897SOL    HW2 3228   0.307   0.699   7.944
  898SOL     OW 3229   1.528   0.227   9.174
  898SOL    HW1 3230   1.522   0.252   9.267
  898SOL    HW2 3231   1.515   0.132   9.174
  899SOL     OW 3232   0.646   0.127   7.552
  899SOL    HW1 3233   0.667   0.042   7.590
  899SOL    HW2 3234   0.586   0.108   7.480
  900SOL     OW 3235   0.775   0.285   9.219
  900SOL    HW1 3236   0.853   0.230   9.219
  900SOL    HW2 3237   0.721   0.251   9.290
  901SOL     OW 3238   0.876   1.523   8.642
  901SOL    HW1 3239   0.858   1.484   8.556
  901SOL    HW2 3240   0.945   1.468   8.679
  902SOL     OW 3241   1.338   0.588   8.879
  902SOL    HW1 3242   1.369   0.558   8.965
  902SOL    HW2 3243   1.374   0.676   8.869
  903SOL     OW 3244   0.817   1.390   8.392
  903SOL    HW1 3245   0.903   1.379   8.349
  903SOL    HW2 3246   0.755   1.396   8.319
  904SOL     OW 3247   0.930   0.513   8.346
  904SOL    HW1 3248   0.906   0.504   8.254
  904SOL    HW2 3249   0.955   0.424   8.373
  905SOL     OW 3250   0.547   0.055   7.935
  905SOL    HW1 3251   0.473   0.063   7.996
  905SOL    HW2 3252   0.548   0.139   7.888
  906SOL     OW 3253   1.429   1.199   7.481
  906SOL    HW1 3254   1.466   1.130   7.536
  906SOL    HW2 3255   1.349   1.225   7.526
  907SOL     OW 3256   0.352   0.033   7.648
  907SOL    HW1 3257   0.357   0.088   7.570
  907SOL    HW2 3258   0.440   0.039   7.686
  908SOL     OW 3259   0.944   0.251   7.907
  908SOL    HW1 3260   0.918   0.290   7.823
  908SOL    HW2 3261   1.040   0.257   7.907
  909SOL     OW 3262   1.079   0.685   8.905
  909SOL    HW1 3263   1.010   0.619   8.912
  909SOL    HW2 3264   1.160   0.635   8.900
  910SOL     OW 3265   1.225   1.568   8.243
  910SOL    HW1 3266   1.235   1.642   8.182
  910SOL    HW2 3267   1.292   1.583   8.310
  911SOL     OW 3268   0.466   1.151   8.181
  911SOL    HW1 3269   0.396   1.125   8.241
  911SOL    HW2 3270   0.430   1.136   8.094
  912SOL     OW 3271   1.263   1.794   8.074
  912SOL    HW1 3272   1.329   1.863   8.068
  912SOL    HW2 3273   1.183   1.840   8.100
  913SOL     OW 3274   1.021   0.540   7.479
  913SOL    HW1 3275   0.978   0.623   7.459
  913SOL    HW2 3276   1.086   0.562   7.546
  914SOL     OW 3277   0.082   0.575   8.841
  914SOL    HW1 3278   0.171   0.557   8.811
  914SOL    HW2 3279   0.092   0.646   8.904
  915SOL     OW 3280   0.572   0.231   8.607
  915SOL    HW1 3281   0.593   0.138   8.615
  915SOL    HW2 3282   0.481   0.238   8.637
  916SOL     OW 3283   0.871   0.461   8.085
  916SOL    HW1 3284   0.821   0.514   8.023
  916SOL    HW2 3285   0.892   0.381   8.037
  917SOL     OW 3286   0.997   0.038   8.230
  917SOL    HW1 3287   0.958   0.069   8.148
  917SOL    HW2 3288   1.009   3.944   8.216
  918SOL     OW 3289   1.439   1.160   8.304
  918SOL    HW1 3290   1.368   1.096   8.303
  918SOL    HW2 3291   1.465   1.169   8.212
  919SOL     OW 3292   1.464   0.609   8.419
  919SOL    HW1 3293   1.408   0.532   8.424
  919SOL    HW2 3294   1.523   0.601   8.494
  920SOL     OW 3295   1.846   0.812   7.840
  920SOL    HW1 3296   1.903   0.759   7.895
  920SOL    HW2 3297   1.818   0.752   7.770
  921SOL     OW 3298   0.486   1.423   7.605
  921SOL    HW1 3299   0.410   1.392   7.655
  921SOL    HW2 3300   0.476   1.383   7.519
  922SOL     OW 3301   1.673   1.267   8.089
  922SOL    HW1 3302   1.768   1.263   8.101
  922SOL    HW2 3303   1.649   1.355   8.117
  923SOL     OW 3304   1.395   0.576   7.516
  923SOL    HW1 3305   1.333   0.556   7.586
  923SOL    HW2 3306   1.481   0.560   7.556
  924SOL     OW 3307   0.556   0.271   7.765
  924SOL    HW1 3308   0.606   0.231   7.694
  924SOL    HW2 3309   0.528   0.355   7.730
  925SOL     OW 3310   1.749   1.242   9.013
  925SOL    HW1 3311   1.836   1.203   9.007
  925SOL    HW2 3312   1.765   1.332   9.041
  926SOL     OW 3313   1.055   1.354   8.781
  926SOL    HW1 3314   0.979   1.322   8.831
  926SOL    HW2 3315   1.130   1.312   8.822
  927SOL     OW 3316   1.609   1.627   9.103
  927SOL    HW1 3317   1.603   1.663   9.015
  927SOL    HW2 3318   1.692   1.579   9.103
  928SOL     OW 3319   1.135   1.210   8.551
  928SOL    HW1 3320   1.074   1.246   8.615
  928SOL    HW2 3321   1.104   1.243   8.467
  929SOL     OW 3322   1.623   1.095   8.524
  929SOL    HW1 3323   1.616   1.157   8.597
  929SOL    HW2 3324   1.546   1.115   8.469
  930SOL     OW 3325   0.912   0.118   8.849
  930SOL    HW1 3326   0.932   0.089   8.760
  930SOL    HW2 3327   0.993   0.159   8.879
  931SOL     OW 3328   0.984   1.115   9.171
  931SOL    HW1 3329   0.893   1.132   9.195
  931SOL    HW2 3330   0.981   1.037   9.117
  932SOL     OW 3331   0.707   1.061   7.819
  932SOL    HW1 3332   0.694   1.043   7.912
  932SOL    HW2 3333   0.783   1.008   7.795
  933SOL     OW 3334   0.423   0.818   8.701
  933SOL    HW1 3335   0.492   0.825   8.768
  933SOL    HW2 3336   0.389   0.729   8.711
  934SOL     OW 3337   1.265   0.374   8.726
  934SOL    HW1 3338   1.299   0.453   8.770
  934SOL    HW2 3339   1.178   0.399   8.697
  935SOL     OW 3340   0.065   1.579   8.793
  935SOL    HW1 3341   0.071   1.625   8.710
  935SOL    HW2 3342   0.156   1.569   8.822
  936SOL     OW 3343   0.366   1.103   7.929
  936SOL    HW1 3344   0.364   1.183   7.876
  936SOL    HW2 3345   0.366   1.032   7.865
  937SOL     OW 3346   0.554   0.532   8.305
  937SOL    HW1 3347   0.566   0.591   8.231
  937SOL    HW2 3348   0.620   0.558   8.369
  938SOL     OW 3349   1.251   1.352   7.843
  938SOL    HW1 3350   1.301   1.429   7.871
  938SOL    HW2 3351   1.162   1.370   7.873
  939SOL     OW 3352   1.289   1.460   8.595
  939SOL    HW1 3353   1.344   1.465   8.674
  939SOL    HW2 3354   1.234   1.383   8.609
  940SOL     OW 3355   1.574   0.635   7.937
  940SOL    HW1 3356   1.529   0.689   8.002
  940SOL    HW2 3357   1.620   0.697   7.881
  941SOL     OW 3358   0.346   1.528   8.765
  941SOL    HW1 3359   0.336   1.477   8.685
  941SOL    HW2 3360   0.440   1.542   8.773
  942SOL     OW 3361   0.420   0.736   9.049
  942SOL    HW1 3362   0.483   0.781   8.993
  942SOL    HW2 3363   0.456   0.648   9.061
  943SOL     OW 3364   1.606   0.782   9.135
  943SOL    HW1 3365   1.520   0.823   9.128
  943SOL    HW2 3366   1.659   0.823   9.066
  944SOL     OW 3367   1.007   0.140   9.228
  944SOL    HW1 3368   1.065   0.208   9.195
  944SOL    HW2 3369   0.998   0.079   9.155
  945SOL     OW 3370   0.486   0.037   9.211
  945SOL    HW1 3371   0.490   0.050   9.116
  945SOL    HW2 3372   0.423   0.102   9.242
  946SOL     OW 3373   0.586   0.875   8.480
  946SOL    HW1 3374   0.619   0.965   8.483
  946SOL    HW2 3375   0.529   0.868   8.557
  947SOL     OW 3376   1.349   0.858   8.472
  947SOL    HW1 3377   1.264   0.844   8.430
  947SOL    HW2 3378   1.394   0.774   8.463
  948SOL     OW 3379   1.199   0.538   7.704
  948SOL    HW1 3380   1.207   0.459   7.757
  948SOL    HW2 3381   1.156   0.601   7.762
  949SOL     OW 3382   0.310   0.211   8.687
  949SOL    HW1 3383   0.267   0.248   8.764
  949SOL    HW2 3384   0.296   0.117   8.694
  950SOL     OW 3385   0.062   1.306   8.729
  950SOL    HW1 3386   0.092   1.263   8.809
  950SOL    HW2 3387   0.053   1.398   8.753
  951SOL     OW 3388   0.724   0.633   8.499
  951SOL    HW1 3389   0.799   0.620   8.441
  951SOL    HW2 3390   0.693   0.722   8.479
  952SOL     OW 3391   1.739   0.959   9.306
  952SOL    HW1 3392   1.694   0.894   9.252
  952SOL    HW2 3393   1.678   0.976   9.378
  953SOL     OW 3394   0.333   0.054   8.106
  953SOL    HW1 3395   0.304   0.145   8.107
  953SOL    HW2 3396   0.299   0.017   8.188
  954SOL     OW 3397   1.609   0.394   7.826
  954SOL    HW1 3398   1.563   0.326   7.876
  954SOL    HW2 3399   1.589   0.475   7.873
  955SOL     OW 3400   1.031   0.760   8.406
  955SOL    HW1 3401   1.021   0.776   8.500
  955SOL    HW2 3402   1.003   0.669   8.395
  956SOL     OW 3403   0.981   1.566   9.169
  956SOL    HW1 3404   0.966   1.610   9.085
  956SOL    HW2 3405   1.025   1.484   9.145
  957SOL     OW 3406   1.853   1.501   9.051
  957SOL    HW1 3407   1.871   1.532   8.962
  957SOL    HW2 3408   1.937   1.510   9.097
  958SOL     OW 3409   0.355   0.922   9.245
  958SOL    HW1 3410   0.432   0.942   9.298
  958SOL    HW2 3411   0.384   0.854   9.185
  959SOL     OW 3412   1.502   0.272   7.581
  959SOL    HW1 3413   1.429   0.211   7.594
  959SOL    HW2 3414   1.515   0.312   7.667
  960SOL     OW 3415   1.286   0.825   7.478
  960SOL    HW1 3416   1.329   0.740   7.482
  960SOL    HW2 3417   1.316   0.863   7.395
  961SOL     OW 3418   1.068   1.339   8.304
  961SOL    HW1 3419   1.072   1.266   8.242
  961SOL    HW2 3420   1.128   1.404   8.269
  962SOL     OW 3421   0.313   0.802   8.398
  962SOL    HW1 3422   0.407   0.818   8.391
  962SOL    HW2 3423   0.306   0.712   8.430
  963SOL     OW 3424   0.339   0.529   8.464
  963SOL    HW1 3425   0.297   0.445   8.446
  963SOL    HW2 3426   0.414   0.531   8.405
  964SOL     OW 3427   1.134   0.379   9.148
  964SOL    HW1 3428   1.085   0.434   9.209
  964SOL    HW2 3429   1.220   0.420   9.142
  965SOL     OW 3430   1.151   0.225   8.930
  965SOL    HW1 3431   1.142   0.279   9.009
  965SOL    HW2 3432   1.179   0.287   8.862
  966SOL     OW 3433   0.002   1.315   7.631
  966SOL    HW1 3434   3.907   1.332   7.634
  966SOL    HW2 3435   0.010   1.222   7.649
  967SOL     OW 3436   0.079   1.799   8.336
  967SOL    HW1 3437   0.088   1.704   8.335
  967SOL    HW2 3438   0.169   1.832   8.340
  968SOL     OW 3439   0.497   1.572   8.358
  968SOL    HW1 3440   0.566   1.632   8.384
  968SOL    HW2 3441   0.540   1.509   8.300
  969SOL     OW 3442   0.974   0.787   8.671
  969SOL    HW1 3443   1.031   0.769   8.745
  969SOL    HW2 3444   0.891   0.747   8.694
  970SOL     OW 3445   0.034   0.579   8.560
  970SOL    HW1 3446   0.092   0.522   8.509
  970SOL    HW2 3447   0.061   0.565   8.651
  971SOL     OW 3448   0.211   0.515   9.170
  971SOL    HW1 3449   0.256   0.473   9.096
  971SOL    HW2 3450   0.167   0.591   9.132
  972SOL     OW 3451   1.380   0.935   9.104
  972SOL    HW1 3452   1.401   1.028   9.100
  972SOL    HW2 3453   1.376   0.907   9.012
  973SOL     OW 3454   0.819   0.572   7.813
  973SOL    HW1 3455   0.826   0.496   7.755
  973SOL    HW2 3456   0.744   0.621   7.779
  974SOL     OW 3457   1.639   0.602   8.629
  974SOL    HW1 3458   1.630   0.541   8.702
  974SOL    HW2 3459   1.727   0.586   8.595
  975SOL     OW 3460   0.301   1.543   9.170
  975SOL    HW1 3461   0.254   1.612   9.217
  975SOL    HW2 3462   0.273   1.462   9.212
  976SOL     OW 3463   0.715   0.451   8.701
  976SOL    HW1 3464   0.663   0.375   8.677
  976SOL    HW2 3465   0.703   0.512   8.627
  977SOL     OW 3466   0.923   1.679   8.919
  977SOL    HW1 3467   0.898   1.640   8.835
  977SOL    HW2 3468   0.917   1.773   8.904
  978SOL     OW 3469   0.451   0.492   7.648
  978SOL    HW1 3470   0.515   0.561   7.664
  978SOL    HW2 3471   0.372   0.539   7.622
  979SOL     OW 3472   0.154   1.134   8.923
  979SOL    HW1 3473   0.155   1.084   9.005
  979SOL    HW2 3474   0.170   1.069   8.855
  980SOL     OW 3475   1.321   1.044   8.668
  980SOL    HW1 3476   1.343   0.980   8.600
  980SOL    HW2 3477   1.255   1.100   8.629
  981SOL     OW 3478   1.316   0.857   7.753
  981SOL    HW1 3479   1.240   0.827   7.803
  981SOL    HW2 3480   1.291   0.845   7.661
  982SOL     OW 3481   1.741   1.730   8.583
  982SOL    HW1 3482   1.818   1.752   8.529
  982SOL    HW2 3483   1.726   1.637   8.566
  983SOL     OW 3484   1.243   1.734   8.552
  983SOL    HW1 3485   1.327   1.757   8.511
  983SOL    HW2 3486   1.252   1.641   8.573
  984SOL     OW 3487   0.079   1.216   8.476
  984SOL    HW1 3488   0.084   1.242   8.568
  984SOL    HW2 3489   3.986   1.228   8.453
  985SOL     OW 3490   0.680   1.669   9.186
  985SOL    HW1 3491   0.620   1.743   9.176
  985SOL    HW2 3492   0.748   1.685   9.120
  986SOL     OW 3493   1.716   0.123   7.938
  986SOL    HW1 3494   1.793   0.134   7.883
  986SOL    HW2 3495   1.706   0.028   7.946
  987SOL     OW 3496   1.382   1.585   7.927
  987SOL    HW1 3497   1.414   1.636   7.852
  987SOL    HW2 3498   1.331   1.648   7.978
  988SOL     OW 3499   0.177   1.761   9.279
  988SOL    HW1 3500   0.121   1.709   9.337
  988SOL    HW2 3501   0.216   1.826   9.337
  989SOL     OW 3502   1.278   0.929   8.120
  989SOL    HW1 3503   1.351   0.870   8.132
  989SOL    HW2 3504   1.312   1.000   8.065
  990SOL     OW 3505   0.806   1.275   8.873
  990SOL    HW1 3506   0.778   1.317   8.954
  990SOL    HW2 3507   0.734   1.290   8.812
  991SOL     OW 3508   0.666   1.625   7.604
  991SOL    HW1 3509   0.680   1.638   7.510
  991SOL    HW2 3510   0.611   1.547   7.609
  992SOL     OW 3511   1.618   1.730   8.837
  992SOL    HW1 3512   1.663   1.734   8.753
  992SOL    HW2 3513   1.605   1.822   8.861
  993SOL     OW 3514   1.840   0.179   8.413
  993SOL    HW1 3515   1.872   0.116   8.348
  993SOL    HW2 3516   1.750   0.197   8.384
  994SOL     OW 3517   0.276   0.322   8.162
  994SOL    HW1 3518   0.191   0.356   8.135
  994SOL    HW2 3519   0.267   0.307   8.256
  995SOL     OW 3520   1.100   1.585   7.518
  995SOL    HW1 3521   1.140   1.498   7.527
  995SOL    HW2 3522   1.055   1.583   7.434
  996SOL     OW 3523   0.823   1.006   8.823
  996SOL    HW1 3524   0.866   0.999   8.738
  996SOL    HW2 3525   0.821   1.099   8.841
  997SOL     OW 3526   0.916   0.911   7.741
  997SOL    HW1 3527   0.975   0.943   7.673
  997SOL    HW2 3528   0.965   0.842   7.786
  998SOL     OW 3529   0.374   1.302   8.940
  998SOL    HW1 3530   0.359   1.382   8.890
  998SOL    HW2 3531   0.297   1.248   8.922
  999SOL     OW 3532   1.606   1.281   8.730
  999SOL    HW1 3533   1.667   1.267   8.803
  999SOL    HW2 3534   1.547   1.350   8.761
 1000SOL     OW 3535   1.059   1.110   8.159
 1000SOL    HW1 3536   0.987   1.059   8.195
 1000SOL    HW2 3537   1.123   1.045   8.131
 1001SOL     OW 3538   1.015   0.250   8.419
 1001SOL    HW1 3539   1.005   0.200   8.338
 1001SOL    HW2 3540   1.012   0.185   8.489
 1002SOL     OW 3541   0.604   1.484   7.932
 1002SOL    HW1 3542   0.654   1.437   7.865
 1002SOL    HW2 3543   0.530   1.522   7.884
 1003SOL     OW 3544   1.721   0.395   8.819
 1003SOL    HW1 3545   1.794   0.456   8.824
 1003SOL    HW2 3546   1.754   0.323   8.765
 1004SOL     OW 3547   0.255   1.340   7.742
 1004SOL    HW1 3548   0.161   1.345   7.724
 1004SOL    HW2 3549   0.265   1.381   7.828
 1005SOL     OW 3550   0.109   0.999   9.166
 1005SOL    HW1 3551   0.050   0.992   9.241
 1005SOL    HW2 3552   0.196   0.981   9.203
 1006SOL     OW 3553   0.694   0.258   8.952
 1006SOL    HW1 3554   0.762   0.204   8.910
 1006SOL    HW2 3555   0.723   0.266   9.043
 1007SOL     OW 3556   0.088   0.317   7.472
 1007SOL    HW1 3557   3.993   0.317   7.465
 1007SOL    HW2 3558   0.115   0.400   7.433
 1008SOL     OW 3559   1.425   0.856   8.845
 1008SOL    HW1 3560   1.376   0.918   8.791
 1008SOL    HW2 3561   1.514   0.859   8.810
 1009SOL     OW 3562   0.035   0.173   7.732
 1009SOL    HW1 3563   0.037   0.225   7.651
 1009SOL    HW2 3564   0.110   0.204   7.783
 1010SOL     OW 3565   1.186   1.320   7.572
 1010SOL    HW1 3566   1.098   1.283   7.574
 1010SOL    HW2 3567   1.212   1.328   7.663
 1011SOL     OW 3568   0.622   0.828   8.886
 1011SOL    HW1 3569   0.679   0.904   8.870
 1011SOL    HW2 3570   0.682   0.754   8.893
 1012SOL     OW 3571   1.489   1.790   8.433
 1012SOL    HW1 3572   1.511   1.862   8.373
 1012SOL    HW2 3573   1.572   1.767   8.475
 1013SOL     OW 3574   0.718   0.560   9.154
 1013SOL    HW1 3575   0.764   0.621   9.212
 1013SOL    HW2 3576   0.742   0.473   9.187
 1014SOL     OW 3577   1.473   1.195   9.077
 1014SOL    HW1 3578   1.461   1.210   9.171
 1014SOL    HW2 3579   1.566   1.214   9.062
 1015SOL     OW 3580   0.377   1.744   9.004
 1015SOL    HW1 3581   0.290   1.782   8.992
 1015SOL    HW2 3582   0.361   1.662   9.049
 1016SOL     OW 3583   1.665   0.880   8.704
 1016SOL    HW1 3584   1.661   0.794   8.661
 1016SOL    HW2 3585   1.655   0.943   8.632
 1017SOL     OW 3586   1.222   0.338   7.889
 1017SOL    HW1 3587   1.290   0.271   7.882
 1017SOL    HW2 3588   1.240   0.382   7.972
 1018SOL     OW 3589   0.589   0.737   8.121
 1018SOL    HW1 3590   0.627   0.823   8.105
 1018SOL    HW2 3591   0.523   0.727   8.052
 1019SOL     OW 3592   1.749   0.384   9.091
 1019SOL    HW1 3593   1.732   0.390   8.997
 1019SOL    HW2 3594   1.692   0.313   9.121
 1020SOL     OW 3595   1.748   0.934   8.959
 1020SOL    HW1 3596   1.738   1.028   8.972
 1020SOL    HW2 3597   1.730   0.920   8.866
 1021SOL     OW 3598   0.856   1.363   7.487
 1021SOL    HW1 3599   0.827   1.395   7.572
 1021SOL    HW2 3600   0.874   1.442   7.436
 1022SOL     OW 3601   0.663   1.785   8.390
 1022SOL    HW1 3602   0.644   1.877   8.368
 1022SOL    HW2 3603   0.758   1.778   8.380
 1023SOL     OW 3604   0.869   0.969   8.301
 1023SOL    HW1 3605   0.919   0.897   8.339
 1023SOL    HW2 3606   0.831   1.014   8.377
 1024SOL     OW 3607   1.075   0.988   7.538
 1024SOL    HW1 3608   1.054   1.038   7.459
 1024SOL    HW2 3609   1.151   0.934   7.512
 1025SOL     OW 3610   1.844   1.550   8.295
 1025SOL    HW1 3611   1.768   1.543   8.238
 1025SOL    HW2 3612   1.833   1.479   8.358
 1026SOL     OW 3613   0.228   1.304   9.305
 1026SOL    HW1 3614   0.154   1.250   9.276
 1026SOL    HW2 3615   0.214   1.317   9.398
 1027SOL     OW 3616   0.125   1.283   8.173
 1027SOL    HW1 3617   0.142   1.230   8.250
 1027SOL    HW2 3618   0.105   1.220   8.104
 1028SOL     OW 3619   0.683   1.407   9.078
 1028SOL    HW1 3620   0.603   1.364   9.110
 1028SOL    HW2 3621   0.679   1.495   9.116
 1029SOL     OW 3622   1.810   0.183   8.685
 1029SOL    HW1 3623   1.813   0.089   8.701
 1029SOL    HW2 3624   1.826   0.192   8.591
 1030SOL     OW 3625   0.446   0.438   7.980
 1030SOL    HW1 3626   0.469   0.363   7.926
 1030SOL    HW2 3627   0.390   0.403   8.049
 1031SOL     OW 3628   1.698   1.470   8.538
 1031SOL    HW1 3629   1.617   1.453   8.490
 1031SOL    HW2 3630   1.699   1.402   8.606
 1032SOL     OW 3631   0.335   0.559   8.742
 1032SOL    HW1 3632   0.390   0.503   8.795
 1032SOL    HW2 3633   0.349   0.530   8.652
 1033SOL     OW 3634   0.830   1.578   8.124
 1033SOL    HW1 3635   0.820   1.637   8.049
 1033SOL    HW2 3636   0.754   1.520   8.119
 1034SOL     OW 3637   1.460   0.255   8.558
 1034SOL    HW1 3638   1.478   0.168   8.594
 1034SOL    HW2 3639   1.405   0.298   8.624
 1035SOL     OW 3640   1.002   0.026   8.594
 1035SOL    HW1 3641   0.919   3.999   8.553
 1035SOL    HW2 3642   1.052   3.945   8.602
 1036SOL     OW 3643   0.772   1.332   7.769
 1036SOL    HW1 3644   0.744   1.240   7.775
 1036SOL    HW2 3645   0.855   1.334   7.817
 1037SOL     OW 3646   0.621   1.557   8.735
 1037SOL    HW1 3647   0.622   1.639   8.784
 1037SOL    HW2 3648   0.709   1.550   8.698
 1038SOL     OW 3649   1.309   0.073   7.617
 1038SOL    HW1 3650   1.316   3.990   7.569
 1038SOL    HW2 3651   1.224   0.067   7.661
 1039SOL     OW 3652   1.279   0.456   8.132
 1039SOL    HW1 3653   1.233   0.540   8.126
 1039SOL    HW2 3654   1.282   0.437   8.226
 1040SOL     OW 3655   1.587   0.210   8.316
 1040SOL    HW1 3656   1.538   0.235   8.395
 1040SOL    HW2 3657   1.588   0.288   8.262
 1041SOL     OW 3658   0.048   1.047   7.690
 1041SOL    HW1 3659   0.142   1.032   7.682
 1041SOL    HW2 3660   0.012   0.962   7.715
 1042SOL     OW 3661   0.863   1.646   7.808
 1042SOL    HW1 3662   0.796   1.635   7.740
 1042SOL    HW2 3663   0.839   1.727   7.852
 1043SOL     OW 3664   0.232   0.630   9.425
 1043SOL    HW1 3665   0.139   0.634   9.447
 1043SOL    HW2 3666   0.235   0.600   9.335
 1044SOL     OW 3667   0.223   0.290  10.292
 1044SOL    HW1 3668   0.246   0.250  10.376
 1044SOL    HW2 3669   0.128   0.282  10.286
 1045SOL     OW 3670   0.019   0.384   9.946
 1045SOL    HW1 3671   3.928   0.400   9.970
 1045SOL    HW2 3672   0.025   0.290   9.933
 1046SOL     OW 3673   0.583   1.293  10.507
 1046SOL    HW1 3674   0.497   1.294  10.465
 1046SOL    HW2 3675   0.596   1.382  10.537
 1047SOL     OW 3676   1.571   1.515  10.019
 1047SOL    HW1 3677   1.528   1.494  10.102
 1047SOL    HW2 3678   1.499   1.520   9.956
 1048SOL     OW 3679   1.134   0.699  10.005
 1048SOL    HW1 3680   1.181   0.781   9.993
 1048SOL    HW2 3681   1.085   0.710  10.087
 1049SOL     OW 3682   1.772   0.620   9.533
 1049SOL    HW1 3683   1.748   0.612   9.441
 1049SOL    HW2 3684   1.753   0.533   9.570
 1050SOL     OW 3685   0.750   1.137  10.355
 1050SOL    HW1 3686   0.688   1.174  10.418
 1050SOL    HW2 3687   0.787   1.213  10.310
 1051SOL     OW 3688   0.874   0.767  11.135
 1051SOL    HW1 3689   0.863   0.838  11.198
 1051SOL    HW2 3690   0.895   0.810  11.053
 1052SOL     OW 3691   0.685   1.001   9.955
 1052SOL    HW1 3692   0.751   0.990  10.023
 1052SOL    HW2 3693   0.616   1.053   9.996
 1053SOL     OW 3694   0.713   1.148  11.129
 1053SOL    HW1 3695   0.761   1.226  11.158
 1053SOL    HW2 3696   0.633   1.183  11.090
 1054SOL     OW 3697   0.352   1.399  10.389
 1054SOL    HW1 3698   0.271   1.377  10.343
 1054SOL    HW2 3699   0.398   1.457  10.328
 1055SOL     OW 3700   1.460   1.502  10.670
 1055SOL    HW1 3701   1.514   1.581  10.679
 1055SOL    HW2 3702   1.393   1.512  10.738
 1056SOL     OW 3703   0.459   0.409  10.803
 1056SOL    HW1 3704   0.541   0.360  10.803
 1056SOL    HW2 3705   0.391   0.341  10.807
 1057SOL     OW 3706   1.612   0.451  10.045
 1057SOL    HW1 3707   1.544   0.482   9.985
 1057SOL    HW2 3708   1.625   0.523  10.107
 1058SOL     OW 3709   0.219   1.720   9.766
 1058SOL    HW1 3710   0.240   1.794   9.824
 1058SOL    HW2 3711   0.296   1.712   9.709
 1059SOL     OW 3712   1.138   1.342  11.004
 1059SOL    HW1 3713   1.179   1.336  11.090
 1059SOL    HW2 3714   1.085   1.262  10.996
 1060SOL     OW 3715   0.252   1.452   9.849
 1060SOL    HW1 3716   0.216   1.540   9.835
 1060SOL    HW2 3717   0.186   1.407   9.901
 1061SOL     OW 3718   0.248   1.064  10.194
 1061SOL    HW1 3719   0.268   0.979  10.232
 1061SOL    HW2 3720   0.195   1.109  10.260
 1062SOL     OW 3721   0.608   1.794  10.735
 1062SOL    HW1 3722   0.526   1.776  10.780
 1062SOL    HW2 3723   0.632   1.883  10.762
 1063SOL     OW 3724   0.574   0.987   9.450
 1063SOL    HW1 3725   0.624   1.030   9.381
 1063SOL    HW2 3726   0.615   1.017   9.531
 1064SOL     OW 3727   1.583   0.142  10.765
 1064SOL    HW1 3728   1.615   0.214  10.711
 1064SOL    HW2 3729   1.546   0.184  10.843
 1065SOL     OW 3730   0.142   0.653   9.879
 1065SOL    HW1 3731   0.100   0.567   9.884
 1065SOL    HW2 3732   0.103   0.703   9.951
 1066SOL     OW 3733   0.044   1.588   9.447
 1066SOL    HW1 3734   0.039   1.497   9.475
 1066SOL    HW2 3735   3.958   1.624   9.469
 1067SOL     OW 3736   1.687   0.917   9.954
 1067SOL    HW1 3737   1.771   0.876   9.934
 1067SOL    HW2 3738   1.667   0.970   9.876
 1068SOL     OW 3739   1.650   1.104   9.739
 1068SOL    HW1 3740   1.736   1.106   9.699
 1068SOL    HW2 3741   1.656   1.167   9.812
 1069SOL     OW 3742   0.144   0.756  10.899
 1069SOL    HW1 3743   0.240   0.752  10.892
 1069SOL    HW2 3744   0.126   0.842  10.935
 1070SOL     OW 3745   0.613   1.388  10.047
 1070SOL    HW1 3746   0.568   1.304  10.055
 1070SOL    HW2 3747   0.598   1.415   9.956
 1071SOL     OW 3748   1.286   1.236  10.731
 1071SOL    HW1 3749   1.317   1.168  10.671
 1071SOL    HW2 3750   1.345   1.231  10.806
 1072SOL     OW 3751   0.822   0.005   9.828
 1072SOL    HW1 3752   0.867   0.086   9.802
 1072SOL    HW2 3753   0.729   0.028   9.826
 1073SOL     OW 3754   0.183   0.948  10.590
 1073SOL    HW1 3755   0.272   0.913  10.578
 1073SOL    HW2 3756   0.132   0.908  10.520
 1074SOL     OW 3757   1.531   0.998   9.511
 1074SOL    HW1 3758   1.462   0.941   9.544
 1074SOL    HW2 3759   1.574   1.032   9.589
 1075SOL     OW 3760   1.183   1.811  10.935
 1075SOL    HW1 3761   1.191   1.872  10.862
 1075SOL    HW2 3762   1.202   1.725  10.898
 1076SOL     OW 3763   0.347   0.248  11.159
 1076SOL    HW1 3764   0.390   0.331  11.139
 1076SOL    HW2 3765   0.255   0.271  11.174
 1077SOL     OW 3766   1.465   1.419  10.256
 1077SOL    HW1 3767   1.399   1.435  10.324
 1077SOL    HW2 3768   1.451   1.328  10.231
 1078SOL     OW 3769   1.660   1.741   9.865
 1078SOL    HW1 3770   1.631   1.702   9.782
 1078SOL    HW2 3771   1.645   1.673   9.930
 1079SOL     OW 3772   0.595   0.716   9.578
 1079SOL    HW1 3773   0.600   0.800   9.534
 1079SOL    HW2 3774   0.533   0.729   9.649
 1080SOL     OW 3775   1.274   0.372  10.251
 1080SOL    HW1 3776   1.187   0.333  10.259
 1080SOL    HW2 3777   1.332   0.311  10.297
 1081SOL     OW 3778   1.576   1.672   9.606
 1081SOL    HW1 3779   1.667   1.691   9.581
 1081SOL    HW2 3780   1.533   1.650   9.523
 1082SOL     OW 3781   0.794   0.615  10.762
 1082SOL    HW1 3782   0.765   0.589  10.849
 1082SOL    HW2 3783   0.758   0.548  10.704
 1083SOL     OW 3784   1.392   0.475  10.987
 1083SOL    HW1 3785   1.399   0.521  11.071
 1083SOL    HW2 3786   1.448   0.399  10.997
 1084SOL     OW 3787   0.950   0.886  10.896
 1084SOL    HW1 3788   1.005   0.818  10.858
 1084SOL    HW2 3789   0.901   0.922  10.822
 1085SOL     OW 3790   0.994   0.402  10.545
 1085SOL    HW1 3791   0.907   0.421  10.582
 1085SOL    HW2 3792   0.977   0.375  10.455
 1086SOL     OW 3793   1.053   0.700   9.735
 1086SOL    HW1 3794   1.071   0.693   9.828
 1086SOL    HW2 3795   0.970   0.654   9.722
 1087SOL     OW 3796   0.082   0.831  10.100
 1087SOL    HW1 3797   0.152   0.796  10.155
 1087SOL    HW2 3798   0.107   0.922  10.085
 1088SOL     OW 3799   0.130   1.867  10.890
 1088SOL    HW1 3800   0.138   1.830  10.978
 1088SOL    HW2 3801   0.038   1.856  10.868
 1089SOL     OW 3802   0.895   0.352   9.509
 1089SOL    HW1 3803   0.937   0.413   9.448
 1089SOL    HW2 3804   0.891   0.269   9.461
 1090SOL     OW 3805   1.706   0.575  11.140
 1090SOL    HW1 3806   1.669   0.649  11.091
 1090SOL    HW2 3807   1.730   0.511  11.073
 1091SOL     OW 3808   1.380   1.141   9.849
 1091SOL    HW1 3809   1.460   1.131   9.797
 1091SOL    HW2 3810   1.327   1.203   9.799
 1092SOL     OW 3811   0.563   0.195  10.190
 1092SOL    HW1 3812   0.567   0.220  10.282
 1092SOL    HW2 3813   0.547   0.277  10.143
 1093SOL     OW 3814   1.000   1.443   9.779
 1093SOL    HW1 3815   0.969   1.519   9.729
 1093SOL    HW2 3816   0.978   1.464   9.869
 1094SOL     OW 3817   0.364   1.825  10.183
 1094SOL    HW1 3818   0.426   1.752  10.193
 1094SOL    HW2 3819   0.417   1.903  10.198
 1095SOL     OW 3820   1.800   1.048  10.183
 1095SOL    HW1 3821   1.747   1.034  10.105
 1095SOL    HW2 3822   1.736   1.057  10.254
 1096SOL     OW 3823   1.227   1.540  10.823
 1096SOL    HW1 3824   1.215   1.467  10.885
 1096SOL    HW2 3825   1.161   1.525  10.755
 1097SOL     OW 3826   0.310   0.952   9.552
 1097SOL    HW1 3827   0.394   0.974   9.510
 1097SOL    HW2 3828   0.298   0.858   9.535
 1098SOL     OW 3829   1.480   0.751  10.038
 1098SOL    HW1 3830   1.477   0.710  10.125
 1098SOL    HW2 3831   1.558   0.806  10.041
 1099SOL     OW 3832   0.470   1.262  11.048
 1099SOL    HW1 3833   0.445   1.269  10.956
 1099SOL    HW2 3834   0.388   1.263  11.096
 1100SOL     OW 3835   1.124   1.776   9.540
 1100SOL    HW1 3836   1.048   1.738   9.583
 1100SOL    HW2 3837   1.147   1.713   9.471
 1101SOL     OW 3838   0.202   0.293  10.811
 1101SOL    HW1 3839   0.108   0.312  10.811
 1101SOL    HW2 3840   0.211   0.216  10.868
 1102SOL     OW 3841   1.628   1.382   9.398
 1102SOL    HW1 3842   1.585   1.466   9.382
 1102SOL    HW2 3843   1.560   1.317   9.378
 1103SOL     OW 3844   0.466   1.739   9.625
 1103SOL    HW1 3845   0.510   1.795   9.689
 1103SOL    HW2 3846   0.537   1.701   9.573
 1104SOL     OW 3847   1.444   0.171   9.716
 1104SOL    HW1 3848   1.393   0.103   9.672
 1104SOL    HW2 3849   1.511   0.123   9.765
 1105SOL     OW 3850   0.254   1.790  10.540
 1105SOL    HW1 3851   0.298   1.722  10.591
 1105SOL    HW2 3852   0.252   1.755  10.451
 1106SOL     OW 3853   0.939   1.699  10.207
 1106SOL    HW1 3854   1.019   1.651  10.228
 1106SOL    HW2 3855   0.897   1.649  10.137
 1107SOL     OW 3856   0.399   0.695   9.780
 1107SOL    HW1 3857   0.424   0.603   9.796
 1107SOL    HW2 3858   0.307   0.699   9.806
 1108SOL     OW 3859   1.528   0.227  11.036
 1108SOL    HW1 3860   1.522   0.252  11.129
 1108SOL    HW2 3861   1.515   0.132  11.036
 1109SOL     OW 3862   0.646   0.127   9.414
 1109SOL    HW1 3863   0.666   0.042   9.452
 1109SOL    HW2 3864   0.586   0.108   9.342
 1110SOL     OW 3865   0.775   0.286  11.080
 1110SOL    HW1 3866   0.853   0.230  11.081
 1110SOL    HW2 3867   0.721   0.251  11.152
 1111SOL     OW 3868   0.875   1.522  10.504
 1111SOL    HW1 3869   0.859   1.485  10.418
 1111SOL    HW2 3870   0.945   1.468  10.541
 1112SOL     OW 3871   1.338   0.588  10.741
 1112SOL    HW1 3872   1.369   0.559  10.827
 1112SOL    HW2 3873   1.374   0.676  10.731
 1113SOL     OW 3874   0.817   1.390  10.254
 1113SOL    HW1 3875   0.903   1.379  10.212
 1113SOL    HW2 3876   0.755   1.395  10.181
 1114SOL     OW 3877   0.931   0.513  10.209
 1114SOL    HW1 3878   0.906   0.504  10.117
 1114SOL    HW2 3879   0.955   0.424  10.235
 1115SOL     OW 3880   0.547   0.055   9.797
 1115SOL    HW1 3881   0.473   0.063   9.858
 1115SOL    HW2 3882   0.548   0.139   9.750
 1116SOL     OW 3883   1.428   1.200   9.350
 1116SOL    HW1 3884   1.457   1.124   9.401
 1116SOL    HW2 3885   1.342   1.222   9.386
 1117SOL     OW 3886   0.352   0.032   9.510
 1117SOL    HW1 3887   0.357   0.087   9.432
 1117SOL    HW2 3888   0.439   0.039   9.549
 1118SOL     OW 3889   0.944   0.251   9.769
 1118SOL    HW1 3890   0.919   0.290   9.685
 1118SOL    HW2 3891   1.040   0.257   9.769
 1119SOL     OW 3892   1.079   0.685  10.767
 1119SOL    HW1 3893   1.010   0.619  10.774
 1119SOL    HW2 3894   1.161   0.635  10.762
 1120SOL     OW 3895   1.219   1.572  10.106
 1120SOL    HW1 3896   1.234   1.638  10.037
 1120SOL    HW2 3897   1.290   1.586  10.168
 1121SOL     OW 3898   0.467   1.152  10.043
 1121SOL    HW1 3899   0.396   1.126  10.102
 1121SOL    HW2 3900   0.431   1.136   9.956
 1122SOL     OW 3901   1.262   1.792   9.921
 1122SOL    HW1 3902   1.308   1.855   9.866
 1122SOL    HW2 3903   1.194   1.843   9.966
 1123SOL     OW 3904   1.021   0.540   9.341
 1123SOL    HW1 3905   0.978   0.623   9.321
 1123SOL    HW2 3906   1.085   0.561   9.409
 1124SOL     OW 3907   0.082   0.575  10.702
 1124SOL    HW1 3908   0.171   0.557  10.673
 1124SOL    HW2 3909   0.092   0.646  10.766
 1125SOL     OW 3910   0.572   0.231  10.469
 1125SOL    HW1 3911   0.593   0.138  10.477
 1125SOL    HW2 3912   0.481   0.237  10.499
 1126SOL     OW 3913   0.871   0.461   9.947
 1126SOL    HW1 3914   0.821   0.514   9.886
 1126SOL    HW2 3915   0.892   0.381   9.899
 1127SOL     OW 3916   0.997   0.038  10.092
 1127SOL    HW1 3917   0.958   0.069  10.010
 1127SOL    HW2 3918   1.009   3.944  10.078
 1128SOL     OW 3919   1.439   1.160  10.167
 1128SOL    HW1 3920   1.368   1.096  10.165
 1128SOL    HW2 3921   1.465   1.170  10.076
 1129SOL     OW 3922   1.464   0.609  10.281
 1129SOL    HW1 3923   1.408   0.531  10.286
 1129SOL    HW2 3924   1.523   0.601  10.356
 1130SOL     OW 3925   1.842   0.818   9.699
 1130SOL    HW1 3926   1.900   0.767   9.755
 1130SOL    HW2 3927   1.815   0.758   9.630
 1131SOL     OW 3928   0.487   1.423   9.468
 1131SOL    HW1 3929   0.411   1.392   9.518
 1131SOL    HW2 3930   0.475   1.386   9.381
 1132SOL     OW 3931   1.673   1.263   9.954
 1132SOL    HW1 3932   1.768   1.261   9.969
 1132SOL    HW2 3933   1.648   1.353   9.976
 1133SOL     OW 3934   1.395   0.578   9.378
 1133SOL    HW1 3935   1.332   0.557   9.447
 1133SOL    HW2 3936   1.480   0.558   9.417
 1134SOL     OW 3937   0.556   0.270   9.627
 1134SOL    HW1 3938   0.606   0.231   9.556
 1134SOL    HW2 3939   0.528   0.355   9.592
 1135SOL     OW 3940   1.749   1.242  10.876
 1135SOL    HW1 3941   1.836   1.203  10.868
 1135SOL    HW2 3942   1.765   1.332  10.904
 1136SOL     OW 3943   1.055   1.354  10.642
 1136SOL    HW1 3944   0.979   1.322  10.692
 1136SOL    HW2 3945   1.130   1.312  10.684
 1137SOL     OW 3946   1.609   1.626  10.965
 1137SOL    HW1 3947   1.602   1.663  10.877
 1137SOL    HW2 3948   1.692   1.579  10.965
 1138SOL     OW 3949   1.134   1.209  10.413
 1138SOL    HW1 3950   1.074   1.246  10.477
 1138SOL    HW2 3951   1.104   1.243  10.329
 1139SOL     OW 3952   1.623   1.096  10.386
 1139SOL    HW1 3953   1.616   1.158  10.459
 1139SOL    HW2 3954   1.547   1.115  10.331
 1140SOL     OW 3955   0.912   0.118  10.711
 1140SOL    HW1 3956   0.932   0.089  10.622
 1140SOL    HW2 3957   0.993   0.159  10.741
 1141SOL     OW 3958   0.984   1.115  11.033
 1141SOL    HW1 3959   0.893   1.132  11.057
 1141SOL    HW2 3960   0.981   1.037  10.979
 1142SOL     OW 3961   0.708   1.062   9.681
 1142SOL    HW1 3962   0.694   1.044   9.773
 1142SOL    HW2 3963   0.784   1.009   9.657
 1143SOL     OW 3964   0.424   0.818  10.563
 1143SOL    HW1 3965   0.492   0.825  10.630
 1143SOL    HW2 3966   0.389   0.729  10.573
 1144SOL     OW 3967   1.265   0.374  10.588
 1144SOL    HW1 3968   1.299   0.453  10.632
 1144SOL    HW2 3969   1.178   0.399  10.559
 1145SOL     OW 3970   0.065   1.579  10.655
 1145SOL    HW1 3971   0.071   1.625  10.571
 1145SOL    HW2 3972   0.156   1.570  10.684
 1146SOL     OW 3973   0.368   1.104   9.791
 1146SOL    HW1 3974   0.362   1.183   9.737
 1146SOL    HW2 3975   0.367   1.032   9.727
 1147SOL     OW 3976   0.554   0.531  10.167
 1147SOL    HW1 3977   0.567   0.591  10.093
 1147SOL    HW2 3978   0.620   0.558  10.231
 1148SOL     OW 3979   1.247   1.349   9.700
 1148SOL    HW1 3980   1.303   1.420   9.733
 1148SOL    HW2 3981   1.160   1.370   9.733
 1149SOL     OW 3982   1.288   1.461  10.459
 1149SOL    HW1 3983   1.344   1.465  10.536
 1149SOL    HW2 3984   1.233   1.384  10.474
 1150SOL     OW 3985   1.573   0.635   9.799
 1150SOL    HW1 3986   1.529   0.688   9.865
 1150SOL    HW2 3987   1.619   0.698   9.745
 1151SOL     OW 3988   0.345   1.528  10.627
 1151SOL    HW1 3989   0.336   1.477  10.547
 1151SOL    HW2 3990   0.440   1.542  10.635
 1152SOL     OW 3991   0.420   0.736  10.911
 1152SOL    HW1 3992   0.483   0.781  10.855
 1152SOL    HW2 3993   0.456   0.648  10.923
 1153SOL     OW 3994   1.606   0.782  10.997
 1153SOL    HW1 3995   1.520   0.823  10.990
 1153SOL    HW2 3996   1.658   0.823  10.928
 1154SOL     OW 3997   1.007   0.140  11.090
 1154SOL    HW1 3998   1.065   0.209  11.057
 1154SOL    HW2 3999   0.998   0.079  11.017
 1155SOL     OW 4000   0.486   0.037  11.073
 1155SOL    HW1 4001   0.490   0.050  10.978
 1155SOL    HW2 4002   0.423   0.102  11.104
 1156SOL     OW 4003   0.586   0.876  10.342
 1156SOL    HW1 4004   0.619   0.965  10.345
 1156SOL    HW2 4005   0.529   0.868  10.419
 1157SOL     OW 4006   1.349   0.858  10.333
 1157SOL    HW1 4007   1.263   0.844  10.293
 1157SOL    HW2 4008   1.394   0.774  10.325
 1158SOL     OW 4009   1.198   0.538   9.565
 1158SOL    HW1 4010   1.207   0.459   9.618
 1158SOL    HW2 4011   1.156   0.601   9.623
 1159SOL     OW 4012   0.310   0.211  10.549
 1159SOL    HW1 4013   0.267   0.248  10.626
 1159SOL    HW2 4014   0.296   0.117  10.556
 1160SOL     OW 4015   0.063   1.306  10.590
 1160SOL    HW1 4016   0.092   1.262  10.670
 1160SOL    HW2 4017   0.053   1.398  10.615
 1161SOL     OW 4018   0.723   0.633  10.361
 1161SOL    HW1 4019   0.799   0.620  10.303
 1161SOL    HW2 4020   0.693   0.722  10.341
 1162SOL     OW 4021   1.739   0.959  11.168
 1162SOL    HW1 4022   1.694   0.894  11.114
 1162SOL    HW2 4023   1.678   0.976  11.240
 1163SOL     OW 4024   0.333   0.054   9.968
 1163SOL    HW1 4025   0.304   0.145   9.969
 1163SOL    HW2 4026   0.298   0.017  10.049
 1164SOL     OW 4027   1.609   0.394   9.688
 1164SOL    HW1 4028   1.564   0.326   9.738
 1164SOL    HW2 4029   1.589   0.476   9.735
 1165SOL     OW 4030   1.031   0.759  10.268
 1165SOL    HW1 4031   1.021   0.776  10.362
 1165SOL    HW2 4032   1.003   0.668  10.257
 1166SOL     OW 4033   0.981   1.566  11.031
 1166SOL    HW1 4034   0.966   1.610  10.947
 1166SOL    HW2 4035   1.025   1.484  11.007
 1167SOL     OW 4036   1.853   1.501  10.912
 1167SOL    HW1 4037   1.871   1.532  10.824
 1167SOL    HW2 4038   1.937   1.511  10.958
 1168SOL     OW 4039   0.355   0.922  11.107
 1168SOL    HW1 4040   0.432   0.942  11.160
 1168SOL    HW2 4041   0.384   0.854  11.047
 1169SOL     OW 4042   1.502   0.273   9.443
 1169SOL    HW1 4043   1.430   0.212   9.455
 1169SOL    HW2 4044   1.515   0.312   9.530
 1170SOL     OW 4045   1.287   0.827   9.337
 1170SOL    HW1 4046   1.329   0.741   9.342
 1170SOL    HW2 4047   1.319   0.866   9.256
 1171SOL     OW 4048   1.068   1.338  10.167
 1171SOL    HW1 4049   1.073   1.266  10.104
 1171SOL    HW2 4050   1.127   1.405  10.132
 1172SOL     OW 4051   0.313   0.802  10.260
 1172SOL    HW1 4052   0.407   0.818  10.254
 1172SOL    HW2 4053   0.306   0.712  10.292
 1173SOL     OW 4054   0.339   0.529  10.326
 1173SOL    HW1 4055   0.297   0.445  10.308
 1173SOL    HW2 4056   0.414   0.531  10.267
 1174SOL     OW 4057   1.134   0.379  11.010
 1174SOL    HW1 4058   1.085   0.434  11.071
 1174SOL    HW2 4059   1.220   0.420  11.005
 1175SOL     OW 4060   1.151   0.225  10.792
 1175SOL    HW1 4061   1.142   0.279  10.871
 1175SOL    HW2 4062   1.179   0.287  10.724
 1176SOL     OW 4063   0.001   1.315   9.493
 1176SOL    HW1 4064   3.907   1.332   9.496
 1176SOL    HW2 4065   0.010   1.221   9.511
 1177SOL     OW 4066   0.079   1.799  10.198
 1177SOL    HW1 4067   0.088   1.704  10.198
 1177SOL    HW2 4068   0.169   1.831  10.202
 1178SOL     OW 4069   0.497   1.571  10.219
 1178SOL    HW1 4070   0.566   1.632  10.246
 1178SOL    HW2 4071   0.540   1.509  10.162
 1179SOL     OW 4072   0.974   0.787  10.533
 1179SOL    HW1 4073   1.032   0.769  10.607
 1179SOL    HW2 4074   0.891   0.748  10.557
 1180SOL     OW 4075   0.034   0.579  10.422
 1180SOL    HW1 4076   0.092   0.522  10.371
 1180SOL    HW2 4077   0.061   0.565  10.513
 1181SOL     OW 4078   0.211   0.515  11.032
 1181SOL    HW1 4079   0.255   0.473  10.958
 1181SOL    HW2 4080   0.167   0.591  10.994
 1182SOL     OW 4081   1.380   0.935  10.966
 1182SOL    HW1 4082   1.401   1.028  10.962
 1182SOL    HW2 4083   1.376   0.907  10.874
 1183SOL     OW 4084   0.819   0.572   9.674
 1183SOL    HW1 4085   0.826   0.496   9.616
 1183SOL    HW2 4086   0.744   0.621   9.641
 1184SOL     OW 4087   1.639   0.602  10.491
 1184SOL    HW1 4088   1.630   0.542  10.564
 1184SOL    HW2 4089   1.727   0.586  10.457
 1185SOL     OW 4090   0.301   1.543  11.032
 1185SOL    HW1 4091   0.255   1.612  11.079
 1185SOL    HW2 4092   0.273   1.462  11.074
 1186SOL     OW 4093   0.715   0.451  10.563
 1186SOL    HW1 4094   0.663   0.375  10.539
 1186SOL    HW2 4095   0.703   0.512  10.489
 1187SOL     OW 4096   0.922   1.679  10.781
 1187SOL    HW1 4097   0.898   1.640  10.697
 1187SOL    HW2 4098   0.917   1.773  10.766
 1188SOL     OW 4099   0.451   0.492   9.509
 1188SOL    HW1 4100   0.515   0.561   9.526
 1188SOL    HW2 4101   0.372   0.539   9.484
 1189SOL     OW 4102   0.154   1.134  10.786
 1189SOL    HW1 4103   0.155   1.084  10.867
 1189SOL    HW2 4104   0.170   1.069  10.717
 1190SOL     OW 4105   1.321   1.044  10.530
 1190SOL    HW1 4106   1.343   0.981  10.462
 1190SOL    HW2 4107   1.254   1.100  10.491
 1191SOL     OW 4108   1.316   0.856   9.614
 1191SOL    HW1 4109   1.241   0.827   9.666
 1191SOL    HW2 4110   1.288   0.844   9.523
 1192SOL     OW 4111   1.742   1.730  10.447
 1192SOL    HW1 4112   1.819   1.753  10.395
 1192SOL    HW2 4113   1.727   1.637  10.429
 1193SOL     OW 4114   1.243   1.734  10.415
 1193SOL    HW1 4115   1.327   1.757  10.374
 1193SOL    HW2 4116   1.252   1.641  10.436
 1194SOL     OW 4117   0.079   1.217  10.337
 1194SOL    HW1 4118   0.085   1.242  10.429
 1194SOL    HW2 4119   3.986   1.228  10.315
 1195SOL     OW 4120   0.680   1.669  11.048
 1195SOL    HW1 4121   0.620   1.743  11.037
 1195SOL    HW2 4122   0.748   1.685  10.982
 1196SOL     OW 4123   1.716   0.123   9.800
 1196SOL    HW1 4124   1.793   0.134   9.745
 1196SOL    HW2 4125   1.706   0.028   9.808
 1197SOL     OW 4126   1.392   1.568   9.799
 1197SOL    HW1 4127   1.446   1.603   9.728
 1197SOL    HW2 4128   1.341   1.644   9.829
 1198SOL     OW 4129   0.177   1.761  11.141
 1198SOL    HW1 4130   0.121   1.709  11.199
 1198SOL    HW2 4131   0.216   1.826  11.199
 1199SOL     OW 4132   1.277   0.929   9.981
 1199SOL    HW1 4133   1.351   0.870   9.994
 1199SOL    HW2 4134   1.312   1.000   9.927
 1200SOL     OW 4135   0.806   1.275  10.735
 1200SOL    HW1 4136   0.778   1.317  10.817
 1200SOL    HW2 4137   0.735   1.290  10.674
 1201SOL     OW 4138   0.670   1.624   9.465
 1201SOL    HW1 4139   0.682   1.637   9.371
 1201SOL    HW2 4140   0.614   1.547   9.472
 1202SOL     OW 4141   1.618   1.730  10.700
 1202SOL    HW1 4142   1.663   1.734  10.616
 1202SOL    HW2 4143   1.606   1.822  10.725
 1203SOL     OW 4144   1.840   0.179  10.275
 1203SOL    HW1 4145   1.873   0.116  10.210
 1203SOL    HW2 4146   1.750   0.197  10.246
 1204SOL     OW 4147   0.276   0.322  10.024
 1204SOL    HW1 4148   0.191   0.356   9.997
 1204SOL    HW2 4149   0.267   0.307  10.118
 1205SOL     OW 4150   1.206   1.602   9.342
 1205SOL    HW1 4151   1.195   1.511   9.369
 1205SOL    HW2 4152   1.140   1.615   9.274
 1206SOL     OW 4153   0.823   1.006  10.685
 1206SOL    HW1 4154   0.867   0.999  10.600
 1206SOL    HW2 4155   0.821   1.099  10.704
 1207SOL     OW 4156   0.915   0.911   9.601
 1207SOL    HW1 4157   0.976   0.944   9.534
 1207SOL    HW2 4158   0.965   0.843   9.647
 1208SOL     OW 4159   1.484   1.623   9.349
 1208SOL    HW1 4160   1.390   1.616   9.333
 1208SOL    HW2 4161   1.523   1.631   9.263
 1209SOL     OW 4162   0.374   1.302  10.802
 1209SOL    HW1 4163   0.359   1.382  10.752
 1209SOL    HW2 4164   0.297   1.248  10.784
 1210SOL     OW 4165   1.607   1.282  10.590
 1210SOL    HW1 4166   1.669   1.269  10.662
 1210SOL    HW2 4167   1.548   1.351  10.622
 1211SOL     OW 4168   1.059   1.110  10.020
 1211SOL    HW1 4169   0.987   1.060  10.057
 1211SOL    HW2 4170   1.123   1.044   9.993
 1212SOL     OW 4171   1.015   0.250  10.281
 1212SOL    HW1 4172   1.005   0.200  10.200
 1212SOL    HW2 4173   1.012   0.185  10.351
 1213SOL     OW 4174   0.607   1.488   9.792
 1213SOL    HW1 4175   0.655   1.439   9.725
 1213SOL    HW2 4176   0.530   1.523   9.746
 1214SOL     OW 4177   1.721   0.395  10.681
 1214SOL    HW1 4178   1.794   0.456  10.686
 1214SOL    HW2 4179   1.754   0.323  10.627
 1215SOL     OW 4180   0.255   1.341   9.604
 1215SOL    HW1 4181   0.161   1.345   9.586
 1215SOL    HW2 4182   0.265   1.381   9.690
 1216SOL     OW 4183   0.109   0.999  11.028
 1216SOL    HW1 4184   0.050   0.992  11.103
 1216SOL    HW2 4185   0.196   0.981  11.065
 1217SOL     OW 4186   0.695   0.258  10.814
 1217SOL    HW1 4187   0.762   0.204  10.772
 1217SOL    HW2 4188   0.723   0.266  10.905
 1218SOL     OW 4189   0.088   0.317   9.334
 1218SOL    HW1 4190   3.993   0.317   9.327
 1218SOL    HW2 4191   0.115   0.400   9.295
 1219SOL     OW 4192   1.425   0.856  10.707
 1219SOL    HW1 4193   1.376   0.918  10.653
 1219SOL    HW2 4194   1.514   0.859  10.672
 1220SOL     OW 4195   0.035   0.173   9.594
 1220SOL    HW1 4196   0.037   0.226   9.514
 1220SOL    HW2 4197   0.110   0.204   9.645
 1221SOL     OW 4198   1.178   1.335   9.428
 1221SOL    HW1 4199   1.087   1.305   9.429
 1221SOL    HW2 4200   1.204   1.336   9.520
 1222SOL     OW 4201   0.622   0.828  10.747
 1222SOL    HW1 4202   0.679   0.904  10.732
 1222SOL    HW2 4203   0.682   0.754  10.755
 1223SOL     OW 4204   1.489   1.790  10.297
 1223SOL    HW1 4205   1.511   1.857  10.233
 1223SOL    HW2 4206   1.573   1.769  10.339
 1224SOL     OW 4207   0.718   0.560  11.016
 1224SOL    HW1 4208   0.764   0.621  11.074
 1224SOL    HW2 4209   0.742   0.474  11.049
 1225SOL     OW 4210   1.473   1.195  10.939
 1225SOL    HW1 4211   1.462   1.210  11.033
 1225SOL    HW2 4212   1.566   1.214  10.923
 1226SOL     OW 4213   0.377   1.744  10.866
 1226SOL    HW1 4214   0.290   1.782  10.854
 1226SOL    HW2 4215   0.361   1.662  10.911
 1227SOL     OW 4216   1.665   0.880  10.566
 1227SOL    HW1 4217   1.661   0.795  10.522
 1227SOL    HW2 4218   1.655   0.943  10.495
 1228SOL     OW 4219   1.222   0.338   9.750
 1228SOL    HW1 4220   1.290   0.271   9.744
 1228SOL    HW2 4221   1.240   0.382   9.834
 1229SOL     OW 4222   0.589   0.737   9.982
 1229SOL    HW1 4223   0.627   0.823   9.967
 1229SOL    HW2 4224   0.523   0.727   9.914
 1230SOL     OW 4225   1.749   0.384  10.953
 1230SOL    HW1 4226   1.732   0.390  10.859
 1230SOL    HW2 4227   1.692   0.313  10.983
 1231SOL     OW 4228   1.747   0.934  10.822
 1231SOL    HW1 4229   1.738   1.028  10.834
 1231SOL    HW2 4230   1.730   0.920  10.728
 1232SOL     OW 4231   0.864   1.365   9.351
 1232SOL    HW1 4232   0.826   1.393   9.434
 1232SOL    HW2 4233   0.879   1.446   9.303
 1233SOL     OW 4234   0.664   1.785  10.250
 1233SOL    HW1 4235   0.644   1.877  10.230
 1233SOL    HW2 4236   0.759   1.779  10.243
 1234SOL     OW 4237   0.869   0.969  10.163
 1234SOL    HW1 4238   0.920   0.897  10.200
 1234SOL    HW2 4239   0.831   1.014  10.238
 1235SOL     OW 4240   1.077   0.989   9.399
 1235SOL    HW1 4241   1.056   1.041   9.321
 1235SOL    HW2 4242   1.151   0.935   9.372
 1236SOL     OW 4243   1.844   1.542  10.149
 1236SOL    HW1 4244   1.763   1.542  10.099
 1236SOL    HW2 4245   1.827   1.483  10.223
 1237SOL     OW 4246   0.228   1.304  11.167
 1237SOL    HW1 4247   0.154   1.250  11.138
 1237SOL    HW2 4248   0.214   1.317  11.260
 1238SOL     OW 4249   0.127   1.284  10.034
 1238SOL    HW1 4250   0.141   1.232  10.113
 1238SOL    HW2 4251   0.106   1.221   9.966
 1239SOL     OW 4252   0.683   1.407  10.940
 1239SOL    HW1 4253   0.603   1.364  10.972
 1239SOL    HW2 4254   0.679   1.495  10.978
 1240SOL     OW 4255   1.810   0.183  10.547
 1240SOL    HW1 4256   1.813   0.089  10.563
 1240SOL    HW2 4257   1.826   0.192  10.453
 1241SOL     OW 4258   0.446   0.438   9.842
 1241SOL    HW1 4259   0.468   0.362   9.788
 1241SOL    HW2 4260   0.390   0.403   9.911
 1242SOL     OW 4261   1.700   1.469  10.394
 1242SOL    HW1 4262   1.617   1.454  10.349
 1242SOL    HW2 4263   1.703   1.404  10.463
 1243SOL     OW 4264   0.335   0.559  10.604
 1243SOL    HW1 4265   0.390   0.503  10.657
 1243SOL    HW2 4266   0.350   0.530  10.514
 1244SOL     OW 4267   0.831   1.579   9.985
 1244SOL    HW1 4268   0.812   1.645   9.917
 1244SOL    HW2 4269   0.755   1.521   9.982
 1245SOL     OW 4270   1.460   0.255  10.420
 1245SOL    HW1 4271   1.479   0.169  10.456
 1245SOL    HW2 4272   1.405   0.298  10.486
 1246SOL     OW 4273   1.002   0.026  10.456
 1246SOL    HW1 4274   0.919   3.998  10.415
 1246SOL    HW2 4275   1.053   3.946  10.464
 1247SOL     OW 4276   0.773   1.333   9.630
 1247SOL    HW1 4277   0.746   1.242   9.637
 1247SOL    HW2 4278   0.855   1.338   9.679
 1248SOL     OW 4279   0.621   1.557  10.597
 1248SOL    HW1 4280   0.622   1.639  10.646
 1248SOL    HW2 4281   0.709   1.550  10.560
 1249SOL     OW 4282   1.308   0.073   9.477
 1249SOL    HW1 4283   1.318   3.989   9.432
 1249SOL    HW2 4284   1.224   0.067   9.521
 1250SOL     OW 4285   1.279   0.456   9.994
 1250SOL    HW1 4286   1.233   0.540   9.988
 1250SOL    HW2 4287   1.282   0.437  10.088
 1251SOL     OW 4288   1.587   0.209  10.178
 1251SOL    HW1 4289   1.538   0.235  10.256
 1251SOL    HW2 4290   1.588   0.288  10.124
 1252SOL     OW 4291   0.047   1.047   9.553
 1252SOL    HW1 4292   0.142   1.031   9.545
 1252SOL    HW2 4293   0.011   0.961   9.576
 1253SOL     OW 4294   0.888   1.659   9.648
 1253SOL    HW1 4295   0.814   1.643   9.591
 1253SOL    HW2 4296   0.861   1.731   9.704
 1254SOL     OW 4297   0.232   0.630  11.287
 1254SOL    HW1 4298   0.139   0.634  11.309
 1254SOL    HW2 4299   0.235   0.600  11.197
 1255SOL     OW 4300   0.223   0.290  12.154
 1255SOL    HW1 4301   0.246   0.250  12.238
 1255SOL    HW2 4302   0.128   0.282  12.148
 1256SOL     OW 4303   0.019   0.384  11.808
 1256SOL    HW1 4304   3.928   0.400  11.832
 1256SOL    HW2 4305   0.025   0.289  11.795
 1257SOL     OW 4306   0.583   1.293  12.369
 1257SOL    HW1 4307   0.497   1.294  12.327
 1257SOL    HW2 4308   0.596   1.382  12.399
 1258SOL     OW 4309   1.571   1.514  11.881
 1258SOL    HW1 4310   1.528   1.494  11.964
 1258SOL    HW2 4311   1.499   1.520  11.817
 1259SOL     OW 4312   1.134   0.699  11.867
 1259SOL    HW1 4313   1.181   0.781  11.855
 1259SOL    HW2 4314   1.085   0.710  11.949
 1260SOL     OW 4315   1.772   0.620  11.395
 1260SOL    HW1 4316   1.748   0.612  11.303
 1260SOL    HW2 4317   1.753   0.533  11.432
 1261SOL     OW 4318   0.750   1.137  12.217
 1261SOL    HW1 4319   0.688   1.174  12.280
 1261SOL    HW2 4320   0.787   1.213  12.172
 1262SOL     OW 4321   0.874   0.767  12.996
 1262SOL    HW1 4322   0.863   0.839  13.059
 1262SOL    HW2 4323   0.895   0.810  12.914
 1263SOL     OW 4324   0.685   1.001  11.817
 1263SOL    HW1 4325   0.751   0.990  11.885
 1263SOL    HW2 4326   0.616   1.053  11.858
 1264SOL     OW 4327   0.713   1.149  12.990
 1264SOL    HW1 4328   0.761   1.226  13.020
 1264SOL    HW2 4329   0.633   1.184  12.951
 1265SOL     OW 4330   0.352   1.399  12.251
 1265SOL    HW1 4331   0.271   1.377  12.205
 1265SOL    HW2 4332   0.398   1.458  12.190
 1266SOL     OW 4333   1.460   1.502  12.532
 1266SOL    HW1 4334   1.514   1.581  12.541
 1266SOL    HW2 4335   1.393   1.512  12.599
 1267SOL     OW 4336   0.459   0.409  12.666
 1267SOL    HW1 4337   0.541   0.360  12.666
 1267SOL    HW2 4338   0.391   0.341  12.670
 1268SOL     OW 4339   1.612   0.451  11.907
 1268SOL    HW1 4340   1.544   0.482  11.847
 1268SOL    HW2 4341   1.625   0.523  11.968
 1269SOL     OW 4342   0.219   1.720  11.628
 1269SOL    HW1 4343   0.240   1.794  11.686
 1269SOL    HW2 4344   0.296   1.712  11.571
 1270SOL     OW 4345   1.138   1.342  12.865
 1270SOL    HW1 4346   1.178   1.336  12.952
 1270SOL    HW2 4347   1.085   1.262  12.858
 1271SOL     OW 4348   0.252   1.452  11.711
 1271SOL    HW1 4349   0.216   1.540  11.697
 1271SOL    HW2 4350   0.186   1.407  11.763
 1272SOL     OW 4351   0.249   1.065  12.056
 1272SOL    HW1 4352   0.269   0.979  12.094
 1272SOL    HW2 4353   0.195   1.109  12.122
 1273SOL     OW 4354   0.608   1.794  12.597
 1273SOL    HW1 4355   0.526   1.776  12.642
 1273SOL    HW2 4356   0.632   1.882  12.624
 1274SOL     OW 4357   0.574   0.987  11.312
 1274SOL    HW1 4358   0.624   1.031  11.243
 1274SOL    HW2 4359   0.615   1.017  11.393
 1275SOL     OW 4360   1.583   0.142  12.627
 1275SOL    HW1 4361   1.614   0.214  12.573
 1275SOL    HW2 4362   1.546   0.184  12.705
 1276SOL     OW 4363   0.142   0.653  11.741
 1276SOL    HW1 4364   0.100   0.567  11.746
 1276SOL    HW2 4365   0.103   0.703  11.813
 1277SOL     OW 4366   0.044   1.588  11.309
 1277SOL    HW1 4367   0.039   1.497  11.337
 1277SOL    HW2 4368   3.958   1.624  11.331
 1278SOL     OW 4369   1.687   0.917  11.816
 1278SOL    HW1 4370   1.771   0.876  11.796
 1278SOL    HW2 4371   1.667   0.970  11.738
 1279SOL     OW 4372   1.650   1.104  11.602
 1279SOL    HW1 4373   1.736   1.106  11.561
 1279SOL    HW2 4374   1.656   1.167  11.674
 1280SOL     OW 4375   0.144   0.756  12.761
 1280SOL    HW1 4376   0.240   0.752  12.754
 1280SOL    HW2 4377   0.126   0.842  12.797
 1281SOL     OW 4378   0.613   1.388  11.909
 1281SOL    HW1 4379   0.568   1.304  11.917
 1281SOL    HW2 4380   0.598   1.415  11.818
 1282SOL     OW 4381   1.286   1.236  12.593
 1282SOL    HW1 4382   1.317   1.168  12.533
 1282SOL    HW2 4383   1.345   1.231  12.668
 1283SOL     OW 4384   0.822   0.005  11.689
 1283SOL    HW1 4385   0.867   0.086  11.664
 1283SOL    HW2 4386   0.729   0.028  11.688
 1284SOL     OW 4387   0.183   0.948  12.452
 1284SOL    HW1 4388   0.272   0.913  12.440
 1284SOL    HW2 4389   0.132   0.908  12.382
 1285SOL     OW 4390   1.531   0.998  11.373
 1285SOL    HW1 4391   1.462   0.941  11.406
 1285SOL    HW2 4392   1.574   1.032  11.451
 1286SOL     OW 4393   1.184   1.811  12.797
 1286SOL    HW1 4394   1.191   1.872  12.724
 1286SOL    HW2 4395   1.202   1.725  12.759
 1287SOL     OW 4396   0.346   0.249  13.018
 1287SOL    HW1 4397   0.389   0.332  12.998
 1287SOL    HW2 4398   0.255   0.272  13.034
 1288SOL     OW 4399   1.464   1.419  12.118
 1288SOL    HW1 4400   1.398   1.435  12.186
 1288SOL    HW2 4401   1.451   1.328  12.093
 1289SOL     OW 4402   1.659   1.741  11.727
 1289SOL    HW1 4403   1.631   1.702  11.644
 1289SOL    HW2 4404   1.645   1.673  11.792
 1290SOL     OW 4405   0.595   0.716  11.440
 1290SOL    HW1 4406   0.600   0.800  11.396
 1290SOL    HW2 4407   0.533   0.729  11.511
 1291SOL     OW 4408   1.274   0.372  12.113
 1291SOL    HW1 4409   1.187   0.333  12.121
 1291SOL    HW2 4410   1.332   0.311  12.159
 1292SOL     OW 4411   1.576   1.671  11.467
 1292SOL    HW1 4412   1.667   1.688  11.443
 1292SOL    HW2 4413   1.533   1.650  11.385
 1293SOL     OW 4414   0.794   0.615  12.624
 1293SOL    HW1 4415   0.765   0.588  12.712
 1293SOL    HW2 4416   0.758   0.548  12.566
 1294SOL     OW 4417   1.392   0.475  12.850
 1294SOL    HW1 4418   1.399   0.521  12.934
 1294SOL    HW2 4419   1.448   0.399  12.859
 1295SOL     OW 4420   0.950   0.886  12.758
 1295SOL    HW1 4421   1.006   0.818  12.719
 1295SOL    HW2 4422   0.901   0.922  12.683
 1296SOL     OW 4423   0.994   0.402  12.407
 1296SOL    HW1 4424   0.907   0.421  12.444
 1296SOL    HW2 4425   0.977   0.375  12.317
 1297SOL     OW 4426   1.053   0.700  11.597
 1297SOL    HW1 4427   1.071   0.693  11.690
 1297SOL    HW2 4428   0.970   0.654  11.584
 1298SOL     OW 4429   0.082   0.831  11.962
 1298SOL    HW1 4430   0.152   0.796  12.017
 1298SOL    HW2 4431   0.107   0.922  11.946
 1299SOL     OW 4432   0.130   1.867  12.752
 1299SOL    HW1 4433   0.138   1.831  12.841
 1299SOL    HW2 4434   0.038   1.856  12.730
 1300SOL     OW 4435   0.895   0.352  11.371
 1300SOL    HW1 4436   0.937   0.413  11.310
 1300SOL    HW2 4437   0.891   0.269  11.323
 1301SOL     OW 4438   1.706   0.576  13.001
 1301SOL    HW1 4439   1.669   0.649  12.951
 1301SOL    HW2 4440   1.730   0.512  12.934
 1302SOL     OW 4441   1.380   1.141  11.710
 1302SOL    HW1 4442   1.460   1.131  11.659
 1302SOL    HW2 4443   1.327   1.203  11.661
 1303SOL     OW 4444   0.563   0.195  12.052
 1303SOL    HW1 4445   0.567   0.220  12.144
 1303SOL    HW2 4446   0.547   0.277  12.005
 1304SOL     OW 4447   1.000   1.443  11.641
 1304SOL    HW1 4448   0.969   1.519  11.591
 1304SOL    HW2 4449   0.978   1.464  11.731
 1305SOL     OW 4450   0.364   1.825  12.045
 1305SOL    HW1 4451   0.426   1.752  12.055
 1305SOL    HW2 4452   0.417   1.903  12.060
 1306SOL     OW 4453   1.800   1.048  12.046
 1306SOL    HW1 4454   1.747   1.034  11.967
 1306SOL    HW2 4455   1.736   1.057  12.116
 1307SOL     OW 4456   1.227   1.540  12.685
 1307SOL    HW1 4457   1.215   1.467  12.746
 1307SOL    HW2 4458   1.161   1.525  12.617
 1308SOL     OW 4459   0.310   0.952  11.414
 1308SOL    HW1 4460   0.394   0.974  11.372
 1308SOL    HW2 4461   0.298   0.859  11.397
 1309SOL     OW 4462   1.480   0.751  11.900
 1309SOL    HW1 4463   1.477   0.710  11.987
 1309SOL    HW2 4464   1.558   0.806  11.903
 1310SOL     OW 4465   0.470   1.261  12.909
 1310SOL    HW1 4466   0.445   1.269  12.818
 1310SOL    HW2 4467   0.388   1.264  12.958
 1311SOL     OW 4468   1.124   1.776  11.402
 1311SOL    HW1 4469   1.048   1.738  11.445
 1311SOL    HW2 4470   1.147   1.713  11.333
 1312SOL     OW 4471   0.202   0.293  12.673
 1312SOL    HW1 4472   0.108   0.312  12.673
 1312SOL    HW2 4473   0.211   0.216  12.730
 1313SOL     OW 4474   1.628   1.382  11.260
 1313SOL    HW1 4475   1.585   1.466  11.244
 1313SOL    HW2 4476   1.560   1.317  11.240
 1314SOL     OW 4477   0.466   1.739  11.487
 1314SOL    HW1 4478   0.510   1.795  11.551
 1314SOL    HW2 4479   0.537   1.701  11.435
 1315SOL     OW 4480   1.444   0.171  11.578
 1315SOL    HW1 4481   1.393   0.103  11.534
 1315SOL    HW2 4482   1.511   0.123  11.627
 1316SOL     OW 4483   0.254   1.790  12.402
 1316SOL    HW1 4484   0.298   1.723  12.454
 1316SOL    HW2 4485   0.252   1.755  12.313
 1317SOL     OW 4486   0.939   1.699  12.069
 1317SOL    HW1 4487   1.019   1.651  12.089
 1317SOL    HW2 4488   0.897   1.649  11.999
 1318SOL     OW 4489   0.399   0.695  11.642
 1318SOL    HW1 4490   0.424   0.603  11.658
 1318SOL    HW2 4491   0.307   0.699  11.668
 1319SOL     OW 4492   1.529   0.227  12.898
 1319SOL    HW1 4493   1.523   0.252  12.990
 1319SOL    HW2 4494   1.516   0.132  12.898
 1320SOL     OW 4495   0.646   0.127  11.276
 1320SOL    HW1 4496   0.666   0.042  11.314
 1320SOL    HW2 4497   0.586   0.107  11.204
 1321SOL     OW 4498   0.774   0.286  12.942
 1321SOL    HW1 4499   0.853   0.231  12.942
 1321SOL    HW2 4500   0.721   0.252  13.014
 1322SOL     OW 4501   0.875   1.522  12.366
 1322SOL    HW1 4502   0.859   1.485  12.280
 1322SOL    HW2 4503   0.945   1.468  12.403
 1323SOL     OW 4504   1.338   0.588  12.603
 1323SOL    HW1 4505   1.369   0.559  12.689
 1323SOL    HW2 4506   1.374   0.676  12.593
 1324SOL     OW 4507   0.817   1.390  12.116
 1324SOL    HW1 4508   0.903   1.379  12.074
 1324SOL    HW2 4509   0.755   1.395  12.043
 1325SOL     OW 4510   0.930   0.513  12.071
 1325SOL    HW1 4511   0.906   0.504  11.979
 1325SOL    HW2 4512   0.955   0.424  12.097
 1326SOL     OW 4513   0.547   0.055  11.659
 1326SOL    HW1 4514   0.473   0.063  11.720
 1326SOL    HW2 4515   0.548   0.139  11.612
 1327SOL     OW 4516   1.428   1.200  11.212
 1327SOL    HW1 4517   1.457   1.124  11.263
 1327SOL    HW2 4518   1.342   1.222  11.248
 1328SOL     OW 4519   0.352   0.032  11.372
 1328SOL    HW1 4520   0.357   0.087  11.294
 1328SOL    HW2 4521   0.439   0.039  11.411
 1329SOL     OW 4522   0.944   0.251  11.631
 1329SOL    HW1 4523   0.919   0.290  11.547
 1329SOL    HW2 4524   1.040   0.257  11.631
 1330SOL     OW 4525   1.079   0.685  12.629
 1330SOL    HW1 4526   1.011   0.618  12.636
 1330SOL    HW2 4527   1.161   0.635  12.624
 1331SOL     OW 4528   1.219   1.572  11.968
 1331SOL    HW1 4529   1.234   1.638  11.899
 1331SOL    HW2 4530   1.290   1.586  12.030
 1332SOL     OW 4531   0.467   1.152  11.905
 1332SOL    HW1 4532   0.396   1.126  11.964
 1332SOL    HW2 4533   0.431   1.136  11.818
 1333SOL     OW 4534   1.261   1.792  11.782
 1333SOL    HW1 4535   1.308   1.855  11.728
 1333SOL    HW2 4536   1.195   1.843  11.828
 1334SOL     OW 4537   1.021   0.540  11.203
 1334SOL    HW1 4538   0.978   0.623  11.183
 1334SOL    HW2 4539   1.085   0.561  11.271
 1335SOL     OW 4540   0.082   0.575  12.564
 1335SOL    HW1 4541   0.171   0.557  12.535
 1335SOL    HW2 4542   0.092   0.646  12.628
 1336SOL     OW 4543   0.572   0.231  12.331
 1336SOL    HW1 4544   0.593   0.138  12.339
 1336SOL    HW2 4545   0.481   0.237  12.360
 1337SOL     OW 4546   0.871   0.461  11.810
 1337SOL    HW1 4547   0.821   0.514  11.748
 1337SOL    HW2 4548   0.892   0.381  11.761
 1338SOL     OW 4549   0.997   0.038  11.954
 1338SOL    HW1 4550   0.958   0.069  11.872
 1338SOL    HW2 4551   1.009   3.944  11.940
 1339SOL     OW 4552   1.439   1.160  12.029
 1339SOL    HW1 4553   1.368   1.096  12.027
 1339SOL    HW2 4554   1.466   1.170  11.938
 1340SOL     OW 4555   1.464   0.609  12.143
 1340SOL    HW1 4556   1.408   0.531  12.148
 1340SOL    HW2 4557   1.523   0.601  12.218
 1341SOL     OW 4558   1.842   0.818  11.561
 1341SOL    HW1 4559   1.900   0.767  11.617
 1341SOL    HW2 4560   1.815   0.758  11.492
 1342SOL     OW 4561   0.487   1.423  11.330
 1342SOL    HW1 4562   0.411   1.392  11.380
 1342SOL    HW2 4563   0.475   1.386  11.243
 1343SOL     OW 4564   1.673   1.263  11.816
 1343SOL    HW1 4565   1.767   1.260  11.831
 1343SOL    HW2 4566   1.648   1.353  11.838
 1344SOL     OW 4567   1.395   0.578  11.240
 1344SOL    HW1 4568   1.332   0.557  11.309
 1344SOL    HW2 4569   1.481   0.558  11.279
 1345SOL     OW 4570   0.556   0.270  11.489
 1345SOL    HW1 4571   0.606   0.231  11.418
 1345SOL    HW2 4572   0.528   0.355  11.454
 1346SOL     OW 4573   1.749   1.241  12.738
 1346SOL    HW1 4574   1.836   1.203  12.729
 1346SOL    HW2 4575   1.765   1.332  12.766
 1347SOL     OW 4576   1.055   1.353  12.504
 1347SOL    HW1 4577   0.979   1.322  12.554
 1347SOL    HW2 4578   1.130   1.312  12.546
 1348SOL     OW 4579   1.609   1.626  12.828
 1348SOL    HW1 4580   1.602   1.663  12.740
 1348SOL    HW2 4581   1.692   1.579  12.827
 1349SOL     OW 4582   1.134   1.209  12.275
 1349SOL    HW1 4583   1.074   1.246  12.339
 1349SOL    HW2 4584   1.104   1.243  12.191
 1350SOL     OW 4585   1.623   1.095  12.248
 1350SOL    HW1 4586   1.616   1.158  12.321
 1350SOL    HW2 4587   1.547   1.115  12.193
 1351SOL     OW 4588   0.912   0.119  12.572
 1351SOL    HW1 4589   0.932   0.089  12.483
 1351SOL    HW2 4590   0.993   0.159  12.603
 1352SOL     OW 4591   0.984   1.115  12.896
 1352SOL    HW1 4592   0.893   1.132  12.919
 1352SOL    HW2 4593   0.981   1.037  12.841
 1353SOL     OW 4594   0.708   1.062  11.543
 1353SOL    HW1 4595   0.694   1.044  11.635
 1353SOL    HW2 4596   0.784   1.009  11.519
 1354SOL     OW 4597   0.423   0.818  12.425
 1354SOL    HW1 4598   0.492   0.825  12.492
 1354SOL    HW2 4599   0.389   0.729  12.435
 1355SOL     OW 4600   1.265   0.374  12.450
 1355SOL    HW1 4601   1.299   0.453  12.494
 1355SOL    HW2 4602   1.178   0.399  12.421
 1356SOL     OW 4603   0.065   1.579  12.517
 1356SOL    HW1 4604   0.071   1.625  12.433
 1356SOL    HW2 4605   0.156   1.570  12.546
 1357SOL     OW 4606   0.368   1.104  11.653
 1357SOL    HW1 4607   0.362   1.183  11.599
 1357SOL    HW2 4608   0.367   1.032  11.589
 1358SOL     OW 4609   0.554   0.532  12.029
 1358SOL    HW1 4610   0.567   0.591  11.955
 1358SOL    HW2 4611   0.620   0.558  12.093
 1359SOL     OW 4612   1.247   1.349  11.562
 1359SOL    HW1 4613   1.303   1.420  11.595
 1359SOL    HW2 4614   1.160   1.370  11.595
 1360SOL     OW 4615   1.288   1.461  12.321
 1360SOL    HW1 4616   1.344   1.465  12.398
 1360SOL    HW2 4617   1.233   1.384  12.336
 1361SOL     OW 4618   1.573   0.635  11.661
 1361SOL    HW1 4619   1.529   0.688  11.727
 1361SOL    HW2 4620   1.620   0.698  11.607
 1362SOL     OW 4621   0.345   1.528  12.489
 1362SOL    HW1 4622   0.336   1.477  12.409
 1362SOL    HW2 4623   0.440   1.542  12.497
 1363SOL     OW 4624   0.420   0.736  12.773
 1363SOL    HW1 4625   0.483   0.781  12.717
 1363SOL    HW2 4626   0.456   0.649  12.785
 1364SOL     OW 4627   1.606   0.782  12.858
 1364SOL    HW1 4628   1.520   0.824  12.851
 1364SOL    HW2 4629   1.658   0.823  12.789
 1365SOL     OW 4630   1.007   0.141  12.953
 1365SOL    HW1 4631   1.065   0.209  12.920
 1365SOL    HW2 4632   0.999   0.079  12.880
 1366SOL     OW 4633   0.484   0.037  12.936
 1366SOL    HW1 4634   0.490   0.049  12.841
 1366SOL    HW2 4635   0.422   0.103  12.965
 1367SOL     OW 4636   0.586   0.876  12.204
 1367SOL    HW1 4637   0.619   0.965  12.207
 1367SOL    HW2 4638   0.529   0.868  12.281
 1368SOL     OW 4639   1.349   0.858  12.195
 1368SOL    HW1 4640   1.263   0.844  12.155
 1368SOL    HW2 4641   1.394   0.774  12.187
 1369SOL     OW 4642   1.198   0.538  11.427
 1369SOL    HW1 4643   1.207   0.459  11.480
 1369SOL    HW2 4644   1.156   0.601  11.485
 1370SOL     OW 4645   0.310   0.211  12.411
 1370SOL    HW1 4646   0.267   0.248  12.488
 1370SOL    HW2 4647   0.296   0.117  12.418
 1371SOL     OW 4648   0.063   1.306  12.452
 1371SOL    HW1 4649   0.092   1.263  12.532
 1371SOL    HW2 4650   0.053   1.398  12.477
 1372SOL     OW 4651   0.723   0.633  12.223
 1372SOL    HW1 4652   0.799   0.620  12.165
 1372SOL    HW2 4653   0.693   0.722  12.203
 1373SOL     OW 4654   1.739   0.958  13.031
 1373SOL    HW1 4655   1.694   0.894  12.976
 1373SOL    HW2 4656   1.677   0.976  13.102
 1374SOL     OW 4657   0.333   0.054  11.830
 1374SOL    HW1 4658   0.304   0.145  11.831
 1374SOL    HW2 4659   0.298   0.017  11.911
 1375SOL     OW 4660   1.609   0.394  11.550
 1375SOL    HW1 4661   1.564   0.326  11.600
 1375SOL    HW2 4662   1.589   0.476  11.597
 1376SOL     OW 4663   1.031   0.759  12.130
 1376SOL    HW1 4664   1.022   0.776  12.224
 1376SOL    HW2 4665   1.003   0.668  12.119
 1377SOL     OW 4666   0.981   1.566  12.892
 1377SOL    HW1 4667   0.966   1.610  12.809
 1377SOL    HW2 4668   1.025   1.484  12.868
 1378SOL     OW 4669   1.853   1.501  12.775
 1378SOL    HW1 4670   1.870   1.531  12.686
 1378SOL    HW2 4671   1.937   1.511  12.820
 1379SOL     OW 4672   0.355   0.921  12.970
 1379SOL    HW1 4673   0.433   0.942  13.022
 1379SOL    HW2 4674   0.384   0.854  12.910
 1380SOL     OW 4675   1.502   0.273  11.305
 1380SOL    HW1 4676   1.430   0.212  11.317
 1380SOL    HW2 4677   1.515   0.312  11.392
 1381SOL     OW 4678   1.287   0.827  11.199
 1381SOL    HW1 4679   1.329   0.741  11.203
 1381SOL    HW2 4680   1.319   0.866  11.118
 1382SOL     OW 4681   1.068   1.338  12.029
 1382SOL    HW1 4682   1.073   1.266  11.966
 1382SOL    HW2 4683   1.127   1.405  11.994
 1383SOL     OW 4684   0.313   0.802  12.122
 1383SOL    HW1 4685   0.407   0.818  12.116
 1383SOL    HW2 4686   0.306   0.712  12.154
 1384SOL     OW 4687   0.339   0.529  12.188
 1384SOL    HW1 4688   0.297   0.445  12.170
 1384SOL    HW2 4689   0.414   0.531  12.129
 1385SOL     OW 4690   1.134   0.379  12.872
 1385SOL    HW1 4691   1.085   0.434  12.933
 1385SOL    HW2 4692   1.220   0.420  12.867
 1386SOL     OW 4693   1.151   0.225  12.654
 1386SOL    HW1 4694   1.142   0.279  12.733
 1386SOL    HW2 4695   1.179   0.287  12.586
 1387SOL     OW 4696   0.001   1.315  11.355
 1387SOL    HW1 4697   3.907   1.332  11.357
 1387SOL    HW2 4698   0.010   1.221  11.373
 1388SOL     OW 4699   0.079   1.799  12.059
 1388SOL    HW1 4700   0.088   1.704  12.060
 1388SOL    HW2 4701   0.169   1.832  12.064
 1389SOL     OW 4702   0.497   1.571  12.081
 1389SOL    HW1 4703   0.566   1.632  12.108
 1389SOL    HW2 4704   0.540   1.509  12.024
 1390SOL     OW 4705   0.974   0.787  12.395
 1390SOL    HW1 4706   1.032   0.769  12.469
 1390SOL    HW2 4707   0.891   0.748  12.419
 1391SOL     OW 4708   0.034   0.579  12.284
 1391SOL    HW1 4709   0.092   0.522  12.233
 1391SOL    HW2 4710   0.061   0.565  12.375
 1392SOL     OW 4711   0.212   0.515  12.894
 1392SOL    HW1 4712   0.256   0.473  12.820
 1392SOL    HW2 4713   0.167   0.591  12.856
 1393SOL     OW 4714   1.379   0.935  12.828
 1393SOL    HW1 4715   1.401   1.028  12.824
 1393SOL    HW2 4716   1.376   0.907  12.736
 1394SOL     OW 4717   0.819   0.572  11.536
 1394SOL    HW1 4718   0.826   0.496  11.478
 1394SOL    HW2 4719   0.744   0.621  11.503
 1395SOL     OW 4720   1.639   0.602  12.353
 1395SOL    HW1 4721   1.630   0.542  12.426
 1395SOL    HW2 4722   1.727   0.586  12.319
 1396SOL     OW 4723   0.301   1.544  12.894
 1396SOL    HW1 4724   0.254   1.613  12.941
 1396SOL    HW2 4725   0.272   1.462  12.936
 1397SOL     OW 4726   0.715   0.451  12.425
 1397SOL    HW1 4727   0.663   0.375  12.401
 1397SOL    HW2 4728   0.703   0.512  12.351
 1398SOL     OW 4729   0.922   1.679  12.643
 1398SOL    HW1 4730   0.898   1.640  12.559
 1398SOL    HW2 4731   0.917   1.773  12.628
 1399SOL     OW 4732   0.451   0.492  11.371
 1399SOL    HW1 4733   0.515   0.561  11.388
 1399SOL    HW2 4734   0.372   0.539  11.346
 1400SOL     OW 4735   0.154   1.134  12.648
 1400SOL    HW1 4736   0.155   1.084  12.729
 1400SOL    HW2 4737   0.169   1.069  12.579
 1401SOL     OW 4738   1.321   1.044  12.392
 1401SOL    HW1 4739   1.343   0.980  12.324
 1401SOL    HW2 4740   1.254   1.100  12.353
 1402SOL     OW 4741   1.316   0.856  11.476
 1402SOL    HW1 4742   1.241   0.827  11.528
 1402SOL    HW2 4743   1.288   0.844  11.385
 1403SOL     OW 4744   1.742   1.729  12.309
 1403SOL    HW1 4745   1.819   1.752  12.256
 1403SOL    HW2 4746   1.727   1.636  12.291
 1404SOL     OW 4747   1.243   1.734  12.277
 1404SOL    HW1 4748   1.327   1.757  12.236
 1404SOL    HW2 4749   1.252   1.641  12.298
 1405SOL     OW 4750   0.079   1.217  12.199
 1405SOL    HW1 4751   0.085   1.242  12.291
 1405SOL    HW2 4752   3.986   1.228  12.177
 1406SOL     OW 4753   0.680   1.669  12.909
 1406SOL    HW1 4754   0.620   1.743  12.900
 1406SOL    HW2 4755   0.748   1.685  12.844
 1407SOL     OW 4756   1.716   0.123  11.662
 1407SOL    HW1 4757   1.793   0.134  11.607
 1407SOL    HW2 4758   1.706   0.028  11.670
 1408SOL     OW 4759   1.392   1.568  11.661
 1408SOL    HW1 4760   1.446   1.603  11.590
 1408SOL    HW2 4761   1.341   1.644  11.690
 1409SOL     OW 4762   0.176   1.761  13.004
 1409SOL    HW1 4763   0.120   1.709  13.061
 1409SOL    HW2 4764   0.218   1.825  13.062
 1410SOL     OW 4765   1.277   0.929  11.843
 1410SOL    HW1 4766   1.351   0.870  11.856
 1410SOL    HW2 4767   1.312   1.000  11.789
 1411SOL     OW 4768   0.806   1.275  12.598
 1411SOL    HW1 4769   0.778   1.317  12.679
 1411SOL    HW2 4770   0.735   1.290  12.536
 1412SOL     OW 4771   0.670   1.624  11.328
 1412SOL    HW1 4772   0.682   1.637  11.233
 1412SOL    HW2 4773   0.614   1.547  11.334
 1413SOL     OW 4774   1.618   1.730  12.562
 1413SOL    HW1 4775   1.663   1.734  12.478
 1413SOL    HW2 4776   1.606   1.822  12.587
 1414SOL     OW 4777   1.839   0.179  12.137
 1414SOL    HW1 4778   1.872   0.116  12.072
 1414SOL    HW2 4779   1.750   0.197  12.108
 1415SOL     OW 4780   0.276   0.322  11.886
 1415SOL    HW1 4781   0.191   0.356  11.859
 1415SOL    HW2 4782   0.267   0.307  11.980
 1416SOL     OW 4783   1.205   1.602  11.204
 1416SOL    HW1 4784   1.195   1.511  11.231
 1416SOL    HW2 4785   1.139   1.615  11.136
 1417SOL     OW 4786   0.823   1.006  12.547
 1417SOL    HW1 4787   0.866   0.999  12.461
 1417SOL    HW2 4788   0.821   1.099  12.566
 1418SOL     OW 4789   0.915   0.911  11.463
 1418SOL    HW1 4790   0.976   0.944  11.396
 1418SOL    HW2 4791   0.965   0.843  11.509
 1419SOL     OW 4792   1.484   1.623  11.211
 1419SOL    HW1 4793   1.390   1.616  11.195
 1419SOL    HW2 4794   1.523   1.631  11.125
 1420SOL     OW 4795   0.374   1.302  12.664
 1420SOL    HW1 4796   0.359   1.382  12.614
 1420SOL    HW2 4797   0.297   1.248  12.646
 1421SOL     OW 4798   1.606   1.282  12.452
 1421SOL    HW1 4799   1.669   1.269  12.524
 1421SOL    HW2 4800   1.548   1.351  12.484
 1422SOL     OW 4801   1.059   1.110  11.882
 1422SOL    HW1 4802   0.987   1.060  11.919
 1422SOL    HW2 4803   1.123   1.044  11.855
 1423SOL     OW 4804   1.015   0.250  12.143
 1423SOL    HW1 4805   1.005   0.200  12.062
 1423SOL    HW2 4806   1.012   0.185  12.213
 1424SOL     OW 4807   0.607   1.488  11.654
 1424SOL    HW1 4808   0.655   1.439  11.587
 1424SOL    HW2 4809   0.530   1.523  11.608
 1425SOL     OW 4810   1.721   0.395  12.543
 1425SOL    HW1 4811   1.794   0.456  12.548
 1425SOL    HW2 4812   1.754   0.323  12.489
 1426SOL     OW 4813   0.255   1.341  11.466
 1426SOL    HW1 4814   0.161   1.345  11.448
 1426SOL    HW2 4815   0.265   1.381  11.552
 1427SOL     OW 4816   0.109   0.998  12.890
 1427SOL    HW1 4817   0.050   0.993  12.965
 1427SOL    HW2 4818   0.196   0.980  12.927
 1428SOL     OW 4819   0.694   0.258  12.675
 1428SOL    HW1 4820   0.762   0.204  12.634
 1428SOL    HW2 4821   0.723   0.266  12.766
 1429SOL     OW 4822   0.088   0.317  11.196
 1429SOL    HW1 4823   3.993   0.317  11.189
 1429SOL    HW2 4824   0.115   0.400  11.157
 1430SOL     OW 4825   1.425   0.856  12.569
 1430SOL    HW1 4826   1.376   0.918  12.515
 1430SOL    HW2 4827   1.514   0.859  12.534
 1431SOL     OW 4828   0.035   0.173  11.456
 1431SOL    HW1 4829   0.037   0.226  11.376
 1431SOL    HW2 4830   0.110   0.204  11.507
 1432SOL     OW 4831   1.178   1.335  11.290
 1432SOL    HW1 4832   1.087   1.305  11.291
 1432SOL    HW2 4833   1.204   1.336  11.382
 1433SOL     OW 4834   0.622   0.828  12.610
 1433SOL    HW1 4835   0.679   0.904  12.594
 1433SOL    HW2 4836   0.682   0.754  12.617
 1434SOL     OW 4837   1.489   1.790  12.159
 1434SOL    HW1 4838   1.511   1.857  12.095
 1434SOL    HW2 4839   1.573   1.768  12.201
 1435SOL     OW 4840   0.718   0.560  12.878
 1435SOL    HW1 4841   0.764   0.621  12.936
 1435SOL    HW2 4842   0.742   0.474  12.911
 1436SOL     OW 4843   1.473   1.195  12.801
 1436SOL    HW1 4844   1.462   1.210  12.895
 1436SOL    HW2 4845   1.566   1.214  12.785
 1437SOL     OW 4846   0.377   1.744  12.727
 1437SOL    HW1 4847   0.290   1.782  12.716
 1437SOL    HW2 4848   0.361   1.662  12.773
 1438SOL     OW 4849   1.665   0.880  12.428
 1438SOL    HW1 4850   1.661   0.795  12.384
 1438SOL    HW2 4851   1.655   0.943  12.357
 1439SOL     OW 4852   1.222   0.338  11.612
 1439SOL    HW1 4853   1.290   0.271  11.606
 1439SOL    HW2 4854   1.240   0.382  11.696
 1440SOL     OW 4855   0.589   0.737  11.844
 1440SOL    HW1 4856   0.627   0.823  11.829
 1440SOL    HW2 4857   0.523   0.727  11.776
 1441SOL     OW 4858   1.749   0.384  12.815
 1441SOL    HW1 4859   1.732   0.390  12.721
 1441SOL    HW2 4860   1.692   0.313  12.845
 1442SOL     OW 4861   1.748   0.934  12.683
 1442SOL    HW1 4862   1.738   1.028  12.696
 1442SOL    HW2 4863   1.730   0.920  12.590
 1443SOL     OW 4864   0.863   1.365  11.213
 1443SOL    HW1 4865   0.826   1.394  11.296
 1443SOL    HW2 4866   0.879   1.446  11.165
 1444SOL     OW 4867   0.664   1.785  12.112
 1444SOL    HW1 4868   0.644   1.877  12.092
 1444SOL    HW2 4869   0.759   1.779  12.105
 1445SOL     OW 4870   0.869   0.969  12.025
 1445SOL    HW1 4871   0.920   0.897  12.062
 1445SOL    HW2 4872   0.831   1.014  12.100
 1446SOL     OW 4873   1.077   0.989  11.261
 1446SOL    HW1 4874   1.056   1.041  11.183
 1446SOL    HW2 4875   1.151   0.935  11.234
 1447SOL     OW 4876   1.844   1.541  12.010
 1447SOL    HW1 4877   1.762   1.541  11.960
 1447SOL    HW2 4878   1.826   1.483  12.084
 1448SOL     OW 4879   0.229   1.304  13.029
 1448SOL    HW1 4880   0.153   1.252  13.001
 1448SOL    HW2 4881   0.216   1.317  13.122
 1449SOL     OW 4882   0.127   1.284  11.896
 1449SOL    HW1 4883   0.141   1.232  11.975
 1449SOL    HW2 4884   0.106   1.221  11.828
 1450SOL     OW 4885   0.683   1.407  12.803
 1450SOL    HW1 4886   0.603   1.364  12.834
 1450SOL    HW2 4887   0.680   1.495  12.840
 1451SOL     OW 4888   1.810   0.183  12.409
 1451SOL    HW1 4889   1.813   0.089  12.425
 1451SOL    HW2 4890   1.826   0.192  12.315
 1452SOL     OW 4891   0.446   0.438  11.703
 1452SOL    HW1 4892   0.468   0.362  11.650
 1452SOL    HW2 4893   0.390   0.403  11.773
 1453SOL     OW 4894   1.701   1.469  12.255
 1453SOL    HW1 4895   1.617   1.453  12.211
 1453SOL    HW2 4896   1.703   1.403  12.325
 1454SOL     OW 4897   0.335   0.559  12.466
 1454SOL    HW1 4898   0.391   0.503  12.519
 1454SOL    HW2 4899   0.350   0.530  12.376
 1455SOL     OW 4900   0.831   1.579  11.847
 1455SOL    HW1 4901   0.813   1.645  11.779
 1455SOL    HW2 4902   0.755   1.521  11.844
 1456SOL     OW 4903   1.460   0.256  12.282
 1456SOL    HW1 4904   1.479   0.169  12.318
 1456SOL    HW2 4905   1.405   0.298  12.348
 1457SOL     OW 4906   1.002   0.026  12.318
 1457SOL    HW1 4907   0.920   3.998  12.278
 1457SOL    HW2 4908   1.053   3.946  12.326
 1458SOL     OW 4909   0.773   1.333  11.492
 1458SOL    HW1 4910   0.746   1.242  11.499
 1458SOL    HW2 4911   0.855   1.338  11.541
 1459SOL     OW 4912   0.621   1.557  12.459
 1459SOL    HW1 4913   0.622   1.639  12.508
 1459SOL    HW2 4914   0.709   1.550  12.422
 1460SOL     OW 4915   1.308   0.073  11.338
 1460SOL    HW1 4916   1.318   3.989  11.294
 1460SOL    HW2 4917   1.224   0.067  11.383
 1461SOL     OW 4918   1.279   0.456  11.856
 1461SOL    HW1 4919   1.233   0.540  11.850
 1461SOL    HW2 4920   1.282   0.437  11.950
 1462SOL     OW 4921   1.587   0.209  12.040
 1462SOL    HW1 4922   1.538   0.235  12.118
 1462SOL    HW2 4923   1.588   0.288  11.986
 1463SOL     OW 4924   0.047   1.047  11.415
 1463SOL    HW1 4925   0.142   1.031  11.407
 1463SOL    HW2 4926   0.011   0.961  11.438
 1464SOL     OW 4927   0.888   1.659  11.510
 1464SOL    HW1 4928   0.813   1.643  11.453
 1464SOL    HW2 4929   0.861   1.731  11.566
 1465SOL     OW 4930   0.230   0.630  13.150
 1465SOL    HW1 4931   0.137   0.633  13.170
 1465SOL    HW2 4932   0.234   0.600  13.059
 1466SOL     OW 4933   0.285   0.254   0.141
 1466SOL    HW1 4934   0.337   0.324   0.182
 1466SOL    HW2 4935   0.207   0.299   0.109
 1467SOL     OW 4936   0.020   0.379  13.666
 1467SOL    HW1 4937   3.931   0.403  13.642
 1467SOL    HW2 4938   0.028   0.286  13.643
 1468SOL     OW 4939   1.519   1.495  13.732
 1468SOL    HW1 4940   1.468   1.420  13.762
 1468SOL    HW2 4941   1.477   1.522  13.651
 1469SOL     OW 4942   1.133   0.697  13.729
 1469SOL    HW1 4943   1.184   0.775  13.708
 1469SOL    HW2 4944   1.075   0.725  13.800
 1470SOL     OW 4945   1.776   0.617  13.254
 1470SOL    HW1 4946   1.749   0.612  13.163
 1470SOL    HW2 4947   1.758   0.530  13.289
 1471SOL     OW 4948   0.688   1.011  13.670
 1471SOL    HW1 4949   0.739   0.992  13.748
 1471SOL    HW2 4950   0.614   1.063  13.702
 1472SOL     OW 4951   1.613   0.452  13.755
 1472SOL    HW1 4952   1.528   0.472  13.717
 1472SOL    HW2 4953   1.643   0.535  13.792
 1473SOL     OW 4954   0.217   1.714  13.484
 1473SOL    HW1 4955   0.236   1.787  13.543
 1473SOL    HW2 4956   0.295   1.707  13.428
 1474SOL     OW 4957   0.251   1.446  13.571
 1474SOL    HW1 4958   0.222   1.536  13.560
 1474SOL    HW2 4959   0.187   1.407  13.631
 1475SOL     OW 4960   0.258   1.073   0.016
 1475SOL    HW1 4961   0.275   1.035   0.102
 1475SOL    HW2 4962   0.217   1.158   0.034
 1476SOL     OW 4963   0.574   0.987  13.172
 1476SOL    HW1 4964   0.623   1.031  13.102
 1476SOL    HW2 4965   0.614   1.018  13.253
 1477SOL     OW 4966   0.148   0.655  13.609
 1477SOL    HW1 4967   0.090   0.580  13.601
 1477SOL    HW2 4968   0.102   0.715  13.668
 1478SOL     OW 4969   0.044   1.589  13.171
 1478SOL    HW1 4970   0.039   1.498  13.199
 1478SOL    HW2 4971   3.960   1.627  13.197
 1479SOL     OW 4972   1.685   0.917  13.667
 1479SOL    HW1 4973   1.770   0.879  13.642
 1479SOL    HW2 4974   1.662   0.974  13.594
 1480SOL     OW 4975   1.650   1.104  13.459
 1480SOL    HW1 4976   1.736   1.104  13.418
 1480SOL    HW2 4977   1.656   1.170  13.529
 1481SOL     OW 4978   0.615   1.387  13.760
 1481SOL    HW1 4979   0.564   1.308  13.778
 1481SOL    HW2 4980   0.583   1.417  13.675
 1482SOL     OW 4981   0.823   0.006  13.549
 1482SOL    HW1 4982   0.866   0.087  13.523
 1482SOL    HW2 4983   0.730   0.026  13.545
 1483SOL     OW 4984   1.530   0.997  13.234
 1483SOL    HW1 4985   1.461   0.939  13.267
 1483SOL    HW2 4986   1.572   1.032  13.313
 1484SOL     OW 4987   1.656   1.738  13.592
 1484SOL    HW1 4988   1.630   1.702  13.508
 1484SOL    HW2 4989   1.655   1.662  13.651
 1485SOL     OW 4990   0.594   0.717  13.298
 1485SOL    HW1 4991   0.598   0.802  13.254
 1485SOL    HW2 4992   0.531   0.730  13.369
 1486SOL     OW 4993   1.236   0.341   0.052
 1486SOL    HW1 4994   1.147   0.329   0.085
 1486SOL    HW2 4995   1.290   0.290   0.111
 1487SOL     OW 4996   1.580   1.675  13.328
 1487SOL    HW1 4997   1.671   1.689  13.303
 1487SOL    HW2 4998   1.535   1.653  13.245
 1488SOL     OW 4999   1.051   0.697  13.458
 1488SOL    HW1 5000   1.067   0.684  13.552
 1488SOL    HW2 5001   0.968   0.652  13.441
 1489SOL     OW 5002   0.077   0.844  13.806
 1489SOL    HW1 5003   0.154   0.822  13.859
 1489SOL    HW2 5004   0.078   0.940  13.801
 1490SOL     OW 5005   0.895   0.351  13.231
 1490SOL    HW1 5006   0.937   0.412  13.171
 1490SOL    HW2 5007   0.892   0.268  13.184
 1491SOL     OW 5008   1.364   1.135  13.549
 1491SOL    HW1 5009   1.454   1.136  13.516
 1491SOL    HW2 5010   1.321   1.206  13.502
 1492SOL     OW 5011   0.997   1.439  13.500
 1492SOL    HW1 5012   0.969   1.517  13.451
 1492SOL    HW2 5013   0.963   1.454  13.589
 1493SOL     OW 5014   0.413   1.799  13.856
 1493SOL    HW1 5015   0.407   1.704  13.868
 1493SOL    HW2 5016   0.496   1.823  13.896
 1494SOL     OW 5017   1.788   1.042   0.001
 1494SOL    HW1 5018   1.734   1.035  13.822
 1494SOL    HW2 5019   1.726   1.038   0.073
 1495SOL     OW 5020   0.310   0.952  13.276
 1495SOL    HW1 5021   0.393   0.975  13.233
 1495SOL    HW2 5022   0.298   0.859  13.258
 1496SOL     OW 5023   1.494   0.734  13.753
 1496SOL    HW1 5024   1.483   0.697  13.840
 1496SOL    HW2 5025   1.563   0.800  13.764
 1497SOL     OW 5026   1.124   1.776  13.263
 1497SOL    HW1 5027   1.048   1.738  13.307
 1497SOL    HW2 5028   1.146   1.713  13.195
 1498SOL     OW 5029   1.628   1.382  13.122
 1498SOL    HW1 5030   1.585   1.466  13.106
 1498SOL    HW2 5031   1.561   1.317  13.103
 1499SOL     OW 5032   0.466   1.738  13.348
 1499SOL    HW1 5033   0.508   1.793  13.414
 1499SOL    HW2 5034   0.539   1.703  13.296
 1500SOL     OW 5035   1.430   0.164  13.444
 1500SOL    HW1 5036   1.392   0.111  13.374
 1500SOL    HW2 5037   1.521   0.133  13.451
 1501SOL     OW 5038   0.916   1.686   0.010
 1501SOL    HW1 5039   0.939   1.618   0.073
 1501SOL    HW2 5040   0.882   1.639  13.834
 1502SOL     OW 5041   0.399   0.697  13.501
 1502SOL    HW1 5042   0.426   0.606  13.515
 1502SOL    HW2 5043   0.308   0.700  13.530
 1503SOL     OW 5044   0.646   0.128  13.138
 1503SOL    HW1 5045   0.668   0.043  13.176
 1503SOL    HW2 5046   0.586   0.108  13.066
 1504SOL     OW 5047   0.552   0.054  13.520
 1504SOL    HW1 5048   0.475   0.057  13.577
 1504SOL    HW2 5049   0.551   0.137  13.472
 1505SOL     OW 5050   1.428   1.200  13.074
 1505SOL    HW1 5051   1.457   1.124  13.125
 1505SOL    HW2 5052   1.342   1.222  13.110
 1506SOL     OW 5053   0.351   0.045  13.235
 1506SOL    HW1 5054   0.358   0.095  13.154
 1506SOL    HW2 5055   0.441   0.035  13.265
 1507SOL     OW 5056   0.944   0.251  13.492
 1507SOL    HW1 5057   0.917   0.290  13.409
 1507SOL    HW2 5058   1.039   0.258  13.492
 1508SOL     OW 5059   0.470   1.145  13.763
 1508SOL    HW1 5060   0.399   1.120  13.822
 1508SOL    HW2 5061   0.432   1.135  13.675
 1509SOL     OW 5062   1.266   1.796  13.634
 1509SOL    HW1 5063   1.306   1.866  13.584
 1509SOL    HW2 5064   1.195   1.838  13.683
 1510SOL     OW 5065   1.021   0.540  13.065
 1510SOL    HW1 5066   0.978   0.623  13.045
 1510SOL    HW2 5067   1.085   0.561  13.132
 1511SOL     OW 5068   0.902   0.474  13.671
 1511SOL    HW1 5069   0.831   0.519  13.626
 1511SOL    HW2 5070   0.910   0.390  13.626
 1512SOL     OW 5071   1.002   0.037  13.792
 1512SOL    HW1 5072   0.969   0.063  13.706
 1512SOL    HW2 5073   1.025   3.945  13.782
 1513SOL     OW 5074   1.843   0.819  13.419
 1513SOL    HW1 5075   1.902   0.768  13.474
 1513SOL    HW2 5076   1.816   0.758  13.350
 1514SOL     OW 5077   0.487   1.423  13.193
 1514SOL    HW1 5078   0.410   1.392  13.242
 1514SOL    HW2 5079   0.475   1.387  13.105
 1515SOL     OW 5080   1.683   1.273  13.660
 1515SOL    HW1 5081   1.776   1.267  13.685
 1515SOL    HW2 5082   1.653   1.355  13.700
 1516SOL     OW 5083   1.395   0.578  13.104
 1516SOL    HW1 5084   1.332   0.556  13.173
 1516SOL    HW2 5085   1.480   0.556  13.141
 1517SOL     OW 5086   0.559   0.272  13.351
 1517SOL    HW1 5087   0.606   0.229  13.280
 1517SOL    HW2 5088   0.528   0.355  13.313
 1518SOL     OW 5089   0.709   1.064  13.399
 1518SOL    HW1 5090   0.695   1.048  13.492
 1518SOL    HW2 5091   0.785   1.011  13.376
 1519SOL     OW 5092   0.369   1.104  13.512
 1519SOL    HW1 5093   0.363   1.185  13.462
 1519SOL    HW2 5094   0.366   1.035  13.446
 1520SOL     OW 5095   0.564   0.541  13.863
 1520SOL    HW1 5096   0.576   0.607  13.796
 1520SOL    HW2 5097   0.626   0.564   0.032
 1521SOL     OW 5098   1.244   1.354  13.418
 1521SOL    HW1 5099   1.299   1.427  13.447
 1521SOL    HW2 5100   1.157   1.373  13.454
 1522SOL     OW 5101   1.583   0.636  13.512
 1522SOL    HW1 5102   1.544   0.682  13.586
 1522SOL    HW2 5103   1.624   0.705  13.460
 1523SOL     OW 5104   1.199   0.534  13.292
 1523SOL    HW1 5105   1.206   0.454  13.345
 1523SOL    HW2 5106   1.156   0.597  13.349
 1524SOL     OW 5107   0.338   0.048  13.681
 1524SOL    HW1 5108   0.314   0.140  13.692
 1524SOL    HW2 5109   0.276   0.000  13.736
 1525SOL     OW 5110   1.594   0.394  13.406
 1525SOL    HW1 5111   1.561   0.329  13.468
 1525SOL    HW2 5112   1.582   0.478  13.450
 1526SOL     OW 5113   1.501   0.279  13.165
 1526SOL    HW1 5114   1.431   0.216  13.180
 1526SOL    HW2 5115   1.517   0.319  13.250
 1527SOL     OW 5116   1.286   0.826  13.061
 1527SOL    HW1 5117   1.329   0.741  13.065
 1527SOL    HW2 5118   1.319   0.866  12.980
 1528SOL     OW 5119   0.001   1.316  13.214
 1528SOL    HW1 5120   3.906   1.333  13.219
 1528SOL    HW2 5121   0.009   1.222  13.232
 1529SOL     OW 5122   0.819   0.575  13.389
 1529SOL    HW1 5123   0.823   0.497  13.335
 1529SOL    HW2 5124   0.742   0.622  13.357
 1530SOL     OW 5125   0.450   0.492  13.233
 1530SOL    HW1 5126   0.514   0.561  13.249
 1530SOL    HW2 5127   0.370   0.539  13.208
 1531SOL     OW 5128   1.317   0.851  13.336
 1531SOL    HW1 5129   1.240   0.827  13.388
 1531SOL    HW2 5130   1.290   0.840  13.245
 1532SOL     OW 5131   1.694   0.111  13.454
 1532SOL    HW1 5132   1.786   0.130  13.434
 1532SOL    HW2 5133   1.697   0.040  13.518
 1533SOL     OW 5134   1.384   1.576  13.508
 1533SOL    HW1 5135   1.439   1.615  13.440
 1533SOL    HW2 5136   1.336   1.651  13.545
 1534SOL     OW 5137   1.291   0.913  13.684
 1534SOL    HW1 5138   1.368   0.858  13.672
 1534SOL    HW2 5139   1.312   0.995  13.640
 1535SOL     OW 5140   0.670   1.624  13.189
 1535SOL    HW1 5141   0.682   1.637  13.095
 1535SOL    HW2 5142   0.614   1.547  13.196
 1536SOL     OW 5143   1.822   0.179   0.067
 1536SOL    HW1 5144   1.862   0.093   0.057
 1536SOL    HW2 5145   1.733   0.168   0.034
 1537SOL     OW 5146   0.290   0.310  13.735
 1537SOL    HW1 5147   0.209   0.354  13.709
 1537SOL    HW2 5148   0.296   0.325  13.829
 1538SOL     OW 5149   1.206   1.602  13.066
 1538SOL    HW1 5150   1.195   1.510  13.091
 1538SOL    HW2 5151   1.140   1.616  12.998
 1539SOL     OW 5152   0.919   0.914  13.330
 1539SOL    HW1 5153   0.978   0.944  13.261
 1539SOL    HW2 5154   0.965   0.840  13.371
 1540SOL     OW 5155   1.484   1.623  13.074
 1540SOL    HW1 5156   1.390   1.616  13.057
 1540SOL    HW2 5157   1.523   1.631  12.987
 1541SOL     OW 5158   1.050   1.090  13.756
 1541SOL    HW1 5159   0.964   1.055  13.736
 1541SOL    HW2 5160   1.107   1.056  13.687
 1542SOL     OW 5161   0.601   1.493  13.503
 1542SOL    HW1 5162   0.648   1.442  13.439
 1542SOL    HW2 5163   0.525   1.528  13.456
 1543SOL     OW 5164   0.253   1.340  13.325
 1543SOL    HW1 5165   0.160   1.345  13.307
 1543SOL    HW2 5166   0.263   1.379  13.412
 1544SOL     OW 5167   0.088   0.319  13.058
 1544SOL    HW1 5168   3.992   0.318  13.050
 1544SOL    HW2 5169   0.115   0.401  13.018
 1545SOL     OW 5170   0.042   0.175  13.304
 1545SOL    HW1 5171   0.045   0.228  13.225
 1545SOL    HW2 5172   0.117   0.204  13.356
 1546SOL     OW 5173   1.177   1.335  13.149
 1546SOL    HW1 5174   1.086   1.306  13.150
 1546SOL    HW2 5175   1.203   1.337  13.241
 1547SOL     OW 5176   1.219   0.332  13.482
 1547SOL    HW1 5177   1.288   0.267  13.471
 1547SOL    HW2 5178   1.245   0.382  13.559
 1548SOL     OW 5179   0.594   0.750  13.691
 1548SOL    HW1 5180   0.628   0.837  13.673
 1548SOL    HW2 5181   0.525   0.737  13.626
 1549SOL     OW 5182   0.865   1.365  13.075
 1549SOL    HW1 5183   0.826   1.392  13.158
 1549SOL    HW2 5184   0.879   1.446  13.027
 1550SOL     OW 5185   0.662   1.856   0.059
 1550SOL    HW1 5186   0.680   1.948   0.042
 1550SOL    HW2 5187   0.749   1.817   0.072
 1551SOL     OW 5188   0.823   0.966  13.900
 1551SOL    HW1 5189   0.842   0.881   0.040
 1551SOL    HW2 5190   0.863   1.030   0.058
 1552SOL     OW 5191   1.075   0.987  13.123
 1552SOL    HW1 5192   1.055   1.040  13.046
 1552SOL    HW2 5193   1.150   0.933  13.096
 1553SOL     OW 5194   0.116   1.279  13.763
 1553SOL    HW1 5195   0.048   1.242  13.820
 1553SOL    HW2 5196   0.118   1.220  13.688
 1554SOL     OW 5197   0.454   0.441  13.556
 1554SOL    HW1 5198   0.484   0.368  13.503
 1554SOL    HW2 5199   0.407   0.401  13.629
 1555SOL     OW 5200   1.708   1.499   0.325
 1555SOL    HW1 5201   1.675   1.450   0.250
 1555SOL    HW2 5202   1.769   1.439   0.368
 1556SOL     OW 5203   0.821   1.551  13.701
 1556SOL    HW1 5204   0.788   1.606  13.630
 1556SOL    HW2 5205   0.748   1.492  13.720
 1557SOL     OW 5206   0.773   1.334  13.349
 1557SOL    HW1 5207   0.745   1.243  13.357
 1557SOL    HW2 5208   0.853   1.340  13.400
 1558SOL     OW 5209   1.310   0.077  13.208
 1558SOL    HW1 5210   1.332   3.996  13.162
 1558SOL    HW2 5211   1.220   0.063  13.239
 1559SOL     OW 5212   1.292   0.460  13.714
 1559SOL    HW1 5213   1.243   0.542  13.713
 1559SOL    HW2 5214   1.282   0.428  13.804
 1560SOL     OW 5215   0.047   1.047  13.271
 1560SOL    HW1 5216   0.141   1.031  13.264
 1560SOL    HW2 5217   0.011   0.962  13.298
 1561SOL     OW 5218   0.889   1.658  13.372
 1561SOL    HW1 5219   0.813   1.643  13.315
 1561SOL    HW2 5220   0.862   1.729  13.430
 1562SOL     OW 5221   0.229   2.518   0.120
 1562SOL    HW1 5222   0.135   2.508   0.132
 1562SOL    HW2 5223   0.247   2.476   0.036
 1563SOL     OW 5224   0.229   2.135   0.987
 1563SOL    HW1 5225   0.250   2.100   1.074
 1563SOL    HW2 5226   0.134   2.127   0.981
 1564SOL     OW 5227   0.009   2.221   0.629
 1564SOL    HW1 5228   3.921   2.240   0.664
 1564SOL    HW2 5229   3.993   2.192   0.539
 1565SOL     OW 5230   0.581   3.154   1.195
 1565SOL    HW1 5231   0.495   3.157   1.152
 1565SOL    HW2 5232   0.595   3.243   1.227
 1566SOL     OW 5233   1.567   3.372   0.709
 1566SOL    HW1 5234   1.522   3.348   0.790
 1566SOL    HW2 5235   1.498   3.374   0.643
 1567SOL     OW 5236   1.133   2.560   0.698
 1567SOL    HW1 5237   1.181   2.641   0.685
 1567SOL    HW2 5238   1.086   2.572   0.780
 1568SOL     OW 5239   1.765   2.459   0.229
 1568SOL    HW1 5240   1.793   2.406   0.155
 1568SOL    HW2 5241   1.718   2.398   0.286
 1569SOL     OW 5242   0.749   2.999   1.044
 1569SOL    HW1 5243   0.687   3.036   1.107
 1569SOL    HW2 5244   0.786   3.075   1.000
 1570SOL     OW 5245   0.873   2.627   1.824
 1570SOL    HW1 5246   0.865   2.697   1.888
 1570SOL    HW2 5247   0.895   2.671   1.742
 1571SOL     OW 5248   0.684   2.860   0.647
 1571SOL    HW1 5249   0.751   2.851   0.715
 1571SOL    HW2 5250   0.616   2.914   0.687
 1572SOL     OW 5251   0.713   3.011   1.819
 1572SOL    HW1 5252   0.761   3.088   1.849
 1572SOL    HW2 5253   0.633   3.046   1.780
 1573SOL     OW 5254   0.351   3.262   1.078
 1573SOL    HW1 5255   0.269   3.248   1.030
 1573SOL    HW2 5256   0.401   3.320   1.021
 1574SOL     OW 5257   1.459   3.364   1.359
 1574SOL    HW1 5258   1.514   3.442   1.369
 1574SOL    HW2 5259   1.391   3.373   1.426
 1575SOL     OW 5260   0.450   2.258   1.484
 1575SOL    HW1 5261   0.526   2.200   1.489
 1575SOL    HW2 5262   0.375   2.201   1.499
 1576SOL     OW 5263   1.605   2.299   0.734
 1576SOL    HW1 5264   1.522   2.319   0.691
 1576SOL    HW2 5265   1.622   2.375   0.790
 1577SOL     OW 5266   0.224   3.572   0.471
 1577SOL    HW1 5267   0.217   3.657   0.515
 1577SOL    HW2 5268   0.300   3.580   0.414
 1578SOL     OW 5269   1.138   3.204   1.694
 1578SOL    HW1 5270   1.179   3.197   1.780
 1578SOL    HW2 5271   1.085   3.124   1.686
 1579SOL     OW 5272   0.245   3.308   0.543
 1579SOL    HW1 5273   0.223   3.400   0.526
 1579SOL    HW2 5274   0.171   3.275   0.594
 1580SOL     OW 5275   0.248   2.926   0.882
 1580SOL    HW1 5276   0.270   2.842   0.921
 1580SOL    HW2 5277   0.196   2.971   0.949
 1581SOL     OW 5278   0.609   3.648   1.426
 1581SOL    HW1 5279   0.527   3.634   1.473
 1581SOL    HW2 5280   0.636   3.737   1.450
 1582SOL     OW 5281   0.559   2.843   0.169
 1582SOL    HW1 5282   0.590   2.880   0.086
 1582SOL    HW2 5283   0.615   2.883   0.236
 1583SOL     OW 5284   1.597   1.995   1.464
 1583SOL    HW1 5285   1.595   2.082   1.423
 1583SOL    HW2 5286   1.585   2.012   1.557
 1584SOL     OW 5287   0.142   2.522   0.571
 1584SOL    HW1 5288   0.088   2.443   0.573
 1584SOL    HW2 5289   0.108   2.575   0.644
 1585SOL     OW 5290   1.838   3.601   0.336
 1585SOL    HW1 5291   1.902   3.568   0.400
 1585SOL    HW2 5292   1.859   3.693   0.326
 1586SOL     OW 5293   0.030   3.467   0.135
 1586SOL    HW1 5294   0.036   3.375   0.159
 1586SOL    HW2 5295   3.936   3.486   0.134
 1587SOL     OW 5296   1.687   2.779   0.645
 1587SOL    HW1 5297   1.769   2.736   0.620
 1587SOL    HW2 5298   1.665   2.833   0.569
 1588SOL     OW 5299   1.649   2.965   0.433
 1588SOL    HW1 5300   1.736   2.967   0.393
 1588SOL    HW2 5301   1.653   3.030   0.503
 1589SOL     OW 5302   0.143   2.614   1.590
 1589SOL    HW1 5303   0.238   2.611   1.584
 1589SOL    HW2 5304   0.124   2.701   1.625
 1590SOL     OW 5305   0.617   3.248   0.735
 1590SOL    HW1 5306   0.569   3.166   0.744
 1590SOL    HW2 5307   0.601   3.276   0.645
 1591SOL     OW 5308   1.286   3.098   1.421
 1591SOL    HW1 5309   1.317   3.030   1.361
 1591SOL    HW2 5310   1.345   3.093   1.496
 1592SOL     OW 5311   0.824   1.863   0.515
 1592SOL    HW1 5312   0.864   1.947   0.491
 1592SOL    HW2 5313   0.731   1.881   0.519
 1593SOL     OW 5314   0.184   2.811   1.282
 1593SOL    HW1 5315   0.272   2.775   1.269
 1593SOL    HW2 5316   0.133   2.775   1.209
 1594SOL     OW 5317   1.528   2.864   0.206
 1594SOL    HW1 5318   1.461   2.805   0.240
 1594SOL    HW2 5319   1.571   2.898   0.284
 1595SOL     OW 5320   1.222   3.668   1.629
 1595SOL    HW1 5321   1.196   3.729   1.560
 1595SOL    HW2 5322   1.222   3.582   1.586
 1596SOL     OW 5323   0.344   2.109   1.819
 1596SOL    HW1 5324   0.378   2.198   1.827
 1596SOL    HW2 5325   0.251   2.117   1.843
 1597SOL     OW 5326   1.466   3.281   0.948
 1597SOL    HW1 5327   1.399   3.296   1.015
 1597SOL    HW2 5328   1.453   3.190   0.922
 1598SOL     OW 5329   1.658   3.602   0.589
 1598SOL    HW1 5330   1.643   3.577   0.498
 1598SOL    HW2 5331   1.634   3.524   0.640
 1599SOL     OW 5332   0.597   2.576   0.268
 1599SOL    HW1 5333   0.597   2.660   0.222
 1599SOL    HW2 5334   0.535   2.589   0.340
 1600SOL     OW 5335   1.280   2.226   0.935
 1600SOL    HW1 5336   1.191   2.191   0.945
 1600SOL    HW2 5337   1.335   2.170   0.989
 1601SOL     OW 5338   1.562   3.592   0.315
 1601SOL    HW1 5339   1.657   3.590   0.313
 1601SOL    HW2 5340   1.535   3.562   0.228
 1602SOL     OW 5341   0.791   2.480   1.449
 1602SOL    HW1 5342   0.765   2.454   1.537
 1602SOL    HW2 5343   0.755   2.411   1.392
 1603SOL     OW 5344   1.392   2.335   1.677
 1603SOL    HW1 5345   1.395   2.381   1.760
 1603SOL    HW2 5346   1.454   2.263   1.687
 1604SOL     OW 5347   0.950   2.747   1.585
 1604SOL    HW1 5348   1.006   2.679   1.547
 1604SOL    HW2 5349   0.902   2.783   1.511
 1605SOL     OW 5350   0.994   2.272   1.235
 1605SOL    HW1 5351   0.905   2.290   1.266
 1605SOL    HW2 5352   0.981   2.229   1.150
 1606SOL     OW 5353   1.053   2.563   0.429
 1606SOL    HW1 5354   1.071   2.555   0.522
 1606SOL    HW2 5355   0.970   2.518   0.416
 1607SOL     OW 5356   0.083   2.693   0.790
 1607SOL    HW1 5357   0.155   2.662   0.845
 1607SOL    HW2 5358   0.103   2.785   0.774
 1608SOL     OW 5359   0.127   3.720   1.581
 1608SOL    HW1 5360   0.135   3.688   1.671
 1608SOL    HW2 5361   0.035   3.707   1.559
 1609SOL     OW 5362   0.869   2.223   0.216
 1609SOL    HW1 5363   0.907   2.285   0.154
 1609SOL    HW2 5364   0.885   2.137   0.177
 1610SOL     OW 5365   1.668   2.444   1.836
 1610SOL    HW1 5366   1.646   2.516   1.776
 1610SOL    HW2 5367   1.716   2.381   1.782
 1611SOL     OW 5368   1.380   3.004   0.543
 1611SOL    HW1 5369   1.458   2.992   0.489
 1611SOL    HW2 5370   1.327   3.067   0.494
 1612SOL     OW 5371   0.547   2.040   0.896
 1612SOL    HW1 5372   0.554   2.071   0.986
 1612SOL    HW2 5373   0.546   2.119   0.843
 1613SOL     OW 5374   1.001   3.304   0.474
 1613SOL    HW1 5375   0.971   3.380   0.423
 1613SOL    HW2 5376   0.978   3.326   0.564
 1614SOL     OW 5377   0.359   3.672   0.866
 1614SOL    HW1 5378   0.440   3.623   0.879
 1614SOL    HW2 5379   0.385   3.764   0.874
 1615SOL     OW 5380   1.800   2.911   0.872
 1615SOL    HW1 5381   1.747   2.896   0.794
 1615SOL    HW2 5382   1.737   2.920   0.943
 1616SOL     OW 5383   1.227   3.400   1.511
 1616SOL    HW1 5384   1.215   3.327   1.573
 1616SOL    HW2 5385   1.157   3.388   1.447
 1617SOL     OW 5386   0.306   2.790   0.242
 1617SOL    HW1 5387   0.397   2.804   0.216
 1617SOL    HW2 5388   0.293   2.696   0.235
 1618SOL     OW 5389   1.481   2.608   0.722
 1618SOL    HW1 5390   1.477   2.568   0.809
 1618SOL    HW2 5391   1.558   2.664   0.725
 1619SOL     OW 5392   0.470   3.123   1.737
 1619SOL    HW1 5393   0.444   3.131   1.645
 1619SOL    HW2 5394   0.388   3.125   1.785
 1620SOL     OW 5395   1.127   3.639   0.230
 1620SOL    HW1 5396   1.062   3.595   0.284
 1620SOL    HW2 5397   1.154   3.574   0.165
 1621SOL     OW 5398   0.204   2.131   1.508
 1621SOL    HW1 5399   0.114   2.165   1.504
 1621SOL    HW2 5400   0.195   2.043   1.544
 1622SOL     OW 5401   1.636   3.238   0.089
 1622SOL    HW1 5402   1.604   3.320   0.052
 1622SOL    HW2 5403   1.567   3.175   0.070
 1623SOL     OW 5404   0.464   3.605   0.322
 1623SOL    HW1 5405   0.502   3.666   0.385
 1623SOL    HW2 5406   0.538   3.570   0.274
 1624SOL     OW 5407   1.403   1.967   0.433
 1624SOL    HW1 5408   1.385   1.951   0.340
 1624SOL    HW2 5409   1.488   1.927   0.448
 1625SOL     OW 5410   0.256   3.657   1.224
 1625SOL    HW1 5411   0.297   3.588   1.275
 1625SOL    HW2 5412   0.254   3.622   1.135
 1626SOL     OW 5413   0.939   3.565   0.898
 1626SOL    HW1 5414   1.017   3.514   0.920
 1626SOL    HW2 5415   0.896   3.514   0.829
 1627SOL     OW 5416   0.399   2.556   0.471
 1627SOL    HW1 5417   0.422   2.464   0.485
 1627SOL    HW2 5418   0.308   2.563   0.499
 1628SOL     OW 5419   1.533   2.086   1.725
 1628SOL    HW1 5420   1.545   2.106   1.818
 1628SOL    HW2 5421   1.461   2.023   1.723
 1629SOL     OW 5422   0.765   2.141   1.755
 1629SOL    HW1 5423   0.845   2.089   1.751
 1629SOL    HW2 5424   0.719   2.109   1.833
 1630SOL     OW 5425   0.876   3.383   1.194
 1630SOL    HW1 5426   0.859   3.346   1.108
 1630SOL    HW2 5427   0.945   3.328   1.230
 1631SOL     OW 5428   1.339   2.451   1.432
 1631SOL    HW1 5429   1.370   2.420   1.518
 1631SOL    HW2 5430   1.376   2.539   1.425
 1632SOL     OW 5431   0.818   3.251   0.944
 1632SOL    HW1 5432   0.904   3.240   0.902
 1632SOL    HW2 5433   0.756   3.256   0.871
 1633SOL     OW 5434   0.929   2.371   0.900
 1633SOL    HW1 5435   0.904   2.363   0.808
 1633SOL    HW2 5436   0.959   2.284   0.925
 1634SOL     OW 5437   0.559   1.921   0.501
 1634SOL    HW1 5438   0.478   1.919   0.551
 1634SOL    HW2 5439   0.552   1.999   0.446
 1635SOL     OW 5440   1.431   3.072   0.044
 1635SOL    HW1 5441   1.450   2.992   0.092
 1635SOL    HW2 5442   1.339   3.091   0.064
 1636SOL     OW 5443   0.260   1.874   0.214
 1636SOL    HW1 5444   0.291   1.958   0.180
 1636SOL    HW2 5445   0.340   1.827   0.237
 1637SOL     OW 5446   0.944   2.109   0.460
 1637SOL    HW1 5447   0.912   2.150   0.380
 1637SOL    HW2 5448   1.037   2.128   0.462
 1638SOL     OW 5449   1.081   2.546   1.457
 1638SOL    HW1 5450   1.015   2.476   1.462
 1638SOL    HW2 5451   1.164   2.499   1.452
 1639SOL     OW 5452   1.219   3.435   0.795
 1639SOL    HW1 5453   1.234   3.500   0.727
 1639SOL    HW2 5454   1.290   3.448   0.858
 1640SOL     OW 5455   0.466   3.014   0.731
 1640SOL    HW1 5456   0.396   2.989   0.791
 1640SOL    HW2 5457   0.428   3.000   0.644
 1641SOL     OW 5458   1.264   3.656   0.609
 1641SOL    HW1 5459   1.314   3.720   0.559
 1641SOL    HW2 5460   1.191   3.705   0.645
 1642SOL     OW 5461   0.995   2.403   0.052
 1642SOL    HW1 5462   0.989   2.383  13.858
 1642SOL    HW2 5463   1.088   2.391   0.072
 1643SOL     OW 5464   0.083   2.436   1.389
 1643SOL    HW1 5465   0.173   2.423   1.359
 1643SOL    HW2 5466   0.090   2.505   1.455
 1644SOL     OW 5467   0.567   2.089   1.168
 1644SOL    HW1 5468   0.608   2.015   1.213
 1644SOL    HW2 5469   0.475   2.085   1.196
 1645SOL     OW 5470   0.866   2.320   0.639
 1645SOL    HW1 5471   0.825   2.376   0.573
 1645SOL    HW2 5472   0.888   2.240   0.591
 1646SOL     OW 5473   1.018   1.915   0.748
 1646SOL    HW1 5474   0.959   1.911   0.673
 1646SOL    HW2 5475   0.994   1.841   0.803
 1647SOL     OW 5476   1.439   3.023   0.857
 1647SOL    HW1 5477   1.368   2.958   0.856
 1647SOL    HW2 5478   1.464   3.032   0.765
 1648SOL     OW 5479   1.464   2.470   0.969
 1648SOL    HW1 5480   1.408   2.393   0.972
 1648SOL    HW2 5481   1.522   2.462   1.045
 1649SOL     OW 5482   1.844   2.673   0.378
 1649SOL    HW1 5483   1.899   2.624   0.438
 1649SOL    HW2 5484   1.812   2.609   0.315
 1650SOL     OW 5485   0.490   3.249   0.165
 1650SOL    HW1 5486   0.420   3.213   0.219
 1650SOL    HW2 5487   0.444   3.295   0.095
 1651SOL     OW 5488   1.675   3.123   0.647
 1651SOL    HW1 5489   1.770   3.125   0.659
 1651SOL    HW2 5490   1.647   3.214   0.659
 1652SOL     OW 5491   1.421   2.443   0.087
 1652SOL    HW1 5492   1.352   2.437   0.153
 1652SOL    HW2 5493   1.464   2.357   0.090
 1653SOL     OW 5494   0.535   2.126   0.328
 1653SOL    HW1 5495   0.587   2.095   0.253
 1653SOL    HW2 5496   0.497   2.208   0.297
 1654SOL     OW 5497   1.750   3.104   1.564
 1654SOL    HW1 5498   1.837   3.065   1.561
 1654SOL    HW2 5499   1.765   3.195   1.592
 1655SOL     OW 5500   1.055   3.213   1.331
 1655SOL    HW1 5501   0.979   3.183   1.382
 1655SOL    HW2 5502   1.130   3.173   1.373
 1656SOL     OW 5503   1.610   3.489   1.658
 1656SOL    HW1 5504   1.601   3.523   1.569
 1656SOL    HW2 5505   1.692   3.440   1.657
 1657SOL     OW 5506   1.134   3.070   1.102
 1657SOL    HW1 5507   1.074   3.108   1.167
 1657SOL    HW2 5508   1.104   3.105   1.018
 1658SOL     OW 5509   1.624   2.959   1.075
 1658SOL    HW1 5510   1.618   3.021   1.147
 1658SOL    HW2 5511   1.548   2.978   1.020
 1659SOL     OW 5512   0.918   1.956   1.392
 1659SOL    HW1 5513   0.942   1.938   1.301
 1659SOL    HW2 5514   0.997   1.996   1.429
 1660SOL     OW 5515   0.984   2.977   1.722
 1660SOL    HW1 5516   0.893   2.993   1.746
 1660SOL    HW2 5517   0.981   2.898   1.668
 1661SOL     OW 5518   0.717   2.922   0.378
 1661SOL    HW1 5519   0.702   2.902   0.470
 1661SOL    HW2 5520   0.791   2.868   0.353
 1662SOL     OW 5521   0.423   2.680   1.253
 1662SOL    HW1 5522   0.491   2.689   1.320
 1662SOL    HW2 5523   0.389   2.591   1.264
 1663SOL     OW 5524   1.264   2.236   1.280
 1663SOL    HW1 5525   1.296   2.314   1.325
 1663SOL    HW2 5526   1.173   2.257   1.258
 1664SOL     OW 5527   0.065   3.441   1.344
 1664SOL    HW1 5528   0.071   3.482   1.258
 1664SOL    HW2 5529   0.156   3.433   1.373
 1665SOL     OW 5530   0.358   2.964   0.480
 1665SOL    HW1 5531   0.350   3.041   0.425
 1665SOL    HW2 5532   0.378   2.893   0.419
 1666SOL     OW 5533   0.548   2.394   0.861
 1666SOL    HW1 5534   0.561   2.451   0.786
 1666SOL    HW2 5535   0.615   2.420   0.924
 1667SOL     OW 5536   1.248   3.209   0.400
 1667SOL    HW1 5537   1.304   3.282   0.426
 1667SOL    HW2 5538   1.161   3.233   0.432
 1668SOL     OW 5539   1.287   3.322   1.149
 1668SOL    HW1 5540   1.343   3.327   1.226
 1668SOL    HW2 5541   1.231   3.246   1.164
 1669SOL     OW 5542   1.576   2.490   0.478
 1669SOL    HW1 5543   1.528   2.532   0.549
 1669SOL    HW2 5544   1.603   2.562   0.421
 1670SOL     OW 5545   0.345   3.391   1.316
 1670SOL    HW1 5546   0.335   3.340   1.236
 1670SOL    HW2 5547   0.439   3.405   1.324
 1671SOL     OW 5548   0.419   2.599   1.602
 1671SOL    HW1 5549   0.482   2.644   1.545
 1671SOL    HW2 5550   0.458   2.514   1.619
 1672SOL     OW 5551   1.604   2.650   1.677
 1672SOL    HW1 5552   1.519   2.693   1.672
 1672SOL    HW2 5553   1.657   2.693   1.610
 1673SOL     OW 5554   0.996   1.994   1.753
 1673SOL    HW1 5555   1.055   2.066   1.732
 1673SOL    HW2 5556   1.045   1.915   1.728
 1674SOL     OW 5557   0.497   1.896   1.747
 1674SOL    HW1 5558   0.452   1.844   1.680
 1674SOL    HW2 5559   0.443   1.975   1.757
 1675SOL     OW 5560   0.585   2.737   1.032
 1675SOL    HW1 5561   0.621   2.826   1.034
 1675SOL    HW2 5562   0.530   2.731   1.110
 1676SOL     OW 5563   1.350   2.720   1.023
 1676SOL    HW1 5564   1.264   2.707   0.982
 1676SOL    HW2 5565   1.395   2.636   1.013
 1677SOL     OW 5566   1.219   2.403   0.272
 1677SOL    HW1 5567   1.222   2.324   0.325
 1677SOL    HW2 5568   1.162   2.463   0.320
 1678SOL     OW 5569   0.309   2.057   1.247
 1678SOL    HW1 5570   0.263   2.093   1.323
 1678SOL    HW2 5571   0.287   1.964   1.247
 1679SOL     OW 5572   0.062   3.167   1.281
 1679SOL    HW1 5573   0.092   3.125   1.361
 1679SOL    HW2 5574   0.053   3.259   1.303
 1680SOL     OW 5575   0.722   2.492   1.054
 1680SOL    HW1 5576   0.798   2.478   0.997
 1680SOL    HW2 5577   0.694   2.581   1.034
 1681SOL     OW 5578   1.737   2.822   1.855
 1681SOL    HW1 5579   1.693   2.755   1.802
 1681SOL    HW2 5580   1.677   2.837   1.928
 1682SOL     OW 5581   0.317   1.921   0.624
 1682SOL    HW1 5582   0.292   2.012   0.643
 1682SOL    HW2 5583   0.322   1.879   0.710
 1683SOL     OW 5584   1.623   2.242   0.384
 1683SOL    HW1 5585   1.610   2.182   0.458
 1683SOL    HW2 5586   1.598   2.328   0.419
 1684SOL     OW 5587   1.029   2.620   0.958
 1684SOL    HW1 5588   1.021   2.637   1.052
 1684SOL    HW2 5589   1.002   2.529   0.949
 1685SOL     OW 5590   0.986   3.430   1.722
 1685SOL    HW1 5591   0.966   3.470   1.638
 1685SOL    HW2 5592   1.028   3.347   1.700
 1686SOL     OW 5593   1.852   3.364   1.603
 1686SOL    HW1 5594   1.873   3.392   1.514
 1686SOL    HW2 5595   1.932   3.379   1.653
 1687SOL     OW 5596   0.354   2.784   1.799
 1687SOL    HW1 5597   0.432   2.806   1.850
 1687SOL    HW2 5598   0.384   2.717   1.738
 1688SOL     OW 5599   1.507   2.170   0.144
 1688SOL    HW1 5600   1.495   2.075   0.148
 1688SOL    HW2 5601   1.556   2.191   0.224
 1689SOL     OW 5602   1.290   2.689   0.056
 1689SOL    HW1 5603   1.338   2.607   0.059
 1689SOL    HW2 5604   1.309   2.724  13.868
 1690SOL     OW 5605   1.069   3.200   0.856
 1690SOL    HW1 5606   1.074   3.128   0.793
 1690SOL    HW2 5607   1.127   3.267   0.821
 1691SOL     OW 5608   0.314   2.663   0.949
 1691SOL    HW1 5609   0.408   2.680   0.945
 1691SOL    HW2 5610   0.308   2.572   0.981
 1692SOL     OW 5611   0.328   2.383   1.015
 1692SOL    HW1 5612   0.294   2.295   0.999
 1692SOL    HW2 5613   0.405   2.390   0.957
 1693SOL     OW 5614   1.134   2.234   1.686
 1693SOL    HW1 5615   1.087   2.289   1.748
 1693SOL    HW2 5616   1.222   2.273   1.682
 1694SOL     OW 5617   1.160   2.061   1.472
 1694SOL    HW1 5618   1.149   2.123   1.543
 1694SOL    HW2 5619   1.202   2.111   1.402
 1695SOL     OW 5620   0.015   3.189   0.192
 1695SOL    HW1 5621   3.921   3.205   0.184
 1695SOL    HW2 5622   0.022   3.095   0.212
 1696SOL     OW 5623   0.075   3.664   0.894
 1696SOL    HW1 5624   0.094   3.570   0.888
 1696SOL    HW2 5625   0.161   3.706   0.896
 1697SOL     OW 5626   0.507   3.423   0.919
 1697SOL    HW1 5627   0.572   3.491   0.937
 1697SOL    HW2 5628   0.549   3.366   0.855
 1698SOL     OW 5629   0.975   2.650   1.224
 1698SOL    HW1 5630   1.034   2.630   1.296
 1698SOL    HW2 5631   0.891   2.612   1.251
 1699SOL     OW 5632   0.038   2.423   1.109
 1699SOL    HW1 5633   0.121   2.401   1.067
 1699SOL    HW2 5634   0.057   2.420   1.202
 1700SOL     OW 5635   0.206   2.374   1.728
 1700SOL    HW1 5636   0.244   2.324   1.655
 1700SOL    HW2 5637   0.163   2.448   1.686
 1701SOL     OW 5638   1.375   2.799   1.655
 1701SOL    HW1 5639   1.398   2.892   1.652
 1701SOL    HW2 5640   1.371   2.772   1.564
 1702SOL     OW 5641   0.815   2.439   0.379
 1702SOL    HW1 5642   0.825   2.364   0.321
 1702SOL    HW2 5643   0.743   2.490   0.341
 1703SOL     OW 5644   1.641   2.465   1.179
 1703SOL    HW1 5645   1.631   2.412   1.258
 1703SOL    HW2 5646   1.728   2.442   1.146
 1704SOL     OW 5647   0.301   3.406   1.723
 1704SOL    HW1 5648   0.254   3.475   1.769
 1704SOL    HW2 5649   0.272   3.325   1.765
 1705SOL     OW 5650   0.712   2.309   1.254
 1705SOL    HW1 5651   0.657   2.236   1.227
 1705SOL    HW2 5652   0.704   2.373   1.183
 1706SOL     OW 5653   0.926   3.532   1.470
 1706SOL    HW1 5654   0.899   3.493   1.387
 1706SOL    HW2 5655   0.918   3.626   1.456
 1707SOL     OW 5656   0.424   2.355   0.233
 1707SOL    HW1 5657   0.501   2.412   0.237
 1707SOL    HW2 5658   0.353   2.413   0.205
 1708SOL     OW 5659   0.154   2.996   1.477
 1708SOL    HW1 5660   0.154   2.946   1.559
 1708SOL    HW2 5661   0.170   2.931   1.409
 1709SOL     OW 5662   1.322   2.906   1.219
 1709SOL    HW1 5663   1.343   2.842   1.151
 1709SOL    HW2 5664   1.255   2.962   1.180
 1710SOL     OW 5665   1.316   2.719   0.327
 1710SOL    HW1 5666   1.243   2.685   0.378
 1710SOL    HW2 5667   1.292   2.703   0.236
 1711SOL     OW 5668   1.775   3.598   1.153
 1711SOL    HW1 5669   1.837   3.627   1.086
 1711SOL    HW2 5670   1.752   3.509   1.128
 1712SOL     OW 5671   1.245   3.594   1.106
 1712SOL    HW1 5672   1.328   3.617   1.064
 1712SOL    HW2 5673   1.252   3.501   1.126
 1713SOL     OW 5674   0.077   3.074   1.028
 1713SOL    HW1 5675   0.085   3.102   1.119
 1713SOL    HW2 5676   3.985   3.087   1.007
 1714SOL     OW 5677   0.680   3.529   1.737
 1714SOL    HW1 5678   0.621   3.604   1.740
 1714SOL    HW2 5679   0.740   3.549   1.666
 1715SOL     OW 5680   0.935   1.975   0.125
 1715SOL    HW1 5681   0.967   1.963   0.036
 1715SOL    HW2 5682   0.982   1.910   0.177
 1716SOL     OW 5683   1.390   3.434   0.489
 1716SOL    HW1 5684   1.452   3.469   0.425
 1716SOL    HW2 5685   1.342   3.511   0.520
 1717SOL     OW 5686   0.172   3.620   1.833
 1717SOL    HW1 5687   0.118   3.567   1.891
 1717SOL    HW2 5688   0.218   3.681   1.892
 1718SOL     OW 5689   1.278   2.789   0.671
 1718SOL    HW1 5690   1.352   2.729   0.680
 1718SOL    HW2 5691   1.311   2.861   0.618
 1719SOL     OW 5692   0.806   3.137   1.426
 1719SOL    HW1 5693   0.778   3.178   1.507
 1719SOL    HW2 5694   0.735   3.154   1.364
 1720SOL     OW 5695   0.671   3.452   0.193
 1720SOL    HW1 5696   0.659   3.494   0.108
 1720SOL    HW2 5697   0.625   3.368   0.185
 1721SOL     OW 5698   1.620   3.589   1.390
 1721SOL    HW1 5699   1.673   3.593   1.310
 1721SOL    HW2 5700   1.606   3.680   1.414
 1722SOL     OW 5701   0.264   2.172   0.716
 1722SOL    HW1 5702   0.178   2.204   0.691
 1722SOL    HW2 5703   0.260   2.164   0.811
 1723SOL     OW 5704   1.221   3.459   0.036
 1723SOL    HW1 5705   1.210   3.368   0.062
 1723SOL    HW2 5706   1.177   3.466  13.852
 1724SOL     OW 5707   0.823   2.868   1.374
 1724SOL    HW1 5708   0.868   2.862   1.290
 1724SOL    HW2 5709   0.820   2.962   1.394
 1725SOL     OW 5710   0.924   2.774   0.291
 1725SOL    HW1 5711   0.992   2.813   0.237
 1725SOL    HW2 5712   0.968   2.703   0.337
 1726SOL     OW 5713   1.483   3.517   0.064
 1726SOL    HW1 5714   1.391   3.490   0.059
 1726SOL    HW2 5715   1.518   3.498  13.877
 1727SOL     OW 5716   0.374   3.164   1.491
 1727SOL    HW1 5717   0.359   3.245   1.441
 1727SOL    HW2 5718   0.297   3.111   1.474
 1728SOL     OW 5719   1.608   3.146   1.280
 1728SOL    HW1 5720   1.668   3.132   1.353
 1728SOL    HW2 5721   1.548   3.213   1.311
 1729SOL     OW 5722   1.059   2.971   0.710
 1729SOL    HW1 5723   0.987   2.920   0.747
 1729SOL    HW2 5724   1.123   2.906   0.682
 1730SOL     OW 5725   1.024   2.103   0.966
 1730SOL    HW1 5726   1.021   2.057   0.883
 1730SOL    HW2 5727   1.019   2.035   1.033
 1731SOL     OW 5728   0.609   3.347   0.482
 1731SOL    HW1 5729   0.656   3.300   0.414
 1731SOL    HW2 5730   0.536   3.390   0.436
 1732SOL     OW 5731   1.725   2.256   1.378
 1732SOL    HW1 5732   1.799   2.317   1.385
 1732SOL    HW2 5733   1.751   2.195   1.310
 1733SOL     OW 5734   0.266   3.175   0.311
 1733SOL    HW1 5735   0.186   3.201   0.265
 1733SOL    HW2 5736   0.264   3.226   0.392
 1734SOL     OW 5737   0.108   2.858   1.718
 1734SOL    HW1 5738   0.049   2.854   1.792
 1734SOL    HW2 5739   0.195   2.841   1.755
 1735SOL     OW 5740   0.677   2.058   1.500
 1735SOL    HW1 5741   0.761   2.036   1.459
 1735SOL    HW2 5742   0.700   2.091   1.587
 1736SOL     OW 5743   0.051   2.222   0.035
 1736SOL    HW1 5744   3.962   2.234   0.069
 1736SOL    HW2 5745   0.040   2.222  13.840
 1737SOL     OW 5746   1.426   2.720   1.397
 1737SOL    HW1 5747   1.377   2.781   1.342
 1737SOL    HW2 5748   1.515   2.723   1.362
 1738SOL     OW 5749   0.051   2.038   0.312
 1738SOL    HW1 5750   0.083   2.102   0.248
 1738SOL    HW2 5751   0.111   1.964   0.304
 1739SOL     OW 5752   1.186   3.205   0.123
 1739SOL    HW1 5753   1.091   3.198   0.113
 1739SOL    HW2 5754   1.201   3.193   0.217
 1740SOL     OW 5755   0.620   2.692   1.437
 1740SOL    HW1 5756   0.677   2.768   1.422
 1740SOL    HW2 5757   0.681   2.619   1.444
 1741SOL     OW 5758   1.487   3.644   0.983
 1741SOL    HW1 5759   1.509   3.703   0.911
 1741SOL    HW2 5760   1.571   3.618   1.019
 1742SOL     OW 5761   0.716   2.423   1.702
 1742SOL    HW1 5762   0.762   2.483   1.761
 1742SOL    HW2 5763   0.738   2.336   1.735
 1743SOL     OW 5764   1.474   3.058   1.629
 1743SOL    HW1 5765   1.462   3.072   1.723
 1743SOL    HW2 5766   1.566   3.076   1.613
 1744SOL     OW 5767   0.378   3.609   1.560
 1744SOL    HW1 5768   0.290   3.645   1.548
 1744SOL    HW2 5769   0.363   3.526   1.604
 1745SOL     OW 5770   1.666   2.743   1.253
 1745SOL    HW1 5771   1.659   2.658   1.209
 1745SOL    HW2 5772   1.654   2.807   1.183
 1746SOL     OW 5773   1.218   2.182   0.456
 1746SOL    HW1 5774   1.282   2.111   0.450
 1746SOL    HW2 5775   1.245   2.232   0.533
 1747SOL     OW 5776   0.586   2.597   0.675
 1747SOL    HW1 5777   0.626   2.683   0.660
 1747SOL    HW2 5778   0.522   2.588   0.605
 1748SOL     OW 5779   1.753   2.242   1.659
 1748SOL    HW1 5780   1.745   2.249   1.563
 1748SOL    HW2 5781   1.683   2.182   1.684
 1749SOL     OW 5782   1.750   2.800   1.507
 1749SOL    HW1 5783   1.739   2.895   1.520
 1749SOL    HW2 5784   1.731   2.786   1.414
 1750SOL     OW 5785   0.907   3.262   0.072
 1750SOL    HW1 5786   0.845   3.241   0.141
 1750SOL    HW2 5787   0.857   3.254  13.890
 1751SOL     OW 5788   0.658   3.649   0.931
 1751SOL    HW1 5789   0.638   3.741   0.914
 1751SOL    HW2 5790   0.754   3.645   0.930
 1752SOL     OW 5791   0.869   2.831   0.853
 1752SOL    HW1 5792   0.919   2.759   0.891
 1752SOL    HW2 5793   0.832   2.876   0.928
 1753SOL     OW 5794   1.098   2.875   0.111
 1753SOL    HW1 5795   1.089   2.920   0.027
 1753SOL    HW2 5796   1.171   2.814   0.098
 1754SOL     OW 5797   1.848   3.411   0.841
 1754SOL    HW1 5798   1.769   3.403   0.788
 1754SOL    HW2 5799   1.834   3.352   0.915
 1755SOL     OW 5800   0.229   3.166   1.857
 1755SOL    HW1 5801   0.153   3.115   1.830
 1755SOL    HW2 5802   0.217   3.179   1.951
 1756SOL     OW 5803   0.109   3.145   0.732
 1756SOL    HW1 5804   0.131   3.099   0.812
 1756SOL    HW2 5805   0.102   3.077   0.665
 1757SOL     OW 5806   0.684   3.268   1.632
 1757SOL    HW1 5807   0.604   3.226   1.662
 1757SOL    HW2 5808   0.681   3.356   1.669
 1758SOL     OW 5809   0.440   2.297   0.540
 1758SOL    HW1 5810   0.469   2.225   0.484
 1758SOL    HW2 5811   0.384   2.257   0.606
 1759SOL     OW 5812   1.700   3.345   1.088
 1759SOL    HW1 5813   1.618   3.326   1.041
 1759SOL    HW2 5814   1.705   3.278   1.156
 1760SOL     OW 5815   0.336   2.421   1.292
 1760SOL    HW1 5816   0.389   2.363   1.347
 1760SOL    HW2 5817   0.351   2.389   1.203
 1761SOL     OW 5818   0.830   3.442   0.676
 1761SOL    HW1 5819   0.812   3.502   0.603
 1761SOL    HW2 5820   0.756   3.381   0.676
 1762SOL     OW 5821   1.437   2.094   1.119
 1762SOL    HW1 5822   1.443   2.004   1.154
 1762SOL    HW2 5823   1.382   2.140   1.183
 1763SOL     OW 5824   1.010   1.878   1.137
 1763SOL    HW1 5825   0.956   1.811   1.095
 1763SOL    HW2 5826   1.098   1.840   1.138
 1764SOL     OW 5827   0.781   3.186   0.321
 1764SOL    HW1 5828   0.751   3.096   0.337
 1764SOL    HW2 5829   0.861   3.194   0.373
 1765SOL     OW 5830   0.621   3.415   1.287
 1765SOL    HW1 5831   0.621   3.497   1.336
 1765SOL    HW2 5832   0.709   3.410   1.249
 1766SOL     OW 5833   1.348   1.920   0.167
 1766SOL    HW1 5834   1.380   1.866   0.095
 1766SOL    HW2 5835   1.264   1.881   0.191
 1767SOL     OW 5836   1.299   2.325   0.679
 1767SOL    HW1 5837   1.246   2.404   0.683
 1767SOL    HW2 5838   1.292   2.287   0.767
 1768SOL     OW 5839   1.568   2.049   0.873
 1768SOL    HW1 5840   1.535   2.079   0.957
 1768SOL    HW2 5841   1.585   2.129   0.824
 1769SOL     OW 5842   0.044   2.890   0.256
 1769SOL    HW1 5843   0.137   2.871   0.251
 1769SOL    HW2 5844   0.007   2.817   0.306
 1770SOL     OW 5845   0.894   3.522   0.344
 1770SOL    HW1 5846   0.819   3.493   0.293
 1770SOL    HW2 5847   0.862   3.597   0.394
 1771SOL     OW 5848   0.231   2.488   1.980
 1771SOL    HW1 5849   0.138   2.496   2.001
 1771SOL    HW2 5850   0.232   2.456   1.890
 1772SOL     OW 5851   0.229   2.134   2.849
 1772SOL    HW1 5852   0.250   2.100   2.935
 1772SOL    HW2 5853   0.134   2.127   2.842
 1773SOL     OW 5854   0.006   2.219   2.492
 1773SOL    HW1 5855   3.917   2.238   2.520
 1773SOL    HW2 5856   3.997   2.190   2.401
 1774SOL     OW 5857   0.582   3.154   3.057
 1774SOL    HW1 5858   0.496   3.156   3.015
 1774SOL    HW2 5859   0.595   3.243   3.089
 1775SOL     OW 5860   1.567   3.373   2.571
 1775SOL    HW1 5861   1.525   3.350   2.654
 1775SOL    HW2 5862   1.495   3.376   2.508
 1776SOL     OW 5863   1.133   2.560   2.558
 1776SOL    HW1 5864   1.181   2.642   2.545
 1776SOL    HW2 5865   1.085   2.573   2.640
 1777SOL     OW 5866   1.748   2.478   2.095
 1777SOL    HW1 5867   1.730   2.476   2.001
 1777SOL    HW2 5868   1.758   2.386   2.120
 1778SOL     OW 5869   0.749   2.999   2.906
 1778SOL    HW1 5870   0.687   3.036   2.969
 1778SOL    HW2 5871   0.786   3.075   2.862
 1779SOL     OW 5872   0.873   2.627   3.686
 1779SOL    HW1 5873   0.865   2.697   3.750
 1779SOL    HW2 5874   0.895   2.671   3.604
 1780SOL     OW 5875   0.685   2.861   2.507
 1780SOL    HW1 5876   0.752   2.852   2.575
 1780SOL    HW2 5877   0.616   2.915   2.548
 1781SOL     OW 5878   0.713   3.011   3.681
 1781SOL    HW1 5879   0.761   3.088   3.711
 1781SOL    HW2 5880   0.633   3.046   3.642
 1782SOL     OW 5881   0.351   3.262   2.940
 1782SOL    HW1 5882   0.269   3.245   2.893
 1782SOL    HW2 5883   0.400   3.320   2.882
 1783SOL     OW 5884   1.459   3.364   3.221
 1783SOL    HW1 5885   1.514   3.442   3.231
 1783SOL    HW2 5886   1.391   3.373   3.288
 1784SOL     OW 5887   0.450   2.258   3.346
 1784SOL    HW1 5888   0.526   2.200   3.351
 1784SOL    HW2 5889   0.375   2.201   3.361
 1785SOL     OW 5890   1.605   2.298   2.596
 1785SOL    HW1 5891   1.526   2.321   2.547
 1785SOL    HW2 5892   1.621   2.374   2.652
 1786SOL     OW 5893   0.222   3.572   2.328
 1786SOL    HW1 5894   0.220   3.657   2.372
 1786SOL    HW2 5895   0.298   3.576   2.271
 1787SOL     OW 5896   1.138   3.204   3.556
 1787SOL    HW1 5897   1.179   3.197   3.643
 1787SOL    HW2 5898   1.085   3.124   3.548
 1788SOL     OW 5899   0.253   3.307   2.401
 1788SOL    HW1 5900   0.224   3.397   2.388
 1788SOL    HW2 5901   0.184   3.267   2.455
 1789SOL     OW 5902   0.248   2.927   2.745
 1789SOL    HW1 5903   0.269   2.842   2.784
 1789SOL    HW2 5904   0.195   2.972   2.811
 1790SOL     OW 5905   0.609   3.648   3.287
 1790SOL    HW1 5906   0.527   3.634   3.335
 1790SOL    HW2 5907   0.636   3.737   3.312
 1791SOL     OW 5908   0.575   2.849   2.002
 1791SOL    HW1 5909   0.624   2.893   1.933
 1791SOL    HW2 5910   0.615   2.879   2.083
 1792SOL     OW 5911   1.597   1.995   3.325
 1792SOL    HW1 5912   1.593   2.081   3.285
 1792SOL    HW2 5913   1.585   2.012   3.419
 1793SOL     OW 5914   0.144   2.519   2.435
 1793SOL    HW1 5915   0.087   2.441   2.433
 1793SOL    HW2 5916   0.108   2.573   2.506
 1794SOL     OW 5917   1.844   3.605   2.199
 1794SOL    HW1 5918   1.913   3.582   2.261
 1794SOL    HW2 5919   1.861   3.696   2.176
 1795SOL     OW 5920   0.040   3.451   2.001
 1795SOL    HW1 5921   0.037   3.359   2.029
 1795SOL    HW2 5922   3.955   3.487   2.024
 1796SOL     OW 5923   1.690   2.781   2.506
 1796SOL    HW1 5924   1.770   2.735   2.480
 1796SOL    HW2 5925   1.665   2.832   2.429
 1797SOL     OW 5926   1.648   2.966   2.291
 1797SOL    HW1 5927   1.735   2.967   2.250
 1797SOL    HW2 5928   1.655   3.029   2.363
 1798SOL     OW 5929   0.143   2.614   3.452
 1798SOL    HW1 5930   0.238   2.611   3.446
 1798SOL    HW2 5931   0.124   2.701   3.487
 1799SOL     OW 5932   0.617   3.249   2.596
 1799SOL    HW1 5933   0.570   3.167   2.605
 1799SOL    HW2 5934   0.600   3.277   2.506
 1800SOL     OW 5935   1.286   3.098   3.283
 1800SOL    HW1 5936   1.317   3.030   3.223
 1800SOL    HW2 5937   1.345   3.093   3.358
 1801SOL     OW 5938   0.823   1.864   2.376
 1801SOL    HW1 5939   0.863   1.947   2.352
 1801SOL    HW2 5940   0.729   1.882   2.380
 1802SOL     OW 5941   0.183   2.811   3.143
 1802SOL    HW1 5942   0.272   2.775   3.131
 1802SOL    HW2 5943   0.133   2.775   3.070
 1803SOL     OW 5944   1.531   2.861   2.062
 1803SOL    HW1 5945   1.462   2.803   2.094
 1803SOL    HW2 5946   1.574   2.894   2.141
 1804SOL     OW 5947   1.222   3.668   3.491
 1804SOL    HW1 5948   1.196   3.729   3.422
 1804SOL    HW2 5949   1.222   3.582   3.448
 1805SOL     OW 5950   0.344   2.109   3.681
 1805SOL    HW1 5951   0.378   2.198   3.688
 1805SOL    HW2 5952   0.251   2.117   3.705
 1806SOL     OW 5953   1.466   3.281   2.810
 1806SOL    HW1 5954   1.400   3.297   2.877
 1806SOL    HW2 5955   1.453   3.190   2.784
 1807SOL     OW 5956   1.652   3.604   2.443
 1807SOL    HW1 5957   1.639   3.572   2.354
 1807SOL    HW2 5958   1.631   3.529   2.499
 1808SOL     OW 5959   0.596   2.576   2.129
 1808SOL    HW1 5960   0.602   2.661   2.086
 1808SOL    HW2 5961   0.533   2.589   2.200
 1809SOL     OW 5962   1.280   2.227   2.798
 1809SOL    HW1 5963   1.192   2.191   2.807
 1809SOL    HW2 5964   1.335   2.170   2.852
 1810SOL     OW 5965   1.576   3.538   2.171
 1810SOL    HW1 5966   1.669   3.559   2.165
 1810SOL    HW2 5967   1.550   3.520   2.081
 1811SOL     OW 5968   0.791   2.480   3.311
 1811SOL    HW1 5969   0.765   2.454   3.399
 1811SOL    HW2 5970   0.756   2.411   3.254
 1812SOL     OW 5971   1.392   2.335   3.539
 1812SOL    HW1 5972   1.395   2.382   3.622
 1812SOL    HW2 5973   1.454   2.263   3.549
 1813SOL     OW 5974   0.950   2.747   3.447
 1813SOL    HW1 5975   1.006   2.679   3.409
 1813SOL    HW2 5976   0.902   2.783   3.373
 1814SOL     OW 5977   0.994   2.272   3.097
 1814SOL    HW1 5978   0.905   2.290   3.127
 1814SOL    HW2 5979   0.982   2.229   3.012
 1815SOL     OW 5980   1.054   2.561   2.287
 1815SOL    HW1 5981   1.071   2.554   2.381
 1815SOL    HW2 5982   0.971   2.514   2.275
 1816SOL     OW 5983   0.083   2.693   2.651
 1816SOL    HW1 5984   0.155   2.661   2.706
 1816SOL    HW2 5985   0.104   2.785   2.635
 1817SOL     OW 5986   0.127   3.720   3.443
 1817SOL    HW1 5987   0.135   3.688   3.533
 1817SOL    HW2 5988   0.035   3.706   3.421
 1818SOL     OW 5989   0.898   2.212   2.056
 1818SOL    HW1 5990   0.938   2.276   1.997
 1818SOL    HW2 5991   0.914   2.128   2.014
 1819SOL     OW 5992   1.665   2.444   3.699
 1819SOL    HW1 5993   1.644   2.515   3.638
 1819SOL    HW2 5994   1.715   2.382   3.646
 1820SOL     OW 5995   1.380   3.004   2.402
 1820SOL    HW1 5996   1.459   2.992   2.349
 1820SOL    HW2 5997   1.327   3.066   2.352
 1821SOL     OW 5998   0.547   2.039   2.758
 1821SOL    HW1 5999   0.554   2.072   2.847
 1821SOL    HW2 6000   0.546   2.118   2.704
 1822SOL     OW 6001   1.001   3.307   2.331
 1822SOL    HW1 6002   0.967   3.382   2.282
 1822SOL    HW2 6003   0.979   3.326   2.422
 1823SOL     OW 6004   0.359   3.673   2.726
 1823SOL    HW1 6005   0.440   3.623   2.740
 1823SOL    HW2 6006   0.386   3.764   2.735
 1824SOL     OW 6007   1.801   2.914   2.733
 1824SOL    HW1 6008   1.749   2.894   2.655
 1824SOL    HW2 6009   1.736   2.921   2.803
 1825SOL     OW 6010   1.227   3.400   3.373
 1825SOL    HW1 6011   1.215   3.328   3.435
 1825SOL    HW2 6012   1.157   3.388   3.309
 1826SOL     OW 6013   0.311   2.814   2.105
 1826SOL    HW1 6014   0.394   2.837   2.062
 1826SOL    HW2 6015   0.299   2.721   2.085
 1827SOL     OW 6016   1.481   2.612   2.586
 1827SOL    HW1 6017   1.477   2.569   2.671
 1827SOL    HW2 6018   1.560   2.665   2.589
 1828SOL     OW 6019   0.470   3.123   3.599
 1828SOL    HW1 6020   0.444   3.131   3.507
 1828SOL    HW2 6021   0.388   3.125   3.647
 1829SOL     OW 6022   1.113   3.644   2.082
 1829SOL    HW1 6023   1.048   3.598   2.135
 1829SOL    HW2 6024   1.145   3.577   2.021
 1830SOL     OW 6025   0.204   2.131   3.370
 1830SOL    HW1 6026   0.114   2.165   3.366
 1830SOL    HW2 6027   0.195   2.043   3.406
 1831SOL     OW 6028   1.627   3.244   1.954
 1831SOL    HW1 6029   1.587   3.329   1.936
 1831SOL    HW2 6030   1.559   3.180   1.932
 1832SOL     OW 6031   0.466   3.603   2.183
 1832SOL    HW1 6032   0.506   3.664   2.245
 1832SOL    HW2 6033   0.540   3.573   2.129
 1833SOL     OW 6034   1.396   1.965   2.297
 1833SOL    HW1 6035   1.381   1.945   2.205
 1833SOL    HW2 6036   1.489   1.946   2.311
 1834SOL     OW 6037   0.256   3.657   3.086
 1834SOL    HW1 6038   0.297   3.588   3.138
 1834SOL    HW2 6039   0.253   3.621   2.997
 1835SOL     OW 6040   0.938   3.564   2.760
 1835SOL    HW1 6041   1.016   3.513   2.784
 1835SOL    HW2 6042   0.896   3.514   2.691
 1836SOL     OW 6043   0.400   2.554   2.332
 1836SOL    HW1 6044   0.424   2.463   2.348
 1836SOL    HW2 6045   0.309   2.560   2.359
 1837SOL     OW 6046   1.533   2.087   3.587
 1837SOL    HW1 6047   1.545   2.106   3.680
 1837SOL    HW2 6048   1.461   2.023   3.585
 1838SOL     OW 6049   0.647   1.978   1.957
 1838SOL    HW1 6050   0.705   1.905   1.979
 1838SOL    HW2 6051   0.596   1.947   1.883
 1839SOL     OW 6052   0.765   2.141   3.617
 1839SOL    HW1 6053   0.845   2.089   3.613
 1839SOL    HW2 6054   0.719   2.109   3.695
 1840SOL     OW 6055   0.876   3.383   3.056
 1840SOL    HW1 6056   0.858   3.346   2.970
 1840SOL    HW2 6057   0.945   3.328   3.093
 1841SOL     OW 6058   1.339   2.451   3.294
 1841SOL    HW1 6059   1.370   2.420   3.380
 1841SOL    HW2 6060   1.376   2.539   3.287
 1842SOL     OW 6061   0.818   3.251   2.806
 1842SOL    HW1 6062   0.903   3.240   2.764
 1842SOL    HW2 6063   0.756   3.256   2.733
 1843SOL     OW 6064   0.929   2.371   2.763
 1843SOL    HW1 6065   0.904   2.363   2.671
 1843SOL    HW2 6066   0.960   2.284   2.788
 1844SOL     OW 6067   0.559   1.924   2.355
 1844SOL    HW1 6068   0.477   1.929   2.404
 1844SOL    HW2 6069   0.562   2.006   2.305
 1845SOL     OW 6070   1.428   3.062   1.901
 1845SOL    HW1 6071   1.458   2.987   1.952
 1845SOL    HW2 6072   1.342   3.084   1.938
 1846SOL     OW 6073   0.309   1.913   2.031
 1846SOL    HW1 6074   0.372   1.951   1.970
 1846SOL    HW2 6075   0.360   1.848   2.080
 1847SOL     OW 6076   0.941   2.110   2.319
 1847SOL    HW1 6077   0.914   2.150   2.236
 1847SOL    HW2 6078   1.035   2.127   2.323
 1848SOL     OW 6079   1.081   2.546   3.319
 1848SOL    HW1 6080   1.015   2.476   3.324
 1848SOL    HW2 6081   1.164   2.499   3.314
 1849SOL     OW 6082   1.220   3.434   2.656
 1849SOL    HW1 6083   1.234   3.500   2.589
 1849SOL    HW2 6084   1.290   3.449   2.720
 1850SOL     OW 6085   0.467   3.014   2.594
 1850SOL    HW1 6086   0.397   2.989   2.655
 1850SOL    HW2 6087   0.431   2.998   2.507
 1851SOL     OW 6088   1.264   3.655   2.471
 1851SOL    HW1 6089   1.313   3.719   2.421
 1851SOL    HW2 6090   1.191   3.704   2.508
 1852SOL     OW 6091   1.024   2.398   1.888
 1852SOL    HW1 6092   0.981   2.481   1.869
 1852SOL    HW2 6093   1.091   2.419   1.953
 1853SOL     OW 6094   0.084   2.436   3.251
 1853SOL    HW1 6095   0.173   2.423   3.221
 1853SOL    HW2 6096   0.090   2.505   3.317
 1854SOL     OW 6097   0.566   2.089   3.030
 1854SOL    HW1 6098   0.608   2.015   3.074
 1854SOL    HW2 6099   0.475   2.085   3.058
 1855SOL     OW 6100   0.867   2.319   2.501
 1855SOL    HW1 6101   0.820   2.374   2.438
 1855SOL    HW2 6102   0.888   2.240   2.453
 1856SOL     OW 6103   1.018   1.916   2.611
 1856SOL    HW1 6104   0.959   1.911   2.535
 1856SOL    HW2 6105   0.993   1.841   2.665
 1857SOL     OW 6106   1.439   3.023   2.718
 1857SOL    HW1 6107   1.368   2.958   2.719
 1857SOL    HW2 6108   1.463   3.031   2.626
 1858SOL     OW 6109   1.464   2.471   2.831
 1858SOL    HW1 6110   1.409   2.393   2.834
 1858SOL    HW2 6111   1.522   2.462   2.907
 1859SOL     OW 6112   1.842   2.679   2.249
 1859SOL    HW1 6113   1.902   2.628   2.303
 1859SOL    HW2 6114   1.809   2.617   2.184
 1860SOL     OW 6115   0.488   3.283   2.019
 1860SOL    HW1 6116   0.411   3.254   2.069
 1860SOL    HW2 6117   0.473   3.250   1.931
 1861SOL     OW 6118   1.675   3.126   2.504
 1861SOL    HW1 6119   1.770   3.126   2.519
 1861SOL    HW2 6120   1.647   3.215   2.526
 1862SOL     OW 6121   1.389   2.439   1.928
 1862SOL    HW1 6122   1.339   2.413   2.005
 1862SOL    HW2 6123   1.480   2.422   1.952
 1863SOL     OW 6124   0.575   2.129   2.177
 1863SOL    HW1 6125   0.608   2.083   2.100
 1863SOL    HW2 6126   0.543   2.213   2.143
 1864SOL     OW 6127   1.750   3.105   3.426
 1864SOL    HW1 6128   1.837   3.065   3.423
 1864SOL    HW2 6129   1.765   3.195   3.454
 1865SOL     OW 6130   1.055   3.214   3.193
 1865SOL    HW1 6131   0.979   3.183   3.244
 1865SOL    HW2 6132   1.130   3.173   3.235
 1866SOL     OW 6133   1.610   3.489   3.520
 1866SOL    HW1 6134   1.601   3.523   3.431
 1866SOL    HW2 6135   1.692   3.440   3.519
 1867SOL     OW 6136   1.134   3.070   2.964
 1867SOL    HW1 6137   1.074   3.108   3.029
 1867SOL    HW2 6138   1.103   3.105   2.880
 1868SOL     OW 6139   1.624   2.959   2.937
 1868SOL    HW1 6140   1.618   3.021   3.009
 1868SOL    HW2 6141   1.547   2.977   2.883
 1869SOL     OW 6142   0.918   1.956   3.254
 1869SOL    HW1 6143   0.942   1.937   3.163
 1869SOL    HW2 6144   0.997   1.996   3.291
 1870SOL     OW 6145   0.984   2.977   3.584
 1870SOL    HW1 6146   0.893   2.993   3.608
 1870SOL    HW2 6147   0.981   2.898   3.530
 1871SOL     OW 6148   0.708   2.923   2.233
 1871SOL    HW1 6149   0.694   2.904   2.326
 1871SOL    HW2 6150   0.784   2.870   2.209
 1872SOL     OW 6151   0.423   2.680   3.115
 1872SOL    HW1 6152   0.491   2.689   3.182
 1872SOL    HW2 6153   0.389   2.591   3.126
 1873SOL     OW 6154   1.264   2.236   3.142
 1873SOL    HW1 6155   1.296   2.314   3.187
 1873SOL    HW2 6156   1.174   2.257   3.119
 1874SOL     OW 6157   0.065   3.441   3.207
 1874SOL    HW1 6158   0.071   3.485   3.122
 1874SOL    HW2 6159   0.157   3.432   3.235
 1875SOL     OW 6160   0.365   2.964   2.343
 1875SOL    HW1 6161   0.363   3.046   2.293
 1875SOL    HW2 6162   0.366   2.895   2.277
 1876SOL     OW 6163   0.547   2.396   2.723
 1876SOL    HW1 6164   0.561   2.453   2.648
 1876SOL    HW2 6165   0.615   2.421   2.786
 1877SOL     OW 6166   1.247   3.212   2.252
 1877SOL    HW1 6167   1.303   3.283   2.284
 1877SOL    HW2 6168   1.160   3.233   2.285
 1878SOL     OW 6169   1.288   3.322   3.010
 1878SOL    HW1 6170   1.343   3.327   3.088
 1878SOL    HW2 6171   1.232   3.246   3.025
 1879SOL     OW 6172   1.573   2.480   2.340
 1879SOL    HW1 6173   1.529   2.538   2.403
 1879SOL    HW2 6174   1.618   2.540   2.281
 1880SOL     OW 6175   0.345   3.391   3.178
 1880SOL    HW1 6176   0.335   3.340   3.098
 1880SOL    HW2 6177   0.439   3.405   3.187
 1881SOL     OW 6178   0.419   2.599   3.464
 1881SOL    HW1 6179   0.482   2.644   3.407
 1881SOL    HW2 6180   0.458   2.514   3.481
 1882SOL     OW 6181   1.604   2.650   3.539
 1882SOL    HW1 6182   1.519   2.693   3.533
 1882SOL    HW2 6183   1.657   2.693   3.472
 1883SOL     OW 6184   0.996   1.994   3.615
 1883SOL    HW1 6185   1.055   2.066   3.594
 1883SOL    HW2 6186   1.045   1.915   3.590
 1884SOL     OW 6187   0.497   1.896   3.609
 1884SOL    HW1 6188   0.452   1.844   3.542
 1884SOL    HW2 6189   0.443   1.975   3.619
 1885SOL     OW 6190   0.586   2.736   2.894
 1885SOL    HW1 6191   0.620   2.826   2.896
 1885SOL    HW2 6192   0.530   2.731   2.972
 1886SOL     OW 6193   1.350   2.720   2.885
 1886SOL    HW1 6194   1.264   2.706   2.844
 1886SOL    HW2 6195   1.395   2.636   2.875
 1887SOL     OW 6196   1.201   2.388   2.126
 1887SOL    HW1 6197   1.209   2.311   2.182
 1887SOL    HW2 6198   1.159   2.454   2.182
 1888SOL     OW 6199   0.309   2.057   3.109
 1888SOL    HW1 6200   0.263   2.093   3.184
 1888SOL    HW2 6201   0.287   1.964   3.109
 1889SOL     OW 6202   0.062   3.167   3.142
 1889SOL    HW1 6203   0.092   3.125   3.223
 1889SOL    HW2 6204   0.053   3.260   3.166
 1890SOL     OW 6205   0.722   2.492   2.916
 1890SOL    HW1 6206   0.798   2.478   2.860
 1890SOL    HW2 6207   0.694   2.581   2.896
 1891SOL     OW 6208   1.737   2.822   3.717
 1891SOL    HW1 6209   1.693   2.755   3.664
 1891SOL    HW2 6210   1.677   2.837   3.790
 1892SOL     OW 6211   0.316   1.923   2.482
 1892SOL    HW1 6212   0.293   2.014   2.502
 1892SOL    HW2 6213   0.323   1.880   2.567
 1893SOL     OW 6214   1.609   2.232   2.237
 1893SOL    HW1 6215   1.612   2.184   2.319
 1893SOL    HW2 6216   1.590   2.322   2.263
 1894SOL     OW 6217   1.029   2.620   2.820
 1894SOL    HW1 6218   1.021   2.637   2.914
 1894SOL    HW2 6219   1.003   2.529   2.810
 1895SOL     OW 6220   0.986   3.430   3.584
 1895SOL    HW1 6221   0.966   3.470   3.500
 1895SOL    HW2 6222   1.028   3.347   3.562
 1896SOL     OW 6223   1.852   3.364   3.465
 1896SOL    HW1 6224   1.873   3.392   3.376
 1896SOL    HW2 6225   1.932   3.379   3.515
 1897SOL     OW 6226   0.354   2.784   3.661
 1897SOL    HW1 6227   0.432   2.806   3.712
 1897SOL    HW2 6228   0.384   2.717   3.600
 1898SOL     OW 6229   1.529   2.129   1.991
 1898SOL    HW1 6230   1.462   2.067   2.019
 1898SOL    HW2 6231   1.561   2.169   2.072
 1899SOL     OW 6232   1.286   2.689   1.890
 1899SOL    HW1 6233   1.327   2.603   1.894
 1899SOL    HW2 6234   1.319   2.727   1.809
 1900SOL     OW 6235   1.068   3.200   2.718
 1900SOL    HW1 6236   1.073   3.128   2.655
 1900SOL    HW2 6237   1.127   3.267   2.682
 1901SOL     OW 6238   0.313   2.663   2.812
 1901SOL    HW1 6239   0.407   2.680   2.806
 1901SOL    HW2 6240   0.308   2.572   2.843
 1902SOL     OW 6241   0.328   2.383   2.877
 1902SOL    HW1 6242   0.294   2.295   2.861
 1902SOL    HW2 6243   0.404   2.390   2.819
 1903SOL     OW 6244   1.134   2.234   3.548
 1903SOL    HW1 6245   1.087   2.289   3.610
 1903SOL    HW2 6246   1.222   2.273   3.544
 1904SOL     OW 6247   1.160   2.061   3.334
 1904SOL    HW1 6248   1.149   2.123   3.405
 1904SOL    HW2 6249   1.202   2.111   3.264
 1905SOL     OW 6250   0.000   3.177   2.044
 1905SOL    HW1 6251   3.906   3.193   2.048
 1905SOL    HW2 6252   0.009   3.084   2.062
 1906SOL     OW 6253   0.076   3.662   2.757
 1906SOL    HW1 6254   0.094   3.569   2.752
 1906SOL    HW2 6255   0.162   3.703   2.758
 1907SOL     OW 6256   0.506   3.423   2.780
 1907SOL    HW1 6257   0.571   3.491   2.799
 1907SOL    HW2 6258   0.548   3.366   2.716
 1908SOL     OW 6259   0.975   2.650   3.086
 1908SOL    HW1 6260   1.034   2.631   3.158
 1908SOL    HW2 6261   0.891   2.612   3.112
 1909SOL     OW 6262   0.038   2.423   2.971
 1909SOL    HW1 6263   0.121   2.401   2.929
 1909SOL    HW2 6264   0.057   2.419   3.065
 1910SOL     OW 6265   0.206   2.373   3.590
 1910SOL    HW1 6266   0.244   2.324   3.517
 1910SOL    HW2 6267   0.163   2.448   3.548
 1911SOL     OW 6268   1.375   2.799   3.517
 1911SOL    HW1 6269   1.398   2.892   3.514
 1911SOL    HW2 6270   1.371   2.772   3.426
 1912SOL     OW 6271   0.819   2.431   2.226
 1912SOL    HW1 6272   0.824   2.356   2.167
 1912SOL    HW2 6273   0.745   2.482   2.194
 1913SOL     OW 6274   1.641   2.465   3.041
 1913SOL    HW1 6275   1.631   2.412   3.120
 1913SOL    HW2 6276   1.728   2.442   3.007
 1914SOL     OW 6277   0.301   3.406   3.585
 1914SOL    HW1 6278   0.254   3.475   3.631
 1914SOL    HW2 6279   0.272   3.325   3.627
 1915SOL     OW 6280   0.712   2.309   3.117
 1915SOL    HW1 6281   0.657   2.236   3.089
 1915SOL    HW2 6282   0.704   2.373   3.045
 1916SOL     OW 6283   0.926   3.532   3.332
 1916SOL    HW1 6284   0.899   3.493   3.249
 1916SOL    HW2 6285   0.918   3.626   3.318
 1917SOL     OW 6286   0.451   2.350   2.059
 1917SOL    HW1 6287   0.517   2.417   2.077
 1917SOL    HW2 6288   0.372   2.399   2.036
 1918SOL     OW 6289   0.154   2.996   3.339
 1918SOL    HW1 6290   0.154   2.946   3.420
 1918SOL    HW2 6291   0.170   2.931   3.270
 1919SOL     OW 6292   1.322   2.906   3.081
 1919SOL    HW1 6293   1.343   2.842   3.013
 1919SOL    HW2 6294   1.255   2.962   3.042
 1920SOL     OW 6295   1.315   2.719   2.166
 1920SOL    HW1 6296   1.241   2.686   2.217
 1920SOL    HW2 6297   1.289   2.705   2.075
 1921SOL     OW 6298   1.774   3.599   3.015
 1921SOL    HW1 6299   1.837   3.627   2.948
 1921SOL    HW2 6300   1.752   3.509   2.990
 1922SOL     OW 6301   1.244   3.594   2.968
 1922SOL    HW1 6302   1.328   3.616   2.926
 1922SOL    HW2 6303   1.252   3.501   2.988
 1923SOL     OW 6304   0.077   3.075   2.890
 1923SOL    HW1 6305   0.084   3.103   2.981
 1923SOL    HW2 6306   3.985   3.088   2.868
 1924SOL     OW 6307   0.680   3.528   3.599
 1924SOL    HW1 6308   0.621   3.604   3.602
 1924SOL    HW2 6309   0.741   3.549   3.528
 1925SOL     OW 6310   1.391   3.431   2.351
 1925SOL    HW1 6311   1.450   3.465   2.284
 1925SOL    HW2 6312   1.342   3.507   2.381
 1926SOL     OW 6313   0.172   3.620   3.695
 1926SOL    HW1 6314   0.118   3.567   3.753
 1926SOL    HW2 6315   0.218   3.681   3.754
 1927SOL     OW 6316   1.277   2.790   2.533
 1927SOL    HW1 6317   1.351   2.730   2.544
 1927SOL    HW2 6318   1.312   2.861   2.479
 1928SOL     OW 6319   0.806   3.137   3.288
 1928SOL    HW1 6320   0.778   3.179   3.369
 1928SOL    HW2 6321   0.735   3.154   3.226
 1929SOL     OW 6322   0.674   3.481   2.021
 1929SOL    HW1 6323   0.684   3.498   1.927
 1929SOL    HW2 6324   0.615   3.406   2.025
 1930SOL     OW 6325   1.620   3.589   3.252
 1930SOL    HW1 6326   1.673   3.593   3.172
 1930SOL    HW2 6327   1.606   3.680   3.276
 1931SOL     OW 6328   0.264   2.173   2.577
 1931SOL    HW1 6329   0.178   2.205   2.552
 1931SOL    HW2 6330   0.260   2.165   2.672
 1932SOL     OW 6331   1.208   3.464   1.899
 1932SOL    HW1 6332   1.197   3.372   1.923
 1932SOL    HW2 6333   1.147   3.477   1.826
 1933SOL     OW 6334   0.823   2.868   3.237
 1933SOL    HW1 6335   0.868   2.862   3.152
 1933SOL    HW2 6336   0.820   2.962   3.256
 1934SOL     OW 6337   0.916   2.772   2.153
 1934SOL    HW1 6338   0.975   2.805   2.086
 1934SOL    HW2 6339   0.966   2.704   2.199
 1935SOL     OW 6340   1.488   3.493   1.905
 1935SOL    HW1 6341   1.395   3.481   1.889
 1935SOL    HW2 6342   1.528   3.498   1.818
 1936SOL     OW 6343   0.374   3.164   3.353
 1936SOL    HW1 6344   0.359   3.245   3.303
 1936SOL    HW2 6345   0.297   3.111   3.336
 1937SOL     OW 6346   1.608   3.146   3.142
 1937SOL    HW1 6347   1.668   3.131   3.215
 1937SOL    HW2 6348   1.548   3.213   3.173
 1938SOL     OW 6349   1.059   2.972   2.572
 1938SOL    HW1 6350   0.987   2.921   2.609
 1938SOL    HW2 6351   1.123   2.906   2.545
 1939SOL     OW 6352   1.025   2.104   2.829
 1939SOL    HW1 6353   1.021   2.057   2.745
 1939SOL    HW2 6354   1.019   2.035   2.895
 1940SOL     OW 6355   0.607   3.352   2.342
 1940SOL    HW1 6356   0.654   3.302   2.275
 1940SOL    HW2 6357   0.533   3.391   2.295
 1941SOL     OW 6358   1.725   2.257   3.240
 1941SOL    HW1 6359   1.799   2.317   3.247
 1941SOL    HW2 6360   1.752   2.194   3.174
 1942SOL     OW 6361   0.254   3.202   2.154
 1942SOL    HW1 6362   0.160   3.208   2.136
 1942SOL    HW2 6363   0.265   3.241   2.241
 1943SOL     OW 6364   0.108   2.859   3.579
 1943SOL    HW1 6365   0.049   2.854   3.654
 1943SOL    HW2 6366   0.195   2.842   3.617
 1944SOL     OW 6367   0.677   2.058   3.362
 1944SOL    HW1 6368   0.761   2.036   3.321
 1944SOL    HW2 6369   0.700   2.091   3.449
 1945SOL     OW 6370   0.081   2.173   1.899
 1945SOL    HW1 6371   3.985   2.173   1.908
 1945SOL    HW2 6372   0.101   2.254   1.853
 1946SOL     OW 6373   1.426   2.720   3.259
 1946SOL    HW1 6374   1.377   2.781   3.204
 1946SOL    HW2 6375   1.515   2.722   3.224
 1947SOL     OW 6376   0.015   2.104   2.240
 1947SOL    HW1 6377   0.045   2.167   2.175
 1947SOL    HW2 6378   0.095   2.061   2.271
 1948SOL     OW 6379   1.177   3.197   1.979
 1948SOL    HW1 6380   1.086   3.169   1.980
 1948SOL    HW2 6381   1.204   3.197   2.071
 1949SOL     OW 6382   0.620   2.692   3.299
 1949SOL    HW1 6383   0.677   2.768   3.284
 1949SOL    HW2 6384   0.681   2.619   3.306
 1950SOL     OW 6385   1.487   3.643   2.844
 1950SOL    HW1 6386   1.509   3.705   2.774
 1950SOL    HW2 6387   1.571   3.619   2.882
 1951SOL     OW 6388   0.716   2.423   3.564
 1951SOL    HW1 6389   0.762   2.483   3.623
 1951SOL    HW2 6390   0.738   2.336   3.597
 1952SOL     OW 6391   1.474   3.058   3.491
 1952SOL    HW1 6392   1.462   3.072   3.585
 1952SOL    HW2 6393   1.566   3.076   3.475
 1953SOL     OW 6394   0.377   3.609   3.422
 1953SOL    HW1 6395   0.289   3.645   3.410
 1953SOL    HW2 6396   0.363   3.526   3.466
 1954SOL     OW 6397   1.666   2.742   3.115
 1954SOL    HW1 6398   1.659   2.657   3.072
 1954SOL    HW2 6399   1.654   2.806   3.044
 1955SOL     OW 6400   1.215   2.181   2.320
 1955SOL    HW1 6401   1.277   2.109   2.313
 1955SOL    HW2 6402   1.244   2.231   2.396
 1956SOL     OW 6403   0.587   2.598   2.536
 1956SOL    HW1 6404   0.627   2.684   2.521
 1956SOL    HW2 6405   0.523   2.589   2.466
 1957SOL     OW 6406   1.752   2.242   3.520
 1957SOL    HW1 6407   1.744   2.250   3.425
 1957SOL    HW2 6408   1.682   2.182   3.545
 1958SOL     OW 6409   1.750   2.801   3.369
 1958SOL    HW1 6410   1.739   2.895   3.381
 1958SOL    HW2 6411   1.731   2.786   3.276
 1959SOL     OW 6412   0.865   3.228   1.904
 1959SOL    HW1 6413   0.824   3.256   1.986
 1959SOL    HW2 6414   0.878   3.309   1.855
 1960SOL     OW 6415   0.658   3.649   2.793
 1960SOL    HW1 6416   0.638   3.741   2.776
 1960SOL    HW2 6417   0.754   3.645   2.793
 1961SOL     OW 6418   0.869   2.831   2.715
 1961SOL    HW1 6419   0.919   2.759   2.753
 1961SOL    HW2 6420   0.832   2.876   2.790
 1962SOL     OW 6421   1.075   2.850   1.950
 1962SOL    HW1 6422   1.055   2.902   1.873
 1962SOL    HW2 6423   1.150   2.796   1.925
 1963SOL     OW 6424   1.848   3.411   2.702
 1963SOL    HW1 6425   1.767   3.401   2.652
 1963SOL    HW2 6426   1.838   3.350   2.776
 1964SOL     OW 6427   0.229   3.166   3.719
 1964SOL    HW1 6428   0.153   3.115   3.692
 1964SOL    HW2 6429   0.217   3.179   3.813
 1965SOL     OW 6430   0.120   3.144   2.586
 1965SOL    HW1 6431   0.139   3.092   2.665
 1965SOL    HW2 6432   0.104   3.079   2.518
 1966SOL     OW 6433   0.684   3.268   3.494
 1966SOL    HW1 6434   0.604   3.226   3.524
 1966SOL    HW2 6435   0.681   3.356   3.531
 1967SOL     OW 6436   0.440   2.295   2.396
 1967SOL    HW1 6437   0.441   2.225   2.331
 1967SOL    HW2 6438   0.385   2.262   2.467
 1968SOL     OW 6439   1.699   3.346   2.951
 1968SOL    HW1 6440   1.618   3.326   2.904
 1968SOL    HW2 6441   1.705   3.278   3.019
 1969SOL     OW 6442   0.337   2.421   3.154
 1969SOL    HW1 6443   0.389   2.363   3.209
 1969SOL    HW2 6444   0.350   2.389   3.065
 1970SOL     OW 6445   0.830   3.441   2.538
 1970SOL    HW1 6446   0.810   3.498   2.463
 1970SOL    HW2 6447   0.756   3.380   2.542
 1971SOL     OW 6448   1.437   2.093   2.981
 1971SOL    HW1 6449   1.443   2.004   3.016
 1971SOL    HW2 6450   1.383   2.140   3.045
 1972SOL     OW 6451   1.010   1.878   2.999
 1972SOL    HW1 6452   0.956   1.811   2.956
 1972SOL    HW2 6453   1.098   1.840   3.000
 1973SOL     OW 6454   0.773   3.194   2.183
 1973SOL    HW1 6455   0.745   3.103   2.190
 1973SOL    HW2 6456   0.856   3.198   2.232
 1974SOL     OW 6457   0.621   3.415   3.149
 1974SOL    HW1 6458   0.621   3.497   3.198
 1974SOL    HW2 6459   0.709   3.410   3.111
 1975SOL     OW 6460   1.351   1.914   2.031
 1975SOL    HW1 6461   1.384   1.849   1.969
 1975SOL    HW2 6462   1.263   1.884   2.053
 1976SOL     OW 6463   1.297   2.324   2.541
 1976SOL    HW1 6464   1.245   2.404   2.545
 1976SOL    HW2 6465   1.292   2.288   2.629
 1977SOL     OW 6466   1.568   2.048   2.734
 1977SOL    HW1 6467   1.535   2.078   2.819
 1977SOL    HW2 6468   1.584   2.129   2.685
 1978SOL     OW 6469   0.047   2.909   2.103
 1978SOL    HW1 6470   0.142   2.894   2.095
 1978SOL    HW2 6471   0.012   2.824   2.127
 1979SOL     OW 6472   0.887   3.524   2.203
 1979SOL    HW1 6473   0.815   3.504   2.143
 1979SOL    HW2 6474   0.856   3.597   2.256
 1980SOL     OW 6475   0.231   2.489   3.842
 1980SOL    HW1 6476   0.138   2.496   3.863
 1980SOL    HW2 6477   0.232   2.456   3.752
 1981SOL     OW 6478   0.229   2.135   4.711
 1981SOL    HW1 6479   0.250   2.100   4.797
 1981SOL    HW2 6480   0.134   2.127   4.704
 1982SOL     OW 6481   0.006   2.219   4.354
 1982SOL    HW1 6482   3.917   2.238   4.382
 1982SOL    HW2 6483   3.997   2.190   4.263
 1983SOL     OW 6484   0.582   3.154   4.919
 1983SOL    HW1 6485   0.496   3.156   4.877
 1983SOL    HW2 6486   0.595   3.243   4.951
 1984SOL     OW 6487   1.567   3.373   4.433
 1984SOL    HW1 6488   1.524   3.350   4.516
 1984SOL    HW2 6489   1.495   3.376   4.370
 1985SOL     OW 6490   1.133   2.560   4.420
 1985SOL    HW1 6491   1.181   2.642   4.407
 1985SOL    HW2 6492   1.085   2.572   4.502
 1986SOL     OW 6493   1.749   2.477   3.957
 1986SOL    HW1 6494   1.730   2.475   3.863
 1986SOL    HW2 6495   1.757   2.385   3.982
 1987SOL     OW 6496   0.749   2.999   4.768
 1987SOL    HW1 6497   0.687   3.036   4.831
 1987SOL    HW2 6498   0.786   3.075   4.724
 1988SOL     OW 6499   0.873   2.627   5.547
 1988SOL    HW1 6500   0.866   2.697   5.612
 1988SOL    HW2 6501   0.895   2.671   5.466
 1989SOL     OW 6502   0.685   2.861   4.369
 1989SOL    HW1 6503   0.752   2.852   4.437
 1989SOL    HW2 6504   0.616   2.915   4.410
 1990SOL     OW 6505   0.713   3.011   5.543
 1990SOL    HW1 6506   0.761   3.088   5.573
 1990SOL    HW2 6507   0.633   3.046   5.504
 1991SOL     OW 6508   0.350   3.262   4.802
 1991SOL    HW1 6509   0.269   3.245   4.755
 1991SOL    HW2 6510   0.400   3.320   4.745
 1992SOL     OW 6511   1.459   3.364   5.083
 1992SOL    HW1 6512   1.514   3.442   5.093
 1992SOL    HW2 6513   1.391   3.373   5.150
 1993SOL     OW 6514   0.450   2.258   5.208
 1993SOL    HW1 6515   0.526   2.200   5.213
 1993SOL    HW2 6516   0.375   2.201   5.223
 1994SOL     OW 6517   1.605   2.299   4.458
 1994SOL    HW1 6518   1.525   2.321   4.410
 1994SOL    HW2 6519   1.619   2.374   4.515
 1995SOL     OW 6520   0.222   3.572   4.190
 1995SOL    HW1 6521   0.220   3.657   4.234
 1995SOL    HW2 6522   0.298   3.576   4.133
 1996SOL     OW 6523   1.138   3.204   5.418
 1996SOL    HW1 6524   1.179   3.197   5.505
 1996SOL    HW2 6525   1.085   3.124   5.410
 1997SOL     OW 6526   0.253   3.307   4.263
 1997SOL    HW1 6527   0.224   3.397   4.250
 1997SOL    HW2 6528   0.184   3.267   4.317
 1998SOL     OW 6529   0.248   2.927   4.607
 1998SOL    HW1 6530   0.269   2.842   4.646
 1998SOL    HW2 6531   0.195   2.972   4.673
 1999SOL     OW 6532   0.609   3.648   5.149
 1999SOL    HW1 6533   0.527   3.634   5.197
 1999SOL    HW2 6534   0.636   3.737   5.174
 2000SOL     OW 6535   0.575   2.849   3.864
 2000SOL    HW1 6536   0.624   2.893   3.795
 2000SOL    HW2 6537   0.615   2.879   3.945
 2001SOL     OW 6538   1.596   1.995   5.186
 2001SOL    HW1 6539   1.592   2.081   5.146
 2001SOL    HW2 6540   1.583   2.011   5.279
 2002SOL     OW 6541   0.144   2.519   4.297
 2002SOL    HW1 6542   0.087   2.441   4.295
 2002SOL    HW2 6543   0.108   2.572   4.368
 2003SOL     OW 6544   1.844   3.605   4.061
 2003SOL    HW1 6545   1.913   3.582   4.123
 2003SOL    HW2 6546   1.861   3.696   4.038
 2004SOL     OW 6547   0.040   3.451   3.863
 2004SOL    HW1 6548   0.037   3.359   3.891
 2004SOL    HW2 6549   3.955   3.487   3.886
 2005SOL     OW 6550   1.690   2.781   4.368
 2005SOL    HW1 6551   1.770   2.735   4.342
 2005SOL    HW2 6552   1.665   2.832   4.291
 2006SOL     OW 6553   1.648   2.966   4.153
 2006SOL    HW1 6554   1.735   2.967   4.112
 2006SOL    HW2 6555   1.655   3.029   4.225
 2007SOL     OW 6556   0.143   2.614   5.314
 2007SOL    HW1 6557   0.238   2.611   5.308
 2007SOL    HW2 6558   0.124   2.701   5.349
 2008SOL     OW 6559   0.617   3.249   4.458
 2008SOL    HW1 6560   0.570   3.167   4.467
 2008SOL    HW2 6561   0.600   3.277   4.368
 2009SOL     OW 6562   1.286   3.098   5.145
 2009SOL    HW1 6563   1.317   3.030   5.085
 2009SOL    HW2 6564   1.345   3.093   5.220
 2010SOL     OW 6565   0.823   1.864   4.238
 2010SOL    HW1 6566   0.863   1.947   4.214
 2010SOL    HW2 6567   0.729   1.882   4.242
 2011SOL     OW 6568   0.183   2.811   5.005
 2011SOL    HW1 6569   0.272   2.775   4.993
 2011SOL    HW2 6570   0.133   2.775   4.932
 2012SOL     OW 6571   1.531   2.861   3.924
 2012SOL    HW1 6572   1.462   2.803   3.956
 2012SOL    HW2 6573   1.574   2.894   4.003
 2013SOL     OW 6574   1.222   3.667   5.353
 2013SOL    HW1 6575   1.196   3.729   5.284
 2013SOL    HW2 6576   1.222   3.582   5.310
 2014SOL     OW 6577   0.344   2.109   5.543
 2014SOL    HW1 6578   0.378   2.198   5.550
 2014SOL    HW2 6579   0.251   2.117   5.567
 2015SOL     OW 6580   1.466   3.281   4.672
 2015SOL    HW1 6581   1.400   3.297   4.739
 2015SOL    HW2 6582   1.453   3.190   4.646
 2016SOL     OW 6583   1.652   3.604   4.305
 2016SOL    HW1 6584   1.639   3.572   4.216
 2016SOL    HW2 6585   1.631   3.529   4.361
 2017SOL     OW 6586   0.596   2.576   3.991
 2017SOL    HW1 6587   0.602   2.661   3.948
 2017SOL    HW2 6588   0.533   2.589   4.062
 2018SOL     OW 6589   1.280   2.227   4.660
 2018SOL    HW1 6590   1.191   2.191   4.670
 2018SOL    HW2 6591   1.335   2.170   4.713
 2019SOL     OW 6592   1.576   3.538   4.033
 2019SOL    HW1 6593   1.669   3.559   4.027
 2019SOL    HW2 6594   1.550   3.520   3.943
 2020SOL     OW 6595   0.790   2.480   5.173
 2020SOL    HW1 6596   0.764   2.454   5.261
 2020SOL    HW2 6597   0.755   2.411   5.116
 2021SOL     OW 6598   1.392   2.333   5.398
 2021SOL    HW1 6599   1.396   2.381   5.481
 2021SOL    HW2 6600   1.453   2.260   5.410
 2022SOL     OW 6601   0.951   2.747   5.309
 2022SOL    HW1 6602   1.006   2.679   5.271
 2022SOL    HW2 6603   0.902   2.783   5.235
 2023SOL     OW 6604   0.994   2.272   4.958
 2023SOL    HW1 6605   0.905   2.290   4.989
 2023SOL    HW2 6606   0.981   2.229   4.874
 2024SOL     OW 6607   1.054   2.561   4.149
 2024SOL    HW1 6608   1.071   2.554   4.243
 2024SOL    HW2 6609   0.971   2.514   4.137
 2025SOL     OW 6610   0.083   2.693   4.513
 2025SOL    HW1 6611   0.155   2.661   4.568
 2025SOL    HW2 6612   0.104   2.785   4.497
 2026SOL     OW 6613   0.127   3.720   5.305
 2026SOL    HW1 6614   0.135   3.688   5.395
 2026SOL    HW2 6615   0.035   3.707   5.283
 2027SOL     OW 6616   0.898   2.212   3.918
 2027SOL    HW1 6617   0.938   2.276   3.859
 2027SOL    HW2 6618   0.914   2.128   3.876
 2028SOL     OW 6619   1.665   2.443   5.565
 2028SOL    HW1 6620   1.645   2.514   5.504
 2028SOL    HW2 6621   1.717   2.382   5.513
 2029SOL     OW 6622   1.380   3.004   4.264
 2029SOL    HW1 6623   1.459   2.992   4.211
 2029SOL    HW2 6624   1.327   3.066   4.214
 2030SOL     OW 6625   0.547   2.039   4.620
 2030SOL    HW1 6626   0.554   2.072   4.709
 2030SOL    HW2 6627   0.546   2.118   4.566
 2031SOL     OW 6628   1.001   3.307   4.193
 2031SOL    HW1 6629   0.967   3.382   4.144
 2031SOL    HW2 6630   0.979   3.326   4.284
 2032SOL     OW 6631   0.359   3.673   4.588
 2032SOL    HW1 6632   0.440   3.623   4.602
 2032SOL    HW2 6633   0.386   3.764   4.597
 2033SOL     OW 6634   1.801   2.914   4.595
 2033SOL    HW1 6635   1.749   2.894   4.517
 2033SOL    HW2 6636   1.736   2.921   4.665
 2034SOL     OW 6637   1.227   3.400   5.235
 2034SOL    HW1 6638   1.215   3.328   5.297
 2034SOL    HW2 6639   1.157   3.388   5.171
 2035SOL     OW 6640   0.311   2.814   3.967
 2035SOL    HW1 6641   0.394   2.837   3.924
 2035SOL    HW2 6642   0.299   2.721   3.947
 2036SOL     OW 6643   1.481   2.612   4.448
 2036SOL    HW1 6644   1.477   2.569   4.533
 2036SOL    HW2 6645   1.560   2.665   4.451
 2037SOL     OW 6646   0.470   3.123   5.461
 2037SOL    HW1 6647   0.444   3.131   5.369
 2037SOL    HW2 6648   0.388   3.125   5.509
 2038SOL     OW 6649   1.113   3.644   3.944
 2038SOL    HW1 6650   1.048   3.598   3.997
 2038SOL    HW2 6651   1.145   3.577   3.883
 2039SOL     OW 6652   0.204   2.131   5.232
 2039SOL    HW1 6653   0.114   2.165   5.228
 2039SOL    HW2 6654   0.195   2.043   5.268
 2040SOL     OW 6655   1.627   3.244   3.816
 2040SOL    HW1 6656   1.587   3.329   3.798
 2040SOL    HW2 6657   1.559   3.180   3.794
 2041SOL     OW 6658   0.466   3.603   4.045
 2041SOL    HW1 6659   0.506   3.664   4.107
 2041SOL    HW2 6660   0.540   3.573   3.991
 2042SOL     OW 6661   1.396   1.965   4.159
 2042SOL    HW1 6662   1.381   1.945   4.067
 2042SOL    HW2 6663   1.489   1.944   4.174
 2043SOL     OW 6664   0.256   3.657   4.948
 2043SOL    HW1 6665   0.297   3.588   5.000
 2043SOL    HW2 6666   0.253   3.621   4.859
 2044SOL     OW 6667   0.938   3.564   4.622
 2044SOL    HW1 6668   1.016   3.513   4.646
 2044SOL    HW2 6669   0.896   3.514   4.553
 2045SOL     OW 6670   0.400   2.554   4.194
 2045SOL    HW1 6671   0.424   2.463   4.210
 2045SOL    HW2 6672   0.309   2.560   4.221
 2046SOL     OW 6673   1.530   2.084   5.445
 2046SOL    HW1 6674   1.544   2.105   5.538
 2046SOL    HW2 6675   1.459   2.020   5.445
 2047SOL     OW 6676   0.648   1.978   3.819
 2047SOL    HW1 6677   0.705   1.905   3.841
 2047SOL    HW2 6678   0.596   1.947   3.745
 2048SOL     OW 6679   0.764   2.141   5.479
 2048SOL    HW1 6680   0.845   2.089   5.475
 2048SOL    HW2 6681   0.720   2.110   5.557
 2049SOL     OW 6682   0.876   3.383   4.918
 2049SOL    HW1 6683   0.858   3.346   4.832
 2049SOL    HW2 6684   0.945   3.328   4.955
 2050SOL     OW 6685   1.339   2.451   5.156
 2050SOL    HW1 6686   1.370   2.419   5.240
 2050SOL    HW2 6687   1.376   2.540   5.149
 2051SOL     OW 6688   0.818   3.251   4.668
 2051SOL    HW1 6689   0.903   3.240   4.626
 2051SOL    HW2 6690   0.756   3.256   4.595
 2052SOL     OW 6691   0.929   2.371   4.625
 2052SOL    HW1 6692   0.904   2.363   4.533
 2052SOL    HW2 6693   0.960   2.284   4.650
 2053SOL     OW 6694   0.559   1.924   4.217
 2053SOL    HW1 6695   0.477   1.929   4.266
 2053SOL    HW2 6696   0.562   2.006   4.167
 2054SOL     OW 6697   1.428   3.062   3.763
 2054SOL    HW1 6698   1.458   2.987   3.814
 2054SOL    HW2 6699   1.342   3.084   3.800
 2055SOL     OW 6700   0.309   1.913   3.893
 2055SOL    HW1 6701   0.372   1.951   3.832
 2055SOL    HW2 6702   0.360   1.848   3.942
 2056SOL     OW 6703   0.941   2.110   4.181
 2056SOL    HW1 6704   0.914   2.150   4.098
 2056SOL    HW2 6705   1.036   2.127   4.185
 2057SOL     OW 6706   1.081   2.546   5.181
 2057SOL    HW1 6707   1.015   2.476   5.186
 2057SOL    HW2 6708   1.164   2.499   5.175
 2058SOL     OW 6709   1.220   3.434   4.518
 2058SOL    HW1 6710   1.234   3.500   4.451
 2058SOL    HW2 6711   1.290   3.449   4.582
 2059SOL     OW 6712   0.467   3.014   4.456
 2059SOL    HW1 6713   0.397   2.989   4.516
 2059SOL    HW2 6714   0.431   2.998   4.369
 2060SOL     OW 6715   1.264   3.655   4.333
 2060SOL    HW1 6716   1.313   3.719   4.283
 2060SOL    HW2 6717   1.191   3.704   4.370
 2061SOL     OW 6718   1.024   2.398   3.750
 2061SOL    HW1 6719   0.981   2.481   3.731
 2061SOL    HW2 6720   1.091   2.419   3.815
 2062SOL     OW 6721   0.084   2.436   5.113
 2062SOL    HW1 6722   0.174   2.423   5.083
 2062SOL    HW2 6723   0.090   2.505   5.179
 2063SOL     OW 6724   0.567   2.089   4.892
 2063SOL    HW1 6725   0.608   2.015   4.936
 2063SOL    HW2 6726   0.475   2.085   4.920
 2064SOL     OW 6727   0.867   2.319   4.363
 2064SOL    HW1 6728   0.820   2.374   4.300
 2064SOL    HW2 6729   0.888   2.240   4.315
 2065SOL     OW 6730   1.018   1.916   4.473
 2065SOL    HW1 6731   0.959   1.911   4.397
 2065SOL    HW2 6732   0.993   1.841   4.527
 2066SOL     OW 6733   1.439   3.023   4.580
 2066SOL    HW1 6734   1.368   2.958   4.581
 2066SOL    HW2 6735   1.463   3.031   4.488
 2067SOL     OW 6736   1.465   2.470   4.693
 2067SOL    HW1 6737   1.409   2.393   4.696
 2067SOL    HW2 6738   1.522   2.462   4.769
 2068SOL     OW 6739   1.842   2.679   4.111
 2068SOL    HW1 6740   1.902   2.629   4.165
 2068SOL    HW2 6741   1.810   2.617   4.045
 2069SOL     OW 6742   0.488   3.283   3.881
 2069SOL    HW1 6743   0.411   3.254   3.931
 2069SOL    HW2 6744   0.473   3.250   3.793
 2070SOL     OW 6745   1.676   3.126   4.366
 2070SOL    HW1 6746   1.770   3.126   4.381
 2070SOL    HW2 6747   1.647   3.215   4.388
 2071SOL     OW 6748   1.389   2.439   3.790
 2071SOL    HW1 6749   1.339   2.413   3.867
 2071SOL    HW2 6750   1.480   2.423   3.813
 2072SOL     OW 6751   0.575   2.129   4.039
 2072SOL    HW1 6752   0.608   2.083   3.962
 2072SOL    HW2 6753   0.543   2.213   4.005
 2073SOL     OW 6754   1.750   3.104   5.288
 2073SOL    HW1 6755   1.837   3.066   5.284
 2073SOL    HW2 6756   1.765   3.195   5.316
 2074SOL     OW 6757   1.055   3.214   5.055
 2074SOL    HW1 6758   0.979   3.183   5.106
 2074SOL    HW2 6759   1.130   3.173   5.097
 2075SOL     OW 6760   1.610   3.489   5.382
 2075SOL    HW1 6761   1.601   3.523   5.293
 2075SOL    HW2 6762   1.693   3.440   5.381
 2076SOL     OW 6763   1.134   3.071   4.826
 2076SOL    HW1 6764   1.074   3.108   4.891
 2076SOL    HW2 6765   1.104   3.105   4.742
 2077SOL     OW 6766   1.624   2.958   4.799
 2077SOL    HW1 6767   1.618   3.021   4.871
 2077SOL    HW2 6768   1.547   2.977   4.745
 2078SOL     OW 6769   0.918   1.956   5.116
 2078SOL    HW1 6770   0.942   1.937   5.025
 2078SOL    HW2 6771   0.997   1.995   5.153
 2079SOL     OW 6772   0.984   2.978   5.446
 2079SOL    HW1 6773   0.893   2.993   5.470
 2079SOL    HW2 6774   0.981   2.899   5.392
 2080SOL     OW 6775   0.708   2.923   4.095
 2080SOL    HW1 6776   0.694   2.904   4.188
 2080SOL    HW2 6777   0.784   2.870   4.071
 2081SOL     OW 6778   0.423   2.680   4.977
 2081SOL    HW1 6779   0.491   2.689   5.044
 2081SOL    HW2 6780   0.389   2.591   4.988
 2082SOL     OW 6781   1.264   2.236   5.005
 2082SOL    HW1 6782   1.296   2.314   5.049
 2082SOL    HW2 6783   1.173   2.257   4.982
 2083SOL     OW 6784   0.066   3.441   5.069
 2083SOL    HW1 6785   0.071   3.485   4.984
 2083SOL    HW2 6786   0.157   3.432   5.097
 2084SOL     OW 6787   0.365   2.965   4.205
 2084SOL    HW1 6788   0.363   3.046   4.154
 2084SOL    HW2 6789   0.366   2.895   4.139
 2085SOL     OW 6790   0.547   2.396   4.585
 2085SOL    HW1 6791   0.561   2.453   4.510
 2085SOL    HW2 6792   0.615   2.421   4.648
 2086SOL     OW 6793   1.247   3.212   4.114
 2086SOL    HW1 6794   1.303   3.283   4.146
 2086SOL    HW2 6795   1.160   3.233   4.147
 2087SOL     OW 6796   1.288   3.322   4.872
 2087SOL    HW1 6797   1.343   3.327   4.950
 2087SOL    HW2 6798   1.232   3.246   4.887
 2088SOL     OW 6799   1.573   2.481   4.202
 2088SOL    HW1 6800   1.529   2.538   4.266
 2088SOL    HW2 6801   1.618   2.541   4.143
 2089SOL     OW 6802   0.345   3.391   5.041
 2089SOL    HW1 6803   0.335   3.340   4.960
 2089SOL    HW2 6804   0.439   3.405   5.049
 2090SOL     OW 6805   0.419   2.599   5.326
 2090SOL    HW1 6806   0.482   2.644   5.269
 2090SOL    HW2 6807   0.458   2.514   5.343
 2091SOL     OW 6808   1.606   2.650   5.402
 2091SOL    HW1 6809   1.520   2.692   5.397
 2091SOL    HW2 6810   1.658   2.693   5.334
 2092SOL     OW 6811   0.996   1.994   5.477
 2092SOL    HW1 6812   1.055   2.066   5.456
 2092SOL    HW2 6813   1.045   1.915   5.452
 2093SOL     OW 6814   0.497   1.895   5.472
 2093SOL    HW1 6815   0.452   1.844   5.404
 2093SOL    HW2 6816   0.443   1.975   5.481
 2094SOL     OW 6817   0.586   2.736   4.756
 2094SOL    HW1 6818   0.620   2.826   4.758
 2094SOL    HW2 6819   0.530   2.731   4.834
 2095SOL     OW 6820   1.350   2.720   4.747
 2095SOL    HW1 6821   1.264   2.706   4.706
 2095SOL    HW2 6822   1.395   2.636   4.737
 2096SOL     OW 6823   1.201   2.388   3.989
 2096SOL    HW1 6824   1.209   2.311   4.044
 2096SOL    HW2 6825   1.159   2.453   4.044
 2097SOL     OW 6826   0.309   2.057   4.971
 2097SOL    HW1 6827   0.263   2.093   5.046
 2097SOL    HW2 6828   0.287   1.964   4.971
 2098SOL     OW 6829   0.062   3.167   5.005
 2098SOL    HW1 6830   0.092   3.125   5.085
 2098SOL    HW2 6831   0.053   3.260   5.028
 2099SOL     OW 6832   0.722   2.492   4.778
 2099SOL    HW1 6833   0.798   2.478   4.722
 2099SOL    HW2 6834   0.694   2.581   4.758
 2100SOL     OW 6835   1.737   2.821   5.581
 2100SOL    HW1 6836   1.696   2.755   5.526
 2100SOL    HW2 6837   1.674   2.837   5.651
 2101SOL     OW 6838   0.316   1.923   4.344
 2101SOL    HW1 6839   0.293   2.014   4.364
 2101SOL    HW2 6840   0.323   1.880   4.429
 2102SOL     OW 6841   1.610   2.233   4.099
 2102SOL    HW1 6842   1.609   2.183   4.181
 2102SOL    HW2 6843   1.591   2.323   4.125
 2103SOL     OW 6844   1.029   2.620   4.682
 2103SOL    HW1 6845   1.021   2.637   4.776
 2103SOL    HW2 6846   1.003   2.529   4.672
 2104SOL     OW 6847   0.986   3.430   5.446
 2104SOL    HW1 6848   0.966   3.470   5.362
 2104SOL    HW2 6849   1.028   3.347   5.424
 2105SOL     OW 6850   1.852   3.363   5.327
 2105SOL    HW1 6851   1.873   3.392   5.238
 2105SOL    HW2 6852   1.933   3.379   5.377
 2106SOL     OW 6853   0.354   2.784   5.523
 2106SOL    HW1 6854   0.432   2.806   5.574
 2106SOL    HW2 6855   0.384   2.717   5.462
 2107SOL     OW 6856   1.529   2.129   3.853
 2107SOL    HW1 6857   1.462   2.068   3.881
 2107SOL    HW2 6858   1.561   2.169   3.934
 2108SOL     OW 6859   1.286   2.690   3.752
 2108SOL    HW1 6860   1.327   2.603   3.756
 2108SOL    HW2 6861   1.319   2.728   3.671
 2109SOL     OW 6862   1.068   3.200   4.580
 2109SOL    HW1 6863   1.073   3.128   4.517
 2109SOL    HW2 6864   1.127   3.267   4.544
 2110SOL     OW 6865   0.313   2.663   4.674
 2110SOL    HW1 6866   0.407   2.680   4.668
 2110SOL    HW2 6867   0.308   2.572   4.705
 2111SOL     OW 6868   0.328   2.383   4.739
 2111SOL    HW1 6869   0.294   2.295   4.723
 2111SOL    HW2 6870   0.404   2.390   4.682
 2112SOL     OW 6871   1.134   2.234   5.410
 2112SOL    HW1 6872   1.087   2.290   5.472
 2112SOL    HW2 6873   1.222   2.273   5.405
 2113SOL     OW 6874   1.160   2.060   5.196
 2113SOL    HW1 6875   1.149   2.123   5.268
 2113SOL    HW2 6876   1.202   2.111   5.127
 2114SOL     OW 6877   0.000   3.177   3.906
 2114SOL    HW1 6878   3.906   3.193   3.910
 2114SOL    HW2 6879   0.009   3.084   3.924
 2115SOL     OW 6880   0.076   3.662   4.619
 2115SOL    HW1 6881   0.094   3.569   4.614
 2115SOL    HW2 6882   0.162   3.704   4.620
 2116SOL     OW 6883   0.506   3.423   4.642
 2116SOL    HW1 6884   0.571   3.491   4.661
 2116SOL    HW2 6885   0.548   3.366   4.578
 2117SOL     OW 6886   0.975   2.650   4.948
 2117SOL    HW1 6887   1.034   2.630   5.020
 2117SOL    HW2 6888   0.891   2.611   4.974
 2118SOL     OW 6889   0.038   2.423   4.833
 2118SOL    HW1 6890   0.121   2.401   4.790
 2118SOL    HW2 6891   0.057   2.419   4.927
 2119SOL     OW 6892   0.206   2.373   5.452
 2119SOL    HW1 6893   0.244   2.324   5.379
 2119SOL    HW2 6894   0.163   2.448   5.410
 2120SOL     OW 6895   1.376   2.800   5.379
 2120SOL    HW1 6896   1.399   2.893   5.375
 2120SOL    HW2 6897   1.372   2.772   5.288
 2121SOL     OW 6898   0.819   2.431   4.088
 2121SOL    HW1 6899   0.825   2.356   4.029
 2121SOL    HW2 6900   0.745   2.482   4.056
 2122SOL     OW 6901   1.642   2.465   4.903
 2122SOL    HW1 6902   1.632   2.411   4.982
 2122SOL    HW2 6903   1.728   2.442   4.869
 2123SOL     OW 6904   0.301   3.406   5.447
 2123SOL    HW1 6905   0.254   3.475   5.493
 2123SOL    HW2 6906   0.272   3.325   5.489
 2124SOL     OW 6907   0.712   2.309   4.979
 2124SOL    HW1 6908   0.657   2.236   4.951
 2124SOL    HW2 6909   0.704   2.373   4.908
 2125SOL     OW 6910   0.926   3.532   5.194
 2125SOL    HW1 6911   0.899   3.493   5.111
 2125SOL    HW2 6912   0.918   3.626   5.180
 2126SOL     OW 6913   0.451   2.350   3.921
 2126SOL    HW1 6914   0.517   2.417   3.939
 2126SOL    HW2 6915   0.372   2.399   3.898
 2127SOL     OW 6916   0.154   2.996   5.201
 2127SOL    HW1 6917   0.154   2.946   5.282
 2127SOL    HW2 6918   0.170   2.931   5.132
 2128SOL     OW 6919   1.322   2.906   4.943
 2128SOL    HW1 6920   1.343   2.842   4.875
 2128SOL    HW2 6921   1.255   2.962   4.904
 2129SOL     OW 6922   1.315   2.719   4.028
 2129SOL    HW1 6923   1.241   2.686   4.079
 2129SOL    HW2 6924   1.289   2.705   3.937
 2130SOL     OW 6925   1.774   3.599   4.877
 2130SOL    HW1 6926   1.837   3.627   4.810
 2130SOL    HW2 6927   1.752   3.509   4.852
 2131SOL     OW 6928   1.244   3.594   4.830
 2131SOL    HW1 6929   1.328   3.616   4.788
 2131SOL    HW2 6930   1.252   3.501   4.850
 2132SOL     OW 6931   0.077   3.075   4.752
 2132SOL    HW1 6932   0.084   3.103   4.844
 2132SOL    HW2 6933   3.985   3.088   4.730
 2133SOL     OW 6934   0.680   3.528   5.461
 2133SOL    HW1 6935   0.621   3.604   5.464
 2133SOL    HW2 6936   0.741   3.549   5.390
 2134SOL     OW 6937   1.391   3.431   4.213
 2134SOL    HW1 6938   1.450   3.465   4.146
 2134SOL    HW2 6939   1.342   3.507   4.243
 2135SOL     OW 6940   0.172   3.620   5.557
 2135SOL    HW1 6941   0.118   3.567   5.615
 2135SOL    HW2 6942   0.218   3.681   5.616
 2136SOL     OW 6943   1.277   2.790   4.395
 2136SOL    HW1 6944   1.351   2.730   4.406
 2136SOL    HW2 6945   1.312   2.861   4.341
 2137SOL     OW 6946   0.806   3.137   5.150
 2137SOL    HW1 6947   0.778   3.179   5.231
 2137SOL    HW2 6948   0.735   3.154   5.088
 2138SOL     OW 6949   0.674   3.481   3.883
 2138SOL    HW1 6950   0.684   3.498   3.789
 2138SOL    HW2 6951   0.615   3.406   3.887
 2139SOL     OW 6952   1.620   3.589   5.114
 2139SOL    HW1 6953   1.673   3.593   5.034
 2139SOL    HW2 6954   1.606   3.680   5.138
 2140SOL     OW 6955   0.264   2.174   4.439
 2140SOL    HW1 6956   0.178   2.205   4.414
 2140SOL    HW2 6957   0.260   2.165   4.534
 2141SOL     OW 6958   1.208   3.464   3.761
 2141SOL    HW1 6959   1.197   3.372   3.785
 2141SOL    HW2 6960   1.147   3.477   3.688
 2142SOL     OW 6961   0.823   2.868   5.099
 2142SOL    HW1 6962   0.868   2.862   5.014
 2142SOL    HW2 6963   0.820   2.962   5.118
 2143SOL     OW 6964   0.916   2.772   4.015
 2143SOL    HW1 6965   0.975   2.805   3.948
 2143SOL    HW2 6966   0.966   2.704   4.061
 2144SOL     OW 6967   1.488   3.493   3.768
 2144SOL    HW1 6968   1.395   3.481   3.751
 2144SOL    HW2 6969   1.528   3.498   3.680
 2145SOL     OW 6970   0.374   3.164   5.215
 2145SOL    HW1 6971   0.359   3.245   5.165
 2145SOL    HW2 6972   0.297   3.111   5.198
 2146SOL     OW 6973   1.608   3.146   5.004
 2146SOL    HW1 6974   1.668   3.131   5.077
 2146SOL    HW2 6975   1.548   3.213   5.035
 2147SOL     OW 6976   1.059   2.972   4.434
 2147SOL    HW1 6977   0.987   2.921   4.471
 2147SOL    HW2 6978   1.123   2.906   4.407
 2148SOL     OW 6979   1.024   2.104   4.691
 2148SOL    HW1 6980   1.021   2.057   4.607
 2148SOL    HW2 6981   1.019   2.035   4.757
 2149SOL     OW 6982   0.607   3.352   4.204
 2149SOL    HW1 6983   0.654   3.302   4.137
 2149SOL    HW2 6984   0.533   3.391   4.157
 2150SOL     OW 6985   1.726   2.256   5.102
 2150SOL    HW1 6986   1.800   2.317   5.109
 2150SOL    HW2 6987   1.755   2.190   5.039
 2151SOL     OW 6988   0.254   3.202   4.016
 2151SOL    HW1 6989   0.160   3.208   3.998
 2151SOL    HW2 6990   0.265   3.241   4.103
 2152SOL     OW 6991   0.109   2.859   5.441
 2152SOL    HW1 6992   0.049   2.854   5.516
 2152SOL    HW2 6993   0.195   2.842   5.479
 2153SOL     OW 6994   0.677   2.057   5.224
 2153SOL    HW1 6995   0.761   2.036   5.183
 2153SOL    HW2 6996   0.699   2.091   5.311
 2154SOL     OW 6997   0.081   2.173   3.761
 2154SOL    HW1 6998   3.985   2.173   3.770
 2154SOL    HW2 6999   0.101   2.254   3.715
 2155SOL     OW 7000   1.426   2.720   5.121
 2155SOL    HW1 7001   1.377   2.781   5.066
 2155SOL    HW2 7002   1.515   2.723   5.086
 2156SOL     OW 7003   0.015   2.104   4.102
 2156SOL    HW1 7004   0.045   2.167   4.037
 2156SOL    HW2 7005   0.095   2.061   4.133
 2157SOL     OW 7006   1.177   3.197   3.841
 2157SOL    HW1 7007   1.086   3.168   3.842
 2157SOL    HW2 7008   1.204   3.197   3.933
 2158SOL     OW 7009   0.620   2.693   5.161
 2158SOL    HW1 7010   0.677   2.768   5.146
 2158SOL    HW2 7011   0.681   2.619   5.168
 2159SOL     OW 7012   1.487   3.643   4.706
 2159SOL    HW1 7013   1.509   3.705   4.636
 2159SOL    HW2 7014   1.571   3.619   4.744
 2160SOL     OW 7015   0.716   2.423   5.427
 2160SOL    HW1 7016   0.762   2.483   5.485
 2160SOL    HW2 7017   0.739   2.336   5.459
 2161SOL     OW 7018   1.474   3.058   5.353
 2161SOL    HW1 7019   1.461   3.073   5.446
 2161SOL    HW2 7020   1.567   3.077   5.337
 2162SOL     OW 7021   0.377   3.609   5.284
 2162SOL    HW1 7022   0.289   3.645   5.272
 2162SOL    HW2 7023   0.364   3.526   5.328
 2163SOL     OW 7024   1.666   2.742   4.977
 2163SOL    HW1 7025   1.660   2.657   4.934
 2163SOL    HW2 7026   1.654   2.806   4.907
 2164SOL     OW 7027   1.215   2.181   4.182
 2164SOL    HW1 7028   1.277   2.109   4.175
 2164SOL    HW2 7029   1.244   2.231   4.258
 2165SOL     OW 7030   0.587   2.598   4.398
 2165SOL    HW1 7031   0.627   2.684   4.383
 2165SOL    HW2 7032   0.523   2.589   4.328
 2166SOL     OW 7033   1.752   2.239   5.381
 2166SOL    HW1 7034   1.743   2.249   5.287
 2166SOL    HW2 7035   1.681   2.180   5.406
 2167SOL     OW 7036   1.751   2.801   5.231
 2167SOL    HW1 7037   1.739   2.895   5.243
 2167SOL    HW2 7038   1.732   2.786   5.138
 2168SOL     OW 7039   0.865   3.228   3.766
 2168SOL    HW1 7040   0.824   3.256   3.848
 2168SOL    HW2 7041   0.878   3.309   3.717
 2169SOL     OW 7042   0.658   3.649   4.655
 2169SOL    HW1 7043   0.638   3.741   4.638
 2169SOL    HW2 7044   0.754   3.645   4.655
 2170SOL     OW 7045   0.869   2.831   4.577
 2170SOL    HW1 7046   0.919   2.759   4.615
 2170SOL    HW2 7047   0.832   2.876   4.652
 2171SOL     OW 7048   1.075   2.850   3.812
 2171SOL    HW1 7049   1.055   2.902   3.735
 2171SOL    HW2 7050   1.150   2.797   3.787
 2172SOL     OW 7051   1.848   3.411   4.564
 2172SOL    HW1 7052   1.767   3.401   4.514
 2172SOL    HW2 7053   1.838   3.350   4.638
 2173SOL     OW 7054   0.229   3.166   5.581
 2173SOL    HW1 7055   0.153   3.115   5.554
 2173SOL    HW2 7056   0.217   3.179   5.675
 2174SOL     OW 7057   0.120   3.144   4.448
 2174SOL    HW1 7058   0.139   3.092   4.527
 2174SOL    HW2 7059   0.104   3.079   4.380
 2175SOL     OW 7060   0.684   3.268   5.356
 2175SOL    HW1 7061   0.604   3.226   5.386
 2175SOL    HW2 7062   0.681   3.356   5.393
 2176SOL     OW 7063   0.440   2.295   4.258
 2176SOL    HW1 7064   0.441   2.225   4.193
 2176SOL    HW2 7065   0.385   2.262   4.329
 2177SOL     OW 7066   1.699   3.346   4.813
 2177SOL    HW1 7067   1.618   3.326   4.766
 2177SOL    HW2 7068   1.705   3.278   4.881
 2178SOL     OW 7069   0.337   2.421   5.016
 2178SOL    HW1 7070   0.389   2.363   5.071
 2178SOL    HW2 7071   0.350   2.389   4.927
 2179SOL     OW 7072   0.830   3.441   4.400
 2179SOL    HW1 7073   0.810   3.498   4.325
 2179SOL    HW2 7074   0.756   3.380   4.404
 2180SOL     OW 7075   1.437   2.093   4.843
 2180SOL    HW1 7076   1.443   2.004   4.878
 2180SOL    HW2 7077   1.382   2.140   4.907
 2181SOL     OW 7078   1.010   1.878   4.861
 2181SOL    HW1 7079   0.956   1.811   4.818
 2181SOL    HW2 7080   1.098   1.840   4.862
 2182SOL     OW 7081   0.773   3.194   4.045
 2182SOL    HW1 7082   0.745   3.103   4.052
 2182SOL    HW2 7083   0.856   3.197   4.094
 2183SOL     OW 7084   0.621   3.415   5.011
 2183SOL    HW1 7085   0.621   3.497   5.060
 2183SOL    HW2 7086   0.709   3.410   4.973
 2184SOL     OW 7087   1.351   1.914   3.893
 2184SOL    HW1 7088   1.384   1.849   3.831
 2184SOL    HW2 7089   1.263   1.884   3.915
 2185SOL     OW 7090   1.298   2.324   4.403
 2185SOL    HW1 7091   1.245   2.404   4.407
 2185SOL    HW2 7092   1.292   2.288   4.491
 2186SOL     OW 7093   1.567   2.048   4.596
 2186SOL    HW1 7094   1.534   2.078   4.681
 2186SOL    HW2 7095   1.584   2.129   4.547
 2187SOL     OW 7096   0.048   2.909   3.965
 2187SOL    HW1 7097   0.142   2.894   3.957
 2187SOL    HW2 7098   0.012   2.824   3.989
 2188SOL     OW 7099   0.887   3.524   4.065
 2188SOL    HW1 7100   0.815   3.504   4.005
 2188SOL    HW2 7101   0.856   3.598   4.118
 2189SOL     OW 7102   0.231   2.489   5.704
 2189SOL    HW1 7103   0.138   2.496   5.725
 2189SOL    HW2 7104   0.232   2.456   5.614
 2190SOL     OW 7105   0.229   2.135   6.572
 2190SOL    HW1 7106   0.250   2.100   6.659
 2190SOL    HW2 7107   0.134   2.127   6.566
 2191SOL     OW 7108   0.007   2.220   6.216
 2191SOL    HW1 7109   3.917   2.238   6.244
 2191SOL    HW2 7110   3.998   2.191   6.125
 2192SOL     OW 7111   0.581   3.154   6.781
 2192SOL    HW1 7112   0.495   3.156   6.739
 2192SOL    HW2 7113   0.595   3.243   6.812
 2193SOL     OW 7114   1.564   3.380   6.300
 2193SOL    HW1 7115   1.523   3.354   6.382
 2193SOL    HW2 7116   1.493   3.380   6.236
 2194SOL     OW 7117   1.118   2.582   6.277
 2194SOL    HW1 7118   1.182   2.654   6.271
 2194SOL    HW2 7119   1.082   2.589   6.365
 2195SOL     OW 7120   1.753   2.470   5.828
 2195SOL    HW1 7121   1.736   2.466   5.734
 2195SOL    HW2 7122   1.741   2.380   5.859
 2196SOL     OW 7123   0.749   2.999   6.630
 2196SOL    HW1 7124   0.687   3.036   6.693
 2196SOL    HW2 7125   0.786   3.075   6.586
 2197SOL     OW 7126   0.869   2.632   7.410
 2197SOL    HW1 7127   0.869   2.703   7.475
 2197SOL    HW2 7128   0.895   2.675   7.328
 2198SOL     OW 7129   0.685   2.862   6.232
 2198SOL    HW1 7130   0.752   2.852   6.300
 2198SOL    HW2 7131   0.617   2.915   6.272
 2199SOL     OW 7132   0.713   3.011   7.404
 2199SOL    HW1 7133   0.761   3.088   7.434
 2199SOL    HW2 7134   0.633   3.046   7.366
 2200SOL     OW 7135   0.350   3.262   6.664
 2200SOL    HW1 7136   0.269   3.245   6.616
 2200SOL    HW2 7137   0.401   3.320   6.607
 2201SOL     OW 7138   1.458   3.366   6.946
 2201SOL    HW1 7139   1.512   3.445   6.956
 2201SOL    HW2 7140   1.389   3.375   7.013
 2202SOL     OW 7141   0.449   2.258   7.070
 2202SOL    HW1 7142   0.525   2.200   7.075
 2202SOL    HW2 7143   0.374   2.201   7.085
 2203SOL     OW 7144   0.222   3.572   6.052
 2203SOL    HW1 7145   0.220   3.657   6.096
 2203SOL    HW2 7146   0.298   3.576   5.995
 2204SOL     OW 7147   1.138   3.205   7.280
 2204SOL    HW1 7148   1.179   3.196   7.366
 2204SOL    HW2 7149   1.086   3.125   7.270
 2205SOL     OW 7150   0.253   3.307   6.125
 2205SOL    HW1 7151   0.224   3.397   6.112
 2205SOL    HW2 7152   0.183   3.267   6.178
 2206SOL     OW 7153   0.248   2.927   6.469
 2206SOL    HW1 7154   0.269   2.842   6.508
 2206SOL    HW2 7155   0.195   2.972   6.535
 2207SOL     OW 7156   0.608   3.649   7.011
 2207SOL    HW1 7157   0.527   3.634   7.059
 2207SOL    HW2 7158   0.636   3.737   7.036
 2208SOL     OW 7159   0.575   2.849   5.726
 2208SOL    HW1 7160   0.624   2.893   5.657
 2208SOL    HW2 7161   0.615   2.879   5.807
 2209SOL     OW 7162   1.605   1.984   7.017
 2209SOL    HW1 7163   1.636   2.072   6.994
 2209SOL    HW2 7164   1.572   1.993   7.106
 2210SOL     OW 7165   0.143   2.519   6.159
 2210SOL    HW1 7166   0.088   2.441   6.158
 2210SOL    HW2 7167   0.108   2.572   6.230
 2211SOL     OW 7168   1.843   3.605   5.923
 2211SOL    HW1 7169   1.913   3.583   5.984
 2211SOL    HW2 7170   1.861   3.697   5.899
 2212SOL     OW 7171   0.040   3.451   5.725
 2212SOL    HW1 7172   0.037   3.360   5.753
 2212SOL    HW2 7173   3.955   3.487   5.748
 2213SOL     OW 7174   1.701   2.849   6.225
 2213SOL    HW1 7175   1.752   2.777   6.189
 2213SOL    HW2 7176   1.662   2.892   6.148
 2214SOL     OW 7177   1.643   2.989   5.994
 2214SOL    HW1 7178   1.731   2.982   5.958
 2214SOL    HW2 7179   1.649   3.057   6.061
 2215SOL     OW 7180   0.143   2.614   7.176
 2215SOL    HW1 7181   0.238   2.611   7.170
 2215SOL    HW2 7182   0.124   2.701   7.211
 2216SOL     OW 7183   0.617   3.249   6.320
 2216SOL    HW1 7184   0.570   3.167   6.329
 2216SOL    HW2 7185   0.600   3.277   6.230
 2217SOL     OW 7186   1.286   3.100   7.008
 2217SOL    HW1 7187   1.316   3.032   6.949
 2217SOL    HW2 7188   1.343   3.093   7.085
 2218SOL     OW 7189   0.820   1.858   6.098
 2218SOL    HW1 7190   0.861   1.942   6.077
 2218SOL    HW2 7191   0.726   1.878   6.103
 2219SOL     OW 7192   0.183   2.811   6.867
 2219SOL    HW1 7193   0.272   2.775   6.855
 2219SOL    HW2 7194   0.133   2.775   6.794
 2220SOL     OW 7195   1.529   2.860   5.780
 2220SOL    HW1 7196   1.464   2.800   5.815
 2220SOL    HW2 7197   1.567   2.902   5.857
 2221SOL     OW 7198   1.223   3.668   7.215
 2221SOL    HW1 7199   1.196   3.729   7.146
 2221SOL    HW2 7200   1.222   3.582   7.172
 2222SOL     OW 7201   0.344   2.108   7.405
 2222SOL    HW1 7202   0.379   2.197   7.413
 2222SOL    HW2 7203   0.251   2.117   7.429
 2223SOL     OW 7204   1.465   3.281   6.533
 2223SOL    HW1 7205   1.399   3.296   6.601
 2223SOL    HW2 7206   1.451   3.190   6.506
 2224SOL     OW 7207   1.652   3.605   6.167
 2224SOL    HW1 7208   1.639   3.572   6.078
 2224SOL    HW2 7209   1.630   3.532   6.224
 2225SOL     OW 7210   0.596   2.576   5.853
 2225SOL    HW1 7211   0.602   2.661   5.809
 2225SOL    HW2 7212   0.533   2.589   5.924
 2226SOL     OW 7213   1.576   3.539   5.895
 2226SOL    HW1 7214   1.669   3.559   5.889
 2226SOL    HW2 7215   1.550   3.520   5.805
 2227SOL     OW 7216   0.797   2.479   7.036
 2227SOL    HW1 7217   0.768   2.455   7.124
 2227SOL    HW2 7218   0.760   2.411   6.979
 2228SOL     OW 7219   0.954   2.746   7.171
 2228SOL    HW1 7220   1.013   2.681   7.135
 2228SOL    HW2 7221   0.907   2.781   7.095
 2229SOL     OW 7222   0.987   2.247   6.842
 2229SOL    HW1 7223   0.896   2.274   6.853
 2229SOL    HW2 7224   0.994   2.224   6.749
 2230SOL     OW 7225   1.053   2.563   6.009
 2230SOL    HW1 7226   1.071   2.562   6.103
 2230SOL    HW2 7227   0.971   2.515   6.000
 2231SOL     OW 7228   0.082   2.693   6.376
 2231SOL    HW1 7229   0.154   2.661   6.430
 2231SOL    HW2 7230   0.104   2.785   6.358
 2232SOL     OW 7231   0.127   3.720   7.167
 2232SOL    HW1 7232   0.135   3.687   7.257
 2232SOL    HW2 7233   0.035   3.707   7.145
 2233SOL     OW 7234   0.896   2.213   5.778
 2233SOL    HW1 7235   0.937   2.277   5.719
 2233SOL    HW2 7236   0.916   2.129   5.738
 2234SOL     OW 7237   1.377   3.006   6.124
 2234SOL    HW1 7238   1.456   2.999   6.069
 2234SOL    HW2 7239   1.321   3.068   6.077
 2235SOL     OW 7240   0.545   2.039   6.483
 2235SOL    HW1 7241   0.553   2.072   6.572
 2235SOL    HW2 7242   0.546   2.117   6.427
 2236SOL     OW 7243   1.000   3.307   6.055
 2236SOL    HW1 7244   0.966   3.382   6.006
 2236SOL    HW2 7245   0.979   3.326   6.147
 2237SOL     OW 7246   0.359   3.673   6.451
 2237SOL    HW1 7247   0.440   3.623   6.464
 2237SOL    HW2 7248   0.386   3.764   6.459
 2238SOL     OW 7249   1.786   2.984   6.451
 2238SOL    HW1 7250   1.743   2.946   6.375
 2238SOL    HW2 7251   1.723   2.974   6.522
 2239SOL     OW 7252   1.226   3.401   7.098
 2239SOL    HW1 7253   1.215   3.328   7.159
 2239SOL    HW2 7254   1.158   3.388   7.032
 2240SOL     OW 7255   0.311   2.814   5.828
 2240SOL    HW1 7256   0.394   2.837   5.786
 2240SOL    HW2 7257   0.299   2.721   5.809
 2241SOL     OW 7258   0.470   3.124   7.324
 2241SOL    HW1 7259   0.445   3.132   7.232
 2241SOL    HW2 7260   0.387   3.126   7.372
 2242SOL     OW 7261   1.113   3.644   5.806
 2242SOL    HW1 7262   1.048   3.598   5.859
 2242SOL    HW2 7263   1.145   3.577   5.745
 2243SOL     OW 7264   0.204   2.130   7.093
 2243SOL    HW1 7265   0.114   2.164   7.090
 2243SOL    HW2 7266   0.195   2.042   7.130
 2244SOL     OW 7267   1.628   3.244   5.677
 2244SOL    HW1 7268   1.588   3.329   5.660
 2244SOL    HW2 7269   1.560   3.180   5.656
 2245SOL     OW 7270   0.466   3.603   5.907
 2245SOL    HW1 7271   0.506   3.664   5.969
 2245SOL    HW2 7272   0.540   3.573   5.853
 2246SOL     OW 7273   1.418   2.010   5.951
 2246SOL    HW1 7274   1.390   1.952   5.880
 2246SOL    HW2 7275   1.496   1.967   5.987
 2247SOL     OW 7276   0.256   3.657   6.810
 2247SOL    HW1 7277   0.297   3.588   6.862
 2247SOL    HW2 7278   0.254   3.621   6.721
 2248SOL     OW 7279   0.938   3.564   6.484
 2248SOL    HW1 7280   1.016   3.513   6.507
 2248SOL    HW2 7281   0.896   3.514   6.415
 2249SOL     OW 7282   0.400   2.554   6.056
 2249SOL    HW1 7283   0.424   2.463   6.072
 2249SOL    HW2 7284   0.309   2.560   6.083
 2250SOL     OW 7285   0.647   1.978   5.681
 2250SOL    HW1 7286   0.706   1.905   5.702
 2250SOL    HW2 7287   0.595   1.947   5.607
 2251SOL     OW 7288   0.757   2.144   7.340
 2251SOL    HW1 7289   0.842   2.098   7.341
 2251SOL    HW2 7290   0.716   2.119   7.423
 2252SOL     OW 7291   0.876   3.383   6.781
 2252SOL    HW1 7292   0.859   3.346   6.694
 2252SOL    HW2 7293   0.945   3.328   6.817
 2253SOL     OW 7294   0.818   3.251   6.530
 2253SOL    HW1 7295   0.903   3.240   6.488
 2253SOL    HW2 7296   0.756   3.256   6.457
 2254SOL     OW 7297   0.930   2.375   6.488
 2254SOL    HW1 7298   0.908   2.365   6.395
 2254SOL    HW2 7299   0.951   2.287   6.518
 2255SOL     OW 7300   0.557   1.924   6.079
 2255SOL    HW1 7301   0.475   1.929   6.128
 2255SOL    HW2 7302   0.561   2.006   6.030
 2256SOL     OW 7303   1.427   3.064   5.624
 2256SOL    HW1 7304   1.456   2.987   5.673
 2256SOL    HW2 7305   1.342   3.085   5.662
 2257SOL     OW 7306   0.309   1.913   5.755
 2257SOL    HW1 7307   0.371   1.951   5.693
 2257SOL    HW2 7308   0.361   1.848   5.803
 2258SOL     OW 7309   0.934   2.106   6.039
 2258SOL    HW1 7310   0.900   2.148   5.960
 2258SOL    HW2 7311   1.028   2.119   6.034
 2259SOL     OW 7312   1.076   2.535   7.041
 2259SOL    HW1 7313   0.992   2.489   7.047
 2259SOL    HW2 7314   1.141   2.466   7.034
 2260SOL     OW 7315   1.219   3.434   6.381
 2260SOL    HW1 7316   1.234   3.501   6.313
 2260SOL    HW2 7317   1.290   3.447   6.444
 2261SOL     OW 7318   0.467   3.014   6.318
 2261SOL    HW1 7319   0.397   2.989   6.378
 2261SOL    HW2 7320   0.431   2.998   6.231
 2262SOL     OW 7321   1.264   3.655   6.195
 2262SOL    HW1 7322   1.313   3.720   6.145
 2262SOL    HW2 7323   1.191   3.704   6.232
 2263SOL     OW 7324   1.024   2.398   5.612
 2263SOL    HW1 7325   0.981   2.482   5.593
 2263SOL    HW2 7326   1.091   2.420   5.677
 2264SOL     OW 7327   0.083   2.436   6.975
 2264SOL    HW1 7328   0.173   2.423   6.945
 2264SOL    HW2 7329   0.090   2.505   7.041
 2265SOL     OW 7330   0.566   2.090   6.755
 2265SOL    HW1 7331   0.608   2.016   6.798
 2265SOL    HW2 7332   0.475   2.086   6.782
 2266SOL     OW 7333   0.867   2.318   6.226
 2266SOL    HW1 7334   0.823   2.375   6.162
 2266SOL    HW2 7335   0.885   2.237   6.178
 2267SOL     OW 7336   0.985   1.927   6.366
 2267SOL    HW1 7337   0.956   1.919   6.275
 2267SOL    HW2 7338   0.974   1.840   6.403
 2268SOL     OW 7339   1.429   3.025   6.440
 2268SOL    HW1 7340   1.373   2.948   6.447
 2268SOL    HW2 7341   1.452   3.029   6.347
 2269SOL     OW 7342   0.488   3.283   5.743
 2269SOL    HW1 7343   0.411   3.254   5.793
 2269SOL    HW2 7344   0.473   3.250   5.655
 2270SOL     OW 7345   1.674   3.149   6.203
 2270SOL    HW1 7346   1.765   3.140   6.230
 2270SOL    HW2 7347   1.645   3.231   6.243
 2271SOL     OW 7348   1.390   2.442   5.646
 2271SOL    HW1 7349   1.341   2.418   5.725
 2271SOL    HW2 7350   1.481   2.429   5.669
 2272SOL     OW 7351   0.574   2.129   5.902
 2272SOL    HW1 7352   0.608   2.083   5.825
 2272SOL    HW2 7353   0.543   2.213   5.867
 2273SOL     OW 7354   1.751   3.104   7.151
 2273SOL    HW1 7355   1.838   3.066   7.138
 2273SOL    HW2 7356   1.767   3.193   7.180
 2274SOL     OW 7357   1.054   3.215   6.919
 2274SOL    HW1 7358   0.979   3.183   6.969
 2274SOL    HW2 7359   1.130   3.174   6.960
 2275SOL     OW 7360   1.612   3.489   7.245
 2275SOL    HW1 7361   1.602   3.523   7.156
 2275SOL    HW2 7362   1.694   3.440   7.242
 2276SOL     OW 7363   1.134   3.072   6.691
 2276SOL    HW1 7364   1.073   3.110   6.754
 2276SOL    HW2 7365   1.104   3.104   6.606
 2277SOL     OW 7366   1.617   2.982   6.659
 2277SOL    HW1 7367   1.609   3.033   6.740
 2277SOL    HW2 7368   1.531   2.989   6.618
 2278SOL     OW 7369   0.901   1.953   6.975
 2278SOL    HW1 7370   0.928   1.938   6.885
 2278SOL    HW2 7371   0.971   2.007   7.012
 2279SOL     OW 7372   0.982   2.980   7.304
 2279SOL    HW1 7373   0.890   2.992   7.328
 2279SOL    HW2 7374   0.982   2.900   7.251
 2280SOL     OW 7375   0.708   2.923   5.957
 2280SOL    HW1 7376   0.694   2.905   6.050
 2280SOL    HW2 7377   0.784   2.870   5.933
 2281SOL     OW 7378   0.423   2.680   6.839
 2281SOL    HW1 7379   0.492   2.688   6.906
 2281SOL    HW2 7380   0.390   2.591   6.850
 2282SOL     OW 7381   0.066   3.441   6.931
 2282SOL    HW1 7382   0.071   3.484   6.845
 2282SOL    HW2 7383   0.157   3.432   6.959
 2283SOL     OW 7384   0.365   2.964   6.067
 2283SOL    HW1 7385   0.363   3.046   6.017
 2283SOL    HW2 7386   0.366   2.895   6.001
 2284SOL     OW 7387   0.547   2.397   6.448
 2284SOL    HW1 7388   0.561   2.454   6.372
 2284SOL    HW2 7389   0.616   2.421   6.509
 2285SOL     OW 7390   1.246   3.213   5.975
 2285SOL    HW1 7391   1.302   3.283   6.007
 2285SOL    HW2 7392   1.159   3.235   6.009
 2286SOL     OW 7393   1.287   3.322   6.735
 2286SOL    HW1 7394   1.343   3.327   6.813
 2286SOL    HW2 7395   1.232   3.245   6.749
 2287SOL     OW 7396   0.345   3.391   6.903
 2287SOL    HW1 7397   0.335   3.340   6.822
 2287SOL    HW2 7398   0.439   3.405   6.911
 2288SOL     OW 7399   0.419   2.599   7.187
 2288SOL    HW1 7400   0.482   2.644   7.131
 2288SOL    HW2 7401   0.459   2.514   7.206
 2289SOL     OW 7402   0.989   1.996   7.327
 2289SOL    HW1 7403   1.032   2.029   7.249
 2289SOL    HW2 7404   1.009   1.902   7.328
 2290SOL     OW 7405   0.497   1.896   7.332
 2290SOL    HW1 7406   0.452   1.844   7.265
 2290SOL    HW2 7407   0.445   1.975   7.342
 2291SOL     OW 7408   0.586   2.736   6.618
 2291SOL    HW1 7409   0.620   2.826   6.620
 2291SOL    HW2 7410   0.530   2.731   6.696
 2292SOL     OW 7411   1.352   2.733   6.605
 2292SOL    HW1 7412   1.268   2.695   6.578
 2292SOL    HW2 7413   1.399   2.660   6.645
 2293SOL     OW 7414   1.201   2.399   5.845
 2293SOL    HW1 7415   1.204   2.319   5.896
 2293SOL    HW2 7416   1.157   2.463   5.901
 2294SOL     OW 7417   0.309   2.057   6.833
 2294SOL    HW1 7418   0.264   2.093   6.909
 2294SOL    HW2 7419   0.287   1.964   6.833
 2295SOL     OW 7420   0.060   3.167   6.867
 2295SOL    HW1 7421   0.092   3.125   6.947
 2295SOL    HW2 7422   0.053   3.260   6.890
 2296SOL     OW 7423   0.723   2.492   6.640
 2296SOL    HW1 7424   0.798   2.478   6.583
 2296SOL    HW2 7425   0.694   2.581   6.620
 2297SOL     OW 7426   0.316   1.923   6.206
 2297SOL    HW1 7427   0.293   2.014   6.226
 2297SOL    HW2 7428   0.323   1.880   6.291
 2298SOL     OW 7429   1.625   2.236   5.961
 2298SOL    HW1 7430   1.606   2.149   5.995
 2298SOL    HW2 7431   1.548   2.289   5.984
 2299SOL     OW 7432   1.039   2.618   6.547
 2299SOL    HW1 7433   1.025   2.636   6.640
 2299SOL    HW2 7434   1.006   2.529   6.533
 2300SOL     OW 7435   0.986   3.430   7.308
 2300SOL    HW1 7436   0.966   3.470   7.224
 2300SOL    HW2 7437   1.028   3.347   7.286
 2301SOL     OW 7438   1.854   3.361   7.189
 2301SOL    HW1 7439   1.873   3.391   7.100
 2301SOL    HW2 7440   1.935   3.380   7.237
 2302SOL     OW 7441   0.355   2.785   7.385
 2302SOL    HW1 7442   0.432   2.806   7.437
 2302SOL    HW2 7443   0.384   2.717   7.324
 2303SOL     OW 7444   1.533   2.133   5.707
 2303SOL    HW1 7445   1.466   2.074   5.741
 2303SOL    HW2 7446   1.574   2.172   5.785
 2304SOL     OW 7447   1.286   2.691   5.614
 2304SOL    HW1 7448   1.326   2.604   5.617
 2304SOL    HW2 7449   1.319   2.730   5.532
 2305SOL     OW 7450   1.068   3.200   6.442
 2305SOL    HW1 7451   1.074   3.127   6.380
 2305SOL    HW2 7452   1.127   3.266   6.408
 2306SOL     OW 7453   0.313   2.663   6.536
 2306SOL    HW1 7454   0.407   2.680   6.529
 2306SOL    HW2 7455   0.307   2.572   6.566
 2307SOL     OW 7456   0.327   2.383   6.601
 2307SOL    HW1 7457   0.293   2.295   6.585
 2307SOL    HW2 7458   0.404   2.390   6.544
 2308SOL     OW 7459   1.096   2.118   7.063
 2308SOL    HW1 7460   1.170   2.165   7.101
 2308SOL    HW2 7461   1.073   2.170   6.985
 2309SOL     OW 7462   0.000   3.178   5.768
 2309SOL    HW1 7463   3.906   3.194   5.772
 2309SOL    HW2 7464   0.009   3.084   5.786
 2310SOL     OW 7465   0.076   3.662   6.481
 2310SOL    HW1 7466   0.094   3.569   6.475
 2310SOL    HW2 7467   0.162   3.704   6.482
 2311SOL     OW 7468   0.506   3.423   6.504
 2311SOL    HW1 7469   0.571   3.491   6.523
 2311SOL    HW2 7470   0.548   3.366   6.441
 2312SOL     OW 7471   0.977   2.650   6.809
 2312SOL    HW1 7472   1.037   2.630   6.880
 2312SOL    HW2 7473   0.893   2.613   6.838
 2313SOL     OW 7474   0.038   2.423   6.695
 2313SOL    HW1 7475   0.121   2.401   6.652
 2313SOL    HW2 7476   0.057   2.419   6.788
 2314SOL     OW 7477   0.206   2.373   7.314
 2314SOL    HW1 7478   0.245   2.325   7.241
 2314SOL    HW2 7479   0.163   2.448   7.272
 2315SOL     OW 7480   1.345   2.806   7.246
 2315SOL    HW1 7481   1.390   2.890   7.238
 2315SOL    HW2 7482   1.367   2.759   7.166
 2316SOL     OW 7483   0.819   2.430   5.951
 2316SOL    HW1 7484   0.825   2.356   5.890
 2316SOL    HW2 7485   0.745   2.482   5.918
 2317SOL     OW 7486   0.300   3.406   7.308
 2317SOL    HW1 7487   0.253   3.475   7.355
 2317SOL    HW2 7488   0.272   3.325   7.351
 2318SOL     OW 7489   0.713   2.310   6.841
 2318SOL    HW1 7490   0.658   2.237   6.813
 2318SOL    HW2 7491   0.706   2.374   6.770
 2319SOL     OW 7492   0.925   3.533   7.057
 2319SOL    HW1 7493   0.899   3.493   6.974
 2319SOL    HW2 7494   0.917   3.627   7.042
 2320SOL     OW 7495   0.451   2.350   5.783
 2320SOL    HW1 7496   0.517   2.417   5.801
 2320SOL    HW2 7497   0.372   2.399   5.760
 2321SOL     OW 7498   0.154   2.996   7.063
 2321SOL    HW1 7499   0.154   2.946   7.144
 2321SOL    HW2 7500   0.170   2.931   6.994
 2322SOL     OW 7501   1.329   2.914   6.805
 2322SOL    HW1 7502   1.349   2.852   6.735
 2322SOL    HW2 7503   1.257   2.968   6.770
 2323SOL     OW 7504   1.312   2.721   5.890
 2323SOL    HW1 7505   1.238   2.686   5.940
 2323SOL    HW2 7506   1.287   2.707   5.799
 2324SOL     OW 7507   1.776   3.598   6.741
 2324SOL    HW1 7508   1.837   3.626   6.672
 2324SOL    HW2 7509   1.751   3.509   6.716
 2325SOL     OW 7510   1.244   3.594   6.693
 2325SOL    HW1 7511   1.327   3.616   6.651
 2325SOL    HW2 7512   1.252   3.501   6.713
 2326SOL     OW 7513   0.077   3.075   6.615
 2326SOL    HW1 7514   0.084   3.103   6.706
 2326SOL    HW2 7515   3.985   3.088   6.592
 2327SOL     OW 7516   0.680   3.529   7.324
 2327SOL    HW1 7517   0.621   3.604   7.326
 2327SOL    HW2 7518   0.741   3.548   7.252
 2328SOL     OW 7519   1.663   1.971   6.067
 2328SOL    HW1 7520   1.753   1.996   6.046
 2328SOL    HW2 7521   1.671   1.912   6.141
 2329SOL     OW 7522   1.391   3.431   6.075
 2329SOL    HW1 7523   1.450   3.465   6.008
 2329SOL    HW2 7524   1.342   3.508   6.105
 2330SOL     OW 7525   0.171   3.620   7.419
 2330SOL    HW1 7526   0.118   3.567   7.478
 2330SOL    HW2 7527   0.217   3.681   7.478
 2331SOL     OW 7528   1.301   2.781   6.252
 2331SOL    HW1 7529   1.371   2.720   6.229
 2331SOL    HW2 7530   1.323   2.861   6.206
 2332SOL     OW 7531   0.806   3.136   7.012
 2332SOL    HW1 7532   0.778   3.178   7.093
 2332SOL    HW2 7533   0.735   3.153   6.951
 2333SOL     OW 7534   0.674   3.481   5.745
 2333SOL    HW1 7535   0.684   3.498   5.651
 2333SOL    HW2 7536   0.615   3.406   5.749
 2334SOL     OW 7537   1.621   3.589   6.977
 2334SOL    HW1 7538   1.673   3.592   6.897
 2334SOL    HW2 7539   1.607   3.681   7.001
 2335SOL     OW 7540   0.264   2.173   6.301
 2335SOL    HW1 7541   0.178   2.205   6.276
 2335SOL    HW2 7542   0.260   2.165   6.396
 2336SOL     OW 7543   1.208   3.464   5.623
 2336SOL    HW1 7544   1.198   3.372   5.647
 2336SOL    HW2 7545   1.147   3.477   5.550
 2337SOL     OW 7546   0.825   2.867   6.960
 2337SOL    HW1 7547   0.869   2.863   6.875
 2337SOL    HW2 7548   0.821   2.960   6.981
 2338SOL     OW 7549   0.915   2.772   5.878
 2338SOL    HW1 7550   0.975   2.805   5.810
 2338SOL    HW2 7551   0.965   2.704   5.923
 2339SOL     OW 7552   1.489   3.493   5.630
 2339SOL    HW1 7553   1.395   3.481   5.613
 2339SOL    HW2 7554   1.528   3.498   5.542
 2340SOL     OW 7555   0.374   3.164   7.078
 2340SOL    HW1 7556   0.359   3.245   7.027
 2340SOL    HW2 7557   0.297   3.111   7.060
 2341SOL     OW 7558   1.607   3.148   6.876
 2341SOL    HW1 7559   1.669   3.140   6.949
 2341SOL    HW2 7560   1.545   3.216   6.905
 2342SOL     OW 7561   1.059   2.971   6.295
 2342SOL    HW1 7562   0.988   2.920   6.334
 2342SOL    HW2 7563   1.118   2.905   6.258
 2343SOL     OW 7564   0.994   2.113   6.573
 2343SOL    HW1 7565   0.991   2.069   6.487
 2343SOL    HW2 7566   1.000   2.041   6.636
 2344SOL     OW 7567   0.607   3.352   6.066
 2344SOL    HW1 7568   0.654   3.302   6.000
 2344SOL    HW2 7569   0.533   3.391   6.019
 2345SOL     OW 7570   1.733   2.246   6.962
 2345SOL    HW1 7571   1.785   2.326   6.968
 2345SOL    HW2 7572   1.759   2.206   6.879
 2346SOL     OW 7573   0.254   3.202   5.878
 2346SOL    HW1 7574   0.160   3.208   5.860
 2346SOL    HW2 7575   0.265   3.241   5.965
 2347SOL     OW 7576   0.109   2.859   7.304
 2347SOL    HW1 7577   0.049   2.853   7.379
 2347SOL    HW2 7578   0.195   2.842   7.340
 2348SOL     OW 7579   0.667   2.061   7.087
 2348SOL    HW1 7580   0.750   2.038   7.045
 2348SOL    HW2 7581   0.692   2.092   7.174
 2349SOL     OW 7582   0.080   2.173   5.623
 2349SOL    HW1 7583   3.985   2.173   5.631
 2349SOL    HW2 7584   0.101   2.254   5.577
 2350SOL     OW 7585   1.434   2.726   6.993
 2350SOL    HW1 7586   1.398   2.791   6.932
 2350SOL    HW2 7587   1.526   2.751   7.003
 2351SOL     OW 7588   0.015   2.104   5.965
 2351SOL    HW1 7589   0.045   2.167   5.899
 2351SOL    HW2 7590   0.095   2.061   5.995
 2352SOL     OW 7591   1.177   3.197   5.703
 2352SOL    HW1 7592   1.086   3.168   5.704
 2352SOL    HW2 7593   1.203   3.197   5.795
 2353SOL     OW 7594   0.622   2.691   7.023
 2353SOL    HW1 7595   0.677   2.767   7.008
 2353SOL    HW2 7596   0.683   2.618   7.031
 2354SOL     OW 7597   1.486   3.644   6.569
 2354SOL    HW1 7598   1.509   3.704   6.498
 2354SOL    HW2 7599   1.570   3.616   6.605
 2355SOL     OW 7600   0.717   2.427   7.289
 2355SOL    HW1 7601   0.763   2.489   7.346
 2355SOL    HW2 7602   0.741   2.341   7.322
 2356SOL     OW 7603   1.474   3.056   7.215
 2356SOL    HW1 7604   1.461   3.067   7.309
 2356SOL    HW2 7605   1.567   3.074   7.201
 2357SOL     OW 7606   0.378   3.610   7.146
 2357SOL    HW1 7607   0.290   3.645   7.134
 2357SOL    HW2 7608   0.364   3.526   7.190
 2358SOL     OW 7609   1.207   2.184   6.013
 2358SOL    HW1 7610   1.271   2.118   5.985
 2358SOL    HW2 7611   1.205   2.176   6.109
 2359SOL     OW 7612   0.586   2.599   6.261
 2359SOL    HW1 7613   0.627   2.684   6.245
 2359SOL    HW2 7614   0.522   2.589   6.190
 2360SOL     OW 7615   1.739   2.171   7.226
 2360SOL    HW1 7616   1.754   2.202   7.137
 2360SOL    HW2 7617   1.666   2.225   7.258
 2361SOL     OW 7618   1.738   2.822   7.038
 2361SOL    HW1 7619   1.712   2.904   7.080
 2361SOL    HW2 7620   1.766   2.847   6.950
 2362SOL     OW 7621   0.865   3.228   5.628
 2362SOL    HW1 7622   0.824   3.256   5.710
 2362SOL    HW2 7623   0.878   3.309   5.579
 2363SOL     OW 7624   0.658   3.649   6.517
 2363SOL    HW1 7625   0.638   3.741   6.500
 2363SOL    HW2 7626   0.754   3.645   6.517
 2364SOL     OW 7627   0.871   2.830   6.440
 2364SOL    HW1 7628   0.922   2.759   6.479
 2364SOL    HW2 7629   0.832   2.876   6.515
 2365SOL     OW 7630   1.074   2.850   5.674
 2365SOL    HW1 7631   1.055   2.902   5.596
 2365SOL    HW2 7632   1.150   2.797   5.649
 2366SOL     OW 7633   1.849   3.413   6.428
 2366SOL    HW1 7634   1.767   3.401   6.379
 2366SOL    HW2 7635   1.847   3.344   6.495
 2367SOL     OW 7636   0.228   3.167   7.443
 2367SOL    HW1 7637   0.153   3.114   7.416
 2367SOL    HW2 7638   0.216   3.179   7.537
 2368SOL     OW 7639   0.119   3.143   6.311
 2368SOL    HW1 7640   0.140   3.091   6.388
 2368SOL    HW2 7641   0.103   3.078   6.242
 2369SOL     OW 7642   0.684   3.268   7.217
 2369SOL    HW1 7643   0.604   3.226   7.248
 2369SOL    HW2 7644   0.681   3.356   7.255
 2370SOL     OW 7645   0.440   2.296   6.120
 2370SOL    HW1 7646   0.443   2.225   6.055
 2370SOL    HW2 7647   0.385   2.262   6.191
 2371SOL     OW 7648   1.695   3.347   6.680
 2371SOL    HW1 7649   1.616   3.326   6.629
 2371SOL    HW2 7650   1.700   3.276   6.745
 2372SOL     OW 7651   0.336   2.421   6.878
 2372SOL    HW1 7652   0.389   2.363   6.933
 2372SOL    HW2 7653   0.350   2.389   6.789
 2373SOL     OW 7654   0.829   3.441   6.262
 2373SOL    HW1 7655   0.809   3.498   6.187
 2373SOL    HW2 7656   0.756   3.380   6.266
 2374SOL     OW 7657   1.013   1.877   6.729
 2374SOL    HW1 7658   0.973   1.804   6.682
 2374SOL    HW2 7659   1.101   1.846   6.753
 2375SOL     OW 7660   0.773   3.194   5.907
 2375SOL    HW1 7661   0.745   3.103   5.914
 2375SOL    HW2 7662   0.856   3.198   5.956
 2376SOL     OW 7663   0.621   3.415   6.873
 2376SOL    HW1 7664   0.621   3.497   6.922
 2376SOL    HW2 7665   0.709   3.410   6.835
 2377SOL     OW 7666   1.343   1.900   5.718
 2377SOL    HW1 7667   1.370   1.828   5.661
 2377SOL    HW2 7668   1.257   1.873   5.751
 2378SOL     OW 7669   0.048   2.909   5.827
 2378SOL    HW1 7670   0.142   2.895   5.819
 2378SOL    HW2 7671   0.012   2.824   5.852
 2379SOL     OW 7672   0.887   3.524   5.928
 2379SOL    HW1 7673   0.815   3.505   5.867
 2379SOL    HW2 7674   0.856   3.598   5.980
 2380SOL     OW 7675   0.230   2.489   7.566
 2380SOL    HW1 7676   0.137   2.496   7.587
 2380SOL    HW2 7677   0.232   2.456   7.476
 2381SOL     OW 7678   0.229   2.135   8.435
 2381SOL    HW1 7679   0.250   2.100   8.521
 2381SOL    HW2 7680   0.134   2.127   8.428
 2382SOL     OW 7681   0.006   2.219   8.078
 2382SOL    HW1 7682   3.917   2.238   8.106
 2382SOL    HW2 7683   3.998   2.191   7.987
 2383SOL     OW 7684   0.581   3.154   8.643
 2383SOL    HW1 7685   0.496   3.156   8.601
 2383SOL    HW2 7686   0.595   3.243   8.675
 2384SOL     OW 7687   1.567   3.374   8.158
 2384SOL    HW1 7688   1.524   3.351   8.241
 2384SOL    HW2 7689   1.495   3.377   8.094
 2385SOL     OW 7690   1.134   2.561   8.150
 2385SOL    HW1 7691   1.180   2.643   8.134
 2385SOL    HW2 7692   1.087   2.575   8.233
 2386SOL     OW 7693   0.749   2.999   8.493
 2386SOL    HW1 7694   0.687   3.036   8.556
 2386SOL    HW2 7695   0.787   3.075   8.448
 2387SOL     OW 7696   0.873   2.627   9.272
 2387SOL    HW1 7697   0.864   2.697   9.335
 2387SOL    HW2 7698   0.895   2.671   9.190
 2388SOL     OW 7699   0.685   2.862   8.093
 2388SOL    HW1 7700   0.751   2.852   8.161
 2388SOL    HW2 7701   0.616   2.915   8.134
 2389SOL     OW 7702   0.713   3.011   9.267
 2389SOL    HW1 7703   0.761   3.088   9.297
 2389SOL    HW2 7704   0.633   3.046   9.228
 2390SOL     OW 7705   0.350   3.262   8.526
 2390SOL    HW1 7706   0.269   3.245   8.478
 2390SOL    HW2 7707   0.401   3.320   8.468
 2391SOL     OW 7708   1.459   3.364   8.807
 2391SOL    HW1 7709   1.513   3.442   8.817
 2391SOL    HW2 7710   1.391   3.373   8.874
 2392SOL     OW 7711   0.450   2.258   8.933
 2392SOL    HW1 7712   0.526   2.200   8.937
 2392SOL    HW2 7713   0.375   2.201   8.947
 2393SOL     OW 7714   1.604   2.309   8.197
 2393SOL    HW1 7715   1.533   2.319   8.134
 2393SOL    HW2 7716   1.599   2.386   8.253
 2394SOL     OW 7717   0.222   3.572   7.913
 2394SOL    HW1 7718   0.220   3.657   7.957
 2394SOL    HW2 7719   0.298   3.576   7.856
 2395SOL     OW 7720   1.138   3.204   9.142
 2395SOL    HW1 7721   1.179   3.197   9.229
 2395SOL    HW2 7722   1.085   3.124   9.134
 2396SOL     OW 7723   0.253   3.307   7.988
 2396SOL    HW1 7724   0.224   3.397   7.973
 2396SOL    HW2 7725   0.183   3.267   8.040
 2397SOL     OW 7726   0.248   2.928   8.331
 2397SOL    HW1 7727   0.269   2.842   8.370
 2397SOL    HW2 7728   0.195   2.972   8.397
 2398SOL     OW 7729   0.609   3.648   8.874
 2398SOL    HW1 7730   0.527   3.634   8.921
 2398SOL    HW2 7731   0.636   3.737   8.898
 2399SOL     OW 7732   0.574   2.850   7.587
 2399SOL    HW1 7733   0.624   2.892   7.518
 2399SOL    HW2 7734   0.614   2.879   7.669
 2400SOL     OW 7735   1.585   1.995   8.907
 2400SOL    HW1 7736   1.585   2.082   8.866
 2400SOL    HW2 7737   1.575   2.013   9.000
 2401SOL     OW 7738   0.143   2.519   8.022
 2401SOL    HW1 7739   0.087   2.441   8.019
 2401SOL    HW2 7740   0.107   2.572   8.092
 2402SOL     OW 7741   1.844   3.605   7.784
 2402SOL    HW1 7742   1.913   3.583   7.846
 2402SOL    HW2 7743   1.862   3.697   7.761
 2403SOL     OW 7744   0.040   3.451   7.587
 2403SOL    HW1 7745   0.037   3.360   7.615
 2403SOL    HW2 7746   3.954   3.486   7.610
 2404SOL     OW 7747   1.684   2.797   8.108
 2404SOL    HW1 7748   1.757   2.749   8.071
 2404SOL    HW2 7749   1.650   2.848   8.034
 2405SOL     OW 7750   1.640   2.971   7.883
 2405SOL    HW1 7751   1.724   2.973   7.838
 2405SOL    HW2 7752   1.649   3.034   7.954
 2406SOL     OW 7753   0.143   2.614   9.038
 2406SOL    HW1 7754   0.238   2.611   9.032
 2406SOL    HW2 7755   0.124   2.702   9.073
 2407SOL     OW 7756   0.617   3.249   8.182
 2407SOL    HW1 7757   0.569   3.167   8.191
 2407SOL    HW2 7758   0.600   3.277   8.092
 2408SOL     OW 7759   1.286   3.098   8.869
 2408SOL    HW1 7760   1.317   3.030   8.810
 2408SOL    HW2 7761   1.345   3.093   8.944
 2409SOL     OW 7762   0.822   1.869   7.966
 2409SOL    HW1 7763   0.863   1.951   7.939
 2409SOL    HW2 7764   0.729   1.888   7.969
 2410SOL     OW 7765   0.183   2.811   8.730
 2410SOL    HW1 7766   0.271   2.775   8.717
 2410SOL    HW2 7767   0.133   2.776   8.656
 2411SOL     OW 7768   1.514   2.866   7.661
 2411SOL    HW1 7769   1.439   2.818   7.697
 2411SOL    HW2 7770   1.561   2.898   7.739
 2412SOL     OW 7771   1.222   3.667   9.077
 2412SOL    HW1 7772   1.196   3.729   9.008
 2412SOL    HW2 7773   1.222   3.582   9.034
 2413SOL     OW 7774   0.343   2.109   9.267
 2413SOL    HW1 7775   0.378   2.198   9.274
 2413SOL    HW2 7776   0.251   2.117   9.291
 2414SOL     OW 7777   1.467   3.281   8.396
 2414SOL    HW1 7778   1.400   3.296   8.463
 2414SOL    HW2 7779   1.453   3.189   8.370
 2415SOL     OW 7780   1.654   3.603   8.029
 2415SOL    HW1 7781   1.638   3.572   7.940
 2415SOL    HW2 7782   1.631   3.529   8.085
 2416SOL     OW 7783   0.596   2.575   7.715
 2416SOL    HW1 7784   0.603   2.660   7.671
 2416SOL    HW2 7785   0.533   2.590   7.785
 2417SOL     OW 7786   1.280   2.228   8.385
 2417SOL    HW1 7787   1.192   2.192   8.393
 2417SOL    HW2 7788   1.335   2.170   8.438
 2418SOL     OW 7789   1.576   3.538   7.757
 2418SOL    HW1 7790   1.669   3.560   7.751
 2418SOL    HW2 7791   1.549   3.520   7.667
 2419SOL     OW 7792   0.791   2.480   8.897
 2419SOL    HW1 7793   0.765   2.454   8.985
 2419SOL    HW2 7794   0.756   2.411   8.840
 2420SOL     OW 7795   1.393   2.335   9.125
 2420SOL    HW1 7796   1.397   2.381   9.209
 2420SOL    HW2 7797   1.455   2.262   9.135
 2421SOL     OW 7798   0.950   2.747   9.033
 2421SOL    HW1 7799   1.005   2.679   8.995
 2421SOL    HW2 7800   0.902   2.783   8.959
 2422SOL     OW 7801   0.993   2.272   8.683
 2422SOL    HW1 7802   0.905   2.290   8.713
 2422SOL    HW2 7803   0.981   2.230   8.598
 2423SOL     OW 7804   1.046   2.575   7.885
 2423SOL    HW1 7805   1.065   2.562   7.978
 2423SOL    HW2 7806   0.966   2.525   7.870
 2424SOL     OW 7807   0.082   2.694   8.238
 2424SOL    HW1 7808   0.154   2.662   8.292
 2424SOL    HW2 7809   0.104   2.785   8.220
 2425SOL     OW 7810   0.127   3.720   9.029
 2425SOL    HW1 7811   0.135   3.688   9.119
 2425SOL    HW2 7812   0.035   3.707   9.007
 2426SOL     OW 7813   0.890   2.209   7.641
 2426SOL    HW1 7814   0.931   2.275   7.585
 2426SOL    HW2 7815   0.917   2.125   7.603
 2427SOL     OW 7816   1.701   2.438   9.283
 2427SOL    HW1 7817   1.667   2.509   9.229
 2427SOL    HW2 7818   1.732   2.373   9.220
 2428SOL     OW 7819   1.379   3.007   7.992
 2428SOL    HW1 7820   1.456   2.992   7.937
 2428SOL    HW2 7821   1.323   3.065   7.940
 2429SOL     OW 7822   0.547   2.039   8.343
 2429SOL    HW1 7823   0.554   2.072   8.433
 2429SOL    HW2 7824   0.546   2.118   8.289
 2430SOL     OW 7825   1.002   3.308   7.918
 2430SOL    HW1 7826   0.967   3.382   7.868
 2430SOL    HW2 7827   0.979   3.326   8.008
 2431SOL     OW 7828   0.359   3.673   8.313
 2431SOL    HW1 7829   0.440   3.623   8.326
 2431SOL    HW2 7830   0.386   3.764   8.321
 2432SOL     OW 7831   1.803   2.919   8.323
 2432SOL    HW1 7832   1.752   2.896   8.246
 2432SOL    HW2 7833   1.739   2.925   8.394
 2433SOL     OW 7834   1.227   3.399   8.959
 2433SOL    HW1 7835   1.215   3.327   9.021
 2433SOL    HW2 7836   1.157   3.388   8.895
 2434SOL     OW 7837   0.311   2.814   7.690
 2434SOL    HW1 7838   0.394   2.837   7.648
 2434SOL    HW2 7839   0.299   2.721   7.671
 2435SOL     OW 7840   1.481   2.621   8.192
 2435SOL    HW1 7841   1.471   2.573   8.274
 2435SOL    HW2 7842   1.554   2.680   8.207
 2436SOL     OW 7843   0.470   3.123   9.185
 2436SOL    HW1 7844   0.444   3.131   9.093
 2436SOL    HW2 7845   0.388   3.125   9.233
 2437SOL     OW 7846   1.113   3.643   7.668
 2437SOL    HW1 7847   1.048   3.598   7.721
 2437SOL    HW2 7848   1.144   3.577   7.607
 2438SOL     OW 7849   0.204   2.131   8.956
 2438SOL    HW1 7850   0.114   2.165   8.952
 2438SOL    HW2 7851   0.194   2.043   8.992
 2439SOL     OW 7852   1.626   3.245   7.537
 2439SOL    HW1 7853   1.585   3.330   7.520
 2439SOL    HW2 7854   1.558   3.181   7.518
 2440SOL     OW 7855   0.466   3.603   7.769
 2440SOL    HW1 7856   0.506   3.664   7.831
 2440SOL    HW2 7857   0.539   3.573   7.715
 2441SOL     OW 7858   0.256   3.657   8.672
 2441SOL    HW1 7859   0.297   3.588   8.724
 2441SOL    HW2 7860   0.254   3.622   8.583
 2442SOL     OW 7861   0.938   3.564   8.346
 2442SOL    HW1 7862   1.016   3.513   8.369
 2442SOL    HW2 7863   0.896   3.514   8.277
 2443SOL     OW 7864   0.400   2.555   7.919
 2443SOL    HW1 7865   0.424   2.463   7.934
 2443SOL    HW2 7866   0.308   2.560   7.945
 2444SOL     OW 7867   1.534   2.085   9.172
 2444SOL    HW1 7868   1.548   2.106   9.265
 2444SOL    HW2 7869   1.463   2.021   9.173
 2445SOL     OW 7870   0.643   1.976   7.547
 2445SOL    HW1 7871   0.702   1.904   7.567
 2445SOL    HW2 7872   0.594   1.946   7.470
 2446SOL     OW 7873   0.765   2.141   9.203
 2446SOL    HW1 7874   0.845   2.089   9.200
 2446SOL    HW2 7875   0.719   2.109   9.281
 2447SOL     OW 7876   0.876   3.383   8.642
 2447SOL    HW1 7877   0.859   3.346   8.556
 2447SOL    HW2 7878   0.945   3.328   8.679
 2448SOL     OW 7879   1.339   2.451   8.880
 2448SOL    HW1 7880   1.370   2.420   8.966
 2448SOL    HW2 7881   1.376   2.539   8.872
 2449SOL     OW 7882   0.818   3.251   8.392
 2449SOL    HW1 7883   0.903   3.240   8.350
 2449SOL    HW2 7884   0.756   3.256   8.319
 2450SOL     OW 7885   0.928   2.371   8.348
 2450SOL    HW1 7886   0.904   2.364   8.256
 2450SOL    HW2 7887   0.959   2.284   8.372
 2451SOL     OW 7888   0.558   1.924   7.941
 2451SOL    HW1 7889   0.476   1.929   7.990
 2451SOL    HW2 7890   0.561   2.006   7.891
 2452SOL     OW 7891   1.430   3.061   7.487
 2452SOL    HW1 7892   1.458   2.985   7.538
 2452SOL    HW2 7893   1.343   3.081   7.521
 2453SOL     OW 7894   0.310   1.912   7.617
 2453SOL    HW1 7895   0.372   1.951   7.556
 2453SOL    HW2 7896   0.361   1.848   7.666
 2454SOL     OW 7897   0.944   2.112   7.905
 2454SOL    HW1 7898   0.916   2.152   7.823
 2454SOL    HW2 7899   1.039   2.126   7.907
 2455SOL     OW 7900   1.080   2.545   8.906
 2455SOL    HW1 7901   1.014   2.476   8.910
 2455SOL    HW2 7902   1.164   2.499   8.900
 2456SOL     OW 7903   1.220   3.434   8.243
 2456SOL    HW1 7904   1.234   3.500   8.175
 2456SOL    HW2 7905   1.290   3.450   8.306
 2457SOL     OW 7906   0.467   3.014   8.181
 2457SOL    HW1 7907   0.396   2.989   8.240
 2457SOL    HW2 7908   0.431   2.998   8.093
 2458SOL     OW 7909   1.264   3.655   8.057
 2458SOL    HW1 7910   1.313   3.719   8.006
 2458SOL    HW2 7911   1.190   3.704   8.094
 2459SOL     OW 7912   1.011   2.394   7.469
 2459SOL    HW1 7913   0.976   2.482   7.454
 2459SOL    HW2 7914   1.066   2.404   7.547
 2460SOL     OW 7915   0.084   2.436   8.838
 2460SOL    HW1 7916   0.174   2.423   8.807
 2460SOL    HW2 7917   0.090   2.505   8.903
 2461SOL     OW 7918   0.566   2.089   8.616
 2461SOL    HW1 7919   0.608   2.015   8.659
 2461SOL    HW2 7920   0.475   2.085   8.644
 2462SOL     OW 7921   0.867   2.320   8.086
 2462SOL    HW1 7922   0.822   2.375   8.022
 2462SOL    HW2 7923   0.891   2.241   8.038
 2463SOL     OW 7924   1.022   1.910   8.190
 2463SOL    HW1 7925   0.959   1.909   8.118
 2463SOL    HW2 7926   0.994   1.838   8.247
 2464SOL     OW 7927   1.438   3.022   8.304
 2464SOL    HW1 7928   1.366   2.960   8.305
 2464SOL    HW2 7929   1.461   3.032   8.212
 2465SOL     OW 7930   1.462   2.470   8.421
 2465SOL    HW1 7931   1.408   2.391   8.423
 2465SOL    HW2 7932   1.521   2.460   8.497
 2466SOL     OW 7933   1.808   2.690   7.878
 2466SOL    HW1 7934   1.890   2.645   7.899
 2466SOL    HW2 7935   1.784   2.658   7.791
 2467SOL     OW 7936   0.488   3.284   7.605
 2467SOL    HW1 7937   0.411   3.254   7.655
 2467SOL    HW2 7938   0.475   3.248   7.517
 2468SOL     OW 7939   1.677   3.129   8.092
 2468SOL    HW1 7940   1.772   3.130   8.107
 2468SOL    HW2 7941   1.648   3.218   8.115
 2469SOL     OW 7942   0.571   2.130   7.765
 2469SOL    HW1 7943   0.606   2.083   7.690
 2469SOL    HW2 7944   0.543   2.214   7.730
 2470SOL     OW 7945   1.750   3.104   9.013
 2470SOL    HW1 7946   1.837   3.065   9.007
 2470SOL    HW2 7947   1.765   3.194   9.041
 2471SOL     OW 7948   1.055   3.214   8.780
 2471SOL    HW1 7949   0.979   3.183   8.830
 2471SOL    HW2 7950   1.130   3.173   8.822
 2472SOL     OW 7951   1.610   3.489   9.106
 2472SOL    HW1 7952   1.601   3.523   9.017
 2472SOL    HW2 7953   1.693   3.440   9.105
 2473SOL     OW 7954   1.135   3.071   8.551
 2473SOL    HW1 7955   1.074   3.108   8.615
 2473SOL    HW2 7956   1.104   3.105   8.466
 2474SOL     OW 7957   1.623   2.958   8.524
 2474SOL    HW1 7958   1.617   3.021   8.596
 2474SOL    HW2 7959   1.547   2.977   8.469
 2475SOL     OW 7960   0.918   1.956   8.840
 2475SOL    HW1 7961   0.941   1.938   8.749
 2475SOL    HW2 7962   0.997   1.995   8.877
 2476SOL     OW 7963   0.984   2.977   9.171
 2476SOL    HW1 7964   0.893   2.993   9.194
 2476SOL    HW2 7965   0.981   2.898   9.116
 2477SOL     OW 7966   0.705   2.924   7.819
 2477SOL    HW1 7967   0.693   2.905   7.912
 2477SOL    HW2 7968   0.781   2.871   7.794
 2478SOL     OW 7969   0.423   2.680   8.701
 2478SOL    HW1 7970   0.491   2.689   8.768
 2478SOL    HW2 7971   0.389   2.591   8.712
 2479SOL     OW 7972   1.263   2.236   8.729
 2479SOL    HW1 7973   1.296   2.314   8.773
 2479SOL    HW2 7974   1.173   2.257   8.706
 2480SOL     OW 7975   0.066   3.441   8.793
 2480SOL    HW1 7976   0.071   3.484   8.707
 2480SOL    HW2 7977   0.157   3.432   8.820
 2481SOL     OW 7978   0.364   2.964   7.929
 2481SOL    HW1 7979   0.364   3.045   7.878
 2481SOL    HW2 7980   0.366   2.895   7.864
 2482SOL     OW 7981   0.547   2.396   8.310
 2482SOL    HW1 7982   0.561   2.453   8.234
 2482SOL    HW2 7983   0.616   2.421   8.372
 2483SOL     OW 7984   1.247   3.212   7.838
 2483SOL    HW1 7985   1.303   3.283   7.870
 2483SOL    HW2 7986   1.160   3.234   7.871
 2484SOL     OW 7987   1.288   3.322   8.596
 2484SOL    HW1 7988   1.343   3.326   8.674
 2484SOL    HW2 7989   1.232   3.246   8.610
 2485SOL     OW 7990   1.582   2.543   7.952
 2485SOL    HW1 7991   1.543   2.572   8.034
 2485SOL    HW2 7992   1.659   2.598   7.941
 2486SOL     OW 7993   0.345   3.391   8.764
 2486SOL    HW1 7994   0.335   3.340   8.684
 2486SOL    HW2 7995   0.439   3.405   8.773
 2487SOL     OW 7996   0.419   2.599   9.050
 2487SOL    HW1 7997   0.482   2.644   8.993
 2487SOL    HW2 7998   0.458   2.514   9.067
 2488SOL     OW 7999   1.607   2.643   9.133
 2488SOL    HW1 8000   1.521   2.685   9.127
 2488SOL    HW2 8001   1.659   2.685   9.064
 2489SOL     OW 8002   0.996   1.994   9.202
 2489SOL    HW1 8003   1.055   2.066   9.179
 2489SOL    HW2 8004   1.045   1.915   9.176
 2490SOL     OW 8005   0.496   1.896   9.196
 2490SOL    HW1 8006   0.452   1.844   9.128
 2490SOL    HW2 8007   0.443   1.975   9.205
 2491SOL     OW 8008   0.586   2.736   8.481
 2491SOL    HW1 8009   0.620   2.826   8.482
 2491SOL    HW2 8010   0.530   2.731   8.558
 2492SOL     OW 8011   1.349   2.720   8.472
 2492SOL    HW1 8012   1.264   2.708   8.430
 2492SOL    HW2 8013   1.392   2.635   8.466
 2493SOL     OW 8014   1.136   2.388   7.705
 2493SOL    HW1 8015   1.194   2.324   7.744
 2493SOL    HW2 8016   1.126   2.456   7.772
 2494SOL     OW 8017   0.309   2.057   8.695
 2494SOL    HW1 8018   0.263   2.093   8.770
 2494SOL    HW2 8019   0.287   1.964   8.695
 2495SOL     OW 8020   0.061   3.167   8.729
 2495SOL    HW1 8021   0.092   3.125   8.809
 2495SOL    HW2 8022   0.053   3.260   8.752
 2496SOL     OW 8023   0.723   2.492   8.503
 2496SOL    HW1 8024   0.798   2.478   8.445
 2496SOL    HW2 8025   0.694   2.581   8.483
 2497SOL     OW 8026   1.738   2.821   9.305
 2497SOL    HW1 8027   1.695   2.754   9.252
 2497SOL    HW2 8028   1.677   2.838   9.377
 2498SOL     OW 8029   0.316   1.923   8.068
 2498SOL    HW1 8030   0.293   2.013   8.088
 2498SOL    HW2 8031   0.323   1.880   8.153
 2499SOL     OW 8032   1.028   2.620   8.407
 2499SOL    HW1 8033   1.020   2.637   8.501
 2499SOL    HW2 8034   1.002   2.529   8.397
 2500SOL     OW 8035   0.986   3.430   9.170
 2500SOL    HW1 8036   0.966   3.470   9.086
 2500SOL    HW2 8037   1.028   3.347   9.147
 2501SOL     OW 8038   1.852   3.363   9.051
 2501SOL    HW1 8039   1.873   3.392   8.962
 2501SOL    HW2 8040   1.933   3.379   9.101
 2502SOL     OW 8041   0.354   2.784   9.247
 2502SOL    HW1 8042   0.433   2.806   9.298
 2502SOL    HW2 8043   0.383   2.717   9.186
 2503SOL     OW 8044   1.283   2.703   7.488
 2503SOL    HW1 8045   1.317   2.614   7.485
 2503SOL    HW2 8046   1.309   2.741   7.404
 2504SOL     OW 8047   1.069   3.200   8.305
 2504SOL    HW1 8048   1.073   3.128   8.242
 2504SOL    HW2 8049   1.127   3.267   8.269
 2505SOL     OW 8050   0.313   2.663   8.398
 2505SOL    HW1 8051   0.407   2.680   8.390
 2505SOL    HW2 8052   0.307   2.572   8.429
 2506SOL     OW 8053   0.328   2.383   8.463
 2506SOL    HW1 8054   0.293   2.295   8.447
 2506SOL    HW2 8055   0.404   2.390   8.406
 2507SOL     OW 8056   1.134   2.234   9.134
 2507SOL    HW1 8057   1.087   2.290   9.196
 2507SOL    HW2 8058   1.222   2.273   9.129
 2508SOL     OW 8059   1.160   2.060   8.920
 2508SOL    HW1 8060   1.149   2.123   8.992
 2508SOL    HW2 8061   1.202   2.111   8.850
 2509SOL     OW 8062   0.000   3.178   7.631
 2509SOL    HW1 8063   3.906   3.194   7.634
 2509SOL    HW2 8064   0.009   3.084   7.648
 2510SOL     OW 8065   0.076   3.662   8.343
 2510SOL    HW1 8066   0.094   3.569   8.337
 2510SOL    HW2 8067   0.163   3.704   8.344
 2511SOL     OW 8068   0.506   3.423   8.366
 2511SOL    HW1 8069   0.571   3.491   8.385
 2511SOL    HW2 8070   0.548   3.366   8.302
 2512SOL     OW 8071   0.975   2.650   8.673
 2512SOL    HW1 8072   1.034   2.630   8.745
 2512SOL    HW2 8073   0.891   2.611   8.698
 2513SOL     OW 8074   0.038   2.423   8.557
 2513SOL    HW1 8075   0.121   2.401   8.514
 2513SOL    HW2 8076   0.057   2.419   8.651
 2514SOL     OW 8077   0.206   2.373   9.176
 2514SOL    HW1 8078   0.244   2.324   9.103
 2514SOL    HW2 8079   0.163   2.448   9.134
 2515SOL     OW 8080   1.379   2.797   9.105
 2515SOL    HW1 8081   1.401   2.890   9.101
 2515SOL    HW2 8082   1.376   2.769   9.013
 2516SOL     OW 8083   0.818   2.432   7.817
 2516SOL    HW1 8084   0.829   2.359   7.756
 2516SOL    HW2 8085   0.745   2.482   7.781
 2517SOL     OW 8086   1.644   2.464   8.627
 2517SOL    HW1 8087   1.633   2.409   8.705
 2517SOL    HW2 8088   1.730   2.440   8.593
 2518SOL     OW 8089   0.301   3.406   9.171
 2518SOL    HW1 8090   0.254   3.475   9.217
 2518SOL    HW2 8091   0.272   3.325   9.213
 2519SOL     OW 8092   0.711   2.310   8.703
 2519SOL    HW1 8093   0.657   2.236   8.675
 2519SOL    HW2 8094   0.704   2.373   8.632
 2520SOL     OW 8095   0.926   3.532   8.919
 2520SOL    HW1 8096   0.899   3.493   8.836
 2520SOL    HW2 8097   0.918   3.626   8.904
 2521SOL     OW 8098   0.451   2.350   7.645
 2521SOL    HW1 8099   0.517   2.417   7.662
 2521SOL    HW2 8100   0.372   2.400   7.623
 2522SOL     OW 8101   0.154   2.996   8.925
 2522SOL    HW1 8102   0.154   2.946   9.006
 2522SOL    HW2 8103   0.170   2.931   8.856
 2523SOL     OW 8104   1.322   2.906   8.668
 2523SOL    HW1 8105   1.343   2.842   8.600
 2523SOL    HW2 8106   1.255   2.962   8.629
 2524SOL     OW 8107   1.290   2.746   7.765
 2524SOL    HW1 8108   1.224   2.696   7.814
 2524SOL    HW2 8109   1.275   2.721   7.673
 2525SOL     OW 8110   1.775   3.599   8.601
 2525SOL    HW1 8111   1.837   3.627   8.534
 2525SOL    HW2 8112   1.752   3.509   8.576
 2526SOL     OW 8113   1.245   3.594   8.554
 2526SOL    HW1 8114   1.328   3.616   8.512
 2526SOL    HW2 8115   1.252   3.501   8.574
 2527SOL     OW 8116   0.077   3.074   8.477
 2527SOL    HW1 8117   0.083   3.103   8.568
 2527SOL    HW2 8118   3.985   3.088   8.454
 2528SOL     OW 8119   0.680   3.529   9.185
 2528SOL    HW1 8120   0.621   3.604   9.188
 2528SOL    HW2 8121   0.740   3.549   9.114
 2529SOL     OW 8122   1.653   2.005   7.931
 2529SOL    HW1 8123   1.725   1.988   7.872
 2529SOL    HW2 8124   1.635   1.921   7.973
 2530SOL     OW 8125   1.392   3.431   7.938
 2530SOL    HW1 8126   1.450   3.465   7.870
 2530SOL    HW2 8127   1.342   3.507   7.968
 2531SOL     OW 8128   0.172   3.620   9.281
 2531SOL    HW1 8129   0.118   3.567   9.339
 2531SOL    HW2 8130   0.218   3.681   9.340
 2532SOL     OW 8131   1.275   2.791   8.121
 2532SOL    HW1 8132   1.350   2.733   8.133
 2532SOL    HW2 8133   1.309   2.861   8.065
 2533SOL     OW 8134   0.806   3.137   8.874
 2533SOL    HW1 8135   0.778   3.179   8.955
 2533SOL    HW2 8136   0.735   3.154   8.812
 2534SOL     OW 8137   0.674   3.481   7.607
 2534SOL    HW1 8138   0.684   3.498   7.513
 2534SOL    HW2 8139   0.615   3.406   7.611
 2535SOL     OW 8140   1.620   3.589   8.838
 2535SOL    HW1 8141   1.673   3.593   8.758
 2535SOL    HW2 8142   1.606   3.680   8.862
 2536SOL     OW 8143   0.264   2.173   8.163
 2536SOL    HW1 8144   0.178   2.205   8.138
 2536SOL    HW2 8145   0.260   2.165   8.258
 2537SOL     OW 8146   1.208   3.464   7.485
 2537SOL    HW1 8147   1.198   3.372   7.509
 2537SOL    HW2 8148   1.147   3.477   7.412
 2538SOL     OW 8149   0.823   2.868   8.823
 2538SOL    HW1 8150   0.867   2.862   8.738
 2538SOL    HW2 8151   0.820   2.962   8.842
 2539SOL     OW 8152   0.912   2.774   7.739
 2539SOL    HW1 8153   0.971   2.807   7.672
 2539SOL    HW2 8154   0.963   2.710   7.787
 2540SOL     OW 8155   1.488   3.493   7.492
 2540SOL    HW1 8156   1.395   3.481   7.475
 2540SOL    HW2 8157   1.528   3.498   7.404
 2541SOL     OW 8158   0.374   3.165   8.939
 2541SOL    HW1 8159   0.359   3.245   8.889
 2541SOL    HW2 8160   0.297   3.111   8.922
 2542SOL     OW 8161   1.608   3.146   8.727
 2542SOL    HW1 8162   1.668   3.131   8.801
 2542SOL    HW2 8163   1.548   3.213   8.759
 2543SOL     OW 8164   1.058   2.973   8.159
 2543SOL    HW1 8165   0.986   2.921   8.195
 2543SOL    HW2 8166   1.122   2.907   8.129
 2544SOL     OW 8167   1.026   2.103   8.413
 2544SOL    HW1 8168   1.023   2.056   8.329
 2544SOL    HW2 8169   1.019   2.033   8.479
 2545SOL     OW 8170   0.607   3.353   7.929
 2545SOL    HW1 8171   0.655   3.302   7.863
 2545SOL    HW2 8172   0.533   3.391   7.881
 2546SOL     OW 8173   1.728   2.252   8.822
 2546SOL    HW1 8174   1.800   2.315   8.831
 2546SOL    HW2 8175   1.762   2.184   8.764
 2547SOL     OW 8176   0.254   3.202   7.740
 2547SOL    HW1 8177   0.160   3.208   7.722
 2547SOL    HW2 8178   0.265   3.241   7.827
 2548SOL     OW 8179   0.109   2.859   9.165
 2548SOL    HW1 8180   0.049   2.854   9.240
 2548SOL    HW2 8181   0.195   2.842   9.203
 2549SOL     OW 8182   0.677   2.058   8.948
 2549SOL    HW1 8183   0.761   2.036   8.907
 2549SOL    HW2 8184   0.700   2.091   9.035
 2550SOL     OW 8185   0.080   2.172   7.484
 2550SOL    HW1 8186   3.985   2.173   7.493
 2550SOL    HW2 8187   0.101   2.253   7.439
 2551SOL     OW 8188   1.426   2.719   8.845
 2551SOL    HW1 8189   1.377   2.781   8.791
 2551SOL    HW2 8190   1.515   2.722   8.811
 2552SOL     OW 8191   0.014   2.104   7.827
 2552SOL    HW1 8192   0.044   2.167   7.761
 2552SOL    HW2 8193   0.094   2.061   7.856
 2553SOL     OW 8194   1.178   3.197   7.565
 2553SOL    HW1 8195   1.088   3.165   7.566
 2553SOL    HW2 8196   1.205   3.196   7.657
 2554SOL     OW 8197   0.621   2.692   8.885
 2554SOL    HW1 8198   0.677   2.768   8.870
 2554SOL    HW2 8199   0.681   2.618   8.892
 2555SOL     OW 8200   1.487   3.643   8.430
 2555SOL    HW1 8201   1.508   3.705   8.360
 2555SOL    HW2 8202   1.571   3.619   8.468
 2556SOL     OW 8203   0.716   2.423   9.150
 2556SOL    HW1 8204   0.762   2.483   9.209
 2556SOL    HW2 8205   0.738   2.335   9.183
 2557SOL     OW 8206   1.474   3.057   9.077
 2557SOL    HW1 8207   1.462   3.072   9.171
 2557SOL    HW2 8208   1.566   3.076   9.061
 2558SOL     OW 8209   0.378   3.610   9.008
 2558SOL    HW1 8210   0.290   3.645   8.996
 2558SOL    HW2 8211   0.364   3.526   9.052
 2559SOL     OW 8212   1.666   2.742   8.702
 2559SOL    HW1 8213   1.661   2.657   8.659
 2559SOL    HW2 8214   1.654   2.806   8.632
 2560SOL     OW 8215   1.221   2.176   7.908
 2560SOL    HW1 8216   1.306   2.141   7.880
 2560SOL    HW2 8217   1.241   2.229   7.984
 2561SOL     OW 8218   0.586   2.599   8.124
 2561SOL    HW1 8219   0.626   2.684   8.107
 2561SOL    HW2 8220   0.522   2.589   8.053
 2562SOL     OW 8221   1.751   2.245   9.098
 2562SOL    HW1 8222   1.737   2.248   9.003
 2562SOL    HW2 8223   1.690   2.178   9.129
 2563SOL     OW 8224   1.746   2.797   8.958
 2563SOL    HW1 8225   1.737   2.892   8.971
 2563SOL    HW2 8226   1.729   2.784   8.865
 2564SOL     OW 8227   0.863   3.228   7.490
 2564SOL    HW1 8228   0.823   3.258   7.571
 2564SOL    HW2 8229   0.878   3.309   7.440
 2565SOL     OW 8230   0.658   3.649   8.380
 2565SOL    HW1 8231   0.638   3.741   8.362
 2565SOL    HW2 8232   0.754   3.645   8.378
 2566SOL     OW 8233   0.869   2.831   8.301
 2566SOL    HW1 8234   0.919   2.759   8.339
 2566SOL    HW2 8235   0.831   2.876   8.377
 2567SOL     OW 8236   1.066   2.856   7.535
 2567SOL    HW1 8237   1.050   2.907   7.455
 2567SOL    HW2 8238   1.145   2.805   7.516
 2568SOL     OW 8239   1.848   3.411   8.288
 2568SOL    HW1 8240   1.766   3.403   8.239
 2568SOL    HW2 8241   1.837   3.351   8.362
 2569SOL     OW 8242   0.229   3.166   9.305
 2569SOL    HW1 8243   0.153   3.115   9.277
 2569SOL    HW2 8244   0.216   3.179   9.399
 2570SOL     OW 8245   0.119   3.143   8.173
 2570SOL    HW1 8246   0.141   3.091   8.250
 2570SOL    HW2 8247   0.103   3.079   8.104
 2571SOL     OW 8248   0.685   3.268   9.080
 2571SOL    HW1 8249   0.604   3.226   9.110
 2571SOL    HW2 8250   0.681   3.356   9.117
 2572SOL     OW 8251   0.440   2.296   7.983
 2572SOL    HW1 8252   0.448   2.225   7.919
 2572SOL    HW2 8253   0.384   2.261   8.051
 2573SOL     OW 8254   1.700   3.346   8.536
 2573SOL    HW1 8255   1.618   3.326   8.490
 2573SOL    HW2 8256   1.706   3.278   8.604
 2574SOL     OW 8257   0.336   2.421   8.740
 2574SOL    HW1 8258   0.390   2.363   8.795
 2574SOL    HW2 8259   0.350   2.389   8.651
 2575SOL     OW 8260   0.830   3.441   8.124
 2575SOL    HW1 8261   0.810   3.498   8.049
 2575SOL    HW2 8262   0.756   3.380   8.127
 2576SOL     OW 8263   1.436   2.094   8.570
 2576SOL    HW1 8264   1.441   2.005   8.605
 2576SOL    HW2 8265   1.381   2.141   8.633
 2577SOL     OW 8266   1.010   1.878   8.584
 2577SOL    HW1 8267   0.955   1.812   8.543
 2577SOL    HW2 8268   1.098   1.839   8.585
 2578SOL     OW 8269   0.773   3.195   7.771
 2578SOL    HW1 8270   0.744   3.104   7.776
 2578SOL    HW2 8271   0.856   3.196   7.817
 2579SOL     OW 8272   0.621   3.415   8.735
 2579SOL    HW1 8273   0.621   3.497   8.784
 2579SOL    HW2 8274   0.709   3.410   8.697
 2580SOL     OW 8275   1.291   2.325   8.127
 2580SOL    HW1 8276   1.239   2.405   8.132
 2580SOL    HW2 8277   1.289   2.290   8.216
 2581SOL     OW 8278   1.562   2.044   8.322
 2581SOL    HW1 8279   1.532   2.079   8.406
 2581SOL    HW2 8280   1.587   2.121   8.272
 2582SOL     OW 8281   0.048   2.909   7.689
 2582SOL    HW1 8282   0.142   2.895   7.681
 2582SOL    HW2 8283   0.012   2.824   7.714
 2583SOL     OW 8284   0.887   3.524   7.790
 2583SOL    HW1 8285   0.815   3.504   7.729
 2583SOL    HW2 8286   0.856   3.598   7.842
 2584SOL     OW 8287   0.231   2.488   9.428
 2584SOL    HW1 8288   0.138   2.496   9.449
 2584SOL    HW2 8289   0.232   2.456   9.338
 2585SOL     OW 8290   0.229   2.135  10.297
 2585SOL    HW1 8291   0.250   2.099  10.383
 2585SOL    HW2 8292   0.134   2.127  10.290
 2586SOL     OW 8293   0.006   2.219   9.940
 2586SOL    HW1 8294   3.917   2.238   9.968
 2586SOL    HW2 8295   3.997   2.190   9.849
 2587SOL     OW 8296   0.582   3.154  10.505
 2587SOL    HW1 8297   0.496   3.156  10.463
 2587SOL    HW2 8298   0.595   3.243  10.537
 2588SOL     OW 8299   1.567   3.373  10.019
 2588SOL    HW1 8300   1.524   3.350  10.102
 2588SOL    HW2 8301   1.495   3.376   9.956
 2589SOL     OW 8302   1.133   2.560  10.006
 2589SOL    HW1 8303   1.181   2.642   9.994
 2589SOL    HW2 8304   1.085   2.572  10.088
 2590SOL     OW 8305   1.782   2.462   9.536
 2590SOL    HW1 8306   1.752   2.459   9.445
 2590SOL    HW2 8307   1.742   2.385   9.577
 2591SOL     OW 8308   0.749   2.999  10.354
 2591SOL    HW1 8309   0.687   3.036  10.417
 2591SOL    HW2 8310   0.786   3.075  10.310
 2592SOL     OW 8311   0.873   2.627  11.134
 2592SOL    HW1 8312   0.864   2.697  11.198
 2592SOL    HW2 8313   0.895   2.671  11.052
 2593SOL     OW 8314   0.685   2.861   9.955
 2593SOL    HW1 8315   0.751   2.852  10.023
 2593SOL    HW2 8316   0.616   2.915   9.996
 2594SOL     OW 8317   0.713   3.011  11.129
 2594SOL    HW1 8318   0.761   3.088  11.159
 2594SOL    HW2 8319   0.633   3.046  11.090
 2595SOL     OW 8320   0.351   3.262  10.388
 2595SOL    HW1 8321   0.269   3.245  10.341
 2595SOL    HW2 8322   0.400   3.320  10.331
 2596SOL     OW 8323   1.459   3.364  10.669
 2596SOL    HW1 8324   1.514   3.442  10.679
 2596SOL    HW2 8325   1.391   3.373  10.736
 2597SOL     OW 8326   0.450   2.258  10.794
 2597SOL    HW1 8327   0.526   2.200  10.799
 2597SOL    HW2 8328   0.375   2.201  10.809
 2598SOL     OW 8329   1.600   2.302  10.047
 2598SOL    HW1 8330   1.517   2.319  10.004
 2598SOL    HW2 8331   1.613   2.377  10.106
 2599SOL     OW 8332   0.222   3.572   9.776
 2599SOL    HW1 8333   0.220   3.657   9.820
 2599SOL    HW2 8334   0.298   3.576   9.719
 2600SOL     OW 8335   1.138   3.204  11.004
 2600SOL    HW1 8336   1.179   3.197  11.091
 2600SOL    HW2 8337   1.085   3.124  10.996
 2601SOL     OW 8338   0.253   3.307   9.849
 2601SOL    HW1 8339   0.224   3.397   9.836
 2601SOL    HW2 8340   0.184   3.267   9.903
 2602SOL     OW 8341   0.248   2.927  10.193
 2602SOL    HW1 8342   0.269   2.842  10.232
 2602SOL    HW2 8343   0.195   2.972  10.259
 2603SOL     OW 8344   0.609   3.648  10.736
 2603SOL    HW1 8345   0.527   3.634  10.783
 2603SOL    HW2 8346   0.636   3.737  10.760
 2604SOL     OW 8347   0.575   2.849   9.450
 2604SOL    HW1 8348   0.624   2.893   9.381
 2604SOL    HW2 8349   0.615   2.879   9.531
 2605SOL     OW 8350   1.588   1.995  10.771
 2605SOL    HW1 8351   1.591   2.081  10.729
 2605SOL    HW2 8352   1.577   2.014  10.864
 2606SOL     OW 8353   0.144   2.519   9.883
 2606SOL    HW1 8354   0.087   2.441   9.881
 2606SOL    HW2 8355   0.108   2.572   9.954
 2607SOL     OW 8356   1.844   3.605   9.647
 2607SOL    HW1 8357   1.914   3.582   9.709
 2607SOL    HW2 8358   1.861   3.696   9.624
 2608SOL     OW 8359   0.040   3.451   9.449
 2608SOL    HW1 8360   0.037   3.360   9.477
 2608SOL    HW2 8361   3.955   3.487   9.472
 2609SOL     OW 8362   1.689   2.781   9.954
 2609SOL    HW1 8363   1.770   2.737   9.930
 2609SOL    HW2 8364   1.666   2.832   9.877
 2610SOL     OW 8365   1.649   2.965   9.739
 2610SOL    HW1 8366   1.735   2.967   9.698
 2610SOL    HW2 8367   1.655   3.029   9.811
 2611SOL     OW 8368   0.143   2.614  10.900
 2611SOL    HW1 8369   0.238   2.611  10.894
 2611SOL    HW2 8370   0.124   2.701  10.935
 2612SOL     OW 8371   0.617   3.249  10.044
 2612SOL    HW1 8372   0.570   3.167  10.053
 2612SOL    HW2 8373   0.600   3.277   9.954
 2613SOL     OW 8374   1.286   3.098  10.731
 2613SOL    HW1 8375   1.317   3.030  10.671
 2613SOL    HW2 8376   1.345   3.093  10.806
 2614SOL     OW 8377   0.823   1.864   9.824
 2614SOL    HW1 8378   0.862   1.948   9.800
 2614SOL    HW2 8379   0.729   1.882   9.828
 2615SOL     OW 8380   0.183   2.811  10.591
 2615SOL    HW1 8381   0.272   2.775  10.579
 2615SOL    HW2 8382   0.133   2.775  10.518
 2616SOL     OW 8383   1.531   2.860   9.510
 2616SOL    HW1 8384   1.462   2.803   9.543
 2616SOL    HW2 8385   1.574   2.894   9.589
 2617SOL     OW 8386   1.222   3.667  10.939
 2617SOL    HW1 8387   1.196   3.729  10.870
 2617SOL    HW2 8388   1.222   3.582  10.896
 2618SOL     OW 8389   0.343   2.109  11.129
 2618SOL    HW1 8390   0.378   2.198  11.136
 2618SOL    HW2 8391   0.251   2.117  11.153
 2619SOL     OW 8392   1.466   3.281  10.258
 2619SOL    HW1 8393   1.400   3.297  10.325
 2619SOL    HW2 8394   1.453   3.190  10.232
 2620SOL     OW 8395   1.653   3.604   9.891
 2620SOL    HW1 8396   1.639   3.572   9.802
 2620SOL    HW2 8397   1.631   3.529   9.947
 2621SOL     OW 8398   0.596   2.576   9.577
 2621SOL    HW1 8399   0.601   2.661   9.533
 2621SOL    HW2 8400   0.533   2.589   9.648
 2622SOL     OW 8401   1.279   2.227  10.246
 2622SOL    HW1 8402   1.191   2.191  10.255
 2622SOL    HW2 8403   1.334   2.170  10.299
 2623SOL     OW 8404   1.576   3.538   9.619
 2623SOL    HW1 8405   1.669   3.559   9.613
 2623SOL    HW2 8406   1.550   3.520   9.529
 2624SOL     OW 8407   0.791   2.480  10.759
 2624SOL    HW1 8408   0.765   2.454  10.847
 2624SOL    HW2 8409   0.756   2.411  10.702
 2625SOL     OW 8410   1.393   2.334  10.987
 2625SOL    HW1 8411   1.397   2.380  11.071
 2625SOL    HW2 8412   1.455   2.262  10.997
 2626SOL     OW 8413   0.950   2.747  10.895
 2626SOL    HW1 8414   1.005   2.679  10.857
 2626SOL    HW2 8415   0.902   2.783  10.821
 2627SOL     OW 8416   0.994   2.272  10.544
 2627SOL    HW1 8417   0.905   2.290  10.575
 2627SOL    HW2 8418   0.981   2.229  10.460
 2628SOL     OW 8419   1.054   2.560   9.735
 2628SOL    HW1 8420   1.071   2.554   9.828
 2628SOL    HW2 8421   0.971   2.514   9.722
 2629SOL     OW 8422   0.083   2.693  10.099
 2629SOL    HW1 8423   0.155   2.662  10.154
 2629SOL    HW2 8424   0.104   2.785  10.083
 2630SOL     OW 8425   0.127   3.720  10.891
 2630SOL    HW1 8426   0.135   3.688  10.981
 2630SOL    HW2 8427   0.035   3.707  10.869
 2631SOL     OW 8428   0.899   2.212   9.504
 2631SOL    HW1 8429   0.938   2.276   9.444
 2631SOL    HW2 8430   0.913   2.128   9.461
 2632SOL     OW 8431   1.701   2.437  11.144
 2632SOL    HW1 8432   1.667   2.508  11.090
 2632SOL    HW2 8433   1.732   2.372  11.082
 2633SOL     OW 8434   1.380   3.004   9.850
 2633SOL    HW1 8435   1.459   2.992   9.797
 2633SOL    HW2 8436   1.327   3.066   9.800
 2634SOL     OW 8437   0.547   2.039  10.206
 2634SOL    HW1 8438   0.554   2.072  10.295
 2634SOL    HW2 8439   0.545   2.118  10.152
 2635SOL     OW 8440   1.001   3.307   9.779
 2635SOL    HW1 8441   0.967   3.382   9.730
 2635SOL    HW2 8442   0.979   3.326   9.870
 2636SOL     OW 8443   0.359   3.673  10.175
 2636SOL    HW1 8444   0.440   3.623  10.188
 2636SOL    HW2 8445   0.386   3.764  10.183
 2637SOL     OW 8446   1.800   2.913  10.181
 2637SOL    HW1 8447   1.748   2.895  10.103
 2637SOL    HW2 8448   1.737   2.921  10.252
 2638SOL     OW 8449   1.227   3.400  10.821
 2638SOL    HW1 8450   1.215   3.327  10.883
 2638SOL    HW2 8451   1.157   3.388  10.757
 2639SOL     OW 8452   0.311   2.814   9.553
 2639SOL    HW1 8453   0.394   2.837   9.510
 2639SOL    HW2 8454   0.299   2.721   9.533
 2640SOL     OW 8455   1.482   2.609  10.032
 2640SOL    HW1 8456   1.477   2.569  10.119
 2640SOL    HW2 8457   1.560   2.664  10.035
 2641SOL     OW 8458   0.470   3.123  11.047
 2641SOL    HW1 8459   0.444   3.131  10.955
 2641SOL    HW2 8460   0.388   3.125  11.095
 2642SOL     OW 8461   1.113   3.643   9.530
 2642SOL    HW1 8462   1.048   3.598   9.583
 2642SOL    HW2 8463   1.145   3.577   9.469
 2643SOL     OW 8464   0.204   2.131  10.818
 2643SOL    HW1 8465   0.114   2.165  10.814
 2643SOL    HW2 8466   0.195   2.043  10.854
 2644SOL     OW 8467   1.627   3.244   9.402
 2644SOL    HW1 8468   1.587   3.329   9.384
 2644SOL    HW2 8469   1.559   3.180   9.380
 2645SOL     OW 8470   0.466   3.603   9.631
 2645SOL    HW1 8471   0.506   3.664   9.693
 2645SOL    HW2 8472   0.540   3.573   9.577
 2646SOL     OW 8473   1.400   1.967   9.745
 2646SOL    HW1 8474   1.384   1.945   9.653
 2646SOL    HW2 8475   1.489   1.936   9.762
 2647SOL     OW 8476   0.256   3.657  10.534
 2647SOL    HW1 8477   0.297   3.588  10.586
 2647SOL    HW2 8478   0.253   3.621  10.445
 2648SOL     OW 8479   0.938   3.564  10.208
 2648SOL    HW1 8480   1.016   3.513  10.231
 2648SOL    HW2 8481   0.896   3.514  10.139
 2649SOL     OW 8482   0.401   2.554   9.781
 2649SOL    HW1 8483   0.424   2.462   9.796
 2649SOL    HW2 8484   0.309   2.560   9.807
 2650SOL     OW 8485   1.534   2.085  11.035
 2650SOL    HW1 8486   1.547   2.107  11.127
 2650SOL    HW2 8487   1.464   2.021  11.035
 2651SOL     OW 8488   0.648   1.978   9.404
 2651SOL    HW1 8489   0.705   1.904   9.427
 2651SOL    HW2 8490   0.596   1.947   9.331
 2652SOL     OW 8491   0.765   2.141  11.065
 2652SOL    HW1 8492   0.845   2.089  11.061
 2652SOL    HW2 8493   0.719   2.109  11.143
 2653SOL     OW 8494   0.876   3.383  10.504
 2653SOL    HW1 8495   0.858   3.346  10.418
 2653SOL    HW2 8496   0.945   3.328  10.541
 2654SOL     OW 8497   1.339   2.451  10.742
 2654SOL    HW1 8498   1.370   2.420  10.828
 2654SOL    HW2 8499   1.376   2.539  10.735
 2655SOL     OW 8500   0.818   3.251  10.254
 2655SOL    HW1 8501   0.903   3.240  10.212
 2655SOL    HW2 8502   0.756   3.256  10.181
 2656SOL     OW 8503   0.929   2.371  10.211
 2656SOL    HW1 8504   0.905   2.363  10.119
 2656SOL    HW2 8505   0.959   2.284  10.236
 2657SOL     OW 8506   0.559   1.924   9.803
 2657SOL    HW1 8507   0.477   1.929   9.852
 2657SOL    HW2 8508   0.562   2.006   9.753
 2658SOL     OW 8509   1.428   3.062   9.349
 2658SOL    HW1 8510   1.458   2.987   9.400
 2658SOL    HW2 8511   1.342   3.084   9.386
 2659SOL     OW 8512   0.309   1.913   9.479
 2659SOL    HW1 8513   0.371   1.952   9.417
 2659SOL    HW2 8514   0.360   1.848   9.528
 2660SOL     OW 8515   0.942   2.110   9.767
 2660SOL    HW1 8516   0.914   2.149   9.684
 2660SOL    HW2 8517   1.036   2.128   9.771
 2661SOL     OW 8518   1.080   2.545  10.767
 2661SOL    HW1 8519   1.015   2.476  10.772
 2661SOL    HW2 8520   1.164   2.499  10.762
 2662SOL     OW 8521   1.220   3.434  10.104
 2662SOL    HW1 8522   1.234   3.500  10.037
 2662SOL    HW2 8523   1.289   3.449  10.168
 2663SOL     OW 8524   0.467   3.014  10.042
 2663SOL    HW1 8525   0.397   2.989  10.102
 2663SOL    HW2 8526   0.431   2.998   9.955
 2664SOL     OW 8527   1.264   3.654   9.919
 2664SOL    HW1 8528   1.313   3.719   9.868
 2664SOL    HW2 8529   1.191   3.704   9.956
 2665SOL     OW 8530   1.023   2.398   9.336
 2665SOL    HW1 8531   0.980   2.481   9.316
 2665SOL    HW2 8532   1.089   2.420   9.402
 2666SOL     OW 8533   0.084   2.436  10.699
 2666SOL    HW1 8534   0.174   2.423  10.669
 2666SOL    HW2 8535   0.090   2.505  10.765
 2667SOL     OW 8536   0.567   2.089  10.478
 2667SOL    HW1 8537   0.608   2.015  10.522
 2667SOL    HW2 8538   0.475   2.085  10.506
 2668SOL     OW 8539   0.867   2.320   9.949
 2668SOL    HW1 8540   0.820   2.374   9.886
 2668SOL    HW2 8541   0.888   2.240   9.901
 2669SOL     OW 8542   1.018   1.916  10.058
 2669SOL    HW1 8543   0.959   1.911   9.983
 2669SOL    HW2 8544   0.994   1.841  10.113
 2670SOL     OW 8545   1.439   3.023  10.167
 2670SOL    HW1 8546   1.368   2.958  10.167
 2670SOL    HW2 8547   1.463   3.031  10.074
 2671SOL     OW 8548   1.465   2.470  10.279
 2671SOL    HW1 8549   1.408   2.393  10.283
 2671SOL    HW2 8550   1.523   2.462  10.355
 2672SOL     OW 8551   1.840   2.675   9.695
 2672SOL    HW1 8552   1.901   2.628   9.752
 2672SOL    HW2 8553   1.817   2.611   9.628
 2673SOL     OW 8554   0.488   3.283   9.467
 2673SOL    HW1 8555   0.411   3.254   9.517
 2673SOL    HW2 8556   0.473   3.250   9.379
 2674SOL     OW 8557   1.676   3.125   9.952
 2674SOL    HW1 8558   1.770   3.126   9.967
 2674SOL    HW2 8559   1.647   3.214   9.974
 2675SOL     OW 8560   1.393   2.436   9.379
 2675SOL    HW1 8561   1.334   2.414   9.451
 2675SOL    HW2 8562   1.479   2.407   9.409
 2676SOL     OW 8563   0.575   2.129   9.625
 2676SOL    HW1 8564   0.608   2.083   9.548
 2676SOL    HW2 8565   0.543   2.213   9.591
 2677SOL     OW 8566   1.750   3.104  10.875
 2677SOL    HW1 8567   1.837   3.065  10.869
 2677SOL    HW2 8568   1.765   3.194  10.903
 2678SOL     OW 8569   1.055   3.214  10.641
 2678SOL    HW1 8570   0.979   3.183  10.692
 2678SOL    HW2 8571   1.130   3.173  10.683
 2679SOL     OW 8572   1.610   3.489  10.968
 2679SOL    HW1 8573   1.601   3.523  10.879
 2679SOL    HW2 8574   1.693   3.440  10.967
 2680SOL     OW 8575   1.134   3.070  10.412
 2680SOL    HW1 8576   1.074   3.108  10.477
 2680SOL    HW2 8577   1.104   3.105  10.329
 2681SOL     OW 8578   1.624   2.958  10.386
 2681SOL    HW1 8579   1.618   3.021  10.458
 2681SOL    HW2 8580   1.547   2.977  10.331
 2682SOL     OW 8581   0.918   1.956  10.702
 2682SOL    HW1 8582   0.941   1.937  10.611
 2682SOL    HW2 8583   0.997   1.995  10.739
 2683SOL     OW 8584   0.984   2.977  11.033
 2683SOL    HW1 8585   0.893   2.993  11.056
 2683SOL    HW2 8586   0.981   2.898  10.978
 2684SOL     OW 8587   0.708   2.923   9.681
 2684SOL    HW1 8588   0.694   2.904   9.774
 2684SOL    HW2 8589   0.784   2.870   9.657
 2685SOL     OW 8590   0.423   2.680  10.563
 2685SOL    HW1 8591   0.491   2.689  10.630
 2685SOL    HW2 8592   0.389   2.591  10.574
 2686SOL     OW 8593   1.264   2.236  10.590
 2686SOL    HW1 8594   1.296   2.314  10.635
 2686SOL    HW2 8595   1.173   2.257  10.568
 2687SOL     OW 8596   0.065   3.441  10.655
 2687SOL    HW1 8597   0.071   3.484  10.569
 2687SOL    HW2 8598   0.157   3.432  10.683
 2688SOL     OW 8599   0.366   2.965   9.791
 2688SOL    HW1 8600   0.363   3.046   9.740
 2688SOL    HW2 8601   0.366   2.895   9.725
 2689SOL     OW 8602   0.547   2.396  10.171
 2689SOL    HW1 8603   0.561   2.453  10.096
 2689SOL    HW2 8604   0.615   2.421  10.234
 2690SOL     OW 8605   1.247   3.212   9.700
 2690SOL    HW1 8606   1.303   3.283   9.732
 2690SOL    HW2 8607   1.160   3.233   9.733
 2691SOL     OW 8608   1.288   3.322  10.458
 2691SOL    HW1 8609   1.343   3.327  10.536
 2691SOL    HW2 8610   1.232   3.246  10.473
 2692SOL     OW 8611   1.574   2.490   9.783
 2692SOL    HW1 8612   1.528   2.532   9.855
 2692SOL    HW2 8613   1.623   2.560   9.741
 2693SOL     OW 8614   0.345   3.391  10.626
 2693SOL    HW1 8615   0.335   3.340  10.546
 2693SOL    HW2 8616   0.439   3.405  10.635
 2694SOL     OW 8617   0.419   2.599  10.912
 2694SOL    HW1 8618   0.482   2.644  10.855
 2694SOL    HW2 8619   0.458   2.514  10.929
 2695SOL     OW 8620   1.607   2.643  10.995
 2695SOL    HW1 8621   1.521   2.685  10.989
 2695SOL    HW2 8622   1.659   2.685  10.926
 2696SOL     OW 8623   0.996   1.994  11.063
 2696SOL    HW1 8624   1.055   2.066  11.041
 2696SOL    HW2 8625   1.044   1.915  11.038
 2697SOL     OW 8626   0.496   1.896  11.058
 2697SOL    HW1 8627   0.452   1.844  10.990
 2697SOL    HW2 8628   0.443   1.975  11.067
 2698SOL     OW 8629   0.586   2.736  10.342
 2698SOL    HW1 8630   0.620   2.826  10.344
 2698SOL    HW2 8631   0.530   2.731  10.420
 2699SOL     OW 8632   1.350   2.720  10.332
 2699SOL    HW1 8633   1.264   2.706  10.293
 2699SOL    HW2 8634   1.395   2.636  10.323
 2700SOL     OW 8635   1.201   2.389   9.573
 2700SOL    HW1 8636   1.209   2.311   9.628
 2700SOL    HW2 8637   1.159   2.454   9.629
 2701SOL     OW 8638   0.310   2.057  10.557
 2701SOL    HW1 8639   0.263   2.093  10.632
 2701SOL    HW2 8640   0.287   1.964  10.557
 2702SOL     OW 8641   0.062   3.167  10.591
 2702SOL    HW1 8642   0.092   3.125  10.671
 2702SOL    HW2 8643   0.053   3.260  10.614
 2703SOL     OW 8644   0.722   2.492  10.364
 2703SOL    HW1 8645   0.798   2.478  10.308
 2703SOL    HW2 8646   0.694   2.581  10.345
 2704SOL     OW 8647   1.738   2.821  11.167
 2704SOL    HW1 8648   1.695   2.754  11.114
 2704SOL    HW2 8649   1.677   2.838  11.239
 2705SOL     OW 8650   0.316   1.923   9.930
 2705SOL    HW1 8651   0.293   2.014   9.950
 2705SOL    HW2 8652   0.323   1.880  10.015
 2706SOL     OW 8653   1.614   2.244   9.680
 2706SOL    HW1 8654   1.608   2.186   9.756
 2706SOL    HW2 8655   1.592   2.330   9.714
 2707SOL     OW 8656   1.029   2.620  10.268
 2707SOL    HW1 8657   1.021   2.637  10.362
 2707SOL    HW2 8658   1.003   2.529  10.258
 2708SOL     OW 8659   0.986   3.430  11.032
 2708SOL    HW1 8660   0.966   3.470  10.948
 2708SOL    HW2 8661   1.028   3.347  11.010
 2709SOL     OW 8662   1.852   3.364  10.913
 2709SOL    HW1 8663   1.873   3.392  10.824
 2709SOL    HW2 8664   1.933   3.379  10.963
 2710SOL     OW 8665   0.354   2.784  11.109
 2710SOL    HW1 8666   0.432   2.806  11.160
 2710SOL    HW2 8667   0.384   2.717  11.048
 2711SOL     OW 8668   1.524   2.135   9.438
 2711SOL    HW1 8669   1.460   2.070   9.466
 2711SOL    HW2 8670   1.558   2.171   9.520
 2712SOL     OW 8671   1.287   2.687   9.338
 2712SOL    HW1 8672   1.330   2.602   9.343
 2712SOL    HW2 8673   1.320   2.726   9.257
 2713SOL     OW 8674   1.069   3.200  10.166
 2713SOL    HW1 8675   1.073   3.128  10.103
 2713SOL    HW2 8676   1.127   3.267  10.131
 2714SOL     OW 8677   0.313   2.663  10.260
 2714SOL    HW1 8678   0.407   2.680  10.254
 2714SOL    HW2 8679   0.307   2.572  10.291
 2715SOL     OW 8680   0.328   2.383  10.325
 2715SOL    HW1 8681   0.294   2.295  10.309
 2715SOL    HW2 8682   0.404   2.390  10.267
 2716SOL     OW 8683   1.134   2.235  10.996
 2716SOL    HW1 8684   1.087   2.290  11.058
 2716SOL    HW2 8685   1.222   2.273  10.991
 2717SOL     OW 8686   1.160   2.061  10.782
 2717SOL    HW1 8687   1.149   2.123  10.853
 2717SOL    HW2 8688   1.202   2.111  10.712
 2718SOL     OW 8689   0.000   3.177   9.492
 2718SOL    HW1 8690   3.906   3.194   9.496
 2718SOL    HW2 8691   0.009   3.084   9.510
 2719SOL     OW 8692   0.076   3.662  10.205
 2719SOL    HW1 8693   0.094   3.569  10.200
 2719SOL    HW2 8694   0.162   3.704  10.206
 2720SOL     OW 8695   0.506   3.423  10.228
 2720SOL    HW1 8696   0.571   3.491  10.247
 2720SOL    HW2 8697   0.548   3.366  10.164
 2721SOL     OW 8698   0.975   2.650  10.534
 2721SOL    HW1 8699   1.034   2.631  10.607
 2721SOL    HW2 8700   0.891   2.611  10.560
 2722SOL     OW 8701   0.038   2.423  10.419
 2722SOL    HW1 8702   0.121   2.401  10.377
 2722SOL    HW2 8703   0.057   2.419  10.513
 2723SOL     OW 8704   0.207   2.373  11.038
 2723SOL    HW1 8705   0.243   2.324  10.965
 2723SOL    HW2 8706   0.163   2.448  10.996
 2724SOL     OW 8707   1.379   2.797  10.967
 2724SOL    HW1 8708   1.401   2.890  10.963
 2724SOL    HW2 8709   1.376   2.769  10.875
 2725SOL     OW 8710   0.819   2.431   9.674
 2725SOL    HW1 8711   0.824   2.356   9.615
 2725SOL    HW2 8712   0.745   2.482   9.642
 2726SOL     OW 8713   1.643   2.464  10.489
 2726SOL    HW1 8714   1.632   2.408  10.566
 2726SOL    HW2 8715   1.730   2.441  10.455
 2727SOL     OW 8716   0.301   3.406  11.033
 2727SOL    HW1 8717   0.254   3.475  11.079
 2727SOL    HW2 8718   0.272   3.325  11.075
 2728SOL     OW 8719   0.712   2.309  10.565
 2728SOL    HW1 8720   0.657   2.236  10.537
 2728SOL    HW2 8721   0.704   2.373  10.494
 2729SOL     OW 8722   0.926   3.532  10.780
 2729SOL    HW1 8723   0.899   3.493  10.697
 2729SOL    HW2 8724   0.918   3.626  10.766
 2730SOL     OW 8725   0.452   2.350   9.507
 2730SOL    HW1 8726   0.517   2.417   9.525
 2730SOL    HW2 8727   0.373   2.399   9.484
 2731SOL     OW 8728   0.154   2.996  10.787
 2731SOL    HW1 8729   0.154   2.946  10.868
 2731SOL    HW2 8730   0.170   2.931  10.718
 2732SOL     OW 8731   1.322   2.906  10.530
 2732SOL    HW1 8732   1.343   2.842  10.461
 2732SOL    HW2 8733   1.255   2.962  10.490
 2733SOL     OW 8734   1.315   2.720   9.614
 2733SOL    HW1 8735   1.241   2.687   9.665
 2733SOL    HW2 8736   1.288   2.705   9.523
 2734SOL     OW 8737   1.774   3.599  10.463
 2734SOL    HW1 8738   1.837   3.627  10.396
 2734SOL    HW2 8739   1.752   3.509  10.438
 2735SOL     OW 8740   1.244   3.594  10.416
 2735SOL    HW1 8741   1.328   3.616  10.374
 2735SOL    HW2 8742   1.252   3.501  10.436
 2736SOL     OW 8743   0.077   3.075  10.338
 2736SOL    HW1 8744   0.084   3.103  10.430
 2736SOL    HW2 8745   3.985   3.088  10.316
 2737SOL     OW 8746   0.680   3.529  11.047
 2737SOL    HW1 8747   0.621   3.604  11.050
 2737SOL    HW2 8748   0.741   3.549  10.976
 2738SOL     OW 8749   1.391   3.431   9.799
 2738SOL    HW1 8750   1.450   3.465   9.732
 2738SOL    HW2 8751   1.342   3.507   9.829
 2739SOL     OW 8752   0.172   3.620  11.143
 2739SOL    HW1 8753   0.118   3.567  11.201
 2739SOL    HW2 8754   0.218   3.681  11.202
 2740SOL     OW 8755   1.278   2.789   9.981
 2740SOL    HW1 8756   1.352   2.729   9.990
 2740SOL    HW2 8757   1.312   2.861   9.928
 2741SOL     OW 8758   0.806   3.137  10.736
 2741SOL    HW1 8759   0.778   3.179  10.817
 2741SOL    HW2 8760   0.735   3.154  10.674
 2742SOL     OW 8761   0.674   3.481   9.469
 2742SOL    HW1 8762   0.684   3.498   9.375
 2742SOL    HW2 8763   0.615   3.406   9.473
 2743SOL     OW 8764   1.620   3.589  10.700
 2743SOL    HW1 8765   1.673   3.593  10.620
 2743SOL    HW2 8766   1.606   3.680  10.724
 2744SOL     OW 8767   0.264   2.174  10.025
 2744SOL    HW1 8768   0.177   2.205  10.000
 2744SOL    HW2 8769   0.260   2.165  10.120
 2745SOL     OW 8770   1.208   3.464   9.347
 2745SOL    HW1 8771   1.197   3.372   9.371
 2745SOL    HW2 8772   1.147   3.477   9.274
 2746SOL     OW 8773   0.823   2.868  10.685
 2746SOL    HW1 8774   0.867   2.862  10.600
 2746SOL    HW2 8775   0.820   2.962  10.704
 2747SOL     OW 8776   0.916   2.772   9.601
 2747SOL    HW1 8777   0.976   2.805   9.534
 2747SOL    HW2 8778   0.966   2.704   9.647
 2748SOL     OW 8779   1.488   3.493   9.354
 2748SOL    HW1 8780   1.395   3.481   9.337
 2748SOL    HW2 8781   1.528   3.498   9.266
 2749SOL     OW 8782   0.374   3.164  10.801
 2749SOL    HW1 8783   0.359   3.245  10.751
 2749SOL    HW2 8784   0.297   3.111  10.784
 2750SOL     OW 8785   1.608   3.146  10.589
 2750SOL    HW1 8786   1.668   3.131  10.663
 2750SOL    HW2 8787   1.548   3.213  10.621
 2751SOL     OW 8788   1.060   2.972  10.020
 2751SOL    HW1 8789   0.987   2.921  10.057
 2751SOL    HW2 8790   1.123   2.906   9.992
 2752SOL     OW 8791   1.024   2.104  10.277
 2752SOL    HW1 8792   1.021   2.057  10.193
 2752SOL    HW2 8793   1.019   2.035  10.343
 2753SOL     OW 8794   0.607   3.353   9.790
 2753SOL    HW1 8795   0.654   3.302   9.724
 2753SOL    HW2 8796   0.533   3.391   9.743
 2754SOL     OW 8797   1.730   2.249  10.682
 2754SOL    HW1 8798   1.801   2.313  10.692
 2754SOL    HW2 8799   1.766   2.182  10.624
 2755SOL     OW 8800   0.254   3.202   9.602
 2755SOL    HW1 8801   0.160   3.208   9.584
 2755SOL    HW2 8802   0.265   3.241   9.689
 2756SOL     OW 8803   0.109   2.859  11.027
 2756SOL    HW1 8804   0.049   2.854  11.102
 2756SOL    HW2 8805   0.195   2.842  11.065
 2757SOL     OW 8806   0.677   2.058  10.810
 2757SOL    HW1 8807   0.761   2.036  10.769
 2757SOL    HW2 8808   0.700   2.091  10.897
 2758SOL     OW 8809   0.081   2.173   9.347
 2758SOL    HW1 8810   3.985   2.173   9.356
 2758SOL    HW2 8811   0.101   2.254   9.301
 2759SOL     OW 8812   1.426   2.719  10.707
 2759SOL    HW1 8813   1.377   2.781  10.653
 2759SOL    HW2 8814   1.515   2.722  10.673
 2760SOL     OW 8815   0.016   2.104   9.688
 2760SOL    HW1 8816   0.045   2.167   9.623
 2760SOL    HW2 8817   0.096   2.062   9.718
 2761SOL     OW 8818   1.177   3.197   9.427
 2761SOL    HW1 8819   1.086   3.169   9.428
 2761SOL    HW2 8820   1.203   3.197   9.519
 2762SOL     OW 8821   0.620   2.692  10.747
 2762SOL    HW1 8822   0.677   2.768  10.732
 2762SOL    HW2 8823   0.681   2.619  10.754
 2763SOL     OW 8824   1.487   3.643  10.292
 2763SOL    HW1 8825   1.509   3.705  10.222
 2763SOL    HW2 8826   1.571   3.619  10.330
 2764SOL     OW 8827   0.716   2.423  11.012
 2764SOL    HW1 8828   0.762   2.483  11.071
 2764SOL    HW2 8829   0.738   2.335  11.045
 2765SOL     OW 8830   1.474   3.057  10.939
 2765SOL    HW1 8831   1.462   3.072  11.033
 2765SOL    HW2 8832   1.566   3.076  10.923
 2766SOL     OW 8833   0.377   3.609  10.870
 2766SOL    HW1 8834   0.290   3.645  10.858
 2766SOL    HW2 8835   0.364   3.526  10.914
 2767SOL     OW 8836   1.666   2.742  10.564
 2767SOL    HW1 8837   1.661   2.657  10.521
 2767SOL    HW2 8838   1.655   2.806  10.493
 2768SOL     OW 8839   1.216   2.182   9.768
 2768SOL    HW1 8840   1.278   2.109   9.761
 2768SOL    HW2 8841   1.245   2.231   9.844
 2769SOL     OW 8842   0.588   2.598   9.984
 2769SOL    HW1 8843   0.627   2.684   9.969
 2769SOL    HW2 8844   0.523   2.589   9.914
 2770SOL     OW 8845   1.753   2.244  10.959
 2770SOL    HW1 8846   1.739   2.246  10.864
 2770SOL    HW2 8847   1.693   2.176  10.991
 2771SOL     OW 8848   1.746   2.797  10.820
 2771SOL    HW1 8849   1.737   2.892  10.833
 2771SOL    HW2 8850   1.729   2.784  10.727
 2772SOL     OW 8851   0.866   3.228   9.353
 2772SOL    HW1 8852   0.824   3.256   9.434
 2772SOL    HW2 8853   0.879   3.309   9.303
 2773SOL     OW 8854   0.658   3.649  10.241
 2773SOL    HW1 8855   0.638   3.741  10.224
 2773SOL    HW2 8856   0.754   3.645  10.240
 2774SOL     OW 8857   0.870   2.831  10.163
 2774SOL    HW1 8858   0.919   2.759  10.201
 2774SOL    HW2 8859   0.832   2.877  10.238
 2775SOL     OW 8860   1.076   2.849   9.399
 2775SOL    HW1 8861   1.056   2.902   9.321
 2775SOL    HW2 8862   1.151   2.796   9.372
 2776SOL     OW 8863   1.848   3.411  10.150
 2776SOL    HW1 8864   1.767   3.401  10.100
 2776SOL    HW2 8865   1.838   3.351  10.224
 2777SOL     OW 8866   0.229   3.166  11.167
 2777SOL    HW1 8867   0.153   3.115  11.140
 2777SOL    HW2 8868   0.217   3.179  11.261
 2778SOL     OW 8869   0.120   3.144  10.034
 2778SOL    HW1 8870   0.139   3.092  10.113
 2778SOL    HW2 8871   0.104   3.079   9.966
 2779SOL     OW 8872   0.684   3.268  10.942
 2779SOL    HW1 8873   0.604   3.226  10.972
 2779SOL    HW2 8874   0.681   3.356  10.979
 2780SOL     OW 8875   0.440   2.295   9.845
 2780SOL    HW1 8876   0.440   2.225   9.779
 2780SOL    HW2 8877   0.385   2.262   9.915
 2781SOL     OW 8878   1.700   3.346  10.399
 2781SOL    HW1 8879   1.618   3.326  10.352
 2781SOL    HW2 8880   1.706   3.278  10.466
 2782SOL     OW 8881   0.337   2.421  10.602
 2782SOL    HW1 8882   0.389   2.363  10.657
 2782SOL    HW2 8883   0.350   2.389  10.513
 2783SOL     OW 8884   0.830   3.441   9.986
 2783SOL    HW1 8885   0.810   3.498   9.911
 2783SOL    HW2 8886   0.756   3.380   9.989
 2784SOL     OW 8887   1.436   2.093  10.430
 2784SOL    HW1 8888   1.443   2.004  10.464
 2784SOL    HW2 8889   1.382   2.140  10.494
 2785SOL     OW 8890   1.010   1.878  10.447
 2785SOL    HW1 8891   0.956   1.811  10.404
 2785SOL    HW2 8892   1.098   1.840  10.448
 2786SOL     OW 8893   0.773   3.194   9.631
 2786SOL    HW1 8894   0.745   3.103   9.638
 2786SOL    HW2 8895   0.856   3.197   9.680
 2787SOL     OW 8896   0.621   3.415  10.597
 2787SOL    HW1 8897   0.621   3.497  10.646
 2787SOL    HW2 8898   0.709   3.410  10.559
 2788SOL     OW 8899   1.352   1.914   9.479
 2788SOL    HW1 8900   1.385   1.848   9.417
 2788SOL    HW2 8901   1.264   1.884   9.501
 2789SOL     OW 8902   1.300   2.325   9.990
 2789SOL    HW1 8903   1.247   2.404   9.993
 2789SOL    HW2 8904   1.292   2.287  10.077
 2790SOL     OW 8905   1.565   2.048  10.184
 2790SOL    HW1 8906   1.532   2.078  10.268
 2790SOL    HW2 8907   1.585   2.128  10.136
 2791SOL     OW 8908   0.047   2.909   9.551
 2791SOL    HW1 8909   0.142   2.894   9.543
 2791SOL    HW2 8910   0.012   2.824   9.575
 2792SOL     OW 8911   0.887   3.524   9.651
 2792SOL    HW1 8912   0.815   3.504   9.591
 2792SOL    HW2 8913   0.856   3.597   9.704
 2793SOL     OW 8914   0.231   2.488  11.290
 2793SOL    HW1 8915   0.138   2.496  11.311
 2793SOL    HW2 8916   0.232   2.456  11.200
 2794SOL     OW 8917   0.229   2.135  12.159
 2794SOL    HW1 8918   0.250   2.100  12.245
 2794SOL    HW2 8919   0.134   2.127  12.152
 2795SOL     OW 8920   0.006   2.219  11.802
 2795SOL    HW1 8921   3.917   2.238  11.830
 2795SOL    HW2 8922   3.997   2.190  11.711
 2796SOL     OW 8923   0.582   3.154  12.367
 2796SOL    HW1 8924   0.496   3.156  12.325
 2796SOL    HW2 8925   0.595   3.243  12.399
 2797SOL     OW 8926   1.567   3.373  11.881
 2797SOL    HW1 8927   1.524   3.350  11.964
 2797SOL    HW2 8928   1.495   3.376  11.818
 2798SOL     OW 8929   1.133   2.560  11.868
 2798SOL    HW1 8930   1.181   2.642  11.856
 2798SOL    HW2 8931   1.085   2.572  11.950
 2799SOL     OW 8932   1.782   2.462  11.398
 2799SOL    HW1 8933   1.753   2.459  11.307
 2799SOL    HW2 8934   1.742   2.385  11.438
 2800SOL     OW 8935   0.749   2.999  12.216
 2800SOL    HW1 8936   0.687   3.036  12.279
 2800SOL    HW2 8937   0.786   3.075  12.172
 2801SOL     OW 8938   0.873   2.627  12.995
 2801SOL    HW1 8939   0.866   2.698  13.059
 2801SOL    HW2 8940   0.895   2.671  12.913
 2802SOL     OW 8941   0.685   2.861  11.817
 2802SOL    HW1 8942   0.752   2.852  11.885
 2802SOL    HW2 8943   0.616   2.915  11.858
 2803SOL     OW 8944   0.713   3.011  12.990
 2803SOL    HW1 8945   0.761   3.088  13.020
 2803SOL    HW2 8946   0.633   3.046  12.952
 2804SOL     OW 8947   0.351   3.262  12.250
 2804SOL    HW1 8948   0.269   3.245  12.203
 2804SOL    HW2 8949   0.400   3.320  12.192
 2805SOL     OW 8950   1.459   3.364  12.531
 2805SOL    HW1 8951   1.514   3.442  12.541
 2805SOL    HW2 8952   1.391   3.373  12.598
 2806SOL     OW 8953   0.450   2.258  12.656
 2806SOL    HW1 8954   0.526   2.200  12.661
 2806SOL    HW2 8955   0.375   2.201  12.671
 2807SOL     OW 8956   1.599   2.303  11.911
 2807SOL    HW1 8957   1.516   2.320  11.867
 2807SOL    HW2 8958   1.610   2.377  11.970
 2808SOL     OW 8959   0.222   3.572  11.638
 2808SOL    HW1 8960   0.220   3.657  11.682
 2808SOL    HW2 8961   0.298   3.576  11.581
 2809SOL     OW 8962   1.138   3.204  12.866
 2809SOL    HW1 8963   1.178   3.197  12.952
 2809SOL    HW2 8964   1.085   3.124  12.858
 2810SOL     OW 8965   0.253   3.307  11.711
 2810SOL    HW1 8966   0.224   3.397  11.698
 2810SOL    HW2 8967   0.184   3.267  11.765
 2811SOL     OW 8968   0.248   2.927  12.055
 2811SOL    HW1 8969   0.269   2.842  12.094
 2811SOL    HW2 8970   0.195   2.972  12.121
 2812SOL     OW 8971   0.609   3.648  12.597
 2812SOL    HW1 8972   0.527   3.634  12.645
 2812SOL    HW2 8973   0.636   3.737  12.622
 2813SOL     OW 8974   0.575   2.849  11.312
 2813SOL    HW1 8975   0.624   2.893  11.243
 2813SOL    HW2 8976   0.615   2.879  11.393
 2814SOL     OW 8977   1.588   1.995  12.633
 2814SOL    HW1 8978   1.592   2.081  12.591
 2814SOL    HW2 8979   1.577   2.014  12.726
 2815SOL     OW 8980   0.144   2.519  11.745
 2815SOL    HW1 8981   0.087   2.441  11.743
 2815SOL    HW2 8982   0.108   2.572  11.816
 2816SOL     OW 8983   1.844   3.605  11.509
 2816SOL    HW1 8984   1.914   3.582  11.571
 2816SOL    HW2 8985   1.861   3.696  11.486
 2817SOL     OW 8986   0.040   3.451  11.311
 2817SOL    HW1 8987   0.037   3.359  11.339
 2817SOL    HW2 8988   3.955   3.487  11.334
 2818SOL     OW 8989   1.689   2.781  11.816
 2818SOL    HW1 8990   1.771   2.737  11.792
 2818SOL    HW2 8991   1.666   2.832  11.739
 2819SOL     OW 8992   1.649   2.965  11.601
 2819SOL    HW1 8993   1.735   2.967  11.560
 2819SOL    HW2 8994   1.655   3.029  11.673
 2820SOL     OW 8995   0.143   2.614  12.762
 2820SOL    HW1 8996   0.238   2.611  12.756
 2820SOL    HW2 8997   0.124   2.701  12.797
 2821SOL     OW 8998   0.617   3.249  11.906
 2821SOL    HW1 8999   0.570   3.167  11.915
 2821SOL    HW2 9000   0.600   3.277  11.816
 2822SOL     OW 9001   1.286   3.098  12.593
 2822SOL    HW1 9002   1.317   3.030  12.534
 2822SOL    HW2 9003   1.345   3.093  12.668
 2823SOL     OW 9004   0.823   1.864  11.686
 2823SOL    HW1 9005   0.862   1.948  11.662
 2823SOL    HW2 9006   0.729   1.882  11.690
 2824SOL     OW 9007   0.183   2.811  12.453
 2824SOL    HW1 9008   0.272   2.775  12.441
 2824SOL    HW2 9009   0.133   2.775  12.380
 2825SOL     OW 9010   1.531   2.860  11.372
 2825SOL    HW1 9011   1.462   2.803  11.405
 2825SOL    HW2 9012   1.574   2.894  11.451
 2826SOL     OW 9013   1.222   3.668  12.800
 2826SOL    HW1 9014   1.195   3.729  12.731
 2826SOL    HW2 9015   1.222   3.582  12.758
 2827SOL     OW 9016   0.344   2.109  12.991
 2827SOL    HW1 9017   0.378   2.198  12.999
 2827SOL    HW2 9018   0.252   2.117  13.015
 2828SOL     OW 9019   1.466   3.281  12.120
 2828SOL    HW1 9020   1.400   3.297  12.187
 2828SOL    HW2 9021   1.453   3.190  12.094
 2829SOL     OW 9022   1.653   3.604  11.753
 2829SOL    HW1 9023   1.639   3.572  11.664
 2829SOL    HW2 9024   1.631   3.529  11.809
 2830SOL     OW 9025   0.596   2.576  11.439
 2830SOL    HW1 9026   0.601   2.661  11.396
 2830SOL    HW2 9027   0.533   2.589  11.510
 2831SOL     OW 9028   1.279   2.227  12.108
 2831SOL    HW1 9029   1.191   2.191  12.117
 2831SOL    HW2 9030   1.334   2.170  12.161
 2832SOL     OW 9031   1.576   3.538  11.481
 2832SOL    HW1 9032   1.669   3.559  11.475
 2832SOL    HW2 9033   1.550   3.520  11.391
 2833SOL     OW 9034   0.790   2.480  12.621
 2833SOL    HW1 9035   0.764   2.454  12.709
 2833SOL    HW2 9036   0.755   2.411  12.565
 2834SOL     OW 9037   1.393   2.334  12.849
 2834SOL    HW1 9038   1.397   2.380  12.933
 2834SOL    HW2 9039   1.455   2.262  12.859
 2835SOL     OW 9040   0.951   2.747  12.757
 2835SOL    HW1 9041   1.006   2.679  12.719
 2835SOL    HW2 9042   0.902   2.783  12.683
 2836SOL     OW 9043   0.994   2.272  12.406
 2836SOL    HW1 9044   0.905   2.290  12.437
 2836SOL    HW2 9045   0.981   2.229  12.322
 2837SOL     OW 9046   1.054   2.560  11.597
 2837SOL    HW1 9047   1.071   2.554  11.690
 2837SOL    HW2 9048   0.971   2.514  11.584
 2838SOL     OW 9049   0.083   2.694  11.961
 2838SOL    HW1 9050   0.155   2.662  12.016
 2838SOL    HW2 9051   0.104   2.785  11.945
 2839SOL     OW 9052   0.127   3.720  12.754
 2839SOL    HW1 9053   0.135   3.688  12.844
 2839SOL    HW2 9054   0.035   3.707  12.732
 2840SOL     OW 9055   0.899   2.212  11.366
 2840SOL    HW1 9056   0.938   2.276  11.306
 2840SOL    HW2 9057   0.913   2.128  11.323
 2841SOL     OW 9058   1.700   2.436  13.005
 2841SOL    HW1 9059   1.666   2.508  12.951
 2841SOL    HW2 9060   1.731   2.371  12.942
 2842SOL     OW 9061   1.380   3.004  11.712
 2842SOL    HW1 9062   1.459   2.992  11.659
 2842SOL    HW2 9063   1.327   3.066  11.662
 2843SOL     OW 9064   0.547   2.039  12.068
 2843SOL    HW1 9065   0.554   2.072  12.157
 2843SOL    HW2 9066   0.545   2.118  12.014
 2844SOL     OW 9067   1.001   3.307  11.641
 2844SOL    HW1 9068   0.967   3.382  11.592
 2844SOL    HW2 9069   0.979   3.326  11.732
 2845SOL     OW 9070   0.359   3.673  12.037
 2845SOL    HW1 9071   0.440   3.623  12.050
 2845SOL    HW2 9072   0.386   3.764  12.045
 2846SOL     OW 9073   1.800   2.913  12.043
 2846SOL    HW1 9074   1.748   2.895  11.965
 2846SOL    HW2 9075   1.737   2.921  12.114
 2847SOL     OW 9076   1.227   3.400  12.683
 2847SOL    HW1 9077   1.215   3.328  12.745
 2847SOL    HW2 9078   1.157   3.388  12.619
 2848SOL     OW 9079   0.311   2.814  11.415
 2848SOL    HW1 9080   0.394   2.837  11.372
 2848SOL    HW2 9081   0.299   2.721  11.395
 2849SOL     OW 9082   1.482   2.609  11.894
 2849SOL    HW1 9083   1.477   2.570  11.981
 2849SOL    HW2 9084   1.560   2.665  11.897
 2850SOL     OW 9085   0.470   3.123  12.909
 2850SOL    HW1 9086   0.444   3.131  12.817
 2850SOL    HW2 9087   0.388   3.125  12.957
 2851SOL     OW 9088   1.113   3.644  11.392
 2851SOL    HW1 9089   1.048   3.598  11.445
 2851SOL    HW2 9090   1.145   3.577  11.331
 2852SOL     OW 9091   0.204   2.131  12.680
 2852SOL    HW1 9092   0.114   2.165  12.676
 2852SOL    HW2 9093   0.195   2.043  12.716
 2853SOL     OW 9094   1.627   3.244  11.264
 2853SOL    HW1 9095   1.587   3.329  11.246
 2853SOL    HW2 9096   1.559   3.180  11.242
 2854SOL     OW 9097   0.466   3.603  11.493
 2854SOL    HW1 9098   0.506   3.664  11.555
 2854SOL    HW2 9099   0.540   3.573  11.439
 2855SOL     OW 9100   1.400   1.967  11.607
 2855SOL    HW1 9101   1.384   1.945  11.515
 2855SOL    HW2 9102   1.489   1.936  11.623
 2856SOL     OW 9103   0.256   3.657  12.396
 2856SOL    HW1 9104   0.297   3.588  12.448
 2856SOL    HW2 9105   0.253   3.621  12.307
 2857SOL     OW 9106   0.938   3.564  12.070
 2857SOL    HW1 9107   1.015   3.513  12.094
 2857SOL    HW2 9108   0.896   3.514  12.001
 2858SOL     OW 9109   0.400   2.554  11.642
 2858SOL    HW1 9110   0.424   2.462  11.658
 2858SOL    HW2 9111   0.309   2.560  11.669
 2859SOL     OW 9112   1.534   2.086  12.898
 2859SOL    HW1 9113   1.548   2.107  12.990
 2859SOL    HW2 9114   1.464   2.021  12.898
 2860SOL     OW 9115   0.648   1.978  11.266
 2860SOL    HW1 9116   0.705   1.904  11.289
 2860SOL    HW2 9117   0.596   1.947  11.193
 2861SOL     OW 9118   0.765   2.141  12.927
 2861SOL    HW1 9119   0.845   2.089  12.923
 2861SOL    HW2 9120   0.720   2.110  13.005
 2862SOL     OW 9121   0.876   3.383  12.366
 2862SOL    HW1 9122   0.859   3.346  12.280
 2862SOL    HW2 9123   0.945   3.328  12.403
 2863SOL     OW 9124   1.339   2.451  12.605
 2863SOL    HW1 9125   1.370   2.420  12.690
 2863SOL    HW2 9126   1.376   2.539  12.597
 2864SOL     OW 9127   0.818   3.251  12.116
 2864SOL    HW1 9128   0.903   3.240  12.074
 2864SOL    HW2 9129   0.756   3.256  12.043
 2865SOL     OW 9130   0.929   2.371  12.073
 2865SOL    HW1 9131   0.905   2.363  11.981
 2865SOL    HW2 9132   0.959   2.284  12.098
 2866SOL     OW 9133   0.559   1.924  11.665
 2866SOL    HW1 9134   0.477   1.929  11.714
 2866SOL    HW2 9135   0.562   2.006  11.615
 2867SOL     OW 9136   1.428   3.062  11.211
 2867SOL    HW1 9137   1.458   2.987  11.262
 2867SOL    HW2 9138   1.342   3.084  11.248
 2868SOL     OW 9139   0.309   1.913  11.341
 2868SOL    HW1 9140   0.371   1.952  11.279
 2868SOL    HW2 9141   0.360   1.848  11.390
 2869SOL     OW 9142   0.942   2.110  11.629
 2869SOL    HW1 9143   0.914   2.149  11.546
 2869SOL    HW2 9144   1.036   2.128  11.633
 2870SOL     OW 9145   1.080   2.545  12.629
 2870SOL    HW1 9146   1.015   2.476  12.634
 2870SOL    HW2 9147   1.164   2.499  12.624
 2871SOL     OW 9148   1.220   3.434  11.966
 2871SOL    HW1 9149   1.234   3.500  11.899
 2871SOL    HW2 9150   1.289   3.449  12.030
 2872SOL     OW 9151   0.467   3.014  11.904
 2872SOL    HW1 9152   0.397   2.989  11.964
 2872SOL    HW2 9153   0.431   2.998  11.817
 2873SOL     OW 9154   1.264   3.654  11.781
 2873SOL    HW1 9155   1.313   3.719  11.730
 2873SOL    HW2 9156   1.191   3.703  11.818
 2874SOL     OW 9157   1.024   2.398  11.198
 2874SOL    HW1 9158   0.980   2.481  11.178
 2874SOL    HW2 9159   1.089   2.420  11.264
 2875SOL     OW 9160   0.084   2.436  12.561
 2875SOL    HW1 9161   0.174   2.423  12.531
 2875SOL    HW2 9162   0.090   2.505  12.627
 2876SOL     OW 9163   0.567   2.089  12.340
 2876SOL    HW1 9164   0.608   2.015  12.384
 2876SOL    HW2 9165   0.475   2.085  12.368
 2877SOL     OW 9166   0.867   2.319  11.811
 2877SOL    HW1 9167   0.820   2.374  11.748
 2877SOL    HW2 9168   0.888   2.240  11.763
 2878SOL     OW 9169   1.018   1.916  11.920
 2878SOL    HW1 9170   0.959   1.911  11.845
 2878SOL    HW2 9171   0.994   1.841  11.975
 2879SOL     OW 9172   1.439   3.023  12.029
 2879SOL    HW1 9173   1.368   2.958  12.029
 2879SOL    HW2 9174   1.463   3.031  11.936
 2880SOL     OW 9175   1.465   2.470  12.141
 2880SOL    HW1 9176   1.408   2.393  12.145
 2880SOL    HW2 9177   1.523   2.462  12.217
 2881SOL     OW 9178   1.840   2.675  11.557
 2881SOL    HW1 9179   1.901   2.628  11.615
 2881SOL    HW2 9180   1.817   2.611  11.490
 2882SOL     OW 9181   0.488   3.283  11.329
 2882SOL    HW1 9182   0.411   3.254  11.379
 2882SOL    HW2 9183   0.473   3.250  11.241
 2883SOL     OW 9184   1.676   3.126  11.814
 2883SOL    HW1 9185   1.770   3.126  11.829
 2883SOL    HW2 9186   1.647   3.214  11.836
 2884SOL     OW 9187   1.393   2.436  11.241
 2884SOL    HW1 9188   1.334   2.414  11.313
 2884SOL    HW2 9189   1.479   2.407  11.271
 2885SOL     OW 9190   0.575   2.129  11.487
 2885SOL    HW1 9191   0.608   2.083  11.410
 2885SOL    HW2 9192   0.543   2.213  11.453
 2886SOL     OW 9193   1.749   3.104  12.736
 2886SOL    HW1 9194   1.837   3.065  12.732
 2886SOL    HW2 9195   1.765   3.194  12.765
 2887SOL     OW 9196   1.055   3.214  12.503
 2887SOL    HW1 9197   0.980   3.183  12.554
 2887SOL    HW2 9198   1.130   3.173  12.545
 2888SOL     OW 9199   1.610   3.489  12.829
 2888SOL    HW1 9200   1.601   3.523  12.740
 2888SOL    HW2 9201   1.692   3.440  12.829
 2889SOL     OW 9202   1.134   3.070  12.274
 2889SOL    HW1 9203   1.075   3.108  12.339
 2889SOL    HW2 9204   1.103   3.105  12.191
 2890SOL     OW 9205   1.624   2.958  12.248
 2890SOL    HW1 9206   1.618   3.021  12.320
 2890SOL    HW2 9207   1.547   2.977  12.193
 2891SOL     OW 9208   0.918   1.956  12.564
 2891SOL    HW1 9209   0.941   1.937  12.473
 2891SOL    HW2 9210   0.997   1.995  12.601
 2892SOL     OW 9211   0.984   2.977  12.894
 2892SOL    HW1 9212   0.893   2.994  12.918
 2892SOL    HW2 9213   0.981   2.898  12.840
 2893SOL     OW 9214   0.708   2.923  11.543
 2893SOL    HW1 9215   0.694   2.904  11.636
 2893SOL    HW2 9216   0.784   2.870  11.519
 2894SOL     OW 9217   0.423   2.680  12.425
 2894SOL    HW1 9218   0.491   2.689  12.492
 2894SOL    HW2 9219   0.389   2.591  12.436
 2895SOL     OW 9220   1.264   2.236  12.453
 2895SOL    HW1 9221   1.296   2.314  12.497
 2895SOL    HW2 9222   1.173   2.257  12.430
 2896SOL     OW 9223   0.065   3.441  12.516
 2896SOL    HW1 9224   0.071   3.484  12.431
 2896SOL    HW2 9225   0.156   3.433  12.545
 2897SOL     OW 9226   0.366   2.965  11.653
 2897SOL    HW1 9227   0.363   3.046  11.602
 2897SOL    HW2 9228   0.366   2.895  11.587
 2898SOL     OW 9229   0.547   2.396  12.033
 2898SOL    HW1 9230   0.561   2.453  11.958
 2898SOL    HW2 9231   0.615   2.421  12.096
 2899SOL     OW 9232   1.247   3.212  11.562
 2899SOL    HW1 9233   1.303   3.283  11.594
 2899SOL    HW2 9234   1.160   3.233  11.595
 2900SOL     OW 9235   1.288   3.322  12.321
 2900SOL    HW1 9236   1.343   3.327  12.398
 2900SOL    HW2 9237   1.232   3.246  12.336
 2901SOL     OW 9238   1.574   2.490  11.645
 2901SOL    HW1 9239   1.528   2.533  11.717
 2901SOL    HW2 9240   1.623   2.560  11.603
 2902SOL     OW 9241   0.345   3.391  12.488
 2902SOL    HW1 9242   0.335   3.340  12.408
 2902SOL    HW2 9243   0.439   3.405  12.497
 2903SOL     OW 9244   0.419   2.599  12.774
 2903SOL    HW1 9245   0.482   2.644  12.718
 2903SOL    HW2 9246   0.458   2.514  12.791
 2904SOL     OW 9247   1.607   2.643  12.856
 2904SOL    HW1 9248   1.521   2.685  12.851
 2904SOL    HW2 9249   1.659   2.686  12.788
 2905SOL     OW 9250   0.996   1.994  12.925
 2905SOL    HW1 9251   1.055   2.066  12.903
 2905SOL    HW2 9252   1.045   1.915  12.900
 2906SOL     OW 9253   0.497   1.895  12.919
 2906SOL    HW1 9254   0.452   1.844  12.852
 2906SOL    HW2 9255   0.444   1.975  12.928
 2907SOL     OW 9256   0.586   2.736  12.204
 2907SOL    HW1 9257   0.620   2.826  12.206
 2907SOL    HW2 9258   0.530   2.731  12.282
 2908SOL     OW 9259   1.350   2.720  12.194
 2908SOL    HW1 9260   1.264   2.706  12.155
 2908SOL    HW2 9261   1.395   2.636  12.185
 2909SOL     OW 9262   1.201   2.389  11.435
 2909SOL    HW1 9263   1.209   2.311  11.490
 2909SOL    HW2 9264   1.159   2.454  11.491
 2910SOL     OW 9265   0.309   2.057  12.419
 2910SOL    HW1 9266   0.263   2.093  12.494
 2910SOL    HW2 9267   0.287   1.964  12.419
 2911SOL     OW 9268   0.062   3.167  12.452
 2911SOL    HW1 9269   0.092   3.125  12.533
 2911SOL    HW2 9270   0.053   3.260  12.476
 2912SOL     OW 9271   0.722   2.492  12.226
 2912SOL    HW1 9272   0.798   2.478  12.170
 2912SOL    HW2 9273   0.694   2.581  12.207
 2913SOL     OW 9274   1.738   2.821  13.029
 2913SOL    HW1 9275   1.695   2.754  12.976
 2913SOL    HW2 9276   1.677   2.838  13.101
 2914SOL     OW 9277   0.316   1.923  11.792
 2914SOL    HW1 9278   0.293   2.014  11.812
 2914SOL    HW2 9279   0.323   1.880  11.877
 2915SOL     OW 9280   1.613   2.244  11.542
 2915SOL    HW1 9281   1.607   2.186  11.618
 2915SOL    HW2 9282   1.591   2.331  11.576
 2916SOL     OW 9283   1.029   2.620  12.130
 2916SOL    HW1 9284   1.021   2.637  12.224
 2916SOL    HW2 9285   1.003   2.529  12.120
 2917SOL     OW 9286   0.986   3.430  12.894
 2917SOL    HW1 9287   0.966   3.470  12.810
 2917SOL    HW2 9288   1.028   3.347  12.872
 2918SOL     OW 9289   1.852   3.364  12.776
 2918SOL    HW1 9290   1.873   3.392  12.687
 2918SOL    HW2 9291   1.932   3.379  12.825
 2919SOL     OW 9292   0.354   2.784  12.972
 2919SOL    HW1 9293   0.432   2.805  13.023
 2919SOL    HW2 9294   0.383   2.717  12.910
 2920SOL     OW 9295   1.524   2.135  11.300
 2920SOL    HW1 9296   1.460   2.070  11.328
 2920SOL    HW2 9297   1.558   2.171  11.382
 2921SOL     OW 9298   1.287   2.687  11.200
 2921SOL    HW1 9299   1.330   2.602  11.205
 2921SOL    HW2 9300   1.320   2.726  11.119
 2922SOL     OW 9301   1.068   3.200  12.028
 2922SOL    HW1 9302   1.073   3.128  11.965
 2922SOL    HW2 9303   1.127   3.267  11.993
 2923SOL     OW 9304   0.313   2.662  12.122
 2923SOL    HW1 9305   0.407   2.680  12.116
 2923SOL    HW2 9306   0.307   2.572  12.153
 2924SOL     OW 9307   0.328   2.383  12.187
 2924SOL    HW1 9308   0.294   2.295  12.171
 2924SOL    HW2 9309   0.404   2.390  12.129
 2925SOL     OW 9310   1.134   2.235  12.858
 2925SOL    HW1 9311   1.087   2.290  12.920
 2925SOL    HW2 9312   1.222   2.273  12.854
 2926SOL     OW 9313   1.160   2.061  12.644
 2926SOL    HW1 9314   1.149   2.123  12.715
 2926SOL    HW2 9315   1.202   2.111  12.574
 2927SOL     OW 9316   0.000   3.177  11.354
 2927SOL    HW1 9317   3.906   3.194  11.358
 2927SOL    HW2 9318   0.009   3.084  11.372
 2928SOL     OW 9319   0.076   3.662  12.067
 2928SOL    HW1 9320   0.094   3.569  12.062
 2928SOL    HW2 9321   0.162   3.703  12.067
 2929SOL     OW 9322   0.506   3.423  12.090
 2929SOL    HW1 9323   0.571   3.491  12.109
 2929SOL    HW2 9324   0.548   3.366  12.026
 2930SOL     OW 9325   0.975   2.650  12.396
 2930SOL    HW1 9326   1.034   2.631  12.468
 2930SOL    HW2 9327   0.891   2.612  12.422
 2931SOL     OW 9328   0.038   2.423  12.281
 2931SOL    HW1 9329   0.121   2.401  12.239
 2931SOL    HW2 9330   0.057   2.419  12.375
 2932SOL     OW 9331   0.206   2.373  12.900
 2932SOL    HW1 9332   0.244   2.323  12.828
 2932SOL    HW2 9333   0.163   2.448  12.858
 2933SOL     OW 9334   1.380   2.797  12.828
 2933SOL    HW1 9335   1.401   2.890  12.825
 2933SOL    HW2 9336   1.376   2.770  12.737
 2934SOL     OW 9337   0.819   2.431  11.536
 2934SOL    HW1 9338   0.824   2.356  11.477
 2934SOL    HW2 9339   0.745   2.482  11.504
 2935SOL     OW 9340   1.643   2.463  12.350
 2935SOL    HW1 9341   1.632   2.408  12.428
 2935SOL    HW2 9342   1.730   2.440  12.317
 2936SOL     OW 9343   0.300   3.407  12.895
 2936SOL    HW1 9344   0.253   3.475  12.942
 2936SOL    HW2 9345   0.272   3.325  12.937
 2937SOL     OW 9346   0.712   2.309  12.427
 2937SOL    HW1 9347   0.657   2.236  12.399
 2937SOL    HW2 9348   0.704   2.373  12.356
 2938SOL     OW 9349   0.926   3.532  12.642
 2938SOL    HW1 9350   0.899   3.493  12.559
 2938SOL    HW2 9351   0.918   3.627  12.628
 2939SOL     OW 9352   0.452   2.350  11.369
 2939SOL    HW1 9353   0.517   2.417  11.387
 2939SOL    HW2 9354   0.373   2.399  11.346
 2940SOL     OW 9355   0.154   2.996  12.649
 2940SOL    HW1 9356   0.154   2.946  12.730
 2940SOL    HW2 9357   0.170   2.931  12.580
 2941SOL     OW 9358   1.322   2.906  12.391
 2941SOL    HW1 9359   1.343   2.842  12.323
 2941SOL    HW2 9360   1.255   2.962  12.352
 2942SOL     OW 9361   1.315   2.720  11.476
 2942SOL    HW1 9362   1.241   2.687  11.528
 2942SOL    HW2 9363   1.288   2.705  11.385
 2943SOL     OW 9364   1.774   3.599  12.325
 2943SOL    HW1 9365   1.837   3.627  12.258
 2943SOL    HW2 9366   1.752   3.509  12.300
 2944SOL     OW 9367   1.244   3.594  12.278
 2944SOL    HW1 9368   1.328   3.616  12.236
 2944SOL    HW2 9369   1.252   3.501  12.298
 2945SOL     OW 9370   0.077   3.075  12.200
 2945SOL    HW1 9371   0.084   3.103  12.291
 2945SOL    HW2 9372   3.985   3.088  12.178
 2946SOL     OW 9373   0.680   3.528  12.909
 2946SOL    HW1 9374   0.621   3.603  12.912
 2946SOL    HW2 9375   0.741   3.549  12.838
 2947SOL     OW 9376   1.391   3.431  11.661
 2947SOL    HW1 9377   1.450   3.465  11.594
 2947SOL    HW2 9378   1.342   3.507  11.691
 2948SOL     OW 9379   0.171   3.621  13.006
 2948SOL    HW1 9380   0.117   3.567  13.064
 2948SOL    HW2 9381   0.217   3.681  13.066
 2949SOL     OW 9382   1.278   2.789  11.843
 2949SOL    HW1 9383   1.352   2.729  11.852
 2949SOL    HW2 9384   1.312   2.861  11.789
 2950SOL     OW 9385   0.806   3.137  12.598
 2950SOL    HW1 9386   0.778   3.178  12.679
 2950SOL    HW2 9387   0.735   3.154  12.536
 2951SOL     OW 9388   0.674   3.481  11.331
 2951SOL    HW1 9389   0.684   3.498  11.237
 2951SOL    HW2 9390   0.615   3.406  11.335
 2952SOL     OW 9391   1.620   3.589  12.562
 2952SOL    HW1 9392   1.673   3.593  12.482
 2952SOL    HW2 9393   1.606   3.680  12.586
 2953SOL     OW 9394   0.264   2.174  11.887
 2953SOL    HW1 9395   0.177   2.205  11.862
 2953SOL    HW2 9396   0.260   2.165  11.982
 2954SOL     OW 9397   1.208   3.464  11.209
 2954SOL    HW1 9398   1.197   3.372  11.233
 2954SOL    HW2 9399   1.147   3.477  11.136
 2955SOL     OW 9400   0.823   2.868  12.547
 2955SOL    HW1 9401   0.868   2.862  12.462
 2955SOL    HW2 9402   0.820   2.962  12.566
 2956SOL     OW 9403   0.916   2.772  11.463
 2956SOL    HW1 9404   0.976   2.805  11.396
 2956SOL    HW2 9405   0.966   2.704  11.509
 2957SOL     OW 9406   1.488   3.493  11.215
 2957SOL    HW1 9407   1.395   3.481  11.199
 2957SOL    HW2 9408   1.528   3.498  11.128
 2958SOL     OW 9409   0.374   3.165  12.663
 2958SOL    HW1 9410   0.359   3.245  12.613
 2958SOL    HW2 9411   0.297   3.111  12.646
 2959SOL     OW 9412   1.608   3.146  12.452
 2959SOL    HW1 9413   1.668   3.131  12.525
 2959SOL    HW2 9414   1.548   3.213  12.483
 2960SOL     OW 9415   1.060   2.972  11.882
 2960SOL    HW1 9416   0.987   2.921  11.919
 2960SOL    HW2 9417   1.123   2.906  11.854
 2961SOL     OW 9418   1.024   2.104  12.139
 2961SOL    HW1 9419   1.021   2.057  12.055
 2961SOL    HW2 9420   1.019   2.035  12.205
 2962SOL     OW 9421   0.607   3.352  11.652
 2962SOL    HW1 9422   0.654   3.302  11.585
 2962SOL    HW2 9423   0.533   3.391  11.605
 2963SOL     OW 9424   1.731   2.248  12.544
 2963SOL    HW1 9425   1.801   2.312  12.553
 2963SOL    HW2 9426   1.768   2.181  12.486
 2964SOL     OW 9427   0.254   3.202  11.464
 2964SOL    HW1 9428   0.160   3.208  11.446
 2964SOL    HW2 9429   0.265   3.241  11.551
 2965SOL     OW 9430   0.109   2.858  12.889
 2965SOL    HW1 9431   0.049   2.854  12.964
 2965SOL    HW2 9432   0.195   2.841  12.927
 2966SOL     OW 9433   0.677   2.058  12.672
 2966SOL    HW1 9434   0.761   2.036  12.631
 2966SOL    HW2 9435   0.700   2.091  12.759
 2967SOL     OW 9436   0.081   2.173  11.209
 2967SOL    HW1 9437   3.985   2.173  11.218
 2967SOL    HW2 9438   0.101   2.254  11.163
 2968SOL     OW 9439   1.426   2.719  12.569
 2968SOL    HW1 9440   1.377   2.781  12.515
 2968SOL    HW2 9441   1.515   2.722  12.535
 2969SOL     OW 9442   0.016   2.104  11.550
 2969SOL    HW1 9443   0.045   2.167  11.485
 2969SOL    HW2 9444   0.096   2.062  11.580
 2970SOL     OW 9445   1.177   3.197  11.289
 2970SOL    HW1 9446   1.086   3.169  11.290
 2970SOL    HW2 9447   1.203   3.197  11.381
 2971SOL     OW 9448   0.620   2.693  12.609
 2971SOL    HW1 9449   0.677   2.768  12.594
 2971SOL    HW2 9450   0.681   2.619  12.616
 2972SOL     OW 9451   1.487   3.643  12.154
 2972SOL    HW1 9452   1.509   3.705  12.084
 2972SOL    HW2 9453   1.571   3.619  12.192
 2973SOL     OW 9454   0.716   2.423  12.874
 2973SOL    HW1 9455   0.762   2.483  12.933
 2973SOL    HW2 9456   0.738   2.336  12.907
 2974SOL     OW 9457   1.474   3.057  12.801
 2974SOL    HW1 9458   1.462   3.072  12.895
 2974SOL    HW2 9459   1.566   3.076  12.786
 2975SOL     OW 9460   0.377   3.609  12.732
 2975SOL    HW1 9461   0.289   3.645  12.720
 2975SOL    HW2 9462   0.363   3.526  12.776
 2976SOL     OW 9463   1.666   2.742  12.426
 2976SOL    HW1 9464   1.661   2.657  12.383
 2976SOL    HW2 9465   1.655   2.806  12.355
 2977SOL     OW 9466   1.216   2.182  11.630
 2977SOL    HW1 9467   1.278   2.109  11.623
 2977SOL    HW2 9468   1.245   2.231  11.706
 2978SOL     OW 9469   0.588   2.598  11.846
 2978SOL    HW1 9470   0.627   2.684  11.831
 2978SOL    HW2 9471   0.523   2.589  11.776
 2979SOL     OW 9472   1.754   2.243  12.820
 2979SOL    HW1 9473   1.740   2.244  12.726
 2979SOL    HW2 9474   1.694   2.176  12.853
 2980SOL     OW 9475   1.746   2.797  12.682
 2980SOL    HW1 9476   1.737   2.892  12.695
 2980SOL    HW2 9477   1.729   2.784  12.589
 2981SOL     OW 9478   0.866   3.228  11.215
 2981SOL    HW1 9479   0.824   3.256  11.296
 2981SOL    HW2 9480   0.879   3.309  11.165
 2982SOL     OW 9481   0.658   3.649  12.103
 2982SOL    HW1 9482   0.638   3.741  12.086
 2982SOL    HW2 9483   0.754   3.645  12.102
 2983SOL     OW 9484   0.870   2.831  12.025
 2983SOL    HW1 9485   0.920   2.759  12.063
 2983SOL    HW2 9486   0.832   2.877  12.100
 2984SOL     OW 9487   1.076   2.849  11.260
 2984SOL    HW1 9488   1.056   2.902  11.183
 2984SOL    HW2 9489   1.151   2.796  11.234
 2985SOL     OW 9490   1.848   3.411  12.012
 2985SOL    HW1 9491   1.767   3.401  11.962
 2985SOL    HW2 9492   1.838   3.351  12.086
 2986SOL     OW 9493   0.229   3.166  13.029
 2986SOL    HW1 9494   0.152   3.116  13.002
 2986SOL    HW2 9495   0.218   3.179  13.123
 2987SOL     OW 9496   0.120   3.144  11.896
 2987SOL    HW1 9497   0.139   3.092  11.975
 2987SOL    HW2 9498   0.104   3.079  11.828
 2988SOL     OW 9499   0.684   3.268  12.803
 2988SOL    HW1 9500   0.604   3.226  12.834
 2988SOL    HW2 9501   0.681   3.356  12.841
 2989SOL     OW 9502   0.440   2.295  11.707
 2989SOL    HW1 9503   0.440   2.225  11.641
 2989SOL    HW2 9504   0.385   2.262  11.777
 2990SOL     OW 9505   1.700   3.346  12.261
 2990SOL    HW1 9506   1.618   3.326  12.214
 2990SOL    HW2 9507   1.706   3.278  12.328
 2991SOL     OW 9508   0.337   2.421  12.464
 2991SOL    HW1 9509   0.389   2.363  12.519
 2991SOL    HW2 9510   0.350   2.389  12.375
 2992SOL     OW 9511   0.830   3.441  11.848
 2992SOL    HW1 9512   0.810   3.498  11.773
 2992SOL    HW2 9513   0.756   3.380  11.852
 2993SOL     OW 9514   1.436   2.093  12.292
 2993SOL    HW1 9515   1.443   2.004  12.327
 2993SOL    HW2 9516   1.382   2.140  12.356
 2994SOL     OW 9517   1.010   1.878  12.309
 2994SOL    HW1 9518   0.956   1.811  12.266
 2994SOL    HW2 9519   1.098   1.840  12.310
 2995SOL     OW 9520   0.773   3.194  11.493
 2995SOL    HW1 9521   0.745   3.103  11.500
 2995SOL    HW2 9522   0.856   3.197  11.542
 2996SOL     OW 9523   0.621   3.415  12.459
 2996SOL    HW1 9524   0.621   3.497  12.508
 2996SOL    HW2 9525   0.709   3.410  12.421
 2997SOL     OW 9526   1.352   1.914  11.341
 2997SOL    HW1 9527   1.385   1.848  11.279
 2997SOL    HW2 9528   1.264   1.884  11.362
 2998SOL     OW 9529   1.300   2.325  11.852
 2998SOL    HW1 9530   1.247   2.404  11.855
 2998SOL    HW2 9531   1.292   2.287  11.939
 2999SOL     OW 9532   1.565   2.048  12.046
 2999SOL    HW1 9533   1.532   2.078  12.131
 2999SOL    HW2 9534   1.585   2.129  11.998
 3000SOL     OW 9535   0.047   2.909  11.413
 3000SOL    HW1 9536   0.142   2.894  11.405
 3000SOL    HW2 9537   0.012   2.824  11.437
 3001SOL     OW 9538   0.887   3.524  11.513
 3001SOL    HW1 9539   0.815   3.504  11.453
 3001SOL    HW2 9540   0.856   3.597  11.566
 3002SOL     OW 9541   0.229   2.489  13.152
 3002SOL    HW1 9542   0.136   2.495  13.173
 3002SOL    HW2 9543   0.231   2.456  13.062
 3003SOL     OW 9544   0.286   2.135   0.129
 3003SOL    HW1 9545   0.333   2.206   0.172
 3003SOL    HW2 9546   0.202   2.173   0.103
 3004SOL     OW 9547   0.002   2.219  13.663
 3004SOL    HW1 9548   3.908   2.240  13.664
 3004SOL    HW2 9549   0.020   2.192  13.573
 3005SOL     OW 9550   1.518   3.356  13.731
 3005SOL    HW1 9551   1.468   3.282  13.763
 3005SOL    HW2 9552   1.475   3.381  13.649
 3006SOL     OW 9553   1.131   2.559  13.725
 3006SOL    HW1 9554   1.182   2.638  13.709
 3006SOL    HW2 9555   1.084   2.577  13.806
 3007SOL     OW 9556   1.791   2.459  13.255
 3007SOL    HW1 9557   1.758   2.456  13.165
 3007SOL    HW2 9558   1.743   2.390  13.301
 3008SOL     OW 9559   0.687   2.871  13.670
 3008SOL    HW1 9560   0.739   2.853  13.748
 3008SOL    HW2 9561   0.614   2.924  13.702
 3009SOL     OW 9562   1.618   2.306  13.733
 3009SOL    HW1 9563   1.525   2.320  13.716
 3009SOL    HW2 9564   1.632   2.336  13.823
 3010SOL     OW 9565   0.222   3.570  13.502
 3010SOL    HW1 9566   0.241   3.630  13.574
 3010SOL    HW2 9567   0.298   3.576  13.445
 3011SOL     OW 9568   0.251   3.302  13.571
 3011SOL    HW1 9569   0.225   3.393  13.560
 3011SOL    HW2 9570   0.187   3.266  13.633
 3012SOL     OW 9571   0.258   2.935   0.016
 3012SOL    HW1 9572   0.276   2.898   0.103
 3012SOL    HW2 9573   0.218   3.020   0.033
 3013SOL     OW 9574   0.574   2.849  13.172
 3013SOL    HW1 9575   0.623   2.893  13.102
 3013SOL    HW2 9576   0.614   2.879  13.253
 3014SOL     OW 9577   0.142   2.515  13.614
 3014SOL    HW1 9578   0.065   2.463  13.591
 3014SOL    HW2 9579   0.109   2.581  13.675
 3015SOL     OW 9580   1.847   3.606  13.372
 3015SOL    HW1 9581   1.915   3.584  13.436
 3015SOL    HW2 9582   1.863   3.698  13.350
 3016SOL     OW 9583   0.041   3.452  13.174
 3016SOL    HW1 9584   0.036   3.360  13.201
 3016SOL    HW2 9585   3.959   3.491  13.206
 3017SOL     OW 9586   1.687   2.779  13.670
 3017SOL    HW1 9587   1.771   2.740  13.646
 3017SOL    HW2 9588   1.664   2.834  13.595
 3018SOL     OW 9589   1.650   2.965  13.459
 3018SOL    HW1 9590   1.736   2.966  13.418
 3018SOL    HW2 9591   1.656   3.031  13.529
 3019SOL     OW 9592   0.617   3.246  13.758
 3019SOL    HW1 9593   0.565   3.168  13.778
 3019SOL    HW2 9594   0.585   3.277  13.674
 3020SOL     OW 9595   0.822   1.864  13.545
 3020SOL    HW1 9596   0.860   1.948  13.523
 3020SOL    HW2 9597   0.728   1.880  13.552
 3021SOL     OW 9598   1.530   2.859  13.234
 3021SOL    HW1 9599   1.461   2.802  13.266
 3021SOL    HW2 9600   1.572   2.894  13.312
 3022SOL     OW 9601   1.652   3.601  13.612
 3022SOL    HW1 9602   1.634   3.570  13.524
 3022SOL    HW2 9603   1.643   3.523  13.667
 3023SOL     OW 9604   0.593   2.577  13.299
 3023SOL    HW1 9605   0.599   2.662  13.255
 3023SOL    HW2 9606   0.531   2.591  13.370
 3024SOL     OW 9607   1.247   2.190   0.038
 3024SOL    HW1 9608   1.188   2.130   0.083
 3024SOL    HW2 9609   1.332   2.175   0.079
 3025SOL     OW 9610   1.577   3.543  13.340
 3025SOL    HW1 9611   1.671   3.561  13.335
 3025SOL    HW2 9612   1.552   3.522  13.250
 3026SOL     OW 9613   1.051   2.559  13.457
 3026SOL    HW1 9614   1.068   2.548  13.550
 3026SOL    HW2 9615   0.969   2.512  13.442
 3027SOL     OW 9616   0.082   2.708  13.805
 3027SOL    HW1 9617   0.160   2.691  13.858
 3027SOL    HW2 9618   0.076   2.803  13.801
 3028SOL     OW 9619   0.897   2.211  13.226
 3028SOL    HW1 9620   0.937   2.275  13.167
 3028SOL    HW2 9621   0.915   2.126  13.186
 3029SOL     OW 9622   1.364   2.997  13.550
 3029SOL    HW1 9623   1.454   2.996  13.515
 3029SOL    HW2 9624   1.321   3.068  13.502
 3030SOL     OW 9625   0.997   3.302  13.500
 3030SOL    HW1 9626   0.967   3.380  13.453
 3030SOL    HW2 9627   0.964   3.315  13.589
 3031SOL     OW 9628   0.421   3.680  13.799
 3031SOL    HW1 9629   0.414   3.587  13.822
 3031SOL    HW2 9630   0.474   3.718  13.870
 3032SOL     OW 9631   1.790   2.909  13.899
 3032SOL    HW1 9632   1.736   2.894  13.821
 3032SOL    HW2 9633   1.728   2.904   0.072
 3033SOL     OW 9634   0.311   2.815  13.277
 3033SOL    HW1 9635   0.393   2.837  13.233
 3033SOL    HW2 9636   0.299   2.722  13.257
 3034SOL     OW 9637   1.491   2.595  13.742
 3034SOL    HW1 9638   1.489   2.549  13.826
 3034SOL    HW2 9639   1.566   2.654  13.749
 3035SOL     OW 9640   1.113   3.645  13.253
 3035SOL    HW1 9641   1.049   3.600  13.308
 3035SOL    HW2 9642   1.144   3.577  13.192
 3036SOL     OW 9643   1.628   3.244  13.125
 3036SOL    HW1 9644   1.587   3.329  13.107
 3036SOL    HW2 9645   1.560   3.180  13.104
 3037SOL     OW 9646   0.465   3.602  13.353
 3037SOL    HW1 9647   0.504   3.661  13.417
 3037SOL    HW2 9648   0.539   3.573  13.299
 3038SOL     OW 9649   1.403   1.972  13.465
 3038SOL    HW1 9650   1.385   1.949  13.373
 3038SOL    HW2 9651   1.491   1.938  13.481
 3039SOL     OW 9652   0.926   3.545   0.009
 3039SOL    HW1 9653   0.940   3.476   0.074
 3039SOL    HW2 9654   0.886   3.500  13.834
 3040SOL     OW 9655   0.396   2.557  13.502
 3040SOL    HW1 9656   0.423   2.466  13.515
 3040SOL    HW2 9657   0.306   2.560  13.532
 3041SOL     OW 9658   0.647   1.978  13.129
 3041SOL    HW1 9659   0.705   1.905  13.151
 3041SOL    HW2 9660   0.596   1.946  13.055
 3042SOL     OW 9661   0.556   1.924  13.527
 3042SOL    HW1 9662   0.473   1.927  13.574
 3042SOL    HW2 9663   0.560   2.006  13.478
 3043SOL     OW 9664   1.428   3.062  13.074
 3043SOL    HW1 9665   1.458   2.986  13.125
 3043SOL    HW2 9666   1.342   3.083  13.110
 3044SOL     OW 9667   0.310   1.911  13.201
 3044SOL    HW1 9668   0.373   1.950  13.141
 3044SOL    HW2 9669   0.360   1.848  13.252
 3045SOL     OW 9670   0.942   2.109  13.492
 3045SOL    HW1 9671   0.913   2.150  13.410
 3045SOL    HW2 9672   1.036   2.126  13.495
 3046SOL     OW 9673   0.470   3.006  13.762
 3046SOL    HW1 9674   0.399   2.982  13.822
 3046SOL    HW2 9675   0.431   2.996  13.675
 3047SOL     OW 9676   1.265   3.658  13.629
 3047SOL    HW1 9677   1.311   3.726  13.580
 3047SOL    HW2 9678   1.196   3.705  13.676
 3048SOL     OW 9679   1.024   2.398  13.059
 3048SOL    HW1 9680   0.981   2.481  13.041
 3048SOL    HW2 9681   1.089   2.419  13.126
 3049SOL     OW 9682   0.897   2.330  13.676
 3049SOL    HW1 9683   0.831   2.379  13.627
 3049SOL    HW2 9684   0.904   2.247  13.629
 3050SOL     OW 9685   1.027   1.892  13.772
 3050SOL    HW1 9686   0.968   1.904  13.697
 3050SOL    HW2 9687   0.993   1.815  13.817
 3051SOL     OW 9688   1.840   2.676  13.413
 3051SOL    HW1 9689   1.899   2.629  13.473
 3051SOL    HW2 9690   1.819   2.611  13.345
 3052SOL     OW 9691   0.487   3.283  13.192
 3052SOL    HW1 9692   0.411   3.254  13.241
 3052SOL    HW2 9693   0.473   3.250  13.103
 3053SOL     OW 9694   1.686   3.137  13.658
 3053SOL    HW1 9695   1.778   3.133  13.684
 3053SOL    HW2 9696   1.653   3.215  13.701
 3054SOL     OW 9697   1.393   2.436  13.103
 3054SOL    HW1 9698   1.334   2.414  13.175
 3054SOL    HW2 9699   1.479   2.409  13.133
 3055SOL     OW 9700   0.572   2.129  13.348
 3055SOL    HW1 9701   0.608   2.082  13.273
 3055SOL    HW2 9702   0.544   2.213  13.312
 3056SOL     OW 9703   0.708   2.925  13.399
 3056SOL    HW1 9704   0.695   2.909  13.493
 3056SOL    HW2 9705   0.785   2.872  13.376
 3057SOL     OW 9706   0.366   2.965  13.512
 3057SOL    HW1 9707   0.364   3.048  13.464
 3057SOL    HW2 9708   0.365   2.898  13.445
 3058SOL     OW 9709   0.567   2.407  13.871
 3058SOL    HW1 9710   0.575   2.469  13.799
 3058SOL    HW2 9711   0.635   2.433   0.033
 3059SOL     OW 9712   1.244   3.216  13.417
 3059SOL    HW1 9713   1.299   3.289  13.446
 3059SOL    HW2 9714   1.158   3.235  13.453
 3060SOL     OW 9715   1.575   2.497  13.488
 3060SOL    HW1 9716   1.536   2.525  13.571
 3060SOL    HW2 9717   1.622   2.574  13.457
 3061SOL     OW 9718   1.200   2.389  13.296
 3061SOL    HW1 9719   1.208   2.311  13.351
 3061SOL    HW2 9720   1.158   2.454  13.352
 3062SOL     OW 9721   0.306   1.920  13.640
 3062SOL    HW1 9722   0.292   2.011  13.667
 3062SOL    HW2 9723   0.327   1.874  13.721
 3063SOL     OW 9724   1.614   2.243  13.409
 3063SOL    HW1 9725   1.599   2.191  13.488
 3063SOL    HW2 9726   1.593   2.332  13.435
 3064SOL     OW 9727   1.527   2.134  13.164
 3064SOL    HW1 9728   1.461   2.070  13.191
 3064SOL    HW2 9729   1.560   2.170  13.247
 3065SOL     OW 9730   1.286   2.687  13.061
 3065SOL    HW1 9731   1.329   2.601  13.066
 3065SOL    HW2 9732   1.319   2.726  12.980
 3066SOL     OW 9733   4.000   3.178  13.214
 3066SOL    HW1 9734   3.905   3.194  13.219
 3066SOL    HW2 9735   0.009   3.084  13.231
 3067SOL     OW 9736   0.819   2.433  13.390
 3067SOL    HW1 9737   0.822   2.356  13.334
 3067SOL    HW2 9738   0.742   2.482  13.359
 3068SOL     OW 9739   0.451   2.350  13.228
 3068SOL    HW1 9740   0.516   2.418  13.247
 3068SOL    HW2 9741   0.371   2.399  13.207
 3069SOL     OW 9742   1.316   2.717  13.335
 3069SOL    HW1 9743   1.241   2.687  13.388
 3069SOL    HW2 9744   1.288   2.702  13.245
 3070SOL     OW 9745   1.383   3.438  13.508
 3070SOL    HW1 9746   1.442   3.476  13.443
 3070SOL    HW2 9747   1.336   3.512  13.545
 3071SOL     OW 9748   1.289   2.776  13.685
 3071SOL    HW1 9749   1.365   2.719  13.673
 3071SOL    HW2 9750   1.313   2.857  13.641
 3072SOL     OW 9751   0.674   3.482  13.192
 3072SOL    HW1 9752   0.684   3.498  13.099
 3072SOL    HW2 9753   0.615   3.406  13.197
 3073SOL     OW 9754   0.284   2.172  13.736
 3073SOL    HW1 9755   0.200   2.217  13.723
 3073SOL    HW2 9756   0.294   2.169  13.831
 3074SOL     OW 9757   1.209   3.464  13.070
 3074SOL    HW1 9758   1.198   3.372  13.094
 3074SOL    HW2 9759   1.147   3.478  12.998
 3075SOL     OW 9760   0.918   2.774  13.329
 3075SOL    HW1 9761   0.977   2.805  13.260
 3075SOL    HW2 9762   0.966   2.702  13.371
 3076SOL     OW 9763   1.489   3.493  13.077
 3076SOL    HW1 9764   1.395   3.481  13.061
 3076SOL    HW2 9765   1.527   3.498  12.990
 3077SOL     OW 9766   1.050   2.953  13.756
 3077SOL    HW1 9767   0.965   2.915  13.735
 3077SOL    HW2 9768   1.110   2.916  13.690
 3078SOL     OW 9769   0.601   3.357  13.503
 3078SOL    HW1 9770   0.649   3.305  13.438
 3078SOL    HW2 9771   0.528   3.396  13.454
 3079SOL     OW 9772   0.253   3.201  13.323
 3079SOL    HW1 9773   0.159   3.208  13.306
 3079SOL    HW2 9774   0.263   3.239  13.411
 3080SOL     OW 9775   0.080   2.171  13.071
 3080SOL    HW1 9776   3.985   2.172  13.080
 3080SOL    HW2 9777   0.101   2.253  13.026
 3081SOL     OW 9778   0.018   2.108  13.412
 3081SOL    HW1 9779   0.048   2.168  13.344
 3081SOL    HW2 9780   0.095   2.058  13.437
 3082SOL     OW 9781   1.177   3.197  13.149
 3082SOL    HW1 9782   1.085   3.169  13.150
 3082SOL    HW2 9783   1.203   3.198  13.241
 3083SOL     OW 9784   1.216   2.181  13.489
 3083SOL    HW1 9785   1.279   2.110  13.481
 3083SOL    HW2 9786   1.245   2.231  13.565
 3084SOL     OW 9787   0.593   2.610  13.691
 3084SOL    HW1 9788   0.627   2.698  13.673
 3084SOL    HW2 9789   0.523   2.598  13.626
 3085SOL     OW 9790   0.865   3.227  13.075
 3085SOL    HW1 9791   0.825   3.254  13.158
 3085SOL    HW2 9792   0.878   3.309  13.028
 3086SOL     OW 9793   0.656   3.717   0.070
 3086SOL    HW1 9794   0.656   3.810   0.094
 3086SOL    HW2 9795   0.748   3.691   0.077
 3087SOL     OW 9796   0.822   2.828  13.900
 3087SOL    HW1 9797   0.847   2.743   0.035
 3087SOL    HW2 9798   0.864   2.891   0.058
 3088SOL     OW 9799   1.074   2.848  13.122
 3088SOL    HW1 9800   1.055   2.901  13.045
 3088SOL    HW2 9801   1.150   2.794  13.096
 3089SOL     OW 9802   0.115   3.140  13.764
 3089SOL    HW1 9803   0.048   3.103  13.821
 3089SOL    HW2 9804   0.118   3.081  13.688
 3090SOL     OW 9805   0.449   2.301  13.555
 3090SOL    HW1 9806   0.458   2.227  13.495
 3090SOL    HW2 9807   0.404   2.264  13.631
 3091SOL     OW 9808   1.680   3.315   0.352
 3091SOL    HW1 9809   1.649   3.295   0.264
 3091SOL    HW2 9810   1.771   3.286   0.353
 3092SOL     OW 9811   0.820   3.414  13.701
 3092SOL    HW1 9812   0.785   3.463  13.627
 3092SOL    HW2 9813   0.749   3.354  13.725
 3093SOL     OW 9814   0.773   3.195  13.350
 3093SOL    HW1 9815   0.745   3.104  13.358
 3093SOL    HW2 9816   0.854   3.201  13.401
 3094SOL     OW 9817   1.352   1.914  13.202
 3094SOL    HW1 9818   1.384   1.849  13.140
 3094SOL    HW2 9819   1.263   1.884  13.224
 3095SOL     OW 9820   1.305   2.323  13.708
 3095SOL    HW1 9821   1.253   2.404  13.713
 3095SOL    HW2 9822   1.284   2.276  13.789
 3096SOL     OW 9823   0.047   2.909  13.270
 3096SOL    HW1 9824   0.142   2.894  13.263
 3096SOL    HW2 9825   0.012   2.825  13.297
 3097SOL     OW 9826   0.888   3.523  13.375
 3097SOL    HW1 9827   0.815   3.506  13.316
 3097SOL    HW2 9828   0.858   3.596  13.430
 3098SOL     OW 9829   0.233   3.940   0.961
 3098SOL    HW1 9830   0.256   3.957   1.053
 3098SOL    HW2 9831   0.140   3.960   0.955
 3099SOL     OW 9832   0.015   0.102   0.628
 3099SOL    HW1 9833   3.926   0.082   0.659
 3099SOL    HW2 9834   0.024   0.053   0.547
 3100SOL     OW 9835   1.809   0.355   0.276
 3100SOL    HW1 9836   1.788   0.303   0.198
 3100SOL    HW2 9837   1.727   0.363   0.323
 3101SOL     OW 9838   0.440   0.095   1.508
 3101SOL    HW1 9839   0.511   0.056   1.458
 3101SOL    HW2 9840   0.363   0.042   1.486
 3102SOL     OW 9841   1.594   3.850   1.459
 3102SOL    HW1 9842   1.604   3.936   1.417
 3102SOL    HW2 9843   1.577   3.870   1.551
 3103SOL     OW 9844   0.808   3.727   0.511
 3103SOL    HW1 9845   0.835   3.819   0.500
 3103SOL    HW2 9846   0.713   3.731   0.518
 3104SOL     OW 9847   1.267   0.062   0.933
 3104SOL    HW1 9848   1.193   0.008   0.906
 3104SOL    HW2 9849   1.323   0.002   0.983
 3105SOL     OW 9850   0.556   3.904   0.892
 3105SOL    HW1 9851   0.553   3.926   0.985
 3105SOL    HW2 9852   0.550   3.989   0.848
 3106SOL     OW 9853   0.189   3.976   1.498
 3106SOL    HW1 9854   0.100   0.011   1.504
 3106SOL    HW2 9855   0.185   3.892   1.543
 3107SOL     OW 9856   1.411   3.835   0.435
 3107SOL    HW1 9857   1.407   3.794   0.349
 3107SOL    HW2 9858   1.503   3.830   0.460
 3108SOL     OW 9859   1.533   3.937   1.720
 3108SOL    HW1 9860   1.558   3.940   1.813
 3108SOL    HW2 9861   1.462   3.872   1.717
 3109SOL     OW 9862   0.772   3.953   1.741
 3109SOL    HW1 9863   0.827   3.925   1.815
 3109SOL    HW2 9864   0.686   3.969   1.781
 3110SOL     OW 9865   0.536   3.781   0.517
 3110SOL    HW1 9866   0.484   3.780   0.597
 3110SOL    HW2 9867   0.545   3.874   0.497
 3111SOL     OW 9868   0.264   3.735   0.179
 3111SOL    HW1 9869   0.298   3.824   0.170
 3111SOL    HW2 9870   0.335   3.687   0.222
 3112SOL     OW 9871   0.563   3.945   1.169
 3112SOL    HW1 9872   0.606   3.877   1.220
 3112SOL    HW2 9873   0.471   3.941   1.196
 3113SOL     OW 9874   1.021   3.766   0.729
 3113SOL    HW1 9875   0.955   3.755   0.661
 3113SOL    HW2 9876   0.998   3.703   0.796
 3114SOL     OW 9877   0.924   3.801   1.396
 3114SOL    HW1 9878   0.954   3.780   1.307
 3114SOL    HW2 9879   0.998   3.848   1.434
 3115SOL     OW 9880   1.267   0.072   1.266
 3115SOL    HW1 9881   1.276   0.142   1.331
 3115SOL    HW2 9882   1.198   0.103   1.207
 3116SOL     OW 9883   0.508   3.751   1.758
 3116SOL    HW1 9884   0.453   3.706   1.693
 3116SOL    HW2 9885   0.480   3.842   1.754
 3117SOL     OW 9886   0.303   3.924   1.255
 3117SOL    HW1 9887   0.255   3.941   1.336
 3117SOL    HW2 9888   0.289   3.831   1.238
 3118SOL     OW 9889   1.597   3.934   0.159
 3118SOL    HW1 9890   1.518   3.881   0.157
 3118SOL    HW2 9891   1.567   0.020   0.189
 3119SOL     OW 9892   1.163   3.919   1.473
 3119SOL    HW1 9893   1.166   3.995   1.532
 3119SOL    HW2 9894   1.207   3.949   1.394
 3120SOL     OW 9895   0.926   3.826   0.149
 3120SOL    HW1 9896   0.954   3.817   0.058
 3120SOL    HW2 9897   0.986   3.770   0.198
 3121SOL     OW 9898   1.704   3.856   0.510
 3121SOL    HW1 9899   1.782   3.846   0.457
 3121SOL    HW2 9900   1.695   3.772   0.555
 3122SOL     OW 9901   1.837   3.877   0.972
 3122SOL    HW1 9902   1.871   3.794   0.939
 3122SOL    HW2 9903   1.757   3.892   0.921
 3123SOL     OW 9904   0.679   3.908   1.487
 3123SOL    HW1 9905   0.763   3.897   1.441
 3123SOL    HW2 9906   0.703   3.930   1.577
 3124SOL     OW 9907   0.040   0.009   0.039
 3124SOL    HW1 9908   3.952   0.015   0.003
 3124SOL    HW2 9909   0.083   0.090   0.012
 3125SOL     OW 9910   0.121   3.934   0.378
 3125SOL    HW1 9911   0.072   3.975   0.307
 3125SOL    HW2 9912   0.167   3.861   0.336
 3126SOL     OW 9913   1.196   0.012   0.462
 3126SOL    HW1 9914   1.254   3.936   0.468
 3126SOL    HW2 9915   1.213   0.062   0.541
 3127SOL     OW 9916   1.786   0.039   1.639
 3127SOL    HW1 9917   1.757   0.074   1.554
 3127SOL    HW2 9918   1.708   3.999   1.676
 3128SOL     OW 9919   1.816   3.912   1.239
 3128SOL    HW1 9920   1.820   3.822   1.269
 3128SOL    HW2 9921   1.822   3.906   1.144
 3129SOL     OW 9922   1.439   3.932   1.116
 3129SOL    HW1 9923   1.470   3.852   1.160
 3129SOL    HW2 9924   1.382   3.973   1.180
 3130SOL     OW 9925   1.018   3.737   1.146
 3130SOL    HW1 9926   0.960   3.683   1.092
 3130SOL    HW2 9927   1.103   3.693   1.141
 3131SOL     OW 9928   1.355   3.783   0.151
 3131SOL    HW1 9929   1.395   3.710   0.103
 3131SOL    HW2 9930   1.271   3.748   0.182
 3132SOL     OW 9931   1.284   0.163   0.677
 3132SOL    HW1 9932   1.282   0.258   0.687
 3132SOL    HW2 9933   1.287   0.130   0.767
 3133SOL     OW 9934   1.580   3.926   0.881
 3133SOL    HW1 9935   1.531   3.931   0.963
 3133SOL    HW2 9936   1.581   0.015   0.847
 3134SOL     OW 9937   0.235   3.943   2.820
 3134SOL    HW1 9938   0.257   3.957   2.912
 3134SOL    HW2 9939   0.141   3.960   2.815
 3135SOL     OW 9940   0.008   0.107   2.482
 3135SOL    HW1 9941   3.923   0.087   2.522
 3135SOL    HW2 9942   0.015   0.046   2.409
 3136SOL     OW 9943   1.777   0.318   2.049
 3136SOL    HW1 9944   1.704   0.294   1.992
 3136SOL    HW2 9945   1.735   0.338   2.133
 3137SOL     OW 9946   0.440   0.095   3.370
 3137SOL    HW1 9947   0.511   0.056   3.320
 3137SOL    HW2 9948   0.363   0.042   3.348
 3138SOL     OW 9949   1.594   3.850   3.321
 3138SOL    HW1 9950   1.604   3.936   3.279
 3138SOL    HW2 9951   1.577   3.870   3.413
 3139SOL     OW 9952   0.807   3.730   2.370
 3139SOL    HW1 9953   0.833   3.822   2.363
 3139SOL    HW2 9954   0.711   3.733   2.378
 3140SOL     OW 9955   1.266   0.062   2.799
 3140SOL    HW1 9956   1.193   0.008   2.768
 3140SOL    HW2 9957   1.322   0.001   2.847
 3141SOL     OW 9958   0.556   3.905   2.754
 3141SOL    HW1 9959   0.553   3.925   2.848
 3141SOL    HW2 9960   0.552   3.991   2.712
 3142SOL     OW 9961   0.190   3.976   3.360
 3142SOL    HW1 9962   0.101   0.010   3.365
 3142SOL    HW2 9963   0.185   3.891   3.405
 3143SOL     OW 9964   1.408   3.830   2.297
 3143SOL    HW1 9965   1.400   3.798   2.208
 3143SOL    HW2 9966   1.502   3.824   2.316
 3144SOL     OW 9967   1.533   3.937   3.582
 3144SOL    HW1 9968   1.558   3.940   3.675
 3144SOL    HW2 9969   1.462   3.872   3.579
 3145SOL     OW 9970   0.629   3.850   1.990
 3145SOL    HW1 9971   0.720   3.820   1.989
 3145SOL    HW2 9972   0.586   3.800   1.921
 3146SOL     OW 9973   0.771   3.952   3.603
 3146SOL    HW1 9974   0.827   3.926   3.676
 3146SOL    HW2 9975   0.686   3.969   3.643
 3147SOL     OW 9976   0.536   3.784   2.378
 3147SOL    HW1 9977   0.485   3.785   2.459
 3147SOL    HW2 9978   0.543   3.877   2.353
 3148SOL     OW 9979   0.286   3.761   2.039
 3148SOL    HW1 9980   0.326   3.848   2.034
 3148SOL    HW2 9981   0.353   3.706   2.081
 3149SOL     OW 9982   0.563   3.944   3.031
 3149SOL    HW1 9983   0.606   3.877   3.084
 3149SOL    HW2 9984   0.471   3.940   3.058
 3150SOL     OW 9985   1.021   3.766   2.591
 3150SOL    HW1 9986   0.955   3.753   2.523
 3150SOL    HW2 9987   0.997   3.702   2.659
 3151SOL     OW 9988   0.924   3.801   3.258
 3151SOL    HW1 9989   0.954   3.780   3.169
 3151SOL    HW2 9990   0.998   3.849   3.296
 3152SOL     OW 9991   1.268   0.072   3.128
 3152SOL    HW1 9992   1.277   0.141   3.193
 3152SOL    HW2 9993   1.200   0.104   3.068
 3153SOL     OW 9994   0.508   3.751   3.620
 3153SOL    HW1 9995   0.453   3.706   3.555
 3153SOL    HW2 9996   0.480   3.842   3.616
 3154SOL     OW 9997   0.303   3.924   3.116
 3154SOL    HW1 9998   0.255   3.941   3.198
 3154SOL    HW2 9999   0.289   3.830   3.099
 3155SOL     OW10000   1.577   3.952   1.981
 3155SOL    HW110001   1.518   3.895   2.030
 3155SOL    HW210002   1.612   0.013   2.045
 3156SOL     OW10003   1.163   3.919   3.335
 3156SOL    HW110004   1.166   3.995   3.394
 3156SOL    HW210005   1.207   3.949   3.255
 3157SOL     OW10006   0.901   3.811   1.962
 3157SOL    HW110007   0.958   3.765   1.900
 3157SOL    HW210008   0.943   3.799   2.047
 3158SOL     OW10009   1.706   3.855   2.354
 3158SOL    HW110010   1.786   3.842   2.302
 3158SOL    HW210011   1.697   3.774   2.404
 3159SOL     OW10012   1.836   3.877   2.835
 3159SOL    HW110013   1.871   3.795   2.802
 3159SOL    HW210014   1.757   3.893   2.784
 3160SOL     OW10015   0.679   3.908   3.348
 3160SOL    HW110016   0.763   3.897   3.303
 3160SOL    HW210017   0.703   3.930   3.438
 3161SOL     OW10018   0.072   0.020   1.853
 3161SOL    HW110019   3.977   0.022   1.864
 3161SOL    HW210020   0.100   0.109   1.873
 3162SOL     OW10021   0.108   3.921   2.234
 3162SOL    HW110022   0.081   0.004   2.194
 3162SOL    HW210023   0.188   3.896   2.188
 3163SOL     OW10024   1.198   0.013   2.324
 3163SOL    HW110025   1.263   3.942   2.327
 3163SOL    HW210026   1.216   0.065   2.402
 3164SOL     OW10027   1.786   0.038   3.501
 3164SOL    HW110028   1.758   0.074   3.417
 3164SOL    HW210029   1.707   3.999   3.538
 3165SOL     OW10030   1.816   3.913   3.102
 3165SOL    HW110031   1.820   3.822   3.132
 3165SOL    HW210032   1.822   3.906   3.006
 3166SOL     OW10033   1.440   3.931   2.979
 3166SOL    HW110034   1.472   3.852   3.024
 3166SOL    HW210035   1.382   3.973   3.042
 3167SOL     OW10036   1.018   3.737   3.008
 3167SOL    HW110037   0.960   3.682   2.954
 3167SOL    HW210038   1.103   3.693   3.003
 3168SOL     OW10039   1.355   3.770   2.027
 3168SOL    HW110040   1.390   3.701   1.971
 3168SOL    HW210041   1.267   3.740   2.050
 3169SOL     OW10042   1.281   0.162   2.543
 3169SOL    HW110043   1.285   0.258   2.549
 3169SOL    HW210044   1.285   0.132   2.634
 3170SOL     OW10045   1.580   3.925   2.743
 3170SOL    HW110046   1.531   3.931   2.825
 3170SOL    HW210047   1.581   0.015   2.709
 3171SOL     OW10048   0.235   3.943   4.682
 3171SOL    HW110049   0.257   3.957   4.774
 3171SOL    HW210050   0.141   3.960   4.677
 3172SOL     OW10051   0.008   0.107   4.344
 3172SOL    HW110052   3.923   0.087   4.384
 3172SOL    HW210053   0.015   0.047   4.271
 3173SOL     OW10054   1.777   0.318   3.911
 3173SOL    HW110055   1.704   0.294   3.854
 3173SOL    HW210056   1.735   0.339   3.995
 3174SOL     OW10057   0.440   0.095   5.232
 3174SOL    HW110058   0.511   0.056   5.182
 3174SOL    HW210059   0.363   0.042   5.210
 3175SOL     OW10060   1.594   3.850   5.183
 3175SOL    HW110061   1.604   3.936   5.141
 3175SOL    HW210062   1.576   3.870   5.275
 3176SOL     OW10063   0.807   3.730   4.232
 3176SOL    HW110064   0.833   3.822   4.225
 3176SOL    HW210065   0.711   3.733   4.240
 3177SOL     OW10066   1.266   0.062   4.661
 3177SOL    HW110067   1.193   0.008   4.630
 3177SOL    HW210068   1.322   0.001   4.709
 3178SOL     OW10069   0.556   3.905   4.616
 3178SOL    HW110070   0.554   3.925   4.710
 3178SOL    HW210071   0.552   3.991   4.574
 3179SOL     OW10072   0.190   3.976   5.222
 3179SOL    HW110073   0.100   0.010   5.227
 3179SOL    HW210074   0.185   3.891   5.267
 3180SOL     OW10075   1.408   3.830   4.159
 3180SOL    HW110076   1.400   3.798   4.070
 3180SOL    HW210077   1.502   3.824   4.178
 3181SOL     OW10078   1.533   3.937   5.444
 3181SOL    HW110079   1.558   3.940   5.537
 3181SOL    HW210080   1.462   3.872   5.441
 3182SOL     OW10081   0.629   3.850   3.852
 3182SOL    HW110082   0.720   3.820   3.851
 3182SOL    HW210083   0.586   3.800   3.783
 3183SOL     OW10084   0.771   3.952   5.465
 3183SOL    HW110085   0.827   3.926   5.538
 3183SOL    HW210086   0.686   3.969   5.505
 3184SOL     OW10087   0.536   3.784   4.240
 3184SOL    HW110088   0.485   3.785   4.321
 3184SOL    HW210089   0.543   3.877   4.215
 3185SOL     OW10090   0.286   3.761   3.900
 3185SOL    HW110091   0.326   3.848   3.896
 3185SOL    HW210092   0.353   3.706   3.943
 3186SOL     OW10093   0.563   3.944   4.893
 3186SOL    HW110094   0.606   3.877   4.945
 3186SOL    HW210095   0.471   3.941   4.920
 3187SOL     OW10096   1.021   3.766   4.453
 3187SOL    HW110097   0.955   3.753   4.385
 3187SOL    HW210098   0.997   3.702   4.521
 3188SOL     OW10099   0.924   3.801   5.120
 3188SOL    HW110100   0.953   3.780   5.031
 3188SOL    HW210101   0.998   3.849   5.158
 3189SOL     OW10102   1.268   0.072   4.990
 3189SOL    HW110103   1.277   0.141   5.055
 3189SOL    HW210104   1.200   0.104   4.930
 3190SOL     OW10105   0.508   3.751   5.482
 3190SOL    HW110106   0.453   3.706   5.417
 3190SOL    HW210107   0.480   3.842   5.478
 3191SOL     OW10108   0.303   3.924   4.978
 3191SOL    HW110109   0.255   3.941   5.060
 3191SOL    HW210110   0.289   3.830   4.962
 3192SOL     OW10111   1.577   3.952   3.843
 3192SOL    HW110112   1.518   3.895   3.893
 3192SOL    HW210113   1.612   0.013   3.907
 3193SOL     OW10114   1.163   3.919   5.197
 3193SOL    HW110115   1.166   3.995   5.256
 3193SOL    HW210116   1.207   3.949   5.117
 3194SOL     OW10117   0.901   3.811   3.824
 3194SOL    HW110118   0.958   3.764   3.762
 3194SOL    HW210119   0.943   3.799   3.909
 3195SOL     OW10120   1.706   3.855   4.216
 3195SOL    HW110121   1.785   3.842   4.164
 3195SOL    HW210122   1.697   3.774   4.266
 3196SOL     OW10123   1.836   3.877   4.697
 3196SOL    HW110124   1.871   3.795   4.664
 3196SOL    HW210125   1.757   3.893   4.646
 3197SOL     OW10126   0.679   3.908   5.210
 3197SOL    HW110127   0.763   3.897   5.165
 3197SOL    HW210128   0.703   3.930   5.300
 3198SOL     OW10129   0.072   0.020   3.715
 3198SOL    HW110130   3.977   0.022   3.726
 3198SOL    HW210131   0.100   0.109   3.735
 3199SOL     OW10132   0.108   3.921   4.096
 3199SOL    HW110133   0.081   0.004   4.056
 3199SOL    HW210134   0.188   3.896   4.050
 3200SOL     OW10135   1.198   0.013   4.186
 3200SOL    HW110136   1.263   3.942   4.189
 3200SOL    HW210137   1.216   0.065   4.264
 3201SOL     OW10138   1.786   0.038   5.363
 3201SOL    HW110139   1.758   0.074   5.279
 3201SOL    HW210140   1.707   3.999   5.399
 3202SOL     OW10141   1.815   3.912   4.964
 3202SOL    HW110142   1.821   3.822   4.994
 3202SOL    HW210143   1.822   3.906   4.868
 3203SOL     OW10144   1.440   3.931   4.841
 3203SOL    HW110145   1.472   3.852   4.886
 3203SOL    HW210146   1.382   3.973   4.904
 3204SOL     OW10147   1.018   3.736   4.870
 3204SOL    HW110148   0.960   3.682   4.816
 3204SOL    HW210149   1.103   3.693   4.865
 3205SOL     OW10150   1.355   3.770   3.889
 3205SOL    HW110151   1.390   3.701   3.833
 3205SOL    HW210152   1.266   3.740   3.912
 3206SOL     OW10153   1.280   0.162   4.405
 3206SOL    HW110154   1.285   0.258   4.411
 3206SOL    HW210155   1.285   0.132   4.496
 3207SOL     OW10156   1.580   3.925   4.605
 3207SOL    HW110157   1.531   3.931   4.687
 3207SOL    HW210158   1.581   0.015   4.571
 3208SOL     OW10159   0.234   3.943   6.544
 3208SOL    HW110160   0.257   3.957   6.636
 3208SOL    HW210161   0.140   3.960   6.539
 3209SOL     OW10162   0.008   0.107   6.207
 3209SOL    HW110163   3.923   0.087   6.247
 3209SOL    HW210164   0.014   0.047   6.133
 3210SOL     OW10165   1.777   0.318   5.773
 3210SOL    HW110166   1.704   0.294   5.716
 3210SOL    HW210167   1.735   0.339   5.857
 3211SOL     OW10168   0.440   0.095   7.095
 3211SOL    HW110169   0.511   0.058   7.044
 3211SOL    HW210170   0.363   0.042   7.072
 3212SOL     OW10171   1.594   3.851   7.045
 3212SOL    HW110172   1.604   3.936   7.003
 3212SOL    HW210173   1.576   3.871   7.137
 3213SOL     OW10174   0.807   3.730   6.094
 3213SOL    HW110175   0.833   3.822   6.087
 3213SOL    HW210176   0.711   3.733   6.102
 3214SOL     OW10177   1.266   0.062   6.524
 3214SOL    HW110178   1.194   0.007   6.492
 3214SOL    HW210179   1.323   0.001   6.571
 3215SOL     OW10180   0.556   3.905   6.478
 3215SOL    HW110181   0.554   3.925   6.572
 3215SOL    HW210182   0.552   3.991   6.435
 3216SOL     OW10183   0.190   3.976   7.084
 3216SOL    HW110184   0.100   0.010   7.089
 3216SOL    HW210185   0.185   3.891   7.128
 3217SOL     OW10186   1.408   3.830   6.021
 3217SOL    HW110187   1.400   3.798   5.932
 3217SOL    HW210188   1.502   3.824   6.040
 3218SOL     OW10189   1.533   3.937   7.306
 3218SOL    HW110190   1.558   3.939   7.399
 3218SOL    HW210191   1.462   3.873   7.302
 3219SOL     OW10192   0.629   3.850   5.714
 3219SOL    HW110193   0.720   3.820   5.713
 3219SOL    HW210194   0.586   3.800   5.645
 3220SOL     OW10195   0.772   3.953   7.327
 3220SOL    HW110196   0.827   3.926   7.401
 3220SOL    HW210197   0.686   3.969   7.367
 3221SOL     OW10198   0.536   3.785   6.102
 3221SOL    HW110199   0.485   3.785   6.183
 3221SOL    HW210200   0.543   3.877   6.077
 3222SOL     OW10201   0.286   3.761   5.763
 3222SOL    HW110202   0.326   3.848   5.758
 3222SOL    HW210203   0.353   3.706   5.805
 3223SOL     OW10204   0.563   3.944   6.755
 3223SOL    HW110205   0.606   3.877   6.807
 3223SOL    HW210206   0.471   3.940   6.782
 3224SOL     OW10207   1.021   3.766   6.315
 3224SOL    HW110208   0.955   3.753   6.247
 3224SOL    HW210209   0.998   3.702   6.383
 3225SOL     OW10210   0.924   3.801   6.982
 3225SOL    HW110211   0.953   3.780   6.893
 3225SOL    HW210212   0.998   3.849   7.020
 3226SOL     OW10213   1.267   0.072   6.852
 3226SOL    HW110214   1.277   0.142   6.916
 3226SOL    HW210215   1.201   0.104   6.791
 3227SOL     OW10216   0.508   3.751   7.344
 3227SOL    HW110217   0.453   3.706   7.279
 3227SOL    HW210218   0.480   3.843   7.339
 3228SOL     OW10219   0.303   3.924   6.840
 3228SOL    HW110220   0.255   3.941   6.922
 3228SOL    HW210221   0.289   3.830   6.823
 3229SOL     OW10222   1.577   3.952   5.705
 3229SOL    HW110223   1.519   3.895   5.755
 3229SOL    HW210224   1.613   0.012   5.769
 3230SOL     OW10225   1.163   3.920   7.060
 3230SOL    HW110226   1.165   3.996   7.117
 3230SOL    HW210227   1.207   3.949   6.980
 3231SOL     OW10228   0.901   3.811   5.686
 3231SOL    HW110229   0.957   3.765   5.624
 3231SOL    HW210230   0.944   3.799   5.771
 3232SOL     OW10231   1.707   3.856   6.078
 3232SOL    HW110232   1.786   3.843   6.026
 3232SOL    HW210233   1.697   3.774   6.128
 3233SOL     OW10234   1.836   3.877   6.559
 3233SOL    HW110235   1.871   3.795   6.526
 3233SOL    HW210236   1.757   3.893   6.507
 3234SOL     OW10237   0.679   3.908   7.073
 3234SOL    HW110238   0.763   3.897   7.027
 3234SOL    HW210239   0.704   3.930   7.163
 3235SOL     OW10240   0.072   0.020   5.577
 3235SOL    HW110241   3.977   0.022   5.588
 3235SOL    HW210242   0.100   0.109   5.597
 3236SOL     OW10243   0.108   3.921   5.958
 3236SOL    HW110244   0.081   0.004   5.918
 3236SOL    HW210245   0.188   3.896   5.912
 3237SOL     OW10246   1.198   0.013   6.048
 3237SOL    HW110247   1.263   3.942   6.051
 3237SOL    HW210248   1.216   0.065   6.126
 3238SOL     OW10249   1.786   0.037   7.225
 3238SOL    HW110250   1.758   0.075   7.141
 3238SOL    HW210251   1.707   3.998   7.261
 3239SOL     OW10252   1.816   3.912   6.826
 3239SOL    HW110253   1.820   3.821   6.855
 3239SOL    HW210254   1.822   3.906   6.730
 3240SOL     OW10255   1.440   3.931   6.702
 3240SOL    HW110256   1.470   3.851   6.746
 3240SOL    HW210257   1.382   3.973   6.766
 3241SOL     OW10258   1.017   3.736   6.732
 3241SOL    HW110259   0.960   3.682   6.678
 3241SOL    HW210260   1.103   3.693   6.727
 3242SOL     OW10261   1.354   3.770   5.751
 3242SOL    HW110262   1.389   3.701   5.695
 3242SOL    HW210263   1.266   3.740   5.774
 3243SOL     OW10264   1.280   0.162   6.267
 3243SOL    HW110265   1.285   0.258   6.273
 3243SOL    HW210266   1.285   0.132   6.358
 3244SOL     OW10267   1.580   3.926   6.466
 3244SOL    HW110268   1.532   3.931   6.549
 3244SOL    HW210269   1.581   0.015   6.433
 3245SOL     OW10270   0.234   3.943   8.406
 3245SOL    HW110271   0.257   3.957   8.498
 3245SOL    HW210272   0.140   3.961   8.401
 3246SOL     OW10273   0.008   0.108   8.068
 3246SOL    HW110274   3.923   0.087   8.108
 3246SOL    HW210275   0.015   0.047   7.995
 3247SOL     OW10276   1.776   0.318   7.636
 3247SOL    HW110277   1.704   0.294   7.578
 3247SOL    HW210278   1.734   0.338   7.719
 3248SOL     OW10279   0.440   0.095   8.956
 3248SOL    HW110280   0.511   0.057   8.906
 3248SOL    HW210281   0.363   0.042   8.934
 3249SOL     OW10282   1.594   3.850   8.907
 3249SOL    HW110283   1.604   3.936   8.865
 3249SOL    HW210284   1.577   3.870   8.999
 3250SOL     OW10285   0.807   3.730   7.956
 3250SOL    HW110286   0.833   3.822   7.949
 3250SOL    HW210287   0.711   3.733   7.965
 3251SOL     OW10288   1.265   0.063   8.386
 3251SOL    HW110289   1.193   0.009   8.353
 3251SOL    HW210290   1.322   0.001   8.433
 3252SOL     OW10291   0.556   3.905   8.340
 3252SOL    HW110292   0.553   3.925   8.434
 3252SOL    HW210293   0.552   3.990   8.297
 3253SOL     OW10294   0.190   3.976   8.946
 3253SOL    HW110295   0.100   0.010   8.951
 3253SOL    HW210296   0.185   3.891   8.991
 3254SOL     OW10297   1.408   3.829   7.883
 3254SOL    HW110298   1.399   3.798   7.793
 3254SOL    HW210299   1.502   3.825   7.901
 3255SOL     OW10300   1.533   3.937   9.168
 3255SOL    HW110301   1.558   3.940   9.261
 3255SOL    HW210302   1.462   3.873   9.165
 3256SOL     OW10303   0.629   3.850   7.576
 3256SOL    HW110304   0.719   3.820   7.576
 3256SOL    HW210305   0.586   3.800   7.507
 3257SOL     OW10306   0.772   3.953   9.189
 3257SOL    HW110307   0.827   3.926   9.263
 3257SOL    HW210308   0.686   3.970   9.229
 3258SOL     OW10309   0.536   3.785   7.964
 3258SOL    HW110310   0.485   3.785   8.044
 3258SOL    HW210311   0.543   3.877   7.939
 3259SOL     OW10312   0.286   3.761   7.625
 3259SOL    HW110313   0.326   3.847   7.620
 3259SOL    HW210314   0.353   3.706   7.667
 3260SOL     OW10315   0.563   3.944   8.617
 3260SOL    HW110316   0.606   3.877   8.669
 3260SOL    HW210317   0.471   3.941   8.644
 3261SOL     OW10318   1.021   3.766   8.177
 3261SOL    HW110319   0.955   3.753   8.109
 3261SOL    HW210320   0.997   3.702   8.245
 3262SOL     OW10321   0.925   3.801   8.844
 3262SOL    HW110322   0.953   3.780   8.755
 3262SOL    HW210323   0.998   3.849   8.882
 3263SOL     OW10324   1.268   0.072   8.714
 3263SOL    HW110325   1.276   0.142   8.778
 3263SOL    HW210326   1.200   0.103   8.654
 3264SOL     OW10327   0.508   3.751   9.206
 3264SOL    HW110328   0.453   3.706   9.141
 3264SOL    HW210329   0.480   3.842   9.202
 3265SOL     OW10330   0.303   3.924   8.702
 3265SOL    HW110331   0.255   3.941   8.784
 3265SOL    HW210332   0.289   3.831   8.685
 3266SOL     OW10333   1.577   3.950   7.567
 3266SOL    HW110334   1.516   3.896   7.616
 3266SOL    HW210335   1.609   0.015   7.630
 3267SOL     OW10336   1.163   3.920   8.922
 3267SOL    HW110337   1.166   3.996   8.980
 3267SOL    HW210338   1.207   3.949   8.842
 3268SOL     OW10339   0.901   3.810   7.548
 3268SOL    HW110340   0.956   3.764   7.486
 3268SOL    HW210341   0.944   3.798   7.633
 3269SOL     OW10342   1.707   3.855   7.940
 3269SOL    HW110343   1.785   3.843   7.888
 3269SOL    HW210344   1.698   3.774   7.990
 3270SOL     OW10345   1.836   3.877   8.421
 3270SOL    HW110346   1.871   3.794   8.388
 3270SOL    HW210347   1.757   3.893   8.370
 3271SOL     OW10348   0.679   3.908   8.935
 3271SOL    HW110349   0.763   3.897   8.889
 3271SOL    HW210350   0.703   3.930   9.025
 3272SOL     OW10351   0.071   0.019   7.441
 3272SOL    HW110352   3.976   0.022   7.451
 3272SOL    HW210353   0.100   0.108   7.459
 3273SOL     OW10354   0.109   3.921   7.821
 3273SOL    HW110355   0.082   0.003   7.780
 3273SOL    HW210356   0.188   3.895   7.774
 3274SOL     OW10357   1.197   0.012   7.911
 3274SOL    HW110358   1.263   3.942   7.913
 3274SOL    HW210359   1.216   0.064   7.989
 3275SOL     OW10360   1.786   0.038   9.087
 3275SOL    HW110361   1.758   0.075   9.003
 3275SOL    HW210362   1.707   3.999   9.124
 3276SOL     OW10363   1.816   3.912   8.688
 3276SOL    HW110364   1.820   3.822   8.718
 3276SOL    HW210365   1.822   3.906   8.592
 3277SOL     OW10366   1.440   3.931   8.565
 3277SOL    HW110367   1.471   3.852   8.610
 3277SOL    HW210368   1.382   3.973   8.628
 3278SOL     OW10369   1.018   3.736   8.594
 3278SOL    HW110370   0.960   3.682   8.540
 3278SOL    HW210371   1.103   3.693   8.589
 3279SOL     OW10372   1.354   3.769   7.613
 3279SOL    HW110373   1.389   3.701   7.556
 3279SOL    HW210374   1.266   3.740   7.636
 3280SOL     OW10375   1.280   0.162   8.130
 3280SOL    HW110376   1.285   0.258   8.135
 3280SOL    HW210377   1.285   0.133   8.221
 3281SOL     OW10378   1.580   3.925   8.329
 3281SOL    HW110379   1.532   3.931   8.411
 3281SOL    HW210380   1.581   0.015   8.295
 3282SOL     OW10381   0.235   3.943  10.268
 3282SOL    HW110382   0.257   3.957  10.360
 3282SOL    HW210383   0.141   3.960  10.263
 3283SOL     OW10384   0.008   0.107   9.931
 3283SOL    HW110385   3.923   0.087   9.970
 3283SOL    HW210386   0.015   0.047   9.857
 3284SOL     OW10387   1.777   0.318   9.497
 3284SOL    HW110388   1.704   0.294   9.440
 3284SOL    HW210389   1.735   0.339   9.581
 3285SOL     OW10390   0.440   0.095  10.818
 3285SOL    HW110391   0.511   0.056  10.768
 3285SOL    HW210392   0.363   0.042  10.796
 3286SOL     OW10393   1.594   3.850  10.769
 3286SOL    HW110394   1.604   3.936  10.727
 3286SOL    HW210395   1.576   3.870  10.861
 3287SOL     OW10396   0.807   3.730   9.818
 3287SOL    HW110397   0.833   3.822   9.811
 3287SOL    HW210398   0.711   3.733   9.826
 3288SOL     OW10399   1.266   0.062  10.248
 3288SOL    HW110400   1.193   0.009  10.216
 3288SOL    HW210401   1.322   0.001  10.295
 3289SOL     OW10402   0.556   3.905  10.202
 3289SOL    HW110403   0.554   3.925  10.296
 3289SOL    HW210404   0.552   3.991  10.160
 3290SOL     OW10405   0.190   3.976  10.808
 3290SOL    HW110406   0.101   0.010  10.813
 3290SOL    HW210407   0.185   3.891  10.853
 3291SOL     OW10408   1.408   3.829   9.746
 3291SOL    HW110409   1.399   3.798   9.656
 3291SOL    HW210410   1.502   3.825   9.764
 3292SOL     OW10411   1.533   3.937  11.030
 3292SOL    HW110412   1.558   3.940  11.123
 3292SOL    HW210413   1.462   3.873  11.027
 3293SOL     OW10414   0.629   3.850   9.438
 3293SOL    HW110415   0.720   3.820   9.437
 3293SOL    HW210416   0.586   3.800   9.369
 3294SOL     OW10417   0.771   3.952  11.051
 3294SOL    HW110418   0.827   3.926  11.125
 3294SOL    HW210419   0.686   3.970  11.091
 3295SOL     OW10420   0.536   3.785   9.826
 3295SOL    HW110421   0.485   3.785   9.907
 3295SOL    HW210422   0.543   3.877   9.801
 3296SOL     OW10423   0.286   3.761   9.487
 3296SOL    HW110424   0.326   3.848   9.482
 3296SOL    HW210425   0.353   3.706   9.529
 3297SOL     OW10426   0.563   3.944  10.479
 3297SOL    HW110427   0.606   3.877  10.531
 3297SOL    HW210428   0.471   3.941  10.506
 3298SOL     OW10429   1.021   3.766  10.039
 3298SOL    HW110430   0.955   3.753   9.971
 3298SOL    HW210431   0.997   3.702  10.107
 3299SOL     OW10432   0.925   3.801  10.706
 3299SOL    HW110433   0.954   3.780  10.617
 3299SOL    HW210434   0.998   3.849  10.744
 3300SOL     OW10435   1.268   0.072  10.576
 3300SOL    HW110436   1.277   0.141  10.641
 3300SOL    HW210437   1.200   0.104  10.516
 3301SOL     OW10438   0.508   3.751  11.068
 3301SOL    HW110439   0.453   3.706  11.003
 3301SOL    HW210440   0.480   3.842  11.064
 3302SOL     OW10441   0.303   3.924  10.564
 3302SOL    HW110442   0.255   3.941  10.646
 3302SOL    HW210443   0.289   3.830  10.547
 3303SOL     OW10444   1.577   3.951   9.429
 3303SOL    HW110445   1.517   3.895   9.478
 3303SOL    HW210446   1.612   0.013   9.493
 3304SOL     OW10447   1.163   3.919  10.783
 3304SOL    HW110448   1.166   3.995  10.842
 3304SOL    HW210449   1.207   3.949  10.704
 3305SOL     OW10450   0.901   3.811   9.410
 3305SOL    HW110451   0.957   3.765   9.348
 3305SOL    HW210452   0.944   3.799   9.495
 3306SOL     OW10453   1.706   3.855   9.802
 3306SOL    HW110454   1.785   3.842   9.750
 3306SOL    HW210455   1.697   3.774   9.852
 3307SOL     OW10456   1.836   3.877  10.283
 3307SOL    HW110457   1.871   3.795  10.250
 3307SOL    HW210458   1.757   3.893  10.232
 3308SOL     OW10459   0.679   3.908  10.797
 3308SOL    HW110460   0.763   3.897  10.751
 3308SOL    HW210461   0.703   3.930  10.886
 3309SOL     OW10462   0.072   0.019   9.302
 3309SOL    HW110463   3.977   0.022   9.312
 3309SOL    HW210464   0.100   0.109   9.321
 3310SOL     OW10465   0.108   3.921   9.682
 3310SOL    HW110466   0.081   0.004   9.642
 3310SOL    HW210467   0.188   3.896   9.636
 3311SOL     OW10468   1.198   0.013   9.772
 3311SOL    HW110469   1.263   3.942   9.775
 3311SOL    HW210470   1.216   0.065   9.851
 3312SOL     OW10471   1.786   0.038  10.949
 3312SOL    HW110472   1.758   0.074  10.865
 3312SOL    HW210473   1.707   3.999  10.986
 3313SOL     OW10474   1.816   3.912  10.550
 3313SOL    HW110475   1.821   3.822  10.580
 3313SOL    HW210476   1.822   3.906  10.454
 3314SOL     OW10477   1.440   3.931  10.427
 3314SOL    HW110478   1.472   3.852  10.472
 3314SOL    HW210479   1.382   3.973  10.490
 3315SOL     OW10480   1.018   3.736  10.456
 3315SOL    HW110481   0.960   3.682  10.402
 3315SOL    HW210482   1.103   3.693  10.451
 3316SOL     OW10483   1.355   3.770   9.475
 3316SOL    HW110484   1.389   3.701   9.419
 3316SOL    HW210485   1.266   3.740   9.498
 3317SOL     OW10486   1.280   0.162   9.991
 3317SOL    HW110487   1.285   0.258   9.997
 3317SOL    HW210488   1.285   0.133  10.082
 3318SOL     OW10489   1.580   3.925  10.191
 3318SOL    HW110490   1.531   3.931  10.273
 3318SOL    HW210491   1.581   0.015  10.157
 3319SOL     OW10492   0.235   3.943  12.130
 3319SOL    HW110493   0.257   3.957  12.222
 3319SOL    HW210494   0.141   3.960  12.125
 3320SOL     OW10495   0.008   0.107  11.793
 3320SOL    HW110496   3.923   0.087  11.832
 3320SOL    HW210497   0.015   0.047  11.719
 3321SOL     OW10498   1.777   0.318  11.359
 3321SOL    HW110499   1.704   0.294  11.302
 3321SOL    HW210500   1.735   0.339  11.443
 3322SOL     OW10501   0.440   0.095  12.681
 3322SOL    HW110502   0.511   0.057  12.630
 3322SOL    HW210503   0.363   0.042  12.658
 3323SOL     OW10504   1.594   3.850  12.631
 3323SOL    HW110505   1.604   3.936  12.589
 3323SOL    HW210506   1.576   3.870  12.723
 3324SOL     OW10507   0.807   3.730  11.680
 3324SOL    HW110508   0.833   3.822  11.673
 3324SOL    HW210509   0.711   3.733  11.688
 3325SOL     OW10510   1.266   0.062  12.110
 3325SOL    HW110511   1.193   0.008  12.078
 3325SOL    HW210512   1.322   0.001  12.157
 3326SOL     OW10513   0.556   3.905  12.064
 3326SOL    HW110514   0.553   3.925  12.158
 3326SOL    HW210515   0.552   3.991  12.022
 3327SOL     OW10516   0.189   3.976  12.670
 3327SOL    HW110517   0.100   0.010  12.675
 3327SOL    HW210518   0.185   3.891  12.714
 3328SOL     OW10519   1.408   3.830  11.608
 3328SOL    HW110520   1.400   3.798  11.518
 3328SOL    HW210521   1.502   3.825  11.626
 3329SOL     OW10522   1.533   3.938  12.894
 3329SOL    HW110523   1.557   3.943  12.987
 3329SOL    HW210524   1.463   3.873  12.891
 3330SOL     OW10525   0.629   3.850  11.300
 3330SOL    HW110526   0.720   3.820  11.299
 3330SOL    HW210527   0.586   3.800  11.231
 3331SOL     OW10528   0.771   3.953  12.914
 3331SOL    HW110529   0.827   3.925  12.986
 3331SOL    HW210530   0.685   3.968  12.954
 3332SOL     OW10531   0.536   3.785  11.688
 3332SOL    HW110532   0.485   3.785  11.769
 3332SOL    HW210533   0.543   3.877  11.663
 3333SOL     OW10534   0.286   3.761  11.349
 3333SOL    HW110535   0.326   3.848  11.344
 3333SOL    HW210536   0.353   3.706  11.391
 3334SOL     OW10537   0.563   3.944  12.341
 3334SOL    HW110538   0.606   3.877  12.393
 3334SOL    HW210539   0.471   3.941  12.368
 3335SOL     OW10540   1.021   3.766  11.901
 3335SOL    HW110541   0.955   3.753  11.833
 3335SOL    HW210542   0.997   3.702  11.969
 3336SOL     OW10543   0.924   3.801  12.567
 3336SOL    HW110544   0.953   3.780  12.479
 3336SOL    HW210545   0.998   3.849  12.606
 3337SOL     OW10546   1.268   0.072  12.438
 3337SOL    HW110547   1.277   0.142  12.503
 3337SOL    HW210548   1.200   0.104  12.378
 3338SOL     OW10549   0.507   3.751  12.929
 3338SOL    HW110550   0.453   3.706  12.865
 3338SOL    HW210551   0.479   3.842  12.924
 3339SOL     OW10552   0.303   3.924  12.426
 3339SOL    HW110553   0.255   3.941  12.508
 3339SOL    HW210554   0.289   3.830  12.409
 3340SOL     OW10555   1.577   3.951  11.290
 3340SOL    HW110556   1.518   3.895  11.341
 3340SOL    HW210557   1.612   0.013  11.355
 3341SOL     OW10558   1.163   3.919  12.645
 3341SOL    HW110559   1.166   3.995  12.704
 3341SOL    HW210560   1.207   3.949  12.565
 3342SOL     OW10561   0.901   3.811  11.272
 3342SOL    HW110562   0.957   3.765  11.210
 3342SOL    HW210563   0.944   3.799  11.357
 3343SOL     OW10564   1.706   3.855  11.664
 3343SOL    HW110565   1.785   3.842  11.612
 3343SOL    HW210566   1.697   3.774  11.714
 3344SOL     OW10567   1.836   3.877  12.145
 3344SOL    HW110568   1.871   3.795  12.112
 3344SOL    HW210569   1.757   3.893  12.094
 3345SOL     OW10570   0.679   3.908  12.659
 3345SOL    HW110571   0.763   3.897  12.613
 3345SOL    HW210572   0.704   3.930  12.749
 3346SOL     OW10573   0.072   0.019  11.164
 3346SOL    HW110574   3.977   0.022  11.174
 3346SOL    HW210575   0.100   0.109  11.183
 3347SOL     OW10576   0.108   3.921  11.544
 3347SOL    HW110577   0.081   0.004  11.504
 3347SOL    HW210578   0.188   3.896  11.498
 3348SOL     OW10579   1.198   0.012  11.634
 3348SOL    HW110580   1.263   3.942  11.637
 3348SOL    HW210581   1.216   0.065  11.713
 3349SOL     OW10582   1.786   0.038  12.809
 3349SOL    HW110583   1.757   0.074  12.726
 3349SOL    HW210584   1.707   3.999  12.847
 3350SOL     OW10585   1.816   3.913  12.412
 3350SOL    HW110586   1.821   3.822  12.442
 3350SOL    HW210587   1.822   3.906  12.316
 3351SOL     OW10588   1.440   3.931  12.289
 3351SOL    HW110589   1.472   3.852  12.334
 3351SOL    HW210590   1.382   3.973  12.352
 3352SOL     OW10591   1.018   3.736  12.318
 3352SOL    HW110592   0.960   3.682  12.264
 3352SOL    HW210593   1.103   3.693  12.313
 3353SOL     OW10594   1.355   3.770  11.337
 3353SOL    HW110595   1.389   3.701  11.281
 3353SOL    HW210596   1.266   3.740  11.360
 3354SOL     OW10597   1.280   0.162  11.853
 3354SOL    HW110598   1.285   0.258  11.859
 3354SOL    HW210599   1.285   0.133  11.944
 3355SOL     OW10600   1.580   3.925  12.053
 3355SOL    HW110601   1.531   3.931  12.135
 3355SOL    HW210602   1.581   0.015  12.019
 3356SOL     OW10603   0.010   0.103  13.640
 3356SOL    HW110604   3.916   0.089  13.650
 3356SOL    HW210605   0.034   0.048  13.565
 3357SOL     OW10606   1.776   0.320  13.221
 3357SOL    HW110607   1.702   0.298  13.165
 3357SOL    HW210608   1.738   0.329  13.308
 3358SOL     OW10609   1.614   0.171  13.767
 3358SOL    HW110610   1.526   0.143  13.741
 3358SOL    HW210611   1.604   0.264  13.788
 3359SOL     OW10612   0.809   3.731  13.540
 3359SOL    HW110613   0.832   3.824  13.534
 3359SOL    HW210614   0.714   3.731  13.551
 3360SOL     OW10615   1.406   3.833  13.465
 3360SOL    HW110616   1.400   3.799  13.375
 3360SOL    HW210617   1.499   3.827  13.487
 3361SOL     OW10618   0.626   3.851  13.161
 3361SOL    HW110619   0.717   3.821  13.164
 3361SOL    HW210620   0.586   3.800  13.091
 3362SOL     OW10621   0.536   3.776  13.550
 3362SOL    HW110622   0.488   3.763  13.632
 3362SOL    HW210623   0.536   3.871  13.538
 3363SOL     OW10624   0.286   3.761  13.213
 3363SOL    HW110625   0.333   3.843  13.201
 3363SOL    HW210626   0.349   3.703  13.256
 3364SOL     OW10627   1.011   3.760  13.769
 3364SOL    HW110628   0.954   3.754  13.692
 3364SOL    HW210629   0.991   3.681  13.820
 3365SOL     OW10630   1.576   3.958  13.155
 3365SOL    HW110631   1.527   3.894  13.206
 3365SOL    HW210632   1.633   0.001  13.219
 3366SOL     OW10633   0.900   3.811  13.135
 3366SOL    HW110634   0.956   3.765  13.073
 3366SOL    HW210635   0.942   3.798  13.220
 3367SOL     OW10636   1.732   3.859  13.557
 3367SOL    HW110637   1.798   3.844  13.489
 3367SOL    HW210638   1.712   3.772  13.591
 3368SOL     OW10639   1.848   3.899   0.054
 3368SOL    HW110640   1.872   3.807   0.052
 3368SOL    HW210641   1.758   3.899   0.087
 3369SOL     OW10642   0.073   0.016  13.026
 3369SOL    HW110643   3.978   0.020  13.037
 3369SOL    HW210644   0.102   0.105  13.048
 3370SOL     OW10645   0.114   3.930  13.413
 3370SOL    HW110646   0.089   0.004  13.358
 3370SOL    HW210647   0.188   3.889  13.369
 3371SOL     OW10648   1.190   0.001  13.520
 3371SOL    HW110649   1.262   3.942  13.499
 3371SOL    HW210650   1.224   0.057  13.590
 3372SOL     OW10651   1.356   3.769  13.197
 3372SOL    HW110652   1.389   3.699  13.141
 3372SOL    HW210653   1.267   3.741  13.221
 3373SOL     OW10654   1.314   0.154  13.737
 3373SOL    HW110655   1.284   0.243  13.720
 3373SOL    HW210656   1.292   0.137  13.828
 3374SOL     OW10657   2.096   0.648   0.116
 3374SOL    HW110658   2.009   0.616   0.142
 3374SOL    HW210659   2.115   0.602   0.034
 3375SOL     OW10660   2.077   0.303   0.993
 3375SOL    HW110661   2.115   0.258   1.069
 3375SOL    HW210662   1.993   0.260   0.980
 3376SOL     OW10663   1.872   0.402   0.631
 3376SOL    HW110664   1.784   0.414   0.669
 3376SOL    HW210665   1.861   0.329   0.570
 3377SOL     OW10666   2.431   1.294   1.181
 3377SOL    HW110667   2.345   1.299   1.140
 3377SOL    HW210668   2.448   1.383   1.211
 3378SOL     OW10669   3.430   1.514   0.708
 3378SOL    HW110670   3.385   1.490   0.789
 3378SOL    HW210671   3.360   1.517   0.642
 3379SOL     OW10672   2.995   0.698   0.695
 3379SOL    HW110673   3.043   0.780   0.684
 3379SOL    HW210674   2.947   0.709   0.777
 3380SOL     OW10675   3.622   0.631   0.221
 3380SOL    HW110676   3.625   0.623   0.126
 3380SOL    HW210677   3.635   0.541   0.253
 3381SOL     OW10678   2.611   1.138   1.045
 3381SOL    HW110679   2.544   1.175   1.103
 3381SOL    HW210680   2.649   1.214   1.001
 3382SOL     OW10681   2.735   0.766   1.825
 3382SOL    HW110682   2.721   0.836   1.888
 3382SOL    HW210683   2.757   0.811   1.743
 3383SOL     OW10684   2.547   0.997   0.646
 3383SOL    HW110685   2.613   0.989   0.715
 3383SOL    HW210686   2.479   1.052   0.684
 3384SOL     OW10687   2.576   1.149   1.817
 3384SOL    HW110688   2.623   1.227   1.848
 3384SOL    HW210689   2.495   1.184   1.780
 3385SOL     OW10690   2.195   1.412   1.069
 3385SOL    HW110691   2.117   1.379   1.024
 3385SOL    HW210692   2.240   1.466   1.003
 3386SOL     OW10693   3.320   1.502   1.360
 3386SOL    HW110694   3.375   1.580   1.369
 3386SOL    HW210695   3.254   1.511   1.428
 3387SOL     OW10696   2.309   0.391   1.490
 3387SOL    HW110697   2.400   0.363   1.491
 3387SOL    HW210698   2.259   0.310   1.500
 3388SOL     OW10699   3.472   0.450   0.734
 3388SOL    HW110700   3.408   0.489   0.674
 3388SOL    HW210701   3.494   0.520   0.795
 3389SOL     OW10702   2.111   1.696   0.473
 3389SOL    HW110703   2.144   1.765   0.530
 3389SOL    HW210704   2.175   1.689   0.403
 3390SOL     OW10705   2.999   1.343   1.695
 3390SOL    HW110706   3.041   1.336   1.781
 3390SOL    HW210707   2.947   1.263   1.687
 3391SOL     OW10708   2.073   1.435   0.530
 3391SOL    HW110709   2.078   1.530   0.525
 3391SOL    HW210710   2.021   1.417   0.608
 3392SOL     OW10711   2.126   1.090   0.889
 3392SOL    HW110712   2.122   1.003   0.928
 3392SOL    HW210713   2.070   1.144   0.945
 3393SOL     OW10714   2.468   1.793   1.426
 3393SOL    HW110715   2.388   1.774   1.476
 3393SOL    HW210716   2.494   1.880   1.455
 3394SOL     OW10717   2.426   0.978   0.166
 3394SOL    HW110718   2.462   1.014   0.085
 3394SOL    HW210719   2.478   1.018   0.236
 3395SOL     OW10720   3.445   0.143   1.456
 3395SOL    HW110721   3.473   0.215   1.399
 3395SOL    HW210722   3.404   0.186   1.531
 3396SOL     OW10723   1.981   0.658   0.559
 3396SOL    HW110724   1.952   0.569   0.582
 3396SOL    HW210725   1.972   0.708   0.640
 3397SOL     OW10726   3.710   1.755   0.331
 3397SOL    HW110727   3.773   1.720   0.395
 3397SOL    HW210728   3.728   1.849   0.329
 3398SOL     OW10729   1.903   1.590   0.106
 3398SOL    HW110730   1.903   1.496   0.123
 3398SOL    HW210731   1.868   1.630   0.186
 3399SOL     OW10732   3.550   0.918   0.651
 3399SOL    HW110733   3.633   0.874   0.634
 3399SOL    HW210734   3.532   0.968   0.572
 3400SOL     OW10735   3.507   1.102   0.435
 3400SOL    HW110736   3.592   1.110   0.392
 3400SOL    HW210737   3.509   1.167   0.505
 3401SOL     OW10738   1.985   0.751   1.579
 3401SOL    HW110739   2.075   0.784   1.582
 3401SOL    HW210740   1.930   0.829   1.584
 3402SOL     OW10741   2.479   1.388   0.734
 3402SOL    HW110742   2.433   1.304   0.742
 3402SOL    HW210743   2.462   1.416   0.644
 3403SOL     OW10744   3.148   1.237   1.421
 3403SOL    HW110745   3.179   1.169   1.361
 3403SOL    HW210746   3.207   1.232   1.496
 3404SOL     OW10747   2.686   0.004   0.522
 3404SOL    HW110748   2.730   0.084   0.494
 3404SOL    HW210749   2.593   0.027   0.521
 3405SOL     OW10750   2.050   0.961   1.278
 3405SOL    HW110751   2.136   0.922   1.263
 3405SOL    HW210752   1.991   0.913   1.220
 3406SOL     OW10753   3.390   0.999   0.207
 3406SOL    HW110754   3.322   0.941   0.241
 3406SOL    HW210755   3.432   1.036   0.285
 3407SOL     OW10756   3.045   1.811   1.624
 3407SOL    HW110757   3.053   1.871   1.550
 3407SOL    HW210758   3.064   1.725   1.588
 3408SOL     OW10759   2.222   0.250   1.851
 3408SOL    HW110760   2.267   0.335   1.853
 3408SOL    HW210761   2.129   0.273   1.850
 3409SOL     OW10762   3.328   1.420   0.947
 3409SOL    HW110763   3.262   1.435   1.015
 3409SOL    HW210764   3.317   1.328   0.922
 3410SOL     OW10765   3.519   1.749   0.585
 3410SOL    HW110766   3.497   1.724   0.495
 3410SOL    HW210767   3.501   1.671   0.637
 3411SOL     OW10768   2.457   0.715   0.269
 3411SOL    HW110769   2.458   0.799   0.223
 3411SOL    HW210770   2.395   0.728   0.341
 3412SOL     OW10771   3.137   0.372   0.940
 3412SOL    HW110772   3.049   0.333   0.948
 3412SOL    HW210773   3.194   0.310   0.985
 3413SOL     OW10774   3.429   1.729   0.316
 3413SOL    HW110775   3.524   1.729   0.311
 3413SOL    HW210776   3.400   1.698   0.229
 3414SOL     OW10777   2.657   0.615   1.450
 3414SOL    HW110778   2.629   0.589   1.538
 3414SOL    HW210779   2.621   0.548   1.393
 3415SOL     OW10780   3.254   0.475   1.677
 3415SOL    HW110781   3.261   0.521   1.761
 3415SOL    HW210782   3.310   0.398   1.688
 3416SOL     OW10783   2.812   0.887   1.586
 3416SOL    HW110784   2.868   0.819   1.548
 3416SOL    HW210785   2.764   0.923   1.511
 3417SOL     OW10786   2.856   0.402   1.236
 3417SOL    HW110787   2.770   0.420   1.273
 3417SOL    HW210788   2.838   0.376   1.145
 3418SOL     OW10789   2.915   0.703   0.428
 3418SOL    HW110790   2.933   0.695   0.522
 3418SOL    HW210791   2.831   0.658   0.416
 3419SOL     OW10792   1.950   0.824   0.775
 3419SOL    HW110793   2.030   0.815   0.828
 3419SOL    HW210794   1.905   0.900   0.813
 3420SOL     OW10795   2.736   0.361   0.223
 3420SOL    HW110796   2.771   0.419   0.156
 3420SOL    HW210797   2.738   0.274   0.182
 3421SOL     OW10798   3.567   0.572   1.830
 3421SOL    HW110799   3.531   0.647   1.782
 3421SOL    HW210800   3.594   0.510   1.762
 3422SOL     OW10801   3.240   1.141   0.542
 3422SOL    HW110802   3.319   1.130   0.489
 3422SOL    HW210803   3.188   1.205   0.493
 3423SOL     OW10804   2.421   0.199   0.881
 3423SOL    HW110805   2.423   0.219   0.974
 3423SOL    HW210806   2.417   0.285   0.838
 3424SOL     OW10807   2.862   1.439   0.474
 3424SOL    HW110808   2.834   1.515   0.423
 3424SOL    HW210809   2.839   1.462   0.564
 3425SOL     OW10810   2.219   1.799   0.862
 3425SOL    HW110811   2.254   1.711   0.873
 3425SOL    HW210812   2.287   1.857   0.897
 3426SOL     OW10813   3.668   1.062   0.870
 3426SOL    HW110814   3.615   1.035   0.794
 3426SOL    HW210815   3.606   1.065   0.943
 3427SOL     OW10816   3.088   1.540   1.514
 3427SOL    HW110817   3.076   1.468   1.576
 3427SOL    HW210818   3.023   1.523   1.445
 3428SOL     OW10819   2.167   0.937   0.232
 3428SOL    HW110820   2.260   0.949   0.209
 3428SOL    HW210821   2.153   0.843   0.226
 3429SOL     OW10822   3.340   0.752   0.730
 3429SOL    HW110823   3.337   0.710   0.816
 3429SOL    HW210824   3.419   0.807   0.733
 3430SOL     OW10825   2.332   1.265   1.739
 3430SOL    HW110826   2.306   1.268   1.647
 3430SOL    HW210827   2.250   1.262   1.787
 3431SOL     OW10828   2.984   1.782   0.226
 3431SOL    HW110829   2.922   1.734   0.282
 3431SOL    HW210830   3.015   1.716   0.164
 3432SOL     OW10831   2.029   0.274   1.500
 3432SOL    HW110832   1.977   0.353   1.486
 3432SOL    HW210833   2.033   0.264   1.595
 3433SOL     OW10834   3.494   1.375   0.092
 3433SOL    HW110835   3.465   1.460   0.057
 3433SOL    HW210836   3.424   1.314   0.070
 3434SOL     OW10837   2.342   1.717   0.330
 3434SOL    HW110838   2.382   1.790   0.378
 3434SOL    HW210839   2.407   1.694   0.264
 3435SOL     OW10840   3.299   0.136   0.389
 3435SOL    HW110841   3.255   0.054   0.409
 3435SOL    HW210842   3.384   0.129   0.432
 3436SOL     OW10843   2.153   1.763   1.216
 3436SOL    HW110844   2.193   1.681   1.245
 3436SOL    HW210845   2.109   1.741   1.134
 3437SOL     OW10846   2.800   1.699   0.898
 3437SOL    HW110847   2.880   1.651   0.919
 3437SOL    HW210848   2.759   1.648   0.828
 3438SOL     OW10849   2.256   0.695   0.471
 3438SOL    HW110850   2.276   0.603   0.486
 3438SOL    HW210851   2.164   0.704   0.494
 3439SOL     OW10852   3.391   0.228   1.727
 3439SOL    HW110853   3.382   0.252   1.819
 3439SOL    HW210854   3.378   0.133   1.725
 3440SOL     OW10855   2.482   0.105   0.120
 3440SOL    HW110856   2.577   0.103   0.127
 3440SOL    HW210857   2.465   0.132   0.029
 3441SOL     OW10858   2.635   0.283   1.772
 3441SOL    HW110859   2.712   0.226   1.774
 3441SOL    HW210860   2.580   0.251   1.844
 3442SOL     OW10861   2.738   1.523   1.194
 3442SOL    HW110862   2.722   1.486   1.108
 3442SOL    HW210863   2.808   1.468   1.231
 3443SOL     OW10864   3.201   0.587   1.431
 3443SOL    HW110865   3.231   0.559   1.517
 3443SOL    HW210866   3.235   0.676   1.421
 3444SOL     OW10867   2.680   1.390   0.944
 3444SOL    HW110868   2.765   1.379   0.902
 3444SOL    HW210869   2.618   1.395   0.872
 3445SOL     OW10870   2.792   0.512   0.899
 3445SOL    HW110871   2.767   0.504   0.807
 3445SOL    HW210872   2.817   0.423   0.925
 3446SOL     OW10873   2.411   0.051   0.500
 3446SOL    HW110874   2.335   0.057   0.558
 3446SOL    HW210875   2.402   0.127   0.442
 3447SOL     OW10876   3.291   1.208   0.043
 3447SOL    HW110877   3.309   1.129   0.093
 3447SOL    HW210878   3.200   1.230   0.065
 3448SOL     OW10879   2.203   0.009   0.189
 3448SOL    HW110880   2.171   0.087   0.145
 3448SOL    HW210881   2.293   0.031   0.214
 3449SOL     OW10882   2.807   0.250   0.466
 3449SOL    HW110883   2.775   0.289   0.385
 3449SOL    HW210884   2.902   0.253   0.458
 3450SOL     OW10885   2.942   0.686   1.457
 3450SOL    HW110886   2.872   0.620   1.464
 3450SOL    HW210887   3.023   0.635   1.453
 3451SOL     OW10888   3.080   1.573   0.796
 3451SOL    HW110889   3.096   1.637   0.726
 3451SOL    HW210890   3.152   1.586   0.858
 3452SOL     OW10891   2.333   1.153   0.726
 3452SOL    HW110892   2.266   1.132   0.792
 3452SOL    HW210893   2.290   1.141   0.642
 3453SOL     OW10894   3.126   1.794   0.610
 3453SOL    HW110895   3.176   1.857   0.558
 3453SOL    HW210896   3.059   1.847   0.653
 3454SOL     OW10897   2.857   0.531   0.050
 3454SOL    HW110898   2.855   0.523  13.855
 3454SOL    HW210899   2.950   0.546   0.070
 3455SOL     OW10900   1.946   0.549   1.397
 3455SOL    HW110901   2.037   0.552   1.367
 3455SOL    HW210902   1.938   0.622   1.458
 3456SOL     OW10903   2.424   0.231   1.161
 3456SOL    HW110904   2.447   0.138   1.170
 3456SOL    HW210905   2.335   0.237   1.195
 3457SOL     OW10906   2.732   0.462   0.638
 3457SOL    HW110907   2.688   0.516   0.573
 3457SOL    HW210908   2.754   0.381   0.591
 3458SOL     OW10909   2.859   0.039   0.780
 3458SOL    HW110910   2.816   0.068   0.700
 3458SOL    HW210911   2.871   3.944   0.767
 3459SOL     OW10912   3.303   1.160   0.858
 3459SOL    HW110913   3.230   1.098   0.855
 3459SOL    HW210914   3.329   1.171   0.766
 3460SOL     OW10915   3.325   0.609   0.971
 3460SOL    HW110916   3.270   0.531   0.976
 3460SOL    HW210917   3.384   0.602   1.046
 3461SOL     OW10918   3.725   0.826   0.373
 3461SOL    HW110919   3.763   0.768   0.440
 3461SOL    HW210920   3.680   0.766   0.313
 3462SOL     OW10921   2.348   1.408   0.154
 3462SOL    HW110922   2.276   1.374   0.205
 3462SOL    HW210923   2.334   1.373   0.066
 3463SOL     OW10924   3.530   1.264   0.646
 3463SOL    HW110925   3.625   1.267   0.655
 3463SOL    HW210926   3.502   1.355   0.658
 3464SOL     OW10927   3.285   0.590   0.088
 3464SOL    HW110928   3.216   0.579   0.153
 3464SOL    HW210929   3.333   0.508   0.089
 3465SOL     OW10930   2.379   0.255   0.324
 3465SOL    HW110931   2.422   0.210   0.252
 3465SOL    HW210932   2.354   0.340   0.288
 3466SOL     OW10933   3.612   1.233   1.562
 3466SOL    HW110934   3.700   1.198   1.545
 3466SOL    HW210935   3.627   1.322   1.591
 3467SOL     OW10936   2.917   1.354   1.333
 3467SOL    HW110937   2.842   1.322   1.382
 3467SOL    HW210938   2.993   1.312   1.374
 3468SOL     OW10939   3.468   1.629   1.657
 3468SOL    HW110940   3.459   1.664   1.569
 3468SOL    HW210941   3.547   1.576   1.655
 3469SOL     OW10942   2.996   1.209   1.103
 3469SOL    HW110943   2.935   1.247   1.167
 3469SOL    HW210944   2.966   1.244   1.018
 3470SOL     OW10945   3.488   1.094   1.074
 3470SOL    HW110946   3.478   1.157   1.146
 3470SOL    HW210947   3.413   1.111   1.017
 3471SOL     OW10948   2.773   0.119   1.401
 3471SOL    HW110949   2.793   0.089   1.312
 3471SOL    HW210950   2.854   0.160   1.431
 3472SOL     OW10951   2.846   1.116   1.724
 3472SOL    HW110952   2.755   1.132   1.748
 3472SOL    HW210953   2.843   1.037   1.669
 3473SOL     OW10954   2.579   1.060   0.378
 3473SOL    HW110955   2.564   1.040   0.470
 3473SOL    HW210956   2.653   1.005   0.353
 3474SOL     OW10957   2.284   0.817   1.252
 3474SOL    HW110958   2.352   0.825   1.318
 3474SOL    HW210959   2.249   0.729   1.264
 3475SOL     OW10960   3.128   0.375   1.277
 3475SOL    HW110961   3.161   0.453   1.321
 3475SOL    HW210962   3.040   0.399   1.248
 3476SOL     OW10963   1.935   1.578   1.354
 3476SOL    HW110964   1.901   1.641   1.291
 3476SOL    HW210965   2.030   1.579   1.340
 3477SOL     OW10966   2.203   1.115   0.486
 3477SOL    HW110967   2.200   1.186   0.422
 3477SOL    HW210968   2.212   1.036   0.433
 3478SOL     OW10969   2.415   0.528   0.856
 3478SOL    HW110970   2.428   0.588   0.783
 3478SOL    HW210971   2.480   0.556   0.921
 3479SOL     OW10972   3.110   1.347   0.399
 3479SOL    HW110973   3.165   1.420   0.426
 3479SOL    HW210974   3.023   1.370   0.432
 3480SOL     OW10975   3.149   1.461   1.148
 3480SOL    HW110976   3.205   1.465   1.226
 3480SOL    HW210977   3.095   1.383   1.163
 3481SOL     OW10978   3.435   0.634   0.493
 3481SOL    HW110979   3.392   0.693   0.555
 3481SOL    HW210980   3.469   0.691   0.425
 3482SOL     OW10981   2.214   1.514   1.315
 3482SOL    HW110982   2.200   1.469   1.231
 3482SOL    HW210983   2.309   1.525   1.321
 3483SOL     OW10984   2.282   0.745   1.603
 3483SOL    HW110985   2.343   0.789   1.544
 3483SOL    HW210986   2.323   0.660   1.621
 3484SOL     OW10987   3.468   0.780   1.685
 3484SOL    HW110988   3.383   0.822   1.680
 3484SOL    HW210989   3.521   0.822   1.618
 3485SOL     OW10990   2.870   0.138   1.781
 3485SOL    HW110991   2.926   0.208   1.746
 3485SOL    HW210992   2.856   0.079   1.708
 3486SOL     OW10993   2.352   0.035   1.761
 3486SOL    HW110994   2.352   0.050   1.666
 3486SOL    HW210995   2.292   0.100   1.796
 3487SOL     OW10996   2.446   0.875   1.031
 3487SOL    HW110997   2.478   0.965   1.035
 3487SOL    HW210998   2.389   0.866   1.108
 3488SOL     OW10999   3.211   0.859   1.023
 3488SOL    HW111000   3.126   0.845   0.982
 3488SOL    HW211001   3.256   0.775   1.015
 3489SOL     OW11002   3.079   0.553   0.265
 3489SOL    HW111003   3.086   0.473   0.317
 3489SOL    HW211004   3.022   0.610   0.316
 3490SOL     OW11005   2.160   0.208   1.244
 3490SOL    HW111006   2.117   0.236   1.325
 3490SOL    HW211007   2.149   0.113   1.243
 3491SOL     OW11008   1.906   1.313   1.277
 3491SOL    HW111009   1.940   1.258   1.347
 3491SOL    HW211010   1.914   1.402   1.312
 3492SOL     OW11011   2.583   0.632   1.050
 3492SOL    HW111012   2.659   0.620   0.994
 3492SOL    HW211013   2.553   0.721   1.032
 3493SOL     OW11014   3.593   0.957   1.865
 3493SOL    HW111015   3.552   0.893   1.808
 3493SOL    HW211016   3.529   0.973   1.934
 3494SOL     OW11017   2.185   0.054   0.656
 3494SOL    HW111018   2.165   0.147   0.666
 3494SOL    HW211019   2.152   0.013   0.736
 3495SOL     OW11020   3.434   0.389   0.390
 3495SOL    HW111021   3.415   0.329   0.462
 3495SOL    HW211022   3.429   0.477   0.429
 3496SOL     OW11023   2.892   0.759   0.958
 3496SOL    HW111024   2.883   0.776   1.051
 3496SOL    HW211025   2.864   0.668   0.947
 3497SOL     OW11026   2.844   1.567   1.721
 3497SOL    HW111027   2.829   1.610   1.637
 3497SOL    HW211028   2.887   1.484   1.698
 3498SOL     OW11029   3.703   1.495   1.597
 3498SOL    HW111030   3.728   1.526   1.510
 3498SOL    HW211031   3.783   1.504   1.649
 3499SOL     OW11032   2.214   0.915   1.810
 3499SOL    HW111033   2.294   0.935   1.857
 3499SOL    HW211034   2.240   0.853   1.742
 3500SOL     OW11035   3.378   0.277   0.143
 3500SOL    HW111036   3.324   0.199   0.148
 3500SOL    HW211037   3.388   0.305   0.234
 3501SOL     OW11038   3.149   0.832   0.056
 3501SOL    HW111039   3.196   0.749   0.061
 3501SOL    HW211040   3.166   0.864  13.868
 3502SOL     OW11041   2.930   1.338   0.857
 3502SOL    HW111042   2.935   1.266   0.793
 3502SOL    HW211043   2.989   1.405   0.821
 3503SOL     OW11044   2.170   0.810   0.945
 3503SOL    HW111045   2.263   0.831   0.940
 3503SOL    HW211046   2.167   0.720   0.977
 3504SOL     OW11047   2.198   0.538   1.014
 3504SOL    HW111048   2.156   0.453   1.000
 3504SOL    HW211049   2.274   0.537   0.956
 3505SOL     OW11050   2.995   0.380   1.699
 3505SOL    HW111051   2.946   0.434   1.761
 3505SOL    HW211052   3.081   0.421   1.694
 3506SOL     OW11053   3.014   0.226   1.481
 3506SOL    HW111054   3.004   0.279   1.560
 3506SOL    HW211055   3.040   0.288   1.413
 3507SOL     OW11056   1.887   1.304   0.172
 3507SOL    HW111057   1.802   1.319   0.129
 3507SOL    HW211058   1.877   1.220   0.217
 3508SOL     OW11059   1.984   1.707   0.983
 3508SOL    HW111060   1.941   1.652   0.918
 3508SOL    HW211061   2.045   1.760   0.932
 3509SOL     OW11062   2.359   1.567   0.909
 3509SOL    HW111063   2.427   1.631   0.932
 3509SOL    HW211064   2.403   1.506   0.850
 3510SOL     OW11065   2.837   0.786   1.222
 3510SOL    HW111066   2.895   0.769   1.297
 3510SOL    HW211067   2.752   0.749   1.249
 3511SOL     OW11068   1.895   0.549   1.117
 3511SOL    HW111069   1.969   0.522   1.062
 3511SOL    HW211070   1.929   0.548   1.206
 3512SOL     OW11071   2.066   0.527   1.712
 3512SOL    HW111072   2.138   0.507   1.652
 3512SOL    HW211073   2.023   0.603   1.672
 3513SOL     OW11074   3.243   0.934   1.657
 3513SOL    HW111075   3.264   1.028   1.653
 3513SOL    HW211076   3.238   0.908   1.565
 3514SOL     OW11077   2.677   0.580   0.379
 3514SOL    HW111078   2.687   0.503   0.323
 3514SOL    HW211079   2.604   0.628   0.340
 3515SOL     OW11080   3.500   0.602   1.181
 3515SOL    HW111081   3.490   0.542   1.254
 3515SOL    HW211082   3.587   0.582   1.145
 3516SOL     OW11083   2.112   1.540   1.706
 3516SOL    HW111084   2.091   1.608   1.770
 3516SOL    HW211085   2.118   1.459   1.757
 3517SOL     OW11086   2.575   0.451   1.252
 3517SOL    HW111087   2.522   0.375   1.230
 3517SOL    HW211088   2.563   0.511   1.179
 3518SOL     OW11089   2.782   1.679   1.471
 3518SOL    HW111090   2.761   1.640   1.387
 3518SOL    HW211091   2.778   1.774   1.456
 3519SOL     OW11092   2.292   0.491   0.229
 3519SOL    HW111093   2.367   0.548   0.243
 3519SOL    HW211094   2.224   0.549   0.194
 3520SOL     OW11095   2.002   1.142   1.474
 3520SOL    HW111096   2.005   1.094   1.557
 3520SOL    HW211097   2.020   1.075   1.407
 3521SOL     OW11098   3.182   1.043   1.221
 3521SOL    HW111099   3.204   0.981   1.152
 3521SOL    HW211100   3.116   1.100   1.181
 3522SOL     OW11101   3.179   0.857   0.328
 3522SOL    HW111102   3.106   0.825   0.380
 3522SOL    HW211103   3.152   0.843   0.237
 3523SOL     OW11104   3.645   1.739   1.160
 3523SOL    HW111105   3.700   1.767   1.086
 3523SOL    HW211106   3.614   1.652   1.135
 3524SOL     OW11107   3.102   1.734   1.107
 3524SOL    HW111108   3.184   1.757   1.065
 3524SOL    HW211109   3.111   1.640   1.127
 3525SOL     OW11110   1.952   1.261   1.015
 3525SOL    HW111111   1.932   1.279   1.107
 3525SOL    HW211112   1.877   1.210   0.984
 3526SOL     OW11113   2.545   1.666   1.733
 3526SOL    HW111114   2.493   1.746   1.730
 3526SOL    HW211115   2.615   1.681   1.670
 3527SOL     OW11116   2.757   0.103   0.132
 3527SOL    HW111117   2.798   0.092   0.046
 3527SOL    HW211118   2.767   0.018   0.175
 3528SOL     OW11119   3.553   0.123   0.484
 3528SOL    HW111120   3.635   0.134   0.437
 3528SOL    HW211121   3.552   0.031   0.510
 3529SOL     OW11122   3.252   1.572   0.488
 3529SOL    HW111123   3.315   1.606   0.424
 3529SOL    HW211124   3.205   1.649   0.519
 3530SOL     OW11125   2.025   1.739   1.864
 3530SOL    HW111126   1.963   1.689   1.918
 3530SOL    HW211127   2.007   1.831   1.886
 3531SOL     OW11128   3.137   0.928   0.671
 3531SOL    HW111129   3.212   0.870   0.684
 3531SOL    HW211130   3.172   1.000   0.618
 3532SOL     OW11131   2.669   1.275   1.425
 3532SOL    HW111132   2.640   1.316   1.507
 3532SOL    HW211133   2.598   1.295   1.363
 3533SOL     OW11134   2.543   1.589   0.182
 3533SOL    HW111135   2.532   1.629   0.096
 3533SOL    HW211136   2.486   1.513   0.181
 3534SOL     OW11137   3.480   1.728   1.391
 3534SOL    HW111138   3.536   1.732   1.314
 3534SOL    HW211139   3.466   1.819   1.416
 3535SOL     OW11140   3.705   0.182   0.970
 3535SOL    HW111141   3.729   0.097   0.933
 3535SOL    HW211142   3.619   0.201   0.933
 3536SOL     OW11143   2.124   0.315   0.717
 3536SOL    HW111144   2.038   0.351   0.694
 3536SOL    HW211145   2.123   0.308   0.812
 3537SOL     OW11146   3.081   1.600   0.037
 3537SOL    HW111147   3.070   1.508   0.062
 3537SOL    HW211148   3.044   1.604  13.849
 3538SOL     OW11149   2.686   1.006   1.374
 3538SOL    HW111150   2.728   1.001   1.288
 3538SOL    HW211151   2.683   1.100   1.394
 3539SOL     OW11152   2.784   0.910   0.288
 3539SOL    HW111153   2.853   0.952   0.237
 3539SOL    HW211154   2.828   0.841   0.337
 3540SOL     OW11155   3.345   1.652   0.066
 3540SOL    HW111156   3.253   1.629   0.059
 3540SOL    HW211157   3.381   1.635  13.879
 3541SOL     OW11158   2.232   1.296   1.494
 3541SOL    HW111159   2.220   1.375   1.440
 3541SOL    HW211160   2.153   1.244   1.478
 3542SOL     OW11161   3.461   1.280   1.276
 3542SOL    HW111162   3.530   1.270   1.342
 3542SOL    HW211163   3.404   1.349   1.311
 3543SOL     OW11164   2.920   1.110   0.710
 3543SOL    HW111165   2.849   1.059   0.747
 3543SOL    HW211166   2.985   1.044   0.683
 3544SOL     OW11167   2.877   0.250   0.970
 3544SOL    HW111168   2.867   0.199   0.889
 3544SOL    HW211169   2.874   0.184   1.040
 3545SOL     OW11170   2.469   1.489   0.481
 3545SOL    HW111171   2.513   1.438   0.413
 3545SOL    HW211172   2.406   1.543   0.433
 3546SOL     OW11173   3.583   0.395   1.371
 3546SOL    HW111174   3.655   0.457   1.371
 3546SOL    HW211175   3.614   0.322   1.317
 3547SOL     OW11176   2.133   1.318   0.298
 3547SOL    HW111177   2.051   1.327   0.250
 3547SOL    HW211178   2.119   1.364   0.381
 3548SOL     OW11179   1.976   1.030   1.723
 3548SOL    HW111180   1.900   1.004   1.775
 3548SOL    HW211181   2.050   0.988   1.767
 3549SOL     OW11182   2.557   0.262   1.504
 3549SOL    HW111183   2.623   0.206   1.463
 3549SOL    HW211184   2.584   0.266   1.596
 3550SOL     OW11185   1.899   0.445   0.007
 3550SOL    HW111186   1.868   0.357   0.028
 3550SOL    HW211187   1.897   0.449  13.811
 3551SOL     OW11188   3.285   0.856   1.397
 3551SOL    HW111189   3.235   0.918   1.344
 3551SOL    HW211190   3.374   0.859   1.360
 3552SOL     OW11191   1.943   0.143   0.370
 3552SOL    HW111192   1.915   0.226   0.332
 3552SOL    HW211193   2.031   0.128   0.336
 3553SOL     OW11194   3.049   1.343   0.122
 3553SOL    HW111195   2.954   1.336   0.111
 3553SOL    HW211196   3.063   1.332   0.216
 3554SOL     OW11197   2.484   0.829   1.434
 3554SOL    HW111198   2.541   0.904   1.419
 3554SOL    HW211199   2.544   0.755   1.443
 3555SOL     OW11200   3.344   1.785   0.982
 3555SOL    HW111201   3.367   1.849   0.914
 3555SOL    HW211202   3.428   1.752   1.013
 3556SOL     OW11203   2.580   0.559   1.704
 3556SOL    HW111204   2.624   0.621   1.763
 3556SOL    HW211205   2.603   0.473   1.738
 3557SOL     OW11206   3.335   1.195   1.629
 3557SOL    HW111207   3.324   1.210   1.723
 3557SOL    HW211208   3.428   1.212   1.613
 3558SOL     OW11209   2.234   1.746   1.566
 3558SOL    HW111210   2.166   1.764   1.502
 3558SOL    HW211211   2.208   1.664   1.608
 3559SOL     OW11212   3.525   0.880   1.259
 3559SOL    HW111213   3.524   0.795   1.215
 3559SOL    HW211214   3.518   0.944   1.188
 3560SOL     OW11215   3.092   0.335   0.431
 3560SOL    HW111216   3.155   0.263   0.426
 3560SOL    HW211217   3.108   0.375   0.516
 3561SOL     OW11218   2.449   0.734   0.673
 3561SOL    HW111219   2.488   0.820   0.659
 3561SOL    HW211220   2.383   0.726   0.603
 3562SOL     OW11221   3.615   0.381   1.642
 3562SOL    HW111222   3.594   0.390   1.549
 3562SOL    HW211223   3.554   0.314   1.673
 3563SOL     OW11224   3.617   0.930   1.513
 3563SOL    HW111225   3.606   1.023   1.531
 3563SOL    HW211226   3.591   0.920   1.421
 3564SOL     OW11227   2.773   1.399   0.070
 3564SOL    HW111228   2.707   1.383   0.138
 3564SOL    HW211229   2.723   1.397  13.888
 3565SOL     OW11230   2.523   1.790   0.939
 3565SOL    HW111231   2.507   1.881   0.914
 3565SOL    HW211232   2.617   1.779   0.932
 3566SOL     OW11233   2.731   0.970   0.854
 3566SOL    HW111234   2.781   0.898   0.892
 3566SOL    HW211235   2.693   1.015   0.929
 3567SOL     OW11236   2.958   1.016   0.112
 3567SOL    HW111237   2.949   1.061   0.028
 3567SOL    HW211238   3.032   0.956   0.099
 3568SOL     OW11239   3.712   1.555   0.840
 3568SOL    HW111240   3.632   1.541   0.789
 3568SOL    HW211241   3.709   1.489   0.908
 3569SOL     OW11242   2.089   1.300   1.854
 3569SOL    HW111243   2.024   1.236   1.826
 3569SOL    HW211244   2.073   1.312   1.947
 3570SOL     OW11245   1.944   1.216   0.666
 3570SOL    HW111246   1.961   1.172   0.750
 3570SOL    HW211247   2.020   1.195   0.612
 3571SOL     OW11248   2.544   1.406   1.628
 3571SOL    HW111249   2.466   1.363   1.663
 3571SOL    HW211250   2.543   1.493   1.667
 3572SOL     OW11251   3.675   0.181   1.244
 3572SOL    HW111252   3.677   0.086   1.253
 3572SOL    HW211253   3.694   0.197   1.151
 3573SOL     OW11254   2.294   0.436   0.534
 3573SOL    HW111255   2.326   0.364   0.480
 3573SOL    HW211256   2.244   0.393   0.604
 3574SOL     OW11257   3.557   1.490   1.094
 3574SOL    HW111258   3.479   1.469   1.043
 3574SOL    HW211259   3.565   1.419   1.157
 3575SOL     OW11260   2.196   0.557   1.296
 3575SOL    HW111261   2.247   0.497   1.349
 3575SOL    HW211262   2.214   0.531   1.206
 3576SOL     OW11263   2.693   1.578   0.676
 3576SOL    HW111264   2.676   1.644   0.608
 3576SOL    HW211265   2.618   1.519   0.673
 3577SOL     OW11266   3.322   0.254   1.109
 3577SOL    HW111267   3.336   0.166   1.145
 3577SOL    HW211268   3.267   0.297   1.175
 3578SOL     OW11269   2.865   0.025   1.145
 3578SOL    HW111270   2.781   3.999   1.106
 3578SOL    HW211271   2.914   3.944   1.154
 3579SOL     OW11272   2.640   1.323   0.320
 3579SOL    HW111273   2.611   1.234   0.338
 3579SOL    HW211274   2.720   1.333   0.371
 3580SOL     OW11275   2.483   1.554   1.286
 3580SOL    HW111276   2.483   1.638   1.334
 3580SOL    HW211277   2.572   1.548   1.250
 3581SOL     OW11278   3.178   0.066   0.122
 3581SOL    HW111279   3.195   3.975   0.098
 3581SOL    HW211280   3.119   0.061   0.197
 3582SOL     OW11281   3.139   0.453   0.681
 3582SOL    HW111282   3.094   0.537   0.675
 3582SOL    HW211283   3.144   0.436   0.775
 3583SOL     OW11284   3.453   0.210   0.867
 3583SOL    HW111285   3.404   0.233   0.946
 3583SOL    HW211286   3.451   0.289   0.814
 3584SOL     OW11287   1.902   1.069   0.312
 3584SOL    HW111288   1.998   1.065   0.311
 3584SOL    HW211289   1.875   0.979   0.332
 3585SOL     OW11290   2.762   1.655   0.341
 3585SOL    HW111291   2.684   1.629   0.291
 3585SOL    HW211292   2.732   1.728   0.396
 3586SOL     OW11293   2.086   0.619   1.983
 3586SOL    HW111294   1.996   0.628   2.015
 3586SOL    HW211295   2.077   0.599   1.890
 3587SOL     OW11296   2.078   0.302   2.854
 3587SOL    HW111297   2.115   0.258   2.931
 3587SOL    HW211298   1.993   0.260   2.841
 3588SOL     OW11299   1.871   0.399   2.493
 3588SOL    HW111300   1.784   0.414   2.532
 3588SOL    HW211301   1.856   0.331   2.428
 3589SOL     OW11302   2.431   1.294   3.043
 3589SOL    HW111303   2.345   1.299   3.001
 3589SOL    HW211304   2.448   1.383   3.073
 3590SOL     OW11305   3.429   1.514   2.570
 3590SOL    HW111306   3.386   1.491   2.653
 3590SOL    HW211307   3.358   1.519   2.507
 3591SOL     OW11308   2.995   0.699   2.557
 3591SOL    HW111309   3.043   0.781   2.545
 3591SOL    HW211310   2.947   0.710   2.639
 3592SOL     OW11311   3.626   0.624   2.087
 3592SOL    HW111312   3.606   0.611   1.994
 3592SOL    HW211313   3.605   0.540   2.127
 3593SOL     OW11314   2.611   1.138   2.908
 3593SOL    HW111315   2.544   1.175   2.966
 3593SOL    HW211316   2.649   1.214   2.864
 3594SOL     OW11317   2.735   0.766   3.687
 3594SOL    HW111318   2.721   0.836   3.750
 3594SOL    HW211319   2.757   0.811   3.605
 3595SOL     OW11320   2.548   0.998   2.506
 3595SOL    HW111321   2.614   0.990   2.575
 3595SOL    HW211322   2.479   1.052   2.545
 3596SOL     OW11323   2.576   1.149   3.679
 3596SOL    HW111324   2.623   1.227   3.710
 3596SOL    HW211325   2.495   1.184   3.641
 3597SOL     OW11326   2.195   1.413   2.930
 3597SOL    HW111327   2.118   1.379   2.885
 3597SOL    HW211328   2.239   1.467   2.865
 3598SOL     OW11329   3.320   1.502   3.222
 3598SOL    HW111330   3.375   1.580   3.231
 3598SOL    HW211331   3.254   1.511   3.290
 3599SOL     OW11332   2.309   0.391   3.352
 3599SOL    HW111333   2.400   0.363   3.353
 3599SOL    HW211334   2.259   0.310   3.362
 3600SOL     OW11335   3.472   0.450   2.597
 3600SOL    HW111336   3.405   0.483   2.538
 3600SOL    HW211337   3.491   0.523   2.656
 3601SOL     OW11338   2.102   1.696   2.326
 3601SOL    HW111339   2.133   1.763   2.387
 3601SOL    HW211340   2.173   1.685   2.263
 3602SOL     OW11341   2.999   1.343   3.557
 3602SOL    HW111342   3.041   1.336   3.643
 3602SOL    HW211343   2.947   1.263   3.549
 3603SOL     OW11344   2.089   1.433   2.398
 3603SOL    HW111345   2.082   1.528   2.393
 3603SOL    HW211346   2.029   1.408   2.468
 3604SOL     OW11347   2.126   1.091   2.752
 3604SOL    HW111348   2.122   1.003   2.790
 3604SOL    HW211349   2.069   1.144   2.808
 3605SOL     OW11350   2.468   1.793   3.288
 3605SOL    HW111351   2.388   1.774   3.338
 3605SOL    HW211352   2.494   1.881   3.317
 3606SOL     OW11353   2.442   0.985   2.001
 3606SOL    HW111354   2.490   1.030   1.932
 3606SOL    HW211355   2.481   1.016   2.082
 3607SOL     OW11356   3.445   0.143   3.318
 3607SOL    HW111357   3.473   0.215   3.261
 3607SOL    HW211358   3.404   0.186   3.393
 3608SOL     OW11359   1.981   0.658   2.423
 3608SOL    HW111360   1.953   0.569   2.446
 3608SOL    HW211361   1.972   0.708   2.504
 3609SOL     OW11362   3.703   1.757   2.197
 3609SOL    HW111363   3.774   1.733   2.257
 3609SOL    HW211364   3.720   1.849   2.176
 3610SOL     OW11365   1.862   1.602   2.032
 3610SOL    HW111366   1.849   1.510   2.012
 3610SOL    HW211367   1.895   1.603   2.122
 3611SOL     OW11368   3.551   0.919   2.511
 3611SOL    HW111369   3.634   0.875   2.494
 3611SOL    HW211370   3.533   0.968   2.431
 3612SOL     OW11371   3.505   1.103   2.294
 3612SOL    HW111372   3.589   1.108   2.250
 3612SOL    HW211373   3.511   1.166   2.365
 3613SOL     OW11374   1.985   0.751   3.441
 3613SOL    HW111375   2.075   0.784   3.444
 3613SOL    HW211376   1.930   0.829   3.446
 3614SOL     OW11377   2.478   1.389   2.596
 3614SOL    HW111378   2.433   1.305   2.605
 3614SOL    HW211379   2.460   1.417   2.506
 3615SOL     OW11380   3.148   1.237   3.283
 3615SOL    HW111381   3.179   1.169   3.223
 3615SOL    HW211382   3.207   1.232   3.358
 3616SOL     OW11383   2.683   0.006   2.380
 3616SOL    HW111384   2.729   0.086   2.353
 3616SOL    HW211385   2.591   0.030   2.379
 3617SOL     OW11386   2.050   0.961   3.140
 3617SOL    HW111387   2.136   0.922   3.125
 3617SOL    HW211388   1.992   0.913   3.082
 3618SOL     OW11389   3.389   0.998   2.063
 3618SOL    HW111390   3.320   0.941   2.097
 3618SOL    HW211391   3.432   1.033   2.142
 3619SOL     OW11392   3.045   1.811   3.486
 3619SOL    HW111393   3.053   1.871   3.412
 3619SOL    HW211394   3.064   1.725   3.450
 3620SOL     OW11395   2.222   0.250   3.713
 3620SOL    HW111396   2.267   0.335   3.715
 3620SOL    HW211397   2.129   0.273   3.712
 3621SOL     OW11398   3.329   1.420   2.809
 3621SOL    HW111399   3.262   1.436   2.877
 3621SOL    HW211400   3.317   1.328   2.785
 3622SOL     OW11401   3.513   1.750   2.441
 3622SOL    HW111402   3.498   1.716   2.353
 3622SOL    HW211403   3.495   1.676   2.498
 3623SOL     OW11404   2.456   0.718   2.132
 3623SOL    HW111405   2.460   0.802   2.086
 3623SOL    HW211406   2.392   0.732   2.201
 3624SOL     OW11407   3.136   0.371   2.803
 3624SOL    HW111408   3.049   0.333   2.811
 3624SOL    HW211409   3.194   0.310   2.848
 3625SOL     OW11410   3.439   1.672   2.173
 3625SOL    HW111411   3.530   1.700   2.166
 3625SOL    HW211412   3.412   1.656   2.082
 3626SOL     OW11413   2.657   0.615   3.312
 3626SOL    HW111414   2.630   0.589   3.400
 3626SOL    HW211415   2.621   0.548   3.255
 3627SOL     OW11416   3.254   0.475   3.539
 3627SOL    HW111417   3.260   0.521   3.623
 3627SOL    HW211418   3.310   0.398   3.550
 3628SOL     OW11419   2.812   0.887   3.448
 3628SOL    HW111420   2.868   0.819   3.410
 3628SOL    HW211421   2.764   0.923   3.373
 3629SOL     OW11422   2.856   0.402   3.098
 3629SOL    HW111423   2.770   0.420   3.135
 3629SOL    HW211424   2.838   0.376   3.007
 3630SOL     OW11425   2.915   0.700   2.286
 3630SOL    HW111426   2.933   0.694   2.380
 3630SOL    HW211427   2.832   0.654   2.274
 3631SOL     OW11428   1.949   0.824   2.639
 3631SOL    HW111429   2.029   0.815   2.691
 3631SOL    HW211430   1.905   0.900   2.675
 3632SOL     OW11431   2.758   0.353   2.062
 3632SOL    HW111432   2.800   0.412   2.000
 3632SOL    HW211433   2.747   0.271   2.014
 3633SOL     OW11434   3.567   0.572   3.692
 3633SOL    HW111435   3.531   0.647   3.644
 3633SOL    HW211436   3.594   0.510   3.624
 3634SOL     OW11437   3.240   1.141   2.401
 3634SOL    HW111438   3.320   1.130   2.350
 3634SOL    HW211439   3.188   1.204   2.351
 3635SOL     OW11440   2.421   0.199   2.742
 3635SOL    HW111441   2.423   0.219   2.836
 3635SOL    HW211442   2.417   0.285   2.700
 3636SOL     OW11443   2.862   1.442   2.331
 3636SOL    HW111444   2.831   1.517   2.280
 3636SOL    HW211445   2.840   1.464   2.422
 3637SOL     OW11446   2.220   1.803   2.724
 3637SOL    HW111447   2.255   1.715   2.736
 3637SOL    HW211448   2.288   1.861   2.758
 3638SOL     OW11449   3.668   1.062   2.731
 3638SOL    HW111450   3.616   1.035   2.656
 3638SOL    HW211451   3.606   1.065   2.804
 3639SOL     OW11452   3.088   1.540   3.376
 3639SOL    HW111453   3.076   1.468   3.438
 3639SOL    HW211454   3.023   1.523   3.307
 3640SOL     OW11455   2.178   0.961   2.115
 3640SOL    HW111456   2.261   0.980   2.071
 3640SOL    HW211457   2.150   0.878   2.078
 3641SOL     OW11458   3.343   0.750   2.589
 3641SOL    HW111459   3.338   0.709   2.676
 3641SOL    HW211460   3.420   0.806   2.593
 3642SOL     OW11461   2.332   1.265   3.601
 3642SOL    HW111462   2.306   1.268   3.509
 3642SOL    HW211463   2.250   1.262   3.649
 3643SOL     OW11464   2.986   1.778   2.090
 3643SOL    HW111465   2.911   1.738   2.134
 3643SOL    HW211466   3.011   1.715   2.022
 3644SOL     OW11467   2.029   0.274   3.362
 3644SOL    HW111468   1.977   0.353   3.348
 3644SOL    HW211469   2.032   0.264   3.457
 3645SOL     OW11470   3.486   1.385   1.949
 3645SOL    HW111471   3.443   1.469   1.935
 3645SOL    HW211472   3.419   1.319   1.929
 3646SOL     OW11473   2.343   1.707   2.198
 3646SOL    HW111474   2.383   1.784   2.241
 3646SOL    HW211475   2.398   1.692   2.121
 3647SOL     OW11476   3.298   0.174   2.264
 3647SOL    HW111477   3.248   0.099   2.232
 3647SOL    HW211478   3.373   0.136   2.310
 3648SOL     OW11479   2.154   1.766   3.079
 3648SOL    HW111480   2.194   1.684   3.107
 3648SOL    HW211481   2.108   1.744   2.998
 3649SOL     OW11482   2.799   1.699   2.760
 3649SOL    HW111483   2.879   1.650   2.781
 3649SOL    HW211484   2.759   1.648   2.689
 3650SOL     OW11485   2.258   0.695   2.334
 3650SOL    HW111486   2.275   0.602   2.348
 3650SOL    HW211487   2.165   0.705   2.353
 3651SOL     OW11488   3.391   0.228   3.589
 3651SOL    HW111489   3.382   0.252   3.681
 3651SOL    HW211490   3.378   0.133   3.587
 3652SOL     OW11491   2.506   0.127   1.972
 3652SOL    HW111492   2.526   0.042   2.010
 3652SOL    HW211493   2.444   0.108   1.902
 3653SOL     OW11494   2.635   0.283   3.634
 3653SOL    HW111495   2.712   0.226   3.636
 3653SOL    HW211496   2.580   0.252   3.706
 3654SOL     OW11497   2.738   1.523   3.056
 3654SOL    HW111498   2.721   1.486   2.970
 3654SOL    HW211499   2.808   1.468   3.093
 3655SOL     OW11500   3.201   0.587   3.293
 3655SOL    HW111501   3.231   0.559   3.379
 3655SOL    HW211502   3.235   0.676   3.283
 3656SOL     OW11503   2.680   1.391   2.807
 3656SOL    HW111504   2.765   1.379   2.764
 3656SOL    HW211505   2.617   1.396   2.734
 3657SOL     OW11506   2.792   0.512   2.761
 3657SOL    HW111507   2.767   0.503   2.669
 3657SOL    HW211508   2.818   0.423   2.787
 3658SOL     OW11509   2.406   0.056   2.352
 3658SOL    HW111510   2.332   0.061   2.413
 3658SOL    HW211511   2.402   0.137   2.301
 3659SOL     OW11512   3.289   1.200   1.901
 3659SOL    HW111513   3.319   1.125   1.953
 3659SOL    HW211514   3.204   1.223   1.939
 3660SOL     OW11515   2.193   0.046   2.075
 3660SOL    HW111516   2.199   0.110   2.004
 3660SOL    HW211517   2.273   0.058   2.126
 3661SOL     OW11518   2.806   0.251   2.320
 3661SOL    HW111519   2.781   0.290   2.236
 3661SOL    HW211520   2.902   0.257   2.322
 3662SOL     OW11521   2.942   0.686   3.319
 3662SOL    HW111522   2.872   0.620   3.326
 3662SOL    HW211523   3.023   0.635   3.315
 3663SOL     OW11524   3.081   1.573   2.657
 3663SOL    HW111525   3.096   1.638   2.588
 3663SOL    HW211526   3.151   1.588   2.720
 3664SOL     OW11527   2.334   1.152   2.590
 3664SOL    HW111528   2.267   1.132   2.655
 3664SOL    HW211529   2.291   1.138   2.506
 3665SOL     OW11530   3.127   1.792   2.473
 3665SOL    HW111531   3.176   1.853   2.418
 3665SOL    HW211532   3.059   1.845   2.514
 3666SOL     OW11533   2.883   0.540   1.892
 3666SOL    HW111534   2.839   0.623   1.873
 3666SOL    HW211535   2.947   0.562   1.961
 3667SOL     OW11536   1.946   0.549   3.259
 3667SOL    HW111537   2.037   0.552   3.229
 3667SOL    HW211538   1.938   0.622   3.320
 3668SOL     OW11539   2.424   0.231   3.022
 3668SOL    HW111540   2.447   0.138   3.032
 3668SOL    HW211541   2.335   0.237   3.056
 3669SOL     OW11542   2.732   0.460   2.499
 3669SOL    HW111543   2.685   0.515   2.436
 3669SOL    HW211544   2.753   0.381   2.450
 3670SOL     OW11545   2.859   0.038   2.643
 3670SOL    HW111546   2.820   0.069   2.562
 3670SOL    HW211547   2.871   3.944   2.630
 3671SOL     OW11548   3.303   1.160   2.720
 3671SOL    HW111549   3.230   1.098   2.718
 3671SOL    HW211550   3.328   1.170   2.628
 3672SOL     OW11551   3.325   0.610   2.833
 3672SOL    HW111552   3.270   0.532   2.838
 3672SOL    HW211553   3.384   0.602   2.908
 3673SOL     OW11554   3.722   0.825   2.237
 3673SOL    HW111555   3.762   0.768   2.302
 3673SOL    HW211556   3.684   0.765   2.172
 3674SOL     OW11557   2.354   1.421   2.012
 3674SOL    HW111558   2.279   1.396   2.066
 3674SOL    HW211559   2.345   1.371   1.932
 3675SOL     OW11560   3.531   1.266   2.504
 3675SOL    HW111561   3.626   1.268   2.514
 3675SOL    HW211562   3.502   1.355   2.525
 3676SOL     OW11563   3.257   0.577   1.930
 3676SOL    HW111564   3.193   0.558   1.999
 3676SOL    HW211565   3.342   0.562   1.971
 3677SOL     OW11566   2.388   0.266   2.177
 3677SOL    HW111567   2.445   0.228   2.111
 3677SOL    HW211568   2.358   0.349   2.139
 3678SOL     OW11569   3.612   1.233   3.424
 3678SOL    HW111570   3.700   1.198   3.407
 3678SOL    HW211571   3.627   1.322   3.453
 3679SOL     OW11572   2.917   1.354   3.195
 3679SOL    HW111573   2.842   1.322   3.244
 3679SOL    HW211574   2.993   1.312   3.236
 3680SOL     OW11575   3.468   1.629   3.519
 3680SOL    HW111576   3.459   1.664   3.431
 3680SOL    HW211577   3.547   1.576   3.517
 3681SOL     OW11578   2.996   1.210   2.965
 3681SOL    HW111579   2.935   1.247   3.029
 3681SOL    HW211580   2.966   1.244   2.881
 3682SOL     OW11581   3.488   1.094   2.936
 3682SOL    HW111582   3.478   1.157   3.008
 3682SOL    HW211583   3.413   1.111   2.879
 3683SOL     OW11584   2.773   0.119   3.263
 3683SOL    HW111585   2.793   0.089   3.174
 3683SOL    HW211586   2.854   0.160   3.293
 3684SOL     OW11587   2.846   1.116   3.586
 3684SOL    HW111588   2.755   1.132   3.610
 3684SOL    HW211589   2.843   1.037   3.531
 3685SOL     OW11590   2.572   1.063   2.233
 3685SOL    HW111591   2.557   1.043   2.325
 3685SOL    HW211592   2.647   1.009   2.208
 3686SOL     OW11593   2.284   0.817   3.114
 3686SOL    HW111594   2.352   0.826   3.180
 3686SOL    HW211595   2.249   0.729   3.127
 3687SOL     OW11596   3.128   0.375   3.139
 3687SOL    HW111597   3.161   0.453   3.183
 3687SOL    HW211598   3.040   0.399   3.110
 3688SOL     OW11599   1.936   1.577   3.216
 3688SOL    HW111600   1.902   1.641   3.153
 3688SOL    HW211601   2.031   1.577   3.202
 3689SOL     OW11602   2.203   1.115   2.352
 3689SOL    HW111603   2.208   1.190   2.293
 3689SOL    HW211604   2.200   1.039   2.294
 3690SOL     OW11605   2.415   0.529   2.717
 3690SOL    HW111606   2.428   0.589   2.644
 3690SOL    HW211607   2.480   0.556   2.782
 3691SOL     OW11608   3.109   1.349   2.252
 3691SOL    HW111609   3.165   1.421   2.284
 3691SOL    HW211610   3.022   1.370   2.286
 3692SOL     OW11611   3.150   1.461   3.010
 3692SOL    HW111612   3.205   1.465   3.088
 3692SOL    HW211613   3.095   1.383   3.024
 3693SOL     OW11614   3.431   0.634   2.349
 3693SOL    HW111615   3.389   0.686   2.417
 3693SOL    HW211616   3.478   0.697   2.295
 3694SOL     OW11617   2.213   1.515   3.176
 3694SOL    HW111618   2.200   1.471   3.093
 3694SOL    HW211619   2.308   1.526   3.183
 3695SOL     OW11620   2.282   0.745   3.465
 3695SOL    HW111621   2.343   0.789   3.406
 3695SOL    HW211622   2.323   0.660   3.483
 3696SOL     OW11623   3.468   0.779   3.547
 3696SOL    HW111624   3.383   0.822   3.542
 3696SOL    HW211625   3.521   0.822   3.480
 3697SOL     OW11626   2.870   0.138   3.643
 3697SOL    HW111627   2.926   0.208   3.608
 3697SOL    HW211628   2.856   0.079   3.570
 3698SOL     OW11629   2.352   0.035   3.623
 3698SOL    HW111630   2.352   0.050   3.528
 3698SOL    HW211631   2.292   0.101   3.658
 3699SOL     OW11632   2.446   0.874   2.894
 3699SOL    HW111633   2.478   0.965   2.896
 3699SOL    HW211634   2.389   0.867   2.970
 3700SOL     OW11635   3.211   0.859   2.885
 3700SOL    HW111636   3.125   0.844   2.845
 3700SOL    HW211637   3.256   0.775   2.876
 3701SOL     OW11638   3.060   0.538   2.117
 3701SOL    HW111639   3.068   0.459   2.170
 3701SOL    HW211640   3.018   0.602   2.175
 3702SOL     OW11641   2.159   0.208   3.105
 3702SOL    HW111642   2.117   0.237   3.186
 3702SOL    HW211643   2.149   0.113   3.105
 3703SOL     OW11644   1.906   1.313   3.139
 3703SOL    HW111645   1.940   1.257   3.209
 3703SOL    HW211646   1.914   1.402   3.173
 3704SOL     OW11647   2.582   0.631   2.912
 3704SOL    HW111648   2.659   0.620   2.856
 3704SOL    HW211649   2.552   0.720   2.894
 3705SOL     OW11650   3.594   0.957   3.728
 3705SOL    HW111651   3.552   0.893   3.670
 3705SOL    HW211652   3.529   0.973   3.796
 3706SOL     OW11653   2.186   0.054   2.517
 3706SOL    HW111654   2.165   0.147   2.528
 3706SOL    HW211655   2.156   0.014   2.599
 3707SOL     OW11656   3.476   0.395   2.240
 3707SOL    HW111657   3.434   0.327   2.291
 3707SOL    HW211658   3.454   0.476   2.286
 3708SOL     OW11659   2.892   0.759   2.820
 3708SOL    HW111660   2.883   0.776   2.913
 3708SOL    HW211661   2.865   0.668   2.809
 3709SOL     OW11662   2.844   1.567   3.583
 3709SOL    HW111663   2.829   1.610   3.499
 3709SOL    HW211664   2.887   1.484   3.560
 3710SOL     OW11665   3.703   1.495   3.459
 3710SOL    HW111666   3.728   1.526   3.372
 3710SOL    HW211667   3.783   1.504   3.511
 3711SOL     OW11668   2.214   0.915   3.672
 3711SOL    HW111669   2.294   0.935   3.719
 3711SOL    HW211670   2.240   0.853   3.604
 3712SOL     OW11671   3.360   0.272   1.994
 3712SOL    HW111672   3.288   0.210   2.004
 3712SOL    HW211673   3.371   0.310   2.081
 3713SOL     OW11674   3.148   0.827   1.889
 3713SOL    HW111675   3.191   0.741   1.893
 3713SOL    HW211676   3.181   0.866   1.808
 3714SOL     OW11677   2.930   1.338   2.719
 3714SOL    HW111678   2.935   1.266   2.656
 3714SOL    HW211679   2.989   1.405   2.683
 3715SOL     OW11680   2.169   0.810   2.808
 3715SOL    HW111681   2.263   0.831   2.801
 3715SOL    HW211682   2.167   0.720   2.840
 3716SOL     OW11683   2.198   0.538   2.876
 3716SOL    HW111684   2.157   0.453   2.862
 3716SOL    HW211685   2.274   0.537   2.818
 3717SOL     OW11686   2.995   0.380   3.561
 3717SOL    HW111687   2.946   0.433   3.623
 3717SOL    HW211688   3.081   0.420   3.556
 3718SOL     OW11689   3.014   0.226   3.343
 3718SOL    HW111690   3.004   0.279   3.422
 3718SOL    HW211691   3.040   0.288   3.275
 3719SOL     OW11692   1.867   1.315   2.055
 3719SOL    HW111693   1.780   1.329   2.018
 3719SOL    HW211694   1.865   1.226   2.090
 3720SOL     OW11695   1.987   1.709   2.851
 3720SOL    HW111696   1.942   1.654   2.786
 3720SOL    HW211697   2.047   1.763   2.799
 3721SOL     OW11698   2.358   1.569   2.771
 3721SOL    HW111699   2.426   1.633   2.793
 3721SOL    HW211700   2.401   1.508   2.711
 3722SOL     OW11701   2.837   0.786   3.084
 3722SOL    HW111702   2.895   0.769   3.159
 3722SOL    HW211703   2.752   0.750   3.111
 3723SOL     OW11704   1.895   0.549   2.979
 3723SOL    HW111705   1.969   0.523   2.924
 3723SOL    HW211706   1.929   0.547   3.068
 3724SOL     OW11707   2.066   0.527   3.574
 3724SOL    HW111708   2.138   0.507   3.514
 3724SOL    HW211709   2.023   0.603   3.534
 3725SOL     OW11710   3.243   0.934   3.519
 3725SOL    HW111711   3.264   1.028   3.515
 3725SOL    HW211712   3.238   0.908   3.427
 3726SOL     OW11713   2.679   0.572   2.228
 3726SOL    HW111714   2.686   0.497   2.169
 3726SOL    HW211715   2.604   0.622   2.196
 3727SOL     OW11716   3.500   0.602   3.043
 3727SOL    HW111717   3.489   0.542   3.116
 3727SOL    HW211718   3.587   0.582   3.007
 3728SOL     OW11719   2.112   1.539   3.567
 3728SOL    HW111720   2.092   1.608   3.631
 3728SOL    HW211721   2.118   1.459   3.619
 3729SOL     OW11722   2.575   0.451   3.114
 3729SOL    HW111723   2.522   0.374   3.092
 3729SOL    HW211724   2.563   0.511   3.041
 3730SOL     OW11725   2.783   1.679   3.333
 3730SOL    HW111726   2.761   1.640   3.249
 3730SOL    HW211727   2.778   1.774   3.318
 3731SOL     OW11728   2.323   0.493   2.042
 3731SOL    HW111729   2.381   0.565   2.067
 3731SOL    HW211730   2.238   0.535   2.031
 3732SOL     OW11731   2.002   1.142   3.336
 3732SOL    HW111732   2.005   1.094   3.419
 3732SOL    HW211733   2.020   1.075   3.269
 3733SOL     OW11734   3.182   1.043   3.083
 3733SOL    HW111735   3.204   0.981   3.014
 3733SOL    HW211736   3.116   1.100   3.043
 3734SOL     OW11737   3.177   0.854   2.166
 3734SOL    HW111738   3.102   0.827   2.218
 3734SOL    HW211739   3.148   0.843   2.075
 3735SOL     OW11740   3.645   1.739   3.021
 3735SOL    HW111741   3.700   1.767   2.948
 3735SOL    HW211742   3.614   1.652   2.997
 3736SOL     OW11743   3.102   1.733   2.969
 3736SOL    HW111744   3.184   1.757   2.927
 3736SOL    HW211745   3.111   1.640   2.989
 3737SOL     OW11746   1.951   1.262   2.876
 3737SOL    HW111747   1.932   1.280   2.968
 3737SOL    HW211748   1.876   1.210   2.845
 3738SOL     OW11749   2.545   1.666   3.595
 3738SOL    HW111750   2.492   1.746   3.592
 3738SOL    HW211751   2.615   1.681   3.532
 3739SOL     OW11752   3.549   0.118   2.350
 3739SOL    HW111753   3.630   0.135   2.302
 3739SOL    HW211754   3.553   0.025   2.373
 3740SOL     OW11755   3.253   1.567   2.352
 3740SOL    HW111756   3.312   1.601   2.284
 3740SOL    HW211757   3.203   1.644   2.380
 3741SOL     OW11758   2.026   1.740   3.724
 3741SOL    HW111759   1.965   1.691   3.779
 3741SOL    HW211760   2.006   1.832   3.741
 3742SOL     OW11761   3.139   0.928   2.533
 3742SOL    HW111762   3.214   0.869   2.544
 3742SOL    HW211763   3.173   1.000   2.480
 3743SOL     OW11764   2.668   1.275   3.287
 3743SOL    HW111765   2.640   1.316   3.369
 3743SOL    HW211766   2.598   1.295   3.225
 3744SOL     OW11767   2.536   1.624   2.012
 3744SOL    HW111768   2.547   1.635   1.917
 3744SOL    HW211769   2.479   1.546   2.019
 3745SOL     OW11770   3.480   1.728   3.253
 3745SOL    HW111771   3.536   1.732   3.176
 3745SOL    HW211772   3.466   1.819   3.278
 3746SOL     OW11773   3.705   0.182   2.833
 3746SOL    HW111774   3.728   0.097   2.796
 3746SOL    HW211775   3.619   0.201   2.796
 3747SOL     OW11776   2.125   0.315   2.577
 3747SOL    HW111777   2.038   0.350   2.554
 3747SOL    HW211778   2.123   0.309   2.672
 3748SOL     OW11779   3.070   1.602   1.895
 3748SOL    HW111780   3.059   1.511   1.921
 3748SOL    HW211781   3.004   1.615   1.827
 3749SOL     OW11782   2.686   1.006   3.236
 3749SOL    HW111783   2.727   1.002   3.150
 3749SOL    HW211784   2.682   1.100   3.256
 3750SOL     OW11785   2.778   0.911   2.152
 3750SOL    HW111786   2.838   0.944   2.086
 3750SOL    HW211787   2.827   0.843   2.198
 3751SOL     OW11788   3.349   1.631   1.906
 3751SOL    HW111789   3.256   1.620   1.891
 3751SOL    HW211790   3.388   1.636   1.819
 3752SOL     OW11791   2.232   1.297   3.355
 3752SOL    HW111792   2.219   1.375   3.301
 3752SOL    HW211793   2.153   1.245   3.340
 3753SOL     OW11794   3.461   1.280   3.138
 3753SOL    HW111795   3.529   1.270   3.204
 3753SOL    HW211796   3.404   1.349   3.173
 3754SOL     OW11797   2.921   1.110   2.572
 3754SOL    HW111798   2.849   1.060   2.609
 3754SOL    HW211799   2.985   1.044   2.544
 3755SOL     OW11800   2.877   0.250   2.833
 3755SOL    HW111801   2.867   0.199   2.752
 3755SOL    HW211802   2.875   0.184   2.903
 3756SOL     OW11803   2.467   1.489   2.343
 3756SOL    HW111804   2.511   1.439   2.274
 3756SOL    HW211805   2.406   1.547   2.297
 3757SOL     OW11806   3.583   0.395   3.233
 3757SOL    HW111807   3.655   0.458   3.234
 3757SOL    HW211808   3.614   0.323   3.179
 3758SOL     OW11809   2.122   1.344   2.149
 3758SOL    HW111810   2.029   1.338   2.127
 3758SOL    HW211811   2.124   1.379   2.238
 3759SOL     OW11812   1.976   1.030   3.586
 3759SOL    HW111813   1.900   1.004   3.637
 3759SOL    HW211814   2.050   0.988   3.629
 3760SOL     OW11815   2.557   0.262   3.366
 3760SOL    HW111816   2.623   0.205   3.325
 3760SOL    HW211817   2.584   0.266   3.458
 3761SOL     OW11818   1.964   0.317   1.854
 3761SOL    HW111819   1.897   0.336   1.920
 3761SOL    HW211820   1.970   0.397   1.802
 3762SOL     OW11821   3.285   0.856   3.259
 3762SOL    HW111822   3.235   0.918   3.206
 3762SOL    HW211823   3.374   0.859   3.222
 3763SOL     OW11824   1.942   0.151   2.201
 3763SOL    HW111825   1.911   0.208   2.132
 3763SOL    HW211826   2.029   0.123   2.172
 3764SOL     OW11827   3.040   1.336   1.980
 3764SOL    HW111828   2.949   1.305   1.982
 3764SOL    HW211829   3.067   1.337   2.072
 3765SOL     OW11830   2.484   0.828   3.296
 3765SOL    HW111831   2.541   0.904   3.281
 3765SOL    HW211832   2.545   0.755   3.305
 3766SOL     OW11833   3.344   1.784   2.843
 3766SOL    HW111834   3.367   1.849   2.777
 3766SOL    HW211835   3.428   1.753   2.876
 3767SOL     OW11836   2.580   0.559   3.565
 3767SOL    HW111837   2.624   0.621   3.624
 3767SOL    HW211838   2.603   0.473   3.600
 3768SOL     OW11839   3.335   1.195   3.491
 3768SOL    HW111840   3.324   1.210   3.585
 3768SOL    HW211841   3.428   1.212   3.475
 3769SOL     OW11842   2.234   1.746   3.428
 3769SOL    HW111843   2.166   1.762   3.363
 3769SOL    HW211844   2.208   1.664   3.470
 3770SOL     OW11845   3.525   0.880   3.121
 3770SOL    HW111846   3.524   0.795   3.077
 3770SOL    HW211847   3.518   0.944   3.050
 3771SOL     OW11848   3.081   0.339   2.303
 3771SOL    HW111849   3.151   0.274   2.294
 3771SOL    HW211850   3.100   0.383   2.386
 3772SOL     OW11851   2.450   0.734   2.534
 3772SOL    HW111852   2.489   0.821   2.520
 3772SOL    HW211853   2.384   0.726   2.465
 3773SOL     OW11854   3.615   0.381   3.504
 3773SOL    HW111855   3.594   0.390   3.411
 3773SOL    HW211856   3.554   0.314   3.535
 3774SOL     OW11857   3.617   0.930   3.375
 3774SOL    HW111858   3.606   1.023   3.393
 3774SOL    HW211859   3.591   0.920   3.283
 3775SOL     OW11860   2.724   1.365   1.903
 3775SOL    HW111861   2.688   1.391   1.987
 3775SOL    HW211862   2.741   1.448   1.857
 3776SOL     OW11863   2.523   1.790   2.801
 3776SOL    HW111864   2.509   1.881   2.776
 3776SOL    HW211865   2.618   1.778   2.794
 3777SOL     OW11866   2.731   0.970   2.716
 3777SOL    HW111867   2.781   0.898   2.754
 3777SOL    HW211868   2.693   1.015   2.791
 3778SOL     OW11869   2.940   0.990   1.952
 3778SOL    HW111870   2.918   1.041   1.874
 3778SOL    HW211871   3.013   0.935   1.924
 3779SOL     OW11872   3.711   1.556   2.703
 3779SOL    HW111873   3.632   1.540   2.652
 3779SOL    HW211874   3.712   1.488   2.770
 3780SOL     OW11875   2.090   1.300   3.716
 3780SOL    HW111876   2.024   1.236   3.688
 3780SOL    HW211877   2.073   1.311   3.809
 3781SOL     OW11878   1.945   1.221   2.528
 3781SOL    HW111879   1.961   1.177   2.611
 3781SOL    HW211880   2.017   1.192   2.471
 3782SOL     OW11881   2.545   1.406   3.490
 3782SOL    HW111882   2.466   1.363   3.525
 3782SOL    HW211883   2.543   1.494   3.529
 3783SOL     OW11884   3.675   0.181   3.106
 3783SOL    HW111885   3.677   0.086   3.115
 3783SOL    HW211886   3.694   0.197   3.014
 3784SOL     OW11887   2.290   0.435   2.387
 3784SOL    HW111888   2.325   0.364   2.334
 3784SOL    HW211889   2.242   0.391   2.458
 3785SOL     OW11890   3.556   1.490   2.958
 3785SOL    HW111891   3.479   1.469   2.906
 3785SOL    HW211892   3.565   1.418   3.020
 3786SOL     OW11893   2.196   0.557   3.157
 3786SOL    HW111894   2.247   0.497   3.211
 3786SOL    HW211895   2.214   0.531   3.067
 3787SOL     OW11896   2.693   1.578   2.538
 3787SOL    HW111897   2.675   1.642   2.469
 3787SOL    HW211898   2.618   1.519   2.536
 3788SOL     OW11899   3.322   0.254   2.972
 3788SOL    HW111900   3.337   0.166   3.007
 3788SOL    HW211901   3.267   0.297   3.037
 3789SOL     OW11902   2.864   0.025   3.008
 3789SOL    HW111903   2.781   3.999   2.968
 3789SOL    HW211904   2.914   3.944   3.017
 3790SOL     OW11905   2.637   1.334   2.180
 3790SOL    HW111906   2.608   1.243   2.189
 3790SOL    HW211907   2.717   1.338   2.232
 3791SOL     OW11908   2.483   1.555   3.149
 3791SOL    HW111909   2.483   1.638   3.196
 3791SOL    HW211910   2.572   1.548   3.112
 3792SOL     OW11911   3.169   0.070   2.020
 3792SOL    HW111912   3.173   3.982   1.981
 3792SOL    HW211913   3.087   0.071   2.069
 3793SOL     OW11914   3.141   0.456   2.546
 3793SOL    HW111915   3.095   0.540   2.540
 3793SOL    HW211916   3.144   0.437   2.640
 3794SOL     OW11917   3.453   0.210   2.729
 3794SOL    HW111918   3.405   0.234   2.808
 3794SOL    HW211919   3.451   0.289   2.675
 3795SOL     OW11920   1.907   1.068   2.169
 3795SOL    HW111921   2.000   1.059   2.151
 3795SOL    HW211922   1.878   0.980   2.194
 3796SOL     OW11923   2.752   1.657   2.199
 3796SOL    HW111924   2.677   1.643   2.142
 3796SOL    HW211925   2.727   1.730   2.255
 3797SOL     OW11926   2.086   0.619   3.845
 3797SOL    HW111927   1.996   0.628   3.877
 3797SOL    HW211928   2.077   0.599   3.752
 3798SOL     OW11929   2.078   0.302   4.716
 3798SOL    HW111930   2.115   0.258   4.793
 3798SOL    HW211931   1.993   0.260   4.703
 3799SOL     OW11932   1.871   0.399   4.355
 3799SOL    HW111933   1.784   0.414   4.394
 3799SOL    HW211934   1.856   0.331   4.290
 3800SOL     OW11935   2.431   1.294   4.904
 3800SOL    HW111936   2.345   1.299   4.863
 3800SOL    HW211937   2.448   1.383   4.936
 3801SOL     OW11938   3.429   1.514   4.432
 3801SOL    HW111939   3.386   1.491   4.515
 3801SOL    HW211940   3.358   1.519   4.369
 3802SOL     OW11941   2.995   0.698   4.419
 3802SOL    HW111942   3.043   0.781   4.407
 3802SOL    HW211943   2.947   0.710   4.501
 3803SOL     OW11944   3.626   0.624   3.949
 3803SOL    HW111945   3.606   0.611   3.856
 3803SOL    HW211946   3.604   0.540   3.989
 3804SOL     OW11947   2.611   1.138   4.770
 3804SOL    HW111948   2.544   1.175   4.827
 3804SOL    HW211949   2.649   1.214   4.726
 3805SOL     OW11950   2.735   0.766   5.549
 3805SOL    HW111951   2.721   0.835   5.613
 3805SOL    HW211952   2.756   0.812   5.468
 3806SOL     OW11953   2.548   0.998   4.368
 3806SOL    HW111954   2.614   0.990   4.437
 3806SOL    HW211955   2.479   1.052   4.407
 3807SOL     OW11956   2.574   1.147   5.538
 3807SOL    HW111957   2.622   1.225   5.568
 3807SOL    HW211958   2.492   1.182   5.502
 3808SOL     OW11959   2.195   1.413   4.792
 3808SOL    HW111960   2.118   1.379   4.747
 3808SOL    HW211961   2.239   1.468   4.727
 3809SOL     OW11962   3.320   1.502   5.084
 3809SOL    HW111963   3.375   1.580   5.093
 3809SOL    HW211964   3.253   1.511   5.152
 3810SOL     OW11965   2.309   0.391   5.214
 3810SOL    HW111966   2.400   0.364   5.215
 3810SOL    HW211967   2.259   0.309   5.224
 3811SOL     OW11968   3.472   0.450   4.459
 3811SOL    HW111969   3.405   0.483   4.400
 3811SOL    HW211970   3.490   0.522   4.519
 3812SOL     OW11971   2.098   1.695   4.181
 3812SOL    HW111972   2.128   1.761   4.243
 3812SOL    HW211973   2.170   1.684   4.120
 3813SOL     OW11974   2.999   1.343   5.419
 3813SOL    HW111975   3.038   1.338   5.506
 3813SOL    HW211976   2.946   1.263   5.412
 3814SOL     OW11977   2.090   1.433   4.260
 3814SOL    HW111978   2.080   1.528   4.253
 3814SOL    HW211979   2.029   1.408   4.330
 3815SOL     OW11980   2.126   1.091   4.614
 3815SOL    HW111981   2.122   1.003   4.652
 3815SOL    HW211982   2.069   1.144   4.670
 3816SOL     OW11983   2.468   1.793   5.150
 3816SOL    HW111984   2.389   1.774   5.200
 3816SOL    HW211985   2.494   1.881   5.178
 3817SOL     OW11986   2.442   0.985   3.863
 3817SOL    HW111987   2.490   1.030   3.794
 3817SOL    HW211988   2.481   1.016   3.944
 3818SOL     OW11989   3.445   0.143   5.180
 3818SOL    HW111990   3.473   0.215   5.123
 3818SOL    HW211991   3.404   0.186   5.255
 3819SOL     OW11992   1.980   0.658   4.285
 3819SOL    HW111993   1.953   0.569   4.308
 3819SOL    HW211994   1.972   0.708   4.366
 3820SOL     OW11995   3.703   1.757   4.059
 3820SOL    HW111996   3.774   1.733   4.119
 3820SOL    HW211997   3.720   1.849   4.038
 3821SOL     OW11998   1.864   1.604   3.894
 3821SOL    HW111999   1.851   1.511   3.874
 3821SOL    HW212000   1.898   1.605   3.983
 3822SOL     OW12001   3.551   0.919   4.373
 3822SOL    HW112002   3.634   0.875   4.356
 3822SOL    HW212003   3.533   0.968   4.293
 3823SOL     OW12004   3.505   1.103   4.156
 3823SOL    HW112005   3.589   1.108   4.112
 3823SOL    HW212006   3.511   1.166   4.227
 3824SOL     OW12007   1.985   0.751   5.303
 3824SOL    HW112008   2.075   0.783   5.306
 3824SOL    HW212009   1.931   0.829   5.308
 3825SOL     OW12010   2.478   1.389   4.458
 3825SOL    HW112011   2.432   1.305   4.467
 3825SOL    HW212012   2.460   1.417   4.368
 3826SOL     OW12013   3.148   1.237   5.145
 3826SOL    HW112014   3.180   1.169   5.085
 3826SOL    HW212015   3.207   1.232   5.220
 3827SOL     OW12016   2.683   0.006   4.242
 3827SOL    HW112017   2.729   0.086   4.215
 3827SOL    HW212018   2.591   0.030   4.241
 3828SOL     OW12019   2.050   0.961   5.002
 3828SOL    HW112020   2.136   0.922   4.987
 3828SOL    HW212021   1.992   0.913   4.943
 3829SOL     OW12022   3.389   0.998   3.925
 3829SOL    HW112023   3.320   0.941   3.959
 3829SOL    HW212024   3.432   1.033   4.004
 3830SOL     OW12025   3.047   1.813   5.348
 3830SOL    HW112026   3.054   1.871   5.273
 3830SOL    HW212027   3.064   1.725   5.313
 3831SOL     OW12028   2.222   0.250   5.575
 3831SOL    HW112029   2.267   0.335   5.577
 3831SOL    HW212030   2.129   0.273   5.574
 3832SOL     OW12031   3.329   1.420   4.671
 3832SOL    HW112032   3.262   1.436   4.739
 3832SOL    HW212033   3.317   1.328   4.647
 3833SOL     OW12034   3.513   1.750   4.303
 3833SOL    HW112035   3.498   1.716   4.215
 3833SOL    HW212036   3.495   1.676   4.360
 3834SOL     OW12037   2.456   0.718   3.994
 3834SOL    HW112038   2.460   0.802   3.948
 3834SOL    HW212039   2.392   0.732   4.063
 3835SOL     OW12040   3.136   0.371   4.665
 3835SOL    HW112041   3.049   0.333   4.673
 3835SOL    HW212042   3.194   0.310   4.710
 3836SOL     OW12043   3.439   1.672   4.035
 3836SOL    HW112044   3.530   1.700   4.028
 3836SOL    HW212045   3.412   1.656   3.944
 3837SOL     OW12046   2.658   0.615   5.174
 3837SOL    HW112047   2.630   0.589   5.262
 3837SOL    HW212048   2.621   0.548   5.117
 3838SOL     OW12049   3.254   0.475   5.401
 3838SOL    HW112050   3.260   0.521   5.485
 3838SOL    HW212051   3.310   0.398   5.412
 3839SOL     OW12052   2.812   0.886   5.310
 3839SOL    HW112053   2.867   0.819   5.272
 3839SOL    HW212054   2.764   0.923   5.235
 3840SOL     OW12055   2.856   0.401   4.960
 3840SOL    HW112056   2.770   0.421   4.998
 3840SOL    HW212057   2.838   0.376   4.870
 3841SOL     OW12058   2.915   0.700   4.148
 3841SOL    HW112059   2.933   0.694   4.242
 3841SOL    HW212060   2.832   0.654   4.136
 3842SOL     OW12061   1.949   0.824   4.501
 3842SOL    HW112062   2.029   0.815   4.553
 3842SOL    HW212063   1.905   0.900   4.537
 3843SOL     OW12064   2.758   0.353   3.924
 3843SOL    HW112065   2.800   0.412   3.862
 3843SOL    HW212066   2.747   0.271   3.876
 3844SOL     OW12067   3.567   0.572   5.554
 3844SOL    HW112068   3.531   0.647   5.506
 3844SOL    HW212069   3.594   0.510   5.486
 3845SOL     OW12070   3.240   1.141   4.263
 3845SOL    HW112071   3.320   1.130   4.212
 3845SOL    HW212072   3.188   1.204   4.213
 3846SOL     OW12073   2.421   0.199   4.604
 3846SOL    HW112074   2.423   0.218   4.698
 3846SOL    HW212075   2.417   0.285   4.562
 3847SOL     OW12076   2.862   1.442   4.193
 3847SOL    HW112077   2.831   1.517   4.143
 3847SOL    HW212078   2.840   1.463   4.284
 3848SOL     OW12079   2.220   1.806   4.586
 3848SOL    HW112080   2.255   1.718   4.598
 3848SOL    HW212081   2.289   1.864   4.619
 3849SOL     OW12082   3.668   1.062   4.593
 3849SOL    HW112083   3.616   1.035   4.518
 3849SOL    HW212084   3.606   1.065   4.666
 3850SOL     OW12085   3.089   1.540   5.238
 3850SOL    HW112086   3.076   1.469   5.301
 3850SOL    HW212087   3.022   1.524   5.170
 3851SOL     OW12088   2.178   0.961   3.977
 3851SOL    HW112089   2.261   0.980   3.933
 3851SOL    HW212090   2.150   0.878   3.940
 3852SOL     OW12091   3.343   0.749   4.451
 3852SOL    HW112092   3.338   0.709   4.538
 3852SOL    HW212093   3.420   0.806   4.455
 3853SOL     OW12094   2.332   1.263   5.462
 3853SOL    HW112095   2.305   1.268   5.370
 3853SOL    HW212096   2.250   1.261   5.510
 3854SOL     OW12097   2.986   1.778   3.952
 3854SOL    HW112098   2.911   1.738   3.996
 3854SOL    HW212099   3.011   1.715   3.884
 3855SOL     OW12100   2.028   0.273   5.224
 3855SOL    HW112101   1.978   0.353   5.210
 3855SOL    HW212102   2.033   0.265   5.319
 3856SOL     OW12103   3.486   1.385   3.811
 3856SOL    HW112104   3.443   1.469   3.797
 3856SOL    HW212105   3.419   1.319   3.791
 3857SOL     OW12106   2.343   1.707   4.060
 3857SOL    HW112107   2.382   1.783   4.103
 3857SOL    HW212108   2.398   1.691   3.983
 3858SOL     OW12109   3.298   0.174   4.125
 3858SOL    HW112110   3.248   0.099   4.095
 3858SOL    HW212111   3.373   0.136   4.172
 3859SOL     OW12112   2.157   1.767   4.940
 3859SOL    HW112113   2.196   1.685   4.970
 3859SOL    HW212114   2.109   1.744   4.861
 3860SOL     OW12115   2.799   1.699   4.622
 3860SOL    HW112116   2.878   1.650   4.644
 3860SOL    HW212117   2.759   1.648   4.551
 3861SOL     OW12118   2.258   0.695   4.196
 3861SOL    HW112119   2.275   0.602   4.210
 3861SOL    HW212120   2.165   0.705   4.215
 3862SOL     OW12121   3.392   0.228   5.451
 3862SOL    HW112122   3.382   0.253   5.543
 3862SOL    HW212123   3.378   0.133   5.449
 3863SOL     OW12124   2.506   0.127   3.834
 3863SOL    HW112125   2.526   0.042   3.872
 3863SOL    HW212126   2.444   0.108   3.764
 3864SOL     OW12127   2.635   0.283   5.496
 3864SOL    HW112128   2.712   0.226   5.498
 3864SOL    HW212129   2.580   0.252   5.568
 3865SOL     OW12130   2.738   1.523   4.918
 3865SOL    HW112131   2.721   1.485   4.832
 3865SOL    HW212132   2.807   1.468   4.955
 3866SOL     OW12133   3.201   0.587   5.155
 3866SOL    HW112134   3.232   0.559   5.241
 3866SOL    HW212135   3.235   0.676   5.145
 3867SOL     OW12136   2.680   1.391   4.669
 3867SOL    HW112137   2.765   1.379   4.626
 3867SOL    HW212138   2.617   1.396   4.596
 3868SOL     OW12139   2.792   0.512   4.623
 3868SOL    HW112140   2.767   0.503   4.531
 3868SOL    HW212141   2.818   0.423   4.649
 3869SOL     OW12142   2.406   0.056   4.214
 3869SOL    HW112143   2.332   0.061   4.275
 3869SOL    HW212144   2.402   0.137   4.163
 3870SOL     OW12145   3.289   1.200   3.763
 3870SOL    HW112146   3.319   1.125   3.815
 3870SOL    HW212147   3.204   1.223   3.801
 3871SOL     OW12148   2.193   0.046   3.937
 3871SOL    HW112149   2.199   0.110   3.866
 3871SOL    HW212150   2.273   0.058   3.988
 3872SOL     OW12151   2.806   0.251   4.182
 3872SOL    HW112152   2.781   0.290   4.098
 3872SOL    HW212153   2.902   0.258   4.184
 3873SOL     OW12154   2.942   0.686   5.181
 3873SOL    HW112155   2.872   0.620   5.188
 3873SOL    HW212156   3.022   0.634   5.177
 3874SOL     OW12157   3.081   1.572   4.519
 3874SOL    HW112158   3.096   1.638   4.450
 3874SOL    HW212159   3.151   1.587   4.582
 3875SOL     OW12160   2.334   1.152   4.452
 3875SOL    HW112161   2.267   1.132   4.517
 3875SOL    HW212162   2.291   1.138   4.368
 3876SOL     OW12163   3.127   1.792   4.335
 3876SOL    HW112164   3.176   1.853   4.280
 3876SOL    HW212165   3.059   1.845   4.376
 3877SOL     OW12166   2.883   0.540   3.754
 3877SOL    HW112167   2.839   0.623   3.735
 3877SOL    HW212168   2.947   0.562   3.823
 3878SOL     OW12169   1.946   0.549   5.121
 3878SOL    HW112170   2.037   0.552   5.091
 3878SOL    HW212171   1.938   0.622   5.183
 3879SOL     OW12172   2.424   0.231   4.884
 3879SOL    HW112173   2.447   0.138   4.894
 3879SOL    HW212174   2.335   0.237   4.918
 3880SOL     OW12175   2.732   0.460   4.361
 3880SOL    HW112176   2.685   0.515   4.298
 3880SOL    HW212177   2.753   0.381   4.312
 3881SOL     OW12178   2.859   0.038   4.505
 3881SOL    HW112179   2.820   0.069   4.424
 3881SOL    HW212180   2.871   3.944   4.492
 3882SOL     OW12181   3.303   1.160   4.582
 3882SOL    HW112182   3.230   1.098   4.580
 3882SOL    HW212183   3.328   1.170   4.490
 3883SOL     OW12184   3.325   0.610   4.695
 3883SOL    HW112185   3.270   0.532   4.700
 3883SOL    HW212186   3.384   0.602   4.770
 3884SOL     OW12187   3.722   0.825   4.099
 3884SOL    HW112188   3.762   0.767   4.164
 3884SOL    HW212189   3.684   0.765   4.034
 3885SOL     OW12190   2.354   1.421   3.874
 3885SOL    HW112191   2.279   1.396   3.928
 3885SOL    HW212192   2.345   1.371   3.794
 3886SOL     OW12193   3.531   1.266   4.366
 3886SOL    HW112194   3.626   1.268   4.376
 3886SOL    HW212195   3.502   1.355   4.387
 3887SOL     OW12196   3.257   0.577   3.792
 3887SOL    HW112197   3.193   0.558   3.861
 3887SOL    HW212198   3.342   0.562   3.833
 3888SOL     OW12199   2.388   0.266   4.039
 3888SOL    HW112200   2.445   0.228   3.972
 3888SOL    HW212201   2.358   0.349   4.001
 3889SOL     OW12202   3.612   1.233   5.286
 3889SOL    HW112203   3.700   1.198   5.269
 3889SOL    HW212204   3.627   1.322   5.315
 3890SOL     OW12205   2.917   1.354   5.056
 3890SOL    HW112206   2.842   1.322   5.106
 3890SOL    HW212207   2.993   1.312   5.098
 3891SOL     OW12208   3.468   1.629   5.381
 3891SOL    HW112209   3.460   1.664   5.293
 3891SOL    HW212210   3.548   1.576   5.379
 3892SOL     OW12211   2.996   1.209   4.827
 3892SOL    HW112212   2.936   1.246   4.891
 3892SOL    HW212213   2.966   1.244   4.743
 3893SOL     OW12214   3.488   1.094   4.798
 3893SOL    HW112215   3.479   1.157   4.870
 3893SOL    HW212216   3.413   1.111   4.741
 3894SOL     OW12217   2.774   0.119   5.125
 3894SOL    HW112218   2.793   0.089   5.036
 3894SOL    HW212219   2.854   0.160   5.155
 3895SOL     OW12220   2.847   1.115   5.448
 3895SOL    HW112221   2.757   1.134   5.472
 3895SOL    HW212222   2.842   1.036   5.394
 3896SOL     OW12223   2.571   1.063   4.095
 3896SOL    HW112224   2.557   1.043   4.187
 3896SOL    HW212225   2.647   1.009   4.070
 3897SOL     OW12226   2.284   0.817   4.976
 3897SOL    HW112227   2.352   0.826   5.042
 3897SOL    HW212228   2.248   0.729   4.989
 3898SOL     OW12229   3.128   0.375   5.001
 3898SOL    HW112230   3.161   0.453   5.045
 3898SOL    HW212231   3.040   0.399   4.972
 3899SOL     OW12232   1.937   1.577   5.078
 3899SOL    HW112233   1.905   1.641   5.014
 3899SOL    HW212234   2.032   1.576   5.064
 3900SOL     OW12235   2.203   1.115   4.214
 3900SOL    HW112236   2.208   1.190   4.155
 3900SOL    HW212237   2.200   1.039   4.156
 3901SOL     OW12238   2.415   0.529   4.579
 3901SOL    HW112239   2.428   0.589   4.506
 3901SOL    HW212240   2.480   0.556   4.644
 3902SOL     OW12241   3.109   1.349   4.114
 3902SOL    HW112242   3.165   1.421   4.146
 3902SOL    HW212243   3.022   1.370   4.148
 3903SOL     OW12244   3.150   1.461   4.872
 3903SOL    HW112245   3.205   1.465   4.950
 3903SOL    HW212246   3.095   1.384   4.887
 3904SOL     OW12247   3.431   0.634   4.211
 3904SOL    HW112248   3.389   0.686   4.279
 3904SOL    HW212249   3.478   0.698   4.157
 3905SOL     OW12250   2.213   1.516   5.038
 3905SOL    HW112251   2.200   1.472   4.955
 3905SOL    HW212252   2.308   1.527   5.045
 3906SOL     OW12253   2.282   0.744   5.327
 3906SOL    HW112254   2.343   0.789   5.268
 3906SOL    HW212255   2.325   0.660   5.346
 3907SOL     OW12256   3.468   0.779   5.409
 3907SOL    HW112257   3.383   0.822   5.404
 3907SOL    HW212258   3.521   0.822   5.342
 3908SOL     OW12259   2.870   0.138   5.505
 3908SOL    HW112260   2.926   0.208   5.470
 3908SOL    HW212261   2.856   0.079   5.431
 3909SOL     OW12262   2.352   0.035   5.484
 3909SOL    HW112263   2.352   0.050   5.390
 3909SOL    HW212264   2.292   0.101   5.520
 3910SOL     OW12265   2.446   0.874   4.756
 3910SOL    HW112266   2.478   0.965   4.759
 3910SOL    HW212267   2.389   0.867   4.833
 3911SOL     OW12268   3.211   0.859   4.746
 3911SOL    HW112269   3.125   0.844   4.707
 3911SOL    HW212270   3.256   0.775   4.738
 3912SOL     OW12271   3.060   0.538   3.979
 3912SOL    HW112272   3.068   0.459   4.032
 3912SOL    HW212273   3.018   0.602   4.037
 3913SOL     OW12274   2.159   0.208   4.967
 3913SOL    HW112275   2.117   0.237   5.048
 3913SOL    HW212276   2.149   0.113   4.967
 3914SOL     OW12277   1.905   1.313   5.001
 3914SOL    HW112278   1.939   1.257   5.071
 3914SOL    HW212279   1.914   1.402   5.035
 3915SOL     OW12280   2.582   0.631   4.774
 3915SOL    HW112281   2.659   0.620   4.718
 3915SOL    HW212282   2.552   0.720   4.756
 3916SOL     OW12283   3.594   0.956   5.590
 3916SOL    HW112284   3.552   0.893   5.532
 3916SOL    HW212285   3.529   0.973   5.658
 3917SOL     OW12286   2.186   0.054   4.379
 3917SOL    HW112287   2.165   0.147   4.390
 3917SOL    HW212288   2.156   0.014   4.461
 3918SOL     OW12289   3.476   0.396   4.102
 3918SOL    HW112290   3.434   0.327   4.153
 3918SOL    HW212291   3.454   0.477   4.148
 3919SOL     OW12292   2.893   0.759   4.682
 3919SOL    HW112293   2.883   0.776   4.775
 3919SOL    HW212294   2.865   0.668   4.671
 3920SOL     OW12295   2.847   1.572   5.444
 3920SOL    HW112296   2.831   1.612   5.359
 3920SOL    HW212297   2.885   1.486   5.423
 3921SOL     OW12298   3.703   1.495   5.321
 3921SOL    HW112299   3.728   1.526   5.234
 3921SOL    HW212300   3.784   1.504   5.373
 3922SOL     OW12301   2.213   0.915   5.533
 3922SOL    HW112302   2.293   0.936   5.581
 3922SOL    HW212303   2.241   0.853   5.466
 3923SOL     OW12304   3.360   0.272   3.856
 3923SOL    HW112305   3.288   0.210   3.866
 3923SOL    HW212306   3.371   0.310   3.943
 3924SOL     OW12307   3.148   0.827   3.751
 3924SOL    HW112308   3.191   0.741   3.755
 3924SOL    HW212309   3.181   0.866   3.670
 3925SOL     OW12310   2.930   1.338   4.581
 3925SOL    HW112311   2.935   1.266   4.518
 3925SOL    HW212312   2.989   1.405   4.545
 3926SOL     OW12313   2.170   0.810   4.670
 3926SOL    HW112314   2.263   0.831   4.663
 3926SOL    HW212315   2.167   0.720   4.702
 3927SOL     OW12316   2.198   0.538   4.738
 3927SOL    HW112317   2.157   0.453   4.724
 3927SOL    HW212318   2.274   0.537   4.680
 3928SOL     OW12319   2.995   0.379   5.423
 3928SOL    HW112320   2.946   0.434   5.485
 3928SOL    HW212321   3.081   0.420   5.418
 3929SOL     OW12322   3.014   0.226   5.205
 3929SOL    HW112323   3.004   0.279   5.284
 3929SOL    HW212324   3.040   0.288   5.137
 3930SOL     OW12325   1.867   1.316   3.917
 3930SOL    HW112326   1.780   1.330   3.880
 3930SOL    HW212327   1.865   1.227   3.952
 3931SOL     OW12328   1.987   1.712   4.718
 3931SOL    HW112329   1.944   1.656   4.653
 3931SOL    HW212330   2.043   1.770   4.665
 3932SOL     OW12331   2.357   1.571   4.632
 3932SOL    HW112332   2.425   1.634   4.655
 3932SOL    HW212333   2.400   1.509   4.573
 3933SOL     OW12334   2.837   0.786   4.946
 3933SOL    HW112335   2.895   0.769   5.020
 3933SOL    HW212336   2.752   0.751   4.973
 3934SOL     OW12337   1.895   0.549   4.841
 3934SOL    HW112338   1.969   0.524   4.786
 3934SOL    HW212339   1.930   0.547   4.930
 3935SOL     OW12340   2.066   0.527   5.435
 3935SOL    HW112341   2.139   0.508   5.377
 3935SOL    HW212342   2.023   0.603   5.396
 3936SOL     OW12343   3.244   0.934   5.380
 3936SOL    HW112344   3.264   1.028   5.377
 3936SOL    HW212345   3.238   0.908   5.289
 3937SOL     OW12346   2.679   0.572   4.090
 3937SOL    HW112347   2.686   0.498   4.031
 3937SOL    HW212348   2.604   0.622   4.058
 3938SOL     OW12349   3.500   0.602   4.904
 3938SOL    HW112350   3.489   0.542   4.978
 3938SOL    HW212351   3.587   0.582   4.869
 3939SOL     OW12352   2.113   1.536   5.427
 3939SOL    HW112353   2.093   1.605   5.491
 3939SOL    HW212354   2.120   1.457   5.480
 3940SOL     OW12355   2.575   0.451   4.976
 3940SOL    HW112356   2.521   0.374   4.953
 3940SOL    HW212357   2.563   0.511   4.903
 3941SOL     OW12358   2.784   1.680   5.194
 3941SOL    HW112359   2.761   1.640   5.110
 3941SOL    HW212360   2.778   1.774   5.178
 3942SOL     OW12361   2.323   0.493   3.904
 3942SOL    HW112362   2.381   0.565   3.929
 3942SOL    HW212363   2.238   0.535   3.893
 3943SOL     OW12364   2.001   1.142   5.197
 3943SOL    HW112365   2.005   1.094   5.280
 3943SOL    HW212366   2.020   1.075   5.131
 3944SOL     OW12367   3.182   1.043   4.944
 3944SOL    HW112368   3.204   0.981   4.875
 3944SOL    HW212369   3.116   1.100   4.905
 3945SOL     OW12370   3.177   0.854   4.028
 3945SOL    HW112371   3.102   0.827   4.080
 3945SOL    HW212372   3.148   0.843   3.937
 3946SOL     OW12373   3.645   1.739   4.883
 3946SOL    HW112374   3.700   1.767   4.810
 3946SOL    HW212375   3.614   1.652   4.859
 3947SOL     OW12376   3.102   1.734   4.831
 3947SOL    HW112377   3.184   1.757   4.789
 3947SOL    HW212378   3.111   1.640   4.851
 3948SOL     OW12379   1.950   1.262   4.738
 3948SOL    HW112380   1.931   1.280   4.830
 3948SOL    HW212381   1.876   1.210   4.707
 3949SOL     OW12382   2.545   1.666   5.455
 3949SOL    HW112383   2.493   1.746   5.454
 3949SOL    HW212384   2.615   1.681   5.392
 3950SOL     OW12385   3.549   0.118   4.212
 3950SOL    HW112386   3.630   0.135   4.164
 3950SOL    HW212387   3.553   0.025   4.235
 3951SOL     OW12388   3.253   1.567   4.214
 3951SOL    HW112389   3.312   1.601   4.146
 3951SOL    HW212390   3.203   1.644   4.242
 3952SOL     OW12391   2.030   1.737   5.582
 3952SOL    HW112392   1.969   1.692   5.640
 3952SOL    HW212393   2.008   1.830   5.592
 3953SOL     OW12394   3.139   0.928   4.395
 3953SOL    HW112395   3.214   0.869   4.406
 3953SOL    HW212396   3.173   1.000   4.342
 3954SOL     OW12397   2.669   1.275   5.148
 3954SOL    HW112398   2.640   1.315   5.230
 3954SOL    HW212399   2.598   1.294   5.087
 3955SOL     OW12400   2.536   1.624   3.873
 3955SOL    HW112401   2.547   1.635   3.779
 3955SOL    HW212402   2.480   1.546   3.881
 3956SOL     OW12403   3.480   1.728   5.116
 3956SOL    HW112404   3.536   1.732   5.038
 3956SOL    HW212405   3.466   1.819   5.140
 3957SOL     OW12406   3.705   0.182   4.695
 3957SOL    HW112407   3.728   0.097   4.658
 3957SOL    HW212408   3.619   0.201   4.658
 3958SOL     OW12409   2.125   0.315   4.439
 3958SOL    HW112410   2.038   0.350   4.416
 3958SOL    HW212411   2.124   0.309   4.534
 3959SOL     OW12412   3.070   1.602   3.756
 3959SOL    HW112413   3.059   1.511   3.783
 3959SOL    HW212414   3.004   1.615   3.689
 3960SOL     OW12415   2.686   1.006   5.098
 3960SOL    HW112416   2.728   1.002   5.011
 3960SOL    HW212417   2.682   1.100   5.118
 3961SOL     OW12418   2.778   0.911   4.014
 3961SOL    HW112419   2.838   0.944   3.948
 3961SOL    HW212420   2.827   0.843   4.060
 3962SOL     OW12421   3.349   1.631   3.768
 3962SOL    HW112422   3.256   1.620   3.753
 3962SOL    HW212423   3.388   1.636   3.681
 3963SOL     OW12424   2.231   1.297   5.216
 3963SOL    HW112425   2.219   1.376   5.163
 3963SOL    HW212426   2.152   1.245   5.201
 3964SOL     OW12427   3.461   1.280   5.000
 3964SOL    HW112428   3.529   1.270   5.067
 3964SOL    HW212429   3.404   1.349   5.034
 3965SOL     OW12430   2.921   1.110   4.434
 3965SOL    HW112431   2.849   1.060   4.471
 3965SOL    HW212432   2.985   1.044   4.406
 3966SOL     OW12433   2.877   0.250   4.694
 3966SOL    HW112434   2.868   0.199   4.614
 3966SOL    HW212435   2.875   0.184   4.765
 3967SOL     OW12436   2.467   1.490   4.205
 3967SOL    HW112437   2.510   1.440   4.136
 3967SOL    HW212438   2.406   1.547   4.159
 3968SOL     OW12439   3.583   0.395   5.095
 3968SOL    HW112440   3.655   0.458   5.095
 3968SOL    HW212441   3.614   0.323   5.041
 3969SOL     OW12442   2.122   1.344   4.011
 3969SOL    HW112443   2.029   1.338   3.989
 3969SOL    HW212444   2.124   1.379   4.100
 3970SOL     OW12445   1.976   1.031   5.448
 3970SOL    HW112446   1.900   1.004   5.499
 3970SOL    HW212447   2.050   0.988   5.491
 3971SOL     OW12448   2.557   0.262   5.228
 3971SOL    HW112449   2.623   0.205   5.187
 3971SOL    HW212450   2.584   0.266   5.320
 3972SOL     OW12451   1.964   0.317   3.716
 3972SOL    HW112452   1.897   0.336   3.782
 3972SOL    HW212453   1.970   0.397   3.664
 3973SOL     OW12454   3.285   0.856   5.120
 3973SOL    HW112455   3.235   0.918   5.067
 3973SOL    HW212456   3.374   0.859   5.084
 3974SOL     OW12457   1.942   0.151   4.063
 3974SOL    HW112458   1.911   0.208   3.994
 3974SOL    HW212459   2.029   0.123   4.034
 3975SOL     OW12460   3.040   1.336   3.842
 3975SOL    HW112461   2.949   1.305   3.844
 3975SOL    HW212462   3.067   1.337   3.934
 3976SOL     OW12463   2.484   0.828   5.158
 3976SOL    HW112464   2.541   0.904   5.144
 3976SOL    HW212465   2.545   0.755   5.167
 3977SOL     OW12466   3.344   1.785   4.705
 3977SOL    HW112467   3.367   1.849   4.639
 3977SOL    HW212468   3.428   1.753   4.738
 3978SOL     OW12469   2.580   0.560   5.427
 3978SOL    HW112470   2.623   0.622   5.486
 3978SOL    HW212471   2.603   0.474   5.463
 3979SOL     OW12472   3.335   1.195   5.353
 3979SOL    HW112473   3.323   1.211   5.447
 3979SOL    HW212474   3.428   1.212   5.337
 3980SOL     OW12475   2.235   1.745   5.291
 3980SOL    HW112476   2.168   1.759   5.224
 3980SOL    HW212477   2.210   1.663   5.333
 3981SOL     OW12478   3.525   0.880   4.983
 3981SOL    HW112479   3.524   0.795   4.939
 3981SOL    HW212480   3.518   0.944   4.912
 3982SOL     OW12481   3.081   0.339   4.165
 3982SOL    HW112482   3.151   0.274   4.156
 3982SOL    HW212483   3.100   0.383   4.248
 3983SOL     OW12484   2.450   0.734   4.396
 3983SOL    HW112485   2.489   0.821   4.382
 3983SOL    HW212486   2.384   0.727   4.327
 3984SOL     OW12487   3.615   0.380   5.366
 3984SOL    HW112488   3.594   0.390   5.273
 3984SOL    HW212489   3.554   0.314   5.397
 3985SOL     OW12490   3.617   0.930   5.237
 3985SOL    HW112491   3.606   1.023   5.255
 3985SOL    HW212492   3.591   0.920   5.145
 3986SOL     OW12493   2.724   1.365   3.765
 3986SOL    HW112494   2.688   1.391   3.849
 3986SOL    HW212495   2.741   1.448   3.719
 3987SOL     OW12496   2.524   1.790   4.664
 3987SOL    HW112497   2.510   1.881   4.638
 3987SOL    HW212498   2.619   1.778   4.656
 3988SOL     OW12499   2.731   0.970   4.578
 3988SOL    HW112500   2.781   0.898   4.616
 3988SOL    HW212501   2.693   1.015   4.653
 3989SOL     OW12502   2.940   0.990   3.814
 3989SOL    HW112503   2.918   1.041   3.736
 3989SOL    HW212504   3.013   0.935   3.786
 3990SOL     OW12505   3.711   1.556   4.565
 3990SOL    HW112506   3.632   1.540   4.514
 3990SOL    HW212507   3.711   1.488   4.632
 3991SOL     OW12508   2.090   1.299   5.579
 3991SOL    HW112509   2.026   1.234   5.551
 3991SOL    HW212510   2.071   1.313   5.671
 3992SOL     OW12511   1.945   1.222   4.390
 3992SOL    HW112512   1.962   1.178   4.473
 3992SOL    HW212513   2.017   1.193   4.333
 3993SOL     OW12514   2.542   1.407   5.349
 3993SOL    HW112515   2.466   1.362   5.387
 3993SOL    HW212516   2.542   1.493   5.390
 3994SOL     OW12517   3.675   0.181   4.968
 3994SOL    HW112518   3.677   0.086   4.977
 3994SOL    HW212519   3.694   0.197   4.876
 3995SOL     OW12520   2.290   0.435   4.249
 3995SOL    HW112521   2.325   0.364   4.196
 3995SOL    HW212522   2.242   0.391   4.320
 3996SOL     OW12523   3.557   1.490   4.819
 3996SOL    HW112524   3.479   1.469   4.768
 3996SOL    HW212525   3.564   1.419   4.882
 3997SOL     OW12526   2.195   0.557   5.019
 3997SOL    HW112527   2.247   0.497   5.073
 3997SOL    HW212528   2.214   0.531   4.929
 3998SOL     OW12529   2.693   1.578   4.400
 3998SOL    HW112530   2.675   1.641   4.331
 3998SOL    HW212531   2.618   1.519   4.399
 3999SOL     OW12532   3.322   0.254   4.834
 3999SOL    HW112533   3.337   0.166   4.869
 3999SOL    HW212534   3.267   0.298   4.899
 4000SOL     OW12535   2.864   0.025   4.870
 4000SOL    HW112536   2.781   3.999   4.830
 4000SOL    HW212537   2.914   3.944   4.879
 4001SOL     OW12538   2.637   1.334   4.042
 4001SOL    HW112539   2.608   1.243   4.051
 4001SOL    HW212540   2.717   1.339   4.094
 4002SOL     OW12541   2.483   1.555   5.010
 4002SOL    HW112542   2.483   1.638   5.058
 4002SOL    HW212543   2.571   1.548   4.974
 4003SOL     OW12544   3.169   0.069   3.882
 4003SOL    HW112545   3.173   3.982   3.843
 4003SOL    HW212546   3.087   0.071   3.931
 4004SOL     OW12547   3.141   0.456   4.408
 4004SOL    HW112548   3.095   0.540   4.402
 4004SOL    HW212549   3.144   0.437   4.502
 4005SOL     OW12550   3.453   0.210   4.591
 4005SOL    HW112551   3.405   0.234   4.670
 4005SOL    HW212552   3.451   0.289   4.537
 4006SOL     OW12553   1.906   1.068   4.031
 4006SOL    HW112554   2.000   1.060   4.013
 4006SOL    HW212555   1.878   0.980   4.056
 4007SOL     OW12556   2.753   1.657   4.061
 4007SOL    HW112557   2.677   1.643   4.004
 4007SOL    HW212558   2.727   1.730   4.117
 4008SOL     OW12559   2.086   0.618   5.707
 4008SOL    HW112560   1.996   0.628   5.738
 4008SOL    HW212561   2.077   0.599   5.614
 4009SOL     OW12562   2.078   0.299   6.577
 4009SOL    HW112563   2.114   0.255   6.654
 4009SOL    HW212564   1.992   0.258   6.565
 4010SOL     OW12565   1.870   0.398   6.217
 4010SOL    HW112566   1.785   0.414   6.257
 4010SOL    HW212567   1.854   0.329   6.152
 4011SOL     OW12568   3.428   1.514   6.296
 4011SOL    HW112569   3.384   1.491   6.378
 4011SOL    HW212570   3.358   1.517   6.231
 4012SOL     OW12571   2.995   0.698   6.281
 4012SOL    HW112572   3.042   0.780   6.268
 4012SOL    HW212573   2.947   0.710   6.363
 4013SOL     OW12574   3.627   0.624   5.811
 4013SOL    HW112575   3.607   0.611   5.718
 4013SOL    HW212576   3.604   0.540   5.852
 4014SOL     OW12577   2.618   1.145   6.621
 4014SOL    HW112578   2.580   1.192   6.695
 4014SOL    HW212579   2.682   1.206   6.584
 4015SOL     OW12580   2.738   0.766   7.411
 4015SOL    HW112581   2.718   0.836   7.472
 4015SOL    HW212582   2.758   0.810   7.329
 4016SOL     OW12583   2.553   0.995   6.226
 4016SOL    HW112584   2.618   0.988   6.296
 4016SOL    HW212585   2.477   1.033   6.269
 4017SOL     OW12586   2.580   1.145   7.393
 4017SOL    HW112587   2.628   1.222   7.425
 4017SOL    HW212588   2.502   1.181   7.351
 4018SOL     OW12589   3.318   1.501   6.947
 4018SOL    HW112590   3.371   1.579   6.958
 4018SOL    HW212591   3.247   1.511   7.011
 4019SOL     OW12592   2.308   0.391   7.078
 4019SOL    HW112593   2.400   0.362   7.078
 4019SOL    HW212594   2.258   0.310   7.086
 4020SOL     OW12595   3.472   0.450   6.321
 4020SOL    HW112596   3.405   0.483   6.262
 4020SOL    HW212597   3.491   0.523   6.380
 4021SOL     OW12598   2.103   1.729   6.001
 4021SOL    HW112599   2.129   1.792   6.068
 4021SOL    HW212600   2.185   1.700   5.962
 4022SOL     OW12601   2.992   1.354   7.292
 4022SOL    HW112602   3.043   1.332   7.369
 4022SOL    HW212603   2.942   1.275   7.273
 4023SOL     OW12604   2.094   1.045   6.500
 4023SOL    HW112605   2.110   0.953   6.525
 4023SOL    HW212606   2.002   1.059   6.520
 4024SOL     OW12607   2.435   1.801   6.989
 4024SOL    HW112608   2.361   1.804   7.050
 4024SOL    HW212609   2.511   1.822   7.043
 4025SOL     OW12610   2.440   0.985   5.724
 4025SOL    HW112611   2.490   1.030   5.655
 4025SOL    HW212612   2.479   1.017   5.806
 4026SOL     OW12613   3.446   0.143   7.042
 4026SOL    HW112614   3.473   0.214   6.984
 4026SOL    HW212615   3.404   0.186   7.116
 4027SOL     OW12616   1.980   0.653   6.138
 4027SOL    HW112617   1.953   0.564   6.162
 4027SOL    HW212618   1.974   0.702   6.220
 4028SOL     OW12619   3.704   1.758   5.921
 4028SOL    HW112620   3.774   1.733   5.981
 4028SOL    HW212621   3.721   1.850   5.900
 4029SOL     OW12622   1.864   1.606   5.752
 4029SOL    HW112623   1.851   1.513   5.733
 4029SOL    HW212624   1.903   1.607   5.840
 4030SOL     OW12625   3.551   0.919   6.235
 4030SOL    HW112626   3.634   0.875   6.216
 4030SOL    HW212627   3.532   0.969   6.155
 4031SOL     OW12628   3.505   1.102   6.019
 4031SOL    HW112629   3.590   1.108   5.974
 4031SOL    HW212630   3.511   1.167   6.089
 4032SOL     OW12631   1.991   0.747   7.163
 4032SOL    HW112632   2.083   0.773   7.163
 4032SOL    HW212633   1.943   0.828   7.182
 4033SOL     OW12634   3.158   1.227   7.018
 4033SOL    HW112635   3.188   1.164   6.952
 4033SOL    HW212636   3.223   1.223   7.088
 4034SOL     OW12637   2.683   0.006   6.105
 4034SOL    HW112638   2.729   0.086   6.077
 4034SOL    HW212639   2.591   0.030   6.103
 4035SOL     OW12640   2.045   0.944   6.848
 4035SOL    HW112641   2.132   0.907   6.832
 4035SOL    HW212642   1.987   0.897   6.787
 4036SOL     OW12643   3.390   0.997   5.788
 4036SOL    HW112644   3.321   0.940   5.821
 4036SOL    HW212645   3.432   1.033   5.866
 4037SOL     OW12646   3.053   1.784   7.224
 4037SOL    HW112647   3.049   1.858   7.164
 4037SOL    HW212648   3.073   1.709   7.168
 4038SOL     OW12649   2.222   0.249   7.439
 4038SOL    HW112650   2.267   0.334   7.437
 4038SOL    HW212651   2.129   0.272   7.437
 4039SOL     OW12652   3.333   1.417   6.538
 4039SOL    HW112653   3.263   1.433   6.602
 4039SOL    HW212654   3.319   1.327   6.510
 4040SOL     OW12655   3.512   1.750   6.165
 4040SOL    HW112656   3.498   1.717   6.077
 4040SOL    HW212657   3.494   1.676   6.222
 4041SOL     OW12658   2.457   0.718   5.855
 4041SOL    HW112659   2.462   0.803   5.811
 4041SOL    HW212660   2.393   0.732   5.925
 4042SOL     OW12661   3.136   0.371   6.528
 4042SOL    HW112662   3.049   0.333   6.535
 4042SOL    HW212663   3.194   0.310   6.572
 4043SOL     OW12664   3.440   1.675   5.895
 4043SOL    HW112665   3.531   1.702   5.888
 4043SOL    HW212666   3.412   1.658   5.805
 4044SOL     OW12667   2.657   0.615   7.037
 4044SOL    HW112668   2.629   0.588   7.124
 4044SOL    HW212669   2.621   0.548   6.979
 4045SOL     OW12670   3.254   0.476   7.264
 4045SOL    HW112671   3.261   0.522   7.347
 4045SOL    HW212672   3.310   0.399   7.274
 4046SOL     OW12673   2.813   0.886   7.171
 4046SOL    HW112674   2.868   0.817   7.133
 4046SOL    HW212675   2.763   0.920   7.097
 4047SOL     OW12676   2.855   0.402   6.822
 4047SOL    HW112677   2.769   0.419   6.858
 4047SOL    HW212678   2.839   0.377   6.731
 4048SOL     OW12679   2.915   0.700   6.010
 4048SOL    HW112680   2.932   0.694   6.104
 4048SOL    HW212681   2.831   0.655   5.998
 4049SOL     OW12682   1.953   0.803   6.359
 4049SOL    HW112683   2.034   0.796   6.408
 4049SOL    HW212684   1.903   0.872   6.404
 4050SOL     OW12685   2.758   0.353   5.786
 4050SOL    HW112686   2.800   0.413   5.724
 4050SOL    HW212687   2.748   0.271   5.737
 4051SOL     OW12688   3.566   0.573   7.416
 4051SOL    HW112689   3.531   0.647   7.368
 4051SOL    HW212690   3.593   0.511   7.348
 4052SOL     OW12691   3.242   1.139   6.127
 4052SOL    HW112692   3.322   1.127   6.076
 4052SOL    HW212693   3.191   1.203   6.078
 4053SOL     OW12694   2.422   0.199   6.466
 4053SOL    HW112695   2.424   0.219   6.560
 4053SOL    HW212696   2.417   0.285   6.423
 4054SOL     OW12697   2.877   1.435   6.019
 4054SOL    HW112698   2.848   1.511   5.969
 4054SOL    HW212699   2.839   1.448   6.106
 4055SOL     OW12700   2.243   1.817   6.460
 4055SOL    HW112701   2.309   1.757   6.494
 4055SOL    HW212702   2.272   1.903   6.491
 4056SOL     OW12703   3.668   1.063   6.454
 4056SOL    HW112704   3.615   1.035   6.379
 4056SOL    HW212705   3.606   1.066   6.527
 4057SOL     OW12706   3.082   1.539   7.096
 4057SOL    HW112707   3.061   1.466   7.154
 4057SOL    HW212708   3.003   1.552   7.044
 4058SOL     OW12709   2.177   0.962   5.837
 4058SOL    HW112710   2.261   0.982   5.795
 4058SOL    HW212711   2.151   0.878   5.800
 4059SOL     OW12712   3.344   0.749   6.313
 4059SOL    HW112713   3.339   0.709   6.400
 4059SOL    HW212714   3.420   0.806   6.317
 4060SOL     OW12715   2.989   1.779   5.814
 4060SOL    HW112716   2.909   1.745   5.855
 4060SOL    HW212717   3.011   1.715   5.748
 4061SOL     OW12718   2.029   0.275   7.085
 4061SOL    HW112719   1.979   0.354   7.068
 4061SOL    HW212720   2.028   0.267   7.181
 4062SOL     OW12721   3.486   1.385   5.672
 4062SOL    HW112722   3.442   1.469   5.659
 4062SOL    HW212723   3.419   1.319   5.653
 4063SOL     OW12724   2.365   1.706   5.934
 4063SOL    HW112725   2.381   1.794   5.969
 4063SOL    HW212726   2.421   1.700   5.857
 4064SOL     OW12727   3.299   0.175   5.988
 4064SOL    HW112728   3.249   0.100   5.956
 4064SOL    HW212729   3.373   0.136   6.034
 4065SOL     OW12730   2.173   1.786   6.789
 4065SOL    HW112731   2.188   1.712   6.848
 4065SOL    HW212732   2.115   1.751   6.722
 4066SOL     OW12733   2.258   0.695   6.058
 4066SOL    HW112734   2.276   0.602   6.072
 4066SOL    HW212735   2.165   0.705   6.074
 4067SOL     OW12736   3.391   0.228   7.313
 4067SOL    HW112737   3.381   0.252   7.405
 4067SOL    HW212738   3.378   0.133   7.311
 4068SOL     OW12739   2.506   0.127   5.696
 4068SOL    HW112740   2.525   0.042   5.734
 4068SOL    HW212741   2.444   0.108   5.626
 4069SOL     OW12742   2.636   0.283   7.359
 4069SOL    HW112743   2.712   0.226   7.360
 4069SOL    HW212744   2.580   0.251   7.430
 4070SOL     OW12745   2.743   1.405   6.743
 4070SOL    HW112746   2.783   1.472   6.687
 4070SOL    HW212747   2.806   1.392   6.814
 4071SOL     OW12748   3.200   0.587   7.017
 4071SOL    HW112749   3.231   0.559   7.103
 4071SOL    HW212750   3.235   0.676   7.006
 4072SOL     OW12751   2.793   0.511   6.484
 4072SOL    HW112752   2.768   0.504   6.392
 4072SOL    HW212753   2.818   0.422   6.510
 4073SOL     OW12754   2.406   0.056   6.076
 4073SOL    HW112755   2.332   0.061   6.137
 4073SOL    HW212756   2.402   0.137   6.025
 4074SOL     OW12757   3.289   1.200   5.626
 4074SOL    HW112758   3.318   1.125   5.678
 4074SOL    HW212759   3.204   1.223   5.663
 4075SOL     OW12760   2.193   0.046   5.799
 4075SOL    HW112761   2.199   0.110   5.728
 4075SOL    HW212762   2.273   0.059   5.850
 4076SOL     OW12763   2.806   0.251   6.044
 4076SOL    HW112764   2.781   0.290   5.960
 4076SOL    HW212765   2.902   0.258   6.045
 4077SOL     OW12766   2.941   0.684   7.044
 4077SOL    HW112767   2.873   0.618   7.049
 4077SOL    HW212768   3.023   0.635   7.038
 4078SOL     OW12769   3.091   1.558   6.375
 4078SOL    HW112770   3.104   1.624   6.307
 4078SOL    HW212771   3.144   1.589   6.448
 4079SOL     OW12772   2.319   1.081   6.335
 4079SOL    HW112773   2.241   1.072   6.389
 4079SOL    HW212774   2.286   1.098   6.247
 4080SOL     OW12775   3.139   1.787   6.190
 4080SOL    HW112776   3.189   1.848   6.136
 4080SOL    HW212777   3.060   1.835   6.215
 4081SOL     OW12778   2.883   0.540   5.616
 4081SOL    HW112779   2.839   0.623   5.597
 4081SOL    HW212780   2.946   0.562   5.684
 4082SOL     OW12781   1.946   0.547   6.982
 4082SOL    HW112782   2.037   0.551   6.952
 4082SOL    HW212783   1.937   0.621   7.042
 4083SOL     OW12784   2.424   0.230   6.747
 4083SOL    HW112785   2.447   0.138   6.755
 4083SOL    HW212786   2.335   0.237   6.780
 4084SOL     OW12787   2.731   0.460   6.223
 4084SOL    HW112788   2.685   0.516   6.161
 4084SOL    HW212789   2.753   0.381   6.174
 4085SOL     OW12790   2.859   0.038   6.368
 4085SOL    HW112791   2.820   0.069   6.286
 4085SOL    HW212792   2.871   3.943   6.354
 4086SOL     OW12793   3.304   1.160   6.443
 4086SOL    HW112794   3.226   1.104   6.443
 4086SOL    HW212795   3.327   1.169   6.351
 4087SOL     OW12796   3.325   0.609   6.557
 4087SOL    HW112797   3.270   0.531   6.562
 4087SOL    HW212798   3.384   0.601   6.632
 4088SOL     OW12799   3.723   0.825   5.961
 4088SOL    HW112800   3.763   0.767   6.026
 4088SOL    HW212801   3.685   0.765   5.896
 4089SOL     OW12802   2.351   1.425   5.734
 4089SOL    HW112803   2.279   1.400   5.792
 4089SOL    HW212804   2.340   1.368   5.658
 4090SOL     OW12805   3.531   1.267   6.227
 4090SOL    HW112806   3.626   1.270   6.238
 4090SOL    HW212807   3.501   1.355   6.249
 4091SOL     OW12808   3.257   0.577   5.654
 4091SOL    HW112809   3.193   0.558   5.723
 4091SOL    HW212810   3.342   0.564   5.696
 4092SOL     OW12811   2.387   0.266   5.901
 4092SOL    HW112812   2.444   0.228   5.834
 4092SOL    HW212813   2.358   0.349   5.863
 4093SOL     OW12814   3.614   1.233   7.151
 4093SOL    HW112815   3.701   1.198   7.132
 4093SOL    HW212816   3.630   1.323   7.178
 4094SOL     OW12817   2.930   1.326   6.921
 4094SOL    HW112818   2.861   1.307   6.985
 4094SOL    HW212819   3.011   1.299   6.964
 4095SOL     OW12820   3.469   1.629   7.245
 4095SOL    HW112821   3.459   1.664   7.156
 4095SOL    HW212822   3.548   1.576   7.241
 4096SOL     OW12823   2.993   1.194   6.687
 4096SOL    HW112824   2.942   1.237   6.756
 4096SOL    HW212825   2.967   1.239   6.607
 4097SOL     OW12826   3.488   1.094   6.660
 4097SOL    HW112827   3.477   1.157   6.732
 4097SOL    HW212828   3.414   1.111   6.602
 4098SOL     OW12829   2.773   0.119   6.987
 4098SOL    HW112830   2.793   0.089   6.899
 4098SOL    HW212831   2.854   0.160   7.017
 4099SOL     OW12832   2.847   1.115   7.307
 4099SOL    HW112833   2.755   1.124   7.330
 4099SOL    HW212834   2.851   1.038   7.250
 4100SOL     OW12835   2.570   1.063   5.954
 4100SOL    HW112836   2.556   1.046   6.048
 4100SOL    HW212837   2.646   1.010   5.932
 4101SOL     OW12838   2.286   0.814   6.836
 4101SOL    HW112839   2.353   0.825   6.904
 4101SOL    HW212840   2.250   0.727   6.850
 4102SOL     OW12841   3.128   0.374   6.863
 4102SOL    HW112842   3.161   0.453   6.907
 4102SOL    HW212843   3.040   0.399   6.833
 4103SOL     OW12844   1.924   1.555   6.906
 4103SOL    HW112845   1.879   1.622   6.854
 4103SOL    HW212846   2.016   1.583   6.906
 4104SOL     OW12847   2.227   1.107   6.076
 4104SOL    HW112848   2.221   1.186   6.022
 4104SOL    HW212849   2.215   1.035   6.014
 4105SOL     OW12850   2.416   0.529   6.442
 4105SOL    HW112851   2.428   0.590   6.368
 4105SOL    HW212852   2.482   0.557   6.506
 4106SOL     OW12853   3.125   1.343   5.972
 4106SOL    HW112854   3.178   1.416   6.006
 4106SOL    HW212855   3.035   1.365   5.998
 4107SOL     OW12856   3.148   1.461   6.735
 4107SOL    HW112857   3.205   1.468   6.812
 4107SOL    HW212858   3.090   1.388   6.755
 4108SOL     OW12859   3.432   0.634   6.073
 4108SOL    HW112860   3.389   0.685   6.141
 4108SOL    HW212861   3.476   0.698   6.018
 4109SOL     OW12862   2.203   1.545   6.911
 4109SOL    HW112863   2.192   1.476   6.845
 4109SOL    HW212864   2.297   1.564   6.910
 4110SOL     OW12865   2.281   0.746   7.191
 4110SOL    HW112866   2.342   0.790   7.131
 4110SOL    HW212867   2.322   0.661   7.208
 4111SOL     OW12868   3.468   0.780   7.272
 4111SOL    HW112869   3.382   0.823   7.265
 4111SOL    HW212870   3.521   0.822   7.204
 4112SOL     OW12871   2.871   0.138   7.367
 4112SOL    HW112872   2.926   0.207   7.331
 4112SOL    HW212873   2.856   0.078   7.293
 4113SOL     OW12874   2.352   0.034   7.347
 4113SOL    HW112875   2.352   0.050   7.253
 4113SOL    HW212876   2.292   0.100   7.383
 4114SOL     OW12877   2.452   0.867   6.617
 4114SOL    HW112878   2.465   0.961   6.602
 4114SOL    HW212879   2.391   0.864   6.691
 4115SOL     OW12880   3.212   0.857   6.611
 4115SOL    HW112881   3.128   0.847   6.568
 4115SOL    HW212882   3.255   0.772   6.600
 4116SOL     OW12883   3.060   0.538   5.841
 4116SOL    HW112884   3.068   0.459   5.895
 4116SOL    HW212885   3.018   0.602   5.898
 4117SOL     OW12886   2.160   0.208   6.829
 4117SOL    HW112887   2.117   0.236   6.910
 4117SOL    HW212888   2.149   0.113   6.829
 4118SOL     OW12889   1.860   1.296   6.885
 4118SOL    HW112890   1.913   1.246   6.947
 4118SOL    HW212891   1.884   1.387   6.900
 4119SOL     OW12892   2.586   0.629   6.638
 4119SOL    HW112893   2.661   0.619   6.579
 4119SOL    HW212894   2.554   0.717   6.621
 4120SOL     OW12895   3.593   0.957   7.452
 4120SOL    HW112896   3.553   0.893   7.394
 4120SOL    HW212897   3.528   0.972   7.521
 4121SOL     OW12898   2.186   0.054   6.241
 4121SOL    HW112899   2.165   0.147   6.252
 4121SOL    HW212900   2.156   0.013   6.322
 4122SOL     OW12901   3.476   0.395   5.964
 4122SOL    HW112902   3.433   0.327   6.015
 4122SOL    HW212903   3.455   0.477   6.010
 4123SOL     OW12904   2.894   0.758   6.545
 4123SOL    HW112905   2.885   0.775   6.639
 4123SOL    HW212906   2.866   0.667   6.535
 4124SOL     OW12907   3.703   1.495   7.183
 4124SOL    HW112908   3.727   1.526   7.096
 4124SOL    HW212909   3.783   1.504   7.235
 4125SOL     OW12910   2.220   0.923   7.396
 4125SOL    HW112911   2.302   0.932   7.445
 4125SOL    HW212912   2.240   0.859   7.327
 4126SOL     OW12913   3.360   0.271   5.718
 4126SOL    HW112914   3.288   0.210   5.728
 4126SOL    HW212915   3.371   0.310   5.805
 4127SOL     OW12916   3.148   0.826   5.613
 4127SOL    HW112917   3.191   0.741   5.616
 4127SOL    HW212918   3.181   0.866   5.532
 4128SOL     OW12919   2.925   1.335   6.460
 4128SOL    HW112920   2.924   1.266   6.393
 4128SOL    HW212921   2.977   1.405   6.421
 4129SOL     OW12922   2.173   0.789   6.532
 4129SOL    HW112923   2.265   0.811   6.519
 4129SOL    HW212924   2.174   0.700   6.566
 4130SOL     OW12925   2.205   0.528   6.606
 4130SOL    HW112926   2.160   0.445   6.588
 4130SOL    HW212927   2.279   0.528   6.545
 4131SOL     OW12928   2.995   0.379   7.285
 4131SOL    HW112929   2.946   0.433   7.347
 4131SOL    HW212930   3.081   0.421   7.280
 4132SOL     OW12931   3.014   0.226   7.067
 4132SOL    HW112932   3.004   0.279   7.146
 4132SOL    HW212933   3.040   0.288   6.999
 4133SOL     OW12934   1.867   1.316   5.779
 4133SOL    HW112935   1.779   1.330   5.742
 4133SOL    HW212936   1.866   1.226   5.811
 4134SOL     OW12937   1.979   1.722   6.576
 4134SOL    HW112938   1.968   1.669   6.497
 4134SOL    HW212939   2.007   1.808   6.543
 4135SOL     OW12940   2.835   0.788   6.810
 4135SOL    HW112941   2.893   0.768   6.884
 4135SOL    HW212942   2.752   0.746   6.832
 4136SOL     OW12943   1.895   0.546   6.703
 4136SOL    HW112944   1.969   0.521   6.649
 4136SOL    HW212945   1.929   0.547   6.792
 4137SOL     OW12946   2.067   0.526   7.298
 4137SOL    HW112947   2.138   0.504   7.237
 4137SOL    HW212948   2.023   0.601   7.258
 4138SOL     OW12949   3.241   0.935   7.243
 4138SOL    HW112950   3.266   1.027   7.239
 4138SOL    HW212951   3.237   0.907   7.151
 4139SOL     OW12952   2.679   0.572   5.953
 4139SOL    HW112953   2.685   0.498   5.893
 4139SOL    HW212954   2.605   0.623   5.920
 4140SOL     OW12955   3.500   0.602   6.767
 4140SOL    HW112956   3.490   0.541   6.840
 4140SOL    HW212957   3.586   0.582   6.731
 4141SOL     OW12958   2.575   0.449   6.840
 4141SOL    HW112959   2.522   0.374   6.816
 4141SOL    HW212960   2.565   0.510   6.766
 4142SOL     OW12961   2.831   1.625   6.988
 4142SOL    HW112962   2.775   1.633   6.910
 4142SOL    HW212963   2.820   1.707   7.035
 4143SOL     OW12964   2.323   0.493   5.766
 4143SOL    HW112965   2.381   0.565   5.792
 4143SOL    HW212966   2.238   0.535   5.755
 4144SOL     OW12967   2.026   1.131   7.036
 4144SOL    HW112968   2.007   1.086   7.119
 4144SOL    HW212969   2.030   1.060   6.972
 4145SOL     OW12970   3.183   1.041   6.808
 4145SOL    HW112971   3.207   0.979   6.739
 4145SOL    HW212972   3.115   1.096   6.769
 4146SOL     OW12973   3.178   0.852   5.889
 4146SOL    HW112974   3.102   0.829   5.942
 4146SOL    HW212975   3.149   0.843   5.799
 4147SOL     OW12976   3.646   1.739   6.746
 4147SOL    HW112977   3.700   1.766   6.672
 4147SOL    HW212978   3.614   1.652   6.722
 4148SOL     OW12979   3.106   1.736   6.690
 4148SOL    HW112980   3.190   1.756   6.649
 4148SOL    HW212981   3.111   1.644   6.712
 4149SOL     OW12982   3.549   0.118   6.075
 4149SOL    HW112983   3.630   0.135   6.026
 4149SOL    HW212984   3.553   0.025   6.097
 4150SOL     OW12985   3.260   1.564   6.073
 4150SOL    HW112986   3.317   1.599   6.005
 4150SOL    HW212987   3.208   1.639   6.103
 4151SOL     OW12988   2.018   1.736   7.422
 4151SOL    HW112989   1.940   1.687   7.398
 4151SOL    HW212990   1.988   1.827   7.429
 4152SOL     OW12991   3.139   0.926   6.256
 4152SOL    HW112992   3.214   0.868   6.268
 4152SOL    HW212993   3.173   0.999   6.205
 4153SOL     OW12994   2.682   1.272   7.032
 4153SOL    HW112995   2.656   1.301   7.120
 4153SOL    HW212996   2.633   1.329   6.973
 4154SOL     OW12997   2.539   1.624   5.733
 4154SOL    HW112998   2.547   1.632   5.638
 4154SOL    HW212999   2.483   1.547   5.746
 4155SOL     OW13000   3.479   1.727   6.979
 4155SOL    HW113001   3.535   1.730   6.901
 4155SOL    HW213002   3.466   1.819   7.003
 4156SOL     OW13003   3.705   0.182   6.557
 4156SOL    HW113004   3.729   0.098   6.519
 4156SOL    HW213005   3.619   0.202   6.520
 4157SOL     OW13006   2.124   0.315   6.300
 4157SOL    HW113007   2.038   0.350   6.277
 4157SOL    HW213008   2.122   0.308   6.396
 4158SOL     OW13009   3.071   1.601   5.619
 4158SOL    HW113010   3.059   1.511   5.646
 4158SOL    HW213011   3.004   1.615   5.551
 4159SOL     OW13012   2.685   1.005   6.959
 4159SOL    HW113013   2.736   0.996   6.878
 4159SOL    HW213014   2.688   1.099   6.978
 4160SOL     OW13015   2.777   0.909   5.875
 4160SOL    HW113016   2.837   0.944   5.810
 4160SOL    HW213017   2.827   0.843   5.922
 4161SOL     OW13018   3.350   1.631   5.630
 4161SOL    HW113019   3.256   1.620   5.615
 4161SOL    HW213020   3.387   1.636   5.542
 4162SOL     OW13021   2.252   1.291   7.030
 4162SOL    HW113022   2.210   1.376   7.019
 4162SOL    HW213023   2.182   1.228   7.015
 4163SOL     OW13024   3.460   1.279   6.863
 4163SOL    HW113025   3.531   1.273   6.927
 4163SOL    HW213026   3.403   1.348   6.897
 4164SOL     OW13027   2.919   1.112   6.300
 4164SOL    HW113028   2.847   1.059   6.333
 4164SOL    HW213029   2.982   1.048   6.267
 4165SOL     OW13030   2.877   0.249   6.557
 4165SOL    HW113031   2.868   0.199   6.476
 4165SOL    HW213032   2.875   0.184   6.627
 4166SOL     OW13033   3.583   0.395   6.957
 4166SOL    HW113034   3.656   0.458   6.957
 4166SOL    HW213035   3.614   0.323   6.903
 4167SOL     OW13036   2.118   1.353   5.877
 4167SOL    HW113037   2.025   1.345   5.853
 4167SOL    HW213038   2.116   1.383   5.968
 4168SOL     OW13039   1.970   1.002   7.286
 4168SOL    HW113040   1.896   0.995   7.346
 4168SOL    HW213041   2.047   0.986   7.341
 4169SOL     OW13042   2.557   0.262   7.090
 4169SOL    HW113043   2.622   0.206   7.048
 4169SOL    HW213044   2.584   0.265   7.182
 4170SOL     OW13045   1.964   0.317   5.578
 4170SOL    HW113046   1.897   0.336   5.644
 4170SOL    HW213047   1.970   0.397   5.526
 4171SOL     OW13048   3.286   0.855   6.984
 4171SOL    HW113049   3.235   0.916   6.930
 4171SOL    HW213050   3.374   0.858   6.947
 4172SOL     OW13051   1.942   0.150   5.925
 4172SOL    HW113052   1.911   0.209   5.855
 4172SOL    HW213053   2.029   0.124   5.896
 4173SOL     OW13054   3.040   1.336   5.704
 4173SOL    HW113055   2.950   1.304   5.709
 4173SOL    HW213056   3.071   1.336   5.795
 4174SOL     OW13057   2.484   0.829   7.022
 4174SOL    HW113058   2.541   0.903   7.004
 4174SOL    HW213059   2.544   0.754   7.029
 4175SOL     OW13060   3.350   1.788   6.568
 4175SOL    HW113061   3.375   1.848   6.498
 4175SOL    HW213062   3.433   1.749   6.597
 4176SOL     OW13063   2.581   0.558   7.290
 4176SOL    HW113064   2.626   0.619   7.350
 4176SOL    HW213065   2.603   0.471   7.324
 4177SOL     OW13066   3.343   1.191   7.219
 4177SOL    HW113067   3.333   1.208   7.313
 4177SOL    HW213068   3.435   1.210   7.202
 4178SOL     OW13069   2.220   1.742   7.164
 4178SOL    HW113070   2.126   1.724   7.160
 4178SOL    HW213071   2.259   1.659   7.193
 4179SOL     OW13072   3.524   0.880   6.845
 4179SOL    HW113073   3.524   0.795   6.801
 4179SOL    HW213074   3.517   0.944   6.774
 4180SOL     OW13075   3.081   0.339   6.027
 4180SOL    HW113076   3.150   0.274   6.018
 4180SOL    HW213077   3.100   0.383   6.110
 4181SOL     OW13078   2.450   0.734   6.258
 4181SOL    HW113079   2.491   0.819   6.243
 4181SOL    HW213080   2.384   0.728   6.189
 4182SOL     OW13081   3.614   0.381   7.228
 4182SOL    HW113082   3.595   0.391   7.135
 4182SOL    HW213083   3.554   0.314   7.259
 4183SOL     OW13084   3.617   0.929   7.098
 4183SOL    HW113085   3.607   1.023   7.116
 4183SOL    HW213086   3.591   0.920   7.007
 4184SOL     OW13087   2.724   1.362   5.615
 4184SOL    HW113088   2.695   1.370   5.706
 4184SOL    HW213089   2.738   1.452   5.586
 4185SOL     OW13090   2.732   0.963   6.437
 4185SOL    HW113091   2.784   0.894   6.477
 4185SOL    HW213092   2.690   1.007   6.511
 4186SOL     OW13093   2.940   0.989   5.676
 4186SOL    HW113094   2.918   1.041   5.599
 4186SOL    HW213095   3.014   0.935   5.647
 4187SOL     OW13096   3.710   1.557   6.427
 4187SOL    HW113097   3.631   1.540   6.376
 4187SOL    HW213098   3.710   1.488   6.494
 4188SOL     OW13099   3.675   0.181   6.831
 4188SOL    HW113100   3.677   0.086   6.839
 4188SOL    HW213101   3.694   0.197   6.738
 4189SOL     OW13102   2.290   0.434   6.111
 4189SOL    HW113103   2.325   0.363   6.058
 4189SOL    HW213104   2.242   0.390   6.182
 4190SOL     OW13105   3.557   1.491   6.683
 4190SOL    HW113106   3.480   1.469   6.631
 4190SOL    HW213107   3.565   1.418   6.745
 4191SOL     OW13108   2.196   0.557   6.882
 4191SOL    HW113109   2.248   0.497   6.936
 4191SOL    HW213110   2.215   0.530   6.792
 4192SOL     OW13111   2.733   1.536   6.219
 4192SOL    HW113112   2.728   1.631   6.219
 4192SOL    HW213113   2.687   1.510   6.299
 4193SOL     OW13114   3.323   0.254   6.696
 4193SOL    HW113115   3.336   0.165   6.731
 4193SOL    HW213116   3.267   0.297   6.761
 4194SOL     OW13117   2.864   0.025   6.732
 4194SOL    HW113118   2.781   3.999   6.692
 4194SOL    HW213119   2.913   3.943   6.740
 4195SOL     OW13120   2.657   1.326   5.877
 4195SOL    HW113121   2.612   1.246   5.903
 4195SOL    HW213122   2.724   1.340   5.944
 4196SOL     OW13123   3.170   0.069   5.745
 4196SOL    HW113124   3.172   3.983   5.705
 4196SOL    HW213125   3.087   0.071   5.793
 4197SOL     OW13126   3.141   0.456   6.270
 4197SOL    HW113127   3.095   0.540   6.264
 4197SOL    HW213128   3.144   0.437   6.364
 4198SOL     OW13129   3.453   0.210   6.454
 4198SOL    HW113130   3.405   0.234   6.533
 4198SOL    HW213131   3.451   0.289   6.399
 4199SOL     OW13132   1.904   1.066   5.890
 4199SOL    HW113133   1.999   1.061   5.876
 4199SOL    HW213134   1.880   0.977   5.915
 4200SOL     OW13135   2.753   1.661   5.912
 4200SOL    HW113136   2.680   1.636   5.855
 4200SOL    HW213137   2.712   1.698   5.990
 4201SOL     OW13138   2.087   0.618   7.568
 4201SOL    HW113139   1.997   0.629   7.599
 4201SOL    HW213140   2.078   0.598   7.475
 4202SOL     OW13141   2.078   0.302   8.440
 4202SOL    HW113142   2.115   0.258   8.516
 4202SOL    HW213143   1.993   0.260   8.427
 4203SOL     OW13144   1.870   0.398   8.080
 4203SOL    HW113145   1.784   0.413   8.119
 4203SOL    HW213146   1.855   0.331   8.013
 4204SOL     OW13147   2.430   1.295   8.628
 4204SOL    HW113148   2.344   1.300   8.587
 4204SOL    HW213149   2.446   1.384   8.660
 4205SOL     OW13150   3.429   1.513   8.156
 4205SOL    HW113151   3.387   1.491   8.239
 4205SOL    HW213152   3.357   1.518   8.093
 4206SOL     OW13153   2.995   0.699   8.142
 4206SOL    HW113154   3.042   0.781   8.131
 4206SOL    HW213155   2.947   0.710   8.224
 4207SOL     OW13156   3.624   0.624   7.673
 4207SOL    HW113157   3.605   0.612   7.580
 4207SOL    HW213158   3.606   0.539   7.712
 4208SOL     OW13159   2.611   1.140   8.494
 4208SOL    HW113160   2.544   1.176   8.552
 4208SOL    HW213161   2.649   1.216   8.450
 4209SOL     OW13162   2.735   0.766   9.273
 4209SOL    HW113163   2.721   0.836   9.336
 4209SOL    HW213164   2.757   0.811   9.191
 4210SOL     OW13165   2.549   0.996   8.093
 4210SOL    HW113166   2.615   0.988   8.163
 4210SOL    HW213167   2.480   1.049   8.132
 4211SOL     OW13168   2.576   1.149   9.265
 4211SOL    HW113169   2.623   1.227   9.296
 4211SOL    HW213170   2.495   1.184   9.227
 4212SOL     OW13171   2.193   1.414   8.516
 4212SOL    HW113172   2.117   1.379   8.470
 4212SOL    HW213173   2.237   1.469   8.452
 4213SOL     OW13174   3.320   1.502   8.808
 4213SOL    HW113175   3.375   1.580   8.817
 4213SOL    HW213176   3.254   1.512   8.876
 4214SOL     OW13177   2.309   0.391   8.938
 4214SOL    HW113178   2.400   0.363   8.939
 4214SOL    HW213179   2.259   0.310   8.948
 4215SOL     OW13180   3.472   0.450   8.183
 4215SOL    HW113181   3.405   0.483   8.124
 4215SOL    HW213182   3.491   0.522   8.242
 4216SOL     OW13183   2.131   1.709   7.959
 4216SOL    HW113184   2.143   1.784   8.018
 4216SOL    HW213185   2.184   1.731   7.882
 4217SOL     OW13186   2.999   1.343   9.142
 4217SOL    HW113187   3.041   1.336   9.228
 4217SOL    HW213188   2.947   1.263   9.135
 4218SOL     OW13189   2.140   1.437   8.029
 4218SOL    HW113190   2.122   1.528   8.005
 4218SOL    HW213191   2.053   1.399   8.043
 4219SOL     OW13192   2.128   1.092   8.341
 4219SOL    HW113193   2.121   1.004   8.377
 4219SOL    HW213194   2.069   1.145   8.394
 4220SOL     OW13195   2.467   1.794   8.877
 4220SOL    HW113196   2.388   1.777   8.929
 4220SOL    HW213197   2.492   1.883   8.899
 4221SOL     OW13198   2.443   0.983   7.580
 4221SOL    HW113199   2.494   1.027   7.513
 4221SOL    HW213200   2.481   1.011   7.663
 4222SOL     OW13201   3.445   0.143   8.904
 4222SOL    HW113202   3.473   0.215   8.847
 4222SOL    HW213203   3.404   0.186   8.979
 4223SOL     OW13204   1.984   0.654   8.011
 4223SOL    HW113205   1.954   0.566   8.035
 4223SOL    HW213206   1.974   0.705   8.092
 4224SOL     OW13207   3.703   1.757   7.785
 4224SOL    HW113208   3.774   1.733   7.844
 4224SOL    HW213209   3.720   1.849   7.763
 4225SOL     OW13210   3.551   0.919   8.097
 4225SOL    HW113211   3.635   0.875   8.081
 4225SOL    HW213212   3.535   0.967   8.016
 4226SOL     OW13213   3.505   1.103   7.880
 4226SOL    HW113214   3.589   1.108   7.836
 4226SOL    HW213215   3.511   1.166   7.951
 4227SOL     OW13216   1.985   0.751   9.027
 4227SOL    HW113217   2.075   0.784   9.030
 4227SOL    HW213218   1.930   0.829   9.031
 4228SOL     OW13219   2.467   1.396   8.167
 4228SOL    HW113220   2.440   1.307   8.190
 4228SOL    HW213221   2.409   1.421   8.095
 4229SOL     OW13222   3.148   1.237   8.869
 4229SOL    HW113223   3.180   1.169   8.809
 4229SOL    HW213224   3.207   1.232   8.944
 4230SOL     OW13225   2.683   0.006   7.967
 4230SOL    HW113226   2.729   0.086   7.940
 4230SOL    HW213227   2.591   0.030   7.965
 4231SOL     OW13228   2.050   0.960   8.727
 4231SOL    HW113229   2.136   0.921   8.711
 4231SOL    HW213230   1.992   0.914   8.667
 4232SOL     OW13231   3.389   0.998   7.650
 4232SOL    HW113232   3.320   0.941   7.684
 4232SOL    HW213233   3.433   1.032   7.728
 4233SOL     OW13234   3.045   1.811   9.073
 4233SOL    HW113235   3.054   1.871   8.999
 4233SOL    HW213236   3.064   1.725   9.036
 4234SOL     OW13237   2.222   0.250   9.299
 4234SOL    HW113238   2.267   0.334   9.301
 4234SOL    HW213239   2.129   0.272   9.298
 4235SOL     OW13240   3.328   1.420   8.395
 4235SOL    HW113241   3.262   1.435   8.463
 4235SOL    HW213242   3.316   1.328   8.371
 4236SOL     OW13243   3.511   1.751   8.028
 4236SOL    HW113244   3.500   1.716   7.939
 4236SOL    HW213245   3.495   1.676   8.085
 4237SOL     OW13246   2.456   0.718   7.719
 4237SOL    HW113247   2.456   0.802   7.672
 4237SOL    HW213248   2.391   0.730   7.788
 4238SOL     OW13249   3.136   0.372   8.389
 4238SOL    HW113250   3.049   0.333   8.397
 4238SOL    HW213251   3.194   0.310   8.434
 4239SOL     OW13252   3.440   1.671   7.759
 4239SOL    HW113253   3.531   1.700   7.753
 4239SOL    HW213254   3.414   1.655   7.668
 4240SOL     OW13255   2.657   0.615   8.898
 4240SOL    HW113256   2.630   0.589   8.986
 4240SOL    HW213257   2.621   0.548   8.841
 4241SOL     OW13258   3.254   0.475   9.125
 4241SOL    HW113259   3.261   0.521   9.209
 4241SOL    HW213260   3.310   0.398   9.136
 4242SOL     OW13261   2.812   0.887   9.034
 4242SOL    HW113262   2.868   0.818   8.996
 4242SOL    HW213263   2.764   0.923   8.960
 4243SOL     OW13264   2.856   0.402   8.684
 4243SOL    HW113265   2.770   0.420   8.721
 4243SOL    HW213266   2.838   0.375   8.593
 4244SOL     OW13267   2.915   0.701   7.872
 4244SOL    HW113268   2.933   0.694   7.966
 4244SOL    HW213269   2.832   0.655   7.860
 4245SOL     OW13270   1.949   0.821   8.226
 4245SOL    HW113271   2.029   0.815   8.278
 4245SOL    HW213272   1.904   0.899   8.261
 4246SOL     OW13273   2.757   0.353   7.649
 4246SOL    HW113274   2.800   0.412   7.586
 4246SOL    HW213275   2.745   0.271   7.600
 4247SOL     OW13276   3.567   0.572   9.278
 4247SOL    HW113277   3.531   0.647   9.230
 4247SOL    HW213278   3.594   0.510   9.210
 4248SOL     OW13279   3.240   1.141   7.986
 4248SOL    HW113280   3.320   1.130   7.936
 4248SOL    HW213281   3.189   1.205   7.935
 4249SOL     OW13282   2.421   0.199   8.328
 4249SOL    HW113283   2.424   0.219   8.422
 4249SOL    HW213284   2.416   0.285   8.286
 4250SOL     OW13285   2.859   1.454   7.919
 4250SOL    HW113286   2.796   1.521   7.890
 4250SOL    HW213287   2.853   1.456   8.014
 4251SOL     OW13288   2.238   1.802   8.261
 4251SOL    HW113289   2.256   1.714   8.292
 4251SOL    HW213290   2.296   1.859   8.312
 4252SOL     OW13291   3.668   1.062   8.317
 4252SOL    HW113292   3.616   1.034   8.242
 4252SOL    HW213293   3.606   1.065   8.390
 4253SOL     OW13294   3.088   1.540   8.962
 4253SOL    HW113295   3.077   1.468   9.024
 4253SOL    HW213296   3.022   1.525   8.894
 4254SOL     OW13297   2.184   0.965   7.704
 4254SOL    HW113298   2.264   0.978   7.654
 4254SOL    HW213299   2.146   0.884   7.669
 4255SOL     OW13300   3.342   0.751   8.176
 4255SOL    HW113301   3.338   0.709   8.262
 4255SOL    HW213302   3.420   0.806   8.180
 4256SOL     OW13303   2.333   1.265   9.185
 4256SOL    HW113304   2.306   1.270   9.093
 4256SOL    HW213305   2.250   1.262   9.233
 4257SOL     OW13306   2.980   1.789   7.661
 4257SOL    HW113307   2.944   1.742   7.736
 4257SOL    HW213308   3.006   1.721   7.599
 4258SOL     OW13309   2.029   0.274   8.948
 4258SOL    HW113310   1.978   0.354   8.933
 4258SOL    HW213311   2.032   0.265   9.043
 4259SOL     OW13312   3.487   1.384   7.537
 4259SOL    HW113313   3.445   1.468   7.521
 4259SOL    HW213314   3.420   1.319   7.517
 4260SOL     OW13315   3.298   0.174   7.850
 4260SOL    HW113316   3.249   0.099   7.816
 4260SOL    HW213317   3.373   0.135   7.896
 4261SOL     OW13318   2.170   1.784   8.665
 4261SOL    HW113319   2.203   1.702   8.700
 4261SOL    HW213320   2.120   1.759   8.587
 4262SOL     OW13321   2.800   1.698   8.347
 4262SOL    HW113322   2.879   1.649   8.369
 4262SOL    HW213323   2.759   1.647   8.277
 4263SOL     OW13324   2.259   0.694   7.921
 4263SOL    HW113325   2.276   0.601   7.935
 4263SOL    HW213326   2.166   0.705   7.940
 4264SOL     OW13327   3.391   0.228   9.175
 4264SOL    HW113328   3.382   0.252   9.267
 4264SOL    HW213329   3.378   0.133   9.173
 4265SOL     OW13330   2.507   0.127   7.558
 4265SOL    HW113331   2.526   0.041   7.596
 4265SOL    HW213332   2.444   0.109   7.488
 4266SOL     OW13333   2.635   0.283   9.220
 4266SOL    HW113334   2.712   0.226   9.222
 4266SOL    HW213335   2.580   0.252   9.292
 4267SOL     OW13336   2.737   1.523   8.642
 4267SOL    HW113337   2.721   1.485   8.556
 4267SOL    HW213338   2.807   1.468   8.679
 4268SOL     OW13339   3.201   0.587   8.879
 4268SOL    HW113340   3.231   0.559   8.965
 4268SOL    HW213341   3.235   0.676   8.869
 4269SOL     OW13342   2.679   1.390   8.390
 4269SOL    HW113343   2.766   1.378   8.350
 4269SOL    HW213344   2.620   1.399   8.316
 4270SOL     OW13345   2.793   0.512   8.346
 4270SOL    HW113346   2.767   0.503   8.254
 4270SOL    HW213347   2.818   0.424   8.373
 4271SOL     OW13348   2.406   0.056   7.938
 4271SOL    HW113349   2.332   0.061   7.999
 4271SOL    HW213350   2.402   0.137   7.887
 4272SOL     OW13351   3.290   1.199   7.490
 4272SOL    HW113352   3.324   1.124   7.539
 4272SOL    HW213353   3.204   1.217   7.529
 4273SOL     OW13354   2.193   0.045   7.660
 4273SOL    HW113355   2.197   0.110   7.589
 4273SOL    HW213356   2.274   0.059   7.710
 4274SOL     OW13357   2.806   0.251   7.906
 4274SOL    HW113358   2.781   0.289   7.822
 4274SOL    HW213359   2.902   0.257   7.908
 4275SOL     OW13360   2.941   0.686   8.905
 4275SOL    HW113361   2.872   0.620   8.912
 4275SOL    HW213362   3.022   0.635   8.901
 4276SOL     OW13363   3.082   1.570   8.241
 4276SOL    HW113364   3.097   1.637   8.174
 4276SOL    HW213365   3.152   1.585   8.305
 4277SOL     OW13366   2.339   1.149   8.180
 4277SOL    HW113367   2.271   1.132   8.245
 4277SOL    HW213368   2.295   1.137   8.096
 4278SOL     OW13369   3.125   1.792   8.056
 4278SOL    HW113370   3.176   1.854   8.004
 4278SOL    HW213371   3.059   1.846   8.100
 4279SOL     OW13372   2.884   0.539   7.479
 4279SOL    HW113373   2.840   0.622   7.459
 4279SOL    HW213374   2.947   0.561   7.547
 4280SOL     OW13375   1.946   0.549   8.845
 4280SOL    HW113376   2.037   0.552   8.815
 4280SOL    HW213377   1.938   0.621   8.907
 4281SOL     OW13378   2.424   0.231   8.609
 4281SOL    HW113379   2.447   0.138   8.618
 4281SOL    HW213380   2.335   0.237   8.642
 4282SOL     OW13381   2.732   0.461   8.085
 4282SOL    HW113382   2.685   0.515   8.022
 4282SOL    HW213383   2.754   0.381   8.036
 4283SOL     OW13384   2.859   0.038   8.229
 4283SOL    HW113385   2.820   0.069   8.148
 4283SOL    HW213386   2.871   3.944   8.216
 4284SOL     OW13387   3.303   1.160   8.306
 4284SOL    HW113388   3.232   1.096   8.304
 4284SOL    HW213389   3.329   1.169   8.214
 4285SOL     OW13390   3.325   0.610   8.419
 4285SOL    HW113391   3.270   0.532   8.424
 4285SOL    HW213392   3.385   0.602   8.494
 4286SOL     OW13393   3.720   0.825   7.823
 4286SOL    HW113394   3.761   0.768   7.888
 4286SOL    HW213395   3.683   0.765   7.758
 4287SOL     OW13396   3.530   1.265   8.091
 4287SOL    HW113397   3.625   1.267   8.101
 4287SOL    HW213398   3.502   1.355   8.112
 4288SOL     OW13399   3.257   0.578   7.516
 4288SOL    HW113400   3.194   0.557   7.586
 4288SOL    HW213401   3.342   0.561   7.556
 4289SOL     OW13402   2.388   0.266   7.763
 4289SOL    HW113403   2.444   0.227   7.696
 4289SOL    HW213404   2.358   0.348   7.725
 4290SOL     OW13405   3.612   1.233   9.010
 4290SOL    HW113406   3.700   1.198   8.993
 4290SOL    HW213407   3.627   1.322   9.039
 4291SOL     OW13408   2.917   1.353   8.780
 4291SOL    HW113409   2.841   1.322   8.830
 4291SOL    HW213410   2.992   1.312   8.822
 4292SOL     OW13411   3.468   1.629   9.105
 4292SOL    HW113412   3.459   1.664   9.016
 4292SOL    HW213413   3.547   1.576   9.103
 4293SOL     OW13414   2.996   1.209   8.551
 4293SOL    HW113415   2.936   1.246   8.616
 4293SOL    HW213416   2.964   1.243   8.467
 4294SOL     OW13417   3.488   1.094   8.522
 4294SOL    HW113418   3.479   1.156   8.594
 4294SOL    HW213419   3.412   1.111   8.466
 4295SOL     OW13420   2.773   0.119   8.849
 4295SOL    HW113421   2.793   0.089   8.760
 4295SOL    HW213422   2.854   0.160   8.879
 4296SOL     OW13423   2.846   1.116   9.172
 4296SOL    HW113424   2.755   1.132   9.196
 4296SOL    HW213425   2.843   1.037   9.117
 4297SOL     OW13426   2.568   1.050   7.817
 4297SOL    HW113427   2.551   1.034   7.910
 4297SOL    HW213428   2.643   0.995   7.796
 4298SOL     OW13429   2.284   0.817   8.700
 4298SOL    HW113430   2.352   0.825   8.766
 4298SOL    HW213431   2.249   0.729   8.712
 4299SOL     OW13432   3.128   0.375   8.725
 4299SOL    HW113433   3.161   0.453   8.769
 4299SOL    HW213434   3.040   0.399   8.696
 4300SOL     OW13435   1.939   1.577   8.803
 4300SOL    HW113436   1.907   1.635   8.734
 4300SOL    HW213437   2.033   1.572   8.788
 4301SOL     OW13438   2.209   1.115   7.941
 4301SOL    HW113439   2.202   1.197   7.893
 4301SOL    HW213440   2.204   1.047   7.874
 4302SOL     OW13441   2.415   0.529   8.304
 4302SOL    HW113442   2.428   0.589   8.230
 4302SOL    HW213443   2.480   0.556   8.369
 4303SOL     OW13444   3.107   1.354   7.838
 4303SOL    HW113445   3.165   1.423   7.871
 4303SOL    HW213446   3.020   1.378   7.871
 4304SOL     OW13447   3.150   1.460   8.596
 4304SOL    HW113448   3.206   1.466   8.674
 4304SOL    HW213449   3.095   1.383   8.611
 4305SOL     OW13450   3.431   0.633   7.936
 4305SOL    HW113451   3.389   0.688   8.002
 4305SOL    HW213452   3.480   0.695   7.882
 4306SOL     OW13453   2.211   1.525   8.759
 4306SOL    HW113454   2.198   1.480   8.676
 4306SOL    HW213455   2.306   1.533   8.768
 4307SOL     OW13456   2.282   0.745   9.051
 4307SOL    HW113457   2.343   0.789   8.992
 4307SOL    HW213458   2.323   0.660   9.069
 4308SOL     OW13459   3.468   0.779   9.134
 4308SOL    HW113460   3.383   0.822   9.128
 4308SOL    HW213461   3.521   0.822   9.066
 4309SOL     OW13462   2.870   0.138   9.229
 4309SOL    HW113463   2.926   0.208   9.194
 4309SOL    HW213464   2.856   0.079   9.156
 4310SOL     OW13465   2.352   0.035   9.209
 4310SOL    HW113466   2.352   0.050   9.114
 4310SOL    HW213467   2.292   0.100   9.244
 4311SOL     OW13468   2.447   0.874   8.481
 4311SOL    HW113469   2.476   0.965   8.482
 4311SOL    HW213470   2.389   0.866   8.556
 4312SOL     OW13471   3.211   0.859   8.470
 4312SOL    HW113472   3.125   0.844   8.431
 4312SOL    HW213473   3.256   0.775   8.462
 4313SOL     OW13474   3.061   0.539   7.704
 4313SOL    HW113475   3.069   0.459   7.756
 4313SOL    HW213476   3.017   0.601   7.762
 4314SOL     OW13477   2.159   0.208   8.691
 4314SOL    HW113478   2.117   0.237   8.772
 4314SOL    HW213479   2.149   0.113   8.691
 4315SOL     OW13480   1.907   1.312   8.725
 4315SOL    HW113481   1.940   1.256   8.795
 4315SOL    HW213482   1.913   1.401   8.761
 4316SOL     OW13483   2.583   0.631   8.498
 4316SOL    HW113484   2.659   0.620   8.442
 4316SOL    HW213485   2.553   0.720   8.481
 4317SOL     OW13486   3.594   0.957   9.314
 4317SOL    HW113487   3.552   0.893   9.256
 4317SOL    HW213488   3.529   0.973   9.382
 4318SOL     OW13489   2.186   0.054   8.104
 4318SOL    HW113490   2.165   0.147   8.114
 4318SOL    HW213491   2.156   0.013   8.185
 4319SOL     OW13492   3.475   0.395   7.826
 4319SOL    HW113493   3.433   0.326   7.878
 4319SOL    HW213494   3.454   0.476   7.872
 4320SOL     OW13495   2.893   0.759   8.406
 4320SOL    HW113496   2.883   0.776   8.499
 4320SOL    HW213497   2.865   0.668   8.395
 4321SOL     OW13498   2.843   1.567   9.169
 4321SOL    HW113499   2.828   1.610   9.085
 4321SOL    HW213500   2.886   1.485   9.146
 4322SOL     OW13501   3.703   1.495   9.045
 4322SOL    HW113502   3.728   1.526   8.958
 4322SOL    HW213503   3.783   1.504   9.097
 4323SOL     OW13504   2.214   0.915   9.258
 4323SOL    HW113505   2.294   0.936   9.305
 4323SOL    HW213506   2.240   0.853   9.190
 4324SOL     OW13507   3.360   0.273   7.581
 4324SOL    HW113508   3.288   0.210   7.591
 4324SOL    HW213509   3.371   0.310   7.668
 4325SOL     OW13510   3.146   0.827   7.476
 4325SOL    HW113511   3.189   0.741   7.480
 4325SOL    HW213512   3.179   0.866   7.395
 4326SOL     OW13513   2.929   1.339   8.303
 4326SOL    HW113514   2.935   1.266   8.241
 4326SOL    HW213515   2.990   1.404   8.270
 4327SOL     OW13516   2.169   0.810   8.394
 4327SOL    HW113517   2.262   0.831   8.386
 4327SOL    HW213518   2.167   0.720   8.426
 4328SOL     OW13519   2.199   0.538   8.463
 4328SOL    HW113520   2.157   0.453   8.448
 4328SOL    HW213521   2.274   0.537   8.404
 4329SOL     OW13522   2.995   0.380   9.147
 4329SOL    HW113523   2.946   0.434   9.209
 4329SOL    HW213524   3.081   0.420   9.142
 4330SOL     OW13525   3.014   0.226   8.929
 4330SOL    HW113526   3.004   0.279   9.008
 4330SOL    HW213527   3.040   0.288   8.861
 4331SOL     OW13528   1.991   1.726   8.447
 4331SOL    HW113529   1.952   1.661   8.389
 4331SOL    HW213530   2.014   1.799   8.389
 4332SOL     OW13531   2.359   1.570   8.360
 4332SOL    HW113532   2.425   1.636   8.381
 4332SOL    HW213533   2.402   1.512   8.298
 4333SOL     OW13534   2.837   0.786   8.670
 4333SOL    HW113535   2.894   0.769   8.745
 4333SOL    HW213536   2.752   0.750   8.696
 4334SOL     OW13537   1.895   0.549   8.565
 4334SOL    HW113538   1.969   0.523   8.510
 4334SOL    HW213539   1.930   0.547   8.654
 4335SOL     OW13540   2.066   0.527   9.160
 4335SOL    HW113541   2.138   0.507   9.100
 4335SOL    HW213542   2.023   0.603   9.120
 4336SOL     OW13543   3.243   0.934   9.105
 4336SOL    HW113544   3.264   1.028   9.101
 4336SOL    HW213545   3.238   0.908   9.013
 4337SOL     OW13546   2.680   0.573   7.813
 4337SOL    HW113547   2.686   0.498   7.755
 4337SOL    HW213548   2.604   0.622   7.782
 4338SOL     OW13549   3.500   0.602   8.629
 4338SOL    HW113550   3.489   0.542   8.702
 4338SOL    HW213551   3.587   0.582   8.593
 4339SOL     OW13552   2.113   1.535   9.153
 4339SOL    HW113553   2.094   1.604   9.217
 4339SOL    HW213554   2.118   1.455   9.206
 4340SOL     OW13555   2.575   0.450   8.701
 4340SOL    HW113556   2.522   0.374   8.678
 4340SOL    HW213557   2.564   0.511   8.627
 4341SOL     OW13558   2.785   1.679   8.918
 4341SOL    HW113559   2.761   1.640   8.834
 4341SOL    HW213560   2.779   1.773   8.904
 4342SOL     OW13561   2.323   0.493   7.629
 4342SOL    HW113562   2.381   0.565   7.655
 4342SOL    HW213563   2.238   0.534   7.616
 4343SOL     OW13564   2.004   1.142   8.922
 4343SOL    HW113565   2.006   1.094   9.005
 4343SOL    HW213566   2.021   1.075   8.855
 4344SOL     OW13567   3.182   1.043   8.668
 4344SOL    HW113568   3.204   0.981   8.599
 4344SOL    HW213569   3.116   1.100   8.629
 4345SOL     OW13570   3.175   0.857   7.752
 4345SOL    HW113571   3.102   0.823   7.804
 4345SOL    HW213572   3.149   0.842   7.661
 4346SOL     OW13573   3.645   1.739   8.607
 4346SOL    HW113574   3.700   1.767   8.534
 4346SOL    HW213575   3.614   1.652   8.583
 4347SOL     OW13576   3.101   1.733   8.553
 4347SOL    HW113577   3.184   1.757   8.512
 4347SOL    HW213578   3.112   1.640   8.575
 4348SOL     OW13579   1.948   1.263   8.460
 4348SOL    HW113580   1.930   1.280   8.553
 4348SOL    HW213581   1.876   1.208   8.431
 4349SOL     OW13582   2.539   1.670   9.182
 4349SOL    HW113583   2.485   1.749   9.179
 4349SOL    HW213584   2.608   1.686   9.117
 4350SOL     OW13585   3.549   0.118   7.936
 4350SOL    HW113586   3.630   0.135   7.888
 4350SOL    HW213587   3.553   0.025   7.958
 4351SOL     OW13588   3.252   1.569   7.936
 4351SOL    HW113589   3.314   1.602   7.871
 4351SOL    HW213590   3.206   1.647   7.967
 4352SOL     OW13591   2.030   1.736   9.307
 4352SOL    HW113592   1.967   1.697   9.368
 4352SOL    HW213593   2.003   1.828   9.301
 4353SOL     OW13594   3.139   0.929   8.120
 4353SOL    HW113595   3.213   0.870   8.132
 4353SOL    HW213596   3.174   1.000   8.066
 4354SOL     OW13597   2.668   1.276   8.873
 4354SOL    HW113598   2.641   1.316   8.955
 4354SOL    HW213599   2.597   1.295   8.812
 4355SOL     OW13600   3.479   1.728   8.839
 4355SOL    HW113601   3.536   1.732   8.762
 4355SOL    HW213602   3.466   1.819   8.864
 4356SOL     OW13603   3.705   0.182   8.419
 4356SOL    HW113604   3.729   0.098   8.381
 4356SOL    HW213605   3.619   0.201   8.382
 4357SOL     OW13606   2.124   0.315   8.162
 4357SOL    HW113607   2.038   0.349   8.139
 4357SOL    HW213608   2.123   0.309   8.258
 4358SOL     OW13609   3.069   1.603   7.479
 4358SOL    HW113610   3.055   1.509   7.487
 4358SOL    HW213611   3.047   1.623   7.388
 4359SOL     OW13612   2.686   1.006   8.822
 4359SOL    HW113613   2.727   1.001   8.736
 4359SOL    HW213614   2.682   1.100   8.842
 4360SOL     OW13615   2.781   0.910   7.734
 4360SOL    HW113616   2.844   0.946   7.672
 4360SOL    HW213617   2.830   0.842   7.782
 4361SOL     OW13618   3.353   1.630   7.493
 4361SOL    HW113619   3.259   1.621   7.477
 4361SOL    HW213620   3.392   1.636   7.406
 4362SOL     OW13621   2.232   1.300   8.939
 4362SOL    HW113622   2.217   1.379   8.886
 4362SOL    HW213623   2.154   1.247   8.924
 4363SOL     OW13624   3.461   1.280   8.724
 4363SOL    HW113625   3.530   1.270   8.790
 4363SOL    HW213626   3.404   1.349   8.759
 4364SOL     OW13627   2.921   1.111   8.155
 4364SOL    HW113628   2.849   1.061   8.194
 4364SOL    HW213629   2.985   1.045   8.130
 4365SOL     OW13630   2.877   0.250   8.419
 4365SOL    HW113631   2.867   0.199   8.338
 4365SOL    HW213632   2.875   0.184   8.489
 4366SOL     OW13633   3.583   0.395   8.819
 4366SOL    HW113634   3.655   0.458   8.819
 4366SOL    HW213635   3.614   0.323   8.765
 4367SOL     OW13636   1.976   1.031   9.172
 4367SOL    HW113637   1.900   1.004   9.223
 4367SOL    HW213638   2.050   0.988   9.215
 4368SOL     OW13639   2.557   0.262   8.952
 4368SOL    HW113640   2.623   0.205   8.911
 4368SOL    HW213641   2.584   0.266   9.044
 4369SOL     OW13642   1.964   0.317   7.440
 4369SOL    HW113643   1.897   0.337   7.506
 4369SOL    HW213644   1.970   0.396   7.388
 4370SOL     OW13645   3.285   0.856   8.845
 4370SOL    HW113646   3.235   0.918   8.792
 4370SOL    HW213647   3.374   0.859   8.808
 4371SOL     OW13648   1.942   0.151   7.787
 4371SOL    HW113649   1.911   0.209   7.718
 4371SOL    HW213650   2.029   0.123   7.758
 4372SOL     OW13651   3.034   1.325   7.573
 4372SOL    HW113652   2.973   1.252   7.585
 4372SOL    HW213653   3.069   1.343   7.660
 4373SOL     OW13654   2.484   0.828   8.882
 4373SOL    HW113655   2.541   0.904   8.868
 4373SOL    HW213656   2.545   0.755   8.891
 4374SOL     OW13657   3.344   1.784   8.428
 4374SOL    HW113658   3.368   1.851   8.364
 4374SOL    HW213659   3.428   1.753   8.462
 4375SOL     OW13660   2.581   0.559   9.151
 4375SOL    HW113661   2.624   0.621   9.210
 4375SOL    HW213662   2.603   0.473   9.186
 4376SOL     OW13663   3.335   1.195   9.077
 4376SOL    HW113664   3.324   1.210   9.171
 4376SOL    HW213665   3.428   1.212   9.060
 4377SOL     OW13666   2.234   1.747   9.020
 4377SOL    HW113667   2.159   1.759   8.961
 4377SOL    HW213668   2.217   1.664   9.064
 4378SOL     OW13669   3.525   0.880   8.707
 4378SOL    HW113670   3.524   0.795   8.664
 4378SOL    HW213671   3.518   0.943   8.636
 4379SOL     OW13672   3.081   0.340   7.889
 4379SOL    HW113673   3.151   0.274   7.880
 4379SOL    HW213674   3.101   0.383   7.972
 4380SOL     OW13675   2.451   0.734   8.120
 4380SOL    HW113676   2.489   0.821   8.106
 4380SOL    HW213677   2.385   0.726   8.051
 4381SOL     OW13678   3.615   0.381   9.090
 4381SOL    HW113679   3.594   0.390   8.997
 4381SOL    HW213680   3.554   0.314   9.121
 4382SOL     OW13681   3.617   0.930   8.961
 4382SOL    HW113682   3.606   1.023   8.979
 4382SOL    HW213683   3.591   0.920   8.869
 4383SOL     OW13684   2.733   1.355   7.475
 4383SOL    HW113685   2.729   1.327   7.566
 4383SOL    HW213686   2.821   1.390   7.464
 4384SOL     OW13687   2.526   1.791   8.384
 4384SOL    HW113688   2.513   1.883   8.360
 4384SOL    HW213689   2.620   1.778   8.380
 4385SOL     OW13690   2.733   0.972   8.303
 4385SOL    HW113691   2.782   0.899   8.340
 4385SOL    HW213692   2.694   1.015   8.378
 4386SOL     OW13693   2.948   1.004   7.538
 4386SOL    HW113694   2.920   1.042   7.455
 4386SOL    HW213695   3.016   0.941   7.514
 4387SOL     OW13696   3.712   1.556   8.289
 4387SOL    HW113697   3.632   1.539   8.239
 4387SOL    HW213698   3.714   1.487   8.355
 4388SOL     OW13699   2.090   1.298   9.302
 4388SOL    HW113700   2.025   1.234   9.275
 4388SOL    HW213701   2.075   1.311   9.396
 4389SOL     OW13702   1.944   1.227   8.110
 4389SOL    HW113703   1.966   1.186   8.193
 4389SOL    HW213704   2.008   1.191   8.048
 4390SOL     OW13705   2.545   1.408   9.077
 4390SOL    HW113706   2.467   1.364   9.111
 4390SOL    HW213707   2.542   1.495   9.115
 4391SOL     OW13708   3.675   0.181   8.692
 4391SOL    HW113709   3.677   0.086   8.701
 4391SOL    HW213710   3.694   0.197   8.600
 4392SOL     OW13711   2.291   0.434   7.974
 4392SOL    HW113712   2.325   0.363   7.920
 4392SOL    HW213713   2.242   0.390   8.044
 4393SOL     OW13714   3.556   1.491   8.544
 4393SOL    HW113715   3.479   1.468   8.492
 4393SOL    HW213716   3.565   1.419   8.606
 4394SOL     OW13717   2.196   0.557   8.743
 4394SOL    HW113718   2.247   0.497   8.797
 4394SOL    HW213719   2.214   0.531   8.653
 4395SOL     OW13720   2.686   1.579   8.125
 4395SOL    HW113721   2.663   1.652   8.068
 4395SOL    HW213722   2.610   1.521   8.122
 4396SOL     OW13723   3.322   0.254   8.558
 4396SOL    HW113724   3.337   0.166   8.593
 4396SOL    HW213725   3.267   0.297   8.623
 4397SOL     OW13726   2.864   0.026   8.594
 4397SOL    HW113727   2.781   3.999   8.554
 4397SOL    HW213728   2.914   3.944   8.602
 4398SOL     OW13729   2.698   1.281   7.728
 4398SOL    HW113730   2.645   1.206   7.755
 4398SOL    HW213731   2.740   1.311   7.809
 4399SOL     OW13732   2.482   1.556   8.736
 4399SOL    HW113733   2.483   1.638   8.785
 4399SOL    HW213734   2.571   1.549   8.700
 4400SOL     OW13735   3.170   0.070   7.608
 4400SOL    HW113736   3.173   3.984   7.566
 4400SOL    HW213737   3.086   0.070   7.654
 4401SOL     OW13738   3.141   0.457   8.132
 4401SOL    HW113739   3.095   0.540   8.126
 4401SOL    HW213740   3.144   0.437   8.226
 4402SOL     OW13741   3.453   0.210   8.315
 4402SOL    HW113742   3.405   0.234   8.394
 4402SOL    HW213743   3.451   0.289   8.261
 4403SOL     OW13744   1.890   1.068   7.765
 4403SOL    HW113745   1.981   1.076   7.738
 4403SOL    HW213746   1.879   0.975   7.786
 4404SOL     OW13747   2.086   0.619   9.431
 4404SOL    HW113748   1.996   0.628   9.462
 4404SOL    HW213749   2.077   0.599   9.338
 4405SOL     OW13750   2.078   0.302  10.302
 4405SOL    HW113751   2.115   0.258  10.378
 4405SOL    HW213752   1.993   0.260  10.289
 4406SOL     OW13753   1.870   0.399   9.941
 4406SOL    HW113754   1.784   0.414   9.981
 4406SOL    HW213755   1.856   0.331   9.876
 4407SOL     OW13756   2.431   1.294  10.490
 4407SOL    HW113757   2.345   1.300  10.448
 4407SOL    HW213758   2.448   1.383  10.521
 4408SOL     OW13759   3.429   1.514  10.018
 4408SOL    HW113760   3.386   1.491  10.101
 4408SOL    HW213761   3.358   1.519   9.955
 4409SOL     OW13762   2.995   0.698  10.005
 4409SOL    HW113763   3.043   0.781   9.993
 4409SOL    HW213764   2.947   0.710  10.087
 4410SOL     OW13765   3.626   0.624   9.535
 4410SOL    HW113766   3.606   0.612   9.442
 4410SOL    HW213767   3.605   0.540   9.575
 4411SOL     OW13768   2.611   1.138  10.356
 4411SOL    HW113769   2.544   1.175  10.413
 4411SOL    HW213770   2.650   1.214  10.312
 4412SOL     OW13771   2.735   0.766  11.135
 4412SOL    HW113772   2.721   0.836  11.198
 4412SOL    HW213773   2.757   0.811  11.053
 4413SOL     OW13774   2.548   0.998   9.954
 4413SOL    HW113775   2.614   0.990  10.023
 4413SOL    HW213776   2.479   1.052   9.993
 4414SOL     OW13777   2.576   1.149  11.127
 4414SOL    HW113778   2.623   1.227  11.158
 4414SOL    HW213779   2.495   1.184  11.090
 4415SOL     OW13780   2.195   1.414  10.378
 4415SOL    HW113781   2.118   1.380  10.332
 4415SOL    HW213782   2.239   1.469  10.314
 4416SOL     OW13783   3.320   1.502  10.670
 4416SOL    HW113784   3.375   1.580  10.679
 4416SOL    HW213785   3.253   1.511  10.738
 4417SOL     OW13786   2.309   0.391  10.800
 4417SOL    HW113787   2.400   0.363  10.801
 4417SOL    HW213788   2.259   0.309  10.810
 4418SOL     OW13789   3.472   0.450  10.045
 4418SOL    HW113790   3.405   0.483   9.986
 4418SOL    HW213791   3.491   0.523  10.104
 4419SOL     OW13792   2.091   1.691   9.766
 4419SOL    HW113793   2.099   1.763   9.828
 4419SOL    HW213794   2.172   1.692   9.716
 4420SOL     OW13795   2.999   1.343  11.004
 4420SOL    HW113796   3.040   1.336  11.091
 4420SOL    HW213797   2.947   1.263  10.997
 4421SOL     OW13798   2.092   1.431   9.846
 4421SOL    HW113799   2.082   1.526   9.835
 4421SOL    HW213800   2.031   1.408   9.916
 4422SOL     OW13801   2.126   1.091  10.200
 4422SOL    HW113802   2.122   1.003  10.238
 4422SOL    HW213803   2.069   1.144  10.256
 4423SOL     OW13804   2.469   1.792  10.740
 4423SOL    HW113805   2.389   1.775  10.790
 4423SOL    HW213806   2.495   1.881  10.765
 4424SOL     OW13807   2.442   0.985   9.449
 4424SOL    HW113808   2.490   1.030   9.380
 4424SOL    HW213809   2.481   1.016   9.530
 4425SOL     OW13810   3.445   0.143  10.766
 4425SOL    HW113811   3.473   0.215  10.709
 4425SOL    HW213812   3.404   0.186  10.841
 4426SOL     OW13813   1.980   0.658   9.871
 4426SOL    HW113814   1.953   0.569   9.894
 4426SOL    HW213815   1.972   0.708   9.952
 4427SOL     OW13816   3.703   1.757   9.645
 4427SOL    HW113817   3.774   1.733   9.705
 4427SOL    HW213818   3.720   1.849   9.624
 4428SOL     OW13819   1.862   1.610   9.483
 4428SOL    HW113820   1.849   1.518   9.460
 4428SOL    HW213821   1.905   1.608   9.569
 4429SOL     OW13822   3.551   0.919   9.959
 4429SOL    HW113823   3.634   0.875   9.942
 4429SOL    HW213824   3.533   0.968   9.879
 4430SOL     OW13825   3.505   1.103   9.742
 4430SOL    HW113826   3.589   1.108   9.698
 4430SOL    HW213827   3.511   1.166   9.813
 4431SOL     OW13828   1.985   0.751  10.889
 4431SOL    HW113829   2.075   0.784  10.892
 4431SOL    HW213830   1.930   0.829  10.894
 4432SOL     OW13831   2.479   1.390  10.044
 4432SOL    HW113832   2.433   1.306  10.053
 4432SOL    HW213833   2.461   1.418   9.954
 4433SOL     OW13834   3.148   1.236  10.731
 4433SOL    HW113835   3.179   1.169  10.671
 4433SOL    HW213836   3.207   1.232  10.806
 4434SOL     OW13837   2.683   0.006   9.828
 4434SOL    HW113838   2.729   0.086   9.801
 4434SOL    HW213839   2.591   0.030   9.827
 4435SOL     OW13840   2.050   0.960  10.589
 4435SOL    HW113841   2.136   0.922  10.573
 4435SOL    HW213842   1.992   0.914  10.529
 4436SOL     OW13843   3.389   0.998   9.511
 4436SOL    HW113844   3.320   0.941   9.545
 4436SOL    HW213845   3.432   1.033   9.590
 4437SOL     OW13846   3.046   1.811  10.935
 4437SOL    HW113847   3.053   1.871  10.860
 4437SOL    HW213848   3.064   1.725  10.898
 4438SOL     OW13849   2.222   0.250  11.161
 4438SOL    HW113850   2.267   0.335  11.163
 4438SOL    HW213851   2.129   0.273  11.160
 4439SOL     OW13852   3.329   1.420  10.258
 4439SOL    HW113853   3.262   1.436  10.325
 4439SOL    HW213854   3.317   1.328  10.233
 4440SOL     OW13855   3.513   1.750   9.889
 4440SOL    HW113856   3.498   1.717   9.801
 4440SOL    HW213857   3.495   1.676   9.946
 4441SOL     OW13858   2.456   0.718   9.580
 4441SOL    HW113859   2.460   0.802   9.534
 4441SOL    HW213860   2.392   0.732   9.649
 4442SOL     OW13861   3.136   0.371  10.251
 4442SOL    HW113862   3.049   0.333  10.259
 4442SOL    HW213863   3.194   0.310  10.296
 4443SOL     OW13864   3.439   1.672   9.621
 4443SOL    HW113865   3.530   1.700   9.614
 4443SOL    HW213866   3.412   1.656   9.530
 4444SOL     OW13867   2.658   0.615  10.760
 4444SOL    HW113868   2.630   0.589  10.848
 4444SOL    HW213869   2.621   0.548  10.703
 4445SOL     OW13870   3.254   0.475  10.987
 4445SOL    HW113871   3.260   0.521  11.071
 4445SOL    HW213872   3.310   0.398  10.998
 4446SOL     OW13873   2.812   0.887  10.896
 4446SOL    HW113874   2.868   0.819  10.858
 4446SOL    HW213875   2.764   0.923  10.821
 4447SOL     OW13876   2.856   0.401  10.546
 4447SOL    HW113877   2.770   0.420  10.583
 4447SOL    HW213878   2.838   0.376  10.455
 4448SOL     OW13879   2.915   0.700   9.734
 4448SOL    HW113880   2.933   0.694   9.828
 4448SOL    HW213881   2.832   0.654   9.722
 4449SOL     OW13882   1.949   0.823  10.087
 4449SOL    HW113883   2.029   0.815  10.139
 4449SOL    HW213884   1.905   0.900  10.123
 4450SOL     OW13885   2.758   0.353   9.510
 4450SOL    HW113886   2.800   0.412   9.448
 4450SOL    HW213887   2.747   0.271   9.462
 4451SOL     OW13888   3.567   0.572  11.140
 4451SOL    HW113889   3.531   0.647  11.092
 4451SOL    HW213890   3.594   0.510  11.072
 4452SOL     OW13891   3.240   1.141   9.849
 4452SOL    HW113892   3.320   1.130   9.798
 4452SOL    HW213893   3.188   1.204   9.799
 4453SOL     OW13894   2.421   0.199  10.190
 4453SOL    HW113895   2.423   0.219  10.284
 4453SOL    HW213896   2.417   0.285  10.148
 4454SOL     OW13897   2.863   1.444   9.779
 4454SOL    HW113898   2.830   1.519   9.729
 4454SOL    HW213899   2.840   1.464   9.869
 4455SOL     OW13900   2.229   1.801  10.136
 4455SOL    HW113901   2.258   1.714  10.163
 4455SOL    HW213902   2.294   1.861  10.174
 4456SOL     OW13903   3.668   1.062  10.179
 4456SOL    HW113904   3.616   1.035  10.104
 4456SOL    HW213905   3.606   1.065  10.252
 4457SOL     OW13906   3.088   1.540  10.824
 4457SOL    HW113907   3.077   1.468  10.885
 4457SOL    HW213908   3.022   1.525  10.756
 4458SOL     OW13909   2.178   0.961   9.563
 4458SOL    HW113910   2.261   0.980   9.519
 4458SOL    HW213911   2.150   0.878   9.526
 4459SOL     OW13912   3.343   0.750  10.037
 4459SOL    HW113913   3.338   0.709  10.124
 4459SOL    HW213914   3.420   0.806  10.041
 4460SOL     OW13915   2.333   1.265  11.049
 4460SOL    HW113916   2.307   1.268  10.957
 4460SOL    HW213917   2.250   1.262  11.097
 4461SOL     OW13918   2.986   1.778   9.539
 4461SOL    HW113919   2.910   1.739   9.583
 4461SOL    HW213920   3.010   1.715   9.472
 4462SOL     OW13921   2.029   0.274  10.810
 4462SOL    HW113922   1.978   0.353  10.795
 4462SOL    HW213923   2.032   0.265  10.905
 4463SOL     OW13924   3.486   1.385   9.397
 4463SOL    HW113925   3.443   1.469   9.383
 4463SOL    HW213926   3.419   1.319   9.377
 4464SOL     OW13927   2.341   1.709   9.656
 4464SOL    HW113928   2.375   1.787   9.702
 4464SOL    HW213929   2.396   1.702   9.578
 4465SOL     OW13930   3.298   0.175   9.712
 4465SOL    HW113931   3.249   0.099   9.680
 4465SOL    HW213932   3.373   0.136   9.758
 4466SOL     OW13933   2.160   1.766  10.528
 4466SOL    HW113934   2.199   1.683  10.557
 4466SOL    HW213935   2.116   1.744  10.447
 4467SOL     OW13936   2.799   1.700  10.206
 4467SOL    HW113937   2.878   1.650  10.228
 4467SOL    HW213938   2.758   1.649  10.136
 4468SOL     OW13939   2.258   0.695   9.782
 4468SOL    HW113940   2.275   0.602   9.796
 4468SOL    HW213941   2.165   0.706   9.801
 4469SOL     OW13942   3.391   0.228  11.037
 4469SOL    HW113943   3.382   0.252  11.129
 4469SOL    HW213944   3.378   0.133  11.035
 4470SOL     OW13945   2.507   0.127   9.420
 4470SOL    HW113946   2.526   0.042   9.458
 4470SOL    HW213947   2.444   0.108   9.350
 4471SOL     OW13948   2.635   0.283  11.082
 4471SOL    HW113949   2.712   0.226  11.084
 4471SOL    HW213950   2.580   0.252  11.154
 4472SOL     OW13951   2.738   1.523  10.504
 4472SOL    HW113952   2.721   1.486  10.418
 4472SOL    HW213953   2.808   1.469  10.541
 4473SOL     OW13954   3.201   0.587  10.741
 4473SOL    HW113955   3.231   0.559  10.827
 4473SOL    HW213956   3.235   0.676  10.731
 4474SOL     OW13957   2.680   1.391  10.255
 4474SOL    HW113958   2.765   1.379  10.212
 4474SOL    HW213959   2.617   1.396  10.183
 4475SOL     OW13960   2.792   0.512  10.209
 4475SOL    HW113961   2.767   0.503  10.117
 4475SOL    HW213962   2.818   0.423  10.235
 4476SOL     OW13963   2.406   0.056   9.800
 4476SOL    HW113964   2.332   0.061   9.861
 4476SOL    HW213965   2.402   0.137   9.749
 4477SOL     OW13966   3.289   1.200   9.349
 4477SOL    HW113967   3.319   1.125   9.401
 4477SOL    HW213968   3.204   1.223   9.387
 4478SOL     OW13969   2.193   0.046   9.523
 4478SOL    HW113970   2.199   0.110   9.452
 4478SOL    HW213971   2.273   0.059   9.573
 4479SOL     OW13972   2.806   0.251   9.768
 4479SOL    HW113973   2.781   0.290   9.684
 4479SOL    HW213974   2.902   0.258   9.770
 4480SOL     OW13975   2.942   0.686  10.768
 4480SOL    HW113976   2.872   0.620  10.774
 4480SOL    HW213977   3.022   0.635  10.763
 4481SOL     OW13978   3.081   1.572  10.105
 4481SOL    HW113979   3.096   1.637  10.036
 4481SOL    HW213980   3.151   1.588  10.168
 4482SOL     OW13981   2.335   1.152  10.038
 4482SOL    HW113982   2.267   1.133  10.103
 4482SOL    HW213983   2.291   1.139   9.954
 4483SOL     OW13984   3.127   1.792   9.921
 4483SOL    HW113985   3.176   1.853   9.866
 4483SOL    HW213986   3.060   1.846   9.963
 4484SOL     OW13987   2.883   0.540   9.340
 4484SOL    HW113988   2.839   0.623   9.321
 4484SOL    HW213989   2.947   0.562   9.409
 4485SOL     OW13990   1.946   0.549  10.707
 4485SOL    HW113991   2.037   0.552  10.677
 4485SOL    HW213992   1.938   0.622  10.768
 4486SOL     OW13993   2.424   0.231  10.470
 4486SOL    HW113994   2.447   0.138  10.480
 4486SOL    HW213995   2.335   0.237  10.504
 4487SOL     OW13996   2.732   0.460   9.947
 4487SOL    HW113997   2.685   0.515   9.884
 4487SOL    HW213998   2.753   0.381   9.898
 4488SOL     OW13999   2.859   0.038  10.092
 4488SOL    HW114000   2.820   0.069  10.010
 4488SOL    HW214001   2.871   3.944  10.078
 4489SOL     OW14002   3.303   1.160  10.168
 4489SOL    HW114003   3.230   1.098  10.166
 4489SOL    HW214004   3.328   1.170  10.076
 4490SOL     OW14005   3.325   0.610  10.281
 4490SOL    HW114006   3.270   0.532  10.286
 4490SOL    HW214007   3.384   0.602  10.356
 4491SOL     OW14008   3.722   0.825   9.685
 4491SOL    HW114009   3.762   0.767   9.750
 4491SOL    HW214010   3.684   0.765   9.620
 4492SOL     OW14011   2.355   1.422   9.461
 4492SOL    HW114012   2.279   1.396   9.514
 4492SOL    HW214013   2.344   1.372   9.380
 4493SOL     OW14014   3.531   1.266   9.952
 4493SOL    HW114015   3.626   1.268   9.962
 4493SOL    HW214016   3.502   1.355   9.973
 4494SOL     OW14017   3.257   0.577   9.378
 4494SOL    HW114018   3.193   0.558   9.447
 4494SOL    HW214019   3.342   0.562   9.419
 4495SOL     OW14020   2.388   0.266   9.625
 4495SOL    HW114021   2.445   0.228   9.559
 4495SOL    HW214022   2.358   0.349   9.587
 4496SOL     OW14023   3.612   1.233  10.872
 4496SOL    HW114024   3.700   1.198  10.855
 4496SOL    HW214025   3.627   1.322  10.901
 4497SOL     OW14026   2.917   1.354  10.642
 4497SOL    HW114027   2.842   1.322  10.692
 4497SOL    HW214028   2.992   1.312  10.684
 4498SOL     OW14029   3.468   1.629  10.967
 4498SOL    HW114030   3.459   1.664  10.879
 4498SOL    HW214031   3.548   1.576  10.965
 4499SOL     OW14032   2.996   1.209  10.413
 4499SOL    HW114033   2.935   1.247  10.477
 4499SOL    HW214034   2.966   1.243  10.328
 4500SOL     OW14035   3.488   1.094  10.384
 4500SOL    HW114036   3.478   1.157  10.456
 4500SOL    HW214037   3.413   1.111  10.327
 4501SOL     OW14038   2.773   0.119  10.711
 4501SOL    HW114039   2.793   0.089  10.622
 4501SOL    HW214040   2.854   0.160  10.741
 4502SOL     OW14041   2.846   1.115  11.034
 4502SOL    HW114042   2.755   1.132  11.058
 4502SOL    HW214043   2.843   1.037  10.979
 4503SOL     OW14044   2.571   1.063   9.681
 4503SOL    HW114045   2.557   1.043   9.773
 4503SOL    HW214046   2.647   1.009   9.656
 4504SOL     OW14047   2.284   0.817  10.562
 4504SOL    HW114048   2.352   0.826  10.628
 4504SOL    HW214049   2.249   0.729  10.575
 4505SOL     OW14050   3.128   0.375  10.587
 4505SOL    HW114051   3.161   0.453  10.631
 4505SOL    HW214052   3.040   0.399  10.558
 4506SOL     OW14053   1.938   1.577  10.664
 4506SOL    HW114054   1.907   1.642  10.601
 4506SOL    HW214055   2.033   1.575  10.652
 4507SOL     OW14056   2.204   1.115   9.800
 4507SOL    HW114057   2.208   1.191   9.742
 4507SOL    HW214058   2.201   1.039   9.741
 4508SOL     OW14059   2.415   0.529  10.165
 4508SOL    HW114060   2.428   0.589  10.092
 4508SOL    HW214061   2.480   0.556  10.230
 4509SOL     OW14062   3.109   1.350   9.700
 4509SOL    HW114063   3.165   1.421   9.732
 4509SOL    HW214064   3.022   1.371   9.733
 4510SOL     OW14065   3.150   1.461  10.458
 4510SOL    HW114066   3.205   1.465  10.536
 4510SOL    HW214067   3.095   1.383  10.472
 4511SOL     OW14068   3.431   0.634   9.797
 4511SOL    HW114069   3.389   0.686   9.865
 4511SOL    HW214070   3.478   0.697   9.743
 4512SOL     OW14071   2.214   1.514  10.625
 4512SOL    HW114072   2.201   1.470  10.541
 4512SOL    HW214073   2.309   1.525  10.631
 4513SOL     OW14074   2.282   0.745  10.913
 4513SOL    HW114075   2.343   0.789  10.854
 4513SOL    HW214076   2.324   0.660  10.931
 4514SOL     OW14077   3.468   0.780  10.995
 4514SOL    HW114078   3.383   0.822  10.990
 4514SOL    HW214079   3.521   0.822  10.928
 4515SOL     OW14080   2.870   0.138  11.091
 4515SOL    HW114081   2.926   0.208  11.056
 4515SOL    HW214082   2.856   0.079  11.018
 4516SOL     OW14083   2.352   0.035  11.071
 4516SOL    HW114084   2.352   0.050  10.976
 4516SOL    HW214085   2.292   0.100  11.106
 4517SOL     OW14086   2.447   0.874  10.342
 4517SOL    HW114087   2.477   0.965  10.344
 4517SOL    HW214088   2.389   0.867  10.418
 4518SOL     OW14089   3.211   0.859  10.333
 4518SOL    HW114090   3.125   0.845  10.293
 4518SOL    HW214091   3.256   0.775  10.324
 4519SOL     OW14092   3.060   0.538   9.565
 4519SOL    HW114093   3.068   0.459   9.619
 4519SOL    HW214094   3.018   0.602   9.623
 4520SOL     OW14095   2.159   0.208  10.553
 4520SOL    HW114096   2.117   0.236  10.634
 4520SOL    HW214097   2.149   0.113  10.553
 4521SOL     OW14098   1.905   1.313  10.587
 4521SOL    HW114099   1.940   1.257  10.657
 4521SOL    HW214100   1.914   1.402  10.621
 4522SOL     OW14101   2.582   0.631  10.360
 4522SOL    HW114102   2.659   0.620  10.304
 4522SOL    HW214103   2.552   0.720  10.342
 4523SOL     OW14104   3.594   0.957  11.176
 4523SOL    HW114105   3.552   0.893  11.118
 4523SOL    HW214106   3.529   0.973  11.244
 4524SOL     OW14107   2.186   0.054   9.965
 4524SOL    HW114108   2.165   0.147   9.976
 4524SOL    HW214109   2.156   0.014  10.047
 4525SOL     OW14110   3.476   0.395   9.688
 4525SOL    HW114111   3.433   0.327   9.739
 4525SOL    HW214112   3.454   0.476   9.734
 4526SOL     OW14113   2.893   0.759  10.268
 4526SOL    HW114114   2.883   0.776  10.361
 4526SOL    HW214115   2.865   0.668  10.257
 4527SOL     OW14116   2.843   1.567  11.031
 4527SOL    HW114117   2.828   1.610  10.947
 4527SOL    HW214118   2.887   1.485  11.008
 4528SOL     OW14119   3.703   1.495  10.907
 4528SOL    HW114120   3.728   1.526  10.820
 4528SOL    HW214121   3.783   1.504  10.959
 4529SOL     OW14122   2.214   0.915  11.120
 4529SOL    HW114123   2.294   0.936  11.167
 4529SOL    HW214124   2.240   0.853  11.052
 4530SOL     OW14125   3.360   0.272   9.442
 4530SOL    HW114126   3.288   0.210   9.452
 4530SOL    HW214127   3.371   0.310   9.529
 4531SOL     OW14128   3.148   0.827   9.337
 4531SOL    HW114129   3.191   0.741   9.341
 4531SOL    HW214130   3.181   0.866   9.256
 4532SOL     OW14131   2.930   1.338  10.167
 4532SOL    HW114132   2.935   1.266  10.104
 4532SOL    HW214133   2.989   1.405  10.131
 4533SOL     OW14134   2.169   0.810  10.256
 4533SOL    HW114135   2.263   0.831  10.249
 4533SOL    HW214136   2.167   0.720  10.288
 4534SOL     OW14137   2.198   0.538  10.324
 4534SOL    HW114138   2.157   0.453  10.310
 4534SOL    HW214139   2.274   0.537  10.266
 4535SOL     OW14140   2.995   0.379  11.009
 4535SOL    HW114141   2.946   0.433  11.071
 4535SOL    HW214142   3.081   0.420  11.004
 4536SOL     OW14143   3.014   0.226  10.791
 4536SOL    HW114144   3.004   0.279  10.870
 4536SOL    HW214145   3.040   0.288  10.723
 4537SOL     OW14146   1.867   1.318   9.503
 4537SOL    HW114147   1.780   1.331   9.466
 4537SOL    HW214148   1.865   1.228   9.538
 4538SOL     OW14149   1.983   1.725  10.302
 4538SOL    HW114150   1.947   1.661  10.241
 4538SOL    HW214151   2.014   1.797  10.247
 4539SOL     OW14152   2.358   1.570  10.221
 4539SOL    HW114153   2.425   1.635  10.243
 4539SOL    HW214154   2.403   1.510  10.160
 4540SOL     OW14155   2.837   0.786  10.532
 4540SOL    HW114156   2.895   0.769  10.607
 4540SOL    HW214157   2.752   0.750  10.559
 4541SOL     OW14158   1.895   0.549  10.427
 4541SOL    HW114159   1.969   0.524  10.372
 4541SOL    HW214160   1.930   0.547  10.516
 4542SOL     OW14161   2.066   0.527  11.021
 4542SOL    HW114162   2.138   0.507  10.962
 4542SOL    HW214163   2.023   0.603  10.982
 4543SOL     OW14164   3.243   0.934  10.967
 4543SOL    HW114165   3.264   1.028  10.963
 4543SOL    HW214166   3.238   0.908  10.875
 4544SOL     OW14167   2.679   0.572   9.676
 4544SOL    HW114168   2.686   0.498   9.617
 4544SOL    HW214169   2.604   0.623   9.644
 4545SOL     OW14170   3.500   0.602  10.491
 4545SOL    HW114171   3.489   0.542  10.564
 4545SOL    HW214172   3.587   0.582  10.455
 4546SOL     OW14173   2.114   1.536  11.014
 4546SOL    HW114174   2.094   1.604  11.079
 4546SOL    HW214175   2.119   1.455  11.066
 4547SOL     OW14176   2.575   0.451  10.563
 4547SOL    HW114177   2.521   0.374  10.540
 4547SOL    HW214178   2.563   0.511  10.489
 4548SOL     OW14179   2.785   1.679  10.780
 4548SOL    HW114180   2.761   1.640  10.696
 4548SOL    HW214181   2.779   1.773  10.766
 4549SOL     OW14182   2.323   0.493   9.490
 4549SOL    HW114183   2.381   0.565   9.516
 4549SOL    HW214184   2.238   0.535   9.479
 4550SOL     OW14185   2.002   1.142  10.784
 4550SOL    HW114186   2.005   1.094  10.867
 4550SOL    HW214187   2.020   1.075  10.717
 4551SOL     OW14188   3.182   1.043  10.531
 4551SOL    HW114189   3.204   0.981  10.462
 4551SOL    HW214190   3.116   1.100  10.491
 4552SOL     OW14191   3.177   0.854   9.614
 4552SOL    HW114192   3.102   0.827   9.666
 4552SOL    HW214193   3.149   0.843   9.523
 4553SOL     OW14194   3.645   1.739  10.470
 4553SOL    HW114195   3.700   1.767  10.396
 4553SOL    HW214196   3.614   1.652  10.445
 4554SOL     OW14197   3.102   1.734  10.417
 4554SOL    HW114198   3.184   1.757  10.375
 4554SOL    HW214199   3.111   1.640  10.437
 4555SOL     OW14200   1.951   1.261  10.324
 4555SOL    HW114201   1.931   1.279  10.416
 4555SOL    HW214202   1.876   1.210  10.293
 4556SOL     OW14203   2.540   1.670  11.044
 4556SOL    HW114204   2.485   1.748  11.041
 4556SOL    HW214205   2.608   1.686  10.979
 4557SOL     OW14206   3.549   0.118   9.798
 4557SOL    HW114207   3.630   0.135   9.750
 4557SOL    HW214208   3.553   0.025   9.821
 4558SOL     OW14209   3.253   1.567   9.800
 4558SOL    HW114210   3.312   1.601   9.732
 4558SOL    HW214211   3.203   1.644   9.828
 4559SOL     OW14212   2.032   1.734  11.171
 4559SOL    HW114213   1.967   1.699  11.231
 4559SOL    HW214214   2.005   1.825  11.157
 4560SOL     OW14215   3.139   0.928   9.981
 4560SOL    HW114216   3.214   0.869   9.992
 4560SOL    HW214217   3.173   1.000   9.928
 4561SOL     OW14218   2.668   1.275  10.735
 4561SOL    HW114219   2.640   1.316  10.817
 4561SOL    HW214220   2.598   1.295  10.674
 4562SOL     OW14221   2.536   1.625   9.461
 4562SOL    HW114222   2.545   1.637   9.366
 4562SOL    HW214223   2.479   1.548   9.470
 4563SOL     OW14224   3.480   1.728  10.702
 4563SOL    HW114225   3.536   1.732  10.624
 4563SOL    HW214226   3.466   1.819  10.726
 4564SOL     OW14227   3.705   0.182  10.281
 4564SOL    HW114228   3.728   0.097  10.244
 4564SOL    HW214229   3.619   0.201  10.244
 4565SOL     OW14230   2.124   0.315  10.024
 4565SOL    HW114231   2.038   0.350  10.002
 4565SOL    HW214232   2.123   0.309  10.120
 4566SOL     OW14233   3.070   1.602   9.343
 4566SOL    HW114234   3.059   1.511   9.369
 4566SOL    HW214235   3.003   1.615   9.275
 4567SOL     OW14236   2.686   1.006  10.684
 4567SOL    HW114237   2.727   1.002  10.597
 4567SOL    HW214238   2.682   1.100  10.704
 4568SOL     OW14239   2.778   0.911   9.600
 4568SOL    HW114240   2.838   0.944   9.534
 4568SOL    HW214241   2.827   0.843   9.646
 4569SOL     OW14242   3.349   1.631   9.354
 4569SOL    HW114243   3.256   1.620   9.339
 4569SOL    HW214244   3.388   1.636   9.266
 4570SOL     OW14245   2.232   1.296  10.803
 4570SOL    HW114246   2.220   1.374  10.750
 4570SOL    HW214247   2.153   1.244  10.788
 4571SOL     OW14248   3.461   1.280  10.586
 4571SOL    HW114249   3.529   1.270  10.652
 4571SOL    HW214250   3.404   1.349  10.621
 4572SOL     OW14251   2.921   1.110  10.020
 4572SOL    HW114252   2.849   1.060  10.057
 4572SOL    HW214253   2.985   1.044   9.992
 4573SOL     OW14254   2.877   0.250  10.281
 4573SOL    HW114255   2.867   0.199  10.200
 4573SOL    HW214256   2.875   0.184  10.351
 4574SOL     OW14257   2.467   1.489   9.791
 4574SOL    HW114258   2.510   1.439   9.721
 4574SOL    HW214259   2.406   1.547   9.745
 4575SOL     OW14260   3.583   0.395  10.681
 4575SOL    HW114261   3.655   0.458  10.681
 4575SOL    HW214262   3.614   0.323  10.627
 4576SOL     OW14263   2.122   1.344   9.596
 4576SOL    HW114264   2.029   1.339   9.575
 4576SOL    HW214265   2.125   1.378   9.685
 4577SOL     OW14266   1.976   1.030  11.033
 4577SOL    HW114267   1.900   1.004  11.085
 4577SOL    HW214268   2.050   0.988  11.077
 4578SOL     OW14269   2.557   0.262  10.814
 4578SOL    HW114270   2.623   0.205  10.773
 4578SOL    HW214271   2.584   0.266  10.906
 4579SOL     OW14272   1.964   0.317   9.302
 4579SOL    HW114273   1.897   0.336   9.368
 4579SOL    HW214274   1.970   0.397   9.250
 4580SOL     OW14275   3.285   0.856  10.707
 4580SOL    HW114276   3.235   0.918  10.654
 4580SOL    HW214277   3.374   0.859  10.670
 4581SOL     OW14278   1.942   0.151   9.649
 4581SOL    HW114279   1.911   0.209   9.580
 4581SOL    HW214280   2.029   0.123   9.620
 4582SOL     OW14281   3.040   1.336   9.428
 4582SOL    HW114282   2.949   1.305   9.430
 4582SOL    HW214283   3.066   1.337   9.520
 4583SOL     OW14284   2.484   0.828  10.744
 4583SOL    HW114285   2.541   0.904  10.729
 4583SOL    HW214286   2.545   0.755  10.753
 4584SOL     OW14287   3.344   1.785  10.291
 4584SOL    HW114288   3.367   1.849  10.225
 4584SOL    HW214289   3.428   1.753  10.324
 4585SOL     OW14290   2.580   0.559  11.013
 4585SOL    HW114291   2.624   0.621  11.072
 4585SOL    HW214292   2.603   0.473  11.048
 4586SOL     OW14293   3.335   1.195  10.939
 4586SOL    HW114294   3.324   1.210  11.033
 4586SOL    HW214295   3.428   1.212  10.923
 4587SOL     OW14296   2.234   1.748  10.880
 4587SOL    HW114297   2.170   1.757  10.809
 4587SOL    HW214298   2.211   1.667  10.924
 4588SOL     OW14299   3.525   0.880  10.569
 4588SOL    HW114300   3.524   0.795  10.525
 4588SOL    HW214301   3.518   0.944  10.498
 4589SOL     OW14302   3.081   0.339   9.751
 4589SOL    HW114303   3.150   0.274   9.742
 4589SOL    HW214304   3.100   0.383   9.834
 4590SOL     OW14305   2.450   0.734   9.982
 4590SOL    HW114306   2.489   0.821   9.968
 4590SOL    HW214307   2.384   0.727   9.913
 4591SOL     OW14308   3.615   0.381  10.952
 4591SOL    HW114309   3.595   0.390  10.859
 4591SOL    HW214310   3.554   0.314  10.983
 4592SOL     OW14311   3.617   0.930  10.823
 4592SOL    HW114312   3.606   1.023  10.841
 4592SOL    HW214313   3.591   0.920  10.731
 4593SOL     OW14314   2.725   1.365   9.351
 4593SOL    HW114315   2.687   1.391   9.435
 4593SOL    HW214316   2.740   1.448   9.305
 4594SOL     OW14317   2.525   1.791  10.249
 4594SOL    HW114318   2.510   1.882  10.226
 4594SOL    HW214319   2.619   1.778  10.242
 4595SOL     OW14320   2.731   0.970  10.164
 4595SOL    HW114321   2.781   0.898  10.202
 4595SOL    HW214322   2.693   1.015  10.239
 4596SOL     OW14323   2.940   0.990   9.400
 4596SOL    HW114324   2.918   1.041   9.322
 4596SOL    HW214325   3.013   0.935   9.372
 4597SOL     OW14326   3.711   1.556  10.151
 4597SOL    HW114327   3.632   1.540  10.100
 4597SOL    HW214328   3.712   1.488  10.218
 4598SOL     OW14329   2.090   1.299  11.164
 4598SOL    HW114330   2.024   1.235  11.137
 4598SOL    HW214331   2.075   1.311  11.258
 4599SOL     OW14332   1.944   1.222   9.977
 4599SOL    HW114333   1.961   1.178  10.060
 4599SOL    HW214334   2.016   1.194   9.920
 4600SOL     OW14335   2.545   1.407  10.940
 4600SOL    HW114336   2.467   1.364  10.974
 4600SOL    HW214337   2.542   1.495  10.977
 4601SOL     OW14338   3.675   0.181  10.554
 4601SOL    HW114339   3.677   0.086  10.563
 4601SOL    HW214340   3.694   0.197  10.462
 4602SOL     OW14341   2.290   0.435   9.835
 4602SOL    HW114342   2.325   0.363   9.782
 4602SOL    HW214343   2.242   0.391   9.906
 4603SOL     OW14344   3.556   1.490  10.406
 4603SOL    HW114345   3.479   1.469  10.354
 4603SOL    HW214346   3.564   1.418  10.468
 4604SOL     OW14347   2.195   0.557  10.605
 4604SOL    HW114348   2.247   0.497  10.659
 4604SOL    HW214349   2.214   0.531  10.515
 4605SOL     OW14350   2.692   1.578   9.985
 4605SOL    HW114351   2.670   1.638   9.914
 4605SOL    HW214352   2.618   1.517   9.988
 4606SOL     OW14353   3.322   0.254  10.420
 4606SOL    HW114354   3.337   0.166  10.455
 4606SOL    HW214355   3.267   0.297  10.485
 4607SOL     OW14356   2.864   0.025  10.456
 4607SOL    HW114357   2.781   3.999  10.416
 4607SOL    HW214358   2.914   3.944  10.465
 4608SOL     OW14359   2.637   1.333   9.627
 4608SOL    HW114360   2.608   1.243   9.637
 4608SOL    HW214361   2.717   1.338   9.680
 4609SOL     OW14362   2.484   1.555  10.598
 4609SOL    HW114363   2.483   1.637  10.646
 4609SOL    HW214364   2.572   1.549  10.561
 4610SOL     OW14365   3.169   0.070   9.469
 4610SOL    HW114366   3.173   3.982   9.429
 4610SOL    HW214367   3.087   0.071   9.517
 4611SOL     OW14368   3.141   0.456   9.994
 4611SOL    HW114369   3.095   0.540   9.988
 4611SOL    HW214370   3.144   0.437  10.088
 4612SOL     OW14371   3.453   0.210  10.177
 4612SOL    HW114372   3.405   0.234  10.256
 4612SOL    HW214373   3.451   0.289  10.123
 4613SOL     OW14374   1.906   1.069   9.617
 4613SOL    HW114375   2.000   1.060   9.599
 4613SOL    HW214376   1.878   0.980   9.642
 4614SOL     OW14377   2.750   1.659   9.649
 4614SOL    HW114378   2.676   1.642   9.590
 4614SOL    HW214379   2.720   1.732   9.703
 4615SOL     OW14380   2.086   0.618  11.293
 4615SOL    HW114381   1.996   0.628  11.324
 4615SOL    HW214382   2.077   0.599  11.200
 4616SOL     OW14383   2.078   0.302  12.164
 4616SOL    HW114384   2.115   0.258  12.241
 4616SOL    HW214385   1.993   0.260  12.151
 4617SOL     OW14386   1.871   0.399  11.803
 4617SOL    HW114387   1.784   0.414  11.843
 4617SOL    HW214388   1.856   0.331  11.738
 4618SOL     OW14389   2.431   1.294  12.352
 4618SOL    HW114390   2.345   1.300  12.310
 4618SOL    HW214391   2.449   1.383  12.382
 4619SOL     OW14392   3.429   1.514  11.880
 4619SOL    HW114393   3.386   1.491  11.963
 4619SOL    HW214394   3.358   1.519  11.817
 4620SOL     OW14395   2.995   0.698  11.867
 4620SOL    HW114396   3.043   0.781  11.855
 4620SOL    HW214397   2.947   0.710  11.949
 4621SOL     OW14398   3.626   0.624  11.397
 4621SOL    HW114399   3.606   0.612  11.304
 4621SOL    HW214400   3.605   0.540  11.437
 4622SOL     OW14401   2.612   1.138  12.218
 4622SOL    HW114402   2.544   1.175  12.275
 4622SOL    HW214403   2.650   1.214  12.174
 4623SOL     OW14404   2.735   0.766  12.996
 4623SOL    HW114405   2.721   0.838  13.058
 4623SOL    HW214406   2.757   0.810  12.914
 4624SOL     OW14407   2.548   0.998  11.816
 4624SOL    HW114408   2.614   0.990  11.885
 4624SOL    HW214409   2.479   1.052  11.854
 4625SOL     OW14410   2.576   1.150  12.989
 4625SOL    HW114411   2.624   1.227  13.020
 4625SOL    HW214412   2.495   1.184  12.951
 4626SOL     OW14413   2.195   1.414  12.240
 4626SOL    HW114414   2.118   1.380  12.194
 4626SOL    HW214415   2.239   1.469  12.176
 4627SOL     OW14416   3.320   1.502  12.532
 4627SOL    HW114417   3.375   1.580  12.541
 4627SOL    HW214418   3.253   1.512  12.600
 4628SOL     OW14419   2.309   0.391  12.662
 4628SOL    HW114420   2.400   0.363  12.663
 4628SOL    HW214421   2.259   0.310  12.672
 4629SOL     OW14422   3.472   0.450  11.907
 4629SOL    HW114423   3.405   0.483  11.848
 4629SOL    HW214424   3.491   0.523  11.966
 4630SOL     OW14425   2.092   1.688  11.627
 4630SOL    HW114426   2.102   1.758  11.691
 4630SOL    HW214427   2.173   1.691  11.576
 4631SOL     OW14428   2.999   1.342  12.866
 4631SOL    HW114429   3.040   1.336  12.952
 4631SOL    HW214430   2.947   1.262  12.858
 4632SOL     OW14431   2.092   1.429  11.708
 4632SOL    HW114432   2.084   1.524  11.697
 4632SOL    HW214433   2.031   1.408  11.779
 4633SOL     OW14434   2.126   1.091  12.062
 4633SOL    HW114435   2.122   1.003  12.100
 4633SOL    HW214436   2.069   1.144  12.118
 4634SOL     OW14437   2.469   1.792  12.602
 4634SOL    HW114438   2.390   1.775  12.652
 4634SOL    HW214439   2.495   1.881  12.627
 4635SOL     OW14440   2.442   0.985  11.311
 4635SOL    HW114441   2.490   1.030  11.242
 4635SOL    HW214442   2.481   1.016  11.392
 4636SOL     OW14443   3.445   0.143  12.628
 4636SOL    HW114444   3.473   0.215  12.571
 4636SOL    HW214445   3.404   0.186  12.703
 4637SOL     OW14446   1.980   0.658  11.733
 4637SOL    HW114447   1.953   0.569  11.756
 4637SOL    HW214448   1.972   0.708  11.814
 4638SOL     OW14449   3.703   1.757  11.507
 4638SOL    HW114450   3.774   1.733  11.567
 4638SOL    HW214451   3.720   1.849  11.486
 4639SOL     OW14452   1.859   1.612  11.347
 4639SOL    HW114453   1.847   1.520  11.322
 4639SOL    HW214454   1.905   1.608  11.432
 4640SOL     OW14455   3.551   0.919  11.821
 4640SOL    HW114456   3.634   0.875  11.804
 4640SOL    HW214457   3.533   0.968  11.741
 4641SOL     OW14458   3.505   1.103  11.604
 4641SOL    HW114459   3.589   1.108  11.560
 4641SOL    HW214460   3.511   1.166  11.675
 4642SOL     OW14461   1.985   0.750  12.751
 4642SOL    HW114462   2.075   0.784  12.754
 4642SOL    HW214463   1.930   0.829  12.755
 4643SOL     OW14464   2.478   1.390  11.906
 4643SOL    HW114465   2.433   1.306  11.915
 4643SOL    HW214466   2.461   1.418  11.816
 4644SOL     OW14467   3.148   1.236  12.594
 4644SOL    HW114468   3.179   1.169  12.533
 4644SOL    HW214469   3.207   1.231  12.668
 4645SOL     OW14470   2.683   0.006  11.690
 4645SOL    HW114471   2.729   0.086  11.663
 4645SOL    HW214472   2.591   0.030  11.689
 4646SOL     OW14473   2.050   0.960  12.451
 4646SOL    HW114474   2.136   0.922  12.435
 4646SOL    HW214475   1.992   0.914  12.391
 4647SOL     OW14476   3.389   0.998  11.373
 4647SOL    HW114477   3.320   0.941  11.407
 4647SOL    HW214478   3.432   1.033  11.452
 4648SOL     OW14479   3.046   1.811  12.797
 4648SOL    HW114480   3.053   1.871  12.723
 4648SOL    HW214481   3.064   1.725  12.759
 4649SOL     OW14482   2.222   0.250  13.023
 4649SOL    HW114483   2.267   0.334  13.025
 4649SOL    HW214484   2.129   0.272  13.023
 4650SOL     OW14485   3.329   1.420  12.120
 4650SOL    HW114486   3.262   1.436  12.187
 4650SOL    HW214487   3.317   1.328  12.095
 4651SOL     OW14488   3.513   1.750  11.751
 4651SOL    HW114489   3.498   1.717  11.663
 4651SOL    HW214490   3.495   1.676  11.808
 4652SOL     OW14491   2.456   0.719  11.442
 4652SOL    HW114492   2.460   0.802  11.396
 4652SOL    HW214493   2.392   0.732  11.511
 4653SOL     OW14494   3.136   0.372  12.113
 4653SOL    HW114495   3.049   0.333  12.121
 4653SOL    HW214496   3.194   0.310  12.158
 4654SOL     OW14497   3.439   1.672  11.483
 4654SOL    HW114498   3.530   1.700  11.476
 4654SOL    HW214499   3.412   1.656  11.392
 4655SOL     OW14500   2.658   0.615  12.623
 4655SOL    HW114501   2.629   0.589  12.710
 4655SOL    HW214502   2.621   0.548  12.564
 4656SOL     OW14503   3.254   0.476  12.849
 4656SOL    HW114504   3.260   0.521  12.933
 4656SOL    HW214505   3.310   0.398  12.860
 4657SOL     OW14506   2.812   0.887  12.758
 4657SOL    HW114507   2.868   0.819  12.720
 4657SOL    HW214508   2.764   0.923  12.683
 4658SOL     OW14509   2.856   0.402  12.408
 4658SOL    HW114510   2.770   0.420  12.445
 4658SOL    HW214511   2.838   0.376  12.317
 4659SOL     OW14512   2.915   0.700  11.596
 4659SOL    HW114513   2.933   0.693  11.690
 4659SOL    HW214514   2.832   0.654  11.584
 4660SOL     OW14515   1.949   0.823  11.949
 4660SOL    HW114516   2.029   0.815  12.001
 4660SOL    HW214517   1.905   0.900  11.986
 4661SOL     OW14518   2.758   0.353  11.372
 4661SOL    HW114519   2.800   0.413  11.310
 4661SOL    HW214520   2.747   0.271  11.324
 4662SOL     OW14521   3.566   0.573  13.002
 4662SOL    HW114522   3.531   0.648  12.954
 4662SOL    HW214523   3.593   0.511  12.934
 4663SOL     OW14524   3.240   1.141  11.711
 4663SOL    HW114525   3.320   1.130  11.660
 4663SOL    HW214526   3.188   1.204  11.661
 4664SOL     OW14527   2.421   0.199  12.052
 4664SOL    HW114528   2.423   0.219  12.146
 4664SOL    HW214529   2.417   0.285  12.010
 4665SOL     OW14530   2.863   1.444  11.641
 4665SOL    HW114531   2.830   1.519  11.591
 4665SOL    HW214532   2.840   1.464  11.732
 4666SOL     OW14533   2.230   1.801  11.999
 4666SOL    HW114534   2.260   1.714  12.026
 4666SOL    HW214535   2.295   1.861  12.036
 4667SOL     OW14536   3.668   1.062  12.041
 4667SOL    HW114537   3.616   1.035  11.966
 4667SOL    HW214538   3.606   1.065  12.114
 4668SOL     OW14539   3.088   1.540  12.686
 4668SOL    HW114540   3.077   1.468  12.747
 4668SOL    HW214541   3.022   1.525  12.618
 4669SOL     OW14542   2.178   0.961  11.426
 4669SOL    HW114543   2.261   0.981  11.381
 4669SOL    HW214544   2.150   0.878  11.388
 4670SOL     OW14545   3.343   0.750  11.899
 4670SOL    HW114546   3.338   0.709  11.986
 4670SOL    HW214547   3.420   0.806  11.903
 4671SOL     OW14548   2.333   1.265  12.911
 4671SOL    HW114549   2.307   1.268  12.819
 4671SOL    HW214550   2.250   1.261  12.960
 4672SOL     OW14551   2.986   1.778  11.401
 4672SOL    HW114552   2.910   1.739  11.445
 4672SOL    HW214553   3.010   1.715  11.334
 4673SOL     OW14554   2.029   0.274  12.672
 4673SOL    HW114555   1.977   0.354  12.658
 4673SOL    HW214556   2.032   0.264  12.767
 4674SOL     OW14557   3.486   1.385  11.259
 4674SOL    HW114558   3.443   1.469  11.245
 4674SOL    HW214559   3.419   1.319  11.239
 4675SOL     OW14560   2.342   1.709  11.517
 4675SOL    HW114561   2.376   1.787  11.563
 4675SOL    HW214562   2.397   1.702  11.439
 4676SOL     OW14563   3.298   0.175  11.574
 4676SOL    HW114564   3.249   0.099  11.542
 4676SOL    HW214565   3.373   0.136  11.620
 4677SOL     OW14566   2.159   1.763  12.396
 4677SOL    HW114567   2.199   1.680  12.422
 4677SOL    HW214568   2.117   1.743  12.311
 4678SOL     OW14569   2.799   1.700  12.068
 4678SOL    HW114570   2.878   1.650  12.090
 4678SOL    HW214571   2.758   1.649  11.998
 4679SOL     OW14572   2.258   0.695  11.645
 4679SOL    HW114573   2.275   0.602  11.658
 4679SOL    HW214574   2.165   0.706  11.663
 4680SOL     OW14575   3.391   0.228  12.898
 4680SOL    HW114576   3.382   0.253  12.990
 4680SOL    HW214577   3.379   0.133  12.897
 4681SOL     OW14578   2.506   0.127  11.282
 4681SOL    HW114579   2.526   0.042  11.320
 4681SOL    HW214580   2.444   0.108  11.212
 4682SOL     OW14581   2.635   0.284  12.944
 4682SOL    HW114582   2.712   0.226  12.946
 4682SOL    HW214583   2.580   0.252  13.015
 4683SOL     OW14584   2.738   1.523  12.366
 4683SOL    HW114585   2.721   1.486  12.280
 4683SOL    HW214586   2.808   1.469  12.403
 4684SOL     OW14587   3.201   0.587  12.603
 4684SOL    HW114588   3.231   0.559  12.689
 4684SOL    HW214589   3.235   0.676  12.593
 4685SOL     OW14590   2.680   1.391  12.117
 4685SOL    HW114591   2.764   1.379  12.074
 4685SOL    HW214592   2.617   1.396  12.045
 4686SOL     OW14593   2.792   0.512  12.071
 4686SOL    HW114594   2.767   0.503  11.979
 4686SOL    HW214595   2.818   0.423  12.097
 4687SOL     OW14596   2.406   0.056  11.662
 4687SOL    HW114597   2.332   0.061  11.723
 4687SOL    HW214598   2.402   0.137  11.611
 4688SOL     OW14599   3.289   1.200  11.211
 4688SOL    HW114600   3.319   1.125  11.263
 4688SOL    HW214601   3.204   1.223  11.249
 4689SOL     OW14602   2.193   0.046  11.385
 4689SOL    HW114603   2.199   0.110  11.314
 4689SOL    HW214604   2.273   0.059  11.435
 4690SOL     OW14605   2.806   0.251  11.630
 4690SOL    HW114606   2.781   0.290  11.546
 4690SOL    HW214607   2.902   0.258  11.632
 4691SOL     OW14608   2.942   0.685  12.630
 4691SOL    HW114609   2.872   0.620  12.635
 4691SOL    HW214610   3.022   0.635  12.625
 4692SOL     OW14611   3.081   1.573  11.967
 4692SOL    HW114612   3.096   1.637  11.898
 4692SOL    HW214613   3.151   1.588  12.030
 4693SOL     OW14614   2.335   1.152  11.901
 4693SOL    HW114615   2.267   1.133  11.965
 4693SOL    HW214616   2.292   1.139  11.816
 4694SOL     OW14617   3.127   1.792  11.783
 4694SOL    HW114618   3.176   1.853  11.728
 4694SOL    HW214619   3.060   1.846  11.825
 4695SOL     OW14620   2.883   0.540  11.202
 4695SOL    HW114621   2.839   0.623  11.183
 4695SOL    HW214622   2.947   0.562  11.270
 4696SOL     OW14623   1.946   0.549  12.569
 4696SOL    HW114624   2.037   0.552  12.539
 4696SOL    HW214625   1.938   0.622  12.630
 4697SOL     OW14626   2.424   0.231  12.332
 4697SOL    HW114627   2.447   0.138  12.342
 4697SOL    HW214628   2.335   0.237  12.366
 4698SOL     OW14629   2.732   0.460  11.809
 4698SOL    HW114630   2.685   0.515  11.746
 4698SOL    HW214631   2.753   0.381  11.760
 4699SOL     OW14632   2.859   0.038  11.954
 4699SOL    HW114633   2.820   0.069  11.872
 4699SOL    HW214634   2.871   3.944  11.940
 4700SOL     OW14635   3.303   1.160  12.030
 4700SOL    HW114636   3.230   1.098  12.028
 4700SOL    HW214637   3.328   1.170  11.938
 4701SOL     OW14638   3.325   0.610  12.143
 4701SOL    HW114639   3.270   0.532  12.148
 4701SOL    HW214640   3.384   0.602  12.218
 4702SOL     OW14641   3.722   0.825  11.547
 4702SOL    HW114642   3.762   0.767  11.612
 4702SOL    HW214643   3.684   0.765  11.482
 4703SOL     OW14644   2.355   1.422  11.323
 4703SOL    HW114645   2.279   1.396  11.376
 4703SOL    HW214646   2.345   1.372  11.241
 4704SOL     OW14647   3.531   1.266  11.814
 4704SOL    HW114648   3.626   1.268  11.824
 4704SOL    HW214649   3.502   1.355  11.835
 4705SOL     OW14650   3.257   0.577  11.240
 4705SOL    HW114651   3.193   0.558  11.309
 4705SOL    HW214652   3.342   0.563  11.281
 4706SOL     OW14653   2.388   0.266  11.487
 4706SOL    HW114654   2.445   0.228  11.421
 4706SOL    HW214655   2.358   0.349  11.449
 4707SOL     OW14656   3.613   1.232  12.735
 4707SOL    HW114657   3.700   1.198  12.717
 4707SOL    HW214658   3.627   1.322  12.764
 4708SOL     OW14659   2.917   1.354  12.504
 4708SOL    HW114660   2.842   1.322  12.554
 4708SOL    HW214661   2.992   1.312  12.546
 4709SOL     OW14662   3.468   1.629  12.829
 4709SOL    HW114663   3.459   1.664  12.741
 4709SOL    HW214664   3.548   1.576  12.827
 4710SOL     OW14665   2.996   1.209  12.275
 4710SOL    HW114666   2.935   1.246  12.339
 4710SOL    HW214667   2.966   1.243  12.190
 4711SOL     OW14668   3.488   1.094  12.246
 4711SOL    HW114669   3.478   1.157  12.318
 4711SOL    HW214670   3.413   1.111  12.189
 4712SOL     OW14671   2.773   0.119  12.573
 4712SOL    HW114672   2.793   0.089  12.484
 4712SOL    HW214673   2.854   0.160  12.603
 4713SOL     OW14674   2.846   1.115  12.896
 4713SOL    HW114675   2.755   1.132  12.919
 4713SOL    HW214676   2.843   1.037  12.841
 4714SOL     OW14677   2.571   1.063  11.543
 4714SOL    HW114678   2.557   1.043  11.635
 4714SOL    HW214679   2.647   1.009  11.518
 4715SOL     OW14680   2.284   0.817  12.424
 4715SOL    HW114681   2.352   0.826  12.490
 4715SOL    HW214682   2.249   0.729  12.437
 4716SOL     OW14683   3.128   0.375  12.449
 4716SOL    HW114684   3.161   0.453  12.493
 4716SOL    HW214685   3.040   0.399  12.419
 4717SOL     OW14686   1.937   1.576  12.526
 4717SOL    HW114687   1.905   1.642  12.464
 4717SOL    HW214688   2.032   1.576  12.513
 4718SOL     OW14689   2.204   1.115  11.662
 4718SOL    HW114690   2.209   1.190  11.604
 4718SOL    HW214691   2.201   1.039  11.603
 4719SOL     OW14692   2.415   0.529  12.027
 4719SOL    HW114693   2.428   0.589  11.954
 4719SOL    HW214694   2.480   0.556  12.092
 4720SOL     OW14695   3.109   1.349  11.562
 4720SOL    HW114696   3.165   1.421  11.594
 4720SOL    HW214697   3.022   1.371  11.595
 4721SOL     OW14698   3.150   1.461  12.320
 4721SOL    HW114699   3.205   1.465  12.398
 4721SOL    HW214700   3.095   1.383  12.334
 4722SOL     OW14701   3.432   0.634  11.659
 4722SOL    HW114702   3.389   0.686  11.727
 4722SOL    HW214703   3.478   0.697  11.605
 4723SOL     OW14704   2.216   1.511  12.488
 4723SOL    HW114705   2.201   1.468  12.404
 4723SOL    HW214706   2.310   1.523  12.493
 4724SOL     OW14707   2.282   0.745  12.775
 4724SOL    HW114708   2.343   0.790  12.716
 4724SOL    HW214709   2.323   0.661  12.793
 4725SOL     OW14710   3.468   0.780  12.857
 4725SOL    HW114711   3.382   0.823  12.851
 4725SOL    HW214712   3.521   0.823  12.790
 4726SOL     OW14713   2.871   0.138  12.954
 4726SOL    HW114714   2.926   0.208  12.918
 4726SOL    HW214715   2.856   0.079  12.881
 4727SOL     OW14716   2.352   0.035  12.932
 4727SOL    HW114717   2.352   0.050  12.838
 4727SOL    HW214718   2.292   0.100  12.967
 4728SOL     OW14719   2.447   0.874  12.204
 4728SOL    HW114720   2.477   0.965  12.206
 4728SOL    HW214721   2.389   0.867  12.280
 4729SOL     OW14722   3.211   0.859  12.195
 4729SOL    HW114723   3.125   0.845  12.155
 4729SOL    HW214724   3.256   0.775  12.186
 4730SOL     OW14725   3.060   0.538  11.427
 4730SOL    HW114726   3.068   0.459  11.481
 4730SOL    HW214727   3.018   0.602  11.485
 4731SOL     OW14728   2.159   0.208  12.415
 4731SOL    HW114729   2.117   0.237  12.496
 4731SOL    HW214730   2.149   0.113  12.415
 4732SOL     OW14731   1.905   1.313  12.449
 4732SOL    HW114732   1.940   1.257  12.519
 4732SOL    HW214733   1.914   1.402  12.483
 4733SOL     OW14734   2.582   0.631  12.222
 4733SOL    HW114735   2.659   0.620  12.166
 4733SOL    HW214736   2.552   0.720  12.204
 4734SOL     OW14737   3.594   0.955  13.040
 4734SOL    HW114738   3.552   0.892  12.980
 4734SOL    HW214739   3.528   0.972  13.107
 4735SOL     OW14740   2.186   0.054  11.827
 4735SOL    HW114741   2.165   0.147  11.838
 4735SOL    HW214742   2.156   0.014  11.909
 4736SOL     OW14743   3.476   0.395  11.550
 4736SOL    HW114744   3.433   0.327  11.601
 4736SOL    HW214745   3.454   0.476  11.596
 4737SOL     OW14746   2.893   0.759  12.130
 4737SOL    HW114747   2.883   0.776  12.223
 4737SOL    HW214748   2.865   0.668  12.119
 4738SOL     OW14749   2.843   1.567  12.893
 4738SOL    HW114750   2.828   1.610  12.809
 4738SOL    HW214751   2.887   1.485  12.869
 4739SOL     OW14752   3.703   1.495  12.769
 4739SOL    HW114753   3.728   1.526  12.682
 4739SOL    HW214754   3.783   1.504  12.821
 4740SOL     OW14755   2.214   0.914  12.983
 4740SOL    HW114756   2.295   0.936  13.028
 4740SOL    HW214757   2.240   0.853  12.915
 4741SOL     OW14758   3.360   0.272  11.304
 4741SOL    HW114759   3.288   0.210  11.314
 4741SOL    HW214760   3.371   0.310  11.391
 4742SOL     OW14761   3.148   0.827  11.199
 4742SOL    HW114762   3.191   0.741  11.203
 4742SOL    HW214763   3.181   0.866  11.118
 4743SOL     OW14764   2.930   1.338  12.029
 4743SOL    HW114765   2.935   1.266  11.966
 4743SOL    HW214766   2.989   1.405  11.993
 4744SOL     OW14767   2.169   0.810  12.118
 4744SOL    HW114768   2.263   0.831  12.111
 4744SOL    HW214769   2.167   0.720  12.150
 4745SOL     OW14770   2.198   0.538  12.186
 4745SOL    HW114771   2.157   0.453  12.172
 4745SOL    HW214772   2.274   0.537  12.128
 4746SOL     OW14773   2.995   0.379  12.871
 4746SOL    HW114774   2.946   0.434  12.932
 4746SOL    HW214775   3.081   0.420  12.866
 4747SOL     OW14776   3.014   0.226  12.653
 4747SOL    HW114777   3.004   0.279  12.732
 4747SOL    HW214778   3.040   0.288  12.585
 4748SOL     OW14779   1.867   1.318  11.366
 4748SOL    HW114780   1.780   1.332  11.328
 4748SOL    HW214781   1.865   1.228  11.400
 4749SOL     OW14782   1.981   1.727  12.161
 4749SOL    HW114783   1.945   1.662  12.101
 4749SOL    HW214784   2.012   1.797  12.105
 4750SOL     OW14785   2.359   1.570  12.083
 4750SOL    HW114786   2.425   1.635  12.105
 4750SOL    HW214787   2.403   1.510  12.022
 4751SOL     OW14788   2.837   0.786  12.394
 4751SOL    HW114789   2.895   0.769  12.469
 4751SOL    HW214790   2.752   0.750  12.421
 4752SOL     OW14791   1.895   0.549  12.289
 4752SOL    HW114792   1.969   0.524  12.234
 4752SOL    HW214793   1.930   0.547  12.378
 4753SOL     OW14794   2.067   0.528  12.884
 4753SOL    HW114795   2.138   0.507  12.824
 4753SOL    HW214796   2.023   0.603  12.844
 4754SOL     OW14797   3.243   0.935  12.828
 4754SOL    HW114798   3.264   1.028  12.825
 4754SOL    HW214799   3.238   0.908  12.737
 4755SOL     OW14800   2.679   0.572  11.538
 4755SOL    HW114801   2.686   0.498  11.479
 4755SOL    HW214802   2.604   0.623  11.506
 4756SOL     OW14803   3.500   0.602  12.353
 4756SOL    HW114804   3.489   0.541  12.426
 4756SOL    HW214805   3.587   0.582  12.317
 4757SOL     OW14806   2.114   1.535  12.876
 4757SOL    HW114807   2.095   1.603  12.940
 4757SOL    HW214808   2.119   1.454  12.927
 4758SOL     OW14809   2.575   0.451  12.425
 4758SOL    HW114810   2.522   0.374  12.402
 4758SOL    HW214811   2.564   0.511  12.351
 4759SOL     OW14812   2.785   1.679  12.642
 4759SOL    HW114813   2.761   1.640  12.558
 4759SOL    HW214814   2.779   1.773  12.628
 4760SOL     OW14815   2.323   0.493  11.352
 4760SOL    HW114816   2.381   0.565  11.378
 4760SOL    HW214817   2.238   0.534  11.341
 4761SOL     OW14818   2.002   1.141  12.646
 4761SOL    HW114819   2.004   1.094  12.729
 4761SOL    HW214820   2.019   1.075  12.579
 4762SOL     OW14821   3.182   1.043  12.393
 4762SOL    HW114822   3.204   0.981  12.324
 4762SOL    HW214823   3.116   1.100  12.353
 4763SOL     OW14824   3.177   0.854  11.476
 4763SOL    HW114825   3.102   0.827  11.528
 4763SOL    HW214826   3.149   0.843  11.385
 4764SOL     OW14827   3.645   1.739  12.332
 4764SOL    HW114828   3.700   1.767  12.258
 4764SOL    HW214829   3.614   1.652  12.307
 4765SOL     OW14830   3.102   1.734  12.279
 4765SOL    HW114831   3.184   1.757  12.237
 4765SOL    HW214832   3.111   1.640  12.299
 4766SOL     OW14833   1.951   1.261  12.186
 4766SOL    HW114834   1.931   1.279  12.278
 4766SOL    HW214835   1.876   1.210  12.155
 4767SOL     OW14836   2.540   1.670  12.906
 4767SOL    HW114837   2.484   1.748  12.902
 4767SOL    HW214838   2.608   1.686  12.841
 4768SOL     OW14839   3.549   0.118  11.660
 4768SOL    HW114840   3.630   0.135  11.612
 4768SOL    HW214841   3.553   0.025  11.683
 4769SOL     OW14842   3.253   1.567  11.662
 4769SOL    HW114843   3.312   1.601  11.594
 4769SOL    HW214844   3.203   1.644  11.690
 4770SOL     OW14845   2.032   1.731  13.034
 4770SOL    HW114846   1.966   1.697  13.094
 4770SOL    HW214847   2.006   1.822  13.019
 4771SOL     OW14848   3.139   0.928  11.843
 4771SOL    HW114849   3.214   0.869  11.854
 4771SOL    HW214850   3.173   1.000  11.790
 4772SOL     OW14851   2.668   1.275  12.597
 4772SOL    HW114852   2.640   1.316  12.679
 4772SOL    HW214853   2.598   1.295  12.535
 4773SOL     OW14854   2.536   1.625  11.323
 4773SOL    HW114855   2.546   1.637  11.228
 4773SOL    HW214856   2.479   1.548  11.331
 4774SOL     OW14857   3.480   1.728  12.564
 4774SOL    HW114858   3.536   1.732  12.486
 4774SOL    HW214859   3.466   1.819  12.588
 4775SOL     OW14860   3.705   0.182  12.143
 4775SOL    HW114861   3.728   0.097  12.106
 4775SOL    HW214862   3.619   0.201  12.106
 4776SOL     OW14863   2.124   0.315  11.887
 4776SOL    HW114864   2.038   0.350  11.864
 4776SOL    HW214865   2.123   0.309  11.982
 4777SOL     OW14866   3.070   1.602  11.205
 4777SOL    HW114867   3.059   1.511  11.231
 4777SOL    HW214868   3.004   1.616  11.137
 4778SOL     OW14869   2.686   1.006  12.546
 4778SOL    HW114870   2.727   1.002  12.459
 4778SOL    HW214871   2.682   1.100  12.566
 4779SOL     OW14872   2.778   0.911  11.463
 4779SOL    HW114873   2.838   0.944  11.396
 4779SOL    HW214874   2.827   0.843  11.508
 4780SOL     OW14875   3.349   1.631  11.216
 4780SOL    HW114876   3.256   1.620  11.201
 4780SOL    HW214877   3.388   1.636  11.129
 4781SOL     OW14878   2.232   1.295  12.666
 4781SOL    HW114879   2.221   1.373  12.612
 4781SOL    HW214880   2.153   1.243  12.650
 4782SOL     OW14881   3.461   1.280  12.448
 4782SOL    HW114882   3.530   1.271  12.514
 4782SOL    HW214883   3.404   1.349  12.483
 4783SOL     OW14884   2.921   1.110  11.882
 4783SOL    HW114885   2.849   1.060  11.919
 4783SOL    HW214886   2.985   1.044  11.854
 4784SOL     OW14887   2.877   0.250  12.143
 4784SOL    HW114888   2.867   0.199  12.062
 4784SOL    HW214889   2.875   0.184  12.213
 4785SOL     OW14890   2.467   1.489  11.653
 4785SOL    HW114891   2.510   1.439  11.584
 4785SOL    HW214892   2.407   1.547  11.607
 4786SOL     OW14893   3.583   0.395  12.543
 4786SOL    HW114894   3.655   0.458  12.544
 4786SOL    HW214895   3.614   0.322  12.489
 4787SOL     OW14896   2.123   1.343  11.457
 4787SOL    HW114897   2.029   1.339  11.436
 4787SOL    HW214898   2.125   1.377  11.547
 4788SOL     OW14899   1.976   1.030  12.896
 4788SOL    HW114900   1.900   1.003  12.947
 4788SOL    HW214901   2.050   0.987  12.940
 4789SOL     OW14902   2.557   0.262  12.676
 4789SOL    HW114903   2.623   0.206  12.634
 4789SOL    HW214904   2.584   0.266  12.768
 4790SOL     OW14905   1.964   0.317  11.164
 4790SOL    HW114906   1.897   0.336  11.230
 4790SOL    HW214907   1.970   0.397  11.112
 4791SOL     OW14908   3.285   0.856  12.569
 4791SOL    HW114909   3.235   0.918  12.516
 4791SOL    HW214910   3.374   0.859  12.532
 4792SOL     OW14911   1.942   0.151  11.511
 4792SOL    HW114912   1.911   0.209  11.442
 4792SOL    HW214913   2.029   0.123  11.482
 4793SOL     OW14914   3.040   1.336  11.290
 4793SOL    HW114915   2.949   1.306  11.291
 4793SOL    HW214916   3.066   1.336  11.382
 4794SOL     OW14917   2.484   0.828  12.606
 4794SOL    HW114918   2.541   0.904  12.591
 4794SOL    HW214919   2.545   0.755  12.615
 4795SOL     OW14920   3.344   1.784  12.153
 4795SOL    HW114921   3.366   1.849  12.087
 4795SOL    HW214922   3.428   1.753  12.186
 4796SOL     OW14923   2.580   0.559  12.875
 4796SOL    HW114924   2.624   0.621  12.934
 4796SOL    HW214925   2.603   0.473  12.910
 4797SOL     OW14926   3.335   1.195  12.801
 4797SOL    HW114927   3.324   1.210  12.895
 4797SOL    HW214928   3.428   1.212  12.785
 4798SOL     OW14929   2.234   1.748  12.741
 4798SOL    HW114930   2.172   1.756  12.669
 4798SOL    HW214931   2.210   1.666  12.785
 4799SOL     OW14932   3.525   0.880  12.431
 4799SOL    HW114933   3.524   0.795  12.387
 4799SOL    HW214934   3.518   0.944  12.360
 4800SOL     OW14935   3.081   0.339  11.613
 4800SOL    HW114936   3.150   0.274  11.604
 4800SOL    HW214937   3.100   0.383  11.696
 4801SOL     OW14938   2.450   0.735  11.844
 4801SOL    HW114939   2.489   0.821  11.830
 4801SOL    HW214940   2.384   0.726  11.775
 4802SOL     OW14941   3.615   0.381  12.814
 4802SOL    HW114942   3.594   0.391  12.721
 4802SOL    HW214943   3.554   0.314  12.845
 4803SOL     OW14944   3.617   0.930  12.685
 4803SOL    HW114945   3.606   1.023  12.703
 4803SOL    HW214946   3.591   0.920  12.593
 4804SOL     OW14947   2.726   1.365  11.213
 4804SOL    HW114948   2.687   1.391  11.297
 4804SOL    HW214949   2.741   1.448  11.167
 4805SOL     OW14950   2.525   1.791  12.111
 4805SOL    HW114951   2.511   1.882  12.088
 4805SOL    HW214952   2.619   1.778  12.104
 4806SOL     OW14953   2.731   0.970  12.026
 4806SOL    HW114954   2.781   0.898  12.064
 4806SOL    HW214955   2.693   1.015  12.101
 4807SOL     OW14956   2.940   0.989  11.262
 4807SOL    HW114957   2.918   1.041  11.184
 4807SOL    HW214958   3.013   0.935  11.234
 4808SOL     OW14959   3.711   1.556  12.013
 4808SOL    HW114960   3.632   1.540  11.962
 4808SOL    HW214961   3.711   1.488  12.080
 4809SOL     OW14962   2.090   1.298  13.026
 4809SOL    HW114963   2.024   1.235  12.999
 4809SOL    HW214964   2.074   1.310  13.119
 4810SOL     OW14965   1.944   1.221  11.839
 4810SOL    HW114966   1.961   1.177  11.922
 4810SOL    HW214967   2.016   1.194  11.782
 4811SOL     OW14968   2.545   1.407  12.802
 4811SOL    HW114969   2.467   1.364  12.836
 4811SOL    HW214970   2.542   1.495  12.839
 4812SOL     OW14971   3.676   0.181  12.417
 4812SOL    HW114972   3.677   0.086  12.426
 4812SOL    HW214973   3.694   0.197  12.324
 4813SOL     OW14974   2.290   0.435  11.697
 4813SOL    HW114975   2.325   0.363  11.644
 4813SOL    HW214976   2.242   0.391  11.768
 4814SOL     OW14977   3.556   1.490  12.268
 4814SOL    HW114978   3.479   1.469  12.216
 4814SOL    HW214979   3.564   1.418  12.330
 4815SOL     OW14980   2.196   0.557  12.467
 4815SOL    HW114981   2.247   0.497  12.521
 4815SOL    HW214982   2.214   0.531  12.377
 4816SOL     OW14983   2.691   1.578  11.847
 4816SOL    HW114984   2.670   1.638  11.775
 4816SOL    HW214985   2.618   1.517  11.850
 4817SOL     OW14986   3.323   0.254  12.282
 4817SOL    HW114987   3.336   0.166  12.317
 4817SOL    HW214988   3.267   0.297  12.347
 4818SOL     OW14989   2.864   0.025  12.318
 4818SOL    HW114990   2.781   3.999  12.278
 4818SOL    HW214991   2.914   3.944  12.327
 4819SOL     OW14992   2.637   1.333  11.490
 4819SOL    HW114993   2.608   1.243  11.499
 4819SOL    HW214994   2.717   1.338  11.542
 4820SOL     OW14995   2.484   1.555  12.460
 4820SOL    HW114996   2.484   1.637  12.508
 4820SOL    HW214997   2.572   1.549  12.423
 4821SOL     OW14998   3.169   0.069  11.331
 4821SOL    HW114999   3.173   3.982  11.291
 4821SOL    HW215000   3.087   0.071  11.379
 4822SOL     OW15001   3.141   0.456  11.856
 4822SOL    HW115002   3.095   0.540  11.850
 4822SOL    HW215003   3.144   0.437  11.950
 4823SOL     OW15004   3.453   0.210  12.039
 4823SOL    HW115005   3.405   0.234  12.118
 4823SOL    HW215006   3.451   0.289  11.985
 4824SOL     OW15007   1.906   1.069  11.479
 4824SOL    HW115008   2.000   1.060  11.462
 4824SOL    HW215009   1.878   0.980  11.504
 4825SOL     OW15010   2.750   1.659  11.511
 4825SOL    HW115011   2.676   1.642  11.451
 4825SOL    HW215012   2.720   1.732  11.565
 4826SOL     OW15013   2.086   0.619  13.156
 4826SOL    HW115014   1.995   0.626  13.187
 4826SOL    HW215015   2.078   0.599  13.062
 4827SOL     OW15016   2.115   0.266   0.127
 4827SOL    HW115017   2.162   0.332   0.178
 4827SOL    HW215018   2.023   0.291   0.133
 4828SOL     OW15019   1.870   0.388  13.644
 4828SOL    HW115020   1.776   0.399  13.658
 4828SOL    HW215021   1.880   0.299  13.610
 4829SOL     OW15022   3.382   1.496  13.730
 4829SOL    HW115023   3.329   1.424  13.763
 4829SOL    HW215024   3.339   1.522  13.648
 4830SOL     OW15025   2.995   0.697  13.728
 4830SOL    HW115026   3.047   0.775  13.708
 4830SOL    HW215027   2.937   0.725  13.799
 4831SOL     OW15028   3.637   0.621  13.257
 4831SOL    HW115029   3.612   0.612  13.165
 4831SOL    HW215030   3.605   0.541  13.298
 4832SOL     OW15031   2.545   1.012  13.671
 4832SOL    HW115032   2.598   0.993  13.749
 4832SOL    HW215033   2.470   1.061  13.705
 4833SOL     OW15034   3.473   0.458  13.758
 4833SOL    HW115035   3.385   0.467  13.723
 4833SOL    HW215036   3.496   0.546  13.788
 4834SOL     OW15037   2.095   1.687  13.495
 4834SOL    HW115038   2.104   1.763  13.553
 4834SOL    HW215039   2.173   1.689  13.440
 4835SOL     OW15040   2.098   1.426  13.569
 4835SOL    HW115041   2.089   1.521  13.560
 4835SOL    HW215042   2.034   1.403  13.637
 4836SOL     OW15043   2.101   1.111   0.029
 4836SOL    HW115044   2.120   1.048   0.098
 4836SOL    HW215045   2.033   1.167   0.067
 4837SOL     OW15046   2.441   0.985  13.171
 4837SOL    HW115047   2.489   1.030  13.101
 4837SOL    HW215048   2.480   1.017  13.252
 4838SOL     OW15049   1.982   0.659  13.588
 4838SOL    HW115050   1.954   0.569  13.601
 4838SOL    HW215051   1.966   0.702  13.672
 4839SOL     OW15052   3.703   1.758  13.368
 4839SOL    HW115053   3.775   1.732  13.426
 4839SOL    HW215054   3.721   1.850  13.348
 4840SOL     OW15055   1.857   1.612  13.211
 4840SOL    HW115056   1.844   1.521  13.184
 4840SOL    HW215057   1.905   1.607  13.294
 4841SOL     OW15058   3.546   0.916  13.668
 4841SOL    HW115059   3.633   0.883  13.647
 4841SOL    HW215060   3.525   0.974  13.595
 4842SOL     OW15061   3.504   1.104  13.463
 4842SOL    HW115062   3.588   1.107  13.418
 4842SOL    HW215063   3.512   1.169  13.533
 4843SOL     OW15064   2.466   1.383  13.758
 4843SOL    HW115065   2.421   1.298  13.764
 4843SOL    HW215066   2.443   1.416  13.671
 4844SOL     OW15067   2.684   0.007  13.550
 4844SOL    HW115068   2.728   0.087  13.523
 4844SOL    HW215069   2.591   0.027  13.546
 4845SOL     OW15070   3.388   0.997  13.235
 4845SOL    HW115071   3.320   0.939  13.269
 4845SOL    HW215072   3.429   1.034  13.314
 4846SOL     OW15073   3.513   1.748  13.613
 4846SOL    HW115074   3.494   1.715  13.525
 4846SOL    HW215075   3.510   1.670  13.669
 4847SOL     OW15076   2.454   0.720  13.301
 4847SOL    HW115077   2.457   0.803  13.254
 4847SOL    HW215078   2.389   0.733  13.370
 4848SOL     OW15079   3.096   0.342   0.048
 4848SOL    HW115080   3.010   0.328   0.089
 4848SOL    HW215081   3.157   0.297   0.106
 4849SOL     OW15082   3.439   1.677  13.343
 4849SOL    HW115083   3.531   1.704  13.337
 4849SOL    HW215084   3.413   1.659  13.252
 4850SOL     OW15085   2.912   0.697  13.458
 4850SOL    HW115086   2.928   0.684  13.551
 4850SOL    HW215087   2.829   0.652  13.441
 4851SOL     OW15088   1.941   0.817  13.813
 4851SOL    HW115089   2.020   0.814  13.867
 4851SOL    HW215090   1.893   0.893  13.844
 4852SOL     OW15091   2.757   0.352  13.233
 4852SOL    HW115092   2.799   0.412  13.171
 4852SOL    HW215093   2.748   0.270  13.184
 4853SOL     OW15094   3.223   1.133  13.548
 4853SOL    HW115095   3.313   1.134  13.516
 4853SOL    HW215096   3.181   1.206  13.502
 4854SOL     OW15097   2.858   1.439  13.501
 4854SOL    HW115098   2.830   1.516  13.452
 4854SOL    HW215099   2.825   1.454  13.589
 4855SOL     OW15100   2.279   1.789  13.842
 4855SOL    HW115101   2.239   1.714  13.886
 4855SOL    HW215102   2.357   1.808  13.895
 4856SOL     OW15103   3.655   1.050  13.899
 4856SOL    HW115104   3.598   1.044  13.823
 4856SOL    HW215105   3.595   1.048   0.074
 4857SOL     OW15106   2.179   0.961  13.288
 4857SOL    HW115107   2.260   0.981  13.242
 4857SOL    HW215108   2.149   0.879  13.250
 4858SOL     OW15109   3.358   0.732  13.753
 4858SOL    HW115110   3.344   0.698  13.842
 4858SOL    HW215111   3.424   0.800  13.763
 4859SOL     OW15112   2.985   1.779  13.262
 4859SOL    HW115113   2.911   1.739  13.307
 4859SOL    HW215114   3.010   1.715  13.195
 4860SOL     OW15115   3.486   1.385  13.121
 4860SOL    HW115116   3.443   1.469  13.106
 4860SOL    HW215117   3.419   1.319  13.101
 4861SOL     OW15118   2.341   1.710  13.376
 4861SOL    HW115119   2.375   1.786  13.423
 4861SOL    HW215120   2.397   1.703  13.298
 4862SOL     OW15121   3.284   0.173  13.438
 4862SOL    HW115122   3.246   0.112  13.375
 4862SOL    HW215123   3.371   0.137  13.455
 4863SOL     OW15124   2.781   1.688   0.008
 4863SOL    HW115125   2.803   1.622   0.073
 4863SOL    HW215126   2.745   1.637  13.834
 4864SOL     OW15127   2.257   0.699  13.504
 4864SOL    HW115128   2.275   0.605  13.516
 4864SOL    HW215129   2.163   0.707  13.521
 4865SOL     OW15130   2.507   0.127  13.143
 4865SOL    HW115131   2.526   0.042  13.181
 4865SOL    HW215132   2.445   0.108  13.072
 4866SOL     OW15133   2.411   0.055  13.525
 4866SOL    HW115134   2.336   0.058  13.584
 4866SOL    HW215135   2.404   0.135  13.473
 4867SOL     OW15136   3.289   1.200  13.073
 4867SOL    HW115137   3.318   1.125  13.125
 4867SOL    HW215138   3.203   1.223  13.110
 4868SOL     OW15139   2.195   0.046  13.243
 4868SOL    HW115140   2.202   0.111  13.173
 4868SOL    HW215141   2.277   0.056  13.293
 4869SOL     OW15142   2.805   0.251  13.491
 4869SOL    HW115143   2.779   0.290  13.407
 4869SOL    HW215144   2.900   0.260  13.493
 4870SOL     OW15145   2.323   1.144  13.768
 4870SOL    HW115146   2.252   1.131  13.830
 4870SOL    HW215147   2.283   1.132  13.682
 4871SOL     OW15148   3.129   1.795  13.634
 4871SOL    HW115149   3.173   1.863  13.583
 4871SOL    HW215150   3.060   1.842  13.682
 4872SOL     OW15151   2.883   0.540  13.064
 4872SOL    HW115152   2.839   0.623  13.044
 4872SOL    HW215153   2.946   0.562  13.132
 4873SOL     OW15154   2.765   0.474  13.670
 4873SOL    HW115155   2.695   0.520  13.624
 4873SOL    HW215156   2.772   0.390  13.625
 4874SOL     OW15157   2.864   0.038  13.793
 4874SOL    HW115158   2.829   0.063  13.707
 4874SOL    HW215159   2.887   3.946  13.783
 4875SOL     OW15160   3.729   0.822  13.411
 4875SOL    HW115161   3.775   0.765  13.473
 4875SOL    HW215162   3.692   0.762  13.346
 4876SOL     OW15163   2.355   1.421  13.184
 4876SOL    HW115164   2.280   1.396  13.237
 4876SOL    HW215165   2.345   1.373  13.102
 4877SOL     OW15166   3.541   1.271  13.664
 4877SOL    HW115167   3.635   1.273  13.679
 4877SOL    HW215168   3.509   1.354  13.700
 4878SOL     OW15169   3.256   0.577  13.103
 4878SOL    HW115170   3.193   0.557  13.172
 4878SOL    HW215171   3.341   0.559  13.142
 4879SOL     OW15172   2.390   0.266  13.349
 4879SOL    HW115173   2.446   0.227  13.282
 4879SOL    HW215174   2.359   0.348  13.310
 4880SOL     OW15175   2.572   1.065  13.400
 4880SOL    HW115176   2.557   1.048  13.493
 4880SOL    HW215177   2.648   1.011  13.377
 4881SOL     OW15178   2.206   1.113  13.525
 4881SOL    HW115179   2.210   1.191  13.469
 4881SOL    HW215180   2.202   1.040  13.464
 4882SOL     OW15181   2.429   0.541  13.863
 4882SOL    HW115182   2.440   0.609  13.796
 4882SOL    HW215183   2.490   0.567   0.033
 4883SOL     OW15184   3.106   1.353  13.418
 4883SOL    HW115185   3.160   1.427  13.446
 4883SOL    HW215186   3.019   1.373  13.454
 4884SOL     OW15187   3.444   0.636  13.510
 4884SOL    HW115188   3.405   0.678  13.587
 4884SOL    HW215189   3.477   0.709  13.457
 4885SOL     OW15190   3.061   0.534  13.292
 4885SOL    HW115191   3.066   0.455  13.345
 4885SOL    HW215192   3.018   0.598  13.348
 4886SOL     OW15193   2.195   0.052  13.686
 4886SOL    HW115194   2.177   0.144  13.700
 4886SOL    HW215195   2.116   0.007  13.713
 4887SOL     OW15196   3.465   0.394  13.405
 4887SOL    HW115197   3.431   0.328  13.464
 4887SOL    HW215198   3.450   0.477  13.451
 4888SOL     OW15199   3.358   0.277  13.164
 4888SOL    HW115200   3.288   0.213  13.178
 4888SOL    HW215201   3.373   0.316  13.250
 4889SOL     OW15202   3.148   0.827  13.061
 4889SOL    HW115203   3.191   0.741  13.064
 4889SOL    HW215204   3.181   0.866  12.980
 4890SOL     OW15205   1.867   1.318  13.228
 4890SOL    HW115206   1.780   1.332  13.191
 4890SOL    HW215207   1.865   1.229  13.262
 4891SOL     OW15208   2.679   0.576  13.391
 4891SOL    HW115209   2.683   0.498  13.335
 4891SOL    HW215210   2.602   0.623  13.360
 4892SOL     OW15211   2.323   0.493  13.213
 4892SOL    HW115212   2.381   0.565  13.238
 4892SOL    HW215213   2.237   0.533  13.202
 4893SOL     OW15214   3.179   0.848  13.337
 4893SOL    HW115215   3.101   0.828  13.388
 4893SOL    HW215216   3.151   0.839  13.246
 4894SOL     OW15217   3.538   0.105  13.465
 4894SOL    HW115218   3.629   0.125  13.441
 4894SOL    HW215219   3.545   0.035  13.530
 4895SOL     OW15220   3.244   1.575  13.509
 4895SOL    HW115221   3.304   1.612  13.444
 4895SOL    HW215222   3.197   1.650  13.545
 4896SOL     OW15223   3.154   0.912  13.684
 4896SOL    HW115224   3.232   0.857  13.669
 4896SOL    HW215225   3.174   0.995  13.641
 4897SOL     OW15226   2.537   1.625  13.184
 4897SOL    HW115227   2.546   1.637  13.090
 4897SOL    HW215228   2.479   1.548  13.192
 4898SOL     OW15229   3.668   0.168   0.062
 4898SOL    HW115230   3.702   0.078   0.065
 4898SOL    HW215231   3.581   0.159   0.023
 4899SOL     OW15232   2.139   0.310  13.745
 4899SOL    HW115233   2.049   0.330  13.722
 4899SOL    HW215234   2.139   0.303  13.841
 4900SOL     OW15235   3.070   1.602  13.067
 4900SOL    HW115236   3.059   1.511  13.092
 4900SOL    HW215237   3.004   1.616  12.999
 4901SOL     OW15238   2.782   0.915  13.331
 4901SOL    HW115239   2.840   0.944  13.261
 4901SOL    HW215240   2.828   0.840  13.371
 4902SOL     OW15241   3.350   1.630  13.078
 4902SOL    HW115242   3.256   1.620  13.063
 4902SOL    HW215243   3.388   1.636  12.990
 4903SOL     OW15244   2.912   1.090  13.756
 4903SOL    HW115245   2.825   1.056  13.733
 4903SOL    HW215246   2.969   1.060  13.685
 4904SOL     OW15247   2.459   1.488  13.506
 4904SOL    HW115248   2.504   1.440  13.437
 4904SOL    HW215249   2.403   1.550  13.459
 4905SOL     OW15250   2.123   1.342  13.318
 4905SOL    HW115251   2.029   1.339  13.298
 4905SOL    HW215252   2.127   1.376  13.407
 4906SOL     OW15253   1.964   0.317  13.026
 4906SOL    HW115254   1.896   0.336  13.091
 4906SOL    HW215255   1.970   0.397  12.974
 4907SOL     OW15256   1.952   0.150  13.363
 4907SOL    HW115257   1.922   0.211  13.295
 4907SOL    HW215258   2.039   0.122  13.334
 4908SOL     OW15259   3.039   1.335  13.149
 4908SOL    HW115260   2.948   1.307  13.151
 4908SOL    HW215261   3.065   1.337  13.241
 4909SOL     OW15262   3.076   0.336  13.484
 4909SOL    HW115263   3.146   0.272  13.470
 4909SOL    HW215264   3.104   0.385  13.561
 4910SOL     OW15265   2.455   0.749  13.690
 4910SOL    HW115266   2.489   0.837  13.671
 4910SOL    HW215267   2.386   0.736  13.625
 4911SOL     OW15268   2.727   1.365  13.075
 4911SOL    HW115269   2.687   1.392  13.158
 4911SOL    HW215270   2.741   1.448  13.028
 4912SOL     OW15271   2.521   1.852   0.065
 4912SOL    HW115272   2.534   1.945   0.048
 4912SOL    HW215273   2.609   1.817   0.078
 4913SOL     OW15274   2.683   0.969   0.000
 4913SOL    HW115275   2.704   0.884   0.039
 4913SOL    HW215276   2.728   1.032   0.056
 4914SOL     OW15277   2.938   0.987  13.124
 4914SOL    HW115278   2.916   1.040  13.047
 4914SOL    HW215279   3.012   0.934  13.096
 4915SOL     OW15280   1.948   1.223  13.702
 4915SOL    HW115281   1.955   1.167  13.779
 4915SOL    HW215282   2.019   1.194  13.645
 4916SOL     OW15283   2.291   0.438  13.551
 4916SOL    HW115284   2.328   0.367  13.499
 4916SOL    HW215285   2.252   0.395  13.627
 4917SOL     OW15286   3.545   1.451   0.356
 4917SOL    HW115287   3.512   1.432   0.268
 4917SOL    HW215288   3.636   1.423   0.354
 4918SOL     OW15289   2.679   1.547  13.704
 4918SOL    HW115290   2.651   1.603  13.632
 4918SOL    HW215291   2.604   1.490  13.722
 4919SOL     OW15292   2.636   1.335  13.348
 4919SOL    HW115293   2.608   1.244  13.357
 4919SOL    HW215294   2.716   1.341  13.400
 4920SOL     OW15295   3.170   0.071  13.203
 4920SOL    HW115296   3.185   3.987  13.160
 4920SOL    HW215297   3.080   0.067  13.234
 4921SOL     OW15298   3.157   0.462  13.715
 4921SOL    HW115299   3.107   0.543  13.713
 4921SOL    HW215300   3.144   0.428  13.803
 4922SOL     OW15301   1.907   1.069  13.340
 4922SOL    HW115302   2.001   1.061  13.322
 4922SOL    HW215303   1.879   0.981  13.363
 4923SOL     OW15304   2.750   1.657  13.373
 4923SOL    HW115305   2.677   1.643  13.313
 4923SOL    HW215306   2.721   1.730  13.429
 4924SOL     OW15307   2.095   2.504   0.102
 4924SOL    HW115308   2.009   2.475   0.134
 4924SOL    HW215309   2.113   2.447   0.028
 4925SOL     OW15310   1.871   2.289   0.629
 4925SOL    HW115311   1.781   2.283   0.660
 4925SOL    HW215312   1.882   2.212   0.573
 4926SOL     OW15313   2.429   3.157   1.180
 4926SOL    HW115314   2.343   3.163   1.139
 4926SOL    HW215315   2.446   3.245   1.214
 4927SOL     OW15316   3.428   3.374   0.709
 4927SOL    HW115317   3.384   3.350   0.790
 4927SOL    HW215318   3.359   3.377   0.643
 4928SOL     OW15319   2.993   2.561   0.698
 4928SOL    HW115320   3.042   2.642   0.685
 4928SOL    HW215321   2.946   2.574   0.781
 4929SOL     OW15322   3.628   2.458   0.228
 4929SOL    HW115323   3.650   2.413   0.146
 4929SOL    HW215324   3.585   2.392   0.281
 4930SOL     OW15325   2.608   3.000   1.045
 4930SOL    HW115326   2.542   3.037   1.103
 4930SOL    HW215327   2.648   3.075   1.002
 4931SOL     OW15328   2.734   2.626   1.823
 4931SOL    HW115329   2.721   2.695   1.888
 4931SOL    HW215330   2.757   2.672   1.742
 4932SOL     OW15331   2.546   2.857   0.647
 4932SOL    HW115332   2.613   2.850   0.715
 4932SOL    HW215333   2.479   2.913   0.684
 4933SOL     OW15334   2.576   3.012   1.817
 4933SOL    HW115335   2.623   3.090   1.847
 4933SOL    HW215336   2.495   3.047   1.779
 4934SOL     OW15337   2.194   3.280   1.066
 4934SOL    HW115338   2.119   3.243   1.020
 4934SOL    HW215339   2.239   3.334   1.001
 4935SOL     OW15340   3.320   3.364   1.359
 4935SOL    HW115341   3.375   3.442   1.369
 4935SOL    HW215342   3.253   3.373   1.427
 4936SOL     OW15343   2.283   2.224   1.466
 4936SOL    HW115344   2.370   2.188   1.484
 4936SOL    HW215345   2.223   2.151   1.481
 4937SOL     OW15346   3.469   2.305   0.745
 4937SOL    HW115347   3.397   2.326   0.686
 4937SOL    HW215348   3.479   2.383   0.800
 4938SOL     OW15349   2.082   3.573   0.483
 4938SOL    HW115350   2.106   3.642   0.545
 4938SOL    HW215351   2.148   3.579   0.414
 4939SOL     OW15352   2.999   3.204   1.695
 4939SOL    HW115353   3.041   3.197   1.780
 4939SOL    HW215354   2.947   3.124   1.686
 4940SOL     OW15355   2.080   3.303   0.529
 4940SOL    HW115356   2.073   3.398   0.532
 4940SOL    HW215357   2.027   3.273   0.602
 4941SOL     OW15358   2.126   2.955   0.890
 4941SOL    HW115359   2.122   2.868   0.930
 4941SOL    HW215360   2.069   3.009   0.944
 4942SOL     OW15361   2.467   3.647   1.428
 4942SOL    HW115362   2.386   3.633   1.477
 4942SOL    HW215363   2.494   3.736   1.452
 4943SOL     OW15364   2.427   2.840   0.166
 4943SOL    HW115365   2.462   2.876   0.085
 4943SOL    HW215366   2.478   2.881   0.235
 4944SOL     OW15367   3.455   1.989   1.464
 4944SOL    HW115368   3.476   2.070   1.418
 4944SOL    HW215369   3.439   2.017   1.555
 4945SOL     OW15370   1.987   2.528   0.560
 4945SOL    HW115371   1.952   2.442   0.581
 4945SOL    HW215372   1.976   2.579   0.640
 4946SOL     OW15373   3.697   3.613   0.341
 4946SOL    HW115374   3.766   3.579   0.397
 4946SOL    HW215375   3.719   3.705   0.328
 4947SOL     OW15376   1.882   3.463   0.101
 4947SOL    HW115377   1.892   3.372   0.130
 4947SOL    HW215378   1.867   3.513   0.181
 4948SOL     OW15379   3.549   2.781   0.651
 4948SOL    HW115380   3.633   2.738   0.633
 4948SOL    HW215381   3.530   2.831   0.572
 4949SOL     OW15382   3.506   2.964   0.434
 4949SOL    HW115383   3.592   2.969   0.393
 4949SOL    HW215384   3.509   3.029   0.505
 4950SOL     OW15385   1.984   2.610   1.581
 4950SOL    HW115386   2.074   2.641   1.589
 4950SOL    HW215387   1.931   2.689   1.589
 4951SOL     OW15388   2.478   3.253   0.735
 4951SOL    HW115389   2.433   3.169   0.744
 4951SOL    HW215390   2.462   3.280   0.644
 4952SOL     OW15391   3.148   3.098   1.422
 4952SOL    HW115392   3.179   3.031   1.361
 4952SOL    HW215393   3.208   3.093   1.496
 4953SOL     OW15394   2.708   1.864   0.519
 4953SOL    HW115395   2.748   1.947   0.494
 4953SOL    HW215396   2.613   1.880   0.513
 4954SOL     OW15397   2.051   2.825   1.278
 4954SOL    HW115398   2.136   2.784   1.261
 4954SOL    HW215399   1.989   2.775   1.225
 4955SOL     OW15400   3.391   2.862   0.206
 4955SOL    HW115401   3.322   2.804   0.239
 4955SOL    HW215402   3.431   2.898   0.285
 4956SOL     OW15403   3.085   3.668   1.628
 4956SOL    HW115404   3.057   3.728   1.560
 4956SOL    HW215405   3.085   3.582   1.586
 4957SOL     OW15406   3.326   3.282   0.947
 4957SOL    HW115407   3.261   3.296   1.015
 4957SOL    HW215408   3.315   3.190   0.922
 4958SOL     OW15409   3.513   3.608   0.589
 4958SOL    HW115410   3.506   3.579   0.498
 4958SOL    HW215411   3.495   3.530   0.641
 4959SOL     OW15412   2.458   2.580   0.270
 4959SOL    HW115413   2.459   2.663   0.223
 4959SOL    HW215414   2.397   2.594   0.343
 4960SOL     OW15415   3.139   2.225   0.933
 4960SOL    HW115416   3.051   2.189   0.942
 4960SOL    HW215417   3.193   2.171   0.992
 4961SOL     OW15418   3.421   3.594   0.315
 4961SOL    HW115419   3.517   3.596   0.314
 4961SOL    HW215420   3.397   3.562   0.228
 4962SOL     OW15421   2.653   2.480   1.446
 4962SOL    HW115422   2.630   2.455   1.535
 4962SOL    HW215423   2.617   2.411   1.391
 4963SOL     OW15424   3.255   2.335   1.678
 4963SOL    HW115425   3.259   2.380   1.763
 4963SOL    HW215426   3.313   2.260   1.688
 4964SOL     OW15427   2.812   2.747   1.585
 4964SOL    HW115428   2.868   2.679   1.547
 4964SOL    HW215429   2.765   2.784   1.511
 4965SOL     OW15430   2.856   2.274   1.235
 4965SOL    HW115431   2.767   2.291   1.267
 4965SOL    HW215432   2.843   2.230   1.150
 4966SOL     OW15433   2.915   2.563   0.429
 4966SOL    HW115434   2.933   2.555   0.522
 4966SOL    HW215435   2.831   2.518   0.417
 4967SOL     OW15436   1.952   2.689   0.777
 4967SOL    HW115437   2.031   2.682   0.829
 4967SOL    HW215438   1.905   2.764   0.813
 4968SOL     OW15439   1.980   3.716   1.578
 4968SOL    HW115440   1.986   3.694   1.671
 4968SOL    HW215441   1.888   3.700   1.556
 4969SOL     OW15442   2.730   2.222   0.217
 4969SOL    HW115443   2.768   2.284   0.155
 4969SOL    HW215444   2.746   2.136   0.178
 4970SOL     OW15445   3.569   2.434   1.830
 4970SOL    HW115446   3.532   2.507   1.781
 4970SOL    HW215447   3.595   2.370   1.763
 4971SOL     OW15448   3.239   3.003   0.543
 4971SOL    HW115449   3.318   2.991   0.490
 4971SOL    HW215450   3.187   3.067   0.494
 4972SOL     OW15451   2.414   2.050   0.898
 4972SOL    HW115452   2.413   2.075   0.990
 4972SOL    HW215453   2.430   2.132   0.851
 4973SOL     OW15454   2.862   3.304   0.473
 4973SOL    HW115455   2.833   3.380   0.423
 4973SOL    HW215456   2.840   3.324   0.564
 4974SOL     OW15457   2.213   3.676   0.839
 4974SOL    HW115458   2.263   3.596   0.857
 4974SOL    HW215459   2.273   3.747   0.863
 4975SOL     OW15460   3.668   2.921   0.870
 4975SOL    HW115461   3.615   2.896   0.795
 4975SOL    HW215462   3.606   2.925   0.943
 4976SOL     OW15463   3.089   3.400   1.512
 4976SOL    HW115464   3.077   3.328   1.573
 4976SOL    HW215465   3.020   3.388   1.447
 4977SOL     OW15466   2.168   2.800   0.234
 4977SOL    HW115467   2.260   2.812   0.210
 4977SOL    HW215468   2.153   2.706   0.226
 4978SOL     OW15469   3.342   2.609   0.724
 4978SOL    HW115470   3.338   2.569   0.811
 4978SOL    HW215471   3.419   2.666   0.727
 4979SOL     OW15472   2.331   3.129   1.737
 4979SOL    HW115473   2.305   3.134   1.645
 4979SOL    HW215474   2.249   3.125   1.786
 4980SOL     OW15475   2.990   3.640   0.229
 4980SOL    HW115476   2.926   3.595   0.284
 4980SOL    HW215477   3.017   3.574   0.165
 4981SOL     OW15478   3.493   3.242   0.090
 4981SOL    HW115479   3.456   3.324   0.055
 4981SOL    HW215480   3.426   3.176   0.070
 4982SOL     OW15481   2.334   3.597   0.327
 4982SOL    HW115482   2.370   3.660   0.390
 4982SOL    HW215483   2.411   3.567   0.278
 4983SOL     OW15484   3.266   1.971   0.442
 4983SOL    HW115485   3.263   1.938   0.352
 4983SOL    HW215486   3.359   1.971   0.465
 4984SOL     OW15487   2.123   3.652   1.220
 4984SOL    HW115488   2.169   3.580   1.263
 4984SOL    HW215489   2.105   3.620   1.131
 4985SOL     OW15490   2.801   3.565   0.898
 4985SOL    HW115491   2.879   3.514   0.920
 4985SOL    HW215492   2.758   3.514   0.829
 4986SOL     OW15493   2.257   2.555   0.472
 4986SOL    HW115494   2.275   2.462   0.486
 4986SOL    HW215495   2.164   2.565   0.494
 4987SOL     OW15496   3.393   2.086   1.725
 4987SOL    HW115497   3.403   2.107   1.818
 4987SOL    HW215498   3.325   2.019   1.722
 4988SOL     OW15499   2.624   2.139   1.755
 4988SOL    HW115500   2.706   2.088   1.751
 4988SOL    HW215501   2.582   2.109   1.835
 4989SOL     OW15502   2.738   3.383   1.195
 4989SOL    HW115503   2.721   3.346   1.108
 4989SOL    HW215504   2.808   3.328   1.231
 4990SOL     OW15505   3.201   2.452   1.433
 4990SOL    HW115506   3.232   2.421   1.518
 4990SOL    HW215507   3.238   2.539   1.425
 4991SOL     OW15508   2.680   3.252   0.945
 4991SOL    HW115509   2.765   3.240   0.902
 4991SOL    HW215510   2.617   3.258   0.873
 4992SOL     OW15511   2.789   2.370   0.901
 4992SOL    HW115512   2.765   2.362   0.809
 4992SOL    HW215513   2.822   2.283   0.925
 4993SOL     OW15514   2.451   1.923   0.478
 4993SOL    HW115515   2.377   1.914   0.538
 4993SOL    HW215516   2.431   2.001   0.427
 4994SOL     OW15517   3.292   3.071   0.044
 4994SOL    HW115518   3.310   2.990   0.092
 4994SOL    HW215519   3.201   3.091   0.065
 4995SOL     OW15520   2.811   2.113   0.460
 4995SOL    HW115521   2.778   2.152   0.379
 4995SOL    HW215522   2.904   2.132   0.460
 4996SOL     OW15523   2.943   2.546   1.458
 4996SOL    HW115524   2.879   2.476   1.462
 4996SOL    HW215525   3.028   2.501   1.452
 4997SOL     OW15526   3.080   3.434   0.795
 4997SOL    HW115527   3.096   3.500   0.727
 4997SOL    HW215528   3.152   3.446   0.857
 4998SOL     OW15529   2.334   3.015   0.726
 4998SOL    HW115530   2.267   2.996   0.791
 4998SOL    HW215531   2.290   3.003   0.642
 4999SOL     OW15532   3.126   3.656   0.610
 4999SOL    HW115533   3.175   3.721   0.559
 4999SOL    HW215534   3.052   3.704   0.646
 5000SOL     OW15535   2.857   2.400   0.053
 5000SOL    HW115536   2.852   2.384  13.859
 5000SOL    HW215537   2.950   2.395   0.073
 5001SOL     OW15538   1.941   2.425   1.386
 5001SOL    HW115539   2.035   2.421   1.365
 5001SOL    HW215540   1.934   2.490   1.455
 5002SOL     OW15541   2.417   2.081   1.174
 5002SOL    HW115542   2.470   2.006   1.199
 5002SOL    HW215543   2.334   2.069   1.221
 5003SOL     OW15544   2.725   2.319   0.639
 5003SOL    HW115545   2.688   2.375   0.572
 5003SOL    HW215546   2.752   2.239   0.592
 5004SOL     OW15547   2.876   1.916   0.750
 5004SOL    HW115548   2.821   1.906   0.673
 5004SOL    HW215549   2.855   1.841   0.805
 5005SOL     OW15550   3.302   3.023   0.857
 5005SOL    HW115551   3.231   2.959   0.856
 5005SOL    HW215552   3.328   3.032   0.766
 5006SOL     OW15553   3.327   2.472   0.970
 5006SOL    HW115554   3.272   2.393   0.973
 5006SOL    HW215555   3.385   2.464   1.045
 5007SOL     OW15556   3.726   2.674   0.368
 5007SOL    HW115557   3.764   2.620   0.437
 5007SOL    HW215558   3.683   2.612   0.310
 5008SOL     OW15559   2.352   3.269   0.156
 5008SOL    HW115560   2.278   3.234   0.206
 5008SOL    HW215561   2.337   3.239   0.067
 5009SOL     OW15562   3.529   3.126   0.645
 5009SOL    HW115563   3.624   3.127   0.655
 5009SOL    HW215564   3.502   3.217   0.659
 5010SOL     OW15565   3.283   2.448   0.085
 5010SOL    HW115566   3.218   2.439   0.155
 5010SOL    HW215567   3.318   2.359   0.074
 5011SOL     OW15568   2.385   2.128   0.316
 5011SOL    HW115569   2.446   2.099   0.248
 5011SOL    HW215570   2.348   2.209   0.281
 5012SOL     OW15571   3.612   3.095   1.562
 5012SOL    HW115572   3.699   3.060   1.544
 5012SOL    HW215573   3.627   3.185   1.591
 5013SOL     OW15574   2.917   3.213   1.331
 5013SOL    HW115575   2.842   3.183   1.382
 5013SOL    HW215576   2.993   3.173   1.373
 5014SOL     OW15577   3.469   3.492   1.658
 5014SOL    HW115578   3.459   3.526   1.569
 5014SOL    HW215579   3.549   3.439   1.655
 5015SOL     OW15580   2.995   3.070   1.102
 5015SOL    HW115581   2.936   3.108   1.167
 5015SOL    HW215582   2.965   3.105   1.018
 5016SOL     OW15583   3.488   2.956   1.074
 5016SOL    HW115584   3.478   3.018   1.146
 5016SOL    HW215585   3.413   2.974   1.018
 5017SOL     OW15586   2.778   1.958   1.391
 5017SOL    HW115587   2.803   1.937   1.301
 5017SOL    HW215588   2.857   1.996   1.429
 5018SOL     OW15589   2.846   2.977   1.723
 5018SOL    HW115590   2.755   2.993   1.747
 5018SOL    HW215591   2.843   2.898   1.669
 5019SOL     OW15592   2.579   2.922   0.378
 5019SOL    HW115593   2.564   2.901   0.470
 5019SOL    HW215594   2.654   2.867   0.353
 5020SOL     OW15595   2.282   2.676   1.251
 5020SOL    HW115596   2.349   2.689   1.318
 5020SOL    HW215597   2.248   2.588   1.267
 5021SOL     OW15598   3.126   2.237   1.281
 5021SOL    HW115599   3.159   2.315   1.326
 5021SOL    HW215600   3.035   2.259   1.258
 5022SOL     OW15601   1.936   3.435   1.355
 5022SOL    HW115602   1.908   3.510   1.301
 5022SOL    HW215603   2.031   3.436   1.349
 5023SOL     OW15604   2.203   2.978   0.485
 5023SOL    HW115605   2.199   3.049   0.422
 5023SOL    HW215606   2.210   2.899   0.432
 5024SOL     OW15607   2.403   2.394   0.864
 5024SOL    HW115608   2.416   2.451   0.788
 5024SOL    HW215609   2.471   2.421   0.926
 5025SOL     OW15610   3.110   3.209   0.399
 5025SOL    HW115611   3.165   3.282   0.427
 5025SOL    HW215612   3.022   3.232   0.431
 5026SOL     OW15613   3.149   3.323   1.149
 5026SOL    HW115614   3.206   3.328   1.226
 5026SOL    HW215615   3.094   3.246   1.164
 5027SOL     OW15616   3.439   2.484   0.487
 5027SOL    HW115617   3.390   2.530   0.555
 5027SOL    HW215618   3.463   2.551   0.424
 5028SOL     OW15619   2.207   3.393   1.310
 5028SOL    HW115620   2.196   3.347   1.226
 5028SOL    HW215621   2.302   3.403   1.319
 5029SOL     OW15622   2.281   2.609   1.605
 5029SOL    HW115623   2.342   2.651   1.545
 5029SOL    HW215624   2.325   2.529   1.634
 5030SOL     OW15625   3.468   2.641   1.685
 5030SOL    HW115626   3.383   2.684   1.680
 5030SOL    HW215627   3.521   2.684   1.618
 5031SOL     OW15628   2.857   1.994   1.751
 5031SOL    HW115629   2.917   2.066   1.731
 5031SOL    HW215630   2.906   1.915   1.727
 5032SOL     OW15631   2.373   1.891   1.749
 5032SOL    HW115632   2.323   1.836   1.689
 5032SOL    HW215633   2.319   1.969   1.762
 5033SOL     OW15634   2.448   2.736   1.033
 5033SOL    HW115635   2.481   2.825   1.034
 5033SOL    HW215636   2.391   2.731   1.109
 5034SOL     OW15637   3.212   2.721   1.023
 5034SOL    HW115638   3.127   2.706   0.981
 5034SOL    HW215639   3.257   2.637   1.014
 5035SOL     OW15640   3.082   2.405   0.271
 5035SOL    HW115641   3.086   2.325   0.324
 5035SOL    HW215642   3.025   2.464   0.321
 5036SOL     OW15643   1.908   3.174   1.275
 5036SOL    HW115644   1.940   3.119   1.346
 5036SOL    HW215645   1.914   3.263   1.309
 5037SOL     OW15646   2.580   2.488   1.052
 5037SOL    HW115647   2.658   2.475   0.999
 5037SOL    HW215648   2.554   2.579   1.036
 5038SOL     OW15649   3.592   2.821   1.864
 5038SOL    HW115650   3.552   2.754   1.809
 5038SOL    HW215651   3.528   2.836   1.933
 5039SOL     OW15652   2.225   1.906   0.612
 5039SOL    HW115653   2.145   1.953   0.588
 5039SOL    HW215654   2.209   1.875   0.701
 5040SOL     OW15655   3.485   2.241   0.370
 5040SOL    HW115656   3.508   2.174   0.434
 5040SOL    HW215657   3.459   2.317   0.423
 5041SOL     OW15658   2.889   2.619   0.958
 5041SOL    HW115659   2.882   2.637   1.052
 5041SOL    HW215660   2.863   2.528   0.949
 5042SOL     OW15661   2.848   3.430   1.722
 5042SOL    HW115662   2.828   3.471   1.637
 5042SOL    HW215663   2.889   3.347   1.700
 5043SOL     OW15664   3.703   3.358   1.597
 5043SOL    HW115665   3.728   3.388   1.510
 5043SOL    HW215666   3.783   3.366   1.649
 5044SOL     OW15667   2.215   2.783   1.809
 5044SOL    HW115668   2.296   2.800   1.857
 5044SOL    HW215669   2.240   2.719   1.742
 5045SOL     OW15670   3.414   2.118   0.137
 5045SOL    HW115671   3.352   2.050   0.162
 5045SOL    HW215672   3.435   2.162   0.220
 5046SOL     OW15673   3.150   2.691   0.055
 5046SOL    HW115674   3.197   2.608   0.059
 5046SOL    HW215675   3.168   2.725  13.867
 5047SOL     OW15676   2.930   3.200   0.856
 5047SOL    HW115677   2.935   3.128   0.793
 5047SOL    HW215678   2.988   3.267   0.820
 5048SOL     OW15679   2.172   2.673   0.945
 5048SOL    HW115680   2.265   2.695   0.937
 5048SOL    HW215681   2.171   2.585   0.984
 5049SOL     OW15682   2.181   2.360   1.013
 5049SOL    HW115683   2.139   2.288   0.965
 5049SOL    HW215684   2.262   2.378   0.964
 5050SOL     OW15685   2.996   2.235   1.685
 5050SOL    HW115686   2.948   2.290   1.748
 5050SOL    HW215687   3.083   2.275   1.681
 5051SOL     OW15688   3.021   2.061   1.471
 5051SOL    HW115689   3.010   2.124   1.543
 5051SOL    HW215690   3.064   2.111   1.402
 5052SOL     OW15691   1.885   3.172   0.180
 5052SOL    HW115692   1.803   3.187   0.133
 5052SOL    HW215693   1.874   3.086   0.220
 5053SOL     OW15694   1.960   3.637   0.940
 5053SOL    HW115695   1.928   3.559   0.893
 5053SOL    HW215696   2.044   3.657   0.898
 5054SOL     OW15697   2.354   3.438   0.904
 5054SOL    HW115698   2.421   3.502   0.929
 5054SOL    HW215699   2.399   3.376   0.848
 5055SOL     OW15700   2.837   2.649   1.224
 5055SOL    HW115701   2.898   2.631   1.295
 5055SOL    HW215702   2.753   2.614   1.255
 5056SOL     OW15703   1.900   2.400   1.118
 5056SOL    HW115704   1.984   2.402   1.073
 5056SOL    HW215705   1.922   2.414   1.210
 5057SOL     OW15706   2.059   2.391   1.725
 5057SOL    HW115707   2.120   2.356   1.660
 5057SOL    HW215708   2.016   2.464   1.681
 5058SOL     OW15709   3.243   2.797   1.658
 5058SOL    HW115710   3.264   2.890   1.654
 5058SOL    HW215711   3.238   2.770   1.566
 5059SOL     OW15712   2.676   2.439   0.380
 5059SOL    HW115713   2.686   2.363   0.321
 5059SOL    HW215714   2.605   2.490   0.341
 5060SOL     OW15715   3.501   2.463   1.181
 5060SOL    HW115716   3.490   2.403   1.255
 5060SOL    HW215717   3.588   2.443   1.146
 5061SOL     OW15718   2.102   3.410   1.722
 5061SOL    HW115719   2.080   3.476   1.787
 5061SOL    HW215720   2.107   3.328   1.773
 5062SOL     OW15721   2.568   2.307   1.255
 5062SOL    HW115722   2.513   2.234   1.228
 5062SOL    HW215723   2.562   2.371   1.184
 5063SOL     OW15724   2.787   3.532   1.470
 5063SOL    HW115725   2.761   3.493   1.387
 5063SOL    HW215726   2.779   3.627   1.456
 5064SOL     OW15727   2.301   2.361   0.224
 5064SOL    HW115728   2.365   2.430   0.239
 5064SOL    HW215729   2.225   2.406   0.186
 5065SOL     OW15730   2.005   3.005   1.474
 5065SOL    HW115731   2.006   2.957   1.557
 5065SOL    HW215732   2.022   2.939   1.407
 5066SOL     OW15733   3.182   2.905   1.220
 5066SOL    HW115734   3.205   2.843   1.152
 5066SOL    HW215735   3.115   2.961   1.180
 5067SOL     OW15736   3.179   2.719   0.327
 5067SOL    HW115737   3.106   2.686   0.379
 5067SOL    HW215738   3.153   2.704   0.236
 5068SOL     OW15739   3.642   3.599   1.157
 5068SOL    HW115740   3.699   3.626   1.086
 5068SOL    HW215741   3.613   3.511   1.133
 5069SOL     OW15742   3.106   3.595   1.107
 5069SOL    HW115743   3.189   3.617   1.065
 5069SOL    HW215744   3.114   3.501   1.127
 5070SOL     OW15745   1.950   3.126   1.012
 5070SOL    HW115746   1.933   3.142   1.104
 5070SOL    HW215747   1.875   3.074   0.982
 5071SOL     OW15748   2.541   3.528   1.736
 5071SOL    HW115749   2.483   3.604   1.740
 5071SOL    HW215750   2.603   3.548   1.665
 5072SOL     OW15751   2.795   1.975   0.126
 5072SOL    HW115752   2.826   1.962   0.036
 5072SOL    HW215753   2.845   1.911   0.177
 5073SOL     OW15754   3.567   2.013   0.514
 5073SOL    HW115755   3.645   2.005   0.459
 5073SOL    HW215756   3.558   1.927   0.556
 5074SOL     OW15757   3.252   3.434   0.489
 5074SOL    HW115758   3.314   3.469   0.425
 5074SOL    HW215759   3.204   3.511   0.520
 5075SOL     OW15760   1.999   3.651   1.838
 5075SOL    HW115761   1.947   3.587   1.887
 5075SOL    HW215762   2.046   3.699   1.905
 5076SOL     OW15763   3.138   2.788   0.671
 5076SOL    HW115764   3.213   2.729   0.681
 5076SOL    HW215765   3.172   2.861   0.618
 5077SOL     OW15766   2.669   3.138   1.426
 5077SOL    HW115767   2.641   3.178   1.508
 5077SOL    HW215768   2.599   3.159   1.364
 5078SOL     OW15769   2.541   3.458   0.187
 5078SOL    HW115770   2.524   3.506   0.105
 5078SOL    HW215771   2.485   3.380   0.180
 5079SOL     OW15772   3.479   3.589   1.390
 5079SOL    HW115773   3.536   3.592   1.313
 5079SOL    HW215774   3.466   3.681   1.413
 5080SOL     OW15775   3.701   2.043   0.965
 5080SOL    HW115776   3.732   1.956   0.942
 5080SOL    HW215777   3.614   2.049   0.925
 5081SOL     OW15778   3.085   3.459   0.036
 5081SOL    HW115779   3.073   3.367   0.062
 5081SOL    HW215780   3.038   3.467  13.853
 5082SOL     OW15781   2.686   2.869   1.374
 5082SOL    HW115782   2.730   2.864   1.289
 5082SOL    HW215783   2.682   2.962   1.394
 5083SOL     OW15784   2.785   2.773   0.290
 5083SOL    HW115785   2.854   2.813   0.237
 5083SOL    HW215786   2.830   2.703   0.337
 5084SOL     OW15787   3.347   3.515   0.063
 5084SOL    HW115788   3.255   3.490   0.059
 5084SOL    HW215789   3.380   3.501  13.875
 5085SOL     OW15790   2.231   3.166   1.491
 5085SOL    HW115791   2.217   3.243   1.436
 5085SOL    HW215792   2.153   3.112   1.477
 5086SOL     OW15793   3.461   3.142   1.276
 5086SOL    HW115794   3.530   3.132   1.342
 5086SOL    HW215795   3.404   3.211   1.311
 5087SOL     OW15796   2.921   2.971   0.710
 5087SOL    HW115797   2.849   2.920   0.747
 5087SOL    HW215798   2.985   2.906   0.683
 5088SOL     OW15799   2.884   2.103   0.966
 5088SOL    HW115800   2.881   2.056   0.882
 5088SOL    HW215801   2.880   2.034   1.032
 5089SOL     OW15802   2.469   3.350   0.480
 5089SOL    HW115803   2.515   3.299   0.413
 5089SOL    HW215804   2.399   3.394   0.432
 5090SOL     OW15805   3.588   2.250   1.378
 5090SOL    HW115806   3.660   2.313   1.375
 5090SOL    HW215807   3.616   2.179   1.321
 5091SOL     OW15808   2.134   3.181   0.298
 5091SOL    HW115809   2.051   3.189   0.251
 5091SOL    HW215810   2.120   3.229   0.380
 5092SOL     OW15811   1.975   2.892   1.722
 5092SOL    HW115812   1.899   2.866   1.774
 5092SOL    HW215813   2.049   2.851   1.768
 5093SOL     OW15814   2.536   2.058   1.501
 5093SOL    HW115815   2.619   2.037   1.458
 5093SOL    HW215816   2.560   2.091   1.587
 5094SOL     OW15817   1.862   2.284   0.051
 5094SOL    HW115818   1.856   2.188   0.057
 5094SOL    HW215819   1.934   2.300  13.890
 5095SOL     OW15820   3.286   2.720   1.398
 5095SOL    HW115821   3.236   2.781   1.344
 5095SOL    HW215822   3.375   2.722   1.361
 5096SOL     OW15823   3.049   3.205   0.123
 5096SOL    HW115824   2.954   3.198   0.112
 5096SOL    HW215825   3.063   3.193   0.217
 5097SOL     OW15826   2.482   2.693   1.433
 5097SOL    HW115827   2.538   2.769   1.420
 5097SOL    HW215828   2.543   2.619   1.441
 5098SOL     OW15829   3.348   3.645   0.984
 5098SOL    HW115830   3.371   3.700   0.909
 5098SOL    HW215831   3.432   3.610   1.014
 5099SOL     OW15832   2.579   2.422   1.698
 5099SOL    HW115833   2.622   2.483   1.758
 5099SOL    HW215834   2.598   2.335   1.734
 5100SOL     OW15835   3.336   3.057   1.629
 5100SOL    HW115836   3.325   3.072   1.723
 5100SOL    HW215837   3.428   3.073   1.612
 5101SOL     OW15838   2.234   3.604   1.567
 5101SOL    HW115839   2.150   3.647   1.550
 5101SOL    HW215840   2.210   3.521   1.607
 5102SOL     OW15841   3.525   2.742   1.259
 5102SOL    HW115842   3.524   2.656   1.215
 5102SOL    HW215843   3.518   2.805   1.188
 5103SOL     OW15844   3.082   2.184   0.453
 5103SOL    HW115845   3.144   2.111   0.448
 5103SOL    HW215846   3.108   2.233   0.531
 5104SOL     OW15847   2.444   2.595   0.676
 5104SOL    HW115848   2.486   2.680   0.662
 5104SOL    HW215849   2.381   2.588   0.604
 5105SOL     OW15850   3.618   2.228   1.650
 5105SOL    HW115851   3.602   2.242   1.557
 5105SOL    HW215852   3.548   2.170   1.679
 5106SOL     OW15853   3.620   2.789   1.513
 5106SOL    HW115854   3.610   2.882   1.532
 5106SOL    HW215855   3.594   2.780   1.421
 5107SOL     OW15856   2.772   3.261   0.072
 5107SOL    HW115857   2.706   3.244   0.139
 5107SOL    HW215858   2.723   3.258  13.889
 5108SOL     OW15859   2.523   3.649   0.936
 5108SOL    HW115860   2.503   3.740   0.917
 5108SOL    HW215861   2.619   3.644   0.932
 5109SOL     OW15862   2.731   2.832   0.854
 5109SOL    HW115863   2.781   2.759   0.892
 5109SOL    HW215864   2.693   2.877   0.929
 5110SOL     OW15865   2.959   2.876   0.111
 5110SOL    HW115866   2.951   2.922   0.027
 5110SOL    HW215867   3.032   2.816   0.098
 5111SOL     OW15868   3.710   3.415   0.840
 5111SOL    HW115869   3.631   3.399   0.789
 5111SOL    HW215870   3.708   3.348   0.909
 5112SOL     OW15871   2.088   3.161   1.854
 5112SOL    HW115872   2.024   3.098   1.822
 5112SOL    HW215873   2.066   3.174   1.947
 5113SOL     OW15874   1.948   3.089   0.667
 5113SOL    HW115875   1.959   3.043   0.750
 5113SOL    HW215876   2.019   3.056   0.612
 5114SOL     OW15877   2.547   3.268   1.631
 5114SOL    HW115878   2.467   3.226   1.663
 5114SOL    HW215879   2.544   3.356   1.669
 5115SOL     OW15880   3.672   2.038   1.237
 5115SOL    HW115881   3.664   1.943   1.239
 5115SOL    HW215882   3.689   2.059   1.145
 5116SOL     OW15883   2.292   2.291   0.532
 5116SOL    HW115884   2.327   2.235   0.463
 5116SOL    HW215885   2.250   2.230   0.594
 5117SOL     OW15886   3.556   3.350   1.094
 5117SOL    HW115887   3.478   3.328   1.043
 5117SOL    HW215888   3.566   3.279   1.157
 5118SOL     OW15889   2.196   2.417   1.290
 5118SOL    HW115890   2.239   2.353   1.347
 5118SOL    HW215891   2.209   2.382   1.201
 5119SOL     OW15892   2.692   3.441   0.677
 5119SOL    HW115893   2.672   3.499   0.603
 5119SOL    HW215894   2.618   3.381   0.681
 5120SOL     OW15895   3.291   2.091   1.116
 5120SOL    HW115896   3.311   2.007   1.157
 5120SOL    HW215897   3.241   2.139   1.182
 5121SOL     OW15898   2.870   1.878   1.137
 5121SOL    HW115899   2.817   1.811   1.093
 5121SOL    HW215900   2.958   1.840   1.140
 5122SOL     OW15901   2.640   3.186   0.321
 5122SOL    HW115902   2.611   3.096   0.338
 5122SOL    HW215903   2.721   3.195   0.371
 5123SOL     OW15904   2.482   3.414   1.286
 5123SOL    HW115905   2.482   3.496   1.336
 5123SOL    HW215906   2.570   3.409   1.249
 5124SOL     OW15907   3.213   1.927   0.165
 5124SOL    HW115908   3.249   1.862   0.106
 5124SOL    HW215909   3.129   1.889   0.193
 5125SOL     OW15910   3.156   2.325   0.678
 5125SOL    HW115911   3.104   2.405   0.684
 5125SOL    HW215912   3.152   2.287   0.766
 5126SOL     OW15913   3.443   2.058   0.880
 5126SOL    HW115914   3.388   2.083   0.954
 5126SOL    HW215915   3.444   2.136   0.824
 5127SOL     OW15916   1.901   2.929   0.311
 5127SOL    HW115917   1.997   2.924   0.309
 5127SOL    HW215918   1.873   2.839   0.328
 5128SOL     OW15919   2.759   3.522   0.345
 5128SOL    HW115920   2.684   3.494   0.292
 5128SOL    HW215921   2.726   3.597   0.394
 5129SOL     OW15922   2.093   2.495   1.985
 5129SOL    HW115923   2.009   2.463   2.020
 5129SOL    HW215924   2.091   2.469   1.893
 5130SOL     OW15925   1.869   2.292   2.490
 5130SOL    HW115926   1.779   2.286   2.521
 5130SOL    HW215927   1.881   2.214   2.435
 5131SOL     OW15928   2.430   3.157   3.043
 5131SOL    HW115929   2.343   3.163   3.002
 5131SOL    HW215930   2.446   3.245   3.076
 5132SOL     OW15931   3.428   3.375   2.571
 5132SOL    HW115932   3.386   3.351   2.654
 5132SOL    HW215933   3.356   3.378   2.508
 5133SOL     OW15934   2.993   2.561   2.558
 5133SOL    HW115935   3.042   2.642   2.545
 5133SOL    HW215936   2.946   2.574   2.641
 5134SOL     OW15937   3.631   2.466   2.090
 5134SOL    HW115938   3.609   2.459   1.997
 5134SOL    HW215939   3.596   2.386   2.130
 5135SOL     OW15940   2.609   3.000   2.908
 5135SOL    HW115941   2.542   3.037   2.965
 5135SOL    HW215942   2.648   3.076   2.864
 5136SOL     OW15943   2.734   2.626   3.685
 5136SOL    HW115944   2.721   2.695   3.750
 5136SOL    HW215945   2.757   2.672   3.604
 5137SOL     OW15946   2.547   2.858   2.507
 5137SOL    HW115947   2.614   2.851   2.575
 5137SOL    HW215948   2.479   2.913   2.545
 5138SOL     OW15949   2.576   3.012   3.679
 5138SOL    HW115950   2.623   3.090   3.709
 5138SOL    HW215951   2.495   3.047   3.641
 5139SOL     OW15952   2.194   3.281   2.928
 5139SOL    HW115953   2.119   3.243   2.882
 5139SOL    HW215954   2.239   3.334   2.863
 5140SOL     OW15955   3.320   3.364   3.221
 5140SOL    HW115956   3.375   3.442   3.231
 5140SOL    HW215957   3.253   3.373   3.289
 5141SOL     OW15958   2.284   2.226   3.329
 5141SOL    HW115959   2.371   2.190   3.346
 5141SOL    HW215960   2.224   2.152   3.341
 5142SOL     OW15961   3.470   2.306   2.607
 5142SOL    HW115962   3.399   2.327   2.546
 5142SOL    HW215963   3.478   2.383   2.662
 5143SOL     OW15964   2.084   3.578   2.341
 5143SOL    HW115965   2.113   3.637   2.410
 5143SOL    HW215966   2.157   3.576   2.279
 5144SOL     OW15967   2.999   3.204   3.557
 5144SOL    HW115968   3.041   3.197   3.643
 5144SOL    HW215969   2.947   3.124   3.548
 5145SOL     OW15970   2.093   3.304   2.398
 5145SOL    HW115971   2.074   3.398   2.401
 5145SOL    HW215972   2.034   3.266   2.464
 5146SOL     OW15973   2.127   2.955   2.754
 5146SOL    HW115974   2.122   2.868   2.793
 5146SOL    HW215975   2.069   3.009   2.807
 5147SOL     OW15976   2.467   3.647   3.289
 5147SOL    HW115977   2.386   3.633   3.339
 5147SOL    HW215978   2.494   3.736   3.314
 5148SOL     OW15979   2.442   2.846   2.000
 5148SOL    HW115980   2.491   2.892   1.931
 5148SOL    HW215981   2.481   2.878   2.081
 5149SOL     OW15982   3.455   1.989   3.326
 5149SOL    HW115983   3.476   2.070   3.280
 5149SOL    HW215984   3.439   2.017   3.417
 5150SOL     OW15985   1.988   2.529   2.422
 5150SOL    HW115986   1.952   2.443   2.443
 5150SOL    HW215987   1.977   2.580   2.503
 5151SOL     OW15988   3.700   3.611   2.204
 5151SOL    HW115989   3.772   3.586   2.262
 5151SOL    HW215990   3.718   3.702   2.182
 5152SOL     OW15991   1.894   3.451   1.983
 5152SOL    HW115992   1.878   3.359   2.003
 5152SOL    HW215993   1.872   3.497   2.063
 5153SOL     OW15994   3.551   2.782   2.511
 5153SOL    HW115995   3.634   2.738   2.492
 5153SOL    HW215996   3.531   2.831   2.431
 5154SOL     OW15997   3.504   2.965   2.294
 5154SOL    HW115998   3.589   2.968   2.250
 5154SOL    HW215999   3.510   3.028   2.365
 5155SOL     OW16000   1.984   2.611   3.442
 5155SOL    HW116001   2.074   2.643   3.450
 5155SOL    HW216002   1.930   2.690   3.450
 5156SOL     OW16003   2.479   3.253   2.596
 5156SOL    HW116004   2.433   3.169   2.605
 5156SOL    HW216005   2.461   3.280   2.506
 5157SOL     OW16006   3.148   3.098   3.284
 5157SOL    HW116007   3.179   3.031   3.223
 5157SOL    HW216008   3.207   3.093   3.358
 5158SOL     OW16009   2.705   1.865   2.380
 5158SOL    HW116010   2.746   1.948   2.354
 5158SOL    HW216011   2.611   1.882   2.374
 5159SOL     OW16012   2.051   2.826   3.139
 5159SOL    HW116013   2.136   2.784   3.123
 5159SOL    HW216014   1.989   2.775   3.086
 5160SOL     OW16015   3.389   2.860   2.063
 5160SOL    HW116016   3.320   2.803   2.097
 5160SOL    HW216017   3.432   2.895   2.142
 5161SOL     OW16018   3.085   3.668   3.490
 5161SOL    HW116019   3.057   3.728   3.421
 5161SOL    HW216020   3.085   3.582   3.448
 5162SOL     OW16021   3.327   3.282   2.809
 5162SOL    HW116022   3.261   3.297   2.877
 5162SOL    HW216023   3.316   3.190   2.784
 5163SOL     OW16024   3.507   3.608   2.442
 5163SOL    HW116025   3.499   3.573   2.354
 5163SOL    HW216026   3.491   3.533   2.500
 5164SOL     OW16027   2.459   2.584   2.134
 5164SOL    HW116028   2.461   2.667   2.086
 5164SOL    HW216029   2.393   2.597   2.202
 5165SOL     OW16030   3.139   2.225   2.796
 5165SOL    HW116031   3.051   2.189   2.804
 5165SOL    HW216032   3.193   2.171   2.854
 5166SOL     OW16033   3.435   3.540   2.171
 5166SOL    HW116034   3.528   3.562   2.166
 5166SOL    HW216035   3.410   3.520   2.080
 5167SOL     OW16036   2.653   2.480   3.308
 5167SOL    HW116037   2.630   2.455   3.397
 5167SOL    HW216038   2.617   2.411   3.253
 5168SOL     OW16039   3.255   2.335   3.540
 5168SOL    HW116040   3.259   2.380   3.625
 5168SOL    HW216041   3.312   2.260   3.550
 5169SOL     OW16042   2.812   2.747   3.447
 5169SOL    HW116043   2.868   2.679   3.409
 5169SOL    HW216044   2.765   2.784   3.373
 5170SOL     OW16045   2.856   2.274   3.097
 5170SOL    HW116046   2.767   2.291   3.129
 5170SOL    HW216047   2.843   2.230   3.012
 5171SOL     OW16048   2.915   2.560   2.286
 5171SOL    HW116049   2.933   2.554   2.380
 5171SOL    HW216050   2.832   2.515   2.275
 5172SOL     OW16051   1.951   2.687   2.641
 5172SOL    HW116052   2.031   2.682   2.693
 5172SOL    HW216053   1.905   2.764   2.676
 5173SOL     OW16054   1.980   3.715   3.440
 5173SOL    HW116055   1.986   3.694   3.533
 5173SOL    HW216056   1.888   3.701   3.418
 5174SOL     OW16057   2.760   2.214   2.058
 5174SOL    HW116058   2.801   2.276   1.998
 5174SOL    HW216059   2.766   2.130   2.013
 5175SOL     OW16060   3.569   2.434   3.692
 5175SOL    HW116061   3.532   2.507   3.643
 5175SOL    HW216062   3.595   2.370   3.625
 5176SOL     OW16063   3.239   3.003   2.402
 5176SOL    HW116064   3.319   2.991   2.350
 5176SOL    HW216065   3.188   3.066   2.351
 5177SOL     OW16066   2.412   2.050   2.760
 5177SOL    HW116067   2.412   2.075   2.852
 5177SOL    HW216068   2.429   2.131   2.713
 5178SOL     OW16069   2.863   3.307   2.331
 5178SOL    HW116070   2.829   3.382   2.282
 5178SOL    HW216071   2.841   3.326   2.422
 5179SOL     OW16072   2.213   3.675   2.699
 5179SOL    HW116073   2.263   3.596   2.718
 5179SOL    HW216074   2.272   3.747   2.724
 5180SOL     OW16075   3.669   2.922   2.731
 5180SOL    HW116076   3.616   2.895   2.656
 5180SOL    HW216077   3.606   2.926   2.803
 5181SOL     OW16078   3.089   3.400   3.374
 5181SOL    HW116079   3.077   3.328   3.436
 5181SOL    HW216080   3.020   3.387   3.309
 5182SOL     OW16081   2.176   2.820   2.116
 5182SOL    HW116082   2.258   2.838   2.069
 5182SOL    HW216083   2.145   2.737   2.079
 5183SOL     OW16084   3.343   2.611   2.585
 5183SOL    HW116085   3.338   2.570   2.672
 5183SOL    HW216086   3.421   2.666   2.589
 5184SOL     OW16087   2.331   3.129   3.599
 5184SOL    HW116088   2.305   3.134   3.507
 5184SOL    HW216089   2.249   3.125   3.648
 5185SOL     OW16090   2.977   3.644   2.082
 5185SOL    HW116091   2.911   3.599   2.135
 5185SOL    HW216092   3.007   3.577   2.021
 5186SOL     OW16093   3.485   3.248   1.951
 5186SOL    HW116094   3.442   3.332   1.933
 5186SOL    HW216095   3.419   3.182   1.930
 5187SOL     OW16096   2.327   3.599   2.187
 5187SOL    HW116097   2.366   3.662   2.247
 5187SOL    HW216098   2.400   3.572   2.130
 5188SOL     OW16099   3.263   1.969   2.301
 5188SOL    HW116100   3.257   1.944   2.209
 5188SOL    HW216101   3.357   1.975   2.318
 5189SOL     OW16102   2.123   3.652   3.082
 5189SOL    HW116103   2.169   3.581   3.126
 5189SOL    HW216104   2.106   3.620   2.994
 5190SOL     OW16105   2.801   3.564   2.760
 5190SOL    HW116106   2.878   3.513   2.783
 5190SOL    HW216107   2.758   3.514   2.691
 5191SOL     OW16108   2.260   2.555   2.336
 5191SOL    HW116109   2.275   2.461   2.347
 5191SOL    HW216110   2.166   2.566   2.353
 5192SOL     OW16111   3.393   2.086   3.587
 5192SOL    HW116112   3.403   2.107   3.680
 5192SOL    HW216113   3.325   2.019   3.584
 5193SOL     OW16114   2.515   1.982   1.966
 5193SOL    HW116115   2.572   1.912   1.998
 5193SOL    HW216116   2.465   1.942   1.895
 5194SOL     OW16117   2.625   2.139   3.617
 5194SOL    HW116118   2.706   2.088   3.613
 5194SOL    HW216119   2.582   2.109   3.697
 5195SOL     OW16120   2.738   3.383   3.057
 5195SOL    HW116121   2.720   3.346   2.970
 5195SOL    HW216122   2.808   3.328   3.093
 5196SOL     OW16123   3.201   2.451   3.295
 5196SOL    HW116124   3.232   2.420   3.380
 5196SOL    HW216125   3.238   2.539   3.287
 5197SOL     OW16126   2.680   3.252   2.807
 5197SOL    HW116127   2.764   3.240   2.764
 5197SOL    HW216128   2.617   3.257   2.736
 5198SOL     OW16129   2.790   2.370   2.763
 5198SOL    HW116130   2.765   2.362   2.671
 5198SOL    HW216131   2.822   2.283   2.787
 5199SOL     OW16132   2.449   1.924   2.332
 5199SOL    HW116133   2.375   1.915   2.392
 5199SOL    HW216134   2.430   2.004   2.283
 5200SOL     OW16135   3.289   3.063   1.901
 5200SOL    HW116136   3.320   2.987   1.952
 5200SOL    HW216137   3.204   3.084   1.939
 5201SOL     OW16138   2.809   2.114   2.317
 5201SOL    HW116139   2.783   2.152   2.234
 5201SOL    HW216140   2.903   2.131   2.322
 5202SOL     OW16141   2.943   2.546   3.320
 5202SOL    HW116142   2.878   2.476   3.324
 5202SOL    HW216143   3.027   2.501   3.314
 5203SOL     OW16144   3.081   3.433   2.656
 5203SOL    HW116145   3.096   3.500   2.589
 5203SOL    HW216146   3.152   3.446   2.720
 5204SOL     OW16147   2.335   3.015   2.589
 5204SOL    HW116148   2.267   2.996   2.655
 5204SOL    HW216149   2.291   3.001   2.505
 5205SOL     OW16150   3.126   3.655   2.472
 5205SOL    HW116151   3.174   3.720   2.420
 5205SOL    HW216152   3.052   3.703   2.509
 5206SOL     OW16153   2.885   2.398   1.887
 5206SOL    HW116154   2.842   2.481   1.868
 5206SOL    HW216155   2.950   2.420   1.954
 5207SOL     OW16156   1.941   2.425   3.248
 5207SOL    HW116157   2.035   2.421   3.227
 5207SOL    HW216158   1.935   2.491   3.317
 5208SOL     OW16159   2.416   2.081   3.036
 5208SOL    HW116160   2.469   2.006   3.061
 5208SOL    HW216161   2.333   2.067   3.082
 5209SOL     OW16162   2.725   2.318   2.501
 5209SOL    HW116163   2.685   2.375   2.435
 5209SOL    HW216164   2.752   2.240   2.452
 5210SOL     OW16165   2.875   1.916   2.612
 5210SOL    HW116166   2.821   1.905   2.534
 5210SOL    HW216167   2.854   1.841   2.667
 5211SOL     OW16168   3.302   3.023   2.719
 5211SOL    HW116169   3.231   2.959   2.719
 5211SOL    HW216170   3.328   3.031   2.627
 5212SOL     OW16171   3.327   2.472   2.832
 5212SOL    HW116172   3.272   2.393   2.834
 5212SOL    HW216173   3.385   2.464   2.907
 5213SOL     OW16174   3.724   2.677   2.237
 5213SOL    HW116175   3.767   2.622   2.301
 5213SOL    HW216176   3.687   2.616   2.173
 5214SOL     OW16177   2.352   3.282   2.013
 5214SOL    HW116178   2.276   3.254   2.065
 5214SOL    HW216179   2.343   3.234   1.931
 5215SOL     OW16180   3.530   3.128   2.504
 5215SOL    HW116181   3.625   3.129   2.514
 5215SOL    HW216182   3.503   3.217   2.525
 5216SOL     OW16183   3.256   2.434   1.933
 5216SOL    HW116184   3.194   2.414   2.003
 5216SOL    HW216185   3.340   2.403   1.967
 5217SOL     OW16186   2.386   2.130   2.167
 5217SOL    HW116187   2.432   2.083   2.099
 5217SOL    HW216188   2.360   2.213   2.127
 5218SOL     OW16189   3.612   3.095   3.424
 5218SOL    HW116190   3.699   3.060   3.406
 5218SOL    HW216191   3.627   3.185   3.453
 5219SOL     OW16192   2.917   3.214   3.193
 5219SOL    HW116193   2.842   3.183   3.244
 5219SOL    HW216194   2.993   3.173   3.235
 5220SOL     OW16195   3.469   3.492   3.520
 5220SOL    HW116196   3.459   3.526   3.431
 5220SOL    HW216197   3.549   3.439   3.517
 5221SOL     OW16198   2.996   3.071   2.964
 5221SOL    HW116199   2.936   3.108   3.029
 5221SOL    HW216200   2.965   3.105   2.880
 5222SOL     OW16201   3.488   2.956   2.936
 5222SOL    HW116202   3.479   3.018   3.008
 5222SOL    HW216203   3.413   2.973   2.880
 5223SOL     OW16204   2.778   1.958   3.253
 5223SOL    HW116205   2.803   1.937   3.163
 5223SOL    HW216206   2.857   1.996   3.291
 5224SOL     OW16207   2.846   2.977   3.585
 5224SOL    HW116208   2.755   2.993   3.609
 5224SOL    HW216209   2.843   2.898   3.531
 5225SOL     OW16210   2.572   2.924   2.233
 5225SOL    HW116211   2.557   2.904   2.325
 5225SOL    HW216212   2.647   2.870   2.208
 5226SOL     OW16213   2.282   2.677   3.113
 5226SOL    HW116214   2.350   2.689   3.180
 5226SOL    HW216215   2.248   2.588   3.129
 5227SOL     OW16216   3.126   2.237   3.143
 5227SOL    HW116217   3.159   2.315   3.188
 5227SOL    HW216218   3.035   2.259   3.120
 5228SOL     OW16219   1.936   3.435   3.217
 5228SOL    HW116220   1.909   3.510   3.164
 5228SOL    HW216221   2.032   3.435   3.211
 5229SOL     OW16222   2.203   2.978   2.351
 5229SOL    HW116223   2.206   3.051   2.290
 5229SOL    HW216224   2.199   2.900   2.295
 5230SOL     OW16225   2.403   2.395   2.725
 5230SOL    HW116226   2.416   2.453   2.650
 5230SOL    HW216227   2.471   2.421   2.787
 5231SOL     OW16228   3.109   3.212   2.252
 5231SOL    HW116229   3.165   3.282   2.284
 5231SOL    HW216230   3.022   3.233   2.285
 5232SOL     OW16231   3.149   3.323   3.011
 5232SOL    HW116232   3.205   3.327   3.088
 5232SOL    HW216233   3.094   3.246   3.025
 5233SOL     OW16234   3.438   2.480   2.346
 5233SOL    HW116235   3.390   2.531   2.412
 5233SOL    HW216236   3.480   2.546   2.291
 5234SOL     OW16237   2.207   3.393   3.172
 5234SOL    HW116238   2.196   3.347   3.088
 5234SOL    HW216239   2.302   3.403   3.181
 5235SOL     OW16240   2.281   2.609   3.467
 5235SOL    HW116241   2.342   2.651   3.407
 5235SOL    HW216242   2.325   2.530   3.495
 5236SOL     OW16243   3.468   2.641   3.547
 5236SOL    HW116244   3.383   2.684   3.542
 5236SOL    HW216245   3.521   2.684   3.480
 5237SOL     OW16246   2.857   1.994   3.613
 5237SOL    HW116247   2.917   2.066   3.593
 5237SOL    HW216248   2.906   1.915   3.589
 5238SOL     OW16249   2.372   1.891   3.612
 5238SOL    HW116250   2.322   1.836   3.551
 5238SOL    HW216251   2.316   1.967   3.626
 5239SOL     OW16252   2.448   2.735   2.895
 5239SOL    HW116253   2.481   2.825   2.895
 5239SOL    HW216254   2.391   2.731   2.972
 5240SOL     OW16255   3.212   2.721   2.884
 5240SOL    HW116256   3.127   2.706   2.843
 5240SOL    HW216257   3.257   2.637   2.876
 5241SOL     OW16258   3.062   2.389   2.124
 5241SOL    HW116259   3.072   2.312   2.179
 5241SOL    HW216260   3.020   2.454   2.181
 5242SOL     OW16261   1.908   3.173   3.136
 5242SOL    HW116262   1.940   3.118   3.208
 5242SOL    HW216263   1.914   3.263   3.171
 5243SOL     OW16264   2.580   2.488   2.915
 5243SOL    HW116265   2.658   2.475   2.861
 5243SOL    HW216266   2.554   2.579   2.898
 5244SOL     OW16267   3.592   2.821   3.726
 5244SOL    HW116268   3.552   2.754   3.671
 5244SOL    HW216269   3.527   2.836   3.795
 5245SOL     OW16270   2.225   1.900   2.470
 5245SOL    HW116271   2.147   1.953   2.449
 5245SOL    HW216272   2.212   1.873   2.560
 5246SOL     OW16273   3.483   2.240   2.224
 5246SOL    HW116274   3.509   2.174   2.288
 5246SOL    HW216275   3.459   2.317   2.276
 5247SOL     OW16276   2.890   2.620   2.820
 5247SOL    HW116277   2.882   2.637   2.914
 5247SOL    HW216278   2.864   2.528   2.810
 5248SOL     OW16279   2.848   3.430   3.584
 5248SOL    HW116280   2.828   3.471   3.499
 5248SOL    HW216281   2.889   3.347   3.562
 5249SOL     OW16282   3.703   3.358   3.459
 5249SOL    HW116283   3.728   3.388   3.372
 5249SOL    HW216284   3.783   3.366   3.511
 5250SOL     OW16285   2.215   2.783   3.671
 5250SOL    HW116286   2.296   2.800   3.719
 5250SOL    HW216287   2.240   2.719   3.604
 5251SOL     OW16288   3.390   2.134   1.989
 5251SOL    HW116289   3.326   2.068   2.016
 5251SOL    HW216290   3.423   2.170   2.070
 5252SOL     OW16291   3.149   2.686   1.890
 5252SOL    HW116292   3.193   2.601   1.895
 5252SOL    HW216293   3.182   2.725   1.809
 5253SOL     OW16294   2.930   3.200   2.718
 5253SOL    HW116295   2.935   3.128   2.655
 5253SOL    HW216296   2.988   3.267   2.682
 5254SOL     OW16297   2.172   2.673   2.808
 5254SOL    HW116298   2.265   2.695   2.798
 5254SOL    HW216299   2.172   2.585   2.846
 5255SOL     OW16300   2.182   2.361   2.874
 5255SOL    HW116301   2.139   2.290   2.825
 5255SOL    HW216302   2.262   2.378   2.826
 5256SOL     OW16303   2.996   2.235   3.547
 5256SOL    HW116304   2.948   2.290   3.610
 5256SOL    HW216305   3.083   2.275   3.543
 5257SOL     OW16306   3.021   2.061   3.333
 5257SOL    HW116307   3.010   2.124   3.405
 5257SOL    HW216308   3.064   2.111   3.264
 5258SOL     OW16309   1.868   3.179   2.056
 5258SOL    HW116310   1.781   3.195   2.020
 5258SOL    HW216311   1.865   3.090   2.091
 5259SOL     OW16312   1.960   3.637   2.801
 5259SOL    HW116313   1.928   3.560   2.755
 5259SOL    HW216314   2.044   3.657   2.760
 5260SOL     OW16315   2.353   3.438   2.766
 5260SOL    HW116316   2.421   3.501   2.791
 5260SOL    HW216317   2.398   3.376   2.709
 5261SOL     OW16318   2.837   2.649   3.086
 5261SOL    HW116319   2.898   2.631   3.157
 5261SOL    HW216320   2.753   2.614   3.117
 5262SOL     OW16321   1.900   2.400   2.980
 5262SOL    HW116322   1.984   2.403   2.935
 5262SOL    HW216323   1.922   2.414   3.072
 5263SOL     OW16324   2.062   2.393   3.586
 5263SOL    HW116325   2.123   2.358   3.521
 5263SOL    HW216326   2.018   2.465   3.542
 5264SOL     OW16327   3.243   2.797   3.520
 5264SOL    HW116328   3.264   2.890   3.516
 5264SOL    HW216329   3.238   2.770   3.428
 5265SOL     OW16330   2.679   2.432   2.230
 5265SOL    HW116331   2.684   2.359   2.169
 5265SOL    HW216332   2.605   2.485   2.198
 5266SOL     OW16333   3.501   2.463   3.043
 5266SOL    HW116334   3.490   2.403   3.117
 5266SOL    HW216335   3.588   2.443   3.008
 5267SOL     OW16336   2.102   3.410   3.584
 5267SOL    HW116337   2.080   3.476   3.649
 5267SOL    HW216338   2.107   3.328   3.635
 5268SOL     OW16339   2.568   2.307   3.117
 5268SOL    HW116340   2.512   2.234   3.090
 5268SOL    HW216341   2.562   2.370   3.046
 5269SOL     OW16342   2.787   3.533   3.332
 5269SOL    HW116343   2.761   3.493   3.249
 5269SOL    HW216344   2.779   3.627   3.318
 5270SOL     OW16345   2.324   2.362   2.050
 5270SOL    HW116346   2.382   2.434   2.073
 5270SOL    HW216347   2.240   2.403   2.032
 5271SOL     OW16348   2.005   3.005   3.336
 5271SOL    HW116349   2.006   2.957   3.419
 5271SOL    HW216350   2.022   2.939   3.269
 5272SOL     OW16351   3.182   2.905   3.082
 5272SOL    HW116352   3.204   2.842   3.014
 5272SOL    HW216353   3.116   2.962   3.042
 5273SOL     OW16354   3.176   2.717   2.166
 5273SOL    HW116355   3.101   2.687   2.218
 5273SOL    HW216356   3.149   2.704   2.075
 5274SOL     OW16357   3.641   3.600   3.019
 5274SOL    HW116358   3.699   3.626   2.948
 5274SOL    HW216359   3.613   3.512   2.995
 5275SOL     OW16360   3.106   3.594   2.969
 5275SOL    HW116361   3.189   3.617   2.927
 5275SOL    HW216362   3.114   3.501   2.989
 5276SOL     OW16363   1.949   3.127   2.873
 5276SOL    HW116364   1.932   3.142   2.966
 5276SOL    HW216365   1.875   3.073   2.844
 5277SOL     OW16366   2.542   3.528   3.598
 5277SOL    HW116367   2.483   3.604   3.602
 5277SOL    HW216368   2.603   3.548   3.528
 5278SOL     OW16369   3.569   2.015   2.372
 5278SOL    HW116370   3.638   2.003   2.306
 5278SOL    HW216371   3.559   1.929   2.412
 5279SOL     OW16372   3.252   3.430   2.351
 5279SOL    HW116373   3.311   3.465   2.284
 5279SOL    HW216374   3.204   3.507   2.382
 5280SOL     OW16375   1.999   3.651   3.700
 5280SOL    HW116376   1.947   3.587   3.749
 5280SOL    HW216377   2.047   3.699   3.767
 5281SOL     OW16378   3.139   2.789   2.533
 5281SOL    HW116379   3.213   2.729   2.543
 5281SOL    HW216380   3.173   2.861   2.480
 5282SOL     OW16381   2.669   3.138   3.287
 5282SOL    HW116382   2.641   3.178   3.370
 5282SOL    HW216383   2.599   3.159   3.226
 5283SOL     OW16384   2.536   3.481   2.021
 5283SOL    HW116385   2.546   3.500   1.927
 5283SOL    HW216386   2.477   3.406   2.024
 5284SOL     OW16387   3.479   3.589   3.252
 5284SOL    HW116388   3.536   3.592   3.175
 5284SOL    HW216389   3.466   3.681   3.275
 5285SOL     OW16390   3.700   2.043   2.828
 5285SOL    HW116391   3.732   1.956   2.804
 5285SOL    HW216392   3.614   2.050   2.787
 5286SOL     OW16393   3.070   3.464   1.899
 5286SOL    HW116394   3.059   3.372   1.923
 5286SOL    HW216395   3.008   3.477   1.826
 5287SOL     OW16396   2.686   2.869   3.236
 5287SOL    HW116397   2.729   2.864   3.151
 5287SOL    HW216398   2.682   2.962   3.256
 5288SOL     OW16399   2.779   2.773   2.153
 5288SOL    HW116400   2.839   2.805   2.086
 5288SOL    HW216401   2.829   2.705   2.199
 5289SOL     OW16402   3.348   3.497   1.905
 5289SOL    HW116403   3.255   3.483   1.888
 5289SOL    HW216404   3.388   3.501   1.818
 5290SOL     OW16405   2.231   3.166   3.353
 5290SOL    HW116406   2.216   3.243   3.298
 5290SOL    HW216407   2.153   3.112   3.339
 5291SOL     OW16408   3.461   3.142   3.138
 5291SOL    HW116409   3.529   3.132   3.204
 5291SOL    HW216410   3.404   3.211   3.173
 5292SOL     OW16411   2.921   2.972   2.572
 5292SOL    HW116412   2.849   2.921   2.609
 5292SOL    HW216413   2.985   2.906   2.544
 5293SOL     OW16414   2.884   2.103   2.828
 5293SOL    HW116415   2.880   2.056   2.745
 5293SOL    HW216416   2.880   2.034   2.894
 5294SOL     OW16417   2.468   3.353   2.341
 5294SOL    HW116418   2.515   3.302   2.276
 5294SOL    HW216419   2.397   3.394   2.292
 5295SOL     OW16420   3.588   2.250   3.240
 5295SOL    HW116421   3.660   2.313   3.237
 5295SOL    HW216422   3.616   2.179   3.183
 5296SOL     OW16423   2.124   3.204   2.153
 5296SOL    HW116424   2.031   3.201   2.129
 5296SOL    HW216425   2.124   3.244   2.240
 5297SOL     OW16426   1.975   2.892   3.585
 5297SOL    HW116427   1.899   2.866   3.636
 5297SOL    HW216428   2.049   2.851   3.630
 5298SOL     OW16429   2.536   2.059   3.362
 5298SOL    HW116430   2.619   2.037   3.320
 5298SOL    HW216431   2.560   2.091   3.449
 5299SOL     OW16432   1.898   2.285   1.930
 5299SOL    HW116433   1.861   2.200   1.906
 5299SOL    HW216434   1.944   2.314   1.851
 5300SOL     OW16435   3.286   2.720   3.260
 5300SOL    HW116436   3.236   2.781   3.206
 5300SOL    HW216437   3.375   2.722   3.223
 5301SOL     OW16438   3.039   3.197   1.980
 5301SOL    HW116439   2.948   3.168   1.981
 5301SOL    HW216440   3.066   3.197   2.072
 5302SOL     OW16441   2.482   2.693   3.295
 5302SOL    HW116442   2.538   2.769   3.282
 5302SOL    HW216443   2.543   2.619   3.303
 5303SOL     OW16444   3.348   3.645   2.845
 5303SOL    HW116445   3.371   3.702   2.772
 5303SOL    HW216446   3.432   3.611   2.877
 5304SOL     OW16447   2.579   2.422   3.560
 5304SOL    HW116448   2.622   2.482   3.620
 5304SOL    HW216449   2.598   2.335   3.596
 5305SOL     OW16450   3.335   3.057   3.491
 5305SOL    HW116451   3.325   3.072   3.585
 5305SOL    HW216452   3.428   3.073   3.474
 5306SOL     OW16453   2.234   3.604   3.429
 5306SOL    HW116454   2.150   3.647   3.412
 5306SOL    HW216455   2.210   3.521   3.469
 5307SOL     OW16456   3.525   2.742   3.121
 5307SOL    HW116457   3.524   2.656   3.077
 5307SOL    HW216458   3.518   2.805   3.049
 5308SOL     OW16459   3.080   2.182   2.318
 5308SOL    HW116460   3.142   2.109   2.312
 5308SOL    HW216461   3.109   2.231   2.395
 5309SOL     OW16462   2.445   2.596   2.538
 5309SOL    HW116463   2.488   2.680   2.523
 5309SOL    HW216464   2.382   2.588   2.466
 5310SOL     OW16465   3.618   2.228   3.512
 5310SOL    HW116466   3.602   2.242   3.419
 5310SOL    HW216467   3.548   2.170   3.541
 5311SOL     OW16468   3.620   2.789   3.375
 5311SOL    HW116469   3.610   2.882   3.393
 5311SOL    HW216470   3.594   2.780   3.283
 5312SOL     OW16471   2.726   3.228   1.904
 5312SOL    HW116472   2.686   3.256   1.986
 5312SOL    HW216473   2.740   3.310   1.856
 5313SOL     OW16474   2.523   3.649   2.798
 5313SOL    HW116475   2.503   3.740   2.779
 5313SOL    HW216476   2.619   3.644   2.794
 5314SOL     OW16477   2.731   2.832   2.716
 5314SOL    HW116478   2.781   2.760   2.754
 5314SOL    HW216479   2.693   2.877   2.792
 5315SOL     OW16480   2.940   2.850   1.951
 5315SOL    HW116481   2.918   2.902   1.873
 5315SOL    HW216482   3.014   2.796   1.924
 5316SOL     OW16483   3.710   3.416   2.702
 5316SOL    HW116484   3.630   3.397   2.653
 5316SOL    HW216485   3.714   3.347   2.768
 5317SOL     OW16486   2.088   3.161   3.716
 5317SOL    HW116487   2.025   3.098   3.684
 5317SOL    HW216488   2.065   3.174   3.808
 5318SOL     OW16489   1.950   3.092   2.527
 5318SOL    HW116490   1.959   3.046   2.611
 5318SOL    HW216491   2.016   3.052   2.471
 5319SOL     OW16492   2.547   3.268   3.493
 5319SOL    HW116493   2.467   3.226   3.525
 5319SOL    HW216494   2.544   3.356   3.531
 5320SOL     OW16495   3.672   2.038   3.099
 5320SOL    HW116496   3.665   1.943   3.101
 5320SOL    HW216497   3.689   2.059   3.007
 5321SOL     OW16498   2.292   2.289   2.383
 5321SOL    HW116499   2.328   2.233   2.314
 5321SOL    HW216500   2.249   2.229   2.444
 5322SOL     OW16501   3.556   3.351   2.957
 5322SOL    HW116502   3.478   3.328   2.906
 5322SOL    HW216503   3.566   3.280   3.020
 5323SOL     OW16504   2.196   2.417   3.151
 5323SOL    HW116505   2.239   2.354   3.209
 5323SOL    HW216506   2.210   2.382   3.063
 5324SOL     OW16507   2.692   3.440   2.538
 5324SOL    HW116508   2.670   3.495   2.463
 5324SOL    HW216509   2.618   3.379   2.545
 5325SOL     OW16510   3.291   2.091   2.978
 5325SOL    HW116511   3.311   2.007   3.020
 5325SOL    HW216512   3.241   2.139   3.044
 5326SOL     OW16513   2.870   1.878   2.999
 5326SOL    HW116514   2.817   1.811   2.956
 5326SOL    HW216515   2.958   1.840   3.002
 5327SOL     OW16516   2.636   3.195   2.183
 5327SOL    HW116517   2.607   3.104   2.190
 5327SOL    HW216518   2.718   3.198   2.232
 5328SOL     OW16519   2.482   3.414   3.148
 5328SOL    HW116520   2.482   3.496   3.198
 5328SOL    HW216521   2.570   3.409   3.111
 5329SOL     OW16522   3.219   1.914   2.031
 5329SOL    HW116523   3.251   1.844   1.976
 5329SOL    HW216524   3.130   1.888   2.054
 5330SOL     OW16525   3.156   2.325   2.540
 5330SOL    HW116526   3.104   2.405   2.546
 5330SOL    HW216527   3.153   2.288   2.628
 5331SOL     OW16528   3.442   2.058   2.742
 5331SOL    HW116529   3.388   2.083   2.816
 5331SOL    HW216530   3.444   2.135   2.685
 5332SOL     OW16531   1.906   2.930   2.170
 5332SOL    HW116532   1.999   2.921   2.151
 5332SOL    HW216533   1.877   2.842   2.193
 5333SOL     OW16534   2.750   3.524   2.203
 5333SOL    HW116535   2.678   3.505   2.143
 5333SOL    HW216536   2.719   3.598   2.255
 5334SOL     OW16537   2.092   2.494   3.847
 5334SOL    HW116538   2.008   2.464   3.881
 5334SOL    HW216539   2.091   2.469   3.755
 5335SOL     OW16540   1.866   2.294   4.348
 5335SOL    HW116541   1.776   2.289   4.382
 5335SOL    HW216542   1.873   2.220   4.288
 5336SOL     OW16543   2.429   3.157   4.905
 5336SOL    HW116544   2.343   3.163   4.864
 5336SOL    HW216545   2.446   3.245   4.938
 5337SOL     OW16546   3.428   3.375   4.433
 5337SOL    HW116547   3.386   3.351   4.516
 5337SOL    HW216548   3.356   3.378   4.370
 5338SOL     OW16549   2.993   2.561   4.420
 5338SOL    HW116550   3.042   2.642   4.407
 5338SOL    HW216551   2.946   2.574   4.503
 5339SOL     OW16552   3.631   2.466   3.952
 5339SOL    HW116553   3.609   2.459   3.859
 5339SOL    HW216554   3.596   2.386   3.992
 5340SOL     OW16555   2.609   3.000   4.770
 5340SOL    HW116556   2.542   3.038   4.827
 5340SOL    HW216557   2.648   3.076   4.726
 5341SOL     OW16558   2.733   2.627   5.548
 5341SOL    HW116559   2.725   2.698   5.612
 5341SOL    HW216560   2.756   2.671   5.466
 5342SOL     OW16561   2.547   2.858   4.369
 5342SOL    HW116562   2.614   2.851   4.437
 5342SOL    HW216563   2.479   2.913   4.407
 5343SOL     OW16564   2.576   3.013   5.540
 5343SOL    HW116565   2.624   3.091   5.571
 5343SOL    HW216566   2.496   3.048   5.502
 5344SOL     OW16567   2.194   3.281   4.790
 5344SOL    HW116568   2.119   3.243   4.744
 5344SOL    HW216569   2.239   3.334   4.725
 5345SOL     OW16570   3.320   3.364   5.083
 5345SOL    HW116571   3.375   3.442   5.093
 5345SOL    HW216572   3.253   3.373   5.151
 5346SOL     OW16573   2.285   2.227   5.193
 5346SOL    HW116574   2.373   2.192   5.209
 5346SOL    HW216575   2.227   2.152   5.199
 5347SOL     OW16576   3.470   2.306   4.469
 5347SOL    HW116577   3.399   2.327   4.408
 5347SOL    HW216578   3.478   2.383   4.524
 5348SOL     OW16579   2.084   3.578   4.203
 5348SOL    HW116580   2.113   3.637   4.272
 5348SOL    HW216581   2.157   3.576   4.141
 5349SOL     OW16582   2.999   3.204   5.419
 5349SOL    HW116583   3.041   3.197   5.505
 5349SOL    HW216584   2.947   3.124   5.410
 5350SOL     OW16585   2.093   3.304   4.260
 5350SOL    HW116586   2.074   3.398   4.263
 5350SOL    HW216587   2.034   3.266   4.326
 5351SOL     OW16588   2.127   2.955   4.616
 5351SOL    HW116589   2.122   2.868   4.655
 5351SOL    HW216590   2.069   3.009   4.669
 5352SOL     OW16591   2.467   3.647   5.151
 5352SOL    HW116592   2.386   3.633   5.200
 5352SOL    HW216593   2.494   3.736   5.176
 5353SOL     OW16594   2.442   2.846   3.862
 5353SOL    HW116595   2.491   2.892   3.793
 5353SOL    HW216596   2.480   2.878   3.943
 5354SOL     OW16597   3.456   1.989   5.188
 5354SOL    HW116598   3.476   2.070   5.142
 5354SOL    HW216599   3.439   2.017   5.278
 5355SOL     OW16600   1.989   2.530   4.284
 5355SOL    HW116601   1.952   2.444   4.304
 5355SOL    HW216602   1.978   2.580   4.365
 5356SOL     OW16603   3.700   3.611   4.066
 5356SOL    HW116604   3.772   3.586   4.124
 5356SOL    HW216605   3.718   3.702   4.044
 5357SOL     OW16606   1.894   3.451   3.845
 5357SOL    HW116607   1.878   3.359   3.865
 5357SOL    HW216608   1.872   3.497   3.925
 5358SOL     OW16609   3.552   2.782   4.373
 5358SOL    HW116610   3.634   2.738   4.354
 5358SOL    HW216611   3.531   2.831   4.293
 5359SOL     OW16612   3.504   2.965   4.156
 5359SOL    HW116613   3.589   2.968   4.112
 5359SOL    HW216614   3.510   3.028   4.227
 5360SOL     OW16615   1.984   2.611   5.304
 5360SOL    HW116616   2.074   2.644   5.311
 5360SOL    HW216617   1.930   2.690   5.310
 5361SOL     OW16618   2.479   3.253   4.458
 5361SOL    HW116619   2.433   3.169   4.467
 5361SOL    HW216620   2.461   3.280   4.368
 5362SOL     OW16621   3.148   3.098   5.146
 5362SOL    HW116622   3.179   3.031   5.085
 5362SOL    HW216623   3.208   3.093   5.220
 5363SOL     OW16624   2.706   1.865   4.242
 5363SOL    HW116625   2.747   1.948   4.216
 5363SOL    HW216626   2.612   1.882   4.236
 5364SOL     OW16627   2.051   2.825   5.002
 5364SOL    HW116628   2.136   2.784   4.986
 5364SOL    HW216629   1.989   2.775   4.948
 5365SOL     OW16630   3.389   2.860   3.925
 5365SOL    HW116631   3.320   2.803   3.959
 5365SOL    HW216632   3.432   2.894   4.004
 5366SOL     OW16633   3.085   3.668   5.352
 5366SOL    HW116634   3.057   3.728   5.284
 5366SOL    HW216635   3.085   3.582   5.310
 5367SOL     OW16636   3.327   3.282   4.671
 5367SOL    HW116637   3.261   3.297   4.739
 5367SOL    HW216638   3.316   3.190   4.646
 5368SOL     OW16639   3.507   3.608   4.304
 5368SOL    HW116640   3.499   3.573   4.216
 5368SOL    HW216641   3.491   3.533   4.362
 5369SOL     OW16642   2.459   2.584   3.996
 5369SOL    HW116643   2.461   2.667   3.948
 5369SOL    HW216644   2.393   2.597   4.064
 5370SOL     OW16645   3.139   2.225   4.658
 5370SOL    HW116646   3.051   2.189   4.666
 5370SOL    HW216647   3.193   2.171   4.716
 5371SOL     OW16648   3.435   3.540   4.033
 5371SOL    HW116649   3.528   3.562   4.028
 5371SOL    HW216650   3.410   3.520   3.942
 5372SOL     OW16651   2.653   2.480   5.170
 5372SOL    HW116652   2.629   2.455   5.259
 5372SOL    HW216653   2.617   2.411   5.114
 5373SOL     OW16654   3.255   2.335   5.402
 5373SOL    HW116655   3.259   2.380   5.486
 5373SOL    HW216656   3.312   2.259   5.412
 5374SOL     OW16657   2.812   2.747   5.310
 5374SOL    HW116658   2.867   2.679   5.272
 5374SOL    HW216659   2.764   2.783   5.235
 5375SOL     OW16660   2.856   2.274   4.959
 5375SOL    HW116661   2.767   2.290   4.991
 5375SOL    HW216662   2.843   2.230   4.875
 5376SOL     OW16663   2.915   2.560   4.148
 5376SOL    HW116664   2.933   2.554   4.242
 5376SOL    HW216665   2.832   2.515   4.137
 5377SOL     OW16666   1.951   2.687   4.503
 5377SOL    HW116667   2.031   2.682   4.555
 5377SOL    HW216668   1.905   2.764   4.538
 5378SOL     OW16669   1.980   3.715   5.302
 5378SOL    HW116670   1.985   3.693   5.395
 5378SOL    HW216671   1.887   3.701   5.280
 5379SOL     OW16672   2.760   2.214   3.920
 5379SOL    HW116673   2.801   2.276   3.860
 5379SOL    HW216674   2.765   2.130   3.875
 5380SOL     OW16675   3.570   2.434   5.554
 5380SOL    HW116676   3.533   2.507   5.505
 5380SOL    HW216677   3.595   2.370   5.487
 5381SOL     OW16678   3.239   3.003   4.264
 5381SOL    HW116679   3.319   2.991   4.213
 5381SOL    HW216680   3.188   3.066   4.213
 5382SOL     OW16681   2.411   2.050   4.622
 5382SOL    HW116682   2.411   2.075   4.714
 5382SOL    HW216683   2.429   2.132   4.575
 5383SOL     OW16684   2.863   3.307   4.193
 5383SOL    HW116685   2.829   3.382   4.144
 5383SOL    HW216686   2.841   3.326   4.284
 5384SOL     OW16687   2.213   3.675   4.561
 5384SOL    HW116688   2.263   3.596   4.580
 5384SOL    HW216689   2.272   3.747   4.586
 5385SOL     OW16690   3.669   2.923   4.593
 5385SOL    HW116691   3.616   2.895   4.517
 5385SOL    HW216692   3.606   2.926   4.665
 5386SOL     OW16693   3.089   3.400   5.236
 5386SOL    HW116694   3.077   3.328   5.297
 5386SOL    HW216695   3.020   3.387   5.170
 5387SOL     OW16696   2.176   2.820   3.978
 5387SOL    HW116697   2.258   2.838   3.931
 5387SOL    HW216698   2.145   2.737   3.941
 5388SOL     OW16699   3.343   2.611   4.447
 5388SOL    HW116700   3.338   2.570   4.534
 5388SOL    HW216701   3.421   2.666   4.451
 5389SOL     OW16702   2.331   3.128   5.461
 5389SOL    HW116703   2.305   3.134   5.369
 5389SOL    HW216704   2.249   3.126   5.510
 5390SOL     OW16705   2.977   3.644   3.944
 5390SOL    HW116706   2.911   3.599   3.997
 5390SOL    HW216707   3.007   3.577   3.883
 5391SOL     OW16708   3.485   3.248   3.813
 5391SOL    HW116709   3.442   3.332   3.795
 5391SOL    HW216710   3.419   3.182   3.792
 5392SOL     OW16711   2.327   3.599   4.049
 5392SOL    HW116712   2.366   3.662   4.109
 5392SOL    HW216713   2.400   3.572   3.992
 5393SOL     OW16714   3.263   1.969   4.163
 5393SOL    HW116715   3.257   1.944   4.071
 5393SOL    HW216716   3.357   1.975   4.180
 5394SOL     OW16717   2.123   3.652   4.944
 5394SOL    HW116718   2.169   3.581   4.988
 5394SOL    HW216719   2.106   3.620   4.856
 5395SOL     OW16720   2.801   3.564   4.622
 5395SOL    HW116721   2.878   3.513   4.645
 5395SOL    HW216722   2.758   3.514   4.553
 5396SOL     OW16723   2.260   2.555   4.198
 5396SOL    HW116724   2.275   2.461   4.209
 5396SOL    HW216725   2.166   2.566   4.215
 5397SOL     OW16726   3.392   2.086   5.449
 5397SOL    HW116727   3.402   2.107   5.542
 5397SOL    HW216728   3.325   2.018   5.446
 5398SOL     OW16729   2.515   1.982   3.828
 5398SOL    HW116730   2.571   1.912   3.860
 5398SOL    HW216731   2.465   1.942   3.757
 5399SOL     OW16732   2.625   2.140   5.479
 5399SOL    HW116733   2.705   2.088   5.475
 5399SOL    HW216734   2.584   2.114   5.562
 5400SOL     OW16735   2.738   3.383   4.919
 5400SOL    HW116736   2.720   3.346   4.832
 5400SOL    HW216737   2.808   3.328   4.955
 5401SOL     OW16738   3.201   2.452   5.157
 5401SOL    HW116739   3.232   2.420   5.242
 5401SOL    HW216740   3.238   2.539   5.149
 5402SOL     OW16741   2.680   3.252   4.669
 5402SOL    HW116742   2.764   3.240   4.626
 5402SOL    HW216743   2.617   3.257   4.598
 5403SOL     OW16744   2.790   2.370   4.625
 5403SOL    HW116745   2.765   2.362   4.533
 5403SOL    HW216746   2.822   2.283   4.649
 5404SOL     OW16747   2.450   1.924   4.194
 5404SOL    HW116748   2.375   1.913   4.253
 5404SOL    HW216749   2.431   2.004   4.145
 5405SOL     OW16750   3.289   3.063   3.763
 5405SOL    HW116751   3.320   2.987   3.814
 5405SOL    HW216752   3.204   3.084   3.801
 5406SOL     OW16753   2.809   2.115   4.179
 5406SOL    HW116754   2.783   2.153   4.095
 5406SOL    HW216755   2.904   2.131   4.184
 5407SOL     OW16756   2.943   2.546   5.182
 5407SOL    HW116757   2.879   2.475   5.186
 5407SOL    HW216758   3.027   2.501   5.176
 5408SOL     OW16759   3.081   3.433   4.518
 5408SOL    HW116760   3.096   3.500   4.451
 5408SOL    HW216761   3.152   3.446   4.582
 5409SOL     OW16762   2.335   3.015   4.451
 5409SOL    HW116763   2.267   2.996   4.517
 5409SOL    HW216764   2.291   3.001   4.367
 5410SOL     OW16765   3.126   3.655   4.334
 5410SOL    HW116766   3.174   3.720   4.282
 5410SOL    HW216767   3.052   3.703   4.371
 5411SOL     OW16768   2.885   2.398   3.749
 5411SOL    HW116769   2.842   2.481   3.730
 5411SOL    HW216770   2.950   2.420   3.816
 5412SOL     OW16771   1.941   2.425   5.110
 5412SOL    HW116772   2.035   2.421   5.089
 5412SOL    HW216773   1.935   2.491   5.179
 5413SOL     OW16774   2.415   2.081   4.898
 5413SOL    HW116775   2.469   2.006   4.923
 5413SOL    HW216776   2.331   2.065   4.943
 5414SOL     OW16777   2.725   2.318   4.363
 5414SOL    HW116778   2.685   2.375   4.297
 5414SOL    HW216779   2.752   2.240   4.314
 5415SOL     OW16780   2.876   1.916   4.474
 5415SOL    HW116781   2.821   1.905   4.396
 5415SOL    HW216782   2.854   1.841   4.529
 5416SOL     OW16783   3.302   3.023   4.581
 5416SOL    HW116784   3.231   2.959   4.581
 5416SOL    HW216785   3.328   3.031   4.489
 5417SOL     OW16786   3.327   2.472   4.694
 5417SOL    HW116787   3.272   2.393   4.696
 5417SOL    HW216788   3.385   2.464   4.769
 5418SOL     OW16789   3.724   2.677   4.099
 5418SOL    HW116790   3.767   2.622   4.163
 5418SOL    HW216791   3.687   2.616   4.035
 5419SOL     OW16792   2.352   3.282   3.875
 5419SOL    HW116793   2.276   3.254   3.927
 5419SOL    HW216794   2.343   3.234   3.793
 5420SOL     OW16795   3.530   3.128   4.366
 5420SOL    HW116796   3.625   3.129   4.376
 5420SOL    HW216797   3.503   3.217   4.387
 5421SOL     OW16798   3.256   2.434   3.795
 5421SOL    HW116799   3.194   2.414   3.865
 5421SOL    HW216800   3.340   2.403   3.829
 5422SOL     OW16801   2.386   2.130   4.029
 5422SOL    HW116802   2.432   2.083   3.961
 5422SOL    HW216803   2.360   2.213   3.989
 5423SOL     OW16804   3.612   3.095   5.286
 5423SOL    HW116805   3.699   3.060   5.268
 5423SOL    HW216806   3.627   3.185   5.315
 5424SOL     OW16807   2.917   3.214   5.055
 5424SOL    HW116808   2.842   3.183   5.106
 5424SOL    HW216809   2.993   3.173   5.097
 5425SOL     OW16810   3.469   3.492   5.382
 5425SOL    HW116811   3.459   3.526   5.293
 5425SOL    HW216812   3.549   3.439   5.379
 5426SOL     OW16813   2.996   3.071   4.826
 5426SOL    HW116814   2.936   3.108   4.891
 5426SOL    HW216815   2.965   3.105   4.742
 5427SOL     OW16816   3.488   2.956   4.798
 5427SOL    HW116817   3.479   3.018   4.870
 5427SOL    HW216818   3.413   2.973   4.742
 5428SOL     OW16819   2.778   1.958   5.115
 5428SOL    HW116820   2.802   1.938   5.025
 5428SOL    HW216821   2.857   1.996   5.153
 5429SOL     OW16822   2.846   2.977   5.447
 5429SOL    HW116823   2.755   2.994   5.470
 5429SOL    HW216824   2.843   2.898   5.392
 5430SOL     OW16825   2.572   2.924   4.095
 5430SOL    HW116826   2.557   2.904   4.187
 5430SOL    HW216827   2.647   2.871   4.070
 5431SOL     OW16828   2.282   2.677   4.975
 5431SOL    HW116829   2.350   2.689   5.042
 5431SOL    HW216830   2.248   2.588   4.991
 5432SOL     OW16831   3.126   2.237   5.004
 5432SOL    HW116832   3.159   2.315   5.049
 5432SOL    HW216833   3.035   2.259   4.982
 5433SOL     OW16834   1.936   3.435   5.079
 5433SOL    HW116835   1.908   3.510   5.026
 5433SOL    HW216836   2.031   3.435   5.073
 5434SOL     OW16837   2.203   2.978   4.213
 5434SOL    HW116838   2.206   3.051   4.151
 5434SOL    HW216839   2.199   2.900   4.157
 5435SOL     OW16840   2.404   2.395   4.587
 5435SOL    HW116841   2.417   2.453   4.512
 5435SOL    HW216842   2.472   2.421   4.649
 5436SOL     OW16843   3.109   3.212   4.114
 5436SOL    HW116844   3.165   3.282   4.146
 5436SOL    HW216845   3.022   3.233   4.147
 5437SOL     OW16846   3.149   3.323   4.872
 5437SOL    HW116847   3.205   3.327   4.950
 5437SOL    HW216848   3.094   3.246   4.887
 5438SOL     OW16849   3.438   2.480   4.208
 5438SOL    HW116850   3.390   2.531   4.274
 5438SOL    HW216851   3.480   2.546   4.153
 5439SOL     OW16852   2.207   3.393   5.034
 5439SOL    HW116853   2.196   3.347   4.950
 5439SOL    HW216854   2.302   3.403   5.043
 5440SOL     OW16855   2.280   2.611   5.329
 5440SOL    HW116856   2.342   2.653   5.269
 5440SOL    HW216857   2.323   2.530   5.357
 5441SOL     OW16858   3.468   2.641   5.409
 5441SOL    HW116859   3.383   2.684   5.404
 5441SOL    HW216860   3.521   2.684   5.342
 5442SOL     OW16861   2.857   1.994   5.475
 5442SOL    HW116862   2.917   2.065   5.454
 5442SOL    HW216863   2.905   1.914   5.452
 5443SOL     OW16864   2.372   1.891   5.475
 5443SOL    HW116865   2.323   1.836   5.414
 5443SOL    HW216866   2.314   1.966   5.492
 5444SOL     OW16867   2.449   2.735   4.757
 5444SOL    HW116868   2.481   2.825   4.757
 5444SOL    HW216869   2.391   2.731   4.833
 5445SOL     OW16870   3.212   2.721   4.746
 5445SOL    HW116871   3.127   2.706   4.705
 5445SOL    HW216872   3.258   2.637   4.738
 5446SOL     OW16873   3.062   2.389   3.986
 5446SOL    HW116874   3.072   2.312   4.041
 5446SOL    HW216875   3.020   2.454   4.043
 5447SOL     OW16876   1.908   3.173   4.998
 5447SOL    HW116877   1.940   3.118   5.070
 5447SOL    HW216878   1.914   3.263   5.032
 5448SOL     OW16879   2.580   2.488   4.777
 5448SOL    HW116880   2.658   2.475   4.723
 5448SOL    HW216881   2.554   2.578   4.760
 5449SOL     OW16882   3.592   2.821   5.589
 5449SOL    HW116883   3.553   2.754   5.533
 5449SOL    HW216884   3.527   2.836   5.657
 5450SOL     OW16885   2.224   1.896   4.328
 5450SOL    HW116886   2.149   1.951   4.307
 5450SOL    HW216887   2.211   1.871   4.419
 5451SOL     OW16888   3.483   2.240   4.086
 5451SOL    HW116889   3.509   2.174   4.150
 5451SOL    HW216890   3.459   2.317   4.138
 5452SOL     OW16891   2.890   2.620   4.682
 5452SOL    HW116892   2.882   2.637   4.776
 5452SOL    HW216893   2.864   2.528   4.672
 5453SOL     OW16894   2.848   3.430   5.446
 5453SOL    HW116895   2.828   3.471   5.362
 5453SOL    HW216896   2.889   3.347   5.424
 5454SOL     OW16897   3.703   3.358   5.321
 5454SOL    HW116898   3.728   3.388   5.234
 5454SOL    HW216899   3.783   3.365   5.373
 5455SOL     OW16900   2.215   2.782   5.537
 5455SOL    HW116901   2.298   2.802   5.580
 5455SOL    HW216902   2.239   2.719   5.468
 5456SOL     OW16903   3.390   2.134   3.851
 5456SOL    HW116904   3.326   2.068   3.878
 5456SOL    HW216905   3.423   2.170   3.932
 5457SOL     OW16906   3.149   2.686   3.752
 5457SOL    HW116907   3.193   2.601   3.757
 5457SOL    HW216908   3.182   2.725   3.671
 5458SOL     OW16909   2.930   3.200   4.580
 5458SOL    HW116910   2.935   3.128   4.518
 5458SOL    HW216911   2.988   3.267   4.544
 5459SOL     OW16912   2.172   2.673   4.670
 5459SOL    HW116913   2.264   2.695   4.660
 5459SOL    HW216914   2.172   2.585   4.708
 5460SOL     OW16915   2.182   2.362   4.736
 5460SOL    HW116916   2.139   2.292   4.687
 5460SOL    HW216917   2.263   2.379   4.687
 5461SOL     OW16918   2.997   2.236   5.408
 5461SOL    HW116919   2.949   2.290   5.470
 5461SOL    HW216920   3.084   2.275   5.403
 5462SOL     OW16921   3.021   2.061   5.194
 5462SOL    HW116922   3.010   2.124   5.266
 5462SOL    HW216923   3.064   2.111   5.125
 5463SOL     OW16924   1.868   3.179   3.918
 5463SOL    HW116925   1.781   3.195   3.882
 5463SOL    HW216926   1.865   3.090   3.953
 5464SOL     OW16927   1.960   3.637   4.663
 5464SOL    HW116928   1.928   3.559   4.617
 5464SOL    HW216929   2.044   3.657   4.622
 5465SOL     OW16930   2.353   3.438   4.628
 5465SOL    HW116931   2.421   3.501   4.653
 5465SOL    HW216932   2.398   3.376   4.571
 5466SOL     OW16933   2.837   2.649   4.948
 5466SOL    HW116934   2.898   2.631   5.019
 5466SOL    HW216935   2.753   2.613   4.978
 5467SOL     OW16936   1.900   2.399   4.842
 5467SOL    HW116937   1.985   2.403   4.797
 5467SOL    HW216938   1.922   2.413   4.934
 5468SOL     OW16939   2.063   2.396   5.451
 5468SOL    HW116940   2.124   2.360   5.386
 5468SOL    HW216941   2.019   2.468   5.406
 5469SOL     OW16942   3.243   2.797   5.382
 5469SOL    HW116943   3.264   2.890   5.378
 5469SOL    HW216944   3.238   2.770   5.290
 5470SOL     OW16945   2.679   2.432   4.092
 5470SOL    HW116946   2.684   2.359   4.031
 5470SOL    HW216947   2.605   2.485   4.060
 5471SOL     OW16948   3.501   2.463   4.905
 5471SOL    HW116949   3.490   2.403   4.979
 5471SOL    HW216950   3.588   2.443   4.870
 5472SOL     OW16951   2.102   3.410   5.446
 5472SOL    HW116952   2.080   3.477   5.511
 5472SOL    HW216953   2.108   3.329   5.497
 5473SOL     OW16954   2.567   2.307   4.979
 5473SOL    HW116955   2.512   2.234   4.952
 5473SOL    HW216956   2.561   2.370   4.908
 5474SOL     OW16957   2.787   3.532   5.195
 5474SOL    HW116958   2.761   3.493   5.111
 5474SOL    HW216959   2.779   3.627   5.180
 5475SOL     OW16960   2.324   2.362   3.912
 5475SOL    HW116961   2.382   2.434   3.935
 5475SOL    HW216962   2.239   2.403   3.894
 5476SOL     OW16963   2.005   3.005   5.198
 5476SOL    HW116964   2.006   2.957   5.281
 5476SOL    HW216965   2.022   2.939   5.131
 5477SOL     OW16966   3.182   2.905   4.944
 5477SOL    HW116967   3.204   2.842   4.876
 5477SOL    HW216968   3.116   2.962   4.904
 5478SOL     OW16969   3.176   2.717   4.028
 5478SOL    HW116970   3.101   2.687   4.080
 5478SOL    HW216971   3.149   2.704   3.937
 5479SOL     OW16972   3.641   3.600   4.881
 5479SOL    HW116973   3.699   3.626   4.810
 5479SOL    HW216974   3.613   3.512   4.857
 5480SOL     OW16975   3.106   3.594   4.831
 5480SOL    HW116976   3.189   3.617   4.789
 5480SOL    HW216977   3.114   3.501   4.851
 5481SOL     OW16978   1.949   3.127   4.735
 5481SOL    HW116979   1.932   3.142   4.828
 5481SOL    HW216980   1.875   3.073   4.705
 5482SOL     OW16981   2.541   3.528   5.460
 5482SOL    HW116982   2.483   3.604   5.464
 5482SOL    HW216983   2.603   3.548   5.390
 5483SOL     OW16984   3.569   2.015   4.234
 5483SOL    HW116985   3.638   2.003   4.168
 5483SOL    HW216986   3.559   1.929   4.274
 5484SOL     OW16987   3.252   3.430   4.214
 5484SOL    HW116988   3.311   3.465   4.146
 5484SOL    HW216989   3.204   3.507   4.244
 5485SOL     OW16990   1.999   3.650   5.562
 5485SOL    HW116991   1.947   3.586   5.612
 5485SOL    HW216992   2.046   3.699   5.629
 5486SOL     OW16993   3.139   2.789   4.395
 5486SOL    HW116994   3.213   2.729   4.405
 5486SOL    HW216995   3.173   2.861   4.342
 5487SOL     OW16996   2.669   3.138   5.149
 5487SOL    HW116997   2.641   3.178   5.232
 5487SOL    HW216998   2.599   3.159   5.088
 5488SOL     OW16999   2.536   3.481   3.883
 5488SOL    HW117000   2.546   3.500   3.789
 5488SOL    HW217001   2.477   3.406   3.886
 5489SOL     OW17002   3.479   3.589   5.114
 5489SOL    HW117003   3.536   3.592   5.037
 5489SOL    HW217004   3.466   3.681   5.137
 5490SOL     OW17005   3.700   2.043   4.690
 5490SOL    HW117006   3.732   1.956   4.666
 5490SOL    HW217007   3.614   2.050   4.649
 5491SOL     OW17008   3.070   3.464   3.761
 5491SOL    HW117009   3.059   3.372   3.785
 5491SOL    HW217010   3.008   3.477   3.688
 5492SOL     OW17011   2.686   2.869   5.098
 5492SOL    HW117012   2.729   2.864   5.013
 5492SOL    HW217013   2.682   2.962   5.118
 5493SOL     OW17014   2.779   2.773   4.015
 5493SOL    HW117015   2.839   2.806   3.948
 5493SOL    HW217016   2.829   2.705   4.061
 5494SOL     OW17017   3.348   3.497   3.767
 5494SOL    HW117018   3.255   3.483   3.750
 5494SOL    HW217019   3.388   3.501   3.680
 5495SOL     OW17020   2.231   3.166   5.215
 5495SOL    HW117021   2.217   3.243   5.160
 5495SOL    HW217022   2.153   3.112   5.201
 5496SOL     OW17023   3.461   3.142   5.000
 5496SOL    HW117024   3.530   3.132   5.066
 5496SOL    HW217025   3.404   3.211   5.035
 5497SOL     OW17026   2.921   2.972   4.434
 5497SOL    HW117027   2.849   2.921   4.471
 5497SOL    HW217028   2.985   2.906   4.406
 5498SOL     OW17029   2.884   2.103   4.690
 5498SOL    HW117030   2.880   2.056   4.607
 5498SOL    HW217031   2.880   2.034   4.756
 5499SOL     OW17032   2.468   3.353   4.203
 5499SOL    HW117033   2.515   3.302   4.138
 5499SOL    HW217034   2.397   3.394   4.154
 5500SOL     OW17035   3.588   2.250   5.102
 5500SOL    HW117036   3.660   2.313   5.099
 5500SOL    HW217037   3.616   2.179   5.045
 5501SOL     OW17038   2.124   3.204   4.015
 5501SOL    HW117039   2.031   3.201   3.991
 5501SOL    HW217040   2.125   3.244   4.102
 5502SOL     OW17041   1.976   2.892   5.447
 5502SOL    HW117042   1.899   2.866   5.498
 5502SOL    HW217043   2.049   2.851   5.493
 5503SOL     OW17044   2.535   2.059   5.224
 5503SOL    HW117045   2.619   2.038   5.182
 5503SOL    HW217046   2.560   2.090   5.312
 5504SOL     OW17047   1.897   2.285   3.786
 5504SOL    HW117048   1.862   2.200   3.761
 5504SOL    HW217049   1.946   2.316   3.709
 5505SOL     OW17050   3.287   2.720   5.122
 5505SOL    HW117051   3.236   2.781   5.068
 5505SOL    HW217052   3.375   2.722   5.085
 5506SOL     OW17053   3.039   3.197   3.842
 5506SOL    HW117054   2.948   3.168   3.843
 5506SOL    HW217055   3.066   3.197   3.934
 5507SOL     OW17056   2.482   2.693   5.158
 5507SOL    HW117057   2.538   2.769   5.144
 5507SOL    HW217058   2.543   2.619   5.165
 5508SOL     OW17059   3.348   3.645   4.707
 5508SOL    HW117060   3.371   3.702   4.634
 5508SOL    HW217061   3.432   3.611   4.739
 5509SOL     OW17062   2.579   2.422   5.423
 5509SOL    HW117063   2.623   2.483   5.482
 5509SOL    HW217064   2.599   2.335   5.457
 5510SOL     OW17065   3.336   3.057   5.353
 5510SOL    HW117066   3.325   3.072   5.447
 5510SOL    HW217067   3.428   3.073   5.336
 5511SOL     OW17068   2.234   3.604   5.291
 5511SOL    HW117069   2.150   3.647   5.274
 5511SOL    HW217070   2.211   3.521   5.331
 5512SOL     OW17071   3.525   2.742   4.983
 5512SOL    HW117072   3.524   2.656   4.939
 5512SOL    HW217073   3.518   2.805   4.911
 5513SOL     OW17074   3.080   2.182   4.180
 5513SOL    HW117075   3.142   2.109   4.174
 5513SOL    HW217076   3.109   2.232   4.257
 5514SOL     OW17077   2.445   2.596   4.400
 5514SOL    HW117078   2.488   2.681   4.385
 5514SOL    HW217079   2.382   2.588   4.328
 5515SOL     OW17080   3.618   2.228   5.375
 5515SOL    HW117081   3.602   2.242   5.281
 5515SOL    HW217082   3.547   2.170   5.403
 5516SOL     OW17083   3.620   2.789   5.237
 5516SOL    HW117084   3.610   2.882   5.255
 5516SOL    HW217085   3.594   2.780   5.145
 5517SOL     OW17086   2.726   3.228   3.766
 5517SOL    HW117087   2.686   3.256   3.848
 5517SOL    HW217088   2.740   3.310   3.718
 5518SOL     OW17089   2.523   3.649   4.660
 5518SOL    HW117090   2.503   3.740   4.641
 5518SOL    HW217091   2.619   3.644   4.656
 5519SOL     OW17092   2.731   2.832   4.578
 5519SOL    HW117093   2.781   2.760   4.616
 5519SOL    HW217094   2.693   2.877   4.654
 5520SOL     OW17095   2.940   2.851   3.813
 5520SOL    HW117096   2.918   2.902   3.735
 5520SOL    HW217097   3.014   2.796   3.786
 5521SOL     OW17098   3.710   3.416   4.564
 5521SOL    HW117099   3.630   3.397   4.515
 5521SOL    HW217100   3.714   3.347   4.630
 5522SOL     OW17101   2.089   3.162   5.578
 5522SOL    HW117102   2.024   3.099   5.545
 5522SOL    HW217103   2.065   3.174   5.670
 5523SOL     OW17104   1.950   3.092   4.389
 5523SOL    HW117105   1.960   3.046   4.473
 5523SOL    HW217106   2.016   3.052   4.333
 5524SOL     OW17107   2.547   3.268   5.355
 5524SOL    HW117108   2.467   3.226   5.387
 5524SOL    HW217109   2.544   3.356   5.392
 5525SOL     OW17110   3.672   2.038   4.961
 5525SOL    HW117111   3.664   1.943   4.963
 5525SOL    HW217112   3.689   2.059   4.869
 5526SOL     OW17113   2.293   2.290   4.244
 5526SOL    HW117114   2.328   2.233   4.176
 5526SOL    HW217115   2.250   2.231   4.306
 5527SOL     OW17116   3.556   3.351   4.819
 5527SOL    HW117117   3.478   3.328   4.768
 5527SOL    HW217118   3.566   3.279   4.882
 5528SOL     OW17119   2.196   2.417   5.013
 5528SOL    HW117120   2.240   2.355   5.071
 5528SOL    HW217121   2.210   2.382   4.925
 5529SOL     OW17122   2.692   3.440   4.400
 5529SOL    HW117123   2.670   3.495   4.325
 5529SOL    HW217124   2.618   3.379   4.407
 5530SOL     OW17125   3.291   2.091   4.840
 5530SOL    HW117126   3.310   2.007   4.882
 5530SOL    HW217127   3.241   2.139   4.906
 5531SOL     OW17128   2.870   1.878   4.861
 5531SOL    HW117129   2.816   1.811   4.818
 5531SOL    HW217130   2.958   1.840   4.863
 5532SOL     OW17131   2.636   3.195   4.045
 5532SOL    HW117132   2.607   3.104   4.052
 5532SOL    HW217133   2.718   3.198   4.094
 5533SOL     OW17134   2.482   3.414   5.010
 5533SOL    HW117135   2.482   3.496   5.060
 5533SOL    HW217136   2.570   3.409   4.973
 5534SOL     OW17137   3.219   1.914   3.893
 5534SOL    HW117138   3.251   1.844   3.838
 5534SOL    HW217139   3.130   1.888   3.916
 5535SOL     OW17140   3.156   2.325   4.402
 5535SOL    HW117141   3.104   2.405   4.408
 5535SOL    HW217142   3.153   2.288   4.490
 5536SOL     OW17143   3.442   2.058   4.604
 5536SOL    HW117144   3.388   2.083   4.678
 5536SOL    HW217145   3.444   2.135   4.547
 5537SOL     OW17146   1.906   2.930   4.032
 5537SOL    HW117147   1.999   2.921   4.013
 5537SOL    HW217148   1.877   2.842   4.054
 5538SOL     OW17149   2.750   3.524   4.065
 5538SOL    HW117150   2.678   3.505   4.005
 5538SOL    HW217151   2.719   3.598   4.117
 5539SOL     OW17152   2.093   2.494   5.715
 5539SOL    HW117153   2.007   2.470   5.751
 5539SOL    HW217154   2.088   2.468   5.623
 5540SOL     OW17155   1.811   2.212   6.216
 5540SOL    HW117156   1.726   2.248   6.191
 5540SOL    HW217157   1.868   2.232   6.142
 5541SOL     OW17158   2.435   3.156   6.767
 5541SOL    HW117159   2.349   3.156   6.725
 5541SOL    HW217160   2.447   3.246   6.797
 5542SOL     OW17161   3.428   3.374   6.295
 5542SOL    HW117162   3.385   3.351   6.378
 5542SOL    HW217163   3.356   3.378   6.232
 5543SOL     OW17164   2.993   2.559   6.288
 5543SOL    HW117165   3.044   2.638   6.266
 5543SOL    HW217166   2.947   2.583   6.369
 5544SOL     OW17167   3.627   2.467   5.816
 5544SOL    HW117168   3.608   2.460   5.722
 5544SOL    HW217169   3.596   2.384   5.853
 5545SOL     OW17170   2.642   3.007   6.647
 5545SOL    HW117171   2.559   3.025   6.690
 5545SOL    HW217172   2.664   3.089   6.602
 5546SOL     OW17173   2.754   2.649   7.417
 5546SOL    HW117174   2.709   2.714   7.470
 5546SOL    HW217175   2.766   2.691   7.332
 5547SOL     OW17176   2.551   2.882   6.225
 5547SOL    HW117177   2.609   2.856   6.296
 5547SOL    HW217178   2.477   2.924   6.270
 5548SOL     OW17179   2.585   3.019   7.394
 5548SOL    HW117180   2.629   3.099   7.425
 5548SOL    HW217181   2.501   3.050   7.361
 5549SOL     OW17182   2.195   3.283   6.654
 5549SOL    HW117183   2.116   3.249   6.611
 5549SOL    HW217184   2.239   3.335   6.587
 5550SOL     OW17185   3.320   3.363   6.946
 5550SOL    HW117186   3.375   3.441   6.955
 5550SOL    HW217187   3.252   3.373   7.013
 5551SOL     OW17188   2.269   2.256   7.102
 5551SOL    HW117189   2.359   2.253   7.134
 5551SOL    HW217190   2.257   2.172   7.056
 5552SOL     OW17191   3.470   2.307   6.332
 5552SOL    HW117192   3.405   2.330   6.266
 5552SOL    HW217193   3.486   2.388   6.381
 5553SOL     OW17194   2.083   3.580   6.065
 5553SOL    HW117195   2.113   3.637   6.135
 5553SOL    HW217196   2.156   3.576   6.003
 5554SOL     OW17197   2.998   3.203   7.281
 5554SOL    HW117198   3.040   3.197   7.367
 5554SOL    HW217199   2.947   3.123   7.273
 5555SOL     OW17200   2.097   3.305   6.121
 5555SOL    HW117201   2.073   3.398   6.127
 5555SOL    HW217202   2.037   3.261   6.181
 5556SOL     OW17203   2.109   2.966   6.479
 5556SOL    HW117204   2.098   2.890   6.535
 5556SOL    HW217205   2.059   3.035   6.522
 5557SOL     OW17206   2.468   3.648   7.014
 5557SOL    HW117207   2.386   3.634   7.063
 5557SOL    HW217208   2.494   3.736   7.038
 5558SOL     OW17209   2.446   2.848   5.720
 5558SOL    HW117210   2.494   2.895   5.652
 5558SOL    HW217211   2.482   2.880   5.802
 5559SOL     OW17212   3.456   1.989   7.051
 5559SOL    HW117213   3.478   2.069   7.004
 5559SOL    HW217214   3.440   2.017   7.141
 5560SOL     OW17215   3.700   3.611   5.928
 5560SOL    HW117216   3.772   3.586   5.986
 5560SOL    HW217217   3.718   3.702   5.906
 5561SOL     OW17218   1.894   3.450   5.707
 5561SOL    HW117219   1.877   3.358   5.728
 5561SOL    HW217220   1.872   3.497   5.787
 5562SOL     OW17221   3.550   2.781   6.234
 5562SOL    HW117222   3.634   2.737   6.216
 5562SOL    HW217223   3.531   2.830   6.155
 5563SOL     OW17224   3.504   2.964   6.018
 5563SOL    HW117225   3.589   2.968   5.975
 5563SOL    HW217226   3.511   3.028   6.089
 5564SOL     OW17227   2.479   3.253   6.321
 5564SOL    HW117228   2.432   3.170   6.330
 5564SOL    HW217229   2.461   3.279   6.230
 5565SOL     OW17230   3.147   3.097   7.009
 5565SOL    HW117231   3.179   3.031   6.948
 5565SOL    HW217232   3.208   3.093   7.083
 5566SOL     OW17233   2.023   2.843   6.889
 5566SOL    HW117234   2.103   2.791   6.892
 5566SOL    HW217235   1.976   2.808   6.813
 5567SOL     OW17236   3.389   2.860   5.787
 5567SOL    HW117237   3.320   2.803   5.821
 5567SOL    HW217238   3.432   2.894   5.866
 5568SOL     OW17239   3.085   3.668   7.215
 5568SOL    HW117240   3.057   3.728   7.146
 5568SOL    HW217241   3.084   3.582   7.172
 5569SOL     OW17242   3.328   3.282   6.534
 5569SOL    HW117243   3.261   3.297   6.601
 5569SOL    HW217244   3.316   3.190   6.509
 5570SOL     OW17245   3.507   3.608   6.167
 5570SOL    HW117246   3.499   3.573   6.078
 5570SOL    HW217247   3.491   3.533   6.224
 5571SOL     OW17248   2.453   2.594   5.846
 5571SOL    HW117249   2.465   2.671   5.791
 5571SOL    HW217250   2.401   2.624   5.920
 5572SOL     OW17251   3.140   2.223   6.525
 5572SOL    HW117252   3.069   2.162   6.505
 5572SOL    HW217253   3.197   2.175   6.585
 5573SOL     OW17254   3.435   3.540   5.895
 5573SOL    HW117255   3.528   3.562   5.890
 5573SOL    HW217256   3.410   3.520   5.804
 5574SOL     OW17257   3.277   2.343   7.261
 5574SOL    HW117258   3.274   2.386   7.346
 5574SOL    HW217259   3.329   2.264   7.275
 5575SOL     OW17260   2.811   2.748   7.159
 5575SOL    HW117261   2.863   2.674   7.127
 5575SOL    HW217262   2.779   2.791   7.080
 5576SOL     OW17263   2.917   2.561   6.010
 5576SOL    HW117264   2.925   2.552   6.105
 5576SOL    HW217265   2.834   2.516   5.989
 5577SOL     OW17266   1.980   3.714   7.163
 5577SOL    HW117267   1.985   3.693   7.257
 5577SOL    HW217268   1.887   3.703   7.141
 5578SOL     OW17269   2.754   2.220   5.773
 5578SOL    HW117270   2.798   2.274   5.707
 5578SOL    HW217271   2.775   2.130   5.748
 5579SOL     OW17272   3.570   2.434   7.416
 5579SOL    HW117273   3.533   2.507   7.367
 5579SOL    HW217274   3.596   2.371   7.348
 5580SOL     OW17275   3.239   3.003   6.126
 5580SOL    HW117276   3.319   2.991   6.075
 5580SOL    HW217277   3.187   3.066   6.076
 5581SOL     OW17278   2.863   3.307   6.055
 5581SOL    HW117279   2.829   3.382   6.006
 5581SOL    HW217280   2.840   3.326   6.146
 5582SOL     OW17281   2.213   3.675   6.423
 5582SOL    HW117282   2.263   3.595   6.442
 5582SOL    HW217283   2.272   3.746   6.448
 5583SOL     OW17284   3.668   2.922   6.455
 5583SOL    HW117285   3.616   2.896   6.380
 5583SOL    HW217286   3.606   2.925   6.528
 5584SOL     OW17287   3.088   3.400   7.098
 5584SOL    HW117288   3.076   3.327   7.159
 5584SOL    HW217289   3.020   3.387   7.032
 5585SOL     OW17290   2.182   2.809   5.844
 5585SOL    HW117291   2.259   2.835   5.793
 5585SOL    HW217292   2.149   2.732   5.799
 5586SOL     OW17293   3.344   2.610   6.311
 5586SOL    HW117294   3.341   2.572   6.399
 5586SOL    HW217295   3.421   2.667   6.312
 5587SOL     OW17296   2.331   3.131   7.327
 5587SOL    HW117297   2.306   3.137   7.234
 5587SOL    HW217298   2.248   3.128   7.374
 5588SOL     OW17299   2.977   3.644   5.806
 5588SOL    HW117300   2.911   3.599   5.859
 5588SOL    HW217301   3.007   3.577   5.745
 5589SOL     OW17302   3.485   3.248   5.675
 5589SOL    HW117303   3.442   3.332   5.657
 5589SOL    HW217304   3.419   3.182   5.654
 5590SOL     OW17305   2.327   3.599   5.911
 5590SOL    HW117306   2.366   3.663   5.971
 5590SOL    HW217307   2.400   3.572   5.854
 5591SOL     OW17308   3.266   1.971   6.023
 5591SOL    HW117309   3.257   1.945   5.932
 5591SOL    HW217310   3.360   1.976   6.038
 5592SOL     OW17311   2.124   3.652   6.806
 5592SOL    HW117312   2.171   3.580   6.848
 5592SOL    HW217313   2.105   3.620   6.718
 5593SOL     OW17314   2.800   3.565   6.484
 5593SOL    HW117315   2.876   3.512   6.509
 5593SOL    HW217316   2.757   3.514   6.415
 5594SOL     OW17317   3.394   2.087   7.311
 5594SOL    HW117318   3.404   2.106   7.404
 5594SOL    HW217319   3.322   2.024   7.307
 5595SOL     OW17320   2.515   1.978   5.694
 5595SOL    HW117321   2.581   1.911   5.713
 5595SOL    HW217322   2.463   1.940   5.623
 5596SOL     OW17323   2.738   3.384   6.782
 5596SOL    HW117324   2.720   3.348   6.695
 5596SOL    HW217325   2.807   3.328   6.817
 5597SOL     OW17326   3.197   2.458   7.023
 5597SOL    HW117327   3.236   2.426   7.105
 5597SOL    HW217328   3.237   2.545   7.011
 5598SOL     OW17329   2.680   3.257   6.531
 5598SOL    HW117330   2.764   3.243   6.487
 5598SOL    HW217331   2.615   3.258   6.460
 5599SOL     OW17332   2.353   1.943   6.083
 5599SOL    HW117333   2.278   1.978   6.132
 5599SOL    HW217334   2.375   2.013   6.021
 5600SOL     OW17335   3.289   3.063   5.625
 5600SOL    HW117336   3.320   2.988   5.676
 5600SOL    HW217337   3.204   3.084   5.663
 5601SOL     OW17338   2.813   2.102   6.025
 5601SOL    HW117339   2.779   2.159   5.956
 5601SOL    HW217340   2.906   2.125   6.033
 5602SOL     OW17341   2.930   2.522   7.047
 5602SOL    HW117342   2.892   2.447   7.092
 5602SOL    HW217343   3.024   2.503   7.042
 5603SOL     OW17344   3.083   3.433   6.379
 5603SOL    HW117345   3.097   3.500   6.313
 5603SOL    HW217346   3.152   3.448   6.444
 5604SOL     OW17347   2.326   3.018   6.317
 5604SOL    HW117348   2.256   3.003   6.381
 5604SOL    HW217349   2.284   3.002   6.233
 5605SOL     OW17350   3.126   3.655   6.196
 5605SOL    HW117351   3.174   3.720   6.144
 5605SOL    HW217352   3.052   3.703   6.232
 5606SOL     OW17353   2.888   2.399   5.608
 5606SOL    HW117354   2.844   2.482   5.591
 5606SOL    HW217355   2.951   2.419   5.677
 5607SOL     OW17356   1.935   2.446   6.967
 5607SOL    HW117357   2.029   2.433   6.952
 5607SOL    HW217358   1.931   2.493   7.051
 5608SOL     OW17359   2.410   2.109   6.742
 5608SOL    HW117360   2.482   2.048   6.754
 5608SOL    HW217361   2.349   2.089   6.813
 5609SOL     OW17362   3.303   3.023   6.443
 5609SOL    HW117363   3.229   2.963   6.441
 5609SOL    HW217364   3.330   3.032   6.351
 5610SOL     OW17365   3.326   2.474   6.559
 5610SOL    HW117366   3.277   2.392   6.559
 5610SOL    HW217367   3.386   2.466   6.633
 5611SOL     OW17368   3.723   2.677   5.960
 5611SOL    HW117369   3.767   2.621   6.025
 5611SOL    HW217370   3.686   2.616   5.897
 5612SOL     OW17371   2.352   3.282   5.738
 5612SOL    HW117372   2.276   3.254   5.789
 5612SOL    HW217373   2.342   3.235   5.655
 5613SOL     OW17374   3.530   3.127   6.229
 5613SOL    HW117375   3.625   3.129   6.239
 5613SOL    HW217376   3.502   3.216   6.250
 5614SOL     OW17377   3.256   2.434   5.657
 5614SOL    HW117378   3.193   2.414   5.726
 5614SOL    HW217379   3.340   2.402   5.690
 5615SOL     OW17380   2.398   2.132   5.898
 5615SOL    HW117381   2.444   2.083   5.831
 5615SOL    HW217382   2.373   2.214   5.856
 5616SOL     OW17383   3.612   3.095   7.148
 5616SOL    HW117384   3.700   3.060   7.130
 5616SOL    HW217385   3.628   3.185   7.177
 5617SOL     OW17386   2.917   3.215   6.919
 5617SOL    HW117387   2.841   3.184   6.970
 5617SOL    HW217388   2.992   3.173   6.960
 5618SOL     OW17389   3.469   3.492   7.244
 5618SOL    HW117390   3.459   3.526   7.155
 5618SOL    HW217391   3.549   3.439   7.241
 5619SOL     OW17392   2.997   3.072   6.688
 5619SOL    HW117393   2.934   3.105   6.752
 5619SOL    HW217394   2.965   3.103   6.604
 5620SOL     OW17395   3.488   2.956   6.660
 5620SOL    HW117396   3.478   3.018   6.732
 5620SOL    HW217397   3.413   2.973   6.603
 5621SOL     OW17398   2.835   1.912   6.945
 5621SOL    HW117399   2.889   1.910   6.866
 5621SOL    HW217400   2.887   1.964   7.008
 5622SOL     OW17401   2.848   2.972   7.309
 5622SOL    HW117402   2.757   2.991   7.332
 5622SOL    HW217403   2.843   2.896   7.252
 5623SOL     OW17404   2.570   2.924   5.954
 5623SOL    HW117405   2.557   2.910   6.048
 5623SOL    HW217406   2.646   2.870   5.932
 5624SOL     OW17407   2.238   2.677   6.866
 5624SOL    HW117408   2.328   2.696   6.892
 5624SOL    HW217409   2.231   2.581   6.873
 5625SOL     OW17410   3.129   2.241   6.871
 5625SOL    HW117411   3.160   2.315   6.922
 5625SOL    HW217412   3.059   2.278   6.816
 5626SOL     OW17413   1.935   3.435   6.940
 5626SOL    HW117414   1.906   3.508   6.886
 5626SOL    HW217415   2.031   3.438   6.934
 5627SOL     OW17416   2.198   2.976   6.076
 5627SOL    HW117417   2.205   3.050   6.016
 5627SOL    HW217418   2.198   2.899   6.020
 5628SOL     OW17419   3.109   3.212   5.976
 5628SOL    HW117420   3.165   3.282   6.008
 5628SOL    HW217421   3.022   3.233   6.010
 5629SOL     OW17422   3.149   3.323   6.734
 5629SOL    HW117423   3.204   3.326   6.812
 5629SOL    HW217424   3.093   3.246   6.747
 5630SOL     OW17425   3.439   2.478   6.074
 5630SOL    HW117426   3.391   2.533   6.135
 5630SOL    HW217427   3.481   2.540   6.014
 5631SOL     OW17428   2.209   3.392   6.897
 5631SOL    HW117429   2.197   3.348   6.813
 5631SOL    HW217430   2.303   3.404   6.905
 5632SOL     OW17431   3.469   2.642   7.272
 5632SOL    HW117432   3.383   2.684   7.267
 5632SOL    HW217433   3.521   2.685   7.204
 5633SOL     OW17434   2.334   1.944   7.309
 5633SOL    HW117435   2.298   1.875   7.254
 5633SOL    HW217436   2.266   1.960   7.374
 5634SOL     OW17437   3.212   2.722   6.609
 5634SOL    HW117438   3.130   2.710   6.561
 5634SOL    HW217439   3.257   2.638   6.601
 5635SOL     OW17440   3.061   2.390   5.846
 5635SOL    HW117441   3.072   2.312   5.901
 5635SOL    HW217442   3.021   2.455   5.904
 5636SOL     OW17443   2.240   2.039   6.930
 5636SOL    HW117444   2.146   2.046   6.950
 5636SOL    HW217445   2.250   1.951   6.893
 5637SOL     OW17446   1.907   3.172   6.869
 5637SOL    HW117447   1.943   3.124   6.943
 5637SOL    HW217448   1.912   3.264   6.895
 5638SOL     OW17449   3.592   2.821   7.451
 5638SOL    HW117450   3.553   2.754   7.395
 5638SOL    HW217451   3.528   2.836   7.520
 5639SOL     OW17452   3.484   2.240   5.948
 5639SOL    HW117453   3.510   2.173   6.011
 5639SOL    HW217454   3.460   2.316   6.001
 5640SOL     OW17455   2.890   2.621   6.544
 5640SOL    HW117456   2.889   2.648   6.636
 5640SOL    HW217457   2.863   2.529   6.545
 5641SOL     OW17458   2.848   3.431   7.308
 5641SOL    HW117459   2.828   3.471   7.224
 5641SOL    HW217460   2.889   3.347   7.286
 5642SOL     OW17461   3.703   3.358   7.183
 5642SOL    HW117462   3.728   3.388   7.096
 5642SOL    HW217463   3.783   3.365   7.235
 5643SOL     OW17464   3.389   2.134   5.712
 5643SOL    HW117465   3.325   2.068   5.739
 5643SOL    HW217466   3.423   2.170   5.794
 5644SOL     OW17467   3.150   2.686   5.615
 5644SOL    HW117468   3.193   2.601   5.619
 5644SOL    HW217469   3.182   2.726   5.534
 5645SOL     OW17470   2.929   3.201   6.442
 5645SOL    HW117471   2.933   3.128   6.380
 5645SOL    HW217472   2.988   3.267   6.406
 5646SOL     OW17473   3.017   2.267   7.248
 5646SOL    HW117474   2.977   2.316   7.320
 5646SOL    HW217475   3.109   2.293   7.250
 5647SOL     OW17476   3.028   2.063   7.068
 5647SOL    HW117477   3.015   2.125   7.139
 5647SOL    HW217478   3.070   2.114   6.999
 5648SOL     OW17479   1.869   3.176   5.779
 5648SOL    HW117480   1.781   3.194   5.744
 5648SOL    HW217481   1.864   3.086   5.811
 5649SOL     OW17482   1.961   3.638   6.526
 5649SOL    HW117483   1.928   3.560   6.481
 5649SOL    HW217484   2.044   3.657   6.484
 5650SOL     OW17485   2.354   3.439   6.490
 5650SOL    HW117486   2.422   3.501   6.515
 5650SOL    HW217487   2.398   3.376   6.433
 5651SOL     OW17488   2.849   2.639   6.809
 5651SOL    HW117489   2.890   2.603   6.887
 5651SOL    HW217490   2.763   2.670   6.839
 5652SOL     OW17491   1.916   2.349   6.716
 5652SOL    HW117492   1.963   2.407   6.656
 5652SOL    HW217493   1.919   2.394   6.800
 5653SOL     OW17494   2.036   2.376   7.258
 5653SOL    HW117495   2.113   2.342   7.211
 5653SOL    HW217496   2.068   2.455   7.302
 5654SOL     OW17497   3.242   2.796   7.242
 5654SOL    HW117498   3.263   2.890   7.240
 5654SOL    HW217499   3.240   2.770   7.150
 5655SOL     OW17500   2.682   2.450   5.914
 5655SOL    HW117501   2.692   2.368   5.866
 5655SOL    HW217502   2.608   2.494   5.873
 5656SOL     OW17503   3.502   2.462   6.767
 5656SOL    HW117504   3.493   2.402   6.842
 5656SOL    HW217505   3.588   2.443   6.732
 5657SOL     OW17506   2.102   3.411   7.308
 5657SOL    HW117507   2.080   3.480   7.371
 5657SOL    HW217508   2.112   3.332   7.362
 5658SOL     OW17509   2.786   3.533   7.057
 5658SOL    HW117510   2.761   3.492   6.974
 5658SOL    HW217511   2.778   3.627   7.041
 5659SOL     OW17512   2.324   2.361   5.784
 5659SOL    HW117513   2.379   2.439   5.799
 5659SOL    HW217514   2.238   2.397   5.762
 5660SOL     OW17515   2.004   3.009   7.089
 5660SOL    HW117516   2.032   2.955   7.163
 5660SOL    HW217517   2.009   2.951   7.014
 5661SOL     OW17518   3.182   2.906   6.807
 5661SOL    HW117519   3.204   2.843   6.738
 5661SOL    HW217520   3.116   2.963   6.767
 5662SOL     OW17521   3.176   2.716   5.891
 5662SOL    HW117522   3.101   2.686   5.942
 5662SOL    HW217523   3.150   2.703   5.800
 5663SOL     OW17524   3.642   3.600   6.743
 5663SOL    HW117525   3.699   3.627   6.672
 5663SOL    HW217526   3.613   3.512   6.719
 5664SOL     OW17527   3.107   3.595   6.693
 5664SOL    HW117528   3.190   3.617   6.651
 5664SOL    HW217529   3.114   3.501   6.713
 5665SOL     OW17530   1.948   3.151   6.599
 5665SOL    HW117531   1.927   3.152   6.692
 5665SOL    HW217532   1.879   3.098   6.559
 5666SOL     OW17533   2.542   3.529   7.323
 5666SOL    HW117534   2.484   3.605   7.326
 5666SOL    HW217535   2.602   3.549   7.251
 5667SOL     OW17536   3.570   2.015   6.096
 5667SOL    HW117537   3.638   2.002   6.030
 5667SOL    HW217538   3.559   1.928   6.136
 5668SOL     OW17539   3.253   3.430   6.075
 5668SOL    HW117540   3.311   3.465   6.008
 5668SOL    HW217541   3.203   3.507   6.106
 5669SOL     OW17542   2.000   3.650   7.424
 5669SOL    HW117543   1.948   3.587   7.474
 5669SOL    HW217544   2.047   3.700   7.491
 5670SOL     OW17545   3.139   2.787   6.254
 5670SOL    HW117546   3.214   2.729   6.265
 5670SOL    HW217547   3.172   2.860   6.202
 5671SOL     OW17548   2.667   3.138   7.013
 5671SOL    HW117549   2.638   3.181   7.093
 5671SOL    HW217550   2.599   3.158   6.949
 5672SOL     OW17551   2.536   3.481   5.745
 5672SOL    HW117552   2.546   3.499   5.651
 5672SOL    HW217553   2.477   3.406   5.748
 5673SOL     OW17554   3.479   3.589   6.976
 5673SOL    HW117555   3.536   3.591   6.899
 5673SOL    HW217556   3.466   3.681   6.999
 5674SOL     OW17557   3.700   2.043   6.552
 5674SOL    HW117558   3.732   1.956   6.529
 5674SOL    HW217559   3.614   2.049   6.510
 5675SOL     OW17560   3.070   3.464   5.623
 5675SOL    HW117561   3.059   3.372   5.647
 5675SOL    HW217562   3.008   3.477   5.550
 5676SOL     OW17563   2.705   2.879   6.938
 5676SOL    HW117564   2.720   2.897   6.845
 5676SOL    HW217565   2.693   2.965   6.978
 5677SOL     OW17566   2.777   2.771   5.875
 5677SOL    HW117567   2.837   2.805   5.809
 5677SOL    HW217568   2.828   2.704   5.922
 5678SOL     OW17569   3.348   3.497   5.629
 5678SOL    HW117570   3.255   3.483   5.612
 5678SOL    HW217571   3.388   3.501   5.542
 5679SOL     OW17572   2.232   3.171   7.081
 5679SOL    HW117573   2.221   3.246   7.022
 5679SOL    HW217574   2.153   3.118   7.068
 5680SOL     OW17575   3.460   3.141   6.862
 5680SOL    HW117576   3.530   3.132   6.927
 5680SOL    HW217577   3.404   3.210   6.897
 5681SOL     OW17578   2.920   2.971   6.299
 5681SOL    HW117579   2.844   2.922   6.332
 5681SOL    HW217580   2.981   2.903   6.268
 5682SOL     OW17581   2.468   3.353   6.065
 5682SOL    HW117582   2.515   3.302   5.999
 5682SOL    HW217583   2.396   3.394   6.017
 5683SOL     OW17584   3.587   2.251   6.963
 5683SOL    HW117585   3.660   2.313   6.961
 5683SOL    HW217586   3.615   2.179   6.907
 5684SOL     OW17587   2.123   3.203   5.877
 5684SOL    HW117588   2.031   3.200   5.854
 5684SOL    HW217589   2.126   3.243   5.963
 5685SOL     OW17590   1.897   2.280   5.641
 5685SOL    HW117591   1.859   2.200   5.605
 5685SOL    HW217592   1.950   2.315   5.569
 5686SOL     OW17593   3.286   2.721   6.983
 5686SOL    HW117594   3.237   2.783   6.929
 5686SOL    HW217595   3.375   2.723   6.947
 5687SOL     OW17596   3.039   3.197   5.704
 5687SOL    HW117597   2.948   3.169   5.705
 5687SOL    HW217598   3.065   3.197   5.796
 5688SOL     OW17599   2.495   2.700   6.969
 5688SOL    HW117600   2.548   2.779   6.955
 5688SOL    HW217601   2.549   2.645   7.025
 5689SOL     OW17602   3.348   3.645   6.569
 5689SOL    HW117603   3.371   3.702   6.496
 5689SOL    HW217604   3.432   3.611   6.601
 5690SOL     OW17605   3.336   3.057   7.215
 5690SOL    HW117606   3.326   3.072   7.309
 5690SOL    HW217607   3.429   3.073   7.198
 5691SOL     OW17608   2.235   3.605   7.153
 5691SOL    HW117609   2.151   3.648   7.135
 5691SOL    HW217610   2.211   3.521   7.191
 5692SOL     OW17611   3.525   2.742   6.844
 5692SOL    HW117612   3.525   2.657   6.800
 5692SOL    HW217613   3.518   2.806   6.773
 5693SOL     OW17614   3.084   2.185   6.039
 5693SOL    HW117615   3.145   2.112   6.033
 5693SOL    HW217616   3.111   2.233   6.118
 5694SOL     OW17617   3.619   2.228   7.236
 5694SOL    HW117618   3.602   2.242   7.143
 5694SOL    HW217619   3.549   2.170   7.264
 5695SOL     OW17620   3.619   2.789   7.099
 5695SOL    HW117621   3.610   2.883   7.117
 5695SOL    HW217622   3.594   2.780   7.007
 5696SOL     OW17623   2.727   3.228   5.628
 5696SOL    HW117624   2.686   3.255   5.711
 5696SOL    HW217625   2.740   3.310   5.580
 5697SOL     OW17626   2.523   3.649   6.524
 5697SOL    HW117627   2.503   3.741   6.503
 5697SOL    HW217628   2.619   3.644   6.518
 5698SOL     OW17629   2.723   2.831   6.441
 5698SOL    HW117630   2.773   2.759   6.479
 5698SOL    HW217631   2.690   2.881   6.516
 5699SOL     OW17632   2.938   2.849   5.674
 5699SOL    HW117633   2.918   2.902   5.597
 5699SOL    HW217634   3.013   2.796   5.648
 5700SOL     OW17635   3.710   3.416   6.426
 5700SOL    HW117636   3.630   3.397   6.377
 5700SOL    HW217637   3.713   3.347   6.493
 5701SOL     OW17638   2.090   3.163   7.449
 5701SOL    HW117639   1.999   3.139   7.430
 5701SOL    HW217640   2.092   3.177   7.543
 5702SOL     OW17641   1.949   3.101   6.245
 5702SOL    HW117642   1.932   3.053   6.327
 5702SOL    HW217643   2.018   3.050   6.202
 5703SOL     OW17644   2.545   3.271   7.216
 5703SOL    HW117645   2.466   3.229   7.250
 5703SOL    HW217646   2.544   3.359   7.254
 5704SOL     OW17647   3.670   2.039   6.823
 5704SOL    HW117648   3.664   1.943   6.825
 5704SOL    HW217649   3.688   2.059   6.731
 5705SOL     OW17650   2.222   2.233   6.115
 5705SOL    HW117651   2.268   2.216   6.033
 5705SOL    HW217652   2.284   2.283   6.167
 5706SOL     OW17653   3.556   3.351   6.681
 5706SOL    HW117654   3.478   3.328   6.631
 5706SOL    HW217655   3.566   3.279   6.744
 5707SOL     OW17656   2.206   2.404   6.880
 5707SOL    HW117657   2.232   2.354   6.957
 5707SOL    HW217658   2.241   2.354   6.806
 5708SOL     OW17659   2.691   3.441   6.262
 5708SOL    HW117660   2.669   3.494   6.186
 5708SOL    HW217661   2.619   3.379   6.270
 5709SOL     OW17662   3.292   2.089   6.703
 5709SOL    HW117663   3.309   2.000   6.733
 5709SOL    HW217664   3.249   2.132   6.776
 5710SOL     OW17665   2.636   3.194   5.907
 5710SOL    HW117666   2.607   3.103   5.914
 5710SOL    HW217667   2.717   3.197   5.957
 5711SOL     OW17668   2.482   3.416   6.871
 5711SOL    HW117669   2.483   3.498   6.921
 5711SOL    HW217670   2.570   3.410   6.835
 5712SOL     OW17671   3.219   1.914   5.755
 5712SOL    HW117672   3.252   1.844   5.699
 5712SOL    HW217673   3.131   1.887   5.778
 5713SOL     OW17674   3.152   2.324   6.267
 5713SOL    HW117675   3.103   2.406   6.270
 5713SOL    HW217676   3.155   2.294   6.358
 5714SOL     OW17677   3.443   2.059   6.464
 5714SOL    HW117678   3.392   2.084   6.541
 5714SOL    HW217679   3.446   2.138   6.410
 5715SOL     OW17680   1.899   2.921   5.888
 5715SOL    HW117681   1.994   2.916   5.890
 5715SOL    HW217682   1.870   2.830   5.878
 5716SOL     OW17683   2.750   3.524   5.927
 5716SOL    HW117684   2.678   3.505   5.867
 5716SOL    HW217685   2.719   3.598   5.979
 5717SOL     OW17686   1.844   2.280   8.067
 5717SOL    HW117687   1.765   2.289   8.121
 5717SOL    HW217688   1.822   2.212   8.003
 5718SOL     OW17689   2.429   3.157   8.628
 5718SOL    HW117690   2.343   3.163   8.588
 5718SOL    HW217691   2.446   3.245   8.662
 5719SOL     OW17692   3.428   3.375   8.157
 5719SOL    HW117693   3.386   3.351   8.240
 5719SOL    HW217694   3.357   3.378   8.094
 5720SOL     OW17695   2.994   2.563   8.145
 5720SOL    HW117696   3.043   2.644   8.134
 5720SOL    HW217697   2.947   2.575   8.228
 5721SOL     OW17698   3.629   2.467   7.677
 5721SOL    HW117699   3.609   2.460   7.584
 5721SOL    HW217700   3.596   2.385   7.715
 5722SOL     OW17701   2.608   3.000   8.493
 5722SOL    HW117702   2.542   3.037   8.551
 5722SOL    HW217703   2.648   3.075   8.450
 5723SOL     OW17704   2.734   2.626   9.271
 5723SOL    HW117705   2.722   2.696   9.335
 5723SOL    HW217706   2.757   2.671   9.190
 5724SOL     OW17707   2.547   2.860   8.096
 5724SOL    HW117708   2.614   2.854   8.164
 5724SOL    HW217709   2.479   2.916   8.135
 5725SOL     OW17710   2.576   3.012   9.265
 5725SOL    HW117711   2.623   3.090   9.296
 5725SOL    HW217712   2.495   3.047   9.227
 5726SOL     OW17713   2.194   3.280   8.515
 5726SOL    HW117714   2.119   3.243   8.468
 5726SOL    HW217715   2.239   3.334   8.449
 5727SOL     OW17716   3.320   3.364   8.807
 5727SOL    HW117717   3.375   3.442   8.817
 5727SOL    HW217718   3.253   3.373   8.875
 5728SOL     OW17719   2.296   2.259   8.947
 5728SOL    HW117720   2.390   2.241   8.951
 5728SOL    HW217721   2.255   2.172   8.947
 5729SOL     OW17722   3.470   2.305   8.193
 5729SOL    HW117723   3.401   2.328   8.132
 5729SOL    HW217724   3.480   2.383   8.248
 5730SOL     OW17725   2.085   3.577   7.927
 5730SOL    HW117726   2.112   3.637   7.996
 5730SOL    HW217727   2.158   3.576   7.865
 5731SOL     OW17728   2.999   3.204   9.143
 5731SOL    HW117729   3.041   3.197   9.228
 5731SOL    HW217730   2.947   3.124   9.134
 5732SOL     OW17731   2.092   3.302   7.979
 5732SOL    HW117732   2.077   3.397   7.983
 5732SOL    HW217733   2.035   3.266   8.046
 5733SOL     OW17734   2.127   2.954   8.341
 5733SOL    HW117735   2.122   2.867   8.381
 5733SOL    HW217736   2.069   3.008   8.394
 5734SOL     OW17737   2.467   3.647   8.875
 5734SOL    HW117738   2.386   3.633   8.924
 5734SOL    HW217739   2.494   3.735   8.900
 5735SOL     OW17740   2.469   2.845   7.570
 5735SOL    HW117741   2.516   2.906   7.513
 5735SOL    HW217742   2.501   2.866   7.658
 5736SOL     OW17743   3.455   1.989   8.912
 5736SOL    HW117744   3.477   2.070   8.866
 5736SOL    HW217745   3.439   2.017   9.002
 5737SOL     OW17746   1.982   2.511   8.027
 5737SOL    HW117747   1.933   2.430   8.045
 5737SOL    HW217748   1.965   2.566   8.103
 5738SOL     OW17749   3.700   3.611   7.791
 5738SOL    HW117750   3.772   3.586   7.848
 5738SOL    HW217751   3.718   3.702   7.768
 5739SOL     OW17752   1.896   3.449   7.570
 5739SOL    HW117753   1.875   3.358   7.591
 5739SOL    HW217754   1.874   3.498   7.649
 5740SOL     OW17755   3.551   2.782   8.097
 5740SOL    HW117756   3.634   2.737   8.078
 5740SOL    HW217757   3.531   2.830   8.017
 5741SOL     OW17758   3.504   2.965   7.880
 5741SOL    HW117759   3.589   2.968   7.837
 5741SOL    HW217760   3.511   3.028   7.951
 5742SOL     OW17761   1.983   2.604   9.033
 5742SOL    HW117762   2.074   2.632   9.041
 5742SOL    HW217763   1.933   2.685   9.040
 5743SOL     OW17764   2.479   3.254   8.183
 5743SOL    HW117765   2.433   3.170   8.192
 5743SOL    HW217766   2.461   3.281   8.092
 5744SOL     OW17767   3.148   3.098   8.870
 5744SOL    HW117768   3.179   3.031   8.809
 5744SOL    HW217769   3.208   3.093   8.944
 5745SOL     OW17770   2.681   1.865   7.994
 5745SOL    HW117771   2.722   1.943   7.956
 5745SOL    HW217772   2.588   1.875   7.973
 5746SOL     OW17773   2.052   2.826   8.725
 5746SOL    HW117774   2.136   2.783   8.709
 5746SOL    HW217775   1.989   2.774   8.674
 5747SOL     OW17776   3.390   2.861   7.649
 5747SOL    HW117777   3.321   2.803   7.682
 5747SOL    HW217778   3.432   2.895   7.728
 5748SOL     OW17779   3.085   3.668   9.076
 5748SOL    HW117780   3.057   3.728   9.008
 5748SOL    HW217781   3.084   3.582   9.034
 5749SOL     OW17782   2.267   2.163   9.265
 5749SOL    HW117783   2.319   2.226   9.314
 5749SOL    HW217784   2.178   2.198   9.267
 5750SOL     OW17785   3.327   3.282   8.395
 5750SOL    HW117786   3.261   3.297   8.463
 5750SOL    HW217787   3.316   3.190   8.370
 5751SOL     OW17788   3.506   3.609   8.029
 5751SOL    HW117789   3.499   3.573   7.940
 5751SOL    HW217790   3.491   3.533   8.086
 5752SOL     OW17791   3.139   2.225   8.382
 5752SOL    HW117792   3.051   2.189   8.391
 5752SOL    HW217793   3.193   2.171   8.441
 5753SOL     OW17794   3.434   3.540   7.757
 5753SOL    HW117795   3.527   3.562   7.752
 5753SOL    HW217796   3.410   3.520   7.666
 5754SOL     OW17797   2.655   2.482   8.897
 5754SOL    HW117798   2.631   2.456   8.986
 5754SOL    HW217799   2.618   2.414   8.840
 5755SOL     OW17800   3.255   2.335   9.126
 5755SOL    HW117801   3.259   2.380   9.211
 5755SOL    HW217802   3.312   2.260   9.136
 5756SOL     OW17803   2.812   2.748   9.033
 5756SOL    HW117804   2.868   2.679   8.995
 5756SOL    HW217805   2.764   2.784   8.959
 5757SOL     OW17806   2.855   2.273   8.684
 5757SOL    HW117807   2.768   2.293   8.717
 5757SOL    HW217808   2.840   2.229   8.600
 5758SOL     OW17809   2.916   2.560   7.878
 5758SOL    HW117810   2.944   2.558   7.969
 5758SOL    HW217811   2.829   2.522   7.878
 5759SOL     OW17812   1.947   2.687   8.232
 5759SOL    HW117813   2.029   2.682   8.281
 5759SOL    HW217814   1.904   2.765   8.266
 5760SOL     OW17815   1.980   3.715   9.026
 5760SOL    HW117816   1.985   3.694   9.119
 5760SOL    HW217817   1.888   3.701   9.004
 5761SOL     OW17818   3.569   2.434   9.278
 5761SOL    HW117819   3.532   2.507   9.229
 5761SOL    HW217820   3.595   2.370   9.211
 5762SOL     OW17821   3.239   3.003   7.987
 5762SOL    HW117822   3.319   2.991   7.936
 5762SOL    HW217823   3.188   3.066   7.936
 5763SOL     OW17824   2.416   2.056   8.333
 5763SOL    HW117825   2.427   2.070   8.427
 5763SOL    HW217826   2.429   2.142   8.294
 5764SOL     OW17827   2.864   3.307   7.917
 5764SOL    HW117828   2.830   3.382   7.868
 5764SOL    HW217829   2.841   3.326   8.008
 5765SOL     OW17830   2.213   3.675   8.285
 5765SOL    HW117831   2.263   3.596   8.304
 5765SOL    HW217832   2.271   3.747   8.310
 5766SOL     OW17833   3.669   2.922   8.317
 5766SOL    HW117834   3.616   2.895   8.242
 5766SOL    HW217835   3.606   2.926   8.389
 5767SOL     OW17836   3.089   3.400   8.960
 5767SOL    HW117837   3.077   3.328   9.021
 5767SOL    HW217838   3.020   3.387   8.894
 5768SOL     OW17839   3.343   2.611   8.172
 5768SOL    HW117840   3.339   2.570   8.259
 5768SOL    HW217841   3.421   2.666   8.175
 5769SOL     OW17842   2.331   3.128   9.185
 5769SOL    HW117843   2.305   3.134   9.093
 5769SOL    HW217844   2.249   3.126   9.234
 5770SOL     OW17845   2.977   3.644   7.668
 5770SOL    HW117846   2.911   3.599   7.722
 5770SOL    HW217847   3.007   3.578   7.607
 5771SOL     OW17848   3.485   3.248   7.538
 5771SOL    HW117849   3.442   3.332   7.519
 5771SOL    HW217850   3.419   3.182   7.517
 5772SOL     OW17851   2.328   3.598   7.774
 5772SOL    HW117852   2.367   3.662   7.833
 5772SOL    HW217853   2.401   3.573   7.716
 5773SOL     OW17854   3.264   1.968   7.888
 5773SOL    HW117855   3.259   1.946   7.795
 5773SOL    HW217856   3.358   1.977   7.906
 5774SOL     OW17857   2.123   3.652   8.668
 5774SOL    HW117858   2.169   3.581   8.712
 5774SOL    HW217859   2.106   3.620   8.580
 5775SOL     OW17860   2.801   3.564   8.346
 5775SOL    HW117861   2.879   3.513   8.368
 5775SOL    HW217862   2.758   3.514   8.277
 5776SOL     OW17863   2.249   2.554   7.972
 5776SOL    HW117864   2.272   2.463   7.952
 5776SOL    HW217865   2.154   2.554   7.976
 5777SOL     OW17866   3.392   2.086   9.173
 5777SOL    HW117867   3.403   2.107   9.266
 5777SOL    HW217868   3.325   2.019   9.170
 5778SOL     OW17869   2.626   2.141   9.206
 5778SOL    HW117870   2.706   2.088   9.201
 5778SOL    HW217871   2.579   2.105   9.281
 5779SOL     OW17872   2.738   3.383   8.643
 5779SOL    HW117873   2.721   3.346   8.556
 5779SOL    HW217874   2.808   3.328   8.679
 5780SOL     OW17875   3.201   2.451   8.881
 5780SOL    HW117876   3.232   2.420   8.966
 5780SOL    HW217877   3.238   2.539   8.872
 5781SOL     OW17878   2.680   3.252   8.393
 5781SOL    HW117879   2.765   3.241   8.350
 5781SOL    HW217880   2.617   3.258   8.321
 5782SOL     OW17881   2.793   2.369   8.354
 5782SOL    HW117882   2.769   2.361   8.261
 5782SOL    HW217883   2.825   2.282   8.378
 5783SOL     OW17884   2.410   1.932   7.957
 5783SOL    HW117885   2.366   1.914   8.041
 5783SOL    HW217886   2.393   2.025   7.941
 5784SOL     OW17887   3.289   3.062   7.487
 5784SOL    HW117888   3.320   2.987   7.538
 5784SOL    HW217889   3.203   3.082   7.524
 5785SOL     OW17890   2.813   2.116   7.924
 5785SOL    HW117891   2.797   2.091   7.833
 5785SOL    HW217892   2.907   2.137   7.927
 5786SOL     OW17893   2.944   2.547   8.906
 5786SOL    HW117894   2.878   2.477   8.911
 5786SOL    HW217895   3.027   2.500   8.900
 5787SOL     OW17896   3.081   3.434   8.243
 5787SOL    HW117897   3.096   3.500   8.175
 5787SOL    HW217898   3.152   3.446   8.305
 5788SOL     OW17899   2.332   3.017   8.177
 5788SOL    HW117900   2.267   2.997   8.244
 5788SOL    HW217901   2.285   3.005   8.094
 5789SOL     OW17902   3.126   3.655   8.058
 5789SOL    HW117903   3.173   3.720   8.006
 5789SOL    HW217904   3.052   3.703   8.095
 5790SOL     OW17905   2.925   2.429   7.446
 5790SOL    HW117906   2.874   2.510   7.445
 5790SOL    HW217907   2.960   2.424   7.535
 5791SOL     OW17908   1.942   2.423   8.834
 5791SOL    HW117909   2.035   2.419   8.813
 5791SOL    HW217910   1.935   2.487   8.905
 5792SOL     OW17911   2.461   2.083   8.603
 5792SOL    HW117912   2.510   2.008   8.637
 5792SOL    HW217913   2.379   2.082   8.652
 5793SOL     OW17914   2.725   2.321   8.094
 5793SOL    HW117915   2.654   2.363   8.046
 5793SOL    HW217916   2.753   2.248   8.039
 5794SOL     OW17917   2.877   1.914   8.199
 5794SOL    HW117918   2.816   1.908   8.126
 5794SOL    HW217919   2.856   1.840   8.255
 5795SOL     OW17920   3.303   3.023   8.305
 5795SOL    HW117921   3.231   2.959   8.304
 5795SOL    HW217922   3.329   3.031   8.214
 5796SOL     OW17923   3.327   2.472   8.418
 5796SOL    HW117924   3.273   2.393   8.421
 5796SOL    HW217925   3.385   2.464   8.494
 5797SOL     OW17926   3.723   2.677   7.823
 5797SOL    HW117927   3.767   2.622   7.887
 5797SOL    HW217928   3.686   2.616   7.759
 5798SOL     OW17929   2.353   3.283   7.600
 5798SOL    HW117930   2.276   3.255   7.650
 5798SOL    HW217931   2.349   3.231   7.520
 5799SOL     OW17932   3.530   3.127   8.091
 5799SOL    HW117933   3.625   3.128   8.101
 5799SOL    HW217934   3.503   3.216   8.112
 5800SOL     OW17935   3.258   2.434   7.518
 5800SOL    HW117936   3.192   2.413   7.585
 5800SOL    HW217937   3.340   2.404   7.555
 5801SOL     OW17938   3.612   3.095   9.010
 5801SOL    HW117939   3.700   3.060   8.992
 5801SOL    HW217940   3.628   3.185   9.039
 5802SOL     OW17941   2.917   3.214   8.779
 5802SOL    HW117942   2.842   3.183   8.830
 5802SOL    HW217943   2.993   3.173   8.821
 5803SOL     OW17944   3.469   3.492   9.106
 5803SOL    HW117945   3.459   3.526   9.017
 5803SOL    HW217946   3.549   3.439   9.103
 5804SOL     OW17947   2.995   3.070   8.550
 5804SOL    HW117948   2.936   3.109   8.615
 5804SOL    HW217949   2.965   3.106   8.466
 5805SOL     OW17950   3.488   2.956   8.522
 5805SOL    HW117951   3.478   3.018   8.594
 5805SOL    HW217952   3.413   2.973   8.465
 5806SOL     OW17953   2.781   1.956   8.839
 5806SOL    HW117954   2.806   1.937   8.749
 5806SOL    HW217955   2.860   1.995   8.877
 5807SOL     OW17956   2.846   2.977   9.171
 5807SOL    HW117957   2.755   2.993   9.195
 5807SOL    HW217958   2.843   2.898   9.117
 5808SOL     OW17959   2.575   2.926   7.823
 5808SOL    HW117960   2.561   2.903   7.915
 5808SOL    HW217961   2.650   2.873   7.796
 5809SOL     OW17962   2.282   2.675   8.699
 5809SOL    HW117963   2.349   2.687   8.766
 5809SOL    HW217964   2.248   2.586   8.715
 5810SOL     OW17965   3.126   2.237   8.728
 5810SOL    HW117966   3.159   2.315   8.773
 5810SOL    HW217967   3.035   2.259   8.706
 5811SOL     OW17968   1.936   3.435   8.803
 5811SOL    HW117969   1.908   3.510   8.750
 5811SOL    HW217970   2.031   3.436   8.797
 5812SOL     OW17971   2.199   2.972   7.936
 5812SOL    HW117972   2.220   3.038   7.869
 5812SOL    HW217973   2.242   2.893   7.905
 5813SOL     OW17974   2.407   2.393   8.306
 5813SOL    HW117975   2.425   2.455   8.236
 5813SOL    HW217976   2.470   2.415   8.375
 5814SOL     OW17977   3.109   3.211   7.838
 5814SOL    HW117978   3.165   3.282   7.870
 5814SOL    HW217979   3.022   3.233   7.871
 5815SOL     OW17980   3.149   3.323   8.597
 5815SOL    HW117981   3.206   3.327   8.674
 5815SOL    HW217982   3.094   3.246   8.612
 5816SOL     OW17983   3.439   2.479   7.933
 5816SOL    HW117984   3.391   2.532   7.997
 5816SOL    HW217985   3.480   2.543   7.875
 5817SOL     OW17986   2.207   3.393   8.758
 5817SOL    HW117987   2.196   3.347   8.674
 5817SOL    HW217988   2.302   3.403   8.767
 5818SOL     OW17989   2.277   2.610   9.051
 5818SOL    HW117990   2.342   2.651   8.994
 5818SOL    HW217991   2.315   2.525   9.073
 5819SOL     OW17992   3.468   2.641   9.133
 5819SOL    HW117993   3.383   2.684   9.128
 5819SOL    HW217994   3.521   2.684   9.066
 5820SOL     OW17995   2.857   1.993   9.198
 5820SOL    HW117996   2.917   2.065   9.179
 5820SOL    HW217997   2.906   1.914   9.174
 5821SOL     OW17998   2.371   1.906   9.202
 5821SOL    HW117999   2.312   1.857   9.144
 5821SOL    HW218000   2.329   1.992   9.211
 5822SOL     OW18001   2.446   2.736   8.480
 5822SOL    HW118002   2.481   2.825   8.482
 5822SOL    HW218003   2.390   2.730   8.558
 5823SOL     OW18004   3.212   2.721   8.471
 5823SOL    HW118005   3.127   2.706   8.429
 5823SOL    HW218006   3.258   2.638   8.462
 5824SOL     OW18007   3.062   2.389   7.710
 5824SOL    HW118008   3.072   2.311   7.765
 5824SOL    HW218009   3.022   2.454   7.768
 5825SOL     OW18010   2.238   2.046   8.742
 5825SOL    HW118011   2.152   2.064   8.780
 5825SOL    HW218012   2.233   1.953   8.718
 5826SOL     OW18013   1.908   3.173   8.722
 5826SOL    HW118014   1.940   3.118   8.794
 5826SOL    HW218015   1.914   3.263   8.757
 5827SOL     OW18016   2.578   2.488   8.499
 5827SOL    HW118017   2.658   2.475   8.448
 5827SOL    HW218018   2.553   2.579   8.483
 5828SOL     OW18019   3.592   2.821   9.312
 5828SOL    HW118020   3.553   2.754   9.257
 5828SOL    HW218021   3.527   2.836   9.381
 5829SOL     OW18022   3.482   2.240   7.810
 5829SOL    HW118023   3.510   2.174   7.874
 5829SOL    HW218024   3.459   2.317   7.863
 5830SOL     OW18025   2.890   2.620   8.407
 5830SOL    HW118026   2.883   2.638   8.500
 5830SOL    HW218027   2.865   2.528   8.398
 5831SOL     OW18028   2.848   3.430   9.170
 5831SOL    HW118029   2.828   3.470   9.086
 5831SOL    HW218030   2.889   3.347   9.148
 5832SOL     OW18031   3.703   3.358   9.045
 5832SOL    HW118032   3.728   3.388   8.958
 5832SOL    HW218033   3.783   3.366   9.097
 5833SOL     OW18034   2.213   2.779   9.260
 5833SOL    HW118035   2.296   2.798   9.305
 5833SOL    HW218036   2.238   2.717   9.191
 5834SOL     OW18037   3.393   2.134   7.574
 5834SOL    HW118038   3.327   2.070   7.602
 5834SOL    HW218039   3.426   2.172   7.656
 5835SOL     OW18040   3.150   2.688   7.478
 5835SOL    HW118041   3.189   2.601   7.480
 5835SOL    HW218042   3.182   2.726   7.396
 5836SOL     OW18043   2.930   3.200   8.305
 5836SOL    HW118044   2.935   3.128   8.242
 5836SOL    HW218045   2.989   3.267   8.269
 5837SOL     OW18046   2.172   2.672   8.394
 5837SOL    HW118047   2.264   2.695   8.389
 5837SOL    HW218048   2.170   2.584   8.432
 5838SOL     OW18049   2.182   2.367   8.456
 5838SOL    HW118050   2.145   2.287   8.418
 5838SOL    HW218051   2.262   2.382   8.406
 5839SOL     OW18052   2.996   2.235   9.133
 5839SOL    HW118053   2.948   2.289   9.196
 5839SOL    HW218054   3.083   2.275   9.129
 5840SOL     OW18055   3.022   2.061   8.919
 5840SOL    HW118056   3.011   2.123   8.991
 5840SOL    HW218057   3.065   2.112   8.850
 5841SOL     OW18058   1.863   3.177   7.639
 5841SOL    HW118059   1.776   3.196   7.605
 5841SOL    HW218060   1.856   3.089   7.676
 5842SOL     OW18061   1.960   3.637   8.387
 5842SOL    HW118062   1.928   3.559   8.341
 5842SOL    HW218063   2.044   3.657   8.346
 5843SOL     OW18064   2.354   3.438   8.352
 5843SOL    HW118065   2.421   3.502   8.377
 5843SOL    HW218066   2.399   3.376   8.295
 5844SOL     OW18067   2.837   2.649   8.672
 5844SOL    HW118068   2.899   2.631   8.743
 5844SOL    HW218069   2.753   2.615   8.704
 5845SOL     OW18070   1.902   2.396   8.566
 5845SOL    HW118071   1.986   2.404   8.521
 5845SOL    HW218072   1.923   2.410   8.658
 5846SOL     OW18073   2.077   2.383   9.179
 5846SOL    HW118074   2.134   2.355   9.106
 5846SOL    HW218075   2.016   2.445   9.139
 5847SOL     OW18076   3.243   2.797   9.106
 5847SOL    HW118077   3.264   2.890   9.102
 5847SOL    HW218078   3.238   2.770   9.014
 5848SOL     OW18079   3.501   2.463   8.629
 5848SOL    HW118080   3.490   2.403   8.703
 5848SOL    HW218081   3.588   2.443   8.594
 5849SOL     OW18082   2.102   3.410   9.170
 5849SOL    HW118083   2.080   3.477   9.235
 5849SOL    HW218084   2.108   3.328   9.221
 5850SOL     OW18085   2.568   2.314   8.706
 5850SOL    HW118086   2.528   2.234   8.673
 5850SOL    HW218087   2.562   2.376   8.634
 5851SOL     OW18088   2.787   3.533   8.919
 5851SOL    HW118089   2.761   3.493   8.835
 5851SOL    HW218090   2.779   3.627   8.904
 5852SOL     OW18091   2.004   3.005   8.922
 5852SOL    HW118092   2.006   2.956   9.005
 5852SOL    HW218093   2.022   2.939   8.855
 5853SOL     OW18094   3.181   2.905   8.669
 5853SOL    HW118095   3.205   2.843   8.600
 5853SOL    HW218096   3.115   2.961   8.628
 5854SOL     OW18097   3.178   2.716   7.752
 5854SOL    HW118098   3.101   2.690   7.802
 5854SOL    HW218099   3.153   2.704   7.661
 5855SOL     OW18100   3.642   3.600   8.605
 5855SOL    HW118101   3.699   3.626   8.534
 5855SOL    HW218102   3.613   3.512   8.581
 5856SOL     OW18103   3.106   3.595   8.555
 5856SOL    HW118104   3.189   3.617   8.513
 5856SOL    HW218105   3.114   3.501   8.575
 5857SOL     OW18106   1.950   3.129   8.459
 5857SOL    HW118107   1.932   3.143   8.552
 5857SOL    HW218108   1.878   3.074   8.428
 5858SOL     OW18109   2.541   3.528   9.184
 5858SOL    HW118110   2.483   3.604   9.188
 5858SOL    HW218111   2.603   3.548   9.114
 5859SOL     OW18112   3.568   2.015   7.958
 5859SOL    HW118113   3.637   2.003   7.892
 5859SOL    HW218114   3.559   1.929   7.998
 5860SOL     OW18115   3.253   3.430   7.938
 5860SOL    HW118116   3.311   3.464   7.870
 5860SOL    HW218117   3.204   3.507   7.968
 5861SOL     OW18118   1.999   3.651   9.286
 5861SOL    HW118119   1.947   3.587   9.335
 5861SOL    HW218120   2.047   3.699   9.353
 5862SOL     OW18121   3.140   2.790   8.119
 5862SOL    HW118122   3.214   2.730   8.129
 5862SOL    HW218123   3.174   2.862   8.066
 5863SOL     OW18124   2.669   3.138   8.874
 5863SOL    HW118125   2.641   3.178   8.956
 5863SOL    HW218126   2.599   3.159   8.812
 5864SOL     OW18127   2.537   3.482   7.606
 5864SOL    HW118128   2.547   3.501   7.513
 5864SOL    HW218129   2.477   3.407   7.609
 5865SOL     OW18130   3.479   3.589   8.838
 5865SOL    HW118131   3.536   3.591   8.761
 5865SOL    HW218132   3.466   3.681   8.861
 5866SOL     OW18133   3.700   2.043   8.414
 5866SOL    HW118134   3.732   1.956   8.390
 5866SOL    HW218135   3.614   2.049   8.373
 5867SOL     OW18136   3.069   3.464   7.485
 5867SOL    HW118137   3.059   3.372   7.509
 5867SOL    HW218138   3.008   3.477   7.412
 5868SOL     OW18139   2.686   2.869   8.822
 5868SOL    HW118140   2.730   2.864   8.737
 5868SOL    HW218141   2.682   2.962   8.842
 5869SOL     OW18142   2.788   2.782   7.744
 5869SOL    HW118143   2.844   2.814   7.674
 5869SOL    HW218144   2.837   2.710   7.784
 5870SOL     OW18145   3.348   3.497   7.491
 5870SOL    HW118146   3.255   3.483   7.474
 5870SOL    HW218147   3.388   3.501   7.404
 5871SOL     OW18148   2.230   3.166   8.939
 5871SOL    HW118149   2.216   3.243   8.884
 5871SOL    HW218150   2.153   3.112   8.925
 5872SOL     OW18151   3.460   3.141   8.724
 5872SOL    HW118152   3.530   3.132   8.789
 5872SOL    HW218153   3.404   3.210   8.759
 5873SOL     OW18154   2.921   2.972   8.159
 5873SOL    HW118155   2.849   2.921   8.196
 5873SOL    HW218156   2.985   2.907   8.130
 5874SOL     OW18157   2.884   2.103   8.414
 5874SOL    HW118158   2.881   2.056   8.330
 5874SOL    HW218159   2.881   2.034   8.480
 5875SOL     OW18160   2.466   3.351   7.928
 5875SOL    HW118161   2.515   3.301   7.863
 5875SOL    HW218162   2.399   3.397   7.877
 5876SOL     OW18163   3.588   2.250   8.826
 5876SOL    HW118164   3.660   2.313   8.823
 5876SOL    HW218165   3.616   2.179   8.769
 5877SOL     OW18166   2.119   3.201   7.732
 5877SOL    HW118167   2.026   3.202   7.712
 5877SOL    HW218168   2.124   3.239   7.820
 5878SOL     OW18169   1.976   2.891   9.171
 5878SOL    HW118170   1.899   2.865   9.222
 5878SOL    HW218171   2.049   2.850   9.216
 5879SOL     OW18172   2.543   2.057   8.948
 5879SOL    HW118173   2.628   2.034   8.910
 5879SOL    HW218174   2.563   2.089   9.036
 5880SOL     OW18175   1.856   2.235   7.467
 5880SOL    HW118176   1.817   2.172   7.407
 5880SOL    HW218177   1.915   2.287   7.412
 5881SOL     OW18178   3.286   2.720   8.846
 5881SOL    HW118179   3.236   2.781   8.792
 5881SOL    HW218180   3.375   2.722   8.809
 5882SOL     OW18181   3.040   3.198   7.566
 5882SOL    HW118182   2.950   3.164   7.567
 5882SOL    HW218183   3.067   3.197   7.658
 5883SOL     OW18184   2.482   2.693   8.882
 5883SOL    HW118185   2.538   2.769   8.868
 5883SOL    HW218186   2.543   2.619   8.891
 5884SOL     OW18187   3.348   3.645   8.431
 5884SOL    HW118188   3.371   3.702   8.358
 5884SOL    HW218189   3.432   3.611   8.463
 5885SOL     OW18190   2.580   2.419   9.148
 5885SOL    HW118191   2.623   2.480   9.208
 5885SOL    HW218192   2.600   2.333   9.183
 5886SOL     OW18193   3.336   3.057   9.077
 5886SOL    HW118194   3.325   3.072   9.171
 5886SOL    HW218195   3.428   3.073   9.060
 5887SOL     OW18196   2.234   3.604   9.015
 5887SOL    HW118197   2.150   3.647   8.998
 5887SOL    HW218198   2.210   3.521   9.055
 5888SOL     OW18199   3.525   2.742   8.707
 5888SOL    HW118200   3.524   2.656   8.663
 5888SOL    HW218201   3.518   2.805   8.635
 5889SOL     OW18202   3.082   2.182   7.908
 5889SOL    HW118203   3.144   2.110   7.900
 5889SOL    HW218204   3.112   2.232   7.984
 5890SOL     OW18205   2.468   2.591   8.125
 5890SOL    HW118206   2.504   2.679   8.112
 5890SOL    HW218207   2.392   2.588   8.066
 5891SOL     OW18208   3.618   2.228   9.098
 5891SOL    HW118209   3.602   2.242   9.005
 5891SOL    HW218210   3.548   2.170   9.127
 5892SOL     OW18211   3.620   2.789   8.961
 5892SOL    HW118212   3.610   2.882   8.979
 5892SOL    HW218213   3.594   2.780   8.869
 5893SOL     OW18214   2.726   3.234   7.489
 5893SOL    HW118215   2.687   3.262   7.572
 5893SOL    HW218216   2.743   3.315   7.442
 5894SOL     OW18217   2.523   3.649   8.384
 5894SOL    HW118218   2.503   3.740   8.365
 5894SOL    HW218219   2.619   3.644   8.380
 5895SOL     OW18220   2.731   2.832   8.303
 5895SOL    HW118221   2.782   2.760   8.341
 5895SOL    HW218222   2.694   2.877   8.378
 5896SOL     OW18223   2.950   2.865   7.543
 5896SOL    HW118224   2.921   2.906   7.462
 5896SOL    HW218225   3.017   2.803   7.515
 5897SOL     OW18226   3.710   3.416   8.288
 5897SOL    HW118227   3.630   3.397   8.238
 5897SOL    HW218228   3.714   3.347   8.354
 5898SOL     OW18229   2.088   3.161   9.302
 5898SOL    HW118230   2.024   3.098   9.270
 5898SOL    HW218231   2.065   3.174   9.394
 5899SOL     OW18232   1.951   3.091   8.113
 5899SOL    HW118233   1.956   3.045   8.197
 5899SOL    HW218234   2.021   3.052   8.060
 5900SOL     OW18235   2.547   3.268   9.079
 5900SOL    HW118236   2.467   3.226   9.111
 5900SOL    HW218237   2.544   3.356   9.117
 5901SOL     OW18238   3.671   2.038   8.685
 5901SOL    HW118239   3.665   1.943   8.686
 5901SOL    HW218240   3.688   2.059   8.593
 5902SOL     OW18241   2.285   2.263   7.960
 5902SOL    HW118242   2.222   2.219   7.903
 5902SOL    HW218243   2.241   2.270   8.044
 5903SOL     OW18244   3.555   3.351   8.544
 5903SOL    HW118245   3.478   3.328   8.492
 5903SOL    HW218246   3.566   3.279   8.606
 5904SOL     OW18247   2.197   2.415   8.739
 5904SOL    HW118248   2.243   2.358   8.801
 5904SOL    HW218249   2.214   2.376   8.653
 5905SOL     OW18250   2.692   3.441   8.124
 5905SOL    HW118251   2.671   3.496   8.049
 5905SOL    HW218252   2.618   3.380   8.131
 5906SOL     OW18253   3.291   2.091   8.565
 5906SOL    HW118254   3.313   2.008   8.607
 5906SOL    HW218255   3.241   2.140   8.630
 5907SOL     OW18256   2.870   1.878   8.585
 5907SOL    HW118257   2.817   1.811   8.543
 5907SOL    HW218258   2.959   1.841   8.587
 5908SOL     OW18259   2.635   3.196   7.770
 5908SOL    HW118260   2.607   3.104   7.776
 5908SOL    HW218261   2.719   3.199   7.816
 5909SOL     OW18262   2.482   3.414   8.734
 5909SOL    HW118263   2.482   3.496   8.784
 5909SOL    HW218264   2.570   3.409   8.697
 5910SOL     OW18265   3.220   1.919   7.617
 5910SOL    HW118266   3.252   1.851   7.558
 5910SOL    HW218267   3.129   1.896   7.633
 5911SOL     OW18268   3.157   2.326   8.128
 5911SOL    HW118269   3.106   2.407   8.134
 5911SOL    HW218270   3.153   2.289   8.216
 5912SOL     OW18271   3.441   2.057   8.327
 5912SOL    HW118272   3.388   2.083   8.402
 5912SOL    HW218273   3.444   2.135   8.271
 5913SOL     OW18274   1.893   2.931   7.762
 5913SOL    HW118275   1.988   2.934   7.775
 5913SOL    HW218276   1.867   2.845   7.796
 5914SOL     OW18277   2.749   3.524   7.790
 5914SOL    HW118278   2.678   3.505   7.729
 5914SOL    HW218279   2.719   3.598   7.842
 5915SOL     OW18280   2.083   2.475   9.440
 5915SOL    HW118281   1.992   2.480   9.469
 5915SOL    HW218282   2.077   2.449   9.348
 5916SOL     OW18283   1.855   2.294   9.929
 5916SOL    HW118284   1.769   2.291   9.971
 5916SOL    HW218285   1.853   2.223   9.865
 5917SOL     OW18286   2.430   3.157  10.491
 5917SOL    HW118287   2.343   3.163  10.450
 5917SOL    HW218288   2.446   3.245  10.524
 5918SOL     OW18289   3.428   3.375  10.019
 5918SOL    HW118290   3.386   3.351  10.102
 5918SOL    HW218291   3.356   3.378   9.956
 5919SOL     OW18292   2.993   2.561  10.006
 5919SOL    HW118293   3.042   2.642   9.993
 5919SOL    HW218294   2.946   2.574  10.089
 5920SOL     OW18295   3.631   2.466   9.538
 5920SOL    HW118296   3.609   2.459   9.445
 5920SOL    HW218297   3.596   2.386   9.578
 5921SOL     OW18298   2.609   3.000  10.356
 5921SOL    HW118299   2.542   3.037  10.413
 5921SOL    HW218300   2.648   3.076  10.312
 5922SOL     OW18301   2.734   2.625  11.133
 5922SOL    HW118302   2.722   2.695  11.197
 5922SOL    HW218303   2.757   2.671  11.052
 5923SOL     OW18304   2.547   2.858   9.955
 5923SOL    HW118305   2.614   2.851  10.023
 5923SOL    HW218306   2.479   2.913   9.993
 5924SOL     OW18307   2.576   3.012  11.127
 5924SOL    HW118308   2.623   3.089  11.158
 5924SOL    HW218309   2.495   3.047  11.089
 5925SOL     OW18310   2.194   3.281  10.376
 5925SOL    HW118311   2.119   3.243  10.330
 5925SOL    HW218312   2.239   3.334  10.311
 5926SOL     OW18313   3.320   3.364  10.669
 5926SOL    HW118314   3.375   3.442  10.679
 5926SOL    HW218315   3.253   3.373  10.737
 5927SOL     OW18316   2.296   2.232  10.773
 5927SOL    HW118317   2.385   2.204  10.791
 5927SOL    HW218318   2.241   2.160  10.806
 5928SOL     OW18319   3.470   2.306  10.055
 5928SOL    HW118320   3.399   2.326   9.994
 5928SOL    HW218321   3.478   2.383  10.110
 5929SOL     OW18322   2.084   3.578   9.789
 5929SOL    HW118323   2.113   3.637   9.858
 5929SOL    HW218324   2.157   3.576   9.727
 5930SOL     OW18325   2.999   3.204  11.005
 5930SOL    HW118326   3.041   3.197  11.090
 5930SOL    HW218327   2.947   3.124  10.996
 5931SOL     OW18328   2.092   3.304   9.846
 5931SOL    HW118329   2.074   3.398   9.849
 5931SOL    HW218330   2.034   3.267   9.912
 5932SOL     OW18331   2.126   2.955  10.201
 5932SOL    HW118332   2.122   2.867  10.240
 5932SOL    HW218333   2.069   3.008  10.255
 5933SOL     OW18334   2.467   3.647  10.737
 5933SOL    HW118335   2.386   3.633  10.786
 5933SOL    HW218336   2.494   3.736  10.762
 5934SOL     OW18337   2.443   2.846   9.448
 5934SOL    HW118338   2.491   2.892   9.379
 5934SOL    HW218339   2.482   2.878   9.530
 5935SOL     OW18340   3.456   1.989  10.774
 5935SOL    HW118341   3.476   2.070  10.728
 5935SOL    HW218342   3.439   2.017  10.865
 5936SOL     OW18343   1.988   2.527   9.871
 5936SOL    HW118344   1.948   2.442   9.889
 5936SOL    HW218345   1.977   2.577   9.952
 5937SOL     OW18346   3.700   3.611   9.653
 5937SOL    HW118347   3.772   3.586   9.710
 5937SOL    HW218348   3.718   3.702   9.630
 5938SOL     OW18349   1.894   3.451   9.431
 5938SOL    HW118350   1.878   3.359   9.451
 5938SOL    HW218351   1.872   3.497   9.511
 5939SOL     OW18352   3.552   2.782   9.959
 5939SOL    HW118353   3.634   2.738   9.940
 5939SOL    HW218354   3.531   2.831   9.879
 5940SOL     OW18355   3.504   2.965   9.742
 5940SOL    HW118356   3.589   2.968   9.698
 5940SOL    HW218357   3.510   3.028   9.813
 5941SOL     OW18358   1.983   2.605  10.895
 5941SOL    HW118359   2.074   2.632  10.903
 5941SOL    HW218360   1.933   2.686  10.902
 5942SOL     OW18361   2.479   3.253  10.044
 5942SOL    HW118362   2.433   3.169  10.053
 5942SOL    HW218363   2.461   3.280   9.954
 5943SOL     OW18364   3.148   3.098  10.732
 5943SOL    HW118365   3.179   3.031  10.671
 5943SOL    HW218366   3.208   3.093  10.806
 5944SOL     OW18367   2.678   1.867   9.820
 5944SOL    HW118368   2.719   1.950   9.798
 5944SOL    HW218369   2.585   1.886   9.825
 5945SOL     OW18370   2.051   2.826  10.587
 5945SOL    HW118371   2.136   2.784  10.572
 5945SOL    HW218372   1.989   2.774  10.535
 5946SOL     OW18373   3.389   2.860   9.511
 5946SOL    HW118374   3.320   2.803   9.545
 5946SOL    HW218375   3.432   2.895   9.590
 5947SOL     OW18376   3.085   3.668  10.938
 5947SOL    HW118377   3.057   3.728  10.870
 5947SOL    HW218378   3.084   3.582  10.896
 5948SOL     OW18379   2.269   2.169  11.119
 5948SOL    HW118380   2.319   2.228  11.175
 5948SOL    HW218381   2.180   2.203  11.122
 5949SOL     OW18382   3.327   3.282  10.257
 5949SOL    HW118383   3.261   3.297  10.325
 5949SOL    HW218384   3.316   3.190  10.232
 5950SOL     OW18385   3.507   3.608   9.890
 5950SOL    HW118386   3.499   3.573   9.802
 5950SOL    HW218387   3.491   3.533   9.948
 5951SOL     OW18388   2.456   2.580   9.579
 5951SOL    HW118389   2.461   2.663   9.533
 5951SOL    HW218390   2.392   2.594   9.648
 5952SOL     OW18391   3.139   2.225  10.244
 5952SOL    HW118392   3.051   2.189  10.253
 5952SOL    HW218393   3.193   2.171  10.302
 5953SOL     OW18394   3.435   3.540   9.619
 5953SOL    HW118395   3.527   3.562   9.614
 5953SOL    HW218396   3.410   3.520   9.528
 5954SOL     OW18397   2.652   2.480  10.757
 5954SOL    HW118398   2.628   2.454  10.846
 5954SOL    HW218399   2.617   2.410  10.701
 5955SOL     OW18400   3.255   2.336  10.988
 5955SOL    HW118401   3.259   2.380  11.073
 5955SOL    HW218402   3.312   2.260  10.998
 5956SOL     OW18403   2.812   2.747  10.895
 5956SOL    HW118404   2.868   2.679  10.857
 5956SOL    HW218405   2.765   2.784  10.821
 5957SOL     OW18406   2.855   2.273  10.545
 5957SOL    HW118407   2.767   2.290  10.576
 5957SOL    HW218408   2.843   2.229  10.461
 5958SOL     OW18409   2.916   2.561   9.735
 5958SOL    HW118410   2.934   2.554   9.828
 5958SOL    HW218411   2.832   2.515   9.723
 5959SOL     OW18412   1.950   2.687  10.089
 5959SOL    HW118413   2.031   2.681  10.140
 5959SOL    HW218414   1.905   2.764  10.124
 5960SOL     OW18415   1.980   3.715  10.888
 5960SOL    HW118416   1.986   3.693  10.981
 5960SOL    HW218417   1.888   3.701  10.866
 5961SOL     OW18418   2.758   2.216   9.509
 5961SOL    HW118419   2.802   2.275   9.447
 5961SOL    HW218420   2.753   2.132   9.462
 5962SOL     OW18421   3.569   2.434  11.140
 5962SOL    HW118422   3.532   2.507  11.091
 5962SOL    HW218423   3.595   2.370  11.073
 5963SOL     OW18424   3.239   3.003   9.850
 5963SOL    HW118425   3.319   2.991   9.799
 5963SOL    HW218426   3.188   3.066   9.799
 5964SOL     OW18427   2.416   2.053  10.204
 5964SOL    HW118428   2.410   2.072  10.298
 5964SOL    HW218429   2.431   2.138  10.163
 5965SOL     OW18430   2.863   3.307   9.779
 5965SOL    HW118431   2.829   3.382   9.730
 5965SOL    HW218432   2.841   3.326   9.870
 5966SOL     OW18433   2.213   3.675  10.147
 5966SOL    HW118434   2.263   3.596  10.166
 5966SOL    HW218435   2.272   3.747  10.172
 5967SOL     OW18436   3.669   2.923  10.179
 5967SOL    HW118437   3.616   2.895  10.103
 5967SOL    HW218438   3.606   2.926  10.251
 5968SOL     OW18439   3.088   3.400  10.822
 5968SOL    HW118440   3.077   3.328  10.883
 5968SOL    HW218441   3.020   3.387  10.756
 5969SOL     OW18442   2.178   2.822   9.564
 5969SOL    HW118443   2.260   2.842   9.519
 5969SOL    HW218444   2.148   2.740   9.525
 5970SOL     OW18445   3.343   2.611  10.033
 5970SOL    HW118446   3.338   2.570  10.120
 5970SOL    HW218447   3.421   2.666  10.037
 5971SOL     OW18448   2.331   3.128  11.047
 5971SOL    HW118449   2.305   3.134  10.955
 5971SOL    HW218450   2.249   3.126  11.096
 5972SOL     OW18451   2.977   3.644   9.530
 5972SOL    HW118452   2.911   3.599   9.583
 5972SOL    HW218453   3.007   3.577   9.469
 5973SOL     OW18454   3.485   3.248   9.399
 5973SOL    HW118455   3.442   3.332   9.381
 5973SOL    HW218456   3.419   3.182   9.379
 5974SOL     OW18457   2.328   3.599   9.635
 5974SOL    HW118458   2.366   3.662   9.695
 5974SOL    HW218459   2.400   3.572   9.578
 5975SOL     OW18460   3.263   1.969   9.749
 5975SOL    HW118461   3.256   1.944   9.657
 5975SOL    HW218462   3.357   1.976   9.766
 5976SOL     OW18463   2.123   3.652  10.530
 5976SOL    HW118464   2.169   3.581  10.574
 5976SOL    HW218465   2.106   3.620  10.442
 5977SOL     OW18466   2.801   3.564  10.208
 5977SOL    HW118467   2.878   3.513  10.231
 5977SOL    HW218468   2.758   3.514  10.139
 5978SOL     OW18469   2.259   2.556   9.783
 5978SOL    HW118470   2.276   2.463   9.796
 5978SOL    HW218471   2.165   2.565   9.801
 5979SOL     OW18472   3.392   2.086  11.035
 5979SOL    HW118473   3.403   2.107  11.128
 5979SOL    HW218474   3.325   2.019  11.032
 5980SOL     OW18475   2.517   1.981   9.421
 5980SOL    HW118476   2.574   1.905   9.436
 5980SOL    HW218477   2.457   1.952   9.352
 5981SOL     OW18478   2.626   2.140  11.067
 5981SOL    HW118479   2.706   2.088  11.063
 5981SOL    HW218480   2.579   2.105  11.143
 5982SOL     OW18481   2.738   3.383  10.505
 5982SOL    HW118482   2.721   3.346  10.418
 5982SOL    HW218483   2.808   3.328  10.541
 5983SOL     OW18484   3.201   2.452  10.743
 5983SOL    HW118485   3.232   2.421  10.828
 5983SOL    HW218486   3.238   2.539  10.735
 5984SOL     OW18487   2.680   3.252  10.255
 5984SOL    HW118488   2.764   3.240  10.212
 5984SOL    HW218489   2.617   3.258  10.184
 5985SOL     OW18490   2.790   2.370  10.211
 5985SOL    HW118491   2.765   2.362  10.119
 5985SOL    HW218492   2.822   2.283  10.235
 5986SOL     OW18493   2.410   1.928   9.811
 5986SOL    HW118494   2.353   1.942   9.886
 5986SOL    HW218495   2.395   2.004   9.755
 5987SOL     OW18496   3.289   3.063   9.349
 5987SOL    HW118497   3.320   2.987   9.400
 5987SOL    HW218498   3.204   3.084   9.387
 5988SOL     OW18499   2.804   2.112   9.767
 5988SOL    HW118500   2.780   2.150   9.682
 5988SOL    HW218501   2.898   2.125   9.773
 5989SOL     OW18502   2.943   2.546  10.768
 5989SOL    HW118503   2.878   2.475  10.772
 5989SOL    HW218504   3.027   2.500  10.762
 5990SOL     OW18505   3.081   3.433  10.104
 5990SOL    HW118506   3.096   3.500  10.037
 5990SOL    HW218507   3.152   3.446  10.168
 5991SOL     OW18508   2.334   3.015  10.038
 5991SOL    HW118509   2.267   2.995  10.103
 5991SOL    HW218510   2.291   3.001   9.953
 5992SOL     OW18511   3.126   3.655   9.920
 5992SOL    HW118512   3.174   3.720   9.868
 5992SOL    HW218513   3.052   3.703   9.956
 5993SOL     OW18514   2.886   2.397   9.335
 5993SOL    HW118515   2.842   2.480   9.316
 5993SOL    HW218516   2.951   2.419   9.402
 5994SOL     OW18517   1.941   2.424  10.696
 5994SOL    HW118518   2.034   2.420  10.675
 5994SOL    HW218519   1.935   2.488  10.767
 5995SOL     OW18520   2.411   2.081  10.483
 5995SOL    HW118521   2.463   2.005  10.509
 5995SOL    HW218522   2.329   2.073  10.532
 5996SOL     OW18523   2.725   2.318   9.949
 5996SOL    HW118524   2.685   2.375   9.883
 5996SOL    HW218525   2.751   2.240   9.900
 5997SOL     OW18526   2.876   1.918  10.059
 5997SOL    HW118527   2.820   1.910   9.982
 5997SOL    HW218528   2.854   1.842  10.113
 5998SOL     OW18529   3.302   3.023  10.167
 5998SOL    HW118530   3.231   2.959  10.167
 5998SOL    HW218531   3.328   3.031  10.075
 5999SOL     OW18532   3.327   2.472  10.280
 5999SOL    HW118533   3.272   2.393  10.282
 5999SOL    HW218534   3.385   2.464  10.355
 6000SOL     OW18535   3.724   2.677   9.685
 6000SOL    HW118536   3.767   2.621   9.749
 6000SOL    HW218537   3.687   2.616   9.621
 6001SOL     OW18538   2.352   3.282   9.462
 6001SOL    HW118539   2.276   3.254   9.513
 6001SOL    HW218540   2.343   3.234   9.379
 6002SOL     OW18541   3.530   3.128   9.952
 6002SOL    HW118542   3.625   3.129   9.962
 6002SOL    HW218543   3.503   3.217   9.973
 6003SOL     OW18544   3.256   2.434   9.381
 6003SOL    HW118545   3.194   2.414   9.451
 6003SOL    HW218546   3.340   2.403   9.414
 6004SOL     OW18547   2.385   2.127   9.623
 6004SOL    HW118548   2.434   2.076   9.559
 6004SOL    HW218549   2.361   2.207   9.577
 6005SOL     OW18550   3.612   3.095  10.872
 6005SOL    HW118551   3.699   3.060  10.854
 6005SOL    HW218552   3.627   3.185  10.901
 6006SOL     OW18553   2.917   3.214  10.641
 6006SOL    HW118554   2.842   3.183  10.692
 6006SOL    HW218555   2.993   3.173  10.683
 6007SOL     OW18556   3.469   3.492  10.968
 6007SOL    HW118557   3.459   3.526  10.879
 6007SOL    HW218558   3.549   3.439  10.965
 6008SOL     OW18559   2.996   3.071  10.412
 6008SOL    HW118560   2.936   3.108  10.477
 6008SOL    HW218561   2.965   3.105  10.328
 6009SOL     OW18562   3.488   2.956  10.384
 6009SOL    HW118563   3.479   3.018  10.456
 6009SOL    HW218564   3.413   2.973  10.328
 6010SOL     OW18565   2.779   1.957  10.702
 6010SOL    HW118566   2.803   1.937  10.611
 6010SOL    HW218567   2.858   1.996  10.739
 6011SOL     OW18568   2.846   2.977  11.033
 6011SOL    HW118569   2.755   2.993  11.057
 6011SOL    HW218570   2.843   2.898  10.978
 6012SOL     OW18571   2.572   2.924   9.681
 6012SOL    HW118572   2.557   2.904   9.774
 6012SOL    HW218573   2.647   2.870   9.657
 6013SOL     OW18574   2.282   2.677  10.561
 6013SOL    HW118575   2.349   2.689  10.628
 6013SOL    HW218576   2.248   2.588  10.577
 6014SOL     OW18577   3.126   2.237  10.590
 6014SOL    HW118578   3.158   2.315  10.636
 6014SOL    HW218579   3.035   2.259  10.568
 6015SOL     OW18580   1.936   3.435  10.665
 6015SOL    HW118581   1.909   3.510  10.612
 6015SOL    HW218582   2.032   3.435  10.659
 6016SOL     OW18583   2.202   2.979   9.799
 6016SOL    HW118584   2.206   3.052   9.738
 6016SOL    HW218585   2.200   2.901   9.743
 6017SOL     OW18586   2.406   2.393  10.172
 6017SOL    HW118587   2.418   2.451  10.097
 6017SOL    HW218588   2.473   2.420  10.235
 6018SOL     OW18589   3.109   3.212   9.700
 6018SOL    HW118590   3.165   3.282   9.732
 6018SOL    HW218591   3.022   3.233   9.733
 6019SOL     OW18592   3.149   3.323  10.458
 6019SOL    HW118593   3.205   3.327  10.536
 6019SOL    HW218594   3.094   3.246  10.473
 6020SOL     OW18595   3.438   2.480   9.794
 6020SOL    HW118596   3.390   2.531   9.860
 6020SOL    HW218597   3.480   2.546   9.738
 6021SOL     OW18598   2.207   3.393  10.620
 6021SOL    HW118599   2.196   3.347  10.536
 6021SOL    HW218600   2.302   3.403  10.629
 6022SOL     OW18601   2.278   2.611  10.914
 6022SOL    HW118602   2.341   2.652  10.855
 6022SOL    HW218603   2.320   2.529  10.940
 6023SOL     OW18604   3.468   2.641  10.995
 6023SOL    HW118605   3.383   2.684  10.990
 6023SOL    HW218606   3.521   2.684  10.928
 6024SOL     OW18607   2.857   1.993  11.061
 6024SOL    HW118608   2.917   2.065  11.040
 6024SOL    HW218609   2.906   1.914  11.037
 6025SOL     OW18610   2.371   1.907  11.063
 6025SOL    HW118611   2.312   1.857  11.006
 6025SOL    HW218612   2.330   1.993  11.069
 6026SOL     OW18613   2.448   2.735  10.343
 6026SOL    HW118614   2.481   2.825  10.343
 6026SOL    HW218615   2.391   2.730  10.420
 6027SOL     OW18616   3.212   2.721  10.332
 6027SOL    HW118617   3.127   2.706  10.291
 6027SOL    HW218618   3.258   2.637  10.324
 6028SOL     OW18619   3.062   2.389   9.572
 6028SOL    HW118620   3.071   2.311   9.627
 6028SOL    HW218621   3.020   2.454   9.629
 6029SOL     OW18622   1.908   3.173  10.584
 6029SOL    HW118623   1.940   3.118  10.656
 6029SOL    HW218624   1.914   3.263  10.619
 6030SOL     OW18625   2.580   2.488  10.363
 6030SOL    HW118626   2.658   2.475  10.309
 6030SOL    HW218627   2.554   2.579  10.346
 6031SOL     OW18628   3.592   2.821  11.174
 6031SOL    HW118629   3.553   2.754  11.119
 6031SOL    HW218630   3.527   2.836  11.243
 6032SOL     OW18631   3.483   2.240   9.672
 6032SOL    HW118632   3.509   2.174   9.736
 6032SOL    HW218633   3.459   2.317   9.724
 6033SOL     OW18634   2.890   2.620  10.268
 6033SOL    HW118635   2.882   2.637  10.362
 6033SOL    HW218636   2.864   2.528  10.258
 6034SOL     OW18637   2.848   3.430  11.032
 6034SOL    HW118638   2.828   3.470  10.948
 6034SOL    HW218639   2.889   3.347  11.010
 6035SOL     OW18640   3.703   3.358  10.907
 6035SOL    HW118641   3.728   3.388  10.820
 6035SOL    HW218642   3.783   3.366  10.959
 6036SOL     OW18643   2.213   2.779  11.122
 6036SOL    HW118644   2.295   2.799  11.167
 6036SOL    HW218645   2.238   2.718  11.053
 6037SOL     OW18646   3.390   2.134   9.437
 6037SOL    HW118647   3.326   2.068   9.464
 6037SOL    HW218648   3.423   2.170   9.518
 6038SOL     OW18649   3.149   2.686   9.338
 6038SOL    HW118650   3.193   2.601   9.343
 6038SOL    HW218651   3.182   2.725   9.258
 6039SOL     OW18652   2.930   3.200  10.166
 6039SOL    HW118653   2.935   3.128  10.103
 6039SOL    HW218654   2.988   3.267  10.130
 6040SOL     OW18655   2.172   2.673  10.256
 6040SOL    HW118656   2.264   2.694  10.246
 6040SOL    HW218657   2.171   2.584  10.293
 6041SOL     OW18658   2.182   2.367  10.319
 6041SOL    HW118659   2.139   2.296  10.271
 6041SOL    HW218660   2.264   2.382  10.272
 6042SOL     OW18661   2.996   2.235  10.995
 6042SOL    HW118662   2.948   2.289  11.058
 6042SOL    HW218663   3.083   2.275  10.991
 6043SOL     OW18664   3.022   2.061  10.781
 6043SOL    HW118665   3.011   2.124  10.853
 6043SOL    HW218666   3.065   2.111  10.712
 6044SOL     OW18667   1.868   3.179   9.504
 6044SOL    HW118668   1.781   3.195   9.468
 6044SOL    HW218669   1.864   3.090   9.539
 6045SOL     OW18670   1.960   3.637  10.249
 6045SOL    HW118671   1.928   3.559  10.203
 6045SOL    HW218672   2.044   3.657  10.207
 6046SOL     OW18673   2.354   3.438  10.214
 6046SOL    HW118674   2.421   3.501  10.239
 6046SOL    HW218675   2.398   3.376  10.157
 6047SOL     OW18676   2.837   2.649  10.534
 6047SOL    HW118677   2.898   2.631  10.605
 6047SOL    HW218678   2.753   2.613  10.564
 6048SOL     OW18679   1.902   2.397  10.427
 6048SOL    HW118680   1.986   2.404  10.383
 6048SOL    HW218681   1.922   2.410  10.520
 6049SOL     OW18682   2.071   2.384  11.042
 6049SOL    HW118683   2.123   2.356  10.967
 6049SOL    HW218684   2.010   2.448  11.006
 6050SOL     OW18685   3.243   2.797  10.968
 6050SOL    HW118686   3.264   2.890  10.964
 6050SOL    HW218687   3.238   2.770  10.876
 6051SOL     OW18688   2.679   2.432   9.679
 6051SOL    HW118689   2.687   2.359   9.618
 6051SOL    HW218690   2.605   2.483   9.645
 6052SOL     OW18691   3.501   2.463  10.491
 6052SOL    HW118692   3.490   2.403  10.565
 6052SOL    HW218693   3.588   2.443  10.456
 6053SOL     OW18694   2.102   3.410  11.033
 6053SOL    HW118695   2.080   3.477  11.097
 6053SOL    HW218696   2.108   3.328  11.083
 6054SOL     OW18697   2.569   2.306  10.565
 6054SOL    HW118698   2.512   2.234  10.538
 6054SOL    HW218699   2.562   2.370  10.494
 6055SOL     OW18700   2.787   3.533  10.781
 6055SOL    HW118701   2.761   3.493  10.697
 6055SOL    HW218702   2.778   3.627  10.766
 6056SOL     OW18703   2.325   2.355   9.485
 6056SOL    HW118704   2.383   2.426   9.513
 6056SOL    HW218705   2.239   2.395   9.479
 6057SOL     OW18706   2.004   3.005  10.784
 6057SOL    HW118707   2.006   2.956  10.867
 6057SOL    HW218708   2.022   2.939  10.717
 6058SOL     OW18709   3.182   2.905  10.530
 6058SOL    HW118710   3.204   2.842  10.462
 6058SOL    HW218711   3.116   2.962  10.490
 6059SOL     OW18712   3.176   2.717   9.614
 6059SOL    HW118713   3.101   2.686   9.666
 6059SOL    HW218714   3.149   2.704   9.523
 6060SOL     OW18715   3.642   3.600  10.467
 6060SOL    HW118716   3.699   3.626  10.396
 6060SOL    HW218717   3.613   3.512  10.443
 6061SOL     OW18718   3.106   3.594  10.417
 6061SOL    HW118719   3.189   3.617  10.375
 6061SOL    HW218720   3.114   3.501  10.437
 6062SOL     OW18721   1.949   3.127  10.321
 6062SOL    HW118722   1.932   3.142  10.414
 6062SOL    HW218723   1.875   3.073  10.292
 6063SOL     OW18724   2.541   3.528  11.046
 6063SOL    HW118725   2.483   3.604  11.050
 6063SOL    HW218726   2.603   3.548  10.976
 6064SOL     OW18727   3.570   2.015   9.820
 6064SOL    HW118728   3.638   2.003   9.754
 6064SOL    HW218729   3.559   1.929   9.860
 6065SOL     OW18730   3.252   3.430   9.799
 6065SOL    HW118731   3.311   3.465   9.732
 6065SOL    HW218732   3.204   3.507   9.830
 6066SOL     OW18733   1.999   3.651  11.148
 6066SOL    HW118734   1.947   3.587  11.197
 6066SOL    HW218735   2.047   3.699  11.215
 6067SOL     OW18736   3.139   2.789   9.981
 6067SOL    HW118737   3.213   2.729   9.991
 6067SOL    HW218738   3.173   2.861   9.928
 6068SOL     OW18739   2.669   3.138  10.735
 6068SOL    HW118740   2.641   3.178  10.818
 6068SOL    HW218741   2.599   3.159  10.674
 6069SOL     OW18742   2.536   3.481   9.469
 6069SOL    HW118743   2.546   3.500   9.375
 6069SOL    HW218744   2.477   3.406   9.472
 6070SOL     OW18745   3.479   3.589  10.700
 6070SOL    HW118746   3.536   3.592  10.623
 6070SOL    HW218747   3.466   3.681  10.723
 6071SOL     OW18748   3.700   2.043  10.276
 6071SOL    HW118749   3.732   1.956  10.252
 6071SOL    HW218750   3.614   2.050  10.235
 6072SOL     OW18751   3.070   3.464   9.347
 6072SOL    HW118752   3.059   3.372   9.371
 6072SOL    HW218753   3.008   3.477   9.274
 6073SOL     OW18754   2.686   2.869  10.684
 6073SOL    HW118755   2.729   2.864  10.599
 6073SOL    HW218756   2.682   2.962  10.704
 6074SOL     OW18757   2.779   2.772   9.601
 6074SOL    HW118758   2.839   2.805   9.534
 6074SOL    HW218759   2.829   2.705   9.647
 6075SOL     OW18760   3.348   3.497   9.353
 6075SOL    HW118761   3.255   3.483   9.336
 6075SOL    HW218762   3.388   3.501   9.266
 6076SOL     OW18763   2.230   3.166  10.801
 6076SOL    HW118764   2.216   3.243  10.746
 6076SOL    HW218765   2.153   3.112  10.787
 6077SOL     OW18766   3.461   3.142  10.586
 6077SOL    HW118767   3.529   3.132  10.652
 6077SOL    HW218768   3.404   3.211  10.621
 6078SOL     OW18769   2.921   2.972  10.020
 6078SOL    HW118770   2.849   2.921  10.057
 6078SOL    HW218771   2.985   2.906   9.992
 6079SOL     OW18772   2.884   2.103  10.277
 6079SOL    HW118773   2.881   2.056  10.193
 6079SOL    HW218774   2.880   2.034  10.343
 6080SOL     OW18775   2.468   3.353   9.789
 6080SOL    HW118776   2.515   3.302   9.724
 6080SOL    HW218777   2.397   3.395   9.740
 6081SOL     OW18778   3.588   2.250  10.688
 6081SOL    HW118779   3.660   2.313  10.685
 6081SOL    HW218780   3.616   2.179  10.631
 6082SOL     OW18781   2.123   3.204   9.601
 6082SOL    HW118782   2.031   3.201   9.577
 6082SOL    HW218783   2.124   3.244   9.689
 6083SOL     OW18784   1.975   2.891  11.033
 6083SOL    HW118785   1.899   2.865  11.084
 6083SOL    HW218786   2.049   2.850  11.078
 6084SOL     OW18787   2.539   2.060  10.810
 6084SOL    HW118788   2.623   2.037  10.770
 6084SOL    HW218789   2.561   2.090  10.898
 6085SOL     OW18790   3.286   2.720  10.708
 6085SOL    HW118791   3.236   2.781  10.654
 6085SOL    HW218792   3.375   2.722  10.671
 6086SOL     OW18793   3.039   3.197   9.428
 6086SOL    HW118794   2.948   3.168   9.429
 6086SOL    HW218795   3.066   3.197   9.520
 6087SOL     OW18796   2.482   2.693  10.744
 6087SOL    HW118797   2.538   2.769  10.730
 6087SOL    HW218798   2.542   2.619  10.751
 6088SOL     OW18799   3.348   3.645  10.293
 6088SOL    HW118800   3.371   3.702  10.220
 6088SOL    HW218801   3.432   3.611  10.325
 6089SOL     OW18802   2.578   2.420  11.010
 6089SOL    HW118803   2.623   2.481  11.069
 6089SOL    HW218804   2.599   2.333  11.044
 6090SOL     OW18805   3.335   3.057  10.939
 6090SOL    HW118806   3.325   3.072  11.033
 6090SOL    HW218807   3.428   3.073  10.922
 6091SOL     OW18808   2.234   3.604  10.877
 6091SOL    HW118809   2.150   3.647  10.860
 6091SOL    HW218810   2.211   3.521  10.917
 6092SOL     OW18811   3.525   2.742  10.569
 6092SOL    HW118812   3.524   2.656  10.525
 6092SOL    HW218813   3.518   2.805  10.497
 6093SOL     OW18814   3.078   2.181   9.767
 6093SOL    HW118815   3.140   2.108   9.760
 6093SOL    HW218816   3.107   2.231   9.843
 6094SOL     OW18817   2.445   2.596   9.985
 6094SOL    HW118818   2.488   2.681   9.971
 6094SOL    HW218819   2.382   2.589   9.914
 6095SOL     OW18820   3.618   2.228  10.960
 6095SOL    HW118821   3.602   2.242  10.867
 6095SOL    HW218822   3.548   2.170  10.989
 6096SOL     OW18823   3.620   2.789  10.823
 6096SOL    HW118824   3.610   2.882  10.841
 6096SOL    HW218825   3.594   2.780  10.731
 6097SOL     OW18826   2.726   3.228   9.352
 6097SOL    HW118827   2.686   3.256   9.434
 6097SOL    HW218828   2.740   3.310   9.304
 6098SOL     OW18829   2.523   3.649  10.246
 6098SOL    HW118830   2.503   3.740  10.227
 6098SOL    HW218831   2.619   3.644  10.242
 6099SOL     OW18832   2.731   2.832  10.164
 6099SOL    HW118833   2.781   2.760  10.202
 6099SOL    HW218834   2.693   2.877  10.240
 6100SOL     OW18835   2.939   2.850   9.399
 6100SOL    HW118836   2.918   2.902   9.321
 6100SOL    HW218837   3.013   2.796   9.372
 6101SOL     OW18838   3.710   3.416  10.150
 6101SOL    HW118839   3.630   3.397  10.101
 6101SOL    HW218840   3.714   3.347  10.216
 6102SOL     OW18841   2.088   3.161  11.165
 6102SOL    HW118842   2.024   3.098  11.132
 6102SOL    HW218843   2.065   3.174  11.257
 6103SOL     OW18844   1.950   3.091   9.975
 6103SOL    HW118845   1.960   3.046  10.059
 6103SOL    HW218846   2.017   3.053   9.919
 6104SOL     OW18847   2.547   3.268  10.941
 6104SOL    HW118848   2.467   3.226  10.973
 6104SOL    HW218849   2.544   3.356  10.979
 6105SOL     OW18850   3.672   2.038  10.547
 6105SOL    HW118851   3.664   1.943  10.549
 6105SOL    HW218852   3.689   2.059  10.455
 6106SOL     OW18853   2.295   2.292   9.832
 6106SOL    HW118854   2.328   2.233   9.765
 6106SOL    HW218855   2.236   2.238   9.885
 6107SOL     OW18856   3.556   3.351  10.405
 6107SOL    HW118857   3.478   3.328  10.354
 6107SOL    HW218858   3.566   3.279  10.468
 6108SOL     OW18859   2.195   2.417  10.598
 6108SOL    HW118860   2.239   2.354  10.655
 6108SOL    HW218861   2.209   2.383  10.510
 6109SOL     OW18862   2.692   3.441   9.986
 6109SOL    HW118863   2.670   3.495   9.911
 6109SOL    HW218864   2.618   3.379   9.993
 6110SOL     OW18865   3.291   2.091  10.426
 6110SOL    HW118866   3.310   2.007  10.468
 6110SOL    HW218867   3.241   2.139  10.492
 6111SOL     OW18868   2.870   1.878  10.447
 6111SOL    HW118869   2.816   1.811  10.405
 6111SOL    HW218870   2.958   1.840  10.449
 6112SOL     OW18871   2.635   3.195   9.631
 6112SOL    HW118872   2.607   3.104   9.638
 6112SOL    HW218873   2.718   3.198   9.680
 6113SOL     OW18874   2.482   3.414  10.596
 6113SOL    HW118875   2.482   3.496  10.645
 6113SOL    HW218876   2.570   3.409  10.559
 6114SOL     OW18877   3.219   1.914   9.480
 6114SOL    HW118878   3.251   1.844   9.423
 6114SOL    HW218879   3.129   1.888   9.502
 6115SOL     OW18880   3.156   2.325   9.988
 6115SOL    HW118881   3.104   2.405   9.994
 6115SOL    HW218882   3.153   2.288  10.076
 6116SOL     OW18883   3.442   2.058  10.190
 6116SOL    HW118884   3.388   2.083  10.264
 6116SOL    HW218885   3.444   2.135  10.133
 6117SOL     OW18886   1.905   2.929   9.619
 6117SOL    HW118887   1.998   2.921   9.600
 6117SOL    HW218888   1.877   2.840   9.640
 6118SOL     OW18889   2.750   3.524   9.651
 6118SOL    HW118890   2.678   3.505   9.591
 6118SOL    HW218891   2.719   3.598   9.703
 6119SOL     OW18892   2.083   2.475  11.303
 6119SOL    HW118893   1.992   2.480  11.333
 6119SOL    HW218894   2.076   2.449  11.211
 6120SOL     OW18895   1.853   2.294  11.793
 6120SOL    HW118896   1.768   2.293  11.836
 6120SOL    HW218897   1.848   2.223  11.729
 6121SOL     OW18898   2.430   3.157  12.353
 6121SOL    HW118899   2.343   3.163  12.312
 6121SOL    HW218900   2.446   3.245  12.386
 6122SOL     OW18901   3.428   3.375  11.881
 6122SOL    HW118902   3.386   3.351  11.964
 6122SOL    HW218903   3.356   3.378  11.818
 6123SOL     OW18904   2.993   2.561  11.868
 6123SOL    HW118905   3.042   2.642  11.855
 6123SOL    HW218906   2.946   2.574  11.951
 6124SOL     OW18907   3.631   2.466  11.400
 6124SOL    HW118908   3.609   2.459  11.307
 6124SOL    HW218909   3.596   2.386  11.440
 6125SOL     OW18910   2.609   3.000  12.218
 6125SOL    HW118911   2.542   3.037  12.275
 6125SOL    HW218912   2.648   3.076  12.174
 6126SOL     OW18913   2.734   2.626  12.995
 6126SOL    HW118914   2.722   2.697  13.058
 6126SOL    HW218915   2.757   2.670  12.913
 6127SOL     OW18916   2.547   2.858  11.817
 6127SOL    HW118917   2.614   2.851  11.885
 6127SOL    HW218918   2.479   2.913  11.855
 6128SOL     OW18919   2.575   3.012  12.989
 6128SOL    HW118920   2.623   3.090  13.019
 6128SOL    HW218921   2.495   3.047  12.951
 6129SOL     OW18922   2.194   3.281  12.238
 6129SOL    HW118923   2.119   3.243  12.192
 6129SOL    HW218924   2.239   3.334  12.173
 6130SOL     OW18925   3.320   3.364  12.531
 6130SOL    HW118926   3.375   3.442  12.541
 6130SOL    HW218927   3.253   3.373  12.599
 6131SOL     OW18928   2.298   2.232  12.635
 6131SOL    HW118929   2.389   2.204  12.650
 6131SOL    HW218930   2.245   2.164  12.676
 6132SOL     OW18931   3.470   2.306  11.917
 6132SOL    HW118932   3.399   2.326  11.856
 6132SOL    HW218933   3.477   2.383  11.972
 6133SOL     OW18934   2.084   3.578  11.651
 6133SOL    HW118935   2.113   3.637  11.720
 6133SOL    HW218936   2.157   3.576  11.589
 6134SOL     OW18937   2.999   3.204  12.866
 6134SOL    HW118938   3.040   3.197  12.952
 6134SOL    HW218939   2.947   3.124  12.858
 6135SOL     OW18940   2.092   3.304  11.708
 6135SOL    HW118941   2.074   3.398  11.711
 6135SOL    HW218942   2.034   3.266  11.774
 6136SOL     OW18943   2.127   2.955  12.063
 6136SOL    HW118944   2.122   2.867  12.102
 6136SOL    HW218945   2.069   3.008  12.117
 6137SOL     OW18946   2.466   3.647  12.599
 6137SOL    HW118947   2.386   3.633  12.648
 6137SOL    HW218948   2.494   3.736  12.624
 6138SOL     OW18949   2.443   2.846  11.310
 6138SOL    HW118950   2.491   2.892  11.241
 6138SOL    HW218951   2.481   2.877  11.392
 6139SOL     OW18952   3.456   1.989  12.637
 6139SOL    HW118953   3.476   2.070  12.590
 6139SOL    HW218954   3.439   2.017  12.727
 6140SOL     OW18955   1.987   2.527  11.733
 6140SOL    HW118956   1.947   2.442  11.751
 6140SOL    HW218957   1.976   2.576  11.814
 6141SOL     OW18958   3.700   3.611  11.514
 6141SOL    HW118959   3.772   3.586  11.572
 6141SOL    HW218960   3.718   3.702  11.492
 6142SOL     OW18961   1.894   3.451  11.293
 6142SOL    HW118962   1.878   3.359  11.313
 6142SOL    HW218963   1.872   3.497  11.373
 6143SOL     OW18964   3.552   2.782  11.821
 6143SOL    HW118965   3.634   2.738  11.802
 6143SOL    HW218966   3.531   2.831  11.741
 6144SOL     OW18967   3.504   2.965  11.604
 6144SOL    HW118968   3.589   2.968  11.560
 6144SOL    HW218969   3.510   3.029  11.675
 6145SOL     OW18970   1.983   2.605  12.757
 6145SOL    HW118971   2.074   2.632  12.765
 6145SOL    HW218972   1.933   2.686  12.765
 6146SOL     OW18973   2.479   3.253  11.906
 6146SOL    HW118974   2.433   3.169  11.915
 6146SOL    HW218975   2.461   3.280  11.816
 6147SOL     OW18976   3.148   3.098  12.594
 6147SOL    HW118977   3.179   3.031  12.533
 6147SOL    HW218978   3.207   3.093  12.668
 6148SOL     OW18979   2.679   1.867  11.683
 6148SOL    HW118980   2.719   1.950  11.660
 6148SOL    HW218981   2.585   1.886  11.687
 6149SOL     OW18982   2.051   2.826  12.449
 6149SOL    HW118983   2.136   2.784  12.433
 6149SOL    HW218984   1.989   2.774  12.398
 6150SOL     OW18985   3.389   2.860  11.373
 6150SOL    HW118986   3.320   2.803  11.407
 6150SOL    HW218987   3.432   2.895  11.452
 6151SOL     OW18988   3.085   3.668  12.800
 6151SOL    HW118989   3.057   3.728  12.731
 6151SOL    HW218990   3.084   3.582  12.758
 6152SOL     OW18991   2.266   2.169  12.979
 6152SOL    HW118992   2.316   2.225  13.038
 6152SOL    HW218993   2.178   2.205  12.981
 6153SOL     OW18994   3.327   3.282  12.119
 6153SOL    HW118995   3.261   3.297  12.187
 6153SOL    HW218996   3.316   3.190  12.094
 6154SOL     OW18997   3.507   3.608  11.752
 6154SOL    HW118998   3.499   3.573  11.664
 6154SOL    HW218999   3.491   3.533  11.810
 6155SOL     OW19000   2.456   2.578  11.441
 6155SOL    HW119001   2.461   2.662  11.394
 6155SOL    HW219002   2.391   2.593  11.510
 6156SOL     OW19003   3.139   2.225  12.106
 6156SOL    HW119004   3.051   2.189  12.114
 6156SOL    HW219005   3.193   2.171  12.164
 6157SOL     OW19006   3.435   3.540  11.481
 6157SOL    HW119007   3.527   3.562  11.476
 6157SOL    HW219008   3.410   3.520  11.390
 6158SOL     OW19009   2.653   2.480  12.618
 6158SOL    HW119010   2.629   2.454  12.707
 6158SOL    HW219011   2.617   2.410  12.563
 6159SOL     OW19012   3.255   2.336  12.850
 6159SOL    HW119013   3.259   2.380  12.935
 6159SOL    HW219014   3.312   2.260  12.860
 6160SOL     OW19015   2.812   2.747  12.757
 6160SOL    HW119016   2.868   2.679  12.719
 6160SOL    HW219017   2.765   2.784  12.683
 6161SOL     OW19018   2.856   2.273  12.407
 6161SOL    HW119019   2.767   2.290  12.438
 6161SOL    HW219020   2.843   2.229  12.322
 6162SOL     OW19021   2.916   2.561  11.597
 6162SOL    HW119022   2.934   2.554  11.690
 6162SOL    HW219023   2.832   2.515  11.585
 6163SOL     OW19024   1.950   2.687  11.951
 6163SOL    HW119025   2.031   2.681  12.002
 6163SOL    HW219026   1.905   2.764  11.986
 6164SOL     OW19027   1.980   3.716  12.750
 6164SOL    HW119028   1.986   3.694  12.843
 6164SOL    HW219029   1.888   3.701  12.728
 6165SOL     OW19030   2.758   2.216  11.370
 6165SOL    HW119031   2.802   2.275  11.309
 6165SOL    HW219032   2.753   2.132  11.324
 6166SOL     OW19033   3.569   2.434  13.002
 6166SOL    HW119034   3.532   2.507  12.953
 6166SOL    HW219035   3.594   2.371  12.935
 6167SOL     OW19036   3.239   3.003  11.712
 6167SOL    HW119037   3.319   2.991  11.661
 6167SOL    HW219038   3.188   3.066  11.661
 6168SOL     OW19039   2.416   2.053  12.066
 6168SOL    HW119040   2.409   2.072  12.160
 6168SOL    HW219041   2.431   2.139  12.026
 6169SOL     OW19042   2.863   3.307  11.641
 6169SOL    HW119043   2.829   3.382  11.592
 6169SOL    HW219044   2.841   3.326  11.732
 6170SOL     OW19045   2.213   3.675  12.009
 6170SOL    HW119046   2.263   3.596  12.028
 6170SOL    HW219047   2.272   3.747  12.034
 6171SOL     OW19048   3.669   2.923  12.041
 6171SOL    HW119049   3.616   2.895  11.965
 6171SOL    HW219050   3.606   2.926  12.113
 6172SOL     OW19051   3.088   3.400  12.684
 6172SOL    HW119052   3.077   3.328  12.745
 6172SOL    HW219053   3.020   3.387  12.618
 6173SOL     OW19054   2.178   2.822  11.426
 6173SOL    HW119055   2.260   2.842  11.381
 6173SOL    HW219056   2.148   2.740  11.387
 6174SOL     OW19057   3.343   2.611  11.895
 6174SOL    HW119058   3.338   2.570  11.982
 6174SOL    HW219059   3.421   2.666  11.899
 6175SOL     OW19060   2.331   3.128  12.909
 6175SOL    HW119061   2.305   3.134  12.817
 6175SOL    HW219062   2.249   3.126  12.958
 6176SOL     OW19063   2.977   3.644  11.392
 6176SOL    HW119064   2.911   3.599  11.445
 6176SOL    HW219065   3.007   3.577  11.331
 6177SOL     OW19066   3.485   3.248  11.261
 6177SOL    HW119067   3.442   3.332  11.243
 6177SOL    HW219068   3.419   3.182  11.240
 6178SOL     OW19069   2.328   3.599  11.497
 6178SOL    HW119070   2.366   3.662  11.557
 6178SOL    HW219071   2.400   3.572  11.440
 6179SOL     OW19072   3.263   1.969  11.611
 6179SOL    HW119073   3.256   1.944  11.519
 6179SOL    HW219074   3.357   1.976  11.628
 6180SOL     OW19075   2.123   3.652  12.392
 6180SOL    HW119076   2.169   3.581  12.436
 6180SOL    HW219077   2.106   3.620  12.304
 6181SOL     OW19078   2.801   3.564  12.070
 6181SOL    HW119079   2.878   3.513  12.093
 6181SOL    HW219080   2.758   3.514  12.001
 6182SOL     OW19081   2.258   2.556  11.645
 6182SOL    HW119082   2.276   2.463  11.658
 6182SOL    HW219083   2.165   2.566  11.663
 6183SOL     OW19084   3.392   2.086  12.896
 6183SOL    HW119085   3.403   2.107  12.989
 6183SOL    HW219086   3.324   2.019  12.894
 6184SOL     OW19087   2.516   1.981  11.282
 6184SOL    HW119088   2.573   1.906  11.298
 6184SOL    HW219089   2.457   1.952  11.213
 6185SOL     OW19090   2.626   2.140  12.928
 6185SOL    HW119091   2.706   2.088  12.924
 6185SOL    HW219092   2.579   2.106  13.004
 6186SOL     OW19093   2.738   3.383  12.367
 6186SOL    HW119094   2.720   3.346  12.280
 6186SOL    HW219095   2.808   3.328  12.403
 6187SOL     OW19096   3.201   2.452  12.605
 6187SOL    HW119097   3.232   2.420  12.690
 6187SOL    HW219098   3.238   2.539  12.597
 6188SOL     OW19099   2.680   3.252  12.117
 6188SOL    HW119100   2.764   3.240  12.074
 6188SOL    HW219101   2.617   3.258  12.046
 6189SOL     OW19102   2.790   2.370  12.073
 6189SOL    HW119103   2.765   2.362  11.981
 6189SOL    HW219104   2.822   2.283  12.097
 6190SOL     OW19105   2.411   1.928  11.673
 6190SOL    HW119106   2.353   1.941  11.748
 6190SOL    HW219107   2.395   2.004  11.617
 6191SOL     OW19108   3.289   3.063  11.211
 6191SOL    HW119109   3.320   2.987  11.262
 6191SOL    HW219110   3.204   3.084  11.249
 6192SOL     OW19111   2.804   2.112  11.628
 6192SOL    HW119112   2.780   2.150  11.544
 6192SOL    HW219113   2.898   2.125  11.635
 6193SOL     OW19114   2.943   2.546  12.630
 6193SOL    HW119115   2.878   2.476  12.634
 6193SOL    HW219116   3.027   2.500  12.624
 6194SOL     OW19117   3.081   3.433  11.966
 6194SOL    HW119118   3.096   3.500  11.899
 6194SOL    HW219119   3.152   3.446  12.030
 6195SOL     OW19120   2.334   3.015  11.900
 6195SOL    HW119121   2.267   2.995  11.965
 6195SOL    HW219122   2.291   3.001  11.815
 6196SOL     OW19123   3.126   3.655  11.782
 6196SOL    HW119124   3.174   3.720  11.730
 6196SOL    HW219125   3.052   3.703  11.818
 6197SOL     OW19126   2.886   2.397  11.198
 6197SOL    HW119127   2.842   2.480  11.178
 6197SOL    HW219128   2.951   2.420  11.264
 6198SOL     OW19129   1.941   2.424  12.558
 6198SOL    HW119130   2.034   2.420  12.536
 6198SOL    HW219131   1.935   2.488  12.629
 6199SOL     OW19132   2.410   2.081  12.345
 6199SOL    HW119133   2.461   2.005  12.372
 6199SOL    HW219134   2.329   2.075  12.396
 6200SOL     OW19135   2.725   2.318  11.811
 6200SOL    HW119136   2.685   2.375  11.745
 6200SOL    HW219137   2.751   2.240  11.762
 6201SOL     OW19138   2.876   1.918  11.921
 6201SOL    HW119139   2.820   1.910  11.844
 6201SOL    HW219140   2.854   1.842  11.975
 6202SOL     OW19141   3.302   3.023  12.029
 6202SOL    HW119142   3.231   2.959  12.029
 6202SOL    HW219143   3.328   3.031  11.937
 6203SOL     OW19144   3.327   2.472  12.142
 6203SOL    HW119145   3.272   2.393  12.144
 6203SOL    HW219146   3.385   2.464  12.217
 6204SOL     OW19147   3.724   2.677  11.547
 6204SOL    HW119148   3.767   2.621  11.611
 6204SOL    HW219149   3.687   2.616  11.483
 6205SOL     OW19150   2.352   3.282  11.324
 6205SOL    HW119151   2.276   3.254  11.375
 6205SOL    HW219152   2.343   3.234  11.241
 6206SOL     OW19153   3.530   3.128  11.814
 6206SOL    HW119154   3.626   3.129  11.824
 6206SOL    HW219155   3.503   3.217  11.835
 6207SOL     OW19156   3.256   2.434  11.243
 6207SOL    HW119157   3.194   2.414  11.313
 6207SOL    HW219158   3.340   2.403  11.276
 6208SOL     OW19159   2.386   2.128  11.485
 6208SOL    HW119160   2.435   2.076  11.421
 6208SOL    HW219161   2.361   2.207  11.439
 6209SOL     OW19162   3.612   3.095  12.734
 6209SOL    HW119163   3.699   3.060  12.716
 6209SOL    HW219164   3.627   3.185  12.763
 6210SOL     OW19165   2.917   3.214  12.503
 6210SOL    HW119166   2.842   3.183  12.554
 6210SOL    HW219167   2.993   3.173  12.545
 6211SOL     OW19168   3.469   3.492  12.830
 6211SOL    HW119169   3.459   3.526  12.741
 6211SOL    HW219170   3.549   3.439  12.827
 6212SOL     OW19171   2.996   3.071  12.274
 6212SOL    HW119172   2.936   3.108  12.339
 6212SOL    HW219173   2.965   3.105  12.190
 6213SOL     OW19174   3.488   2.956  12.246
 6213SOL    HW119175   3.479   3.018  12.318
 6213SOL    HW219176   3.413   2.973  12.190
 6214SOL     OW19177   2.780   1.957  12.564
 6214SOL    HW119178   2.803   1.937  12.473
 6214SOL    HW219179   2.859   1.996  12.601
 6215SOL     OW19180   2.846   2.977  12.895
 6215SOL    HW119181   2.755   2.993  12.919
 6215SOL    HW219182   2.843   2.898  12.841
 6216SOL     OW19183   2.572   2.924  11.543
 6216SOL    HW119184   2.557   2.904  11.636
 6216SOL    HW219185   2.647   2.870  11.519
 6217SOL     OW19186   2.282   2.676  12.423
 6217SOL    HW119187   2.349   2.689  12.490
 6217SOL    HW219188   2.248   2.588  12.439
 6218SOL     OW19189   3.126   2.237  12.452
 6218SOL    HW119190   3.159   2.315  12.497
 6218SOL    HW219191   3.035   2.259  12.430
 6219SOL     OW19192   1.936   3.435  12.527
 6219SOL    HW119193   1.909   3.510  12.474
 6219SOL    HW219194   2.032   3.435  12.521
 6220SOL     OW19195   2.202   2.979  11.661
 6220SOL    HW119196   2.206   3.052  11.600
 6220SOL    HW219197   2.200   2.901  11.605
 6221SOL     OW19198   2.406   2.393  12.034
 6221SOL    HW119199   2.419   2.452  11.959
 6221SOL    HW219200   2.473   2.420  12.096
 6222SOL     OW19201   3.109   3.212  11.562
 6222SOL    HW119202   3.165   3.282  11.594
 6222SOL    HW219203   3.022   3.233  11.595
 6223SOL     OW19204   3.149   3.323  12.321
 6223SOL    HW119205   3.205   3.327  12.398
 6223SOL    HW219206   3.094   3.246  12.335
 6224SOL     OW19207   3.438   2.480  11.656
 6224SOL    HW119208   3.390   2.531  11.722
 6224SOL    HW219209   3.480   2.546  11.600
 6225SOL     OW19210   2.207   3.393  12.482
 6225SOL    HW119211   2.196   3.347  12.398
 6225SOL    HW219212   2.302   3.403  12.491
 6226SOL     OW19213   2.278   2.610  12.777
 6226SOL    HW119214   2.341   2.652  12.717
 6226SOL    HW219215   2.321   2.528  12.803
 6227SOL     OW19216   3.468   2.641  12.857
 6227SOL    HW119217   3.383   2.684  12.852
 6227SOL    HW219218   3.521   2.684  12.790
 6228SOL     OW19219   2.857   1.993  12.923
 6228SOL    HW119220   2.917   2.065  12.902
 6228SOL    HW219221   2.906   1.914  12.899
 6229SOL     OW19222   2.370   1.907  12.924
 6229SOL    HW119223   2.312   1.856  12.867
 6229SOL    HW219224   2.329   1.993  12.930
 6230SOL     OW19225   2.448   2.735  12.205
 6230SOL    HW119226   2.481   2.825  12.205
 6230SOL    HW219227   2.390   2.730  12.282
 6231SOL     OW19228   3.212   2.721  12.194
 6231SOL    HW119229   3.127   2.706  12.153
 6231SOL    HW219230   3.258   2.638  12.186
 6232SOL     OW19231   3.062   2.389  11.434
 6232SOL    HW119232   3.071   2.311  11.489
 6232SOL    HW219233   3.020   2.454  11.491
 6233SOL     OW19234   1.908   3.173  12.446
 6233SOL    HW119235   1.940   3.118  12.517
 6233SOL    HW219236   1.914   3.263  12.481
 6234SOL     OW19237   2.580   2.488  12.224
 6234SOL    HW119238   2.658   2.475  12.171
 6234SOL    HW219239   2.554   2.579  12.208
 6235SOL     OW19240   3.592   2.820  13.037
 6235SOL    HW119241   3.553   2.754  12.981
 6235SOL    HW219242   3.527   2.835  13.106
 6236SOL     OW19243   3.483   2.240  11.534
 6236SOL    HW119244   3.509   2.174  11.598
 6236SOL    HW219245   3.459   2.317  11.586
 6237SOL     OW19246   2.890   2.620  12.130
 6237SOL    HW119247   2.882   2.637  12.224
 6237SOL    HW219248   2.864   2.528  12.120
 6238SOL     OW19249   2.848   3.430  12.894
 6238SOL    HW119250   2.828   3.471  12.809
 6238SOL    HW219251   2.889   3.347  12.872
 6239SOL     OW19252   3.703   3.358  12.769
 6239SOL    HW119253   3.728   3.388  12.682
 6239SOL    HW219254   3.783   3.366  12.821
 6240SOL     OW19255   2.213   2.780  12.984
 6240SOL    HW119256   2.296   2.798  13.029
 6240SOL    HW219257   2.238   2.718  12.915
 6241SOL     OW19258   3.390   2.134  11.299
 6241SOL    HW119259   3.325   2.068  11.326
 6241SOL    HW219260   3.423   2.170  11.380
 6242SOL     OW19261   3.149   2.686  11.200
 6242SOL    HW119262   3.193   2.601  11.205
 6242SOL    HW219263   3.182   2.725  11.120
 6243SOL     OW19264   2.930   3.200  12.028
 6243SOL    HW119265   2.935   3.128  11.965
 6243SOL    HW219266   2.988   3.267  11.992
 6244SOL     OW19267   2.172   2.673  12.118
 6244SOL    HW119268   2.264   2.694  12.109
 6244SOL    HW219269   2.171   2.584  12.155
 6245SOL     OW19270   2.182   2.368  12.181
 6245SOL    HW119271   2.139   2.297  12.132
 6245SOL    HW219272   2.264   2.383  12.133
 6246SOL     OW19273   2.996   2.235  12.856
 6246SOL    HW119274   2.948   2.289  12.919
 6246SOL    HW219275   3.083   2.275  12.852
 6247SOL     OW19276   3.022   2.061  12.643
 6247SOL    HW119277   3.011   2.124  12.715
 6247SOL    HW219278   3.065   2.111  12.574
 6248SOL     OW19279   1.868   3.179  11.366
 6248SOL    HW119280   1.781   3.195  11.330
 6248SOL    HW219281   1.864   3.090  11.401
 6249SOL     OW19282   1.960   3.637  12.111
 6249SOL    HW119283   1.928   3.559  12.065
 6249SOL    HW219284   2.044   3.657  12.069
 6250SOL     OW19285   2.353   3.438  12.076
 6250SOL    HW119286   2.421   3.501  12.101
 6250SOL    HW219287   2.398   3.376  12.019
 6251SOL     OW19288   2.837   2.649  12.396
 6251SOL    HW119289   2.898   2.630  12.467
 6251SOL    HW219290   2.753   2.613  12.426
 6252SOL     OW19291   1.902   2.397  12.289
 6252SOL    HW119292   1.987   2.404  12.245
 6252SOL    HW219293   1.922   2.409  12.382
 6253SOL     OW19294   2.070   2.383  12.904
 6253SOL    HW119295   2.124   2.358  12.829
 6253SOL    HW219296   2.007   2.446  12.870
 6254SOL     OW19297   3.243   2.797  12.829
 6254SOL    HW119298   3.264   2.890  12.826
 6254SOL    HW219299   3.238   2.770  12.738
 6255SOL     OW19300   2.679   2.432  11.540
 6255SOL    HW119301   2.687   2.359  11.479
 6255SOL    HW219302   2.605   2.483  11.507
 6256SOL     OW19303   3.501   2.463  12.353
 6256SOL    HW119304   3.490   2.403  12.427
 6256SOL    HW219305   3.588   2.443  12.318
 6257SOL     OW19306   2.102   3.410  12.895
 6257SOL    HW119307   2.080   3.477  12.959
 6257SOL    HW219308   2.107   3.329  12.945
 6258SOL     OW19309   2.569   2.306  12.427
 6258SOL    HW119310   2.512   2.234  12.400
 6258SOL    HW219311   2.562   2.370  12.356
 6259SOL     OW19312   2.787   3.533  12.643
 6259SOL    HW119313   2.761   3.493  12.559
 6259SOL    HW219314   2.778   3.627  12.628
 6260SOL     OW19315   2.325   2.354  11.345
 6260SOL    HW119316   2.383   2.425  11.373
 6260SOL    HW219317   2.238   2.394  11.339
 6261SOL     OW19318   2.004   3.005  12.646
 6261SOL    HW119319   2.006   2.956  12.728
 6261SOL    HW219320   2.022   2.939  12.579
 6262SOL     OW19321   3.182   2.905  12.392
 6262SOL    HW119322   3.204   2.842  12.324
 6262SOL    HW219323   3.116   2.962  12.352
 6263SOL     OW19324   3.176   2.717  11.476
 6263SOL    HW119325   3.101   2.686  11.528
 6263SOL    HW219326   3.149   2.704  11.385
 6264SOL     OW19327   3.642   3.600  12.329
 6264SOL    HW119328   3.699   3.626  12.258
 6264SOL    HW219329   3.613   3.512  12.305
 6265SOL     OW19330   3.106   3.594  12.279
 6265SOL    HW119331   3.189   3.617  12.237
 6265SOL    HW219332   3.114   3.501  12.299
 6266SOL     OW19333   1.949   3.127  12.183
 6266SOL    HW119334   1.932   3.142  12.276
 6266SOL    HW219335   1.875   3.073  12.154
 6267SOL     OW19336   2.541   3.528  12.908
 6267SOL    HW119337   2.483   3.604  12.912
 6267SOL    HW219338   2.603   3.548  12.837
 6268SOL     OW19339   3.570   2.015  11.682
 6268SOL    HW119340   3.638   2.003  11.616
 6268SOL    HW219341   3.559   1.929  11.722
 6269SOL     OW19342   3.252   3.430  11.661
 6269SOL    HW119343   3.311   3.465  11.594
 6269SOL    HW219344   3.204   3.507  11.692
 6270SOL     OW19345   1.999   3.650  13.010
 6270SOL    HW119346   1.947   3.587  13.059
 6270SOL    HW219347   2.046   3.699  13.077
 6271SOL     OW19348   3.139   2.789  11.843
 6271SOL    HW119349   3.213   2.729  11.853
 6271SOL    HW219350   3.173   2.861  11.790
 6272SOL     OW19351   2.669   3.138  12.597
 6272SOL    HW119352   2.641   3.178  12.680
 6272SOL    HW219353   2.599   3.159  12.536
 6273SOL     OW19354   2.536   3.481  11.331
 6273SOL    HW119355   2.546   3.500  11.237
 6273SOL    HW219356   2.477   3.406  11.334
 6274SOL     OW19357   3.479   3.589  12.562
 6274SOL    HW119358   3.536   3.592  12.485
 6274SOL    HW219359   3.466   3.681  12.585
 6275SOL     OW19360   3.700   2.043  12.138
 6275SOL    HW119361   3.732   1.956  12.114
 6275SOL    HW219362   3.614   2.050  12.097
 6276SOL     OW19363   3.070   3.464  11.209
 6276SOL    HW119364   3.059   3.372  11.233
 6276SOL    HW219365   3.008   3.477  11.136
 6277SOL     OW19366   2.686   2.869  12.546
 6277SOL    HW119367   2.729   2.864  12.461
 6277SOL    HW219368   2.682   2.962  12.566
 6278SOL     OW19369   2.779   2.772  11.463
 6278SOL    HW119370   2.839   2.805  11.396
 6278SOL    HW219371   2.829   2.705  11.509
 6279SOL     OW19372   3.348   3.497  11.215
 6279SOL    HW119373   3.255   3.483  11.198
 6279SOL    HW219374   3.388   3.501  11.128
 6280SOL     OW19375   2.230   3.166  12.663
 6280SOL    HW119376   2.216   3.243  12.608
 6280SOL    HW219377   2.153   3.112  12.649
 6281SOL     OW19378   3.461   3.142  12.449
 6281SOL    HW119379   3.529   3.132  12.515
 6281SOL    HW219380   3.404   3.211  12.483
 6282SOL     OW19381   2.921   2.972  11.882
 6282SOL    HW119382   2.849   2.921  11.919
 6282SOL    HW219383   2.985   2.906  11.854
 6283SOL     OW19384   2.884   2.103  12.138
 6283SOL    HW119385   2.881   2.056  12.055
 6283SOL    HW219386   2.880   2.034  12.205
 6284SOL     OW19387   2.468   3.353  11.651
 6284SOL    HW119388   2.515   3.302  11.586
 6284SOL    HW219389   2.397   3.395  11.602
 6285SOL     OW19390   3.588   2.250  12.550
 6285SOL    HW119391   3.660   2.313  12.547
 6285SOL    HW219392   3.616   2.179  12.493
 6286SOL     OW19393   2.123   3.204  11.463
 6286SOL    HW119394   2.031   3.201  11.439
 6286SOL    HW219395   2.124   3.244  11.550
 6287SOL     OW19396   1.975   2.890  12.894
 6287SOL    HW119397   1.899   2.865  12.946
 6287SOL    HW219398   2.049   2.850  12.940
 6288SOL     OW19399   2.539   2.060  12.671
 6288SOL    HW119400   2.624   2.037  12.632
 6288SOL    HW219401   2.561   2.090  12.759
 6289SOL     OW19402   3.287   2.720  12.570
 6289SOL    HW119403   3.236   2.781  12.516
 6289SOL    HW219404   3.375   2.722  12.533
 6290SOL     OW19405   3.039   3.197  11.290
 6290SOL    HW119406   2.948   3.168  11.291
 6290SOL    HW219407   3.066   3.197  11.382
 6291SOL     OW19408   2.482   2.693  12.606
 6291SOL    HW119409   2.538   2.769  12.592
 6291SOL    HW219410   2.542   2.619  12.613
 6292SOL     OW19411   3.348   3.645  12.155
 6292SOL    HW119412   3.371   3.702  12.082
 6292SOL    HW219413   3.432   3.611  12.187
 6293SOL     OW19414   2.578   2.420  12.871
 6293SOL    HW119415   2.623   2.480  12.931
 6293SOL    HW219416   2.599   2.333  12.905
 6294SOL     OW19417   3.335   3.057  12.801
 6294SOL    HW119418   3.325   3.072  12.895
 6294SOL    HW219419   3.428   3.074  12.784
 6295SOL     OW19420   2.234   3.604  12.739
 6295SOL    HW119421   2.150   3.647  12.722
 6295SOL    HW219422   2.210   3.520  12.779
 6296SOL     OW19423   3.525   2.742  12.431
 6296SOL    HW119424   3.524   2.656  12.387
 6296SOL    HW219425   3.518   2.805  12.359
 6297SOL     OW19426   3.078   2.181  11.629
 6297SOL    HW119427   3.140   2.108  11.622
 6297SOL    HW219428   3.107   2.231  11.705
 6298SOL     OW19429   2.445   2.596  11.847
 6298SOL    HW119430   2.488   2.681  11.833
 6298SOL    HW219431   2.382   2.589  11.776
 6299SOL     OW19432   3.618   2.229  12.823
 6299SOL    HW119433   3.602   2.242  12.729
 6299SOL    HW219434   3.547   2.170  12.851
 6300SOL     OW19435   3.620   2.789  12.685
 6300SOL    HW119436   3.610   2.882  12.703
 6300SOL    HW219437   3.594   2.780  12.593
 6301SOL     OW19438   2.726   3.228  11.214
 6301SOL    HW119439   2.686   3.256  11.296
 6301SOL    HW219440   2.740   3.310  11.166
 6302SOL     OW19441   2.523   3.649  12.108
 6302SOL    HW119442   2.503   3.740  12.089
 6302SOL    HW219443   2.619   3.644  12.104
 6303SOL     OW19444   2.731   2.832  12.026
 6303SOL    HW119445   2.781   2.760  12.064
 6303SOL    HW219446   2.693   2.877  12.102
 6304SOL     OW19447   2.939   2.850  11.261
 6304SOL    HW119448   2.918   2.902  11.183
 6304SOL    HW219449   3.013   2.796  11.234
 6305SOL     OW19450   3.710   3.416  12.012
 6305SOL    HW119451   3.630   3.397  11.963
 6305SOL    HW219452   3.714   3.347  12.078
 6306SOL     OW19453   2.088   3.161  13.026
 6306SOL    HW119454   2.024   3.098  12.994
 6306SOL    HW219455   2.065   3.174  13.118
 6307SOL     OW19456   1.950   3.091  11.837
 6307SOL    HW119457   1.960   3.046  11.921
 6307SOL    HW219458   2.017   3.053  11.781
 6308SOL     OW19459   2.547   3.268  12.803
 6308SOL    HW119460   2.467   3.226  12.835
 6308SOL    HW219461   2.544   3.356  12.840
 6309SOL     OW19462   3.672   2.038  12.409
 6309SOL    HW119463   3.665   1.943  12.411
 6309SOL    HW219464   3.689   2.059  12.317
 6310SOL     OW19465   2.295   2.293  11.693
 6310SOL    HW119466   2.327   2.233  11.626
 6310SOL    HW219467   2.242   2.239  11.752
 6311SOL     OW19468   3.556   3.351  12.267
 6311SOL    HW119469   3.478   3.328  12.216
 6311SOL    HW219470   3.566   3.279  12.330
 6312SOL     OW19471   2.195   2.417  12.460
 6312SOL    HW119472   2.240   2.354  12.517
 6312SOL    HW219473   2.208   2.383  12.372
 6313SOL     OW19474   2.692   3.441  11.848
 6313SOL    HW119475   2.670   3.495  11.773
 6313SOL    HW219476   2.618   3.379  11.855
 6314SOL     OW19477   3.291   2.091  12.288
 6314SOL    HW119478   3.310   2.007  12.330
 6314SOL    HW219479   3.241   2.139  12.354
 6315SOL     OW19480   2.870   1.878  12.309
 6315SOL    HW119481   2.816   1.811  12.267
 6315SOL    HW219482   2.958   1.840  12.311
 6316SOL     OW19483   2.635   3.195  11.493
 6316SOL    HW119484   2.607   3.104  11.500
 6316SOL    HW219485   2.718   3.198  11.542
 6317SOL     OW19486   2.482   3.414  12.458
 6317SOL    HW119487   2.482   3.496  12.507
 6317SOL    HW219488   2.570   3.409  12.421
 6318SOL     OW19489   3.218   1.914  11.342
 6318SOL    HW119490   3.251   1.844  11.285
 6318SOL    HW219491   3.129   1.887  11.364
 6319SOL     OW19492   3.156   2.325  11.850
 6319SOL    HW119493   3.104   2.405  11.856
 6319SOL    HW219494   3.153   2.288  11.938
 6320SOL     OW19495   3.442   2.058  12.052
 6320SOL    HW119496   3.388   2.083  12.126
 6320SOL    HW219497   3.444   2.135  11.995
 6321SOL     OW19498   1.905   2.929  11.481
 6321SOL    HW119499   1.998   2.921  11.462
 6321SOL    HW219500   1.877   2.840  11.502
 6322SOL     OW19501   2.750   3.524  11.513
 6322SOL    HW119502   2.678   3.505  11.453
 6322SOL    HW219503   2.719   3.598  11.565
 6323SOL     OW19504   2.082   2.474  13.165
 6323SOL    HW119505   1.992   2.477  13.197
 6323SOL    HW219506   2.074   2.448  13.073
 6324SOL     OW19507   1.878   2.282  13.643
 6324SOL    HW119508   1.790   2.290  13.678
 6324SOL    HW219509   1.869   2.227  13.565
 6325SOL     OW19510   3.380   3.356  13.730
 6325SOL    HW119511   3.329   3.282  13.763
 6325SOL    HW219512   3.337   3.382  13.649
 6326SOL     OW19513   2.993   2.558  13.727
 6326SOL    HW119514   3.044   2.637  13.709
 6326SOL    HW219515   2.943   2.579  13.806
 6327SOL     OW19516   3.644   2.465  13.259
 6327SOL    HW119517   3.617   2.458  13.168
 6327SOL    HW219518   3.600   2.391  13.302
 6328SOL     OW19519   2.544   2.872  13.671
 6328SOL    HW119520   2.598   2.855  13.749
 6328SOL    HW219521   2.470   2.922  13.704
 6329SOL     OW19522   3.481   2.321  13.755
 6329SOL    HW119523   3.394   2.309  13.717
 6329SOL    HW219524   3.472   2.400  13.809
 6330SOL     OW19525   2.087   3.579  13.520
 6330SOL    HW119526   2.122   3.627  13.595
 6330SOL    HW219527   2.158   3.579  13.456
 6331SOL     OW19528   2.095   3.303  13.570
 6331SOL    HW119529   2.075   3.397  13.574
 6331SOL    HW219530   2.035   3.264  13.633
 6332SOL     OW19531   2.103   2.974   0.030
 6332SOL    HW119532   2.122   2.910   0.099
 6332SOL    HW219533   2.031   3.026   0.065
 6333SOL     OW19534   2.442   2.845  13.170
 6333SOL    HW119535   2.490   2.891  13.101
 6333SOL    HW219536   2.481   2.877  13.251
 6334SOL     OW19537   1.984   2.532  13.591
 6334SOL    HW119538   1.951   2.444  13.608
 6334SOL    HW219539   1.971   2.579  13.673
 6335SOL     OW19540   3.699   3.612  13.374
 6335SOL    HW119541   3.772   3.585  13.430
 6335SOL    HW219542   3.715   3.704  13.355
 6336SOL     OW19543   1.893   3.451  13.155
 6336SOL    HW119544   1.878   3.359  13.176
 6336SOL    HW219545   1.874   3.498  13.236
 6337SOL     OW19546   3.548   2.780  13.671
 6337SOL    HW119547   3.633   2.743  13.647
 6337SOL    HW219548   3.525   2.835  13.596
 6338SOL     OW19549   3.503   2.965  13.463
 6338SOL    HW119550   3.588   2.967  13.418
 6338SOL    HW219551   3.511   3.031  13.532
 6339SOL     OW19552   2.467   3.244  13.758
 6339SOL    HW119553   2.422   3.160  13.764
 6339SOL    HW219554   2.444   3.277  13.671
 6340SOL     OW19555   2.679   1.866  13.543
 6340SOL    HW119556   2.718   1.950  13.521
 6340SOL    HW219557   2.585   1.883  13.550
 6341SOL     OW19558   3.388   2.859  13.235
 6341SOL    HW119559   3.319   2.802  13.269
 6341SOL    HW219560   3.429   2.895  13.313
 6342SOL     OW19561   3.510   3.599  13.615
 6342SOL    HW119562   3.495   3.570  13.525
 6342SOL    HW219563   3.505   3.519  13.668
 6343SOL     OW19564   2.453   2.578  13.300
 6343SOL    HW119565   2.458   2.662  13.253
 6343SOL    HW219566   2.387   2.593  13.368
 6344SOL     OW19567   3.117   2.188   0.042
 6344SOL    HW119568   3.038   2.142   0.069
 6344SOL    HW219569   3.189   2.137   0.080
 6345SOL     OW19570   3.435   3.543  13.340
 6345SOL    HW119571   3.528   3.564  13.337
 6345SOL    HW219572   3.412   3.522  13.250
 6346SOL     OW19573   2.912   2.558  13.458
 6346SOL    HW119574   2.930   2.547  13.551
 6346SOL    HW219575   2.829   2.512  13.443
 6347SOL     OW19576   1.947   2.688  13.810
 6347SOL    HW119577   2.019   2.671  13.871
 6347SOL    HW219578   1.900   2.762  13.847
 6348SOL     OW19579   2.758   2.214  13.231
 6348SOL    HW119580   2.801   2.274  13.170
 6348SOL    HW219581   2.756   2.130  13.186
 6349SOL     OW19582   3.224   2.996  13.549
 6349SOL    HW119583   3.314   2.995  13.516
 6349SOL    HW219584   3.182   3.068  13.502
 6350SOL     OW19585   2.859   3.302  13.501
 6350SOL    HW119586   2.829   3.380  13.453
 6350SOL    HW219587   2.826   3.315  13.590
 6351SOL     OW19588   2.260   3.669  13.793
 6351SOL    HW119589   2.207   3.607  13.844
 6351SOL    HW219590   2.327   3.700  13.855
 6352SOL     OW19591   3.653   2.913  13.900
 6352SOL    HW119592   3.599   2.899  13.822
 6352SOL    HW219593   3.592   2.907   0.073
 6353SOL     OW19594   2.178   2.823  13.289
 6353SOL    HW119595   2.259   2.842  13.242
 6353SOL    HW219596   2.147   2.740  13.251
 6354SOL     OW19597   3.355   2.596  13.745
 6354SOL    HW119598   3.345   2.560  13.833
 6354SOL    HW219599   3.426   2.659  13.752
 6355SOL     OW19600   2.977   3.645  13.253
 6355SOL    HW119601   2.912   3.600  13.308
 6355SOL    HW219602   3.007   3.578  13.192
 6356SOL     OW19603   3.485   3.248  13.123
 6356SOL    HW119604   3.442   3.332  13.105
 6356SOL    HW219605   3.419   3.182  13.102
 6357SOL     OW19606   2.327   3.598  13.357
 6357SOL    HW119607   2.365   3.660  13.419
 6357SOL    HW219608   2.400   3.573  13.300
 6358SOL     OW19609   3.264   1.975  13.469
 6358SOL    HW119610   3.257   1.947  13.378
 6358SOL    HW219611   3.358   1.976  13.486
 6359SOL     OW19612   2.792   3.545   0.006
 6359SOL    HW119613   2.802   3.478   0.074
 6359SOL    HW219614   2.749   3.499  13.834
 6360SOL     OW19615   2.253   2.563  13.502
 6360SOL    HW119616   2.264   2.468  13.511
 6360SOL    HW219617   2.160   2.578  13.521
 6361SOL     OW19618   2.516   1.982  13.143
 6361SOL    HW119619   2.573   1.907  13.159
 6361SOL    HW219620   2.457   1.952  13.074
 6362SOL     OW19621   2.410   1.925  13.535
 6362SOL    HW119622   2.347   1.933  13.606
 6362SOL    HW219623   2.394   2.001  13.480
 6363SOL     OW19624   3.290   3.062  13.074
 6363SOL    HW119625   3.319   2.987  13.124
 6363SOL    HW219626   3.204   3.083  13.110
 6364SOL     OW19627   2.803   2.111  13.491
 6364SOL    HW119628   2.778   2.150  13.407
 6364SOL    HW219629   2.898   2.124  13.497
 6365SOL     OW19630   2.324   3.006  13.767
 6365SOL    HW119631   2.252   2.994  13.830
 6365SOL    HW219632   2.283   2.995  13.681
 6366SOL     OW19633   3.127   3.659  13.628
 6366SOL    HW119634   3.174   3.728  13.580
 6366SOL    HW219635   3.058   3.706  13.675
 6367SOL     OW19636   2.885   2.397  13.059
 6367SOL    HW119637   2.842   2.480  13.040
 6367SOL    HW219638   2.950   2.419  13.126
 6368SOL     OW19639   2.761   2.331  13.673
 6368SOL    HW119640   2.699   2.381  13.621
 6368SOL    HW219641   2.770   2.248  13.626
 6369SOL     OW19642   2.887   1.897  13.772
 6369SOL    HW119643   2.829   1.905  13.696
 6369SOL    HW219644   2.856   1.818  13.817
 6370SOL     OW19645   3.729   2.675  13.410
 6370SOL    HW119646   3.777   2.621  13.472
 6370SOL    HW219647   3.693   2.614  13.346
 6371SOL     OW19648   2.352   3.281  13.186
 6371SOL    HW119649   2.276   3.254  13.238
 6371SOL    HW219650   2.342   3.234  13.103
 6372SOL     OW19651   3.541   3.134  13.662
 6372SOL    HW119652   3.635   3.134  13.679
 6372SOL    HW219653   3.510   3.217  13.700
 6373SOL     OW19654   3.256   2.434  13.105
 6373SOL    HW119655   3.193   2.414  13.175
 6373SOL    HW219656   3.340   2.403  13.138
 6374SOL     OW19657   2.390   2.127  13.351
 6374SOL    HW119658   2.437   2.077  13.284
 6374SOL    HW219659   2.360   2.206  13.306
 6375SOL     OW19660   2.572   2.927  13.400
 6375SOL    HW119661   2.557   2.909  13.492
 6375SOL    HW219662   2.648   2.872  13.377
 6376SOL     OW19663   2.205   2.978  13.523
 6376SOL    HW119664   2.206   3.053  13.464
 6376SOL    HW219665   2.201   2.902  13.466
 6377SOL     OW19666   2.445   2.388  13.846
 6377SOL    HW119667   2.449   2.466  13.791
 6377SOL    HW219668   2.482   2.416   0.029
 6378SOL     OW19669   3.106   3.216  13.418
 6378SOL    HW119670   3.161   3.289  13.446
 6378SOL    HW219671   3.019   3.235  13.454
 6379SOL     OW19672   3.442   2.486  13.500
 6379SOL    HW119673   3.400   2.522  13.578
 6379SOL    HW219674   3.472   2.563  13.451
 6380SOL     OW19675   3.061   2.389  13.296
 6380SOL    HW119676   3.070   2.311  13.350
 6380SOL    HW219677   3.019   2.453  13.353
 6381SOL     OW19678   3.483   2.239  13.394
 6381SOL    HW119679   3.507   2.176  13.462
 6381SOL    HW219680   3.460   2.318  13.443
 6382SOL     OW19681   3.390   2.134  13.160
 6382SOL    HW119682   3.325   2.069  13.188
 6382SOL    HW219683   3.424   2.170  13.242
 6383SOL     OW19684   3.149   2.686  13.061
 6383SOL    HW119685   3.192   2.601  13.066
 6383SOL    HW219686   3.182   2.725  12.981
 6384SOL     OW19687   1.869   3.179  13.228
 6384SOL    HW119688   1.781   3.195  13.192
 6384SOL    HW219689   1.865   3.091  13.263
 6385SOL     OW19690   2.677   2.434  13.395
 6385SOL    HW119691   2.684   2.359  13.336
 6385SOL    HW219692   2.602   2.483  13.362
 6386SOL     OW19693   2.324   2.351  13.205
 6386SOL    HW119694   2.382   2.422  13.231
 6386SOL    HW219695   2.237   2.391  13.201
 6387SOL     OW19696   3.178   2.713  13.337
 6387SOL    HW119697   3.101   2.687  13.388
 6387SOL    HW219698   3.151   2.701  13.246
 6388SOL     OW19699   3.573   2.013  13.546
 6388SOL    HW119700   3.639   2.002  13.477
 6388SOL    HW219701   3.562   1.926  13.583
 6389SOL     OW19702   3.244   3.437  13.509
 6389SOL    HW119703   3.303   3.475  13.444
 6389SOL    HW219704   3.198   3.513  13.546
 6390SOL     OW19705   3.151   2.775  13.684
 6390SOL    HW119706   3.227   2.719  13.671
 6390SOL    HW219707   3.174   2.857  13.641
 6391SOL     OW19708   2.536   3.481  13.192
 6391SOL    HW119709   2.546   3.500  13.099
 6391SOL    HW219710   2.477   3.406  13.195
 6392SOL     OW19711   3.679   2.025   0.089
 6392SOL    HW119712   3.689   1.939   0.047
 6392SOL    HW219713   3.585   2.043   0.085
 6393SOL     OW19714   2.100   2.297  13.817
 6393SOL    HW119715   2.062   2.286  13.730
 6393SOL    HW219716   2.154   2.219  13.829
 6394SOL     OW19717   3.070   3.464  13.070
 6394SOL    HW119718   3.059   3.372  13.094
 6394SOL    HW219719   3.008   3.477  12.998
 6395SOL     OW19720   2.782   2.775  13.330
 6395SOL    HW119721   2.840   2.805  13.260
 6395SOL    HW219722   2.829   2.702  13.371
 6396SOL     OW19723   3.348   3.497  13.076
 6396SOL    HW119724   3.255   3.482  13.060
 6396SOL    HW219725   3.388   3.500  12.989
 6397SOL     OW19726   2.912   2.953  13.755
 6397SOL    HW119727   2.827   2.915  13.734
 6397SOL    HW219728   2.971   2.918  13.688
 6398SOL     OW19729   2.461   3.354  13.504
 6398SOL    HW119730   2.509   3.303  13.439
 6398SOL    HW219731   2.393   3.400  13.454
 6399SOL     OW19732   2.124   3.203  13.325
 6399SOL    HW119733   2.031   3.200  13.302
 6399SOL    HW219734   2.125   3.244  13.412
 6400SOL     OW19735   3.039   3.197  13.149
 6400SOL    HW119736   2.947   3.169  13.150
 6400SOL    HW219737   3.065   3.198  13.241
 6401SOL     OW19738   3.078   2.181  13.490
 6401SOL    HW119739   3.140   2.109  13.481
 6401SOL    HW219740   3.109   2.231  13.566
 6402SOL     OW19741   2.450   2.610  13.690
 6402SOL    HW119742   2.487   2.697  13.673
 6402SOL    HW219743   2.380   2.601  13.626
 6403SOL     OW19744   2.727   3.228  13.076
 6403SOL    HW119745   2.686   3.255  13.158
 6403SOL    HW219746   2.740   3.310  13.028
 6404SOL     OW19747   2.512   3.718   0.063
 6404SOL    HW119748   2.506   3.811   0.086
 6404SOL    HW219749   2.605   3.697   0.076
 6405SOL     OW19750   2.684   2.829  13.899
 6405SOL    HW119751   2.706   2.743   0.034
 6405SOL    HW219752   2.729   2.891   0.057
 6406SOL     OW19753   2.938   2.848  13.123
 6406SOL    HW119754   2.917   2.901  13.046
 6406SOL    HW219755   3.012   2.795  13.096
 6407SOL     OW19756   1.955   3.090  13.699
 6407SOL    HW119757   1.951   3.034  13.776
 6407SOL    HW219758   2.022   3.051  13.643
 6408SOL     OW19759   2.276   2.298  13.555
 6408SOL    HW119760   2.322   2.233  13.501
 6408SOL    HW219761   2.317   2.290  13.641
 6409SOL     OW19762   3.543   3.319   0.352
 6409SOL    HW119763   3.511   3.292   0.266
 6409SOL    HW219764   3.632   3.286   0.357
 6410SOL     OW19765   2.678   3.409  13.705
 6410SOL    HW119766   2.648   3.460  13.630
 6410SOL    HW219767   2.605   3.352  13.726
 6411SOL     OW19768   2.635   3.196  13.350
 6411SOL    HW119769   2.607   3.105  13.358
 6411SOL    HW219770   2.716   3.201  13.400
 6412SOL     OW19771   3.218   1.914  13.202
 6412SOL    HW119772   3.250   1.844  13.146
 6412SOL    HW219773   3.129   1.887  13.225
 6413SOL     OW19774   3.166   2.323  13.710
 6413SOL    HW119775   3.113   2.402  13.715
 6413SOL    HW219776   3.150   2.277  13.792
 6414SOL     OW19777   1.906   2.929  13.340
 6414SOL    HW119778   2.000   2.920  13.322
 6414SOL    HW219779   1.877   2.840  13.361
 6415SOL     OW19780   2.750   3.523  13.376
 6415SOL    HW119781   2.678   3.506  13.316
 6415SOL    HW219782   2.720   3.596  13.430
 6416SOL     OW19783   2.094   3.981   0.982
 6416SOL    HW119784   2.117   3.961   1.072
 6416SOL    HW219785   2.003   3.953   0.974
 6417SOL     OW19786   1.876   0.064   0.714
 6417SOL    HW119787   1.797   0.100   0.673
 6417SOL    HW219788   1.920   0.016   0.644
 6418SOL     OW19789   3.659   0.360   0.257
 6418SOL    HW119790   3.638   0.302   0.184
 6418SOL    HW219791   3.578   0.365   0.308
 6419SOL     OW19792   2.303   0.094   1.505
 6419SOL    HW119793   2.373   0.048   1.458
 6419SOL    HW219794   2.225   0.042   1.486
 6420SOL     OW19795   3.456   3.851   1.458
 6420SOL    HW119796   3.462   3.938   1.418
 6420SOL    HW219797   3.441   3.868   1.551
 6421SOL     OW19798   2.670   3.728   0.509
 6421SOL    HW119799   2.697   3.819   0.499
 6421SOL    HW219800   2.575   3.732   0.518
 6422SOL     OW19801   3.130   0.062   0.933
 6422SOL    HW119802   3.054   0.009   0.905
 6422SOL    HW219803   3.183   0.001   0.984
 6423SOL     OW19804   2.416   3.903   0.893
 6423SOL    HW119805   2.411   3.923   0.986
 6423SOL    HW219806   2.412   3.988   0.850
 6424SOL     OW19807   2.054   3.981   1.488
 6424SOL    HW119808   2.000   0.058   1.504
 6424SOL    HW219809   2.014   3.912   1.541
 6425SOL     OW19810   3.270   3.836   0.433
 6425SOL    HW119811   3.264   3.797   0.346
 6425SOL    HW219812   3.360   3.820   0.461
 6426SOL     OW19813   3.398   3.937   1.723
 6426SOL    HW119814   3.423   3.939   1.815
 6426SOL    HW219815   3.327   3.873   1.719
 6427SOL     OW19816   2.634   3.955   1.742
 6427SOL    HW119817   2.685   3.926   1.817
 6427SOL    HW219818   2.547   3.974   1.777
 6428SOL     OW19819   2.399   3.781   0.518
 6428SOL    HW119820   2.350   3.779   0.600
 6428SOL    HW219821   2.406   3.874   0.497
 6429SOL     OW19822   2.133   3.746   0.209
 6429SOL    HW119823   2.166   3.833   0.189
 6429SOL    HW219824   2.210   3.696   0.235
 6430SOL     OW19825   2.419   3.944   1.170
 6430SOL    HW119826   2.462   3.875   1.221
 6430SOL    HW219827   2.327   3.938   1.196
 6431SOL     OW19828   2.883   3.766   0.729
 6431SOL    HW119829   2.817   3.754   0.661
 6431SOL    HW219830   2.860   3.702   0.796
 6432SOL     OW19831   2.786   3.802   1.396
 6432SOL    HW119832   2.815   3.780   1.307
 6432SOL    HW219833   2.859   3.848   1.434
 6433SOL     OW19834   3.129   0.073   1.266
 6433SOL    HW119835   3.136   0.142   1.331
 6433SOL    HW219836   3.060   0.102   1.207
 6434SOL     OW19837   2.372   3.750   1.758
 6434SOL    HW119838   2.314   3.705   1.696
 6434SOL    HW219839   2.345   3.841   1.754
 6435SOL     OW19840   2.156   3.919   1.249
 6435SOL    HW119841   2.112   3.938   1.332
 6435SOL    HW219842   2.144   3.825   1.237
 6436SOL     OW19843   3.462   3.932   0.159
 6436SOL    HW119844   3.381   3.881   0.155
 6436SOL    HW219845   3.436   0.017   0.195
 6437SOL     OW19846   3.025   3.919   1.473
 6437SOL    HW119847   3.026   3.994   1.533
 6437SOL    HW219848   3.069   3.951   1.394
 6438SOL     OW19849   2.784   3.824   0.148
 6438SOL    HW119850   2.814   3.817   0.057
 6438SOL    HW219851   2.845   3.770   0.198
 6439SOL     OW19852   3.590   3.863   0.536
 6439SOL    HW119853   3.657   3.849   0.469
 6439SOL    HW219854   3.568   3.775   0.567
 6440SOL     OW19855   3.698   3.895   0.962
 6440SOL    HW119856   3.731   3.808   0.939
 6440SOL    HW219857   3.612   3.900   0.921
 6441SOL     OW19858   2.540   3.908   1.487
 6441SOL    HW119859   2.624   3.897   1.441
 6441SOL    HW219860   2.565   3.931   1.577
 6442SOL     OW19861   1.923   3.855   0.342
 6442SOL    HW119862   1.910   3.940   0.301
 6442SOL    HW219863   2.002   3.820   0.301
 6443SOL     OW19864   3.053   0.009   0.466
 6443SOL    HW119865   3.114   3.936   0.470
 6443SOL    HW219866   3.074   0.062   0.543
 6444SOL     OW19867   3.646   0.047   1.626
 6444SOL    HW119868   3.601   0.082   1.550
 6444SOL    HW219869   3.579   3.999   1.674
 6445SOL     OW19870   3.676   3.909   1.234
 6445SOL    HW119871   3.663   3.817   1.257
 6445SOL    HW219872   3.687   3.909   1.139
 6446SOL     OW19873   3.300   3.931   1.116
 6446SOL    HW119874   3.326   3.848   1.156
 6446SOL    HW219875   3.243   3.972   1.181
 6447SOL     OW19876   2.880   3.737   1.146
 6447SOL    HW119877   2.821   3.683   1.093
 6447SOL    HW219878   2.964   3.693   1.141
 6448SOL     OW19879   3.217   3.783   0.151
 6448SOL    HW119880   3.258   3.711   0.104
 6448SOL    HW219881   3.133   3.748   0.181
 6449SOL     OW19882   3.147   0.163   0.677
 6449SOL    HW119883   3.145   0.258   0.685
 6449SOL    HW219884   3.149   0.131   0.768
 6450SOL     OW19885   3.441   3.929   0.881
 6450SOL    HW119886   3.390   3.931   0.962
 6450SOL    HW219887   3.437   0.019   0.849
 6451SOL     OW19888   2.095   3.979   2.842
 6451SOL    HW119889   2.118   3.961   2.933
 6451SOL    HW219890   2.003   3.953   2.835
 6452SOL     OW19891   1.873   0.061   2.579
 6452SOL    HW119892   1.801   0.105   2.535
 6452SOL    HW219893   1.919   0.013   2.509
 6453SOL     OW19894   3.631   0.317   2.042
 6453SOL    HW119895   3.555   0.300   1.987
 6453SOL    HW219896   3.595   0.343   2.127
 6454SOL     OW19897   2.303   0.094   3.366
 6454SOL    HW119898   2.374   0.048   3.321
 6454SOL    HW219899   2.225   0.042   3.348
 6455SOL     OW19900   3.456   3.852   3.320
 6455SOL    HW119901   3.462   3.939   3.280
 6455SOL    HW219902   3.441   3.868   3.413
 6456SOL     OW19903   2.669   3.731   2.370
 6456SOL    HW119904   2.695   3.823   2.363
 6456SOL    HW219905   2.574   3.732   2.378
 6457SOL     OW19906   3.128   0.062   2.799
 6457SOL    HW119907   3.055   0.009   2.768
 6457SOL    HW219908   3.183   0.001   2.848
 6458SOL     OW19909   2.416   3.904   2.755
 6458SOL    HW119910   2.411   3.922   2.848
 6458SOL    HW219911   2.412   3.990   2.713
 6459SOL     OW19912   2.054   3.981   3.350
 6459SOL    HW119913   2.000   0.059   3.366
 6459SOL    HW219914   2.014   3.913   3.403
 6460SOL     OW19915   3.268   3.830   2.295
 6460SOL    HW119916   3.260   3.798   2.206
 6460SOL    HW219917   3.360   3.816   2.318
 6461SOL     OW19918   3.398   3.937   3.585
 6461SOL    HW119919   3.423   3.939   3.677
 6461SOL    HW219920   3.327   3.873   3.581
 6462SOL     OW19921   2.491   3.847   1.992
 6462SOL    HW119922   2.583   3.819   1.989
 6462SOL    HW219923   2.449   3.800   1.921
 6463SOL     OW19924   2.634   3.955   3.604
 6463SOL    HW119925   2.685   3.926   3.679
 6463SOL    HW219926   2.547   3.974   3.639
 6464SOL     OW19927   2.398   3.784   2.379
 6464SOL    HW119928   2.352   3.785   2.463
 6464SOL    HW219929   2.405   3.876   2.353
 6465SOL     OW19930   2.146   3.762   2.042
 6465SOL    HW119931   2.186   3.849   2.038
 6465SOL    HW219932   2.214   3.707   2.081
 6466SOL     OW19933   2.419   3.943   3.032
 6466SOL    HW119934   2.462   3.875   3.083
 6466SOL    HW219935   2.327   3.938   3.058
 6467SOL     OW19936   2.883   3.765   2.591
 6467SOL    HW119937   2.817   3.752   2.522
 6467SOL    HW219938   2.860   3.702   2.659
 6468SOL     OW19939   2.786   3.802   3.258
 6468SOL    HW119940   2.815   3.780   3.169
 6468SOL    HW219941   2.859   3.848   3.296
 6469SOL     OW19942   3.129   0.073   3.128
 6469SOL    HW119943   3.136   0.142   3.193
 6469SOL    HW219944   3.061   0.102   3.068
 6470SOL     OW19945   2.372   3.750   3.620
 6470SOL    HW119946   2.314   3.705   3.558
 6470SOL    HW219947   2.345   3.841   3.616
 6471SOL     OW19948   2.156   3.919   3.111
 6471SOL    HW119949   2.112   3.938   3.194
 6471SOL    HW219950   2.144   3.825   3.099
 6472SOL     OW19951   3.444   3.952   1.984
 6472SOL    HW119952   3.379   3.896   2.025
 6472SOL    HW219953   3.459   0.023   2.048
 6473SOL     OW19954   3.025   3.919   3.335
 6473SOL    HW119955   3.027   3.994   3.395
 6473SOL    HW219956   3.069   3.951   3.256
 6474SOL     OW19957   2.763   3.810   1.961
 6474SOL    HW119958   2.821   3.766   1.899
 6474SOL    HW219959   2.806   3.798   2.046
 6475SOL     OW19960   3.593   3.859   2.390
 6475SOL    HW119961   3.661   3.845   2.324
 6475SOL    HW219962   3.571   3.771   2.420
 6476SOL     OW19963   3.698   3.895   2.825
 6476SOL    HW119964   3.731   3.808   2.802
 6476SOL    HW219965   3.612   3.900   2.783
 6477SOL     OW19966   2.540   3.908   3.349
 6477SOL    HW119967   2.623   3.897   3.303
 6477SOL    HW219968   2.565   3.931   3.439
 6478SOL     OW19969   1.905   0.053   1.896
 6478SOL    HW119970   1.870   0.027   1.811
 6478SOL    HW219971   1.934   0.143   1.884
 6479SOL     OW19972   1.921   3.863   2.169
 6479SOL    HW119973   1.911   3.953   2.137
 6479SOL    HW219974   2.002   3.832   2.128
 6480SOL     OW19975   3.060   0.013   2.323
 6480SOL    HW119976   3.124   3.942   2.327
 6480SOL    HW219977   3.078   0.065   2.402
 6481SOL     OW19978   3.647   0.047   3.488
 6481SOL    HW119979   3.601   0.082   3.412
 6481SOL    HW219980   3.579   3.999   3.536
 6482SOL     OW19981   3.676   3.909   3.097
 6482SOL    HW119982   3.663   3.817   3.120
 6482SOL    HW219983   3.687   3.909   3.002
 6483SOL     OW19984   3.301   3.930   2.979
 6483SOL    HW119985   3.327   3.848   3.020
 6483SOL    HW219986   3.244   3.972   3.043
 6484SOL     OW19987   2.880   3.737   3.008
 6484SOL    HW119988   2.821   3.682   2.955
 6484SOL    HW219989   2.964   3.693   3.003
 6485SOL     OW19990   3.218   3.770   2.023
 6485SOL    HW119991   3.254   3.699   1.970
 6485SOL    HW219992   3.130   3.741   2.047
 6486SOL     OW19993   3.143   0.162   2.543
 6486SOL    HW119994   3.147   0.257   2.548
 6486SOL    HW219995   3.147   0.133   2.634
 6487SOL     OW19996   3.440   3.929   2.743
 6487SOL    HW119997   3.390   3.931   2.825
 6487SOL    HW219998   3.437   0.019   2.710
 6488SOL     OW19999   2.095   3.979   4.704
 6488SOL    HW120000   2.118   3.961   4.795
 6488SOL    HW220001   2.003   3.953   4.697
 6489SOL     OW20002   1.873   0.061   4.441
 6489SOL    HW120003   1.801   0.104   4.397
 6489SOL    HW220004   1.919   0.013   4.371
 6490SOL     OW20005   3.631   0.317   3.904
 6490SOL    HW120006   3.555   0.300   3.849
 6490SOL    HW220007   3.595   0.343   3.989
 6491SOL     OW20008   2.303   0.094   5.228
 6491SOL    HW120009   2.374   0.048   5.182
 6491SOL    HW220010   2.225   0.042   5.210
 6492SOL     OW20011   3.456   3.852   5.182
 6492SOL    HW120012   3.462   3.939   5.142
 6492SOL    HW220013   3.441   3.868   5.275
 6493SOL     OW20014   2.669   3.731   4.232
 6493SOL    HW120015   2.695   3.823   4.225
 6493SOL    HW220016   2.574   3.732   4.240
 6494SOL     OW20017   3.128   0.062   4.661
 6494SOL    HW120018   3.055   0.009   4.630
 6494SOL    HW220019   3.183   0.000   4.710
 6495SOL     OW20020   2.416   3.904   4.617
 6495SOL    HW120021   2.411   3.922   4.710
 6495SOL    HW220022   2.412   3.990   4.575
 6496SOL     OW20023   2.054   3.982   5.212
 6496SOL    HW120024   2.001   0.060   5.228
 6496SOL    HW220025   2.013   3.914   5.266
 6497SOL     OW20026   3.268   3.830   4.158
 6497SOL    HW120027   3.260   3.798   4.068
 6497SOL    HW220028   3.360   3.816   4.180
 6498SOL     OW20029   3.398   3.937   5.447
 6498SOL    HW120030   3.423   3.939   5.539
 6498SOL    HW220031   3.327   3.873   5.443
 6499SOL     OW20032   2.491   3.847   3.854
 6499SOL    HW120033   2.583   3.819   3.851
 6499SOL    HW220034   2.449   3.800   3.783
 6500SOL     OW20035   2.634   3.955   5.466
 6500SOL    HW120036   2.685   3.926   5.541
 6500SOL    HW220037   2.548   3.975   5.501
 6501SOL     OW20038   2.398   3.784   4.241
 6501SOL    HW120039   2.352   3.785   4.325
 6501SOL    HW220040   2.405   3.875   4.215
 6502SOL     OW20041   2.146   3.762   3.904
 6502SOL    HW120042   2.186   3.849   3.900
 6502SOL    HW220043   2.214   3.707   3.943
 6503SOL     OW20044   2.419   3.943   4.894
 6503SOL    HW120045   2.462   3.875   4.945
 6503SOL    HW220046   2.327   3.938   4.920
 6504SOL     OW20047   2.883   3.765   4.453
 6504SOL    HW120048   2.817   3.752   4.384
 6504SOL    HW220049   2.860   3.702   4.521
 6505SOL     OW20050   2.786   3.801   5.120
 6505SOL    HW120051   2.815   3.780   5.031
 6505SOL    HW220052   2.859   3.849   5.158
 6506SOL     OW20053   3.129   0.073   4.990
 6506SOL    HW120054   3.136   0.142   5.055
 6506SOL    HW220055   3.061   0.102   4.930
 6507SOL     OW20056   2.372   3.750   5.482
 6507SOL    HW120057   2.314   3.705   5.420
 6507SOL    HW220058   2.345   3.841   5.478
 6508SOL     OW20059   2.156   3.919   4.973
 6508SOL    HW120060   2.111   3.938   5.056
 6508SOL    HW220061   2.144   3.825   4.961
 6509SOL     OW20062   3.445   3.952   3.846
 6509SOL    HW120063   3.379   3.896   3.887
 6509SOL    HW220064   3.458   0.023   3.910
 6510SOL     OW20065   3.025   3.919   5.197
 6510SOL    HW120066   3.026   3.994   5.257
 6510SOL    HW220067   3.069   3.951   5.118
 6511SOL     OW20068   2.763   3.810   3.823
 6511SOL    HW120069   2.821   3.766   3.761
 6511SOL    HW220070   2.806   3.798   3.908
 6512SOL     OW20071   3.594   3.859   4.252
 6512SOL    HW120072   3.661   3.845   4.186
 6512SOL    HW220073   3.571   3.771   4.282
 6513SOL     OW20074   3.698   3.895   4.687
 6513SOL    HW120075   3.731   3.808   4.664
 6513SOL    HW220076   3.612   3.900   4.645
 6514SOL     OW20077   2.540   3.908   5.211
 6514SOL    HW120078   2.623   3.897   5.165
 6514SOL    HW220079   2.565   3.931   5.301
 6515SOL     OW20080   1.905   0.053   3.758
 6515SOL    HW120081   1.870   0.027   3.673
 6515SOL    HW220082   1.934   0.143   3.745
 6516SOL     OW20083   1.921   3.863   4.031
 6516SOL    HW120084   1.911   3.953   4.000
 6516SOL    HW220085   2.002   3.832   3.990
 6517SOL     OW20086   3.061   0.013   4.185
 6517SOL    HW120087   3.124   3.942   4.189
 6517SOL    HW220088   3.078   0.065   4.264
 6518SOL     OW20089   3.647   0.046   5.350
 6518SOL    HW120090   3.601   0.082   5.274
 6518SOL    HW220091   3.579   3.999   5.398
 6519SOL     OW20092   3.676   3.909   4.959
 6519SOL    HW120093   3.663   3.817   4.982
 6519SOL    HW220094   3.687   3.909   4.864
 6520SOL     OW20095   3.301   3.930   4.841
 6520SOL    HW120096   3.327   3.848   4.882
 6520SOL    HW220097   3.244   3.972   4.905
 6521SOL     OW20098   2.880   3.737   4.870
 6521SOL    HW120099   2.821   3.682   4.817
 6521SOL    HW220100   2.964   3.693   4.865
 6522SOL     OW20101   3.218   3.770   3.885
 6522SOL    HW120102   3.254   3.699   3.832
 6522SOL    HW220103   3.130   3.741   3.909
 6523SOL     OW20104   3.143   0.162   4.405
 6523SOL    HW120105   3.147   0.257   4.410
 6523SOL    HW220106   3.147   0.133   4.496
 6524SOL     OW20107   3.440   3.929   4.605
 6524SOL    HW120108   3.390   3.931   4.687
 6524SOL    HW220109   3.437   0.019   4.572
 6525SOL     OW20110   2.095   3.979   6.566
 6525SOL    HW120111   2.118   3.960   6.658
 6525SOL    HW220112   2.003   3.952   6.559
 6526SOL     OW20113   1.873   0.060   6.303
 6526SOL    HW120114   1.801   0.105   6.259
 6526SOL    HW220115   1.918   0.012   6.233
 6527SOL     OW20116   3.632   0.317   5.766
 6527SOL    HW120117   3.555   0.300   5.711
 6527SOL    HW220118   3.595   0.343   5.851
 6528SOL     OW20119   2.303   0.093   7.092
 6528SOL    HW120120   2.373   0.048   7.044
 6528SOL    HW220121   2.225   0.042   7.072
 6529SOL     OW20122   3.456   3.851   7.044
 6529SOL    HW120123   3.462   3.938   7.004
 6529SOL    HW220124   3.441   3.869   7.137
 6530SOL     OW20125   2.670   3.731   6.093
 6530SOL    HW120126   2.695   3.823   6.087
 6530SOL    HW220127   2.574   3.733   6.101
 6531SOL     OW20128   3.128   0.063   6.524
 6531SOL    HW120129   3.055   0.010   6.491
 6531SOL    HW220130   3.183   0.000   6.571
 6532SOL     OW20131   2.416   3.904   6.478
 6532SOL    HW120132   2.410   3.923   6.572
 6532SOL    HW220133   2.412   3.990   6.436
 6533SOL     OW20134   2.054   3.982   7.074
 6533SOL    HW120135   2.001   0.061   7.088
 6533SOL    HW220136   2.012   3.915   7.128
 6534SOL     OW20137   3.268   3.829   6.020
 6534SOL    HW120138   3.260   3.798   5.929
 6534SOL    HW220139   3.360   3.816   6.042
 6535SOL     OW20140   3.398   3.937   7.309
 6535SOL    HW120141   3.423   3.939   7.401
 6535SOL    HW220142   3.327   3.873   7.304
 6536SOL     OW20143   2.491   3.847   5.716
 6536SOL    HW120144   2.583   3.819   5.713
 6536SOL    HW220145   2.449   3.800   5.645
 6537SOL     OW20146   2.634   3.956   7.328
 6537SOL    HW120147   2.685   3.926   7.404
 6537SOL    HW220148   2.547   3.975   7.363
 6538SOL     OW20149   2.398   3.784   6.103
 6538SOL    HW120150   2.351   3.785   6.187
 6538SOL    HW220151   2.405   3.876   6.077
 6539SOL     OW20152   2.146   3.762   5.766
 6539SOL    HW120153   2.185   3.850   5.762
 6539SOL    HW220154   2.214   3.707   5.805
 6540SOL     OW20155   2.419   3.944   6.756
 6540SOL    HW120156   2.462   3.874   6.806
 6540SOL    HW220157   2.327   3.938   6.782
 6541SOL     OW20158   2.883   3.765   6.315
 6541SOL    HW120159   2.818   3.752   6.246
 6541SOL    HW220160   2.860   3.702   6.382
 6542SOL     OW20161   2.786   3.802   6.982
 6542SOL    HW120162   2.815   3.780   6.893
 6542SOL    HW220163   2.860   3.849   7.020
 6543SOL     OW20164   3.129   0.072   6.852
 6543SOL    HW120165   3.136   0.143   6.916
 6543SOL    HW220166   3.061   0.101   6.791
 6544SOL     OW20167   2.371   3.750   7.344
 6544SOL    HW120168   2.314   3.706   7.282
 6544SOL    HW220169   2.345   3.842   7.340
 6545SOL     OW20170   2.156   3.918   6.835
 6545SOL    HW120171   2.111   3.937   6.918
 6545SOL    HW220172   2.144   3.824   6.823
 6546SOL     OW20173   3.445   3.952   5.708
 6546SOL    HW120174   3.379   3.896   5.749
 6546SOL    HW220175   3.458   0.023   5.771
 6547SOL     OW20176   3.025   3.920   7.059
 6547SOL    HW120177   3.026   3.995   7.118
 6547SOL    HW220178   3.069   3.950   6.980
 6548SOL     OW20179   2.763   3.810   5.685
 6548SOL    HW120180   2.821   3.766   5.623
 6548SOL    HW220181   2.805   3.798   5.770
 6549SOL     OW20182   3.594   3.859   6.114
 6549SOL    HW120183   3.661   3.845   6.047
 6549SOL    HW220184   3.571   3.771   6.144
 6550SOL     OW20185   3.698   3.895   6.549
 6550SOL    HW120186   3.731   3.808   6.526
 6550SOL    HW220187   3.612   3.900   6.507
 6551SOL     OW20188   2.541   3.908   7.073
 6551SOL    HW120189   2.624   3.896   7.028
 6551SOL    HW220190   2.566   3.931   7.163
 6552SOL     OW20191   1.905   0.053   5.620
 6552SOL    HW120192   1.870   0.027   5.535
 6552SOL    HW220193   1.934   0.143   5.607
 6553SOL     OW20194   1.920   3.863   5.892
 6553SOL    HW120195   1.911   3.953   5.862
 6553SOL    HW220196   2.001   3.832   5.852
 6554SOL     OW20197   3.060   0.013   6.048
 6554SOL    HW120198   3.124   3.942   6.051
 6554SOL    HW220199   3.078   0.065   6.126
 6555SOL     OW20200   3.646   0.047   7.213
 6555SOL    HW120201   3.601   0.082   7.136
 6555SOL    HW220202   3.579   3.999   7.261
 6556SOL     OW20203   3.676   3.909   6.821
 6556SOL    HW120204   3.663   3.817   6.844
 6556SOL    HW220205   3.687   3.909   6.726
 6557SOL     OW20206   3.301   3.930   6.703
 6557SOL    HW120207   3.327   3.847   6.743
 6557SOL    HW220208   3.244   3.972   6.767
 6558SOL     OW20209   2.880   3.737   6.732
 6558SOL    HW120210   2.821   3.683   6.679
 6558SOL    HW220211   2.964   3.692   6.727
 6559SOL     OW20212   3.218   3.770   5.747
 6559SOL    HW120213   3.254   3.699   5.694
 6559SOL    HW220214   3.130   3.741   5.771
 6560SOL     OW20215   3.144   0.162   6.267
 6560SOL    HW120216   3.147   0.257   6.271
 6560SOL    HW220217   3.147   0.134   6.359
 6561SOL     OW20218   3.440   3.929   6.467
 6561SOL    HW120219   3.391   3.931   6.549
 6561SOL    HW220220   3.437   0.019   6.434
 6562SOL     OW20221   2.095   3.979   8.428
 6562SOL    HW120222   2.118   3.961   8.519
 6562SOL    HW220223   2.003   3.953   8.421
 6563SOL     OW20224   1.874   0.060   8.165
 6563SOL    HW120225   1.802   0.106   8.121
 6563SOL    HW220226   1.918   0.013   8.095
 6564SOL     OW20227   3.631   0.318   7.628
 6564SOL    HW120228   3.556   0.301   7.572
 6564SOL    HW220229   3.594   0.343   7.713
 6565SOL     OW20230   2.303   0.094   8.953
 6565SOL    HW120231   2.373   0.048   8.906
 6565SOL    HW220232   2.225   0.042   8.934
 6566SOL     OW20233   3.456   3.851   8.906
 6566SOL    HW120234   3.462   3.938   8.866
 6566SOL    HW220235   3.441   3.869   8.999
 6567SOL     OW20236   2.669   3.731   7.956
 6567SOL    HW120237   2.695   3.822   7.949
 6567SOL    HW220238   2.574   3.733   7.964
 6568SOL     OW20239   3.128   0.062   8.386
 6568SOL    HW120240   3.055   0.009   8.353
 6568SOL    HW220241   3.183   0.001   8.433
 6569SOL     OW20242   2.416   3.904   8.341
 6569SOL    HW120243   2.411   3.923   8.434
 6569SOL    HW220244   2.412   3.989   8.298
 6570SOL     OW20245   2.054   3.981   8.936
 6570SOL    HW120246   2.000   0.059   8.952
 6570SOL    HW220247   2.014   3.913   8.989
 6571SOL     OW20248   3.268   3.830   7.881
 6571SOL    HW120249   3.260   3.798   7.791
 6571SOL    HW220250   3.360   3.816   7.904
 6572SOL     OW20251   3.398   3.937   9.171
 6572SOL    HW120252   3.423   3.939   9.263
 6572SOL    HW220253   3.327   3.873   9.167
 6573SOL     OW20254   2.491   3.847   7.579
 6573SOL    HW120255   2.583   3.818   7.575
 6573SOL    HW220256   2.449   3.800   7.507
 6574SOL     OW20257   2.634   3.955   9.190
 6574SOL    HW120258   2.685   3.926   9.265
 6574SOL    HW220259   2.547   3.975   9.225
 6575SOL     OW20260   2.398   3.784   7.965
 6575SOL    HW120261   2.351   3.786   8.049
 6575SOL    HW220262   2.405   3.876   7.939
 6576SOL     OW20263   2.146   3.762   7.629
 6576SOL    HW120264   2.185   3.850   7.624
 6576SOL    HW220265   2.215   3.708   7.666
 6577SOL     OW20266   2.419   3.943   8.618
 6577SOL    HW120267   2.462   3.875   8.669
 6577SOL    HW220268   2.327   3.938   8.644
 6578SOL     OW20269   2.883   3.766   8.177
 6578SOL    HW120270   2.817   3.753   8.109
 6578SOL    HW220271   2.859   3.702   8.245
 6579SOL     OW20272   2.786   3.801   8.844
 6579SOL    HW120273   2.815   3.780   8.755
 6579SOL    HW220274   2.860   3.848   8.882
 6580SOL     OW20275   3.129   0.072   8.714
 6580SOL    HW120276   3.136   0.142   8.779
 6580SOL    HW220277   3.061   0.102   8.654
 6581SOL     OW20278   2.372   3.750   9.206
 6581SOL    HW120279   2.314   3.705   9.144
 6581SOL    HW220280   2.345   3.841   9.202
 6582SOL     OW20281   2.156   3.919   8.697
 6582SOL    HW120282   2.111   3.938   8.780
 6582SOL    HW220283   2.144   3.825   8.685
 6583SOL     OW20284   3.444   3.952   7.570
 6583SOL    HW120285   3.379   3.895   7.612
 6583SOL    HW220286   3.459   0.021   7.634
 6584SOL     OW20287   3.025   3.919   8.921
 6584SOL    HW120288   3.026   3.994   8.981
 6584SOL    HW220289   3.069   3.951   8.842
 6585SOL     OW20290   2.763   3.810   7.547
 6585SOL    HW120291   2.820   3.766   7.483
 6585SOL    HW220292   2.807   3.797   7.631
 6586SOL     OW20293   3.594   3.859   7.976
 6586SOL    HW120294   3.661   3.845   7.909
 6586SOL    HW220295   3.571   3.771   8.006
 6587SOL     OW20296   3.698   3.895   8.411
 6587SOL    HW120297   3.731   3.808   8.388
 6587SOL    HW220298   3.612   3.900   8.369
 6588SOL     OW20299   2.540   3.908   8.935
 6588SOL    HW120300   2.624   3.897   8.890
 6588SOL    HW220301   2.565   3.931   9.025
 6589SOL     OW20302   1.906   0.052   7.482
 6589SOL    HW120303   1.870   0.027   7.397
 6589SOL    HW220304   1.934   0.143   7.469
 6590SOL     OW20305   1.921   3.863   7.755
 6590SOL    HW120306   1.910   3.953   7.724
 6590SOL    HW220307   2.002   3.832   7.714
 6591SOL     OW20308   3.059   0.013   7.911
 6591SOL    HW120309   3.124   3.942   7.913
 6591SOL    HW220310   3.078   0.065   7.989
 6592SOL     OW20311   3.647   0.047   9.074
 6592SOL    HW120312   3.601   0.082   8.998
 6592SOL    HW220313   3.579   3.999   9.122
 6593SOL     OW20314   3.676   3.909   8.683
 6593SOL    HW120315   3.663   3.817   8.706
 6593SOL    HW220316   3.686   3.909   8.588
 6594SOL     OW20317   3.301   3.930   8.565
 6594SOL    HW120318   3.327   3.848   8.605
 6594SOL    HW220319   3.244   3.972   8.629
 6595SOL     OW20320   2.879   3.737   8.594
 6595SOL    HW120321   2.821   3.682   8.540
 6595SOL    HW220322   2.964   3.693   8.589
 6596SOL     OW20323   3.218   3.770   7.609
 6596SOL    HW120324   3.254   3.699   7.556
 6596SOL    HW220325   3.130   3.741   7.633
 6597SOL     OW20326   3.143   0.162   8.129
 6597SOL    HW120327   3.148   0.257   8.134
 6597SOL    HW220328   3.147   0.133   8.221
 6598SOL     OW20329   3.440   3.929   8.329
 6598SOL    HW120330   3.391   3.931   8.410
 6598SOL    HW220331   3.437   0.019   8.296
 6599SOL     OW20332   2.095   3.979  10.290
 6599SOL    HW120333   2.118   3.961  10.381
 6599SOL    HW220334   2.003   3.953  10.283
 6600SOL     OW20335   1.873   0.060  10.027
 6600SOL    HW120336   1.801   0.105   9.983
 6600SOL    HW220337   1.919   0.013   9.957
 6601SOL     OW20338   3.631   0.317   9.490
 6601SOL    HW120339   3.555   0.300   9.435
 6601SOL    HW220340   3.594   0.343   9.575
 6602SOL     OW20341   2.303   0.094  10.815
 6602SOL    HW120342   2.374   0.048  10.768
 6602SOL    HW220343   2.225   0.042  10.796
 6603SOL     OW20344   3.456   3.852  10.768
 6603SOL    HW120345   3.462   3.939  10.728
 6603SOL    HW220346   3.441   3.868  10.861
 6604SOL     OW20347   2.669   3.730   9.818
 6604SOL    HW120348   2.695   3.823   9.811
 6604SOL    HW220349   2.574   3.733   9.826
 6605SOL     OW20350   3.128   0.062  10.247
 6605SOL    HW120351   3.055   0.009  10.216
 6605SOL    HW220352   3.183   0.001  10.295
 6606SOL     OW20353   2.416   3.904  10.203
 6606SOL    HW120354   2.411   3.923  10.296
 6606SOL    HW220355   2.412   3.990  10.161
 6607SOL     OW20356   2.054   3.982  10.798
 6607SOL    HW120357   2.001   0.060  10.814
 6607SOL    HW220358   2.013   3.914  10.852
 6608SOL     OW20359   3.268   3.830   9.744
 6608SOL    HW120360   3.260   3.798   9.654
 6608SOL    HW220361   3.360   3.816   9.766
 6609SOL     OW20362   3.398   3.937  11.033
 6609SOL    HW120363   3.423   3.939  11.125
 6609SOL    HW220364   3.327   3.873  11.029
 6610SOL     OW20365   2.491   3.847   9.440
 6610SOL    HW120366   2.583   3.819   9.437
 6610SOL    HW220367   2.449   3.800   9.369
 6611SOL     OW20368   2.634   3.955  11.052
 6611SOL    HW120369   2.685   3.926  11.127
 6611SOL    HW220370   2.547   3.975  11.087
 6612SOL     OW20371   2.398   3.784   9.827
 6612SOL    HW120372   2.352   3.785   9.911
 6612SOL    HW220373   2.405   3.876   9.801
 6613SOL     OW20374   2.146   3.762   9.490
 6613SOL    HW120375   2.185   3.849   9.486
 6613SOL    HW220376   2.214   3.707   9.529
 6614SOL     OW20377   2.419   3.943  10.480
 6614SOL    HW120378   2.462   3.875  10.531
 6614SOL    HW220379   2.327   3.938  10.506
 6615SOL     OW20380   2.883   3.765  10.039
 6615SOL    HW120381   2.817   3.752   9.970
 6615SOL    HW220382   2.860   3.702  10.107
 6616SOL     OW20383   2.786   3.802  10.706
 6616SOL    HW120384   2.815   3.780  10.617
 6616SOL    HW220385   2.859   3.849  10.744
 6617SOL     OW20386   3.129   0.072  10.576
 6617SOL    HW120387   3.136   0.142  10.641
 6617SOL    HW220388   3.061   0.102  10.516
 6618SOL     OW20389   2.372   3.750  11.068
 6618SOL    HW120390   2.314   3.705  11.006
 6618SOL    HW220391   2.345   3.841  11.064
 6619SOL     OW20392   2.156   3.919  10.559
 6619SOL    HW120393   2.111   3.938  10.642
 6619SOL    HW220394   2.144   3.825  10.547
 6620SOL     OW20395   3.444   3.952   9.432
 6620SOL    HW120396   3.379   3.896   9.473
 6620SOL    HW220397   3.459   0.023   9.496
 6621SOL     OW20398   3.025   3.919  10.783
 6621SOL    HW120399   3.026   3.994  10.843
 6621SOL    HW220400   3.069   3.951  10.704
 6622SOL     OW20401   2.763   3.810   9.409
 6622SOL    HW120402   2.821   3.766   9.346
 6622SOL    HW220403   2.806   3.798   9.494
 6623SOL     OW20404   3.594   3.859   9.838
 6623SOL    HW120405   3.661   3.845   9.771
 6623SOL    HW220406   3.571   3.771   9.868
 6624SOL     OW20407   3.698   3.895  10.273
 6624SOL    HW120408   3.731   3.808  10.250
 6624SOL    HW220409   3.612   3.900  10.231
 6625SOL     OW20410   2.540   3.908  10.797
 6625SOL    HW120411   2.624   3.897  10.751
 6625SOL    HW220412   2.565   3.931  10.887
 6626SOL     OW20413   1.905   0.053   9.344
 6626SOL    HW120414   1.870   0.027   9.259
 6626SOL    HW220415   1.934   0.143   9.331
 6627SOL     OW20416   1.921   3.863   9.617
 6627SOL    HW120417   1.911   3.953   9.585
 6627SOL    HW220418   2.002   3.832   9.576
 6628SOL     OW20419   3.060   0.013   9.772
 6628SOL    HW120420   3.124   3.942   9.775
 6628SOL    HW220421   3.078   0.065   9.850
 6629SOL     OW20422   3.647   0.047  10.936
 6629SOL    HW120423   3.601   0.082  10.860
 6629SOL    HW220424   3.579   3.999  10.984
 6630SOL     OW20425   3.676   3.909  10.545
 6630SOL    HW120426   3.663   3.817  10.568
 6630SOL    HW220427   3.687   3.909  10.450
 6631SOL     OW20428   3.301   3.930  10.427
 6631SOL    HW120429   3.327   3.848  10.468
 6631SOL    HW220430   3.244   3.972  10.491
 6632SOL     OW20431   2.879   3.737  10.456
 6632SOL    HW120432   2.821   3.682  10.403
 6632SOL    HW220433   2.964   3.693  10.451
 6633SOL     OW20434   3.218   3.770   9.471
 6633SOL    HW120435   3.254   3.699   9.418
 6633SOL    HW220436   3.130   3.741   9.495
 6634SOL     OW20437   3.143   0.162   9.991
 6634SOL    HW120438   3.147   0.257   9.996
 6634SOL    HW220439   3.147   0.133  10.082
 6635SOL     OW20440   3.440   3.929  10.191
 6635SOL    HW120441   3.390   3.931  10.273
 6635SOL    HW220442   3.437   0.019  10.158
 6636SOL     OW20443   2.095   3.979  12.152
 6636SOL    HW120444   2.118   3.961  12.243
 6636SOL    HW220445   2.003   3.953  12.145
 6637SOL     OW20446   1.873   0.060  11.889
 6637SOL    HW120447   1.801   0.105  11.845
 6637SOL    HW220448   1.919   0.013  11.819
 6638SOL     OW20449   3.631   0.317  11.352
 6638SOL    HW120450   3.555   0.300  11.297
 6638SOL    HW220451   3.594   0.343  11.437
 6639SOL     OW20452   2.303   0.094  12.676
 6639SOL    HW120453   2.373   0.048  12.630
 6639SOL    HW220454   2.225   0.042  12.658
 6640SOL     OW20455   3.456   3.852  12.630
 6640SOL    HW120456   3.462   3.939  12.591
 6640SOL    HW220457   3.441   3.868  12.723
 6641SOL     OW20458   2.669   3.731  11.680
 6641SOL    HW120459   2.695   3.823  11.673
 6641SOL    HW220460   2.574   3.733  11.688
 6642SOL     OW20461   3.128   0.062  12.109
 6642SOL    HW120462   3.055   0.009  12.078
 6642SOL    HW220463   3.183   0.001  12.157
 6643SOL     OW20464   2.416   3.904  12.065
 6643SOL    HW120465   2.411   3.923  12.158
 6643SOL    HW220466   2.412   3.990  12.023
 6644SOL     OW20467   2.054   3.981  12.660
 6644SOL    HW120468   2.000   0.058  12.676
 6644SOL    HW220469   2.014   3.912  12.713
 6645SOL     OW20470   3.268   3.830  11.606
 6645SOL    HW120471   3.260   3.798  11.516
 6645SOL    HW220472   3.360   3.816  11.628
 6646SOL     OW20473   3.398   3.938  12.896
 6646SOL    HW120474   3.422   3.942  12.989
 6646SOL    HW220475   3.328   3.873  12.892
 6647SOL     OW20476   2.491   3.847  11.302
 6647SOL    HW120477   2.583   3.819  11.299
 6647SOL    HW220478   2.449   3.800  11.231
 6648SOL     OW20479   2.634   3.955  12.914
 6648SOL    HW120480   2.685   3.925  12.989
 6648SOL    HW220481   2.547   3.973  12.949
 6649SOL     OW20482   2.398   3.784  11.689
 6649SOL    HW120483   2.352   3.785  11.773
 6649SOL    HW220484   2.405   3.876  11.663
 6650SOL     OW20485   2.146   3.762  11.352
 6650SOL    HW120486   2.185   3.849  11.348
 6650SOL    HW220487   2.214   3.707  11.391
 6651SOL     OW20488   2.419   3.943  12.342
 6651SOL    HW120489   2.462   3.875  12.393
 6651SOL    HW220490   2.327   3.938  12.368
 6652SOL     OW20491   2.883   3.765  11.901
 6652SOL    HW120492   2.817   3.752  11.832
 6652SOL    HW220493   2.860   3.702  11.969
 6653SOL     OW20494   2.786   3.802  12.568
 6653SOL    HW120495   2.815   3.780  12.479
 6653SOL    HW220496   2.859   3.848  12.606
 6654SOL     OW20497   3.129   0.072  12.438
 6654SOL    HW120498   3.136   0.142  12.503
 6654SOL    HW220499   3.061   0.102  12.378
 6655SOL     OW20500   2.372   3.750  12.929
 6655SOL    HW120501   2.314   3.705  12.868
 6655SOL    HW220502   2.344   3.841  12.926
 6656SOL     OW20503   2.156   3.919  12.421
 6656SOL    HW120504   2.112   3.938  12.504
 6656SOL    HW220505   2.144   3.825  12.409
 6657SOL     OW20506   3.444   3.952  11.294
 6657SOL    HW120507   3.379   3.896  11.335
 6657SOL    HW220508   3.458   0.023  11.358
 6658SOL     OW20509   3.025   3.919  12.645
 6658SOL    HW120510   3.027   3.994  12.705
 6658SOL    HW220511   3.068   3.951  12.566
 6659SOL     OW20512   2.763   3.810  11.271
 6659SOL    HW120513   2.821   3.766  11.208
 6659SOL    HW220514   2.806   3.798  11.356
 6660SOL     OW20515   3.594   3.859  11.700
 6660SOL    HW120516   3.661   3.845  11.634
 6660SOL    HW220517   3.571   3.771  11.730
 6661SOL     OW20518   3.698   3.895  12.135
 6661SOL    HW120519   3.731   3.808  12.112
 6661SOL    HW220520   3.612   3.900  12.093
 6662SOL     OW20521   2.540   3.908  12.659
 6662SOL    HW120522   2.624   3.897  12.614
 6662SOL    HW220523   2.565   3.931  12.749
 6663SOL     OW20524   1.905   0.053  11.206
 6663SOL    HW120525   1.870   0.027  11.121
 6663SOL    HW220526   1.934   0.143  11.193
 6664SOL     OW20527   1.921   3.863  11.479
 6664SOL    HW120528   1.911   3.953  11.448
 6664SOL    HW220529   2.002   3.832  11.438
 6665SOL     OW20530   3.060   0.013  11.633
 6665SOL    HW120531   3.124   3.942  11.637
 6665SOL    HW220532   3.078   0.065  11.712
 6666SOL     OW20533   3.646   0.047  12.798
 6666SOL    HW120534   3.600   0.082  12.722
 6666SOL    HW220535   3.579   3.999  12.846
 6667SOL     OW20536   3.676   3.909  12.407
 6667SOL    HW120537   3.663   3.817  12.430
 6667SOL    HW220538   3.687   3.909  12.312
 6668SOL     OW20539   3.301   3.930  12.289
 6668SOL    HW120540   3.327   3.847  12.329
 6668SOL    HW220541   3.244   3.972  12.353
 6669SOL     OW20542   2.880   3.737  12.318
 6669SOL    HW120543   2.821   3.682  12.265
 6669SOL    HW220544   2.964   3.693  12.313
 6670SOL     OW20545   3.218   3.770  11.333
 6670SOL    HW120546   3.254   3.699  11.280
 6670SOL    HW220547   3.130   3.741  11.357
 6671SOL     OW20548   3.143   0.162  11.853
 6671SOL    HW120549   3.147   0.257  11.858
 6671SOL    HW220550   3.147   0.133  11.944
 6672SOL     OW20551   3.440   3.929  12.053
 6672SOL    HW120552   3.390   3.931  12.135
 6672SOL    HW220553   3.437   0.019  12.020
 6673SOL     OW20554   1.877   0.090  13.687
 6673SOL    HW120555   1.795   0.113  13.729
 6673SOL    HW220556   1.866   3.999  13.659
 6674SOL     OW20557   3.631   0.315  13.214
 6674SOL    HW120558   3.556   0.298  13.158
 6674SOL    HW220559   3.594   0.338  13.299
 6675SOL     OW20560   3.466   0.174  13.769
 6675SOL    HW120561   3.378   0.147  13.742
 6675SOL    HW220562   3.456   0.265  13.796
 6676SOL     OW20563   2.672   3.732  13.541
 6676SOL    HW120564   2.695   3.825  13.534
 6676SOL    HW220565   2.577   3.731  13.550
 6677SOL     OW20566   3.269   3.835  13.464
 6677SOL    HW120567   3.265   3.799  13.375
 6677SOL    HW220568   3.362   3.827  13.488
 6678SOL     OW20569   2.492   3.848  13.163
 6678SOL    HW120570   2.583   3.819  13.161
 6678SOL    HW220571   2.449   3.800  13.093
 6679SOL     OW20572   2.399   3.777  13.551
 6679SOL    HW120573   2.347   3.765  13.630
 6679SOL    HW220574   2.400   3.872  13.537
 6680SOL     OW20575   2.145   3.762  13.214
 6680SOL    HW120576   2.185   3.849  13.210
 6680SOL    HW220577   2.212   3.707  13.253
 6681SOL     OW20578   2.874   3.761  13.768
 6681SOL    HW120579   2.816   3.755  13.692
 6681SOL    HW220580   2.854   3.682  13.819
 6682SOL     OW20581   3.445   3.956  13.158
 6682SOL    HW120582   3.386   3.894  13.201
 6682SOL    HW220583   3.483   0.007  13.230
 6683SOL     OW20584   2.764   3.810  13.133
 6683SOL    HW120585   2.821   3.766  13.070
 6683SOL    HW220586   2.805   3.796  13.218
 6684SOL     OW20587   3.591   3.857  13.567
 6684SOL    HW120588   3.660   3.846  13.502
 6684SOL    HW220589   3.573   3.769  13.599
 6685SOL     OW20590   3.713   3.899   0.045
 6685SOL    HW120591   3.750   3.811   0.056
 6685SOL    HW220592   3.625   3.892   0.083
 6686SOL     OW20593   1.905   0.052  13.064
 6686SOL    HW120594   1.870   0.028  12.978
 6686SOL    HW220595   1.934   0.143  13.054
 6687SOL     OW20596   1.918   3.864  13.341
 6687SOL    HW120597   1.914   3.958  13.322
 6687SOL    HW220598   1.998   3.835  13.298
 6688SOL     OW20599   3.053   0.002  13.518
 6688SOL    HW120600   3.125   3.942  13.499
 6688SOL    HW220601   3.086   0.058  13.588
 6689SOL     OW20602   3.219   3.770  13.194
 6689SOL    HW120603   3.253   3.698  13.141
 6689SOL    HW220604   3.131   3.742  13.219
 6690SOL     OW20605   3.176   0.153  13.735
 6690SOL    HW120606   3.143   0.242  13.721
 6690SOL    HW220607   3.155   0.133  13.827
 6691SOL     OW20608   3.953   0.628   0.129
 6691SOL    HW120609   3.894   0.633   0.204
 6691SOL    HW220610   3.906   0.573   0.066
 6692SOL     OW20611   3.954   0.301   0.997
 6692SOL    HW120612   3.963   0.274   1.088
 6692SOL    HW220613   3.869   0.266   0.969
 6693SOL     OW20614   3.732   0.395   0.636
 6693SOL    HW120615   3.644   0.408   0.673
 6693SOL    HW220616   3.723   0.318   0.580
 6694SOL     OW20617   0.012   1.527   1.052
 6694SOL    HW120618   3.956   1.451   1.038
 6694SOL    HW220619   0.078   1.523   0.983
 6695SOL     OW20620   3.947   1.716   0.476
 6695SOL    HW120621   3.942   1.790   0.536
 6695SOL    HW220622   0.041   1.707   0.457
 6696SOL     OW20623   3.936   1.437   0.506
 6696SOL    HW120624   3.927   1.532   0.508
 6696SOL    HW220625   3.882   1.406   0.579
 6697SOL     OW20626   3.805   0.650   0.558
 6697SOL    HW120627   3.788   0.559   0.582
 6697SOL    HW220628   3.809   0.697   0.641
 6698SOL     OW20629   3.693   1.616   0.097
 6698SOL    HW120630   3.729   1.530   0.116
 6698SOL    HW220631   3.699   1.663   0.181
 6699SOL     OW20632   3.823   0.752   1.574
 6699SOL    HW120633   3.902   0.802   1.594
 6699SOL    HW220634   3.754   0.819   1.566
 6700SOL     OW20635   3.805   0.820   0.771
 6700SOL    HW120636   3.899   0.816   0.789
 6700SOL    HW220637   3.773   0.891   0.826
 6701SOL     OW20638   3.847   1.880   1.570
 6701SOL    HW120639   3.847   1.850   1.661
 6701SOL    HW220640   3.771   1.838   1.530
 6702SOL     OW20641   3.924   0.310   1.520
 6702SOL    HW120642   3.852   0.360   1.483
 6702SOL    HW220643   3.882   0.247   1.579
 6703SOL     OW20644   3.810   0.547   1.392
 6703SOL    HW120645   3.905   0.546   1.379
 6703SOL    HW220646   3.794   0.623   1.448
 6704SOL     OW20647   3.792   1.574   1.351
 6704SOL    HW120648   3.765   1.636   1.283
 6704SOL    HW220649   3.888   1.581   1.353
 6705SOL     OW20650   0.070   1.100   0.541
 6705SOL    HW120651   0.078   1.151   0.461
 6705SOL    HW220652   0.146   1.042   0.539
 6706SOL     OW20653   0.003   0.214   1.249
 6706SOL    HW120654   3.974   0.238   1.337
 6706SOL    HW220655   0.002   0.118   1.249
 6707SOL     OW20656   3.751   1.313   1.276
 6707SOL    HW120657   3.793   1.262   1.346
 6707SOL    HW220658   3.764   1.404   1.302
 6708SOL     OW20659   3.744   1.319   0.171
 6708SOL    HW120660   3.660   1.334   0.128
 6708SOL    HW220661   3.733   1.236   0.217
 6709SOL     OW20662   3.801   1.793   0.940
 6709SOL    HW120663   3.778   1.713   0.892
 6709SOL    HW220664   3.896   1.802   0.926
 6710SOL     OW20665   0.210   1.548   0.863
 6710SOL    HW120666   0.296   1.591   0.862
 6710SOL    HW220667   0.215   1.483   0.793
 6711SOL     OW20668   3.752   0.536   1.117
 6711SOL    HW120669   3.831   0.531   1.063
 6711SOL    HW220670   3.785   0.544   1.207
 6712SOL     OW20671   3.902   0.532   1.713
 6712SOL    HW120672   3.939   0.479   1.643
 6712SOL    HW220673   3.862   0.607   1.668
 6713SOL     OW20674   3.940   1.531   1.726
 6713SOL    HW120675   3.927   1.617   1.765
 6713SOL    HW220676   3.990   1.482   1.792
 6714SOL     OW20677   3.860   1.137   1.471
 6714SOL    HW120678   3.935   1.139   1.530
 6714SOL    HW220679   3.890   1.090   1.394
 6715SOL     OW20680   3.812   1.270   1.012
 6715SOL    HW120681   3.782   1.281   1.102
 6715SOL    HW220682   3.753   1.203   0.976
 6716SOL     OW20683   3.846   1.789   1.823
 6716SOL    HW120684   3.794   1.725   1.872
 6716SOL    HW220685   3.896   1.835   1.890
 6717SOL     OW20686   3.801   0.409   0.004
 6717SOL    HW120687   3.763   0.329   0.040
 6717SOL    HW220688   3.777   0.407  13.811
 6718SOL     OW20689   3.794   0.145   0.354
 6718SOL    HW120690   3.756   0.222   0.310
 6718SOL    HW220691   3.888   0.160   0.351
 6719SOL     OW20692   3.801   1.233   0.666
 6719SOL    HW120693   3.791   1.186   0.748
 6719SOL    HW220694   3.884   1.202   0.629
 6720SOL     OW20695   3.754   1.082   0.307
 6720SOL    HW120696   3.849   1.089   0.317
 6720SOL    HW220697   3.735   0.990   0.327
 6721SOL     OW20698   3.956   0.633   1.969
 6721SOL    HW120699   3.875   0.635   2.020
 6721SOL    HW220700   3.929   0.599   1.883
 6722SOL     OW20701   3.954   0.299   2.857
 6722SOL    HW120702   3.963   0.273   2.949
 6722SOL    HW220703   3.869   0.265   2.831
 6723SOL     OW20704   3.731   0.394   2.498
 6723SOL    HW120705   3.644   0.408   2.535
 6723SOL    HW220706   3.721   0.317   2.441
 6724SOL     OW20707   0.012   1.528   2.914
 6724SOL    HW120708   3.957   1.451   2.900
 6724SOL    HW220709   0.078   1.523   2.845
 6725SOL     OW20710   3.941   1.720   2.338
 6725SOL    HW120711   3.943   1.792   2.401
 6725SOL    HW220712   0.033   1.706   2.315
 6726SOL     OW20713   3.945   1.438   2.369
 6726SOL    HW120714   3.924   1.532   2.368
 6726SOL    HW220715   3.887   1.401   2.435
 6727SOL     OW20716   3.803   0.650   2.422
 6727SOL    HW120717   3.788   0.559   2.447
 6727SOL    HW220718   3.808   0.697   2.505
 6728SOL     OW20719   3.760   1.596   1.991
 6728SOL    HW120720   3.738   1.504   2.008
 6728SOL    HW220721   3.728   1.643   2.068
 6729SOL     OW20722   3.823   0.753   3.436
 6729SOL    HW120723   3.902   0.802   3.456
 6729SOL    HW220724   3.754   0.819   3.428
 6730SOL     OW20725   3.805   0.819   2.635
 6730SOL    HW120726   3.900   0.816   2.652
 6730SOL    HW220727   3.774   0.892   2.689
 6731SOL     OW20728   3.847   1.880   3.432
 6731SOL    HW120729   3.846   1.850   3.523
 6731SOL    HW220730   3.771   1.838   3.392
 6732SOL     OW20731   3.924   0.310   3.382
 6732SOL    HW120732   3.852   0.361   3.345
 6732SOL    HW220733   3.882   0.248   3.442
 6733SOL     OW20734   3.810   0.547   3.254
 6733SOL    HW120735   3.905   0.546   3.241
 6733SOL    HW220736   3.794   0.623   3.310
 6734SOL     OW20737   0.266   0.293   2.193
 6734SOL    HW120738   0.322   0.227   2.153
 6734SOL    HW220739   0.308   0.376   2.171
 6735SOL     OW20740   3.792   1.574   3.213
 6735SOL    HW120741   3.765   1.636   3.145
 6735SOL    HW220742   3.888   1.581   3.215
 6736SOL     OW20743   0.063   1.098   2.396
 6736SOL    HW120744   0.056   1.133   2.307
 6736SOL    HW220745   0.131   1.031   2.391
 6737SOL     OW20746   0.003   0.214   3.111
 6737SOL    HW120747   3.974   0.238   3.199
 6737SOL    HW220748   0.002   0.119   3.111
 6738SOL     OW20749   3.751   1.313   3.139
 6738SOL    HW120750   3.793   1.262   3.208
 6738SOL    HW220751   3.764   1.404   3.163
 6739SOL     OW20752   3.728   1.327   2.048
 6739SOL    HW120753   3.642   1.340   2.008
 6739SOL    HW220754   3.720   1.244   2.095
 6740SOL     OW20755   3.801   1.793   2.801
 6740SOL    HW120756   3.778   1.713   2.755
 6740SOL    HW220757   3.896   1.802   2.788
 6741SOL     OW20758   0.210   1.548   2.725
 6741SOL    HW120759   0.296   1.590   2.724
 6741SOL    HW220760   0.214   1.483   2.656
 6742SOL     OW20761   3.752   0.536   2.980
 6742SOL    HW120762   3.831   0.531   2.926
 6742SOL    HW220763   3.784   0.544   3.069
 6743SOL     OW20764   3.902   0.533   3.575
 6743SOL    HW120765   3.939   0.479   3.505
 6743SOL    HW220766   3.862   0.607   3.530
 6744SOL     OW20767   3.940   1.531   3.588
 6744SOL    HW120768   3.927   1.617   3.627
 6744SOL    HW220769   3.990   1.482   3.654
 6745SOL     OW20770   3.860   1.137   3.333
 6745SOL    HW120771   3.936   1.139   3.392
 6745SOL    HW220772   3.890   1.090   3.256
 6746SOL     OW20773   3.811   1.270   2.873
 6746SOL    HW120774   3.782   1.281   2.964
 6746SOL    HW220775   3.753   1.203   2.838
 6747SOL     OW20776   3.846   1.789   3.685
 6747SOL    HW120777   3.794   1.725   3.734
 6747SOL    HW220778   3.896   1.835   3.752
 6748SOL     OW20779   3.823   0.316   1.858
 6748SOL    HW120780   3.755   0.332   1.924
 6748SOL    HW220781   3.819   0.393   1.801
 6749SOL     OW20782   3.775   0.150   2.206
 6749SOL    HW120783   3.741   0.205   2.135
 6749SOL    HW220784   3.870   0.156   2.199
 6750SOL     OW20785   3.802   1.237   2.527
 6750SOL    HW120786   3.794   1.188   2.609
 6750SOL    HW220787   3.879   1.198   2.484
 6751SOL     OW20788   3.753   1.083   2.174
 6751SOL    HW120789   3.843   1.084   2.142
 6751SOL    HW220790   3.735   0.991   2.194
 6752SOL     OW20791   3.956   0.633   3.831
 6752SOL    HW120792   3.875   0.635   3.882
 6752SOL    HW220793   3.929   0.600   3.745
 6753SOL     OW20794   3.954   0.299   4.719
 6753SOL    HW120795   3.963   0.273   4.811
 6753SOL    HW220796   3.869   0.265   4.693
 6754SOL     OW20797   3.731   0.394   4.360
 6754SOL    HW120798   3.644   0.408   4.397
 6754SOL    HW220799   3.721   0.318   4.303
 6755SOL     OW20800   0.012   1.528   4.776
 6755SOL    HW120801   3.957   1.451   4.762
 6755SOL    HW220802   0.078   1.523   4.707
 6756SOL     OW20803   3.941   1.720   4.200
 6756SOL    HW120804   3.943   1.792   4.263
 6756SOL    HW220805   0.033   1.706   4.177
 6757SOL     OW20806   3.946   1.438   4.231
 6757SOL    HW120807   3.924   1.532   4.230
 6757SOL    HW220808   3.887   1.401   4.297
 6758SOL     OW20809   3.803   0.650   4.284
 6758SOL    HW120810   3.788   0.559   4.309
 6758SOL    HW220811   3.808   0.697   4.367
 6759SOL     OW20812   3.760   1.596   3.853
 6759SOL    HW120813   3.738   1.504   3.870
 6759SOL    HW220814   3.728   1.643   3.930
 6760SOL     OW20815   3.822   0.753   5.298
 6760SOL    HW120816   3.902   0.802   5.319
 6760SOL    HW220817   3.754   0.819   5.290
 6761SOL     OW20818   3.805   0.819   4.497
 6761SOL    HW120819   3.900   0.816   4.514
 6761SOL    HW220820   3.774   0.892   4.551
 6762SOL     OW20821   3.847   1.880   5.294
 6762SOL    HW120822   3.846   1.850   5.385
 6762SOL    HW220823   3.771   1.838   5.254
 6763SOL     OW20824   3.924   0.310   5.244
 6763SOL    HW120825   3.852   0.361   5.207
 6763SOL    HW220826   3.881   0.248   5.304
 6764SOL     OW20827   3.810   0.547   5.116
 6764SOL    HW120828   3.905   0.546   5.103
 6764SOL    HW220829   3.794   0.623   5.172
 6765SOL     OW20830   0.266   0.293   4.055
 6765SOL    HW120831   0.322   0.227   4.015
 6765SOL    HW220832   0.308   0.377   4.033
 6766SOL     OW20833   3.792   1.574   5.075
 6766SOL    HW120834   3.765   1.636   5.007
 6766SOL    HW220835   3.888   1.581   5.077
 6767SOL     OW20836   0.063   1.098   4.258
 6767SOL    HW120837   0.056   1.133   4.169
 6767SOL    HW220838   0.131   1.031   4.253
 6768SOL     OW20839   0.003   0.214   4.973
 6768SOL    HW120840   3.974   0.238   5.061
 6768SOL    HW220841   0.002   0.119   4.973
 6769SOL     OW20842   3.751   1.313   5.000
 6769SOL    HW120843   3.793   1.262   5.070
 6769SOL    HW220844   3.764   1.404   5.026
 6770SOL     OW20845   3.728   1.327   3.910
 6770SOL    HW120846   3.642   1.340   3.870
 6770SOL    HW220847   3.719   1.244   3.957
 6771SOL     OW20848   3.801   1.793   4.663
 6771SOL    HW120849   3.778   1.713   4.617
 6771SOL    HW220850   3.896   1.802   4.650
 6772SOL     OW20851   0.210   1.548   4.587
 6772SOL    HW120852   0.296   1.590   4.586
 6772SOL    HW220853   0.214   1.482   4.518
 6773SOL     OW20854   3.752   0.536   4.842
 6773SOL    HW120855   3.831   0.532   4.788
 6773SOL    HW220856   3.784   0.544   4.931
 6774SOL     OW20857   3.902   0.533   5.437
 6774SOL    HW120858   3.939   0.479   5.367
 6774SOL    HW220859   3.862   0.607   5.392
 6775SOL     OW20860   3.940   1.531   5.450
 6775SOL    HW120861   3.927   1.618   5.489
 6775SOL    HW220862   3.988   1.482   5.517
 6776SOL     OW20863   3.860   1.138   5.195
 6776SOL    HW120864   3.936   1.139   5.254
 6776SOL    HW220865   3.890   1.090   5.118
 6777SOL     OW20866   3.811   1.270   4.735
 6777SOL    HW120867   3.782   1.281   4.826
 6777SOL    HW220868   3.753   1.203   4.699
 6778SOL     OW20869   3.846   1.789   5.547
 6778SOL    HW120870   3.794   1.725   5.596
 6778SOL    HW220871   3.895   1.835   5.615
 6779SOL     OW20872   3.823   0.316   3.720
 6779SOL    HW120873   3.755   0.332   3.786
 6779SOL    HW220874   3.819   0.393   3.663
 6780SOL     OW20875   3.775   0.150   4.068
 6780SOL    HW120876   3.741   0.205   3.997
 6780SOL    HW220877   3.870   0.156   4.060
 6781SOL     OW20878   3.803   1.237   4.389
 6781SOL    HW120879   3.794   1.188   4.471
 6781SOL    HW220880   3.879   1.198   4.346
 6782SOL     OW20881   3.753   1.083   4.036
 6782SOL    HW120882   3.843   1.084   4.004
 6782SOL    HW220883   3.735   0.991   4.056
 6783SOL     OW20884   3.956   0.633   5.693
 6783SOL    HW120885   3.875   0.635   5.744
 6783SOL    HW220886   3.929   0.600   5.607
 6784SOL     OW20887   3.954   0.299   6.581
 6784SOL    HW120888   3.963   0.273   6.673
 6784SOL    HW220889   3.869   0.265   6.555
 6785SOL     OW20890   3.731   0.394   6.222
 6785SOL    HW120891   3.644   0.408   6.259
 6785SOL    HW220892   3.720   0.319   6.164
 6786SOL     OW20893   0.012   1.527   6.639
 6786SOL    HW120894   3.956   1.451   6.624
 6786SOL    HW220895   0.078   1.523   6.569
 6787SOL     OW20896   3.941   1.720   6.062
 6787SOL    HW120897   3.944   1.792   6.125
 6787SOL    HW220898   0.033   1.706   6.039
 6788SOL     OW20899   3.946   1.438   6.093
 6788SOL    HW120900   3.924   1.531   6.093
 6788SOL    HW220901   3.888   1.400   6.159
 6789SOL     OW20902   3.804   0.650   6.146
 6789SOL    HW120903   3.788   0.559   6.171
 6789SOL    HW220904   3.808   0.697   6.229
 6790SOL     OW20905   3.761   1.596   5.715
 6790SOL    HW120906   3.738   1.504   5.732
 6790SOL    HW220907   3.728   1.643   5.792
 6791SOL     OW20908   3.823   0.753   7.161
 6791SOL    HW120909   3.903   0.802   7.179
 6791SOL    HW220910   3.755   0.819   7.152
 6792SOL     OW20911   3.806   0.818   6.360
 6792SOL    HW120912   3.900   0.816   6.376
 6792SOL    HW220913   3.773   0.891   6.413
 6793SOL     OW20914   3.847   1.880   7.156
 6793SOL    HW120915   3.846   1.850   7.247
 6793SOL    HW220916   3.771   1.837   7.116
 6794SOL     OW20917   3.924   0.310   7.106
 6794SOL    HW120918   3.853   0.361   7.069
 6794SOL    HW220919   3.881   0.248   7.165
 6795SOL     OW20920   3.811   0.547   6.979
 6795SOL    HW120921   3.905   0.546   6.966
 6795SOL    HW220922   3.794   0.623   7.034
 6796SOL     OW20923   0.266   0.293   5.917
 6796SOL    HW120924   0.322   0.227   5.877
 6796SOL    HW220925   0.308   0.376   5.895
 6797SOL     OW20926   3.792   1.574   6.937
 6797SOL    HW120927   3.765   1.635   6.869
 6797SOL    HW220928   3.888   1.581   6.939
 6798SOL     OW20929   0.063   1.098   6.121
 6798SOL    HW120930   0.055   1.132   6.031
 6798SOL    HW220931   0.129   1.029   6.114
 6799SOL     OW20932   0.003   0.214   6.835
 6799SOL    HW120933   3.975   0.238   6.923
 6799SOL    HW220934   0.002   0.119   6.835
 6800SOL     OW20935   3.749   1.313   6.864
 6800SOL    HW120936   3.794   1.263   6.932
 6800SOL    HW220937   3.764   1.405   6.888
 6801SOL     OW20938   3.728   1.326   5.772
 6801SOL    HW120939   3.642   1.340   5.732
 6801SOL    HW220940   3.719   1.244   5.819
 6802SOL     OW20941   3.802   1.793   6.526
 6802SOL    HW120942   3.777   1.714   6.479
 6802SOL    HW220943   3.896   1.801   6.512
 6803SOL     OW20944   0.210   1.548   6.450
 6803SOL    HW120945   0.296   1.590   6.447
 6803SOL    HW220946   0.213   1.483   6.380
 6804SOL     OW20947   3.752   0.536   6.704
 6804SOL    HW120948   3.830   0.531   6.649
 6804SOL    HW220949   3.785   0.544   6.793
 6805SOL     OW20950   3.902   0.533   7.299
 6805SOL    HW120951   3.940   0.479   7.229
 6805SOL    HW220952   3.862   0.607   7.254
 6806SOL     OW20953   3.939   1.530   7.312
 6806SOL    HW120954   3.928   1.616   7.352
 6806SOL    HW220955   3.993   1.482   7.375
 6807SOL     OW20956   3.860   1.137   7.058
 6807SOL    HW120957   3.937   1.140   7.114
 6807SOL    HW220958   3.889   1.089   6.980
 6808SOL     OW20959   3.811   1.270   6.598
 6808SOL    HW120960   3.781   1.281   6.688
 6808SOL    HW220961   3.753   1.204   6.561
 6809SOL     OW20962   3.845   1.789   7.410
 6809SOL    HW120963   3.794   1.725   7.459
 6809SOL    HW220964   3.895   1.836   7.477
 6810SOL     OW20965   3.823   0.316   5.582
 6810SOL    HW120966   3.755   0.332   5.648
 6810SOL    HW220967   3.819   0.393   5.525
 6811SOL     OW20968   3.775   0.150   5.930
 6811SOL    HW120969   3.741   0.205   5.860
 6811SOL    HW220970   3.870   0.156   5.922
 6812SOL     OW20971   3.803   1.237   6.252
 6812SOL    HW120972   3.792   1.187   6.333
 6812SOL    HW220973   3.879   1.198   6.209
 6813SOL     OW20974   3.753   1.083   5.898
 6813SOL    HW120975   3.843   1.084   5.866
 6813SOL    HW220976   3.736   0.991   5.918
 6814SOL     OW20977   3.956   0.633   7.555
 6814SOL    HW120978   3.875   0.635   7.605
 6814SOL    HW220979   3.930   0.599   7.469
 6815SOL     OW20980   3.954   0.299   8.444
 6815SOL    HW120981   3.963   0.274   8.536
 6815SOL    HW220982   3.869   0.265   8.418
 6816SOL     OW20983   3.731   0.393   8.084
 6816SOL    HW120984   3.644   0.407   8.121
 6816SOL    HW220985   3.722   0.317   8.027
 6817SOL     OW20986   0.012   1.527   8.500
 6817SOL    HW120987   3.957   1.450   8.486
 6817SOL    HW220988   0.078   1.523   8.431
 6818SOL     OW20989   3.941   1.720   7.925
 6818SOL    HW120990   3.943   1.792   7.988
 6818SOL    HW220991   0.033   1.706   7.900
 6819SOL     OW20992   3.945   1.438   7.956
 6819SOL    HW120993   3.925   1.532   7.954
 6819SOL    HW220994   3.887   1.402   8.022
 6820SOL     OW20995   3.802   0.650   8.008
 6820SOL    HW120996   3.788   0.559   8.033
 6820SOL    HW220997   3.808   0.697   8.091
 6821SOL     OW20998   3.759   1.596   7.578
 6821SOL    HW120999   3.738   1.504   7.595
 6821SOL    HW221000   3.727   1.643   7.655
 6822SOL     OW21001   3.823   0.753   9.022
 6822SOL    HW121002   3.902   0.802   9.042
 6822SOL    HW221003   3.754   0.819   9.014
 6823SOL     OW21004   3.805   0.819   8.222
 6823SOL    HW121005   3.900   0.816   8.237
 6823SOL    HW221006   3.774   0.892   8.276
 6824SOL     OW21007   3.847   1.880   9.018
 6824SOL    HW121008   3.846   1.850   9.109
 6824SOL    HW221009   3.771   1.838   8.978
 6825SOL     OW21010   3.924   0.310   8.968
 6825SOL    HW121011   3.852   0.361   8.931
 6825SOL    HW221012   3.882   0.248   9.028
 6826SOL     OW21013   3.810   0.547   8.840
 6826SOL    HW121014   3.905   0.546   8.827
 6826SOL    HW221015   3.794   0.623   8.896
 6827SOL     OW21016   0.266   0.293   7.779
 6827SOL    HW121017   0.321   0.226   7.740
 6827SOL    HW221018   0.309   0.376   7.756
 6828SOL     OW21019   3.792   1.574   8.799
 6828SOL    HW121020   3.766   1.636   8.731
 6828SOL    HW221021   3.888   1.581   8.801
 6829SOL     OW21022   0.063   1.098   7.982
 6829SOL    HW121023   0.057   1.133   7.893
 6829SOL    HW221024   0.133   1.033   7.977
 6830SOL     OW21025   0.003   0.214   8.697
 6830SOL    HW121026   3.974   0.238   8.785
 6830SOL    HW221027   0.002   0.118   8.697
 6831SOL     OW21028   3.750   1.313   8.725
 6831SOL    HW121029   3.793   1.262   8.793
 6831SOL    HW221030   3.764   1.404   8.749
 6832SOL     OW21031   3.729   1.327   7.636
 6832SOL    HW121032   3.643   1.341   7.596
 6832SOL    HW221033   3.721   1.244   7.682
 6833SOL     OW21034   3.802   1.794   8.388
 6833SOL    HW121035   3.778   1.714   8.341
 6833SOL    HW221036   3.896   1.802   8.374
 6834SOL     OW21037   0.210   1.548   8.311
 6834SOL    HW121038   0.296   1.590   8.310
 6834SOL    HW221039   0.214   1.483   8.241
 6835SOL     OW21040   3.752   0.536   8.565
 6835SOL    HW121041   3.831   0.531   8.511
 6835SOL    HW221042   3.785   0.544   8.655
 6836SOL     OW21043   3.902   0.533   9.161
 6836SOL    HW121044   3.939   0.479   9.091
 6836SOL    HW221045   3.862   0.607   9.116
 6837SOL     OW21046   3.939   1.530   9.174
 6837SOL    HW121047   3.927   1.617   9.213
 6837SOL    HW221048   3.990   1.482   9.239
 6838SOL     OW21049   3.860   1.137   8.919
 6838SOL    HW121050   3.935   1.139   8.978
 6838SOL    HW221051   3.891   1.090   8.842
 6839SOL     OW21052   3.811   1.271   8.459
 6839SOL    HW121053   3.782   1.281   8.550
 6839SOL    HW221054   3.753   1.203   8.423
 6840SOL     OW21055   3.846   1.789   9.271
 6840SOL    HW121056   3.793   1.725   9.320
 6840SOL    HW221057   3.895   1.835   9.339
 6841SOL     OW21058   3.823   0.316   7.444
 6841SOL    HW121059   3.755   0.332   7.509
 6841SOL    HW221060   3.820   0.393   7.386
 6842SOL     OW21061   3.775   0.151   7.792
 6842SOL    HW121062   3.742   0.206   7.721
 6842SOL    HW221063   3.870   0.156   7.785
 6843SOL     OW21064   3.801   1.236   8.113
 6843SOL    HW121065   3.795   1.188   8.195
 6843SOL    HW221066   3.878   1.199   8.069
 6844SOL     OW21067   3.753   1.082   7.760
 6844SOL    HW121068   3.843   1.083   7.728
 6844SOL    HW221069   3.735   0.990   7.780
 6845SOL     OW21070   3.956   0.633   9.417
 6845SOL    HW121071   3.875   0.635   9.468
 6845SOL    HW221072   3.929   0.600   9.331
 6846SOL     OW21073   3.954   0.299  10.306
 6846SOL    HW121074   3.963   0.273  10.397
 6846SOL    HW221075   3.869   0.265  10.279
 6847SOL     OW21076   3.731   0.394   9.946
 6847SOL    HW121077   3.644   0.408   9.983
 6847SOL    HW221078   3.721   0.318   9.889
 6848SOL     OW21079   0.012   1.527  10.362
 6848SOL    HW121080   3.957   1.451  10.348
 6848SOL    HW221081   0.078   1.523  10.293
 6849SOL     OW21082   3.941   1.720   9.786
 6849SOL    HW121083   3.943   1.792   9.849
 6849SOL    HW221084   0.033   1.706   9.763
 6850SOL     OW21085   3.946   1.438   9.817
 6850SOL    HW121086   3.924   1.532   9.816
 6850SOL    HW221087   3.887   1.401   9.883
 6851SOL     OW21088   3.803   0.650   9.870
 6851SOL    HW121089   3.788   0.559   9.895
 6851SOL    HW221090   3.808   0.697   9.953
 6852SOL     OW21091   3.760   1.596   9.439
 6852SOL    HW121092   3.738   1.504   9.456
 6852SOL    HW221093   3.728   1.643   9.516
 6853SOL     OW21094   3.823   0.753  10.884
 6853SOL    HW121095   3.902   0.802  10.904
 6853SOL    HW221096   3.754   0.819  10.876
 6854SOL     OW21097   3.805   0.819  10.083
 6854SOL    HW121098   3.900   0.816  10.100
 6854SOL    HW221099   3.774   0.892  10.137
 6855SOL     OW21100   3.847   1.880  10.880
 6855SOL    HW121101   3.846   1.850  10.971
 6855SOL    HW221102   3.771   1.838  10.840
 6856SOL     OW21103   3.924   0.310  10.830
 6856SOL    HW121104   3.852   0.361  10.793
 6856SOL    HW221105   3.881   0.248  10.890
 6857SOL     OW21106   3.810   0.547  10.702
 6857SOL    HW121107   3.905   0.546  10.689
 6857SOL    HW221108   3.794   0.623  10.758
 6858SOL     OW21109   0.266   0.293   9.641
 6858SOL    HW121110   0.322   0.227   9.601
 6858SOL    HW221111   0.308   0.376   9.619
 6859SOL     OW21112   3.792   1.574  10.661
 6859SOL    HW121113   3.765   1.636  10.593
 6859SOL    HW221114   3.888   1.581  10.663
 6860SOL     OW21115   0.063   1.098   9.844
 6860SOL    HW121116   0.056   1.133   9.755
 6860SOL    HW221117   0.131   1.031   9.839
 6861SOL     OW21118   0.003   0.214  10.559
 6861SOL    HW121119   3.974   0.238  10.647
 6861SOL    HW221120   0.002   0.119  10.559
 6862SOL     OW21121   3.751   1.313  10.587
 6862SOL    HW121122   3.793   1.262  10.656
 6862SOL    HW221123   3.764   1.404  10.611
 6863SOL     OW21124   3.728   1.327   9.496
 6863SOL    HW121125   3.642   1.340   9.456
 6863SOL    HW221126   3.719   1.244   9.543
 6864SOL     OW21127   3.802   1.793  10.250
 6864SOL    HW121128   3.778   1.713  10.203
 6864SOL    HW221129   3.896   1.802  10.236
 6865SOL     OW21130   0.210   1.548  10.173
 6865SOL    HW121131   0.296   1.590  10.172
 6865SOL    HW221132   0.214   1.483  10.104
 6866SOL     OW21133   3.752   0.536  10.428
 6866SOL    HW121134   3.831   0.531  10.374
 6866SOL    HW221135   3.785   0.544  10.517
 6867SOL     OW21136   3.902   0.533  11.023
 6867SOL    HW121137   3.940   0.479  10.953
 6867SOL    HW221138   3.862   0.607  10.978
 6868SOL     OW21139   3.940   1.531  11.036
 6868SOL    HW121140   3.927   1.617  11.075
 6868SOL    HW221141   3.989   1.482  11.102
 6869SOL     OW21142   3.860   1.137  10.781
 6869SOL    HW121143   3.936   1.140  10.840
 6869SOL    HW221144   3.890   1.090  10.704
 6870SOL     OW21145   3.811   1.270  10.321
 6870SOL    HW121146   3.782   1.281  10.412
 6870SOL    HW221147   3.753   1.203  10.285
 6871SOL     OW21148   3.846   1.789  11.133
 6871SOL    HW121149   3.794   1.725  11.182
 6871SOL    HW221150   3.895   1.835  11.200
 6872SOL     OW21151   3.823   0.316   9.306
 6872SOL    HW121152   3.755   0.332   9.372
 6872SOL    HW221153   3.819   0.393   9.249
 6873SOL     OW21154   3.775   0.150   9.654
 6873SOL    HW121155   3.741   0.205   9.583
 6873SOL    HW221156   3.870   0.156   9.647
 6874SOL     OW21157   3.803   1.237   9.975
 6874SOL    HW121158   3.794   1.188  10.057
 6874SOL    HW221159   3.879   1.198   9.932
 6875SOL     OW21160   3.753   1.083   9.622
 6875SOL    HW121161   3.843   1.084   9.590
 6875SOL    HW221162   3.735   0.991   9.642
 6876SOL     OW21163   3.956   0.633  11.279
 6876SOL    HW121164   3.875   0.635  11.330
 6876SOL    HW221165   3.929   0.600  11.193
 6877SOL     OW21166   3.954   0.299  12.168
 6877SOL    HW121167   3.963   0.273  12.259
 6877SOL    HW221168   3.869   0.265  12.141
 6878SOL     OW21169   3.731   0.394  11.808
 6878SOL    HW121170   3.644   0.408  11.845
 6878SOL    HW221171   3.721   0.318  11.751
 6879SOL     OW21172   0.012   1.527  12.224
 6879SOL    HW121173   3.957   1.451  12.210
 6879SOL    HW221174   0.078   1.523  12.155
 6880SOL     OW21175   3.941   1.720  11.648
 6880SOL    HW121176   3.943   1.792  11.711
 6880SOL    HW221177   0.033   1.706  11.625
 6881SOL     OW21178   3.946   1.438  11.679
 6881SOL    HW121179   3.924   1.532  11.678
 6881SOL    HW221180   3.887   1.401  11.745
 6882SOL     OW21181   3.803   0.650  11.732
 6882SOL    HW121182   3.788   0.559  11.757
 6882SOL    HW221183   3.808   0.697  11.815
 6883SOL     OW21184   3.760   1.596  11.301
 6883SOL    HW121185   3.738   1.504  11.318
 6883SOL    HW221186   3.728   1.643  11.378
 6884SOL     OW21187   3.823   0.753  12.746
 6884SOL    HW121188   3.902   0.803  12.765
 6884SOL    HW221189   3.754   0.819  12.738
 6885SOL     OW21190   3.805   0.819  11.945
 6885SOL    HW121191   3.900   0.816  11.962
 6885SOL    HW221192   3.774   0.892  11.999
 6886SOL     OW21193   3.847   1.880  12.743
 6886SOL    HW121194   3.847   1.850  12.834
 6886SOL    HW221195   3.771   1.837  12.703
 6887SOL     OW21196   3.924   0.310  12.693
 6887SOL    HW121197   3.852   0.361  12.655
 6887SOL    HW221198   3.881   0.247  12.751
 6888SOL     OW21199   3.811   0.547  12.565
 6888SOL    HW121200   3.905   0.546  12.552
 6888SOL    HW221201   3.794   0.623  12.620
 6889SOL     OW21202   0.266   0.293  11.503
 6889SOL    HW121203   0.322   0.227  11.463
 6889SOL    HW221204   0.308   0.377  11.481
 6890SOL     OW21205   3.792   1.574  12.523
 6890SOL    HW121206   3.765   1.636  12.455
 6890SOL    HW221207   3.888   1.581  12.525
 6891SOL     OW21208   0.063   1.098  11.706
 6891SOL    HW121209   0.056   1.133  11.617
 6891SOL    HW221210   0.131   1.031  11.701
 6892SOL     OW21211   0.003   0.214  12.421
 6892SOL    HW121212   3.974   0.238  12.509
 6892SOL    HW221213   0.002   0.118  12.421
 6893SOL     OW21214   3.750   1.313  12.449
 6893SOL    HW121215   3.793   1.263  12.518
 6893SOL    HW221216   3.764   1.404  12.473
 6894SOL     OW21217   3.728   1.327  11.358
 6894SOL    HW121218   3.642   1.340  11.318
 6894SOL    HW221219   3.719   1.244  11.405
 6895SOL     OW21220   3.802   1.793  12.112
 6895SOL    HW121221   3.778   1.713  12.065
 6895SOL    HW221222   3.896   1.802  12.098
 6896SOL     OW21223   0.210   1.548  12.035
 6896SOL    HW121224   0.296   1.590  12.034
 6896SOL    HW221225   0.214   1.483  11.966
 6897SOL     OW21226   3.752   0.536  12.290
 6897SOL    HW121227   3.831   0.531  12.236
 6897SOL    HW221228   3.785   0.544  12.379
 6898SOL     OW21229   3.903   0.533  12.885
 6898SOL    HW121230   3.939   0.479  12.815
 6898SOL    HW221231   3.863   0.607  12.840
 6899SOL     OW21232   3.939   1.531  12.899
 6899SOL    HW121233   3.927   1.618  12.937
 6899SOL    HW221234   3.988   1.482  12.965
 6900SOL     OW21235   3.860   1.137  12.643
 6900SOL    HW121236   3.936   1.140  12.701
 6900SOL    HW221237   3.890   1.090  12.566
 6901SOL     OW21238   3.811   1.270  12.183
 6901SOL    HW121239   3.782   1.281  12.274
 6901SOL    HW221240   3.753   1.203  12.147
 6902SOL     OW21241   3.846   1.790  12.997
 6902SOL    HW121242   3.794   1.725  13.045
 6902SOL    HW221243   3.895   1.836  13.064
 6903SOL     OW21244   3.823   0.316  11.168
 6903SOL    HW121245   3.755   0.332  11.234
 6903SOL    HW221246   3.819   0.393  11.111
 6904SOL     OW21247   3.775   0.150  11.516
 6904SOL    HW121248   3.741   0.205  11.445
 6904SOL    HW221249   3.870   0.156  11.508
 6905SOL     OW21250   3.802   1.237  11.837
 6905SOL    HW121251   3.794   1.188  11.919
 6905SOL    HW221252   3.879   1.198  11.794
 6906SOL     OW21253   3.753   1.083  11.484
 6906SOL    HW121254   3.843   1.084  11.452
 6906SOL    HW221255   3.735   0.991  11.504
 6907SOL     OW21256   3.953   0.631  13.142
 6907SOL    HW121257   3.870   0.634  13.190
 6907SOL    HW221258   3.930   0.599  13.055
 6908SOL     OW21259   3.720   0.387  13.645
 6908SOL    HW121260   3.629   0.403  13.669
 6908SOL    HW221261   3.721   0.296  13.615
 6909SOL     OW21262   3.941   1.715  13.504
 6909SOL    HW121263   3.940   1.788  13.565
 6909SOL    HW221264   0.033   1.701  13.484
 6910SOL     OW21265   3.945   1.435  13.536
 6910SOL    HW121266   3.926   1.529  13.536
 6910SOL    HW221267   3.885   1.399  13.602
 6911SOL     OW21268   3.941   1.098   0.009
 6911SOL    HW121269   3.981   1.055   0.084
 6911SOL    HW221270   3.850   1.111   0.034
 6912SOL     OW21271   3.823   0.646  13.595
 6912SOL    HW121272   3.779   0.562  13.610
 6912SOL    HW221273   3.812   0.694  13.677
 6913SOL     OW21274   3.758   1.596  13.162
 6913SOL    HW121275   3.737   1.504  13.180
 6913SOL    HW221276   3.726   1.643  13.240
 6914SOL     OW21277   3.797   0.808  13.812
 6914SOL    HW121278   3.891   0.817  13.825
 6914SOL    HW221279   3.759   0.887  13.852
 6915SOL     OW21280   0.098   1.811  13.887
 6915SOL    HW121281   0.058   1.735   0.029
 6915SOL    HW221282   0.167   1.839   0.048
 6916SOL     OW21283   0.267   0.295  13.368
 6916SOL    HW121284   0.319   0.223  13.331
 6916SOL    HW221285   0.315   0.374  13.343
 6917SOL     OW21286   0.067   1.099  13.560
 6917SOL    HW121287   0.062   1.136  13.472
 6917SOL    HW221288   0.138   1.035  13.555
 6918SOL     OW21289   3.728   1.327  13.220
 6918SOL    HW121290   3.642   1.341  13.180
 6918SOL    HW221291   3.719   1.244  13.268
 6919SOL     OW21292   0.311   1.536   0.012
 6919SOL    HW121293   0.248   1.597   0.050
 6919SOL    HW221294   0.259   1.478  13.856
 6920SOL     OW21295   3.823   0.317  13.030
 6920SOL    HW121296   3.754   0.332  13.095
 6920SOL    HW221297   3.818   0.393  12.972
 6921SOL     OW21298   3.786   0.150  13.370
 6921SOL    HW121299   3.749   0.206  13.302
 6921SOL    HW221300   3.880   0.155  13.357
 6922SOL     OW21301   3.809   1.230  13.686
 6922SOL    HW121302   3.804   1.171  13.762
 6922SOL    HW221303   3.886   1.199  13.637
 6923SOL     OW21304   3.752   1.081  13.344
 6923SOL    HW121305   3.842   1.084  13.310
 6923SOL    HW221306   3.737   0.989  13.365
 6924SOL     OW21307   3.953   2.496   0.133
 6924SOL    HW121308   3.887   2.502   0.201
 6924SOL    HW221309   3.912   2.446   0.062
 6925SOL     OW21310   3.962   2.126   0.987
 6925SOL    HW121311   3.966   2.120   1.083
 6925SOL    HW221312   3.869   2.113   0.967
 6926SOL     OW21313   3.723   2.245   0.637
 6926SOL    HW121314   3.642   2.268   0.684
 6926SOL    HW221315   3.703   2.162   0.595
 6927SOL     OW21316   0.013   3.386   1.054
 6927SOL    HW121317   3.958   3.310   1.034
 6927SOL    HW221318   0.077   3.387   0.983
 6928SOL     OW21319   3.938   3.573   0.480
 6928SOL    HW121320   3.949   3.648   0.539
 6928SOL    HW221321   0.025   3.560   0.442
 6929SOL     OW21322   3.934   3.296   0.507
 6929SOL    HW121323   3.926   3.391   0.504
 6929SOL    HW221324   3.881   3.269   0.582
 6930SOL     OW21325   3.812   2.502   0.559
 6930SOL    HW121326   3.781   2.415   0.584
 6930SOL    HW221327   3.810   2.552   0.641
 6931SOL     OW21328   3.754   3.466   0.118
 6931SOL    HW121329   3.729   3.375   0.136
 6931SOL    HW221330   3.719   3.515   0.193
 6932SOL     OW21331   3.823   2.604   1.582
 6932SOL    HW121332   3.904   2.652   1.603
 6932SOL    HW221333   3.757   2.673   1.573
 6933SOL     OW21334   3.805   2.680   0.768
 6933SOL    HW121335   3.899   2.678   0.787
 6933SOL    HW221336   3.771   2.750   0.823
 6934SOL     OW21337   3.849   3.727   1.569
 6934SOL    HW121338   3.846   3.698   1.661
 6934SOL    HW221339   3.765   3.698   1.533
 6935SOL     OW21340   3.921   2.151   1.516
 6935SOL    HW121341   3.840   2.195   1.491
 6935SOL    HW221342   3.893   2.066   1.549
 6936SOL     OW21343   3.811   2.408   1.392
 6936SOL    HW121344   3.906   2.404   1.381
 6936SOL    HW221345   3.796   2.482   1.451
 6937SOL     OW21346   3.793   3.436   1.351
 6937SOL    HW121347   3.766   3.499   1.283
 6937SOL    HW221348   3.888   3.443   1.355
 6938SOL     OW21349   0.074   2.957   0.540
 6938SOL    HW121350   0.075   3.014   0.462
 6938SOL    HW221351   0.157   2.909   0.535
 6939SOL     OW21352   0.003   2.073   1.253
 6939SOL    HW121353   3.973   2.105   1.338
 6939SOL    HW221354   0.012   1.979   1.264
 6940SOL     OW21355   3.750   3.175   1.276
 6940SOL    HW121356   3.792   3.124   1.345
 6940SOL    HW221357   3.765   3.266   1.300
 6941SOL     OW21358   3.989   1.921   0.656
 6941SOL    HW121359   0.009   2.014   0.667
 6941SOL    HW221360   0.015   1.881   0.739
 6942SOL     OW21361   3.740   3.176   0.174
 6942SOL    HW121362   3.657   3.188   0.127
 6942SOL    HW221363   3.730   3.093   0.220
 6943SOL     OW21364   3.803   3.650   0.939
 6943SOL    HW121365   3.780   3.570   0.892
 6943SOL    HW221366   3.897   3.658   0.928
 6944SOL     OW21367   0.210   3.419   0.865
 6944SOL    HW121368   0.281   3.483   0.860
 6944SOL    HW221369   0.228   3.357   0.794
 6945SOL     OW21370   3.756   2.402   1.120
 6945SOL    HW121371   3.839   2.400   1.072
 6945SOL    HW221372   3.782   2.406   1.212
 6946SOL     OW21373   3.898   2.377   1.724
 6946SOL    HW121374   3.923   2.315   1.655
 6946SOL    HW221375   3.859   2.451   1.676
 6947SOL     OW21376   3.939   3.391   1.728
 6947SOL    HW121377   3.927   3.479   1.762
 6947SOL    HW221378   3.990   3.346   1.795
 6948SOL     OW21379   3.859   3.000   1.471
 6948SOL    HW121380   3.934   3.001   1.531
 6948SOL    HW221381   3.892   2.954   1.394
 6949SOL     OW21382   3.810   3.131   1.011
 6949SOL    HW121383   3.782   3.143   1.102
 6949SOL    HW221384   3.752   3.064   0.977
 6950SOL     OW21385   3.842   3.646   1.823
 6950SOL    HW121386   3.791   3.582   1.873
 6950SOL    HW221387   3.888   3.697   1.889
 6951SOL     OW21388   3.776   2.273   0.031
 6951SOL    HW121389   3.742   2.190   0.063
 6951SOL    HW221390   3.757   2.273  13.837
 6952SOL     OW21391   3.783   2.018   0.347
 6952SOL    HW121392   3.757   2.040   0.257
 6952SOL    HW221393   3.878   2.023   0.346
 6953SOL     OW21394   3.798   3.094   0.667
 6953SOL    HW121395   3.792   3.048   0.751
 6953SOL    HW221396   3.884   3.070   0.633
 6954SOL     OW21397   3.752   2.937   0.309
 6954SOL    HW121398   3.847   2.945   0.316
 6954SOL    HW221399   3.734   2.844   0.325
 6955SOL     OW21400   3.954   2.495   1.972
 6955SOL    HW121401   3.873   2.491   2.024
 6955SOL    HW221402   3.930   2.458   1.887
 6956SOL     OW21403   3.962   2.125   2.850
 6956SOL    HW121404   3.966   2.119   2.945
 6956SOL    HW221405   3.869   2.113   2.829
 6957SOL     OW21406   3.721   2.242   2.498
 6957SOL    HW121407   3.643   2.268   2.546
 6957SOL    HW221408   3.699   2.159   2.457
 6958SOL     OW21409   0.011   3.387   2.915
 6958SOL    HW121410   3.958   3.309   2.897
 6958SOL    HW221411   0.077   3.387   2.845
 6959SOL     OW21412   3.941   3.581   2.339
 6959SOL    HW121413   3.949   3.654   2.399
 6959SOL    HW221414   0.031   3.562   2.311
 6960SOL     OW21415   3.942   3.300   2.367
 6960SOL    HW121416   3.925   3.394   2.370
 6960SOL    HW221417   3.887   3.264   2.437
 6961SOL     OW21418   3.814   2.501   2.423
 6961SOL    HW121419   3.783   2.413   2.447
 6961SOL    HW221420   3.810   2.551   2.505
 6962SOL     OW21421   3.756   3.457   1.993
 6962SOL    HW121422   3.736   3.364   2.009
 6962SOL    HW221423   3.725   3.501   2.072
 6963SOL     OW21424   3.823   2.604   3.444
 6963SOL    HW121425   3.904   2.651   3.465
 6963SOL    HW221426   3.757   2.673   3.435
 6964SOL     OW21427   3.805   2.678   2.633
 6964SOL    HW121428   3.899   2.677   2.649
 6964SOL    HW221429   3.772   2.750   2.686
 6965SOL     OW21430   3.849   3.727   3.431
 6965SOL    HW121431   3.846   3.698   3.522
 6965SOL    HW221432   3.765   3.698   3.395
 6966SOL     OW21433   3.921   2.151   3.378
 6966SOL    HW121434   3.840   2.195   3.353
 6966SOL    HW221435   3.893   2.066   3.411
 6967SOL     OW21436   0.000   1.891   2.023
 6967SOL    HW121437   0.037   1.979   2.008
 6967SOL    HW221438   0.059   1.851   2.086
 6968SOL     OW21439   3.811   2.408   3.254
 6968SOL    HW121440   3.906   2.404   3.243
 6968SOL    HW221441   3.796   2.481   3.313
 6969SOL     OW21442   0.279   2.151   2.181
 6969SOL    HW121443   0.297   2.075   2.126
 6969SOL    HW221444   0.326   2.223   2.138
 6970SOL     OW21445   3.793   3.435   3.213
 6970SOL    HW121446   3.767   3.499   3.145
 6970SOL    HW221447   3.888   3.443   3.217
 6971SOL     OW21448   0.065   2.957   2.395
 6971SOL    HW121449   0.056   2.996   2.308
 6971SOL    HW221450   0.138   2.896   2.387
 6972SOL     OW21451   0.003   2.073   3.115
 6972SOL    HW121452   3.973   2.105   3.201
 6972SOL    HW221453   0.012   1.979   3.126
 6973SOL     OW21454   3.750   3.175   3.138
 6973SOL    HW121455   3.792   3.124   3.207
 6973SOL    HW221456   3.765   3.266   3.163
 6974SOL     OW21457   3.995   1.922   2.516
 6974SOL    HW121458   0.004   2.016   2.530
 6974SOL    HW221459   0.018   1.883   2.601
 6975SOL     OW21460   3.727   3.187   2.049
 6975SOL    HW121461   3.641   3.201   2.010
 6975SOL    HW221462   3.718   3.104   2.096
 6976SOL     OW21463   3.803   3.650   2.801
 6976SOL    HW121464   3.780   3.570   2.755
 6976SOL    HW221465   3.897   3.658   2.790
 6977SOL     OW21466   0.209   3.418   2.727
 6977SOL    HW121467   0.282   3.480   2.722
 6977SOL    HW221468   0.227   3.354   2.658
 6978SOL     OW21469   3.756   2.402   2.982
 6978SOL    HW121470   3.839   2.400   2.933
 6978SOL    HW221471   3.782   2.406   3.074
 6979SOL     OW21472   3.898   2.377   3.586
 6979SOL    HW121473   3.923   2.315   3.517
 6979SOL    HW221474   3.859   2.451   3.538
 6980SOL     OW21475   3.939   3.391   3.589
 6980SOL    HW121476   3.927   3.479   3.624
 6980SOL    HW221477   3.990   3.345   3.656
 6981SOL     OW21478   3.859   3.000   3.333
 6981SOL    HW121479   3.934   3.001   3.393
 6981SOL    HW221480   3.891   2.954   3.256
 6982SOL     OW21481   3.810   3.133   2.873
 6982SOL    HW121482   3.782   3.144   2.964
 6982SOL    HW221483   3.753   3.064   2.838
 6983SOL     OW21484   3.842   3.646   3.685
 6983SOL    HW121485   3.791   3.582   3.735
 6983SOL    HW221486   3.888   3.697   3.751
 6984SOL     OW21487   3.801   2.193   1.906
 6984SOL    HW121488   3.717   2.159   1.875
 6984SOL    HW221489   3.820   2.266   1.846
 6985SOL     OW21490   3.762   2.024   2.174
 6985SOL    HW121491   3.754   2.084   2.100
 6985SOL    HW221492   3.852   2.034   2.204
 6986SOL     OW21493   3.801   3.099   2.528
 6986SOL    HW121494   3.794   3.051   2.611
 6986SOL    HW221495   3.879   3.063   2.486
 6987SOL     OW21496   3.751   2.939   2.174
 6987SOL    HW121497   3.841   2.942   2.142
 6987SOL    HW221498   3.735   2.847   2.193
 6988SOL     OW21499   3.954   2.495   3.834
 6988SOL    HW121500   3.873   2.491   3.886
 6988SOL    HW221501   3.930   2.458   3.749
 6989SOL     OW21502   3.962   2.125   4.712
 6989SOL    HW121503   3.966   2.119   4.807
 6989SOL    HW221504   3.869   2.113   4.691
 6990SOL     OW21505   3.721   2.242   4.360
 6990SOL    HW121506   3.643   2.268   4.408
 6990SOL    HW221507   3.699   2.159   4.319
 6991SOL     OW21508   0.011   3.386   4.777
 6991SOL    HW121509   3.958   3.309   4.759
 6991SOL    HW221510   0.077   3.387   4.707
 6992SOL     OW21511   3.941   3.581   4.201
 6992SOL    HW121512   3.949   3.654   4.261
 6992SOL    HW221513   0.031   3.562   4.173
 6993SOL     OW21514   3.942   3.300   4.229
 6993SOL    HW121515   3.925   3.394   4.232
 6993SOL    HW221516   3.887   3.264   4.299
 6994SOL     OW21517   3.814   2.501   4.285
 6994SOL    HW121518   3.783   2.413   4.309
 6994SOL    HW221519   3.810   2.550   4.367
 6995SOL     OW21520   3.756   3.457   3.855
 6995SOL    HW121521   3.736   3.364   3.871
 6995SOL    HW221522   3.725   3.501   3.934
 6996SOL     OW21523   3.823   2.604   5.306
 6996SOL    HW121524   3.904   2.651   5.326
 6996SOL    HW221525   3.757   2.673   5.297
 6997SOL     OW21526   3.805   2.678   4.495
 6997SOL    HW121527   3.899   2.677   4.511
 6997SOL    HW221528   3.772   2.750   4.548
 6998SOL     OW21529   3.849   3.727   5.293
 6998SOL    HW121530   3.846   3.698   5.384
 6998SOL    HW221531   3.765   3.698   5.257
 6999SOL     OW21532   3.921   2.151   5.240
 6999SOL    HW121533   3.840   2.195   5.215
 6999SOL    HW221534   3.893   2.066   5.273
 7000SOL     OW21535   0.000   1.891   3.885
 7000SOL    HW121536   0.037   1.979   3.870
 7000SOL    HW221537   0.059   1.851   3.948
 7001SOL     OW21538   3.811   2.408   5.116
 7001SOL    HW121539   3.906   2.404   5.105
 7001SOL    HW221540   3.796   2.481   5.175
 7002SOL     OW21541   0.279   2.151   4.043
 7002SOL    HW121542   0.297   2.075   3.988
 7002SOL    HW221543   0.326   2.223   4.000
 7003SOL     OW21544   3.793   3.435   5.075
 7003SOL    HW121545   3.767   3.499   5.007
 7003SOL    HW221546   3.888   3.443   5.079
 7004SOL     OW21547   0.065   2.957   4.257
 7004SOL    HW121548   0.056   2.996   4.170
 7004SOL    HW221549   0.138   2.896   4.249
 7005SOL     OW21550   0.003   2.073   4.977
 7005SOL    HW121551   3.973   2.105   5.063
 7005SOL    HW221552   0.012   1.979   4.988
 7006SOL     OW21553   3.750   3.175   5.000
 7006SOL    HW121554   3.792   3.124   5.069
 7006SOL    HW221555   3.765   3.266   5.024
 7007SOL     OW21556   3.995   1.922   4.378
 7007SOL    HW121557   0.004   2.016   4.392
 7007SOL    HW221558   0.018   1.883   4.463
 7008SOL     OW21559   3.727   3.187   3.911
 7008SOL    HW121560   3.641   3.201   3.872
 7008SOL    HW221561   3.718   3.104   3.958
 7009SOL     OW21562   3.803   3.650   4.663
 7009SOL    HW121563   3.780   3.570   4.617
 7009SOL    HW221564   3.897   3.658   4.652
 7010SOL     OW21565   0.209   3.418   4.589
 7010SOL    HW121566   0.282   3.480   4.584
 7010SOL    HW221567   0.227   3.354   4.520
 7011SOL     OW21568   3.756   2.402   4.844
 7011SOL    HW121569   3.839   2.400   4.795
 7011SOL    HW221570   3.782   2.406   4.936
 7012SOL     OW21571   3.898   2.377   5.448
 7012SOL    HW121572   3.923   2.315   5.379
 7012SOL    HW221573   3.859   2.451   5.400
 7013SOL     OW21574   3.939   3.391   5.452
 7013SOL    HW121575   3.927   3.479   5.486
 7013SOL    HW221576   3.990   3.346   5.518
 7014SOL     OW21577   3.859   3.000   5.195
 7014SOL    HW121578   3.934   3.001   5.255
 7014SOL    HW221579   3.891   2.953   5.118
 7015SOL     OW21580   3.810   3.133   4.735
 7015SOL    HW121581   3.782   3.144   4.826
 7015SOL    HW221582   3.753   3.064   4.700
 7016SOL     OW21583   3.842   3.645   5.547
 7016SOL    HW121584   3.791   3.582   5.597
 7016SOL    HW221585   3.888   3.697   5.613
 7017SOL     OW21586   3.801   2.193   3.768
 7017SOL    HW121587   3.717   2.159   3.737
 7017SOL    HW221588   3.820   2.266   3.708
 7018SOL     OW21589   3.762   2.024   4.036
 7018SOL    HW121590   3.754   2.084   3.962
 7018SOL    HW221591   3.852   2.034   4.066
 7019SOL     OW21592   3.801   3.099   4.390
 7019SOL    HW121593   3.794   3.051   4.473
 7019SOL    HW221594   3.879   3.063   4.348
 7020SOL     OW21595   3.751   2.939   4.037
 7020SOL    HW121596   3.841   2.942   4.004
 7020SOL    HW221597   3.735   2.847   4.055
 7021SOL     OW21598   3.954   2.495   5.696
 7021SOL    HW121599   3.873   2.491   5.747
 7021SOL    HW221600   3.930   2.458   5.611
 7022SOL     OW21601   3.962   2.125   6.574
 7022SOL    HW121602   3.966   2.119   6.669
 7022SOL    HW221603   3.869   2.113   6.553
 7023SOL     OW21604   3.722   2.242   6.223
 7023SOL    HW121605   3.643   2.265   6.271
 7023SOL    HW221606   3.700   2.159   6.180
 7024SOL     OW21607   0.012   3.386   6.639
 7024SOL    HW121608   3.958   3.309   6.621
 7024SOL    HW221609   0.077   3.387   6.569
 7025SOL     OW21610   3.941   3.581   6.063
 7025SOL    HW121611   3.949   3.654   6.123
 7025SOL    HW221612   0.031   3.562   6.035
 7026SOL     OW21613   3.942   3.300   6.092
 7026SOL    HW121614   3.925   3.394   6.094
 7026SOL    HW221615   3.886   3.264   6.161
 7027SOL     OW21616   3.812   2.501   6.147
 7027SOL    HW121617   3.783   2.413   6.171
 7027SOL    HW221618   3.810   2.550   6.229
 7028SOL     OW21619   3.756   3.457   5.717
 7028SOL    HW121620   3.736   3.364   5.733
 7028SOL    HW221621   3.725   3.501   5.796
 7029SOL     OW21622   3.824   2.604   7.168
 7029SOL    HW121623   3.905   2.651   7.188
 7029SOL    HW221624   3.758   2.673   7.159
 7030SOL     OW21625   3.805   2.678   6.358
 7030SOL    HW121626   3.899   2.677   6.374
 7030SOL    HW221627   3.772   2.751   6.410
 7031SOL     OW21628   3.849   3.727   7.155
 7031SOL    HW121629   3.846   3.699   7.247
 7031SOL    HW221630   3.765   3.697   7.119
 7032SOL     OW21631   3.922   2.151   7.102
 7032SOL    HW121632   3.840   2.195   7.078
 7032SOL    HW221633   3.894   2.065   7.135
 7033SOL     OW21634   4.000   1.892   5.747
 7033SOL    HW121635   0.038   1.979   5.731
 7033SOL    HW221636   0.059   1.851   5.810
 7034SOL     OW21637   3.811   2.408   6.978
 7034SOL    HW121638   3.906   2.404   6.967
 7034SOL    HW221639   3.796   2.481   7.037
 7035SOL     OW21640   0.279   2.151   5.905
 7035SOL    HW121641   0.297   2.075   5.850
 7035SOL    HW221642   0.326   2.222   5.862
 7036SOL     OW21643   3.793   3.436   6.937
 7036SOL    HW121644   3.767   3.498   6.869
 7036SOL    HW221645   3.888   3.443   6.940
 7037SOL     OW21646   0.065   2.957   6.119
 7037SOL    HW121647   0.056   2.996   6.032
 7037SOL    HW221648   0.139   2.897   6.111
 7038SOL     OW21649   0.002   2.073   6.839
 7038SOL    HW121650   3.974   2.104   6.925
 7038SOL    HW221651   0.014   1.978   6.850
 7039SOL     OW21652   3.749   3.175   6.862
 7039SOL    HW121653   3.793   3.124   6.931
 7039SOL    HW221654   3.764   3.266   6.886
 7040SOL     OW21655   3.994   1.922   6.241
 7040SOL    HW121656   0.005   2.016   6.254
 7040SOL    HW221657   0.018   1.883   6.325
 7041SOL     OW21658   3.727   3.187   5.774
 7041SOL    HW121659   3.641   3.201   5.734
 7041SOL    HW221660   3.718   3.104   5.820
 7042SOL     OW21661   3.803   3.650   6.525
 7042SOL    HW121662   3.780   3.570   6.478
 7042SOL    HW221663   3.898   3.658   6.514
 7043SOL     OW21664   0.209   3.418   6.451
 7043SOL    HW121665   0.282   3.480   6.446
 7043SOL    HW221666   0.227   3.355   6.381
 7044SOL     OW21667   3.756   2.403   6.705
 7044SOL    HW121668   3.839   2.400   6.657
 7044SOL    HW221669   3.783   2.406   6.797
 7045SOL     OW21670   3.897   2.377   7.310
 7045SOL    HW121671   3.924   2.316   7.242
 7045SOL    HW221672   3.858   2.451   7.262
 7046SOL     OW21673   3.939   3.391   7.314
 7046SOL    HW121674   3.927   3.479   7.349
 7046SOL    HW221675   3.992   3.345   7.379
 7047SOL     OW21676   3.859   2.999   7.057
 7047SOL    HW121677   3.934   3.001   7.117
 7047SOL    HW221678   3.892   2.954   6.980
 7048SOL     OW21679   3.810   3.133   6.597
 7048SOL    HW121680   3.782   3.144   6.688
 7048SOL    HW221681   3.753   3.064   6.562
 7049SOL     OW21682   3.842   3.646   7.409
 7049SOL    HW121683   3.791   3.582   7.460
 7049SOL    HW221684   3.888   3.698   7.476
 7050SOL     OW21685   3.800   2.194   5.630
 7050SOL    HW121686   3.717   2.158   5.598
 7050SOL    HW221687   3.820   2.266   5.571
 7051SOL     OW21688   3.762   2.025   5.898
 7051SOL    HW121689   3.754   2.084   5.823
 7051SOL    HW221690   3.852   2.035   5.928
 7052SOL     OW21691   3.801   3.099   6.252
 7052SOL    HW121692   3.796   3.052   6.335
 7052SOL    HW221693   3.879   3.064   6.209
 7053SOL     OW21694   3.751   2.939   5.899
 7053SOL    HW121695   3.841   2.942   5.866
 7053SOL    HW221696   3.735   2.847   5.917
 7054SOL     OW21697   3.953   2.495   7.558
 7054SOL    HW121698   3.872   2.491   7.609
 7054SOL    HW221699   3.930   2.458   7.473
 7055SOL     OW21700   3.962   2.125   8.436
 7055SOL    HW121701   3.966   2.119   8.531
 7055SOL    HW221702   3.869   2.113   8.415
 7056SOL     OW21703   3.722   2.242   8.085
 7056SOL    HW121704   3.643   2.267   8.132
 7056SOL    HW221705   3.700   2.159   8.043
 7057SOL     OW21706   0.012   3.386   8.501
 7057SOL    HW121707   3.958   3.309   8.483
 7057SOL    HW221708   0.077   3.387   8.431
 7058SOL     OW21709   3.941   3.581   7.925
 7058SOL    HW121710   3.949   3.654   7.985
 7058SOL    HW221711   0.030   3.562   7.897
 7059SOL     OW21712   3.942   3.300   7.954
 7059SOL    HW121713   3.925   3.394   7.956
 7059SOL    HW221714   3.887   3.264   8.023
 7060SOL     OW21715   3.813   2.501   8.009
 7060SOL    HW121716   3.783   2.414   8.033
 7060SOL    HW221717   3.810   2.551   8.091
 7061SOL     OW21718   3.756   3.457   7.580
 7061SOL    HW121719   3.737   3.364   7.595
 7061SOL    HW221720   3.725   3.501   7.658
 7062SOL     OW21721   3.823   2.604   9.030
 7062SOL    HW121722   3.904   2.651   9.050
 7062SOL    HW221723   3.757   2.673   9.021
 7063SOL     OW21724   3.805   2.678   8.219
 7063SOL    HW121725   3.899   2.677   8.236
 7063SOL    HW221726   3.772   2.751   8.272
 7064SOL     OW21727   3.849   3.727   9.017
 7064SOL    HW121728   3.846   3.698   9.109
 7064SOL    HW221729   3.765   3.698   8.981
 7065SOL     OW21730   3.921   2.151   8.964
 7065SOL    HW121731   3.840   2.195   8.939
 7065SOL    HW221732   3.893   2.066   8.997
 7066SOL     OW21733   0.000   1.892   7.610
 7066SOL    HW121734   0.037   1.979   7.592
 7066SOL    HW221735   0.062   1.852   7.671
 7067SOL     OW21736   3.811   2.408   8.840
 7067SOL    HW121737   3.906   2.404   8.829
 7067SOL    HW221738   3.796   2.481   8.899
 7068SOL     OW21739   0.277   2.151   7.765
 7068SOL    HW121740   0.297   2.075   7.711
 7068SOL    HW221741   0.327   2.223   7.726
 7069SOL     OW21742   3.793   3.436   8.799
 7069SOL    HW121743   3.767   3.499   8.731
 7069SOL    HW221744   3.888   3.443   8.803
 7070SOL     OW21745   0.065   2.957   7.981
 7070SOL    HW121746   0.056   2.996   7.894
 7070SOL    HW221747   0.140   2.898   7.973
 7071SOL     OW21748   0.003   2.073   8.701
 7071SOL    HW121749   3.973   2.104   8.787
 7071SOL    HW221750   0.013   1.979   8.712
 7072SOL     OW21751   3.749   3.175   8.724
 7072SOL    HW121752   3.792   3.124   8.793
 7072SOL    HW221753   3.764   3.266   8.748
 7073SOL     OW21754   3.994   1.922   8.103
 7073SOL    HW121755   0.004   2.016   8.115
 7073SOL    HW221756   0.018   1.883   8.187
 7074SOL     OW21757   3.727   3.187   7.636
 7074SOL    HW121758   3.641   3.201   7.596
 7074SOL    HW221759   3.718   3.104   7.682
 7075SOL     OW21760   3.803   3.650   8.388
 7075SOL    HW121761   3.780   3.570   8.341
 7075SOL    HW221762   3.898   3.658   8.376
 7076SOL     OW21763   0.209   3.418   8.313
 7076SOL    HW121764   0.282   3.480   8.308
 7076SOL    HW221765   0.226   3.355   8.243
 7077SOL     OW21766   3.756   2.402   8.568
 7077SOL    HW121767   3.838   2.400   8.519
 7077SOL    HW221768   3.782   2.406   8.660
 7078SOL     OW21769   3.898   2.377   9.172
 7078SOL    HW121770   3.923   2.316   9.103
 7078SOL    HW221771   3.859   2.451   9.124
 7079SOL     OW21772   3.939   3.391   9.176
 7079SOL    HW121773   3.927   3.479   9.210
 7079SOL    HW221774   3.990   3.346   9.242
 7080SOL     OW21775   3.859   3.000   8.919
 7080SOL    HW121776   3.934   3.001   8.979
 7080SOL    HW221777   3.892   2.954   8.842
 7081SOL     OW21778   3.810   3.133   8.459
 7081SOL    HW121779   3.782   3.144   8.550
 7081SOL    HW221780   3.753   3.064   8.424
 7082SOL     OW21781   3.842   3.646   9.271
 7082SOL    HW121782   3.791   3.582   9.321
 7082SOL    HW221783   3.888   3.697   9.337
 7083SOL     OW21784   3.800   2.194   7.492
 7083SOL    HW121785   3.717   2.159   7.460
 7083SOL    HW221786   3.820   2.266   7.433
 7084SOL     OW21787   3.761   2.024   7.760
 7084SOL    HW121788   3.754   2.083   7.685
 7084SOL    HW221789   3.851   2.034   7.790
 7085SOL     OW21790   3.801   3.099   8.114
 7085SOL    HW121791   3.795   3.051   8.197
 7085SOL    HW221792   3.878   3.064   8.071
 7086SOL     OW21793   3.751   2.940   7.761
 7086SOL    HW121794   3.841   2.942   7.727
 7086SOL    HW221795   3.735   2.847   7.779
 7087SOL     OW21796   3.954   2.495   9.420
 7087SOL    HW121797   3.873   2.491   9.472
 7087SOL    HW221798   3.930   2.458   9.335
 7088SOL     OW21799   3.962   2.125  10.298
 7088SOL    HW121800   3.966   2.119  10.393
 7088SOL    HW221801   3.869   2.113  10.277
 7089SOL     OW21802   3.722   2.242   9.946
 7089SOL    HW121803   3.643   2.268   9.994
 7089SOL    HW221804   3.699   2.159   9.905
 7090SOL     OW21805   0.012   3.386  10.363
 7090SOL    HW121806   3.958   3.309  10.345
 7090SOL    HW221807   0.077   3.387  10.293
 7091SOL     OW21808   3.941   3.581   9.787
 7091SOL    HW121809   3.949   3.654   9.847
 7091SOL    HW221810   0.031   3.562   9.759
 7092SOL     OW21811   3.942   3.300   9.816
 7092SOL    HW121812   3.925   3.394   9.818
 7092SOL    HW221813   3.887   3.264   9.885
 7093SOL     OW21814   3.814   2.501   9.871
 7093SOL    HW121815   3.783   2.413   9.895
 7093SOL    HW221816   3.810   2.550   9.953
 7094SOL     OW21817   3.756   3.457   9.441
 7094SOL    HW121818   3.736   3.364   9.457
 7094SOL    HW221819   3.725   3.501   9.520
 7095SOL     OW21820   3.823   2.604  10.892
 7095SOL    HW121821   3.904   2.651  10.912
 7095SOL    HW221822   3.757   2.673  10.883
 7096SOL     OW21823   3.805   2.678  10.081
 7096SOL    HW121824   3.899   2.677  10.097
 7096SOL    HW221825   3.772   2.750  10.134
 7097SOL     OW21826   3.849   3.727  10.879
 7097SOL    HW121827   3.846   3.698  10.971
 7097SOL    HW221828   3.765   3.698  10.843
 7098SOL     OW21829   3.921   2.151  10.826
 7098SOL    HW121830   3.840   2.195  10.801
 7098SOL    HW221831   3.893   2.066  10.859
 7099SOL     OW21832   0.000   1.892   9.471
 7099SOL    HW121833   0.037   1.979   9.456
 7099SOL    HW221834   0.060   1.851   9.534
 7100SOL     OW21835   3.811   2.408  10.702
 7100SOL    HW121836   3.906   2.404  10.691
 7100SOL    HW221837   3.796   2.481  10.761
 7101SOL     OW21838   0.280   2.151   9.630
 7101SOL    HW121839   0.296   2.074   9.574
 7101SOL    HW221840   0.326   2.222   9.586
 7102SOL     OW21841   3.793   3.436  10.661
 7102SOL    HW121842   3.766   3.499  10.593
 7102SOL    HW221843   3.888   3.443  10.665
 7103SOL     OW21844   0.065   2.957   9.844
 7103SOL    HW121845   0.056   2.996   9.756
 7103SOL    HW221846   0.138   2.896   9.835
 7104SOL     OW21847   0.003   2.073  10.563
 7104SOL    HW121848   3.973   2.105  10.649
 7104SOL    HW221849   0.011   1.979  10.574
 7105SOL     OW21850   3.750   3.175  10.586
 7105SOL    HW121851   3.792   3.124  10.655
 7105SOL    HW221852   3.765   3.266  10.611
 7106SOL     OW21853   3.995   1.922   9.964
 7106SOL    HW121854   0.004   2.016   9.978
 7106SOL    HW221855   0.018   1.883  10.049
 7107SOL     OW21856   3.727   3.187   9.497
 7107SOL    HW121857   3.641   3.201   9.458
 7107SOL    HW221858   3.718   3.104   9.544
 7108SOL     OW21859   3.803   3.650  10.249
 7108SOL    HW121860   3.780   3.570  10.203
 7108SOL    HW221861   3.897   3.658  10.238
 7109SOL     OW21862   0.209   3.418  10.175
 7109SOL    HW121863   0.282   3.480  10.170
 7109SOL    HW221864   0.227   3.355  10.106
 7110SOL     OW21865   3.756   2.402  10.430
 7110SOL    HW121866   3.839   2.400  10.381
 7110SOL    HW221867   3.782   2.406  10.522
 7111SOL     OW21868   3.898   2.377  11.033
 7111SOL    HW121869   3.923   2.315  10.965
 7111SOL    HW221870   3.859   2.451  10.986
 7112SOL     OW21871   3.939   3.391  11.038
 7112SOL    HW121872   3.927   3.479  11.072
 7112SOL    HW221873   3.990   3.346  11.105
 7113SOL     OW21874   3.859   3.000  10.781
 7113SOL    HW121875   3.934   3.001  10.841
 7113SOL    HW221876   3.891   2.954  10.704
 7114SOL     OW21877   3.810   3.133  10.321
 7114SOL    HW121878   3.782   3.144  10.412
 7114SOL    HW221879   3.753   3.064  10.286
 7115SOL     OW21880   3.842   3.646  11.133
 7115SOL    HW121881   3.791   3.582  11.183
 7115SOL    HW221882   3.888   3.697  11.199
 7116SOL     OW21883   3.801   2.193   9.354
 7116SOL    HW121884   3.717   2.159   9.323
 7116SOL    HW221885   3.820   2.266   9.294
 7117SOL     OW21886   3.762   2.024   9.623
 7117SOL    HW121887   3.754   2.084   9.548
 7117SOL    HW221888   3.852   2.034   9.652
 7118SOL     OW21889   3.801   3.099   9.976
 7118SOL    HW121890   3.794   3.051  10.059
 7118SOL    HW221891   3.879   3.063   9.934
 7119SOL     OW21892   3.751   2.939   9.623
 7119SOL    HW121893   3.841   2.942   9.590
 7119SOL    HW221894   3.735   2.847   9.641
 7120SOL     OW21895   3.954   2.495  11.282
 7120SOL    HW121896   3.873   2.491  11.334
 7120SOL    HW221897   3.930   2.458  11.197
 7121SOL     OW21898   3.962   2.125  12.160
 7121SOL    HW121899   3.966   2.119  12.255
 7121SOL    HW221900   3.869   2.113  12.139
 7122SOL     OW21901   3.722   2.242  11.808
 7122SOL    HW121902   3.643   2.268  11.856
 7122SOL    HW221903   3.699   2.159  11.767
 7123SOL     OW21904   0.012   3.387  12.225
 7123SOL    HW121905   3.958   3.309  12.207
 7123SOL    HW221906   0.077   3.387  12.155
 7124SOL     OW21907   3.941   3.581  11.649
 7124SOL    HW121908   3.949   3.654  11.709
 7124SOL    HW221909   0.031   3.562  11.621
 7125SOL     OW21910   3.942   3.300  11.677
 7125SOL    HW121911   3.925   3.394  11.680
 7125SOL    HW221912   3.887   3.264  11.747
 7126SOL     OW21913   3.814   2.501  11.733
 7126SOL    HW121914   3.783   2.413  11.757
 7126SOL    HW221915   3.810   2.550  11.815
 7127SOL     OW21916   3.756   3.456  11.303
 7127SOL    HW121917   3.736   3.364  11.319
 7127SOL    HW221918   3.725   3.501  11.382
 7128SOL     OW21919   3.823   2.604  12.754
 7128SOL    HW121920   3.904   2.651  12.774
 7128SOL    HW221921   3.757   2.673  12.745
 7129SOL     OW21922   3.805   2.678  11.943
 7129SOL    HW121923   3.899   2.677  11.959
 7129SOL    HW221924   3.772   2.750  11.996
 7130SOL     OW21925   3.849   3.727  12.743
 7130SOL    HW121926   3.847   3.699  12.834
 7130SOL    HW221927   3.766   3.697  12.707
 7131SOL     OW21928   3.921   2.151  12.688
 7131SOL    HW121929   3.840   2.195  12.663
 7131SOL    HW221930   3.893   2.066  12.722
 7132SOL     OW21931   0.000   1.892  11.333
 7132SOL    HW121932   0.037   1.979  11.318
 7132SOL    HW221933   0.059   1.851  11.396
 7133SOL     OW21934   3.811   2.408  12.564
 7133SOL    HW121935   3.906   2.404  12.553
 7133SOL    HW221936   3.796   2.481  12.623
 7134SOL     OW21937   0.280   2.151  11.492
 7134SOL    HW121938   0.296   2.074  11.436
 7134SOL    HW221939   0.326   2.222  11.448
 7135SOL     OW21940   3.793   3.436  12.523
 7135SOL    HW121941   3.766   3.499  12.455
 7135SOL    HW221942   3.888   3.443  12.527
 7136SOL     OW21943   0.065   2.957  11.706
 7136SOL    HW121944   0.056   2.996  11.618
 7136SOL    HW221945   0.138   2.896  11.697
 7137SOL     OW21946   0.003   2.073  12.425
 7137SOL    HW121947   3.973   2.105  12.511
 7137SOL    HW221948   0.012   1.979  12.436
 7138SOL     OW21949   3.750   3.175  12.448
 7138SOL    HW121950   3.792   3.124  12.517
 7138SOL    HW221951   3.765   3.266  12.473
 7139SOL     OW21952   3.995   1.922  11.826
 7139SOL    HW121953   0.004   2.016  11.840
 7139SOL    HW221954   0.018   1.883  11.911
 7140SOL     OW21955   3.727   3.187  11.359
 7140SOL    HW121956   3.641   3.201  11.320
 7140SOL    HW221957   3.718   3.104  11.406
 7141SOL     OW21958   3.803   3.650  12.111
 7141SOL    HW121959   3.780   3.570  12.065
 7141SOL    HW221960   3.898   3.658  12.100
 7142SOL     OW21961   0.209   3.418  12.037
 7142SOL    HW121962   0.282   3.480  12.032
 7142SOL    HW221963   0.227   3.354  11.968
 7143SOL     OW21964   3.756   2.402  12.292
 7143SOL    HW121965   3.839   2.400  12.243
 7143SOL    HW221966   3.782   2.406  12.384
 7144SOL     OW21967   3.898   2.378  12.896
 7144SOL    HW121968   3.923   2.315  12.828
 7144SOL    HW221969   3.859   2.451  12.849
 7145SOL     OW21970   3.939   3.392  12.900
 7145SOL    HW121971   3.927   3.480  12.936
 7145SOL    HW221972   3.988   3.345  12.968
 7146SOL     OW21973   3.859   3.000  12.643
 7146SOL    HW121974   3.934   3.001  12.703
 7146SOL    HW221975   3.891   2.953  12.566
 7147SOL     OW21976   3.810   3.133  12.183
 7147SOL    HW121977   3.782   3.144  12.274
 7147SOL    HW221978   3.753   3.065  12.148
 7148SOL     OW21979   3.843   3.648  12.998
 7148SOL    HW121980   3.793   3.583  13.047
 7148SOL    HW221981   3.888   3.700  13.064
 7149SOL     OW21982   3.801   2.193  11.216
 7149SOL    HW121983   3.717   2.159  11.185
 7149SOL    HW221984   3.820   2.266  11.156
 7150SOL     OW21985   3.762   2.024  11.485
 7150SOL    HW121986   3.754   2.084  11.410
 7150SOL    HW221987   3.852   2.034  11.514
 7151SOL     OW21988   3.801   3.099  11.838
 7151SOL    HW121989   3.794   3.050  11.921
 7151SOL    HW221990   3.879   3.063  11.796
 7152SOL     OW21991   3.751   2.939  11.485
 7152SOL    HW121992   3.841   2.942  11.452
 7152SOL    HW221993   3.735   2.847  11.503
 7153SOL     OW21994   3.951   2.494  13.146
 7153SOL    HW121995   3.868   2.489  13.195
 7153SOL    HW221996   3.930   2.458  13.060
 7154SOL     OW21997   3.720   2.244  13.661
 7154SOL    HW121998   3.633   2.274  13.688
 7154SOL    HW221999   3.704   2.160  13.619
 7155SOL     OW22000   3.942   3.578  13.502
 7155SOL    HW122001   3.938   3.655  13.559
 7155SOL    HW222002   0.036   3.565  13.486
 7156SOL     OW22003   3.943   3.297  13.535
 7156SOL    HW122004   3.928   3.391  13.536
 7156SOL    HW222005   3.885   3.263  13.603
 7157SOL     OW22006   3.942   2.958   0.008
 7157SOL    HW122007   3.981   2.917   0.085
 7157SOL    HW222008   3.851   2.974   0.033
 7158SOL     OW22009   3.833   2.501  13.597
 7158SOL    HW122010   3.782   2.421  13.612
 7158SOL    HW222011   3.817   2.554  13.675
 7159SOL     OW22012   3.753   3.457  13.163
 7159SOL    HW122013   3.735   3.364  13.179
 7159SOL    HW222014   3.723   3.502  13.242
 7160SOL     OW22015   3.801   2.673  13.806
 7160SOL    HW122016   3.895   2.683  13.821
 7160SOL    HW222017   3.761   2.747  13.851
 7161SOL     OW22018   0.119   3.639  13.843
 7161SOL    HW122019   0.075   3.579   0.005
 7161SOL    HW222020   0.189   3.679  13.894
 7162SOL     OW22021   0.001   1.894  13.196
 7162SOL    HW122022   0.043   1.977  13.174
 7162SOL    HW222023   0.061   1.852  13.258
 7163SOL     OW22024   0.277   2.153  13.345
 7163SOL    HW122025   0.299   2.074  13.294
 7163SOL    HW222026   0.331   2.222  13.306
 7164SOL     OW22027   0.067   2.961  13.560
 7164SOL    HW122028   0.062   3.000  13.473
 7164SOL    HW222029   0.142   2.901  13.554
 7165SOL     OW22030   3.980   1.924  13.672
 7165SOL    HW122031   0.001   2.016  13.683
 7165SOL    HW222032   0.022   1.881  13.747
 7166SOL     OW22033   3.727   3.187  13.221
 7166SOL    HW122034   3.641   3.201  13.181
 7166SOL    HW222035   3.718   3.104  13.268
 7167SOL     OW22036   0.321   3.406   0.008
 7167SOL    HW122037   0.256   3.464   0.047
 7167SOL    HW222038   0.270   3.348  13.851
 7168SOL     OW22039   3.801   2.193  13.077
 7168SOL    HW122040   3.717   2.159  13.046
 7168SOL    HW222041   3.820   2.266  13.019
 7169SOL     OW22042   3.763   2.026  13.347
 7169SOL    HW122043   3.756   2.083  13.271
 7169SOL    HW222044   3.854   2.036  13.375
 7170SOL     OW22045   3.808   3.092  13.687
 7170SOL    HW122046   3.802   3.031  13.761
 7170SOL    HW222047   3.885   3.062  13.638
 7171SOL     OW22048   3.751   2.938  13.345
 7171SOL    HW122049   3.840   2.942  13.311
 7171SOL    HW222050   3.737   2.846  13.364
 7172SOL     OW22051   3.965   3.974   0.989
 7172SOL    HW122052   3.967   3.966   1.085
 7172SOL    HW222053   3.875   3.951   0.965
 7173SOL     OW22054   3.749   0.054   0.689
 7173SOL    HW122055   3.673   0.112   0.691
 7173SOL    HW222056   3.716   3.973   0.649
 7174SOL     OW22057   3.909   3.997   1.512
 7174SOL    HW122058   3.820   0.032   1.518
 7174SOL    HW222059   3.906   3.914   1.559
 7175SOL     OW22060   3.976   3.774   0.178
 7175SOL    HW122061   0.011   3.840   0.119
 7175SOL    HW222062   0.047   3.710   0.186
 7176SOL     OW22063   3.996   3.934   1.257
 7176SOL    HW122064   3.956   3.943   1.344
 7176SOL    HW222065   0.029   3.844   1.255
 7177SOL     OW22066   0.023   3.775   0.648
 7177SOL    HW122067   0.044   3.869   0.651
 7177SOL    HW222068   0.032   3.746   0.738
 7178SOL     OW22069   3.784   3.869   0.344
 7178SOL    HW122070   3.788   3.964   0.336
 7178SOL    HW222071   3.858   3.837   0.293
 7179SOL     OW22072   3.966   3.972   2.850
 7179SOL    HW122073   3.967   3.966   2.946
 7179SOL    HW222074   3.875   3.951   2.826
 7180SOL     OW22075   3.746   0.053   2.555
 7180SOL    HW122076   3.671   0.112   2.554
 7180SOL    HW222077   3.714   3.973   2.513
 7181SOL     OW22078   3.910   3.997   3.374
 7181SOL    HW122079   3.821   0.032   3.380
 7181SOL    HW222080   3.906   3.914   3.421
 7182SOL     OW22081   3.987   3.766   2.020
 7182SOL    HW122082   0.028   3.839   1.974
 7182SOL    HW222083   0.056   3.732   2.078
 7183SOL     OW22084   3.996   3.934   3.119
 7183SOL    HW122085   3.956   3.943   3.205
 7183SOL    HW222086   0.028   3.844   3.117
 7184SOL     OW22087   0.015   3.777   2.515
 7184SOL    HW122088   0.047   3.867   2.518
 7184SOL    HW222089   0.028   3.744   2.604
 7185SOL     OW22090   3.805   0.048   1.887
 7185SOL    HW122091   3.742   0.018   1.822
 7185SOL    HW222092   3.806   0.144   1.877
 7186SOL     OW22093   3.781   3.868   2.186
 7186SOL    HW122094   3.777   3.963   2.171
 7186SOL    HW222095   3.865   3.841   2.149
 7187SOL     OW22096   3.966   3.972   4.712
 7187SOL    HW122097   3.967   3.966   4.808
 7187SOL    HW222098   3.875   3.951   4.688
 7188SOL     OW22099   3.746   0.053   4.417
 7188SOL    HW122100   3.671   0.112   4.416
 7188SOL    HW222101   3.714   3.973   4.375
 7189SOL     OW22102   3.910   3.997   5.236
 7189SOL    HW122103   3.821   0.032   5.242
 7189SOL    HW222104   3.906   3.914   5.283
 7190SOL     OW22105   3.987   3.766   3.882
 7190SOL    HW122106   0.028   3.839   3.836
 7190SOL    HW222107   0.056   3.732   3.940
 7191SOL     OW22108   3.996   3.934   4.981
 7191SOL    HW122109   3.956   3.943   5.067
 7191SOL    HW222110   0.028   3.844   4.979
 7192SOL     OW22111   0.015   3.777   4.377
 7192SOL    HW122112   0.047   3.867   4.380
 7192SOL    HW222113   0.028   3.744   4.466
 7193SOL     OW22114   3.806   0.048   3.749
 7193SOL    HW122115   3.742   0.018   3.684
 7193SOL    HW222116   3.806   0.144   3.739
 7194SOL     OW22117   3.781   3.868   4.048
 7194SOL    HW122118   3.777   3.963   4.033
 7194SOL    HW222119   3.865   3.841   4.011
 7195SOL     OW22120   3.966   3.972   6.574
 7195SOL    HW122121   3.967   3.966   6.670
 7195SOL    HW222122   3.875   3.951   6.550
 7196SOL     OW22123   3.746   0.053   6.280
 7196SOL    HW122124   3.672   0.113   6.277
 7196SOL    HW222125   3.714   3.973   6.237
 7197SOL     OW22126   3.910   3.997   7.098
 7197SOL    HW122127   3.821   0.032   7.103
 7197SOL    HW222128   3.906   3.914   7.145
 7198SOL     OW22129   3.987   3.766   5.744
 7198SOL    HW122130   0.028   3.839   5.698
 7198SOL    HW222131   0.056   3.732   5.801
 7199SOL     OW22132   3.997   3.934   6.843
 7199SOL    HW122133   3.956   3.943   6.929
 7199SOL    HW222134   0.029   3.844   6.840
 7200SOL     OW22135   0.015   3.777   6.239
 7200SOL    HW122136   0.047   3.867   6.242
 7200SOL    HW222137   0.028   3.745   6.328
 7201SOL     OW22138   3.806   0.048   5.611
 7201SOL    HW122139   3.742   0.018   5.546
 7201SOL    HW222140   3.806   0.144   5.601
 7202SOL     OW22141   3.781   3.868   5.910
 7202SOL    HW122142   3.777   3.963   5.895
 7202SOL    HW222143   3.865   3.841   5.873
 7203SOL     OW22144   3.965   3.972   8.436
 7203SOL    HW122145   3.967   3.966   8.532
 7203SOL    HW222146   3.875   3.951   8.412
 7204SOL     OW22147   3.746   0.053   8.142
 7204SOL    HW122148   3.671   0.112   8.139
 7204SOL    HW222149   3.715   3.973   8.099
 7205SOL     OW22150   3.910   3.997   8.960
 7205SOL    HW122151   3.821   0.032   8.966
 7205SOL    HW222152   3.906   3.914   9.007
 7206SOL     OW22153   3.987   3.767   7.606
 7206SOL    HW122154   0.028   3.839   7.560
 7206SOL    HW222155   0.056   3.732   7.663
 7207SOL     OW22156   3.996   3.934   8.705
 7207SOL    HW122157   3.956   3.943   8.791
 7207SOL    HW222158   0.028   3.844   8.703
 7208SOL     OW22159   0.014   3.777   8.101
 7208SOL    HW122160   0.048   3.867   8.103
 7208SOL    HW222161   0.027   3.745   8.190
 7209SOL     OW22162   3.805   0.049   7.473
 7209SOL    HW122163   3.742   0.018   7.407
 7209SOL    HW222164   3.805   0.144   7.463
 7210SOL     OW22165   3.781   3.869   7.772
 7210SOL    HW122166   3.777   3.963   7.756
 7210SOL    HW222167   3.864   3.841   7.734
 7211SOL     OW22168   3.966   3.972  10.298
 7211SOL    HW122169   3.967   3.966  10.394
 7211SOL    HW222170   3.875   3.951  10.274
 7212SOL     OW22171   3.746   0.053  10.003
 7212SOL    HW122172   3.671   0.112  10.002
 7212SOL    HW222173   3.714   3.973   9.961
 7213SOL     OW22174   3.910   3.997  10.822
 7213SOL    HW122175   3.821   0.032  10.828
 7213SOL    HW222176   3.906   3.914  10.869
 7214SOL     OW22177   3.987   3.766   9.468
 7214SOL    HW122178   0.028   3.839   9.422
 7214SOL    HW222179   0.056   3.732   9.525
 7215SOL     OW22180   3.996   3.934  10.567
 7215SOL    HW122181   3.956   3.943  10.653
 7215SOL    HW222182   0.028   3.844  10.565
 7216SOL     OW22183   0.015   3.777   9.963
 7216SOL    HW122184   0.047   3.867   9.966
 7216SOL    HW222185   0.028   3.744  10.052
 7217SOL     OW22186   3.805   0.048   9.335
 7217SOL    HW122187   3.742   0.018   9.270
 7217SOL    HW222188   3.806   0.144   9.325
 7218SOL     OW22189   3.781   3.868   9.634
 7218SOL    HW122190   3.777   3.963   9.619
 7218SOL    HW222191   3.865   3.841   9.597
 7219SOL     OW22192   3.966   3.972  12.160
 7219SOL    HW122193   3.967   3.966  12.256
 7219SOL    HW222194   3.875   3.951  12.136
 7220SOL     OW22195   3.746   0.053  11.865
 7220SOL    HW122196   3.671   0.112  11.864
 7220SOL    HW222197   3.714   3.973  11.823
 7221SOL     OW22198   3.909   3.997  12.684
 7221SOL    HW122199   3.820   0.031  12.690
 7221SOL    HW222200   3.906   3.914  12.731
 7222SOL     OW22201   3.987   3.766  11.330
 7222SOL    HW122202   0.028   3.839  11.284
 7222SOL    HW222203   0.056   3.732  11.387
 7223SOL     OW22204   3.996   3.934  12.429
 7223SOL    HW122205   3.956   3.943  12.515
 7223SOL    HW222206   0.028   3.844  12.427
 7224SOL     OW22207   0.015   3.777  11.825
 7224SOL    HW122208   0.047   3.867  11.828
 7224SOL    HW222209   0.028   3.744  11.914
 7225SOL     OW22210   3.805   0.048  11.197
 7225SOL    HW122211   3.742   0.018  11.132
 7225SOL    HW222212   3.806   0.144  11.187
 7226SOL     OW22213   3.781   3.868  11.496
 7226SOL    HW122214   3.777   3.963  11.481
 7226SOL    HW222215   3.865   3.841  11.459
 7227SOL     OW22216   3.740   0.080  13.685
 7227SOL    HW122217   3.668   0.110  13.740
 7227SOL    HW222218   3.719   3.988  13.666
 7228SOL     OW22219   3.988   3.770  13.197
 7228SOL    HW122220   0.032   3.839  13.148
 7228SOL    HW222221   0.056   3.733  13.253
 7229SOL     OW22222   3.974   3.788  13.672
 7229SOL    HW122223   0.023   3.871  13.672
 7229SOL    HW222224   0.021   3.734  13.735
 7230SOL     OW22225   3.806   0.048  13.056
 7230SOL    HW122226   3.742   0.018  12.992
 7230SOL    HW222227   3.806   0.144  13.048
 7231SOL     OW22228   3.777   3.870  13.356
 7231SOL    HW122229   3.778   3.965  13.348
 7231SOL    HW222230   3.859   3.842  13.315
   4.00000   4.00000  13.90000
