2gCDOH_2PEG_l8
22257
    1LIG      O    1   2.821   2.899   8.077
    1LIG      C    2   2.799   2.881   0.136
    1LIG     C1    3   2.889   2.765   0.186
    1LIG     O1    4   2.821   2.692   0.286
    1LIG     C2    5   2.851   2.741   0.414
    1LIG     C3    6   2.753   2.857   0.452
    1LIG     O2    7   2.782   2.905   0.583
    1LIG     C4    8   2.728   2.817   0.683
    1LIG     C5    9   2.832   2.703   0.715
    1LIG     O3   10   2.813   2.646   0.840
    1LIG     C6   11   2.881   2.709   0.945
    1LIG     C7   12   2.800   2.836   0.983
    1LIG     O4   13   2.845   2.889   1.104
    1LIG     C8   14   2.778   2.834   1.212
    1LIG     C9   15   2.867   2.719   1.265
    1LIG     O5   16   2.809   2.667   1.379
    1LIG    C10   17   2.862   2.723   1.492
    1LIG    C11   18   2.775   2.846   1.530
    1LIG     O6   19   2.832   2.903   1.642
    1LIG    C12   20   2.778   2.843   1.756
    1LIG    C13   21   2.862   2.719   1.798
    1LIG     O7   22   2.807   2.666   1.914
    1LIG    C14   23   2.862   2.727   2.026
    1LIG    C15   24   2.769   2.846   2.068
    1LIG     O8   25   2.821   2.914   2.178
    1LIG    C16   26   2.765   2.866   2.295
    1LIG    C17   27   2.843   2.739   2.336
    1LIG     O9   28   2.777   2.679   2.440
    1LIG    C18   29   2.826   2.716   2.562
    1LIG    C19   30   2.753   2.840   2.614
    1LIG    O10   31   2.839   2.891   2.711
    1LIG    C20   32   2.808   2.834   2.835
    1LIG    C21   33   2.883   2.704   2.870
    1LIG    O11   34   2.819   2.656   2.985
    1LIG    C22   35   2.862   2.721   3.103
    1LIG    C23   36   2.774   2.846   3.139
    1LIG    O12   37   2.813   2.901   3.265
    1LIG    C24   38   2.747   2.837   3.372
    1LIG    C25   39   2.837   2.719   3.416
    1LIG    O13   40   2.790   2.657   3.530
    1LIG    C26   41   2.823   2.716   3.649
    1LIG    C27   42   2.700   2.803   3.694
    1LIG    O14   43   2.659   2.762   3.822
    1LIG    C28   44   2.743   2.804   3.925
    1LIG    C29   45   2.857   2.700   3.953
    1LIG    O15   46   2.841   2.648   4.081
    1LIG    C30   47   2.891   2.734   4.178
    1LIG    C31   48   2.788   2.847   4.211
    1LIG    O16   49   2.826   2.912   4.327
    1LIG    C32   50   2.769   2.851   4.440
    1LIG    C33   51   2.852   2.725   4.483
    1LIG    O17   52   2.795   2.663   4.592
    1LIG    C34   53   2.840   2.708   4.713
    1LIG    C35   54   2.753   2.829   4.755
    1LIG    O18   55   2.821   2.896   4.855
    1LIG    C36   56   2.783   2.849   4.979
    1LIG    C37   57   2.876   2.731   5.017
    1LIG    O19   58   2.820   2.664   5.125
    1LIG    C38   59   2.868   2.718   5.243
    1LIG    C39   60   2.774   2.835   5.284
    1LIG    O20   61   2.831   2.897   5.394
    1LIG    C40   62   2.779   2.840   5.509
    1LIG    C41   63   2.862   2.716   5.549
    1LIG    O21   64   2.808   2.661   5.665
    1LIG    C42   65   2.860   2.722   5.778
    1LIG    C43   66   2.766   2.842   5.818
    1LIG    O22   67   2.820   2.915   5.925
    1LIG    C44   68   2.765   2.870   6.045
    1LIG    C45   69   2.847   2.749   6.092
    1LIG    O23   70   2.775   2.689   6.194
    1LIG    C46   71   2.824   2.725   6.317
    1LIG    C47   72   2.753   2.851   6.365
    1LIG    O24   73   2.837   2.898   6.466
    1LIG    C48   74   2.799   2.834   6.586
    1LIG    C49   75   2.878   2.705   6.619
    1LIG    O25   76   2.823   2.662   6.741
    1LIG    C50   77   2.870   2.740   6.850
    1LIG    C51   78   2.768   2.855   6.890
    1LIG    O26   79   2.799   2.908   7.019
    1LIG    C52   80   2.735   2.835   7.121
    1LIG    C53   81   2.831   2.720   7.160
    1LIG    O27   82   2.797   2.655   7.279
    1LIG    C54   83   2.842   2.719   7.393
    1LIG    C55   84   2.730   2.815   7.439
    1LIG    O28   85   2.675   2.779   7.565
    1LIG    C56   86   2.745   2.832   7.675
    1LIG    C57   87   2.865   2.738   7.712
    1LIG    O29   88   2.834   2.652   7.820
    1LIG    C58   89   2.880   2.704   7.942
    1LIG    C59   90   2.767   2.787   8.007
    1LIG      H   91   2.693   2.856   0.154
    1LIG     H1   92   2.821   2.973   0.190
    1LIG     H2   93   2.985   2.804   0.221
    1LIG     H3   94   2.909   2.691   0.109
    1LIG     H4   95   2.956   2.773   0.423
    1LIG     H5   96   2.839   2.653   0.475
    1LIG     H6   97   2.649   2.825   0.445
    1LIG     H7   98   2.765   2.941   0.383
    1LIG     H8   99   2.633   2.777   0.649
    1LIG     H9  100   2.701   2.879   0.768
    1LIG    H10  101   2.934   2.739   0.705
    1LIG    H11  102   2.818   2.617   0.650
    1LIG    H12  103   2.984   2.734   0.918
    1LIG    H13  104   2.883   2.634   1.021
    1LIG    H14  105   2.693   2.812   0.987
    1LIG    H15  106   2.818   2.915   0.910
    1LIG    H16  107   2.676   2.799   1.189
    1LIG    H17  108   2.767   2.917   1.280
    1LIG    H18  109   2.970   2.753   1.282
    1LIG    H19  110   2.871   2.634   1.199
    1LIG    H20  111   2.968   2.749   1.483
    1LIG    H21  112   2.854   2.640   1.559
    1LIG    H22  113   2.669   2.820   1.543
    1LIG    H23  114   2.781   2.925   1.457
    1LIG    H24  115   2.672   2.817   1.745
    1LIG    H25  116   2.787   2.925   1.824
    1LIG    H26  117   2.967   2.747   1.808
    1LIG    H27  118   2.856   2.633   1.733
    1LIG    H28  119   2.965   2.760   2.011
    1LIG    H29  120   2.867   2.643   2.093
    1LIG    H30  121   2.666   2.813   2.083
    1LIG    H31  122   2.762   2.926   1.996
    1LIG    H32  123   2.658   2.844   2.283
    1LIG    H33  124   2.776   2.947   2.366
    1LIG    H34  125   2.949   2.760   2.356
    1LIG    H35  126   2.837   2.660   2.264
    1LIG    H36  127   2.933   2.737   2.556
    1LIG    H37  128   2.810   2.630   2.626
    1LIG    H38  129   2.653   2.814   2.651
    1LIG    H39  130   2.739   2.919   2.542
    1LIG    H40  131   2.700   2.818   2.846
    1LIG    H41  132   2.842   2.910   2.902
    1LIG    H42  133   2.988   2.724   2.888
    1LIG    H43  134   2.875   2.624   2.797
    1LIG    H44  135   2.969   2.744   3.101
    1LIG    H45  136   2.844   2.643   3.173
    1LIG    H46  137   2.667   2.823   3.136
    1LIG    H47  138   2.790   2.929   3.072
    1LIG    H48  139   2.648   2.807   3.342
    1LIG    H49  140   2.731   2.909   3.453
    1LIG    H50  141   2.943   2.747   3.425
    1LIG    H51  142   2.824   2.639   3.346
    1LIG    H52  143   2.920   2.767   3.643
    1LIG    H53  144   2.837   2.629   3.710
    1LIG    H54  145   2.617   2.790   3.624
    1LIG    H55  146   2.715   2.910   3.702
    1LIG    H56  147   2.674   2.809   4.009
    1LIG    H57  148   2.782   2.905   3.906
    1LIG    H58  149   2.956   2.744   3.946
    1LIG    H59  150   2.855   2.614   3.888
    1LIG    H60  151   2.987   2.779   4.150
    1LIG    H61  152   2.917   2.667   4.258
    1LIG    H62  153   2.685   2.809   4.218
    1LIG    H63  154   2.790   2.924   4.133
    1LIG    H64  155   2.664   2.825   4.424
    1LIG    H65  156   2.773   2.932   4.511
    1LIG    H66  157   2.958   2.747   4.498
    1LIG    H67  158   2.840   2.643   4.413
    1LIG    H68  159   2.947   2.733   4.711
    1LIG    H69  160   2.825   2.622   4.778
    1LIG    H70  161   2.652   2.799   4.784
    1LIG    H71  162   2.740   2.905   4.681
    1LIG    H72  163   2.677   2.821   4.982
    1LIG    H73  164   2.798   2.937   5.041
    1LIG    H74  165   2.978   2.765   5.036
    1LIG    H75  166   2.885   2.652   4.944
    1LIG    H76  167   2.972   2.750   5.235
    1LIG    H77  168   2.866   2.632   5.307
    1LIG    H78  169   2.670   2.803   5.301
    1LIG    H79  170   2.768   2.914   5.214
    1LIG    H80  171   2.672   2.815   5.500
    1LIG    H81  172   2.791   2.923   5.575
    1LIG    H82  173   2.967   2.742   5.558
    1LIG    H83  174   2.853   2.632   5.482
    1LIG    H84  175   2.964   2.755   5.765
    1LIG    H85  176   2.860   2.640   5.848
    1LIG    H86  177   2.664   2.808   5.836
    1LIG    H87  178   2.755   2.919   5.745
    1LIG    H88  179   2.659   2.842   6.033
    1LIG    H89  180   2.771   2.955   6.112
    1LIG    H90  181   2.950   2.778   6.119
    1LIG    H91  182   2.856   2.669   6.022
    1LIG    H92  183   2.932   2.742   6.314
    1LIG    H93  184   2.806   2.639   6.380
    1LIG    H94  185   2.651   2.828   6.397
    1LIG    H95  186   2.747   2.930   6.292
    1LIG    H96  187   2.692   2.813   6.591
    1LIG    H97  188   2.825   2.909   6.657
    1LIG    H98  189   2.985   2.725   6.628
    1LIG    H99  190   2.865   2.622   6.551
    1LIG   H100  191   2.971   2.778   6.833
    1LIG   H101  192   2.880   2.665   6.925
    1LIG   H102  193   2.664   2.819   6.885
    1LIG   H103  194   2.772   2.942   6.825
    1LIG   H104  195   2.638   2.799   7.086
    1LIG   H105  196   2.713   2.905   7.202
    1LIG   H106  197   2.936   2.754   7.160
    1LIG   H107  198   2.815   2.642   7.089
    1LIG   H108  199   2.936   2.771   7.374
    1LIG   H109  200   2.859   2.636   7.460
    1LIG   H110  201   2.648   2.809   7.367
    1LIG   H111  202   2.765   2.917   7.445
    1LIG   H112  203   2.672   2.839   7.755
    1LIG   H113  204   2.780   2.934   7.654
    1LIG   H114  205   2.953   2.799   7.733
    1LIG   H115  206   2.893   2.671   7.633
    1LIG   H116  207   2.971   2.765   7.928
    1LIG   H117  208   2.906   2.619   8.005
    1LIG   H118  209   2.691   2.823   7.938
    1LIG   H119  210   2.716   2.720   8.075
    2LIG      O  211   2.638   2.484   8.048
    2LIG      C  212   2.633   2.496   0.110
    2LIG     C1  213   2.498   2.442   0.162
    2LIG     O1  214   2.454   2.526   0.264
    2LIG     C2  215   2.473   2.467   0.389
    2LIG     C3  216   2.587   2.539   0.453
    2LIG     O2  217   2.602   2.477   0.577
    2LIG     C4  218   2.529   2.547   0.676
    2LIG     C5  219   2.407   2.469   0.724
    2LIG     O3  220   2.354   2.531   0.842
    2LIG     C6  221   2.423   2.487   0.960
    2LIG     C7  222   2.549   2.569   0.992
    2LIG     O4  223   2.621   2.497   1.084
    2LIG     C8  224   2.592   2.528   1.213
    2LIG     C9  225   2.513   2.411   1.268
    2LIG     O5  226   2.573   2.371   1.390
    2LIG    C10  227   2.506   2.432   1.500
    2LIG    C11  228   2.565   2.571   1.529
    2LIG     O6  229   2.490   2.632   1.632
    2LIG    C12  230   2.529   2.581   1.758
    2LIG    C13  231   2.427   2.475   1.802
    2LIG     O7  232   2.375   2.525   1.920
    2LIG    C14  233   2.435   2.463   2.029
    2LIG    C15  234   2.571   2.531   2.063
    2LIG     O8  235   2.623   2.476   2.181
    2LIG    C16  236   2.569   2.538   2.296
    2LIG    C17  237   2.432   2.477   2.337
    2LIG     O9  238   2.376   2.547   2.445
    2LIG    C18  239   2.409   2.485   2.564
    2LIG    C19  240   2.532   2.563   2.613
    2LIG    O10  241   2.608   2.487   2.704
    2LIG    C20  242   2.584   2.531   2.834
    2LIG    C21  243   2.446   2.474   2.872
    2LIG    O11  244   2.397   2.523   2.994
    2LIG    C22  245   2.452   2.449   3.098
    2LIG    C23  246   2.580   2.520   3.143
    2LIG    O12  247   2.600   2.483   3.277
    2LIG    C24  248   2.533   2.573   3.362
    2LIG    C25  249   2.394   2.523   3.401
    2LIG    O13  250   2.356   2.567   3.531
    2LIG    C26  251   2.408   2.480   3.633
    2LIG    C27  252   2.538   2.536   3.682
    2LIG    O14  253   2.598   2.453   3.776
    2LIG    C28  254   2.571   2.495   3.906
    2LIG    C29  255   2.461   2.403   3.954
    2LIG    O15  256   2.500   2.344   4.076
    2LIG    C30  257   2.469   2.429   4.184
    2LIG    C31  258   2.577   2.536   4.210
    2LIG    O16  259   2.617   2.521   4.342
    2LIG    C32  260   2.530   2.588   4.430
    2LIG    C33  261   2.404   2.506   4.467
    2LIG    O17  262   2.344   2.558   4.586
    2LIG    C34  263   2.402   2.497   4.702
    2LIG    C35  264   2.521   2.579   4.752
    2LIG    O18  265   2.597   2.497   4.833
    2LIG    C36  266   2.594   2.536   4.965
    2LIG    C37  267   2.503   2.436   5.033
    2LIG    O19  268   2.575   2.375   5.140
    2LIG    C38  269   2.523   2.420   5.262
    2LIG    C39  270   2.570   2.565   5.285
    2LIG    O20  271   2.485   2.628   5.380
    2LIG    C40  272   2.519   2.583   5.510
    2LIG    C41  273   2.415   2.479   5.559
    2LIG    O21  274   2.362   2.526   5.681
    2LIG    C42  275   2.428   2.474   5.795
    2LIG    C43  276   2.560   2.553   5.816
    2LIG    O22  277   2.645   2.493   5.912
    2LIG    C44  278   2.604   2.525   6.044
    2LIG    C45  279   2.493   2.430   6.085
    2LIG    O23  280   2.522   2.382   6.215
    2LIG    C46  281   2.445   2.451   6.312
    2LIG    C47  282   2.514   2.586   6.352
    2LIG    O24  283   2.456   2.641   6.472
    2LIG    C48  284   2.526   2.597   6.591
    2LIG    C49  285   2.456   2.469   6.642
    2LIG    O25  286   2.539   2.390   6.725
    2LIG    C50  287   2.509   2.412   6.861
    2LIG    C51  288   2.604   2.520   6.908
    2LIG    O26  289   2.631   2.496   7.044
    2LIG    C52  290   2.539   2.565   7.126
    2LIG    C53  291   2.418   2.479   7.160
    2LIG    O27  292   2.363   2.528   7.281
    2LIG    C54  293   2.417   2.457   7.393
    2LIG    C55  294   2.554   2.519   7.441
    2LIG    O28  295   2.611   2.454   7.554
    2LIG    C56  296   2.574   2.515   7.677
    2LIG    C57  297   2.440   2.455   7.717
    2LIG    O29  298   2.378   2.533   7.816
    2LIG    C58  299   2.416   2.488   7.943
    2LIG    C59  300   2.537   2.570   7.989
    2LIG      H  301   2.642   2.602   0.137
    2LIG     H1  302   2.718   2.446   0.157
    2LIG     H2  303   2.504   2.337   0.190
    2LIG     H3  304   2.417   2.449   0.092
    2LIG     H4  305   2.496   2.360   0.383
    2LIG     H5  306   2.381   2.481   0.444
    2LIG     H6  307   2.562   2.645   0.463
    2LIG     H7  308   2.679   2.527   0.396
    2LIG     H8  309   2.495   2.646   0.646
    2LIG     H9  310   2.605   2.560   0.747
    2LIG    H10  311   2.431   2.363   0.741
    2LIG    H11  312   2.332   2.476   0.646
    2LIG    H12  313   2.446   2.381   0.950
    2LIG    H13  314   2.356   2.501   1.045
    2LIG    H14  315   2.527   2.672   1.022
    2LIG    H15  316   2.622   2.572   0.916
    2LIG    H16  317   2.537   2.624   1.223
    2LIG    H17  318   2.688   2.532   1.261
    2LIG    H18  319   2.514   2.327   1.198
    2LIG    H19  320   2.410   2.446   1.280
    2LIG    H20  321   2.514   2.365   1.586
    2LIG    H21  322   2.400   2.448   1.478
    2LIG    H22  323   2.557   2.637   1.442
    2LIG    H23  324   2.669   2.560   1.559
    2LIG    H24  325   2.532   2.665   1.828
    2LIG    H25  326   2.629   2.535   1.756
    2LIG    H26  327   2.474   2.377   1.816
    2LIG    H27  328   2.343   2.465   1.734
    2LIG    H28  329   2.448   2.355   2.017
    2LIG    H29  330   2.357   2.478   2.100
    2LIG    H30  331   2.560   2.640   2.073
    2LIG    H31  332   2.643   2.509   1.984
    2LIG    H32  333   2.564   2.647   2.286
    2LIG    H33  334   2.641   2.509   2.371
    2LIG    H34  335   2.448   2.371   2.356
    2LIG    H35  336   2.350   2.489   2.270
    2LIG    H36  337   2.430   2.378   2.553
    2LIG    H37  338   2.321   2.496   2.627
    2LIG    H38  339   2.504   2.662   2.651
    2LIG    H39  340   2.599   2.581   2.533
    2LIG    H40  341   2.584   2.641   2.838
    2LIG    H41  342   2.663   2.492   2.897
    2LIG    H42  343   2.449   2.364   2.870
    2LIG    H43  344   2.371   2.506   2.802
    2LIG    H44  345   2.472   2.346   3.068
    2LIG    H45  346   2.375   2.445   3.175
    2LIG    H46  347   2.568   2.629   3.134
    2LIG    H47  348   2.667   2.489   3.087
    2LIG    H48  349   2.520   2.672   3.320
    2LIG    H49  350   2.599   2.582   3.443
    2LIG    H50  351   2.390   2.414   3.394
    2LIG    H51  352   2.323   2.565   3.329
    2LIG    H52  353   2.421   2.377   3.598
    2LIG    H53  354   2.338   2.482   3.718
    2LIG    H54  355   2.512   2.635   3.719
    2LIG    H55  356   2.615   2.542   3.610
    2LIG    H56  357   2.532   2.597   3.912
    2LIG    H57  358   2.664   2.488   3.961
    2LIG    H58  359   2.442   2.323   3.881
    2LIG    H59  360   2.369   2.461   3.965
    2LIG    H60  361   2.456   2.364   4.271
    2LIG    H61  362   2.376   2.482   4.166
    2LIG    H62  363   2.539   2.638   4.194
    2LIG    H63  364   2.665   2.520   4.150
    2LIG    H64  365   2.504   2.689   4.398
    2LIG    H65  366   2.594   2.599   4.512
    2LIG    H66  367   2.432   2.401   4.481
    2LIG    H67  368   2.331   2.511   4.385
    2LIG    H68  369   2.440   2.398   4.679
    2LIG    H69  370   2.328   2.490   4.782
    2LIG    H70  371   2.492   2.675   4.793
    2LIG    H71  372   2.598   2.598   4.682
    2LIG    H72  373   2.554   2.638   4.977
    2LIG    H73  374   2.696   2.529   4.999
    2LIG    H74  375   2.467   2.360   4.965
    2LIG    H75  376   2.418   2.494   5.068
    2LIG    H76  377   2.553   2.353   5.343
    2LIG    H77  378   2.413   2.422   5.258
    2LIG    H78  379   2.563   2.626   5.194
    2LIG    H79  380   2.673   2.565   5.319
    2LIG    H80  381   2.520   2.671   5.575
    2LIG    H81  382   2.619   2.538   5.513
    2LIG    H82  383   2.462   2.381   5.571
    2LIG    H83  384   2.333   2.469   5.487
    2LIG    H84  385   2.449   2.367   5.782
    2LIG    H85  386   2.362   2.486   5.880
    2LIG    H86  387   2.537   2.656   5.843
    2LIG    H87  388   2.617   2.551   5.724
    2LIG    H88  389   2.571   2.629   6.052
    2LIG    H89  390   2.688   2.506   6.110
    2LIG    H90  391   2.489   2.344   6.017
    2LIG    H91  392   2.399   2.484   6.083
    2LIG    H92  393   2.442   2.379   6.392
    2LIG    H93  394   2.342   2.469   6.280
    2LIG    H94  395   2.504   2.659   6.271
    2LIG    H95  396   2.620   2.567   6.366
    2LIG    H96  397   2.518   2.675   6.667
    2LIG    H97  398   2.632   2.579   6.570
    2LIG    H98  399   2.426   2.401   6.565
    2LIG    H99  400   2.363   2.499   6.691
    2LIG   H100  401   2.523   2.319   6.916
    2LIG   H101  402   2.407   2.447   6.875
    2LIG   H102  403   2.559   2.620   6.893
    2LIG   H103  404   2.697   2.513   6.853
    2LIG   H104  405   2.505   2.659   7.082
    2LIG   H105  406   2.593   2.594   7.214
    2LIG   H106  407   2.448   2.374   7.170
    2LIG   H107  408   2.344   2.489   7.080
    2LIG   H108  409   2.430   2.350   7.372
    2LIG   H109  410   2.338   2.466   7.465
    2LIG   H110  411   2.539   2.626   7.457
    2LIG   H111  412   2.631   2.503   7.366
    2LIG   H112  413   2.560   2.622   7.668
    2LIG   H113  414   2.652   2.494   7.751
    2LIG   H114  415   2.453   2.351   7.745
    2LIG   H115  416   2.369   2.457   7.638
    2LIG   H116  417   2.441   2.381   7.942
    2LIG   H117  418   2.329   2.502   8.009
    2LIG   H118  419   2.581   2.626   7.907
    2LIG   H119  420   2.500   2.643   8.062
    3MOL     C1  421   3.334   2.855   3.478
    3MOL     H1  422   3.437   2.818   3.475
    3MOL     O1  423   3.299   2.909   3.349
    3MOL     C2  424   3.166   2.967   3.340
    3MOL     H2  425   3.091   2.892   3.367
    3MOL     C3  426   3.139   3.010   3.195
    3MOL     H3  427   3.034   3.038   3.188
    3MOL     H4  428   3.156   2.924   3.129
    3MOL     O2  429   3.222   3.119   3.157
    3MOL     H5  430   3.195   3.139   3.065
    3MOL     C4  431   3.325   2.966   3.585
    3MOL     H6  432   3.401   3.043   3.565
    3MOL     O3  433   3.344   2.911   3.714
    3MOL     H7  434   3.319   2.815   3.710
    3MOL     C5  435   3.187   3.033   3.581
    3MOL     H8  436   3.118   2.950   3.599
    3MOL     O4  437   3.174   3.133   3.684
    3MOL     H9  438   3.184   3.085   3.769
    3MOL     C6  439   3.156   3.087   3.439
    3MOL    H10  440   3.227   3.166   3.413
    3MOL     O5  441   3.020   3.136   3.440
    3MOL     C7  442   2.986   3.268   3.392
    3MOL    H11  443   3.074   3.317   3.348
    3MOL     O6  444   2.883   3.252   3.291
    3MOL     C8  445   2.762   3.190   3.340
    3MOL    H12  446   2.787   3.098   3.390
    3MOL     C9  447   2.668   3.154   3.222
    3MOL    H13  448   2.599   3.074   3.253
    3MOL    H14  449   2.729   3.115   3.140
    3MOL     O7  450   2.592   3.265   3.176
    3MOL    H15  451   2.519   3.274   3.241
    3MOL    C10  452   2.931   3.355   3.510
    3MOL    H16  453   2.912   3.456   3.471
    3MOL     O8  454   3.029   3.365   3.613
    3MOL    H17  455   3.048   3.274   3.644
    3MOL    C11  456   2.796   3.302   3.565
    3MOL    H18  457   2.814   3.206   3.612
    3MOL     O9  458   2.742   3.387   3.667
    3MOL    H19  459   2.813   3.398   3.734
    3MOL    C12  460   2.698   3.282   3.446
    3MOL    H20  461   2.677   3.379   3.401
    3MOL    O10  462   2.576   3.220   3.493
    3MOL    C13  463   2.458   3.300   3.470
    3MOL    H21  464   2.485   3.404   3.446
    3MOL    O11  465   2.382   3.244   3.359
    3MOL    C14  466   2.322   3.114   3.383
    3MOL    H22  467   2.401   3.042   3.409
    3MOL    C15  468   2.250   3.062   3.256
    3MOL    H23  469   2.259   2.953   3.253
    3MOL    H24  470   2.301   3.101   3.169
    3MOL    O12  471   2.111   3.095   3.248
    3MOL    H25  472   2.068   3.029   3.308
    3MOL    C16  473   2.374   3.306   3.600
    3MOL    H26  474   2.305   3.390   3.589
    3MOL    O13  475   2.461   3.330   3.709
    3MOL    H27  476   2.547   3.355   3.668
    3MOL    C17  477   2.294   3.178   3.629
    3MOL    H28  478   2.366   3.100   3.660
    3MOL    O14  479   2.197   3.199   3.732
    3MOL    H29  480   2.243   3.217   3.818
    3MOL    C18  481   2.225   3.128   3.502
    3MOL    H30  482   2.146   3.200   3.474
    3MOL    O15  483   2.171   2.999   3.531
    3MOL    C19  484   2.028   2.988   3.527
    3MOL    H31  485   1.981   3.088   3.527
    3MOL    O16  486   1.992   2.912   3.407
    3MOL    C20  487   2.049   2.777   3.403
    3MOL    H32  488   2.158   2.785   3.411
    3MOL    C21  489   2.022   2.705   3.267
    3MOL    H33  490   2.102   2.631   3.251
    3MOL    H34  491   2.028   2.779   3.186
    3MOL    O17  492   1.899   2.633   3.259
    3MOL    H35  493   1.909   2.558   3.321
    3MOL    C22  494   1.981   2.914   3.654
    3MOL    H36  495   1.872   2.912   3.650
    3MOL    O18  496   2.025   2.984   3.768
    3MOL    H37  497   2.092   3.050   3.737
    3MOL    C23  498   2.038   2.770   3.657
    3MOL    H38  499   2.147   2.776   3.659
    3MOL    O19  500   1.992   2.698   3.774
    3MOL    H39  501   1.919   2.751   3.813
    3MOL    C24  502   1.997   2.698   3.526
    3MOL    H40  503   1.887   2.693   3.522
    3MOL    O20  504   2.055   2.566   3.526
    3MOL    C25  505   1.963   2.455   3.520
    3MOL    H41  506   1.859   2.489   3.533
    3MOL    O21  507   1.978   2.391   3.390
    3MOL    C26  508   2.111   2.339   3.363
    3MOL    H42  509   2.179   2.423   3.369
    3MOL    C27  510   2.123   2.282   3.220
    3MOL    H43  511   2.229   2.263   3.197
    3MOL    H44  512   2.088   2.358   3.149
    3MOL    O22  513   2.049   2.161   3.207
    3MOL    H45  514   2.011   2.155   3.117
    3MOL    C28  515   1.996   2.355   3.634
    3MOL    H46  516   1.924   2.273   3.635
    3MOL    O23  517   1.997   2.419   3.761
    3MOL    H47  518   1.993   2.516   3.745
    3MOL    C29  519   2.134   2.294   3.613
    3MOL    H48  520   2.199   2.380   3.617
    3MOL    O24  521   2.166   2.204   3.719
    3MOL    H49  522   2.122   2.243   3.797
    3MOL    C30  523   2.150   2.235   3.472
    3MOL    H50  524   2.087   2.145   3.463
    3MOL    O25  525   2.291   2.203   3.459
    3MOL    C31  526   2.323   2.073   3.406
    3MOL    H51  527   2.233   2.026   3.363
    3MOL    O26  528   2.423   2.090   3.302
    3MOL    C32  529   2.552   2.143   3.346
    3MOL    H52  530   2.537   2.241   3.393
    3MOL    C33  531   2.646   2.161   3.224
    3MOL    H53  532   2.731   2.223   3.253
    3MOL    H54  533   2.593   2.214   3.145
    3MOL    O27  534   2.690   2.036   3.172
    3MOL    H55  535   2.786   2.048   3.151
    3MOL    C34  536   2.378   1.984   3.521
    3MOL    H56  537   2.391   1.883   3.482
    3MOL    O28  538   2.289   1.978   3.631
    3MOL    H57  539   2.248   2.069   3.637
    3MOL    C35  540   2.515   2.030   3.571
    3MOL    H58  541   2.503   2.130   3.617
    3MOL    O29  542   2.565   1.936   3.669
    3MOL    H59  543   2.488   1.914   3.726
    3MOL    C36  544   2.609   2.045   3.451
    3MOL    H60  545   2.623   1.947   3.402
    3MOL    O30  546   2.734   2.094   3.500
    3MOL    C37  547   2.839   1.996   3.503
    3MOL    H61  548   2.799   1.894   3.496
    3MOL    O31  549   2.927   2.022   3.391
    3MOL    C38  550   2.986   2.155   3.391
    3MOL    H62  551   2.908   2.231   3.395
    3MOL    C39  552   3.064   2.174   3.258
    3MOL    H63  553   3.135   2.092   3.245
    3MOL    H64  554   3.123   2.267   3.263
    3MOL    O32  555   2.972   2.180   3.148
    3MOL    H65  556   3.018   2.213   3.069
    3MOL    C40  557   2.915   2.008   3.636
    3MOL    H66  558   2.989   1.928   3.644
    3MOL    O33  559   2.823   1.999   3.745
    3MOL    H67  560   2.735   1.979   3.703
    3MOL    C41  561   2.988   2.143   3.643
    3MOL    H68  562   2.909   2.219   3.644
    3MOL    O34  563   3.065   2.149   3.764
    3MOL    H69  564   3.012   2.100   3.829
    3MOL    C42  565   3.073   2.170   3.518
    3MOL    H70  566   3.157   2.099   3.513
    3MOL    O35  567   3.119   2.307   3.527
    3MOL    C43  568   3.261   2.325   3.540
    3MOL    H71  569   3.311   2.228   3.548
    3MOL    O36  570   3.308   2.393   3.422
    3MOL    C44  571   3.257   2.528   3.402
    3MOL    H72  572   3.148   2.528   3.404
    3MOL    C45  573   3.303   2.576   3.263
    3MOL    H73  574   3.413   2.570   3.258
    3MOL    H74  575   3.274   2.680   3.248
    3MOL    O37  576   3.244   2.495   3.159
    3MOL    H75  577   3.267   2.539   3.075
    3MOL    C46  578   3.296   2.409   3.665
    3MOL    H76  579   3.405   2.410   3.671
    3MOL    O38  580   3.245   2.354   3.785
    3MOL    H77  581   3.178   2.284   3.759
    3MOL    C47  582   3.246   2.554   3.651
    3MOL    H78  583   3.136   2.550   3.644
    3MOL    O39  584   3.284   2.631   3.766
    3MOL    H79  585   3.315   2.564   3.831
    3MOL    C48  586   3.301   2.616   3.521
    3MOL    H80  587   3.411   2.620   3.525
    3MOL    O40  588   3.243   2.748   3.510
    4MOL     C1  589   1.956   2.859   4.606
    4MOL     H1  590   1.851   2.830   4.613
    4MOL     O1  591   1.999   2.920   4.731
    4MOL     C2  592   2.137   2.967   4.734
    4MOL     H2  593   2.205   2.883   4.716
    4MOL     C3  594   2.167   3.023   4.877
    4MOL     H3  595   2.276   3.025   4.891
    4MOL     H4  596   2.126   2.953   4.950
    4MOL     O2  597   2.113   3.154   4.899
    4MOL     H5  598   2.025   3.144   4.942
    4MOL     C4  599   1.973   2.961   4.490
    4MOL     H6  600   1.905   3.045   4.509
    4MOL     O3  601   1.938   2.900   4.366
    4MOL     H7  602   1.987   2.815   4.363
    4MOL     C5  603   2.118   3.015   4.484
    4MOL     H8  604   2.185   2.931   4.463
    4MOL     O4  605   2.133   3.115   4.383
    4MOL     H9  606   2.150   3.063   4.300
    4MOL     C6  607   2.155   3.073   4.622
    4MOL    H10  608   2.087   3.157   4.641
    4MOL     O5  609   2.292   3.117   4.614
    4MOL     C7  610   2.318   3.246   4.673
    4MOL    H11  611   2.225   3.289   4.714
    4MOL     O6  612   2.413   3.229   4.780
    4MOL     C8  613   2.542   3.179   4.740
    4MOL    H12  614   2.531   3.080   4.693
    4MOL     C9  615   2.628   3.163   4.867
    4MOL    H13  616   2.712   3.098   4.843
    4MOL    H14  617   2.568   3.114   4.943
    4MOL     O7  618   2.681   3.288   4.916
    4MOL    H15  619   2.776   3.286   4.891
    4MOL    C10  620   2.374   3.344   4.567
    4MOL    H16  621   2.387   3.442   4.614
    4MOL     O8  622   2.280   3.354   4.461
    4MOL    H17  623   2.254   3.261   4.441
    4MOL    C11  624   2.512   3.297   4.515
    4MOL    H18  625   2.500   3.199   4.465
    4MOL     O9  626   2.570   3.392   4.424
    4MOL    H19  627   2.517   3.388   4.340
    4MOL    C12  628   2.603   3.278   4.638
    4MOL    H20  629   2.613   3.375   4.687
    4MOL    O10  630   2.731   3.229   4.593
    4MOL    C13  631   2.842   3.316   4.621
    4MOL    H21  632   2.808   3.417   4.647
    4MOL    O11  633   2.919   3.260   4.730
    4MOL    C14  634   2.975   3.128   4.704
    4MOL    H22  635   2.893   3.059   4.680
    4MOL    C15  636   3.049   3.072   4.829
    4MOL    H23  637   3.060   2.963   4.819
    4MOL    H24  638   2.987   3.090   4.917
    4MOL    O12  639   3.180   3.127   4.848
    4MOL    H25  640   3.241   3.067   4.800
    4MOL    C16  641   2.930   3.328   4.494
    4MOL    H26  642   3.011   3.399   4.515
    4MOL    O13  643   2.852   3.375   4.385
    4MOL    H27  644   2.758   3.358   4.409
    4MOL    C17  645   2.992   3.192   4.459
    4MOL    H28  646   2.912   3.121   4.434
    4MOL    O14  647   3.080   3.207   4.347
    4MOL    H29  648   3.050   3.291   4.305
    4MOL    C18  649   3.068   3.138   4.581
    4MOL    H30  650   3.150   3.207   4.605
    4MOL    O15  651   3.117   3.007   4.547
    4MOL    C19  652   3.260   2.992   4.550
    4MOL    H31  653   3.312   3.089   4.551
    4MOL    O16  654   3.294   2.915   4.668
    4MOL    C20  655   3.232   2.783   4.670
    4MOL    H32  656   3.124   2.794   4.658
    4MOL    C21  657   3.257   2.715   4.805
    4MOL    H33  658   3.187   2.632   4.820
    4MOL    H34  659   3.239   2.788   4.884
    4MOL    O17  660   3.391   2.668   4.812
    4MOL    H35  661   3.388   2.570   4.824
    4MOL    C22  662   3.303   2.917   4.421
    4MOL    H36  663   3.412   2.916   4.420
    4MOL    O18  664   3.253   2.985   4.307
    4MOL    H37  665   3.190   3.052   4.342
    4MOL    C23  666   3.251   2.772   4.418
    4MOL    H38  667   3.142   2.777   4.411
    4MOL    O19  668   3.303   2.701   4.304
    4MOL    H39  669   3.303   2.768   4.231
    4MOL    C24  670   3.286   2.702   4.550
    4MOL    H40  671   3.396   2.694   4.558
    4MOL    O20  672   3.224   2.572   4.547
    4MOL    C25  673   3.315   2.460   4.557
    4MOL    H41  674   3.419   2.492   4.543
    4MOL    O21  675   3.300   2.400   4.688
    4MOL    C26  676   3.167   2.348   4.719
    4MOL    H42  677   3.094   2.430   4.718
    4MOL    C27  678   3.170   2.286   4.861
    4MOL    H43  679   3.068   2.261   4.891
    4MOL    H44  680   3.207   2.362   4.931
    4MOL    O22  681   3.254   2.169   4.867
    4MOL    H45  682   3.242   2.132   4.956
    4MOL    C28  683   3.279   2.357   4.448
    4MOL    H46  684   3.353   2.276   4.450
    4MOL    O23  685   3.279   2.418   4.321
    4MOL    H47  686   3.272   2.515   4.340
    4MOL    C29  687   3.140   2.297   4.468
    4MOL    H48  688   3.066   2.378   4.456
    4MOL    O24  689   3.117   2.194   4.371
    4MOL    H49  690   3.166   2.222   4.291
    4MOL    C30  691   3.127   2.244   4.611
    4MOL    H50  692   3.191   2.155   4.620
    4MOL    O25  693   2.990   2.209   4.627
    4MOL    C31  694   2.965   2.084   4.693
    4MOL    H51  695   3.055   2.045   4.740
    4MOL    O26  696   2.865   2.108   4.795
    4MOL    C32  697   2.738   2.156   4.745
    4MOL    H52  698   2.752   2.251   4.692
    4MOL    C33  699   2.644   2.183   4.865
    4MOL    H53  700   2.563   2.245   4.827
    4MOL    H54  701   2.699   2.238   4.942
    4MOL    O27  702   2.588   2.063   4.920
    4MOL    H55  703   2.491   2.077   4.918
    4MOL    C34  704   2.913   1.982   4.589
    4MOL    H56  705   2.903   1.885   4.640
    4MOL    O28  706   3.006   1.969   4.482
    4MOL    H57  707   3.028   2.063   4.458
    4MOL    C35  708   2.777   2.024   4.532
    4MOL    H58  709   2.792   2.119   4.480
    4MOL    O29  710   2.726   1.925   4.440
    4MOL    H59  711   2.804   1.889   4.394
    4MOL    C36  712   2.680   2.050   4.649
    4MOL    H60  713   2.666   1.957   4.704
    4MOL    O30  714   2.556   2.097   4.593
    4MOL    C37  715   2.453   1.996   4.587
    4MOL    H61  716   2.496   1.895   4.597
    4MOL    O31  717   2.357   2.019   4.692
    4MOL    C38  718   2.296   2.150   4.690
    4MOL    H62  719   2.376   2.223   4.693
    4MOL    C39  720   2.214   2.170   4.819
    4MOL    H63  721   2.143   2.087   4.831
    4MOL    H64  722   2.158   2.264   4.814
    4MOL    O32  723   2.305   2.174   4.930
    4MOL    H65  724   2.257   2.149   5.012
    4MOL    C40  725   2.381   2.005   4.451
    4MOL    H66  726   2.309   1.922   4.449
    4MOL    O33  727   2.476   1.988   4.347
    4MOL    H67  728   2.563   1.996   4.394
    4MOL    C41  729   2.306   2.140   4.435
    4MOL    H68  730   2.384   2.216   4.430
    4MOL    O34  731   2.231   2.142   4.312
    4MOL    H69  732   2.294   2.125   4.237
    4MOL    C42  733   2.216   2.169   4.560
    4MOL    H70  734   2.132   2.099   4.560
    4MOL    O35  735   2.169   2.307   4.554
    4MOL    C43  736   2.026   2.325   4.550
    4MOL    H71  737   1.976   2.227   4.544
    4MOL    O36  738   1.979   2.391   4.671
    4MOL    C44  739   2.019   2.529   4.694
    4MOL    H72  740   2.127   2.536   4.707
    4MOL    C45  741   1.946   2.584   4.821
    4MOL    H73  742   1.843   2.609   4.792
    4MOL    H74  743   1.994   2.678   4.851
    4MOL    O37  744   1.943   2.492   4.931
    4MOL    H75  745   2.020   2.513   4.988
    4MOL    C46  746   1.985   2.408   4.425
    4MOL    H76  747   1.876   2.401   4.415
    4MOL    O38  748   2.048   2.356   4.307
    4MOL    H77  749   2.079   2.266   4.330
    4MOL    C47  750   2.020   2.557   4.438
    4MOL    H78  751   2.129   2.566   4.433
    4MOL    O39  752   1.960   2.629   4.330
    4MOL    H79  753   2.013   2.604   4.250
    4MOL    C48  754   1.976   2.616   4.572
    4MOL    H80  755   1.867   2.625   4.570
    4MOL    O40  756   2.041   2.745   4.581
    5SOL     OW  757   0.224   0.626   0.106
    5SOL    HW1  758   0.166   0.585   0.170
    5SOL    HW2  759   0.247   0.555   0.046
    6SOL     OW  760   0.232   0.281   0.990
    6SOL    HW1  761   0.251   0.244   1.076
    6SOL    HW2  762   0.152   0.236   0.962
    7SOL     OW  763   0.002   0.406   0.661
    7SOL    HW1  764   5.209   0.428   0.668
    7SOL    HW2  765   0.003   0.315   0.631
    8SOL     OW  766   0.573   1.283   1.180
    8SOL    HW1  767   0.490   1.291   1.133
    8SOL    HW2  768   0.589   1.371   1.215
    9SOL     OW  769   1.560   1.512   0.707
    9SOL    HW1  770   1.517   1.492   0.790
    9SOL    HW2  771   1.488   1.515   0.643
   10SOL     OW  772   1.131   0.698   0.702
   10SOL    HW1  773   1.180   0.779   0.688
   10SOL    HW2  774   1.084   0.713   0.784
   11SOL     OW  775   1.771   0.600   0.232
   11SOL    HW1  776   1.729   0.603   0.146
   11SOL    HW2  777   1.729   0.526   0.276
   12SOL     OW  778   0.757   1.142   1.039
   12SOL    HW1  779   0.689   1.176   1.098
   12SOL    HW2  780   0.791   1.220   0.995
   13SOL     OW  781   0.864   0.779   1.822
   13SOL    HW1  782   0.856   0.851   1.884
   13SOL    HW2  783   0.889   0.821   1.739
   14SOL     OW  784   0.684   1.002   0.650
   14SOL    HW1  785   0.750   0.991   0.718
   14SOL    HW2  786   0.617   1.056   0.691
   15SOL     OW  787   0.709   1.151   1.812
   15SOL    HW1  788   0.757   1.229   1.838
   15SOL    HW2  789   0.627   1.184   1.776
   16SOL     OW  790   0.358   1.406   1.060
   16SOL    HW1  791   0.271   1.402   1.021
   16SOL    HW2  792   0.406   1.468   1.006
   17SOL     OW  793   1.461   1.499   1.353
   17SOL    HW1  794   1.510   1.581   1.363
   17SOL    HW2  795   1.400   1.499   1.427
   18SOL     OW  796   0.448   0.400   1.492
   18SOL    HW1  797   0.527   0.346   1.485
   18SOL    HW2  798   0.377   0.336   1.498
   19SOL     OW  799   1.611   0.452   0.738
   19SOL    HW1  800   1.533   0.474   0.687
   19SOL    HW2  801   1.629   0.530   0.790
   20SOL     OW  802   0.217   1.729   0.467
   20SOL    HW1  803   0.260   1.785   0.532
   20SOL    HW2  804   0.286   1.707   0.404
   21SOL     OW  805   1.136   1.341   1.692
   21SOL    HW1  806   1.177   1.337   1.779
   21SOL    HW2  807   1.084   1.262   1.686
   22SOL     OW  808   0.221   1.448   0.534
   22SOL    HW1  809   0.202   1.541   0.540
   22SOL    HW2  810   0.158   1.406   0.593
   23SOL     OW  811   0.252   1.079   0.878
   23SOL    HW1  812   0.259   0.993   0.919
   23SOL    HW2  813   0.198   1.130   0.939
   24SOL     OW  814   0.615   1.790   1.433
   24SOL    HW1  815   0.530   1.773   1.475
   24SOL    HW2  816   0.635   1.881   1.455
   25SOL     OW  817   0.623   0.959   0.136
   25SOL    HW1  818   0.579   1.039   0.107
   25SOL    HW2  819   0.678   0.988   0.209
   26SOL     OW  820   1.587   0.134   1.457
   26SOL    HW1  821   1.606   0.219   1.418
   26SOL    HW2  822   1.585   0.151   1.551
   27SOL     OW  823   0.128   0.639   0.581
   27SOL    HW1  824   0.092   0.555   0.609
   27SOL    HW2  825   0.097   0.701   0.648
   28SOL     OW  826   1.845   1.759   0.332
   28SOL    HW1  827   1.908   1.729   0.398
   28SOL    HW2  828   1.870   1.850   0.315
   29SOL     OW  829   0.032   1.585   0.105
   29SOL    HW1  830   0.024   1.499   0.147
   29SOL    HW2  831   0.006   1.647   0.172
   30SOL     OW  832   1.689   0.919   0.643
   30SOL    HW1  833   1.771   0.876   0.621
   30SOL    HW2  834   1.666   0.970   0.566
   31SOL     OW  835   1.646   1.105   0.434
   31SOL    HW1  836   1.726   1.120   0.384
   31SOL    HW2  837   1.651   1.167   0.507
   32SOL     OW  838   0.129   0.749   1.587
   32SOL    HW1  839   0.224   0.763   1.589
   32SOL    HW2  840   0.091   0.835   1.600
   33SOL     OW  841   0.615   1.385   0.734
   33SOL    HW1  842   0.567   1.303   0.745
   33SOL    HW2  843   0.597   1.411   0.644
   34SOL     OW  844   1.289   1.238   1.424
   34SOL    HW1  845   1.321   1.171   1.364
   34SOL    HW2  846   1.346   1.232   1.500
   35SOL     OW  847   0.815   0.026   0.527
   35SOL    HW1  848   0.843   0.113   0.498
   35SOL    HW2  849   0.719   0.028   0.520
   36SOL     OW  850   0.177   0.946   1.278
   36SOL    HW1  851   0.267   0.918   1.268
   36SOL    HW2  852   0.134   0.922   1.196
   37SOL     OW  853   1.511   1.006   0.211
   37SOL    HW1  854   1.449   0.940   0.244
   37SOL    HW2  855   1.562   1.031   0.288
   38SOL     OW  856   1.186   1.806   1.622
   38SOL    HW1  857   1.196   1.864   1.547
   38SOL    HW2  858   1.201   1.718   1.586
   39SOL     OW  859   0.326   0.275   1.797
   39SOL    HW1  860   0.386   0.337   1.839
   39SOL    HW2  861   0.246   0.281   1.848
   40SOL     OW  862   1.467   1.419   0.952
   40SOL    HW1  863   1.398   1.434   1.017
   40SOL    HW2  864   1.454   1.328   0.925
   41SOL     OW  865   1.660   1.739   0.581
   41SOL    HW1  866   1.638   1.711   0.492
   41SOL    HW2  867   1.634   1.665   0.636
   42SOL     OW  868   0.595   0.714   0.279
   42SOL    HW1  869   0.617   0.793   0.230
   42SOL    HW2  870   0.535   0.744   0.347
   43SOL     OW  871   1.278   0.346   0.932
   43SOL    HW1  872   1.187   0.317   0.943
   43SOL    HW2  873   1.328   0.296   0.996
   44SOL     OW  874   1.586   1.671   0.319
   44SOL    HW1  875   1.677   1.701   0.312
   44SOL    HW2  876   1.560   1.654   0.228
   45SOL     OW  877   0.794   0.618   1.451
   45SOL    HW1  878   0.766   0.596   1.540
   45SOL    HW2  879   0.751   0.552   1.396
   46SOL     OW  880   1.395   0.475   1.678
   46SOL    HW1  881   1.397   0.519   1.763
   46SOL    HW2  882   1.458   0.404   1.687
   47SOL     OW  883   0.955   0.888   1.582
   47SOL    HW1  884   1.010   0.817   1.547
   47SOL    HW2  885   0.908   0.921   1.506
   48SOL     OW  886   0.993   0.417   1.236
   48SOL    HW1  887   0.909   0.438   1.275
   48SOL    HW2  888   0.972   0.368   1.156
   49SOL     OW  889   1.052   0.699   0.428
   49SOL    HW1  890   1.067   0.691   0.522
   49SOL    HW2  891   0.969   0.652   0.413
   50SOL     OW  892   0.068   0.790   0.817
   50SOL    HW1  893   0.152   0.794   0.863
   50SOL    HW2  894   0.065   0.871   0.766
   51SOL     OW  895   0.131   1.882   1.584
   51SOL    HW1  896   0.133   1.852   1.675
   51SOL    HW2  897   0.058   1.834   1.544
   52SOL     OW  898   0.886   0.359   0.202
   52SOL    HW1  899   0.930   0.405   0.131
   52SOL    HW2  900   0.868   0.272   0.166
   53SOL     OW  901   1.708   0.575   1.828
   53SOL    HW1  902   1.671   0.649   1.780
   53SOL    HW2  903   1.737   0.514   1.760
   54SOL     OW  904   1.376   1.142   0.542
   54SOL    HW1  905   1.454   1.128   0.488
   54SOL    HW2  906   1.323   1.204   0.492
   55SOL     OW  907   0.537   0.200   0.885
   55SOL    HW1  908   0.554   0.220   0.977
   55SOL    HW2  909   0.549   0.284   0.840
   56SOL     OW  910   1.006   1.445   0.473
   56SOL    HW1  911   0.967   1.517   0.423
   56SOL    HW2  912   0.987   1.466   0.565
   57SOL     OW  913   0.357   1.802   0.868
   57SOL    HW1  914   0.398   1.716   0.882
   57SOL    HW2  915   0.423   1.864   0.898
   58SOL     OW  916   1.799   1.058   0.868
   58SOL    HW1  917   1.744   1.039   0.792
   58SOL    HW2  918   1.738   1.063   0.941
   59SOL     OW  919   1.228   1.539   1.513
   59SOL    HW1  920   1.214   1.466   1.573
   59SOL    HW2  921   1.165   1.524   1.442
   60SOL     OW  922   0.327   0.948   0.247
   60SOL    HW1  923   0.408   0.967   0.200
   60SOL    HW2  924   0.319   0.853   0.244
   61SOL     OW  925   1.478   0.742   0.727
   61SOL    HW1  926   1.468   0.698   0.811
   61SOL    HW2  927   1.555   0.798   0.737
   62SOL     OW  928   0.464   1.263   1.737
   62SOL    HW1  929   0.437   1.270   1.646
   62SOL    HW2  930   0.382   1.264   1.787
   63SOL     OW  931   1.108   1.781   0.224
   63SOL    HW1  932   1.052   1.740   0.291
   63SOL    HW2  933   1.128   1.710   0.164
   64SOL     OW  934   0.197   0.278   1.492
   64SOL    HW1  935   0.157   0.365   1.488
   64SOL    HW2  936   0.206   0.260   1.586
   65SOL     OW  937   1.634   1.373   0.082
   65SOL    HW1  938   1.592   1.460   0.081
   65SOL    HW2  939   1.562   1.312   0.064
   66SOL     OW  940   0.470   1.734   0.325
   66SOL    HW1  941   0.512   1.795   0.386
   66SOL    HW2  942   0.540   1.709   0.265
   67SOL     OW  943   1.414   0.100   0.445
   67SOL    HW1  944   1.405   0.079   0.352
   67SOL    HW2  945   1.506   0.127   0.455
   68SOL     OW  946   0.276   1.801   1.214
   68SOL    HW1  947   0.306   1.725   1.263
   68SOL    HW2  948   0.225   1.764   1.142
   69SOL     OW  949   0.938   1.699   0.899
   69SOL    HW1  950   1.016   1.646   0.920
   69SOL    HW2  951   0.894   1.649   0.830
   70SOL     OW  952   0.380   0.698   0.475
   70SOL    HW1  953   0.413   0.609   0.485
   70SOL    HW2  954   0.289   0.693   0.503
   71SOL     OW  955   1.540   0.228   1.724
   71SOL    HW1  956   1.547   0.246   1.817
   71SOL    HW2  957   1.464   0.169   1.716
   72SOL     OW  958   0.625   0.138   0.122
   72SOL    HW1  959   0.715   0.108   0.135
   72SOL    HW2  960   0.597   0.097   0.040
   73SOL     OW  961   0.782   0.313   1.766
   73SOL    HW1  962   0.840   0.237   1.767
   73SOL    HW2  963   0.734   0.307   1.849
   74SOL     OW  964   0.877   1.522   1.193
   74SOL    HW1  965   0.861   1.485   1.106
   74SOL    HW2  966   0.947   1.467   1.230
   75SOL     OW  967   1.341   0.589   1.432
   75SOL    HW1  968   1.371   0.558   1.517
   75SOL    HW2  969   1.377   0.677   1.425
   76SOL     OW  970   0.815   1.395   0.939
   76SOL    HW1  971   0.899   1.384   0.894
   76SOL    HW2  972   0.750   1.396   0.868
   77SOL     OW  973   0.927   0.510   0.903
   77SOL    HW1  974   0.904   0.502   0.810
   77SOL    HW2  975   0.958   0.423   0.927
   78SOL     OW  976   0.549   0.059   0.508
   78SOL    HW1  977   0.468   0.058   0.560
   78SOL    HW2  978   0.536   0.129   0.444
   79SOL     OW  979   1.434   1.199   0.036
   79SOL    HW1  980   1.458   1.125   0.092
   79SOL    HW2  981   1.345   1.223   0.065
   80SOL     OW  982   0.316   0.071   0.198
   80SOL    HW1  983   0.377   0.139   0.171
   80SOL    HW2  984   0.367   5.290   0.193
   81SOL     OW  985   0.944   0.257   0.455
   81SOL    HW1  986   0.917   0.303   0.375
   81SOL    HW2  987   1.037   0.279   0.464
   82SOL     OW  988   1.080   0.681   1.460
   82SOL    HW1  989   1.011   0.615   1.465
   82SOL    HW2  990   1.161   0.630   1.453
   83SOL     OW  991   1.224   1.569   0.794
   83SOL    HW1  992   1.240   1.637   0.728
   83SOL    HW2  993   1.292   1.584   0.860
   84SOL     OW  994   0.467   1.150   0.733
   84SOL    HW1  995   0.398   1.131   0.796
   84SOL    HW2  996   0.427   1.134   0.647
   85SOL     OW  997   1.268   1.794   0.607
   85SOL    HW1  998   1.317   1.857   0.554
   85SOL    HW2  999   1.202   1.847   0.651
   86SOL     OW 1000   1.030   0.530   0.030
   86SOL    HW1 1001   0.991   0.612   0.001
   86SOL    HW2 1002   1.093   0.556   0.097
   87SOL     OW 1003   0.097   0.531   1.411
   87SOL    HW1 1004   0.178   0.550   1.363
   87SOL    HW2 1005   0.077   0.613   1.457
   88SOL     OW 1006   0.560   0.239   1.159
   88SOL    HW1 1007   0.591   0.152   1.184
   88SOL    HW2 1008   0.467   0.240   1.182
   89SOL     OW 1009   0.868   0.461   0.639
   89SOL    HW1 1010   0.824   0.514   0.574
   89SOL    HW2 1011   0.889   0.379   0.594
   90SOL     OW 1012   0.978   0.061   0.762
   90SOL    HW1 1013   0.914   0.055   0.691
   90SOL    HW2 1014   0.986   5.271   0.794
   91SOL     OW 1015   1.437   1.163   0.857
   91SOL    HW1 1016   1.368   1.096   0.856
   91SOL    HW2 1017   1.460   1.174   0.765
   92SOL     OW 1018   1.467   0.605   0.978
   92SOL    HW1 1019   1.418   0.523   0.982
   92SOL    HW2 1020   1.527   0.600   1.052
   93SOL     OW 1021   1.848   0.816   0.387
   93SOL    HW1 1022   1.900   0.763   0.448
   93SOL    HW2 1023   1.817   0.753   0.321
   94SOL     OW 1024   0.483   1.440   0.173
   94SOL    HW1 1025   0.411   1.400   0.221
   94SOL    HW2 1026   0.487   1.392   0.090
   95SOL     OW 1027   1.670   1.266   0.648
   95SOL    HW1 1028   1.765   1.270   0.661
   95SOL    HW2 1029   1.639   1.354   0.668
   96SOL     OW 1030   1.399   0.579   0.087
   96SOL    HW1 1031   1.336   0.559   0.156
   96SOL    HW2 1032   1.455   0.502   0.083
   97SOL     OW 1033   0.523   0.268   0.328
   97SOL    HW1 1034   0.565   0.212   0.262
   97SOL    HW2 1035   0.507   0.351   0.282
   98SOL     OW 1036   1.753   1.238   1.574
   98SOL    HW1 1037   1.840   1.199   1.571
   98SOL    HW2 1038   1.768   1.328   1.603
   99SOL     OW 1039   1.059   1.353   1.334
   99SOL    HW1 1040   0.984   1.322   1.385
   99SOL    HW2 1041   1.135   1.312   1.375
  100SOL     OW 1042   1.607   1.625   1.653
  100SOL    HW1 1043   1.602   1.659   1.564
  100SOL    HW2 1044   1.690   1.578   1.656
  101SOL     OW 1045   1.128   1.203   1.106
  101SOL    HW1 1046   1.069   1.241   1.171
  101SOL    HW2 1047   1.095   1.235   1.022
  102SOL     OW 1048   1.629   1.099   1.078
  102SOL    HW1 1049   1.624   1.161   1.150
  102SOL    HW2 1050   1.549   1.115   1.027
  103SOL     OW 1051   0.905   0.106   1.391
  103SOL    HW1 1052   0.936   0.072   1.306
  103SOL    HW2 1053   0.982   0.148   1.429
  104SOL     OW 1054   0.984   1.115   1.722
  104SOL    HW1 1055   0.892   1.131   1.742
  104SOL    HW2 1056   0.983   1.037   1.666
  105SOL     OW 1057   0.713   1.061   0.381
  105SOL    HW1 1058   0.697   1.045   0.474
  105SOL    HW2 1059   0.791   1.010   0.360
  106SOL     OW 1060   0.420   0.819   1.252
  106SOL    HW1 1061   0.490   0.825   1.318
  106SOL    HW2 1062   0.385   0.731   1.262
  107SOL     OW 1063   1.267   0.379   1.272
  107SOL    HW1 1064   1.300   0.456   1.319
  107SOL    HW2 1065   1.177   0.401   1.249
  108SOL     OW 1066   0.101   1.623   1.367
  108SOL    HW1 1067   0.078   1.631   1.275
  108SOL    HW2 1068   0.187   1.581   1.367
  109SOL     OW 1069   0.345   1.107   0.488
  109SOL    HW1 1070   0.346   1.186   0.434
  109SOL    HW2 1071   0.362   1.036   0.426
  110SOL     OW 1072   0.556   0.538   0.860
  110SOL    HW1 1073   0.571   0.596   0.786
  110SOL    HW2 1074   0.621   0.565   0.925
  111SOL     OW 1075   1.247   1.347   0.393
  111SOL    HW1 1076   1.303   1.420   0.422
  111SOL    HW2 1077   1.160   1.370   0.425
  112SOL     OW 1078   1.280   1.457   1.146
  112SOL    HW1 1079   1.335   1.459   1.225
  112SOL    HW2 1080   1.225   1.380   1.159
  113SOL     OW 1081   1.583   0.626   0.480
  113SOL    HW1 1082   1.534   0.676   0.545
  113SOL    HW2 1083   1.618   0.692   0.421
  114SOL     OW 1084   0.352   1.519   1.311
  114SOL    HW1 1085   0.342   1.476   1.226
  114SOL    HW2 1086   0.445   1.537   1.318
  115SOL     OW 1087   0.414   0.741   1.602
  115SOL    HW1 1088   0.472   0.790   1.544
  115SOL    HW2 1089   0.459   0.658   1.618
  116SOL     OW 1090   1.601   0.778   1.681
  116SOL    HW1 1091   1.514   0.819   1.674
  116SOL    HW2 1092   1.653   0.821   1.613
  117SOL     OW 1093   1.042   0.116   1.782
  117SOL    HW1 1094   1.068   0.195   1.735
  117SOL    HW2 1095   1.050   0.046   1.717
  118SOL     OW 1096   0.483   0.058   1.738
  118SOL    HW1 1097   0.428   5.291   1.699
  118SOL    HW2 1098   0.423   0.131   1.756
  119SOL     OW 1099   0.586   0.873   1.032
  119SOL    HW1 1100   0.616   0.964   1.030
  119SOL    HW2 1101   0.529   0.869   1.109
  120SOL     OW 1102   1.358   0.859   1.031
  120SOL    HW1 1103   1.276   0.850   0.983
  120SOL    HW2 1104   1.398   0.772   1.025
  121SOL     OW 1105   1.203   0.527   0.270
  121SOL    HW1 1106   1.211   0.447   0.322
  121SOL    HW2 1107   1.162   0.590   0.329
  122SOL     OW 1108   0.304   0.206   1.245
  122SOL    HW1 1109   0.264   0.236   1.326
  122SOL    HW2 1110   0.299   0.110   1.250
  123SOL     OW 1111   0.070   1.319   1.281
  123SOL    HW1 1112   0.091   1.259   1.353
  123SOL    HW2 1113   0.001   1.376   1.316
  124SOL     OW 1114   0.727   0.633   1.061
  124SOL    HW1 1115   0.800   0.615   1.001
  124SOL    HW2 1116   0.698   0.721   1.038
  125SOL     OW 1117   1.734   0.959   1.852
  125SOL    HW1 1118   1.688   0.899   1.794
  125SOL    HW2 1119   1.675   0.972   1.926
  126SOL     OW 1120   0.318   0.066   0.653
  126SOL    HW1 1121   0.299   0.160   0.662
  126SOL    HW2 1122   0.319   0.034   0.743
  127SOL     OW 1123   1.620   0.377   0.368
  127SOL    HW1 1124   1.647   0.311   0.431
  127SOL    HW2 1125   1.594   0.453   0.421
  128SOL     OW 1126   1.027   0.759   0.961
  128SOL    HW1 1127   1.025   0.777   1.055
  128SOL    HW2 1128   1.001   0.668   0.953
  129SOL     OW 1129   0.982   1.566   1.716
  129SOL    HW1 1130   0.967   1.610   1.633
  129SOL    HW2 1131   1.026   1.484   1.692
  130SOL     OW 1132   1.855   1.507   1.605
  130SOL    HW1 1133   1.873   1.533   1.515
  130SOL    HW2 1134   1.936   1.525   1.653
  131SOL     OW 1135   0.353   0.917   1.807
  131SOL    HW1 1136   0.434   0.937   1.853
  131SOL    HW2 1137   0.379   0.853   1.740
  132SOL     OW 1138   1.522   0.300   0.126
  132SOL    HW1 1139   1.484   0.214   0.141
  132SOL    HW2 1140   1.561   0.324   0.210
  133SOL     OW 1141   1.294   0.825   0.022
  133SOL    HW1 1142   1.333   0.739   0.039
  133SOL    HW2 1143   1.354   0.865   8.039
  134SOL     OW 1144   1.066   1.335   0.854
  134SOL    HW1 1145   1.068   1.263   0.791
  134SOL    HW2 1146   1.127   1.400   0.819
  135SOL     OW 1147   0.315   0.810   0.949
  135SOL    HW1 1148   0.409   0.828   0.945
  135SOL    HW2 1149   0.309   0.720   0.981
  136SOL     OW 1150   0.337   0.526   1.015
  136SOL    HW1 1151   0.299   0.440   0.999
  136SOL    HW2 1152   0.412   0.531   0.956
  137SOL     OW 1153   1.136   0.378   1.688
  137SOL    HW1 1154   1.088   0.433   1.750
  137SOL    HW2 1155   1.223   0.417   1.683
  138SOL     OW 1156   1.134   0.223   1.466
  138SOL    HW1 1157   1.139   0.281   1.541
  138SOL    HW2 1158   1.189   0.264   1.399
  139SOL     OW 1159   0.009   1.330   0.202
  139SOL    HW1 1160   5.233   1.318   0.144
  139SOL    HW2 1161   0.014   1.247   0.250
  140SOL     OW 1162   0.092   1.782   0.948
  140SOL    HW1 1163   0.059   1.710   0.895
  140SOL    HW2 1164   0.180   1.798   0.914
  141SOL     OW 1165   0.505   1.573   0.907
  141SOL    HW1 1166   0.572   1.638   0.928
  141SOL    HW2 1167   0.548   1.512   0.848
  142SOL     OW 1168   0.984   0.793   1.227
  142SOL    HW1 1169   1.039   0.769   1.302
  142SOL    HW2 1170   0.899   0.755   1.247
  143SOL     OW 1171   0.036   0.565   1.119
  143SOL    HW1 1172   0.117   0.533   1.079
  143SOL    HW2 1173   0.039   0.533   1.209
  144SOL     OW 1174   0.168   0.514   1.715
  144SOL    HW1 1175   0.252   0.494   1.672
  144SOL    HW2 1176   0.137   0.594   1.671
  145SOL     OW 1177   1.377   0.939   1.659
  145SOL    HW1 1178   1.398   1.033   1.657
  145SOL    HW2 1179   1.374   0.914   1.567
  146SOL     OW 1180   0.818   0.571   0.365
  146SOL    HW1 1181   0.828   0.498   0.303
  146SOL    HW2 1182   0.741   0.618   0.334
  147SOL     OW 1183   1.642   0.602   1.187
  147SOL    HW1 1184   1.631   0.542   1.261
  147SOL    HW2 1185   1.729   0.581   1.152
  148SOL     OW 1186   0.257   1.556   1.735
  148SOL    HW1 1187   0.233   1.619   1.804
  148SOL    HW2 1188   0.249   1.470   1.777
  149SOL     OW 1189   0.696   0.454   1.262
  149SOL    HW1 1190   0.648   0.379   1.228
  149SOL    HW2 1191   0.697   0.517   1.191
  150SOL     OW 1192   0.929   1.679   1.467
  150SOL    HW1 1193   0.902   1.645   1.382
  150SOL    HW2 1194   0.924   1.774   1.458
  151SOL     OW 1195   0.469   0.491   0.176
  151SOL    HW1 1196   0.536   0.557   0.195
  151SOL    HW2 1197   0.386   0.534   0.195
  152SOL     OW 1198   0.148   1.138   1.471
  152SOL    HW1 1199   0.146   1.088   1.553
  152SOL    HW2 1200   0.161   1.071   1.404
  153SOL     OW 1201   1.327   1.048   1.224
  153SOL    HW1 1202   1.350   0.984   1.156
  153SOL    HW2 1203   1.256   1.099   1.185
  154SOL     OW 1204   1.306   0.849   0.308
  154SOL    HW1 1205   1.229   0.819   0.357
  154SOL    HW2 1206   1.282   0.837   0.216
  155SOL     OW 1207   1.771   1.745   1.149
  155SOL    HW1 1208   1.831   1.770   1.080
  155SOL    HW2 1209   1.747   1.655   1.129
  156SOL     OW 1210   1.241   1.733   1.114
  156SOL    HW1 1211   1.323   1.753   1.068
  156SOL    HW2 1212   1.246   1.639   1.132
  157SOL     OW 1213   0.083   1.218   1.027
  157SOL    HW1 1214   0.069   1.243   1.119
  157SOL    HW2 1215   5.294   1.207   0.992
  158SOL     OW 1216   0.678   1.665   1.728
  158SOL    HW1 1217   0.623   1.744   1.723
  158SOL    HW2 1218   0.742   1.676   1.658
  159SOL     OW 1219   0.893   0.086   0.139
  159SOL    HW1 1220   0.942   0.078   0.057
  159SOL    HW2 1221   0.912   0.005   0.187
  160SOL     OW 1222   1.713   0.148   0.505
  160SOL    HW1 1223   1.787   0.127   0.448
  160SOL    HW2 1224   1.704   0.073   0.563
  161SOL     OW 1225   1.390   1.568   0.485
  161SOL    HW1 1226   1.453   1.601   0.421
  161SOL    HW2 1227   1.342   1.646   0.514
  162SOL     OW 1228   0.144   1.798   1.843
  162SOL    HW1 1229   0.090   1.735   1.889
  162SOL    HW2 1230   0.190   1.846   1.911
  163SOL     OW 1231   1.277   0.925   0.671
  163SOL    HW1 1232   1.351   0.864   0.677
  163SOL    HW2 1233   1.310   0.998   0.619
  164SOL     OW 1234   0.815   1.273   1.430
  164SOL    HW1 1235   0.787   1.312   1.513
  164SOL    HW2 1236   0.746   1.294   1.368
  165SOL     OW 1237   0.678   1.619   0.156
  165SOL    HW1 1238   0.681   1.627   0.060
  165SOL    HW2 1239   0.617   1.547   0.172
  166SOL     OW 1240   1.628   1.727   1.391
  166SOL    HW1 1241   1.677   1.734   1.310
  166SOL    HW2 1242   1.614   1.817   1.419
  167SOL     OW 1243   1.845   0.157   0.958
  167SOL    HW1 1244   1.846   0.063   0.942
  167SOL    HW2 1245   1.758   0.186   0.930
  168SOL     OW 1246   0.271   0.329   0.719
  168SOL    HW1 1247   0.184   0.366   0.701
  168SOL    HW2 1248   0.272   0.313   0.813
  169SOL     OW 1249   1.156   1.581   0.051
  169SOL    HW1 1250   1.173   1.489   0.070
  169SOL    HW2 1251   1.167   1.589   8.036
  170SOL     OW 1252   0.824   1.006   1.372
  170SOL    HW1 1253   0.868   1.001   1.287
  170SOL    HW2 1254   0.824   1.099   1.395
  171SOL     OW 1255   0.917   0.913   0.297
  171SOL    HW1 1256   0.972   0.938   0.222
  171SOL    HW2 1257   0.965   0.842   0.338
  172SOL     OW 1258   1.510   1.624   0.060
  172SOL    HW1 1259   1.415   1.625   0.050
  172SOL    HW2 1260   1.544   1.625   8.051
  173SOL     OW 1261   0.368   1.304   1.493
  173SOL    HW1 1262   0.359   1.378   1.434
  173SOL    HW2 1263   0.292   1.249   1.473
  174SOL     OW 1264   1.611   1.283   1.281
  174SOL    HW1 1265   1.670   1.273   1.355
  174SOL    HW2 1266   1.551   1.352   1.308
  175SOL     OW 1267   1.051   1.107   0.706
  175SOL    HW1 1268   0.981   1.055   0.746
  175SOL    HW2 1269   1.113   1.042   0.674
  176SOL     OW 1270   1.020   0.243   0.968
  176SOL    HW1 1271   1.000   0.197   0.886
  176SOL    HW2 1272   1.012   0.175   1.035
  177SOL     OW 1273   0.602   1.487   0.480
  177SOL    HW1 1274   0.644   1.438   0.409
  177SOL    HW2 1275   0.535   1.539   0.435
  178SOL     OW 1276   1.723   0.387   1.378
  178SOL    HW1 1277   1.793   0.452   1.378
  178SOL    HW2 1278   1.755   0.317   1.321
  179SOL     OW 1279   0.268   1.326   0.299
  179SOL    HW1 1280   0.183   1.336   0.258
  179SOL    HW2 1281   0.261   1.372   0.383
  180SOL     OW 1282   0.116   1.016   1.718
  180SOL    HW1 1283   0.044   0.982   1.772
  180SOL    HW2 1284   0.195   0.985   1.761
  181SOL     OW 1285   0.674   0.214   1.488
  181SOL    HW1 1286   0.757   0.196   1.445
  181SOL    HW2 1287   0.698   0.259   1.569
  182SOL     OW 1288   0.087   0.354   0.007
  182SOL    HW1 1289   0.002   0.320   0.035
  182SOL    HW2 1290   0.067   0.439   8.048
  183SOL     OW 1291   1.430   0.858   1.401
  183SOL    HW1 1292   1.382   0.919   1.345
  183SOL    HW2 1293   1.520   0.861   1.367
  184SOL     OW 1294   0.079   0.141   0.290
  184SOL    HW1 1295   0.077   0.236   0.280
  184SOL    HW2 1296   0.168   0.115   0.266
  185SOL     OW 1297   1.185   1.318   0.122
  185SOL    HW1 1298   1.089   1.308   0.121
  185SOL    HW2 1299   1.208   1.321   0.214
  186SOL     OW 1300   0.619   0.831   1.435
  186SOL    HW1 1301   0.674   0.907   1.419
  186SOL    HW2 1302   0.681   0.758   1.443
  187SOL     OW 1303   1.484   1.776   0.978
  187SOL    HW1 1304   1.508   1.835   0.906
  187SOL    HW2 1305   1.566   1.758   1.023
  188SOL     OW 1306   0.714   0.572   1.704
  188SOL    HW1 1307   0.756   0.636   1.762
  188SOL    HW2 1308   0.747   0.488   1.734
  189SOL     OW 1309   1.471   1.201   1.632
  189SOL    HW1 1310   1.459   1.214   1.726
  189SOL    HW2 1311   1.564   1.215   1.618
  190SOL     OW 1312   0.379   1.742   1.564
  190SOL    HW1 1313   0.296   1.788   1.549
  190SOL    HW2 1314   0.354   1.661   1.609
  191SOL     OW 1315   1.670   0.881   1.255
  191SOL    HW1 1316   1.663   0.796   1.213
  191SOL    HW2 1317   1.660   0.945   1.184
  192SOL     OW 1318   1.216   0.328   0.473
  192SOL    HW1 1319   1.274   0.254   0.457
  192SOL    HW2 1320   1.256   0.374   0.547
  193SOL     OW 1321   0.589   0.738   0.668
  193SOL    HW1 1322   0.629   0.824   0.654
  193SOL    HW2 1323   0.519   0.732   0.604
  194SOL     OW 1324   1.767   0.361   1.648
  194SOL    HW1 1325   1.747   0.376   1.556
  194SOL    HW2 1326   1.696   0.305   1.680
  195SOL     OW 1327   1.744   0.934   1.512
  195SOL    HW1 1328   1.743   1.028   1.525
  195SOL    HW2 1329   1.729   0.922   1.418
  196SOL     OW 1330   0.893   1.372   0.034
  196SOL    HW1 1331   0.830   1.364   0.106
  196SOL    HW2 1332   0.879   1.460   8.079
  197SOL     OW 1333   0.662   1.794   0.944
  197SOL    HW1 1334   0.641   1.885   0.921
  197SOL    HW2 1335   0.758   1.789   0.938
  198SOL     OW 1336   0.867   0.966   0.855
  198SOL    HW1 1337   0.917   0.895   0.895
  198SOL    HW2 1338   0.833   1.016   0.929
  199SOL     OW 1339   1.076   0.977   0.085
  199SOL    HW1 1340   1.067   1.041   0.014
  199SOL    HW2 1341   1.154   0.926   0.062
  200SOL     OW 1342   1.854   1.555   0.845
  200SOL    HW1 1343   1.776   1.544   0.790
  200SOL    HW2 1344   1.846   1.488   0.913
  201SOL     OW 1345   0.225   1.305   1.859
  201SOL    HW1 1346   0.156   1.243   1.834
  201SOL    HW2 1347   0.213   1.316   1.954
  202SOL     OW 1348   0.093   1.233   0.659
  202SOL    HW1 1349   0.097   1.188   0.744
  202SOL    HW2 1350   0.170   1.202   0.612
  203SOL     OW 1351   0.681   1.402   1.628
  203SOL    HW1 1352   0.600   1.359   1.657
  203SOL    HW2 1353   0.676   1.490   1.664
  204SOL     OW 1354   1.815   0.178   1.233
  204SOL    HW1 1355   1.782   0.088   1.240
  204SOL    HW2 1356   1.832   0.190   1.140
  205SOL     OW 1357   0.430   0.439   0.521
  205SOL    HW1 1358   0.465   0.366   0.471
  205SOL    HW2 1359   0.386   0.398   0.596
  206SOL     OW 1360   1.700   1.490   1.097
  206SOL    HW1 1361   1.620   1.466   1.052
  206SOL    HW2 1362   1.713   1.421   1.162
  207SOL     OW 1363   0.336   0.560   1.288
  207SOL    HW1 1364   0.393   0.502   1.339
  207SOL    HW2 1365   0.349   0.533   1.198
  208SOL     OW 1366   0.828   1.577   0.678
  208SOL    HW1 1367   0.816   1.630   0.599
  208SOL    HW2 1368   0.750   1.521   0.681
  209SOL     OW 1369   1.428   0.218   1.117
  209SOL    HW1 1370   1.464   0.143   1.164
  209SOL    HW2 1371   1.379   0.267   1.183
  210SOL     OW 1372   1.001   0.021   1.142
  210SOL    HW1 1373   0.951   5.253   1.097
  210SOL    HW2 1374   1.088   5.283   1.154
  211SOL     OW 1375   0.771   1.327   0.307
  211SOL    HW1 1376   0.739   1.238   0.323
  211SOL    HW2 1377   0.852   1.332   0.357
  212SOL     OW 1378   0.622   1.557   1.287
  212SOL    HW1 1379   0.624   1.639   1.336
  212SOL    HW2 1380   0.709   1.551   1.247
  213SOL     OW 1381   1.393   0.043   0.170
  213SOL    HW1 1382   1.385   0.027   0.076
  213SOL    HW2 1383   1.305   0.069   0.196
  214SOL     OW 1384   1.308   0.467   0.690
  214SOL    HW1 1385   1.249   0.543   0.693
  214SOL    HW2 1386   1.297   0.425   0.775
  215SOL     OW 1387   1.595   0.216   0.882
  215SOL    HW1 1388   1.527   0.227   0.949
  215SOL    HW2 1389   1.587   0.294   0.827
  216SOL     OW 1390   0.045   1.075   0.312
  216SOL    HW1 1391   0.135   1.049   0.291
  216SOL    HW2 1392   5.297   0.993   0.322
  217SOL     OW 1393   0.883   1.652   0.347
  217SOL    HW1 1394   0.814   1.636   0.282
  217SOL    HW2 1395   0.852   1.728   0.396
  218SOL     OW 1396   0.233   0.633   1.979
  218SOL    HW1 1397   0.156   0.607   2.030
  218SOL    HW2 1398   0.215   0.600   1.891
  219SOL     OW 1399   0.233   0.280   2.852
  219SOL    HW1 1400   0.252   0.244   2.938
  219SOL    HW2 1401   0.152   0.236   2.824
  220SOL     OW 1402   0.000   0.406   2.526
  220SOL    HW1 1403   5.207   0.427   2.530
  220SOL    HW2 1404   0.002   0.315   2.494
  221SOL     OW 1405   0.573   1.283   3.042
  221SOL    HW1 1406   0.490   1.292   2.995
  221SOL    HW2 1407   0.590   1.370   3.078
  222SOL     OW 1408   1.560   1.512   2.568
  222SOL    HW1 1409   1.517   1.492   2.652
  222SOL    HW2 1410   1.489   1.516   2.505
  223SOL     OW 1411   1.131   0.698   2.564
  223SOL    HW1 1412   1.180   0.779   2.549
  223SOL    HW2 1413   1.084   0.713   2.646
  224SOL     OW 1414   1.766   0.606   2.091
  224SOL    HW1 1415   1.746   0.598   1.998
  224SOL    HW2 1416   1.731   0.526   2.130
  225SOL     OW 1417   0.756   1.142   2.900
  225SOL    HW1 1418   0.689   1.175   2.959
  225SOL    HW2 1419   0.791   1.219   2.857
  226SOL     OW 1420   0.863   0.779   3.683
  226SOL    HW1 1421   0.857   0.851   3.746
  226SOL    HW2 1422   0.889   0.821   3.601
  227SOL     OW 1423   0.685   1.003   2.510
  227SOL    HW1 1424   0.751   0.991   2.578
  227SOL    HW2 1425   0.617   1.056   2.551
  228SOL     OW 1426   0.709   1.151   3.674
  228SOL    HW1 1427   0.757   1.229   3.700
  228SOL    HW2 1428   0.627   1.184   3.638
  229SOL     OW 1429   0.358   1.405   2.921
  229SOL    HW1 1430   0.270   1.405   2.884
  229SOL    HW2 1431   0.407   1.468   2.868
  230SOL     OW 1432   1.461   1.499   3.215
  230SOL    HW1 1433   1.511   1.580   3.224
  230SOL    HW2 1434   1.401   1.499   3.290
  231SOL     OW 1435   0.448   0.400   3.353
  231SOL    HW1 1436   0.527   0.346   3.347
  231SOL    HW2 1437   0.377   0.336   3.360
  232SOL     OW 1438   1.611   0.452   2.600
  232SOL    HW1 1439   1.535   0.476   2.546
  232SOL    HW2 1440   1.630   0.530   2.652
  233SOL     OW 1441   0.230   1.714   2.339
  233SOL    HW1 1442   0.264   1.783   2.397
  233SOL    HW2 1443   0.292   1.711   2.267
  234SOL     OW 1444   1.136   1.341   3.554
  234SOL    HW1 1445   1.177   1.337   3.640
  234SOL    HW2 1446   1.084   1.261   3.548
  235SOL     OW 1447   0.222   1.443   2.401
  235SOL    HW1 1448   0.215   1.539   2.398
  235SOL    HW2 1449   0.152   1.416   2.460
  236SOL     OW 1450   0.249   1.078   2.738
  236SOL    HW1 1451   0.260   0.993   2.781
  236SOL    HW2 1452   0.198   1.130   2.800
  237SOL     OW 1453   0.614   1.790   3.294
  237SOL    HW1 1454   0.530   1.773   3.337
  237SOL    HW2 1455   0.635   1.881   3.317
  238SOL     OW 1456   0.584   0.983   1.997
  238SOL    HW1 1457   0.629   1.031   1.928
  238SOL    HW2 1458   0.625   1.012   2.078
  239SOL     OW 1459   1.586   0.135   3.319
  239SOL    HW1 1460   1.607   0.220   3.280
  239SOL    HW2 1461   1.585   0.151   3.413
  240SOL     OW 1462   0.124   0.637   2.439
  240SOL    HW1 1463   0.090   0.554   2.472
  240SOL    HW2 1464   0.098   0.701   2.505
  241SOL     OW 1465   1.842   1.759   2.197
  241SOL    HW1 1466   1.905   1.730   2.263
  241SOL    HW2 1467   1.866   1.850   2.178
  242SOL     OW 1468   0.038   1.599   1.993
  242SOL    HW1 1469   0.024   1.507   2.018
  242SOL    HW2 1470   5.283   1.648   2.054
  243SOL     OW 1471   1.689   0.918   2.502
  243SOL    HW1 1472   1.773   0.877   2.482
  243SOL    HW2 1473   1.668   0.969   2.424
  244SOL     OW 1474   1.646   1.107   2.291
  244SOL    HW1 1475   1.731   1.113   2.249
  244SOL    HW2 1476   1.651   1.168   2.365
  245SOL     OW 1477   0.129   0.749   3.449
  245SOL    HW1 1478   0.224   0.763   3.451
  245SOL    HW2 1479   0.091   0.835   3.463
  246SOL     OW 1480   0.615   1.385   2.597
  246SOL    HW1 1481   0.567   1.302   2.607
  246SOL    HW2 1482   0.597   1.411   2.506
  247SOL     OW 1483   1.289   1.238   3.286
  247SOL    HW1 1484   1.321   1.171   3.226
  247SOL    HW2 1485   1.346   1.232   3.362
  248SOL     OW 1486   0.814   0.026   2.388
  248SOL    HW1 1487   0.841   0.114   2.364
  248SOL    HW2 1488   0.718   0.028   2.381
  249SOL     OW 1489   0.177   0.947   3.140
  249SOL    HW1 1490   0.268   0.918   3.130
  249SOL    HW2 1491   0.135   0.922   3.058
  250SOL     OW 1492   1.532   0.993   2.060
  250SOL    HW1 1493   1.462   0.936   2.091
  250SOL    HW2 1494   1.572   1.027   2.140
  251SOL     OW 1495   1.185   1.805   3.484
  251SOL    HW1 1496   1.197   1.865   3.410
  251SOL    HW2 1497   1.202   1.718   3.448
  252SOL     OW 1498   0.326   0.275   3.659
  252SOL    HW1 1499   0.386   0.336   3.701
  252SOL    HW2 1500   0.246   0.281   3.710
  253SOL     OW 1501   1.466   1.419   2.814
  253SOL    HW1 1502   1.398   1.435   2.879
  253SOL    HW2 1503   1.454   1.328   2.787
  254SOL     OW 1504   1.660   1.738   2.440
  254SOL    HW1 1505   1.639   1.709   2.351
  254SOL    HW2 1506   1.634   1.664   2.496
  255SOL     OW 1507   0.594   0.721   2.127
  255SOL    HW1 1508   0.603   0.802   2.076
  255SOL    HW2 1509   0.530   0.742   2.195
  256SOL     OW 1510   1.278   0.346   2.793
  256SOL    HW1 1511   1.188   0.318   2.805
  256SOL    HW2 1512   1.328   0.296   2.858
  257SOL     OW 1513   1.581   1.669   2.171
  257SOL    HW1 1514   1.671   1.702   2.164
  257SOL    HW2 1515   1.554   1.653   2.081
  258SOL     OW 1516   0.794   0.617   3.313
  258SOL    HW1 1517   0.766   0.596   3.402
  258SOL    HW2 1518   0.751   0.552   3.258
  259SOL     OW 1519   1.395   0.475   3.540
  259SOL    HW1 1520   1.397   0.519   3.625
  259SOL    HW2 1521   1.459   0.404   3.549
  260SOL     OW 1522   0.955   0.887   3.444
  260SOL    HW1 1523   1.010   0.817   3.409
  260SOL    HW2 1524   0.908   0.921   3.368
  261SOL     OW 1525   0.994   0.417   3.098
  261SOL    HW1 1526   0.909   0.439   3.137
  261SOL    HW2 1527   0.971   0.368   3.018
  262SOL     OW 1528   1.050   0.698   2.289
  262SOL    HW1 1529   1.066   0.691   2.383
  262SOL    HW2 1530   0.968   0.652   2.274
  263SOL     OW 1531   0.072   0.788   2.674
  263SOL    HW1 1532   0.154   0.793   2.723
  263SOL    HW2 1533   0.062   0.874   2.634
  264SOL     OW 1534   0.131   1.882   3.446
  264SOL    HW1 1535   0.133   1.852   3.537
  264SOL    HW2 1536   0.058   1.834   3.406
  265SOL     OW 1537   0.872   0.363   2.050
  265SOL    HW1 1538   0.916   0.423   1.989
  265SOL    HW2 1539   0.925   0.283   2.048
  266SOL     OW 1540   1.708   0.575   3.690
  266SOL    HW1 1541   1.671   0.649   3.642
  266SOL    HW2 1542   1.737   0.515   3.622
  267SOL     OW 1543   1.376   1.142   2.403
  267SOL    HW1 1544   1.455   1.129   2.351
  267SOL    HW2 1545   1.324   1.204   2.353
  268SOL     OW 1546   0.537   0.201   2.745
  268SOL    HW1 1547   0.554   0.219   2.838
  268SOL    HW2 1548   0.550   0.286   2.702
  269SOL     OW 1549   1.006   1.444   2.334
  269SOL    HW1 1550   0.968   1.517   2.285
  269SOL    HW2 1551   0.990   1.466   2.426
  270SOL     OW 1552   0.356   1.802   2.731
  270SOL    HW1 1553   0.397   1.717   2.744
  270SOL    HW2 1554   0.423   1.865   2.759
  271SOL     OW 1555   1.799   1.057   2.730
  271SOL    HW1 1556   1.744   1.040   2.653
  271SOL    HW2 1557   1.737   1.063   2.803
  272SOL     OW 1558   1.228   1.539   3.375
  272SOL    HW1 1559   1.214   1.466   3.435
  272SOL    HW2 1560   1.165   1.524   3.304
  273SOL     OW 1561   0.317   0.952   2.109
  273SOL    HW1 1562   0.398   0.976   2.066
  273SOL    HW2 1563   0.294   0.867   2.072
  274SOL     OW 1564   1.478   0.742   2.589
  274SOL    HW1 1565   1.469   0.699   2.674
  274SOL    HW2 1566   1.555   0.797   2.599
  275SOL     OW 1567   0.464   1.263   3.599
  275SOL    HW1 1568   0.437   1.270   3.508
  275SOL    HW2 1569   0.382   1.264   3.649
  276SOL     OW 1570   1.121   1.778   2.093
  276SOL    HW1 1571   1.049   1.735   2.139
  276SOL    HW2 1572   1.144   1.717   2.023
  277SOL     OW 1573   0.197   0.279   3.355
  277SOL    HW1 1574   0.157   0.366   3.351
  277SOL    HW2 1575   0.206   0.261   3.448
  278SOL     OW 1576   1.629   1.380   1.949
  278SOL    HW1 1577   1.587   1.465   1.934
  278SOL    HW2 1578   1.560   1.316   1.930
  279SOL     OW 1579   0.471   1.735   2.182
  279SOL    HW1 1580   0.513   1.793   2.245
  279SOL    HW2 1581   0.543   1.705   2.126
  280SOL     OW 1582   1.407   0.100   2.293
  280SOL    HW1 1583   1.399   0.082   2.199
  280SOL    HW2 1584   1.499   0.122   2.305
  281SOL     OW 1585   0.275   1.801   3.077
  281SOL    HW1 1586   0.307   1.724   3.125
  281SOL    HW2 1587   0.226   1.765   3.003
  282SOL     OW 1588   0.939   1.698   2.762
  282SOL    HW1 1589   1.016   1.647   2.782
  282SOL    HW2 1590   0.894   1.649   2.693
  283SOL     OW 1591   0.385   0.696   2.341
  283SOL    HW1 1592   0.415   0.605   2.349
  283SOL    HW2 1593   0.292   0.693   2.362
  284SOL     OW 1594   1.540   0.228   3.586
  284SOL    HW1 1595   1.547   0.246   3.679
  284SOL    HW2 1596   1.464   0.169   3.578
  285SOL     OW 1597   0.621   0.133   1.969
  285SOL    HW1 1598   0.689   0.070   1.993
  285SOL    HW2 1599   0.574   0.091   1.896
  286SOL     OW 1600   0.782   0.313   3.628
  286SOL    HW1 1601   0.841   0.237   3.629
  286SOL    HW2 1602   0.734   0.307   3.711
  287SOL     OW 1603   0.877   1.521   3.055
  287SOL    HW1 1604   0.861   1.485   2.968
  287SOL    HW2 1605   0.947   1.467   3.092
  288SOL     OW 1606   1.341   0.589   3.294
  288SOL    HW1 1607   1.372   0.558   3.379
  288SOL    HW2 1608   1.377   0.677   3.287
  289SOL     OW 1609   0.815   1.395   2.801
  289SOL    HW1 1610   0.899   1.384   2.757
  289SOL    HW2 1611   0.751   1.396   2.730
  290SOL     OW 1612   0.927   0.510   2.766
  290SOL    HW1 1613   0.904   0.502   2.673
  290SOL    HW2 1614   0.959   0.423   2.790
  291SOL     OW 1615   0.547   0.059   2.366
  291SOL    HW1 1616   0.468   0.060   2.420
  291SOL    HW2 1617   0.535   0.131   2.305
  292SOL     OW 1618   1.428   1.198   1.903
  292SOL    HW1 1619   1.459   1.122   1.953
  292SOL    HW2 1620   1.343   1.219   1.941
  293SOL     OW 1621   0.314   0.063   2.047
  293SOL    HW1 1622   0.380   0.129   2.025
  293SOL    HW2 1623   0.364   5.283   2.060
  294SOL     OW 1624   0.939   0.261   2.324
  294SOL    HW1 1625   0.911   0.299   2.241
  294SOL    HW2 1626   1.034   0.273   2.325
  295SOL     OW 1627   1.081   0.681   3.322
  295SOL    HW1 1628   1.012   0.614   3.327
  295SOL    HW2 1629   1.162   0.631   3.315
  296SOL     OW 1630   1.224   1.569   2.655
  296SOL    HW1 1631   1.240   1.637   2.590
  296SOL    HW2 1632   1.291   1.584   2.722
  297SOL     OW 1633   0.467   1.150   2.594
  297SOL    HW1 1634   0.398   1.130   2.657
  297SOL    HW2 1635   0.428   1.132   2.509
  298SOL     OW 1636   1.269   1.794   2.470
  298SOL    HW1 1637   1.315   1.855   2.412
  298SOL    HW2 1638   1.203   1.847   2.514
  299SOL     OW 1639   1.026   0.547   1.884
  299SOL    HW1 1640   0.984   0.631   1.865
  299SOL    HW2 1641   1.090   0.566   1.953
  300SOL     OW 1642   0.097   0.532   3.272
  300SOL    HW1 1643   0.178   0.550   3.225
  300SOL    HW2 1644   0.077   0.613   3.319
  301SOL     OW 1645   0.560   0.239   3.020
  301SOL    HW1 1646   0.591   0.152   3.046
  301SOL    HW2 1647   0.467   0.240   3.044
  302SOL     OW 1648   0.868   0.463   2.503
  302SOL    HW1 1649   0.821   0.516   2.438
  302SOL    HW2 1650   0.890   0.382   2.457
  303SOL     OW 1651   0.979   0.060   2.624
  303SOL    HW1 1652   0.914   0.055   2.554
  303SOL    HW2 1653   0.987   5.271   2.657
  304SOL     OW 1654   1.437   1.163   2.719
  304SOL    HW1 1655   1.368   1.096   2.718
  304SOL    HW2 1656   1.461   1.175   2.628
  305SOL     OW 1657   1.467   0.605   2.840
  305SOL    HW1 1658   1.418   0.523   2.844
  305SOL    HW2 1659   1.527   0.600   2.914
  306SOL     OW 1660   1.846   0.817   2.244
  306SOL    HW1 1661   1.902   0.766   2.302
  306SOL    HW2 1662   1.817   0.755   2.177
  307SOL     OW 1663   0.492   1.417   2.021
  307SOL    HW1 1664   0.417   1.389   2.073
  307SOL    HW2 1665   0.474   1.383   1.933
  308SOL     OW 1666   1.670   1.264   2.509
  308SOL    HW1 1667   1.764   1.268   2.522
  308SOL    HW2 1668   1.639   1.352   2.530
  309SOL     OW 1669   1.394   0.572   1.933
  309SOL    HW1 1670   1.333   0.553   2.005
  309SOL    HW2 1671   1.479   0.541   1.965
  310SOL     OW 1672   0.522   0.265   2.183
  310SOL    HW1 1673   0.569   0.216   2.114
  310SOL    HW2 1674   0.504   0.350   2.143
  311SOL     OW 1675   1.753   1.238   3.436
  311SOL    HW1 1676   1.841   1.200   3.432
  311SOL    HW2 1677   1.768   1.329   3.464
  312SOL     OW 1678   1.059   1.353   3.195
  312SOL    HW1 1679   0.984   1.322   3.247
  312SOL    HW2 1680   1.135   1.312   3.237
  313SOL     OW 1681   1.607   1.624   3.515
  313SOL    HW1 1682   1.602   1.659   3.426
  313SOL    HW2 1683   1.691   1.578   3.518
  314SOL     OW 1684   1.127   1.202   2.968
  314SOL    HW1 1685   1.070   1.241   3.033
  314SOL    HW2 1686   1.095   1.235   2.884
  315SOL     OW 1687   1.629   1.098   2.940
  315SOL    HW1 1688   1.624   1.160   3.012
  315SOL    HW2 1689   1.550   1.116   2.889
  316SOL     OW 1690   0.905   0.106   3.252
  316SOL    HW1 1691   0.936   0.073   3.168
  316SOL    HW2 1692   0.982   0.149   3.291
  317SOL     OW 1693   0.984   1.115   3.584
  317SOL    HW1 1694   0.892   1.131   3.604
  317SOL    HW2 1695   0.983   1.037   3.528
  318SOL     OW 1696   0.707   1.059   2.234
  318SOL    HW1 1697   0.696   1.044   2.328
  318SOL    HW2 1698   0.784   1.007   2.211
  319SOL     OW 1699   0.420   0.819   3.114
  319SOL    HW1 1700   0.490   0.825   3.180
  319SOL    HW2 1701   0.385   0.731   3.124
  320SOL     OW 1702   1.267   0.379   3.134
  320SOL    HW1 1703   1.300   0.456   3.181
  320SOL    HW2 1704   1.177   0.401   3.111
  321SOL     OW 1705   0.101   1.623   3.229
  321SOL    HW1 1706   0.079   1.633   3.137
  321SOL    HW2 1707   0.187   1.581   3.229
  322SOL     OW 1708   0.344   1.105   2.350
  322SOL    HW1 1709   0.354   1.184   2.297
  322SOL    HW2 1710   0.354   1.033   2.288
  323SOL     OW 1711   0.556   0.537   2.722
  323SOL    HW1 1712   0.571   0.596   2.648
  323SOL    HW2 1713   0.620   0.564   2.787
  324SOL     OW 1714   1.248   1.348   2.251
  324SOL    HW1 1715   1.304   1.420   2.282
  324SOL    HW2 1716   1.161   1.369   2.285
  325SOL     OW 1717   1.280   1.457   3.009
  325SOL    HW1 1718   1.336   1.460   3.086
  325SOL    HW2 1719   1.225   1.380   3.022
  326SOL     OW 1720   1.582   0.623   2.340
  326SOL    HW1 1721   1.536   0.678   2.404
  326SOL    HW2 1722   1.627   0.685   2.283
  327SOL     OW 1723   0.351   1.519   3.173
  327SOL    HW1 1724   0.342   1.476   3.088
  327SOL    HW2 1725   0.445   1.537   3.180
  328SOL     OW 1726   0.414   0.741   3.464
  328SOL    HW1 1727   0.472   0.790   3.406
  328SOL    HW2 1728   0.460   0.659   3.480
  329SOL     OW 1729   1.600   0.778   3.543
  329SOL    HW1 1730   1.514   0.819   3.536
  329SOL    HW2 1731   1.653   0.821   3.475
  330SOL     OW 1732   1.042   0.116   3.644
  330SOL    HW1 1733   1.068   0.195   3.597
  330SOL    HW2 1734   1.050   0.046   3.579
  331SOL     OW 1735   0.483   0.058   3.600
  331SOL    HW1 1736   0.427   5.291   3.561
  331SOL    HW2 1737   0.423   0.131   3.618
  332SOL     OW 1738   0.585   0.874   2.894
  332SOL    HW1 1739   0.617   0.964   2.892
  332SOL    HW2 1740   0.529   0.869   2.971
  333SOL     OW 1741   1.358   0.859   2.893
  333SOL    HW1 1742   1.276   0.850   2.845
  333SOL    HW2 1743   1.398   0.772   2.888
  334SOL     OW 1744   1.206   0.529   2.130
  334SOL    HW1 1745   1.211   0.448   2.181
  334SOL    HW2 1746   1.164   0.592   2.188
  335SOL     OW 1747   0.304   0.206   3.107
  335SOL    HW1 1748   0.264   0.237   3.188
  335SOL    HW2 1749   0.296   0.111   3.111
  336SOL     OW 1750   0.070   1.319   3.143
  336SOL    HW1 1751   0.091   1.259   3.214
  336SOL    HW2 1752   0.001   1.376   3.178
  337SOL     OW 1753   0.726   0.632   2.923
  337SOL    HW1 1754   0.800   0.615   2.863
  337SOL    HW2 1755   0.698   0.721   2.900
  338SOL     OW 1756   1.734   0.959   3.714
  338SOL    HW1 1757   1.688   0.899   3.656
  338SOL    HW2 1758   1.675   0.972   3.788
  339SOL     OW 1759   0.318   0.067   2.515
  339SOL    HW1 1760   0.299   0.161   2.524
  339SOL    HW2 1761   0.320   0.035   2.605
  340SOL     OW 1762   1.611   0.374   2.228
  340SOL    HW1 1763   1.645   0.311   2.291
  340SOL    HW2 1764   1.592   0.452   2.280
  341SOL     OW 1765   1.028   0.759   2.823
  341SOL    HW1 1766   1.025   0.777   2.917
  341SOL    HW2 1767   1.001   0.668   2.815
  342SOL     OW 1768   0.981   1.565   3.578
  342SOL    HW1 1769   0.967   1.610   3.495
  342SOL    HW2 1770   1.026   1.484   3.554
  343SOL     OW 1771   1.856   1.506   3.467
  343SOL    HW1 1772   1.872   1.533   3.377
  343SOL    HW2 1773   1.936   1.528   3.514
  344SOL     OW 1774   0.353   0.917   3.669
  344SOL    HW1 1775   0.434   0.938   3.715
  344SOL    HW2 1776   0.380   0.853   3.602
  345SOL     OW 1777   1.527   0.272   1.988
  345SOL    HW1 1778   1.463   0.208   2.019
  345SOL    HW2 1779   1.563   0.311   2.068
  346SOL     OW 1780   1.292   0.827   1.894
  346SOL    HW1 1781   1.335   0.741   1.897
  346SOL    HW2 1782   1.323   0.866   1.812
  347SOL     OW 1783   1.066   1.335   2.716
  347SOL    HW1 1784   1.069   1.263   2.653
  347SOL    HW2 1785   1.128   1.400   2.681
  348SOL     OW 1786   0.315   0.810   2.812
  348SOL    HW1 1787   0.409   0.828   2.808
  348SOL    HW2 1788   0.309   0.720   2.843
  349SOL     OW 1789   0.336   0.526   2.877
  349SOL    HW1 1790   0.299   0.439   2.860
  349SOL    HW2 1791   0.411   0.531   2.817
  350SOL     OW 1792   1.135   0.378   3.550
  350SOL    HW1 1793   1.088   0.433   3.612
  350SOL    HW2 1794   1.223   0.417   3.545
  351SOL     OW 1795   1.134   0.223   3.327
  351SOL    HW1 1796   1.139   0.281   3.403
  351SOL    HW2 1797   1.189   0.264   3.261
  352SOL     OW 1798   0.001   1.330   2.072
  352SOL    HW1 1799   5.227   1.320   2.013
  352SOL    HW2 1800   0.012   1.244   2.113
  353SOL     OW 1801   0.092   1.782   2.812
  353SOL    HW1 1802   0.059   1.711   2.757
  353SOL    HW2 1803   0.180   1.800   2.777
  354SOL     OW 1804   0.505   1.573   2.769
  354SOL    HW1 1805   0.572   1.638   2.790
  354SOL    HW2 1806   0.549   1.512   2.710
  355SOL     OW 1807   0.984   0.793   3.089
  355SOL    HW1 1808   1.040   0.769   3.163
  355SOL    HW2 1809   0.899   0.756   3.110
  356SOL     OW 1810   0.036   0.564   2.980
  356SOL    HW1 1811   0.118   0.534   2.942
  356SOL    HW2 1812   0.038   0.534   3.071
  357SOL     OW 1813   0.168   0.514   3.576
  357SOL    HW1 1814   0.251   0.495   3.535
  357SOL    HW2 1815   0.137   0.594   3.533
  358SOL     OW 1816   1.377   0.939   3.521
  358SOL    HW1 1817   1.398   1.033   3.519
  358SOL    HW2 1818   1.374   0.914   3.428
  359SOL     OW 1819   0.814   0.572   2.223
  359SOL    HW1 1820   0.818   0.497   2.163
  359SOL    HW2 1821   0.740   0.624   2.192
  360SOL     OW 1822   1.642   0.601   3.048
  360SOL    HW1 1823   1.631   0.542   3.123
  360SOL    HW2 1824   1.729   0.581   3.014
  361SOL     OW 1825   0.257   1.556   3.597
  361SOL    HW1 1826   0.234   1.619   3.666
  361SOL    HW2 1827   0.249   1.471   3.640
  362SOL     OW 1828   0.696   0.453   3.124
  362SOL    HW1 1829   0.648   0.379   3.089
  362SOL    HW2 1830   0.697   0.517   3.052
  363SOL     OW 1831   0.929   1.679   3.329
  363SOL    HW1 1832   0.902   1.646   3.243
  363SOL    HW2 1833   0.925   1.774   3.320
  364SOL     OW 1834   0.464   0.493   2.043
  364SOL    HW1 1835   0.526   0.562   2.066
  364SOL    HW2 1836   0.380   0.538   2.036
  365SOL     OW 1837   0.148   1.138   3.333
  365SOL    HW1 1838   0.146   1.088   3.415
  365SOL    HW2 1839   0.161   1.071   3.266
  366SOL     OW 1840   1.326   1.047   3.086
  366SOL    HW1 1841   1.350   0.984   3.018
  366SOL    HW2 1842   1.256   1.099   3.047
  367SOL     OW 1843   1.310   0.857   2.169
  367SOL    HW1 1844   1.235   0.826   2.218
  367SOL    HW2 1845   1.287   0.843   2.077
  368SOL     OW 1846   1.767   1.746   3.008
  368SOL    HW1 1847   1.832   1.769   2.942
  368SOL    HW2 1848   1.746   1.654   2.990
  369SOL     OW 1849   1.241   1.733   2.975
  369SOL    HW1 1850   1.323   1.753   2.931
  369SOL    HW2 1851   1.247   1.639   2.994
  370SOL     OW 1852   0.083   1.218   2.889
  370SOL    HW1 1853   0.070   1.243   2.981
  370SOL    HW2 1854   5.294   1.206   2.855
  371SOL     OW 1855   0.678   1.665   3.590
  371SOL    HW1 1856   0.623   1.744   3.585
  371SOL    HW2 1857   0.742   1.676   3.520
  372SOL     OW 1858   1.712   0.148   2.365
  372SOL    HW1 1859   1.788   0.127   2.310
  372SOL    HW2 1860   1.705   0.073   2.425
  373SOL     OW 1861   1.390   1.568   2.346
  373SOL    HW1 1862   1.451   1.600   2.279
  373SOL    HW2 1863   1.342   1.645   2.374
  374SOL     OW 1864   0.144   1.798   3.704
  374SOL    HW1 1865   0.090   1.735   3.752
  374SOL    HW2 1866   0.190   1.846   3.773
  375SOL     OW 1867   1.277   0.925   2.533
  375SOL    HW1 1868   1.351   0.864   2.539
  375SOL    HW2 1869   1.311   0.998   2.481
  376SOL     OW 1870   0.815   1.273   3.293
  376SOL    HW1 1871   0.787   1.312   3.375
  376SOL    HW2 1872   0.746   1.295   3.231
  377SOL     OW 1873   0.672   1.619   2.017
  377SOL    HW1 1874   0.682   1.631   1.923
  377SOL    HW2 1875   0.618   1.540   2.025
  378SOL     OW 1876   1.626   1.726   3.252
  378SOL    HW1 1877   1.677   1.733   3.171
  378SOL    HW2 1878   1.614   1.816   3.281
  379SOL     OW 1879   1.845   0.157   2.819
  379SOL    HW1 1880   1.846   0.063   2.805
  379SOL    HW2 1881   1.758   0.186   2.791
  380SOL     OW 1882   0.270   0.328   2.580
  380SOL    HW1 1883   0.184   0.366   2.564
  380SOL    HW2 1884   0.272   0.313   2.675
  381SOL     OW 1885   1.207   1.606   1.893
  381SOL    HW1 1886   1.198   1.515   1.920
  381SOL    HW2 1887   1.142   1.618   1.824
  382SOL     OW 1888   0.824   1.006   3.234
  382SOL    HW1 1889   0.868   1.002   3.149
  382SOL    HW2 1890   0.824   1.099   3.257
  383SOL     OW 1891   0.915   0.910   2.152
  383SOL    HW1 1892   0.976   0.942   2.085
  383SOL    HW2 1893   0.963   0.841   2.197
  384SOL     OW 1894   1.492   1.625   1.904
  384SOL    HW1 1895   1.398   1.619   1.891
  384SOL    HW2 1896   1.529   1.631   1.816
  385SOL     OW 1897   0.368   1.303   3.355
  385SOL    HW1 1898   0.359   1.378   3.296
  385SOL    HW2 1899   0.291   1.249   3.335
  386SOL     OW 1900   1.610   1.283   3.143
  386SOL    HW1 1901   1.672   1.274   3.216
  386SOL    HW2 1902   1.551   1.352   3.170
  387SOL     OW 1903   1.051   1.106   2.568
  387SOL    HW1 1904   0.981   1.055   2.608
  387SOL    HW2 1905   1.113   1.041   2.536
  388SOL     OW 1906   1.020   0.243   2.830
  388SOL    HW1 1907   1.000   0.197   2.748
  388SOL    HW2 1908   1.012   0.175   2.897
  389SOL     OW 1909   0.601   1.487   2.343
  389SOL    HW1 1910   0.645   1.439   2.274
  389SOL    HW2 1911   0.535   1.540   2.298
  390SOL     OW 1912   1.723   0.387   3.240
  390SOL    HW1 1913   1.793   0.452   3.240
  390SOL    HW2 1914   1.755   0.317   3.182
  391SOL     OW 1915   0.260   1.348   2.154
  391SOL    HW1 1916   0.167   1.350   2.131
  391SOL    HW2 1917   0.264   1.385   2.242
  392SOL     OW 1918   0.115   1.015   3.579
  392SOL    HW1 1919   0.044   0.982   3.634
  392SOL    HW2 1920   0.195   0.985   3.623
  393SOL     OW 1921   0.674   0.214   3.351
  393SOL    HW1 1922   0.757   0.196   3.307
  393SOL    HW2 1923   0.698   0.259   3.431
  394SOL     OW 1924   0.078   0.338   1.899
  394SOL    HW1 1925   5.287   0.310   1.886
  394SOL    HW2 1926   0.093   0.405   1.833
  395SOL     OW 1927   1.430   0.858   3.263
  395SOL    HW1 1928   1.382   0.919   3.207
  395SOL    HW2 1929   1.520   0.861   3.229
  396SOL     OW 1930   0.083   0.141   2.156
  396SOL    HW1 1931   0.077   0.235   2.138
  396SOL    HW2 1932   0.170   0.116   2.125
  397SOL     OW 1933   1.179   1.340   1.979
  397SOL    HW1 1934   1.088   1.310   1.982
  397SOL    HW2 1935   1.207   1.340   2.070
  398SOL     OW 1936   0.619   0.831   3.297
  398SOL    HW1 1937   0.674   0.907   3.281
  398SOL    HW2 1938   0.681   0.758   3.305
  399SOL     OW 1939   1.484   1.775   2.840
  399SOL    HW1 1940   1.508   1.834   2.769
  399SOL    HW2 1941   1.567   1.759   2.886
  400SOL     OW 1942   0.714   0.572   3.566
  400SOL    HW1 1943   0.755   0.636   3.624
  400SOL    HW2 1944   0.747   0.488   3.596
  401SOL     OW 1945   1.471   1.201   3.494
  401SOL    HW1 1946   1.459   1.214   3.588
  401SOL    HW2 1947   1.564   1.215   3.479
  402SOL     OW 1948   0.379   1.742   3.426
  402SOL    HW1 1949   0.296   1.788   3.411
  402SOL    HW2 1950   0.354   1.661   3.471
  403SOL     OW 1951   1.670   0.881   3.117
  403SOL    HW1 1952   1.663   0.796   3.074
  403SOL    HW2 1953   1.661   0.945   3.046
  404SOL     OW 1954   1.221   0.319   2.327
  404SOL    HW1 1955   1.284   0.248   2.320
  404SOL    HW2 1956   1.251   0.371   2.402
  405SOL     OW 1957   0.590   0.738   2.531
  405SOL    HW1 1958   0.629   0.824   2.515
  405SOL    HW2 1959   0.521   0.731   2.465
  406SOL     OW 1960   1.767   0.361   3.510
  406SOL    HW1 1961   1.747   0.376   3.418
  406SOL    HW2 1962   1.696   0.305   3.542
  407SOL     OW 1963   1.744   0.934   3.374
  407SOL    HW1 1964   1.743   1.028   3.388
  407SOL    HW2 1965   1.729   0.922   3.281
  408SOL     OW 1966   0.862   1.367   1.895
  408SOL    HW1 1967   0.824   1.396   1.978
  408SOL    HW2 1968   0.881   1.449   1.848
  409SOL     OW 1969   0.662   1.794   2.806
  409SOL    HW1 1970   0.641   1.885   2.783
  409SOL    HW2 1971   0.758   1.789   2.800
  410SOL     OW 1972   0.867   0.966   2.717
  410SOL    HW1 1973   0.917   0.895   2.757
  410SOL    HW2 1974   0.833   1.016   2.791
  411SOL     OW 1975   1.078   0.987   1.950
  411SOL    HW1 1976   1.058   1.039   1.872
  411SOL    HW2 1977   1.154   0.934   1.925
  412SOL     OW 1978   1.855   1.554   2.706
  412SOL    HW1 1979   1.776   1.543   2.653
  412SOL    HW2 1980   1.846   1.489   2.776
  413SOL     OW 1981   0.225   1.305   3.722
  413SOL    HW1 1982   0.156   1.243   3.696
  413SOL    HW2 1983   0.214   1.316   3.816
  414SOL     OW 1984   0.087   1.221   2.516
  414SOL    HW1 1985   0.099   1.188   2.606
  414SOL    HW2 1986   0.173   1.213   2.476
  415SOL     OW 1987   0.681   1.402   3.490
  415SOL    HW1 1988   0.600   1.360   3.520
  415SOL    HW2 1989   0.676   1.490   3.526
  416SOL     OW 1990   1.815   0.178   3.095
  416SOL    HW1 1991   1.782   0.088   3.102
  416SOL    HW2 1992   1.832   0.190   3.002
  417SOL     OW 1993   0.432   0.436   2.384
  417SOL    HW1 1994   0.464   0.362   2.332
  417SOL    HW2 1995   0.387   0.395   2.458
  418SOL     OW 1996   1.701   1.489   2.958
  418SOL    HW1 1997   1.620   1.465   2.914
  418SOL    HW2 1998   1.714   1.421   3.024
  419SOL     OW 1999   0.336   0.560   3.151
  419SOL    HW1 2000   0.392   0.502   3.202
  419SOL    HW2 2001   0.350   0.533   3.060
  420SOL     OW 2002   0.828   1.577   2.540
  420SOL    HW1 2003   0.816   1.631   2.462
  420SOL    HW2 2004   0.750   1.521   2.542
  421SOL     OW 2005   1.428   0.218   2.978
  421SOL    HW1 2006   1.465   0.144   3.026
  421SOL    HW2 2007   1.380   0.268   3.044
  422SOL     OW 2008   1.002   0.021   3.003
  422SOL    HW1 2009   0.951   5.252   2.960
  422SOL    HW2 2010   1.089   5.283   3.016
  423SOL     OW 2011   0.771   1.332   2.176
  423SOL    HW1 2012   0.741   1.242   2.182
  423SOL    HW2 2013   0.854   1.333   2.225
  424SOL     OW 2014   0.622   1.556   3.149
  424SOL    HW1 2015   0.624   1.639   3.198
  424SOL    HW2 2016   0.709   1.550   3.109
  425SOL     OW 2017   1.355   0.039   2.023
  425SOL    HW1 2018   1.387   5.297   1.944
  425SOL    HW2 2019   1.276   5.290   2.047
  426SOL     OW 2020   1.301   0.463   2.547
  426SOL    HW1 2021   1.246   0.542   2.553
  426SOL    HW2 2022   1.294   0.423   2.633
  427SOL     OW 2023   1.594   0.216   2.744
  427SOL    HW1 2024   1.527   0.227   2.811
  427SOL    HW2 2025   1.587   0.294   2.689
  428SOL     OW 2026   0.047   1.069   2.152
  428SOL    HW1 2027   0.137   1.038   2.142
  428SOL    HW2 2028   5.300   0.993   2.187
  429SOL     OW 2029   0.884   1.651   2.204
  429SOL    HW1 2030   0.811   1.635   2.144
  429SOL    HW2 2031   0.856   1.727   2.256
  430SOL     OW 2032   0.233   0.633   3.841
  430SOL    HW1 2033   0.156   0.607   3.892
  430SOL    HW2 2034   0.215   0.600   3.753
  431SOL     OW 2035   0.233   0.280   4.714
  431SOL    HW1 2036   0.252   0.244   4.800
  431SOL    HW2 2037   0.152   0.236   4.686
  432SOL     OW 2038   0.000   0.406   4.388
  432SOL    HW1 2039   5.207   0.427   4.392
  432SOL    HW2 2040   0.002   0.315   4.357
  433SOL     OW 2041   0.573   1.283   4.904
  433SOL    HW1 2042   0.490   1.292   4.857
  433SOL    HW2 2043   0.590   1.370   4.939
  434SOL     OW 2044   1.559   1.510   4.431
  434SOL    HW1 2045   1.516   1.492   4.514
  434SOL    HW2 2046   1.487   1.515   4.368
  435SOL     OW 2047   1.131   0.698   4.426
  435SOL    HW1 2048   1.180   0.779   4.411
  435SOL    HW2 2049   1.084   0.713   4.508
  436SOL     OW 2050   1.766   0.606   3.953
  436SOL    HW1 2051   1.746   0.598   3.860
  436SOL    HW2 2052   1.731   0.526   3.992
  437SOL     OW 2053   0.756   1.142   4.762
  437SOL    HW1 2054   0.689   1.176   4.821
  437SOL    HW2 2055   0.791   1.219   4.719
  438SOL     OW 2056   0.863   0.779   5.545
  438SOL    HW1 2057   0.857   0.851   5.608
  438SOL    HW2 2058   0.889   0.821   5.463
  439SOL     OW 2059   0.685   1.003   4.372
  439SOL    HW1 2060   0.751   0.991   4.440
  439SOL    HW2 2061   0.617   1.056   4.413
  440SOL     OW 2062   0.709   1.151   5.536
  440SOL    HW1 2063   0.757   1.229   5.562
  440SOL    HW2 2064   0.627   1.184   5.500
  441SOL     OW 2065   0.358   1.405   4.783
  441SOL    HW1 2066   0.270   1.405   4.746
  441SOL    HW2 2067   0.407   1.468   4.730
  442SOL     OW 2068   1.461   1.499   5.077
  442SOL    HW1 2069   1.511   1.580   5.086
  442SOL    HW2 2070   1.402   1.500   5.152
  443SOL     OW 2071   0.448   0.400   5.215
  443SOL    HW1 2072   0.527   0.346   5.209
  443SOL    HW2 2073   0.377   0.336   5.222
  444SOL     OW 2074   1.611   0.452   4.462
  444SOL    HW1 2075   1.535   0.476   4.408
  444SOL    HW2 2076   1.630   0.530   4.514
  445SOL     OW 2077   0.230   1.714   4.201
  445SOL    HW1 2078   0.264   1.783   4.259
  445SOL    HW2 2079   0.293   1.711   4.129
  446SOL     OW 2080   1.136   1.341   5.416
  446SOL    HW1 2081   1.177   1.337   5.503
  446SOL    HW2 2082   1.084   1.261   5.410
  447SOL     OW 2083   0.222   1.443   4.263
  447SOL    HW1 2084   0.215   1.539   4.260
  447SOL    HW2 2085   0.152   1.416   4.322
  448SOL     OW 2086   0.249   1.078   4.599
  448SOL    HW1 2087   0.260   0.993   4.642
  448SOL    HW2 2088   0.198   1.130   4.662
  449SOL     OW 2089   0.614   1.790   5.157
  449SOL    HW1 2090   0.530   1.773   5.199
  449SOL    HW2 2091   0.635   1.881   5.179
  450SOL     OW 2092   0.584   0.983   3.859
  450SOL    HW1 2093   0.629   1.031   3.789
  450SOL    HW2 2094   0.625   1.012   3.940
  451SOL     OW 2095   1.586   0.135   5.181
  451SOL    HW1 2096   1.607   0.219   5.142
  451SOL    HW2 2097   1.585   0.151   5.275
  452SOL     OW 2098   0.124   0.637   4.301
  452SOL    HW1 2099   0.090   0.554   4.334
  452SOL    HW2 2100   0.098   0.701   4.366
  453SOL     OW 2101   1.839   1.756   4.058
  453SOL    HW1 2102   1.900   1.723   4.124
  453SOL    HW2 2103   1.866   1.846   4.042
  454SOL     OW 2104   0.037   1.599   3.855
  454SOL    HW1 2105   0.024   1.507   3.880
  454SOL    HW2 2106   5.284   1.648   3.916
  455SOL     OW 2107   1.688   0.918   4.364
  455SOL    HW1 2108   1.773   0.877   4.344
  455SOL    HW2 2109   1.667   0.969   4.285
  456SOL     OW 2110   1.646   1.107   4.153
  456SOL    HW1 2111   1.731   1.113   4.111
  456SOL    HW2 2112   1.651   1.168   4.227
  457SOL     OW 2113   0.129   0.749   5.311
  457SOL    HW1 2114   0.224   0.763   5.313
  457SOL    HW2 2115   0.091   0.835   5.325
  458SOL     OW 2116   0.615   1.385   4.459
  458SOL    HW1 2117   0.567   1.302   4.469
  458SOL    HW2 2118   0.597   1.411   4.368
  459SOL     OW 2119   1.289   1.238   5.148
  459SOL    HW1 2120   1.321   1.171   5.088
  459SOL    HW2 2121   1.346   1.232   5.224
  460SOL     OW 2122   0.814   0.026   4.250
  460SOL    HW1 2123   0.841   0.114   4.226
  460SOL    HW2 2124   0.718   0.028   4.243
  461SOL     OW 2125   0.177   0.946   5.002
  461SOL    HW1 2126   0.268   0.918   4.992
  461SOL    HW2 2127   0.135   0.922   4.920
  462SOL     OW 2128   1.531   0.993   3.922
  462SOL    HW1 2129   1.462   0.936   3.954
  462SOL    HW2 2130   1.572   1.027   4.002
  463SOL     OW 2131   1.185   1.805   5.346
  463SOL    HW1 2132   1.197   1.864   5.272
  463SOL    HW2 2133   1.201   1.718   5.310
  464SOL     OW 2134   0.326   0.275   5.521
  464SOL    HW1 2135   0.386   0.336   5.563
  464SOL    HW2 2136   0.246   0.281   5.572
  465SOL     OW 2137   1.466   1.419   4.676
  465SOL    HW1 2138   1.398   1.435   4.742
  465SOL    HW2 2139   1.454   1.328   4.650
  466SOL     OW 2140   1.661   1.731   4.302
  466SOL    HW1 2141   1.639   1.703   4.214
  466SOL    HW2 2142   1.634   1.658   4.358
  467SOL     OW 2143   0.594   0.721   3.989
  467SOL    HW1 2144   0.603   0.802   3.938
  467SOL    HW2 2145   0.530   0.742   4.057
  468SOL     OW 2146   1.278   0.346   4.654
  468SOL    HW1 2147   1.188   0.318   4.667
  468SOL    HW2 2148   1.328   0.296   4.720
  469SOL     OW 2149   1.580   1.668   4.033
  469SOL    HW1 2150   1.669   1.702   4.027
  469SOL    HW2 2151   1.553   1.652   3.942
  470SOL     OW 2152   0.794   0.617   5.175
  470SOL    HW1 2153   0.766   0.596   5.264
  470SOL    HW2 2154   0.751   0.552   5.120
  471SOL     OW 2155   1.394   0.475   5.402
  471SOL    HW1 2156   1.397   0.519   5.487
  471SOL    HW2 2157   1.459   0.404   5.411
  472SOL     OW 2158   0.955   0.887   5.306
  472SOL    HW1 2159   1.010   0.817   5.271
  472SOL    HW2 2160   0.908   0.922   5.230
  473SOL     OW 2161   0.994   0.416   4.960
  473SOL    HW1 2162   0.909   0.439   4.999
  473SOL    HW2 2163   0.971   0.368   4.880
  474SOL     OW 2164   1.050   0.698   4.151
  474SOL    HW1 2165   1.066   0.691   4.245
  474SOL    HW2 2166   0.968   0.652   4.137
  475SOL     OW 2167   0.072   0.787   4.536
  475SOL    HW1 2168   0.154   0.793   4.585
  475SOL    HW2 2169   0.062   0.874   4.496
  476SOL     OW 2170   0.131   1.882   5.308
  476SOL    HW1 2171   0.133   1.852   5.399
  476SOL    HW2 2172   0.058   1.834   5.268
  477SOL     OW 2173   0.872   0.363   3.912
  477SOL    HW1 2174   0.916   0.423   3.851
  477SOL    HW2 2175   0.925   0.283   3.910
  478SOL     OW 2176   1.708   0.575   5.552
  478SOL    HW1 2177   1.671   0.649   5.504
  478SOL    HW2 2178   1.737   0.515   5.484
  479SOL     OW 2179   1.376   1.142   4.265
  479SOL    HW1 2180   1.455   1.129   4.213
  479SOL    HW2 2181   1.324   1.204   4.215
  480SOL     OW 2182   0.537   0.201   4.607
  480SOL    HW1 2183   0.554   0.219   4.700
  480SOL    HW2 2184   0.550   0.286   4.564
  481SOL     OW 2185   1.006   1.444   4.196
  481SOL    HW1 2186   0.968   1.516   4.147
  481SOL    HW2 2187   0.990   1.466   4.288
  482SOL     OW 2188   0.356   1.802   4.593
  482SOL    HW1 2189   0.398   1.717   4.606
  482SOL    HW2 2190   0.423   1.865   4.621
  483SOL     OW 2191   1.799   1.057   4.592
  483SOL    HW1 2192   1.743   1.041   4.516
  483SOL    HW2 2193   1.737   1.063   4.665
  484SOL     OW 2194   1.228   1.539   5.237
  484SOL    HW1 2195   1.214   1.466   5.297
  484SOL    HW2 2196   1.166   1.524   5.166
  485SOL     OW 2197   0.317   0.952   3.971
  485SOL    HW1 2198   0.399   0.976   3.928
  485SOL    HW2 2199   0.295   0.867   3.934
  486SOL     OW 2200   1.478   0.742   4.451
  486SOL    HW1 2201   1.469   0.699   4.536
  486SOL    HW2 2202   1.555   0.797   4.460
  487SOL     OW 2203   0.464   1.263   5.461
  487SOL    HW1 2204   0.437   1.270   5.370
  487SOL    HW2 2205   0.382   1.265   5.511
  488SOL     OW 2206   1.121   1.777   3.955
  488SOL    HW1 2207   1.049   1.735   4.001
  488SOL    HW2 2208   1.144   1.717   3.885
  489SOL     OW 2209   0.197   0.279   5.217
  489SOL    HW1 2210   0.157   0.366   5.213
  489SOL    HW2 2211   0.206   0.261   5.310
  490SOL     OW 2212   1.629   1.379   3.812
  490SOL    HW1 2213   1.588   1.465   3.796
  490SOL    HW2 2214   1.560   1.316   3.792
  491SOL     OW 2215   0.471   1.734   4.044
  491SOL    HW1 2216   0.513   1.793   4.107
  491SOL    HW2 2217   0.543   1.705   3.988
  492SOL     OW 2218   1.407   0.100   4.155
  492SOL    HW1 2219   1.399   0.082   4.061
  492SOL    HW2 2220   1.499   0.122   4.167
  493SOL     OW 2221   0.275   1.801   4.939
  493SOL    HW1 2222   0.307   1.724   4.986
  493SOL    HW2 2223   0.226   1.765   4.865
  494SOL     OW 2224   0.939   1.698   4.624
  494SOL    HW1 2225   1.017   1.647   4.643
  494SOL    HW2 2226   0.894   1.649   4.555
  495SOL     OW 2227   0.385   0.696   4.203
  495SOL    HW1 2228   0.415   0.605   4.211
  495SOL    HW2 2229   0.292   0.693   4.224
  496SOL     OW 2230   1.540   0.227   5.448
  496SOL    HW1 2231   1.547   0.246   5.541
  496SOL    HW2 2232   1.464   0.169   5.440
  497SOL     OW 2233   0.621   0.133   3.831
  497SOL    HW1 2234   0.689   0.070   3.855
  497SOL    HW2 2235   0.574   0.091   3.758
  498SOL     OW 2236   0.782   0.313   5.490
  498SOL    HW1 2237   0.841   0.237   5.491
  498SOL    HW2 2238   0.734   0.307   5.573
  499SOL     OW 2239   0.877   1.521   4.918
  499SOL    HW1 2240   0.861   1.485   4.830
  499SOL    HW2 2241   0.947   1.467   4.953
  500SOL     OW 2242   1.341   0.589   5.156
  500SOL    HW1 2243   1.372   0.558   5.241
  500SOL    HW2 2244   1.377   0.677   5.148
  501SOL     OW 2245   0.815   1.395   4.663
  501SOL    HW1 2246   0.899   1.384   4.619
  501SOL    HW2 2247   0.751   1.396   4.592
  502SOL     OW 2248   0.927   0.510   4.628
  502SOL    HW1 2249   0.904   0.502   4.535
  502SOL    HW2 2250   0.959   0.423   4.652
  503SOL     OW 2251   0.547   0.059   4.228
  503SOL    HW1 2252   0.468   0.060   4.282
  503SOL    HW2 2253   0.535   0.131   4.167
  504SOL     OW 2254   1.428   1.198   3.765
  504SOL    HW1 2255   1.459   1.122   3.815
  504SOL    HW2 2256   1.343   1.219   3.803
  505SOL     OW 2257   0.314   0.063   3.908
  505SOL    HW1 2258   0.380   0.129   3.887
  505SOL    HW2 2259   0.364   5.283   3.922
  506SOL     OW 2260   0.939   0.261   4.187
  506SOL    HW1 2261   0.911   0.299   4.103
  506SOL    HW2 2262   1.034   0.273   4.188
  507SOL     OW 2263   1.081   0.681   5.184
  507SOL    HW1 2264   1.012   0.614   5.189
  507SOL    HW2 2265   1.162   0.631   5.177
  508SOL     OW 2266   1.224   1.570   4.518
  508SOL    HW1 2267   1.240   1.637   4.451
  508SOL    HW2 2268   1.292   1.584   4.584
  509SOL     OW 2269   0.467   1.150   4.456
  509SOL    HW1 2270   0.398   1.130   4.519
  509SOL    HW2 2271   0.428   1.132   4.371
  510SOL     OW 2272   1.270   1.794   4.331
  510SOL    HW1 2273   1.316   1.856   4.274
  510SOL    HW2 2274   1.204   1.848   4.375
  511SOL     OW 2275   1.026   0.547   3.746
  511SOL    HW1 2276   0.984   0.631   3.727
  511SOL    HW2 2277   1.090   0.566   3.814
  512SOL     OW 2278   0.097   0.532   5.134
  512SOL    HW1 2279   0.178   0.550   5.087
  512SOL    HW2 2280   0.077   0.613   5.181
  513SOL     OW 2281   0.560   0.239   4.881
  513SOL    HW1 2282   0.591   0.152   4.908
  513SOL    HW2 2283   0.467   0.239   4.906
  514SOL     OW 2284   0.868   0.463   4.365
  514SOL    HW1 2285   0.821   0.516   4.300
  514SOL    HW2 2286   0.890   0.382   4.319
  515SOL     OW 2287   0.979   0.060   4.486
  515SOL    HW1 2288   0.914   0.055   4.416
  515SOL    HW2 2289   0.987   5.271   4.519
  516SOL     OW 2290   1.437   1.163   4.582
  516SOL    HW1 2291   1.368   1.096   4.579
  516SOL    HW2 2292   1.461   1.175   4.490
  517SOL     OW 2293   1.466   0.605   4.702
  517SOL    HW1 2294   1.418   0.523   4.706
  517SOL    HW2 2295   1.527   0.600   4.776
  518SOL     OW 2296   1.846   0.817   4.106
  518SOL    HW1 2297   1.902   0.766   4.164
  518SOL    HW2 2298   1.817   0.755   4.039
  519SOL     OW 2299   0.492   1.417   3.883
  519SOL    HW1 2300   0.417   1.388   3.935
  519SOL    HW2 2301   0.474   1.383   3.795
  520SOL     OW 2302   1.669   1.264   4.371
  520SOL    HW1 2303   1.763   1.267   4.384
  520SOL    HW2 2304   1.638   1.352   4.392
  521SOL     OW 2305   1.394   0.572   3.795
  521SOL    HW1 2306   1.333   0.553   3.867
  521SOL    HW2 2307   1.479   0.542   3.827
  522SOL     OW 2308   0.522   0.265   4.045
  522SOL    HW1 2309   0.569   0.216   3.976
  522SOL    HW2 2310   0.504   0.350   4.005
  523SOL     OW 2311   1.753   1.239   5.299
  523SOL    HW1 2312   1.841   1.200   5.293
  523SOL    HW2 2313   1.768   1.329   5.327
  524SOL     OW 2314   1.059   1.353   5.057
  524SOL    HW1 2315   0.984   1.322   5.109
  524SOL    HW2 2316   1.135   1.312   5.099
  525SOL     OW 2317   1.607   1.625   5.377
  525SOL    HW1 2318   1.602   1.660   5.288
  525SOL    HW2 2319   1.691   1.578   5.380
  526SOL     OW 2320   1.127   1.202   4.830
  526SOL    HW1 2321   1.069   1.241   4.895
  526SOL    HW2 2322   1.095   1.235   4.746
  527SOL     OW 2323   1.629   1.098   4.802
  527SOL    HW1 2324   1.624   1.160   4.874
  527SOL    HW2 2325   1.550   1.116   4.750
  528SOL     OW 2326   0.905   0.106   5.114
  528SOL    HW1 2327   0.936   0.073   5.030
  528SOL    HW2 2328   0.982   0.149   5.153
  529SOL     OW 2329   0.984   1.114   5.447
  529SOL    HW1 2330   0.892   1.131   5.466
  529SOL    HW2 2331   0.984   1.037   5.390
  530SOL     OW 2332   0.707   1.059   4.096
  530SOL    HW1 2333   0.696   1.044   4.190
  530SOL    HW2 2334   0.784   1.007   4.073
  531SOL     OW 2335   0.420   0.819   4.976
  531SOL    HW1 2336   0.490   0.825   5.042
  531SOL    HW2 2337   0.385   0.731   4.986
  532SOL     OW 2338   1.267   0.379   4.996
  532SOL    HW1 2339   1.300   0.456   5.043
  532SOL    HW2 2340   1.177   0.401   4.973
  533SOL     OW 2341   0.101   1.623   5.091
  533SOL    HW1 2342   0.079   1.633   4.999
  533SOL    HW2 2343   0.187   1.581   5.091
  534SOL     OW 2344   0.344   1.105   4.212
  534SOL    HW1 2345   0.354   1.184   4.159
  534SOL    HW2 2346   0.354   1.033   4.150
  535SOL     OW 2347   0.556   0.537   4.584
  535SOL    HW1 2348   0.571   0.596   4.510
  535SOL    HW2 2349   0.620   0.564   4.649
  536SOL     OW 2350   1.248   1.348   4.113
  536SOL    HW1 2351   1.304   1.420   4.144
  536SOL    HW2 2352   1.161   1.369   4.147
  537SOL     OW 2353   1.280   1.457   4.871
  537SOL    HW1 2354   1.336   1.460   4.948
  537SOL    HW2 2355   1.225   1.380   4.885
  538SOL     OW 2356   1.582   0.623   4.202
  538SOL    HW1 2357   1.536   0.678   4.266
  538SOL    HW2 2358   1.628   0.685   4.145
  539SOL     OW 2359   0.352   1.519   5.035
  539SOL    HW1 2360   0.342   1.476   4.950
  539SOL    HW2 2361   0.445   1.537   5.042
  540SOL     OW 2362   0.414   0.741   5.326
  540SOL    HW1 2363   0.472   0.790   5.268
  540SOL    HW2 2364   0.460   0.659   5.342
  541SOL     OW 2365   1.600   0.778   5.405
  541SOL    HW1 2366   1.514   0.819   5.398
  541SOL    HW2 2367   1.653   0.820   5.337
  542SOL     OW 2368   1.042   0.116   5.506
  542SOL    HW1 2369   1.069   0.195   5.459
  542SOL    HW2 2370   1.050   0.046   5.441
  543SOL     OW 2371   0.483   0.058   5.462
  543SOL    HW1 2372   0.427   5.291   5.423
  543SOL    HW2 2373   0.423   0.131   5.480
  544SOL     OW 2374   0.585   0.874   4.756
  544SOL    HW1 2375   0.617   0.964   4.754
  544SOL    HW2 2376   0.529   0.869   4.833
  545SOL     OW 2377   1.358   0.859   4.755
  545SOL    HW1 2378   1.276   0.850   4.707
  545SOL    HW2 2379   1.398   0.772   4.750
  546SOL     OW 2380   1.206   0.528   3.992
  546SOL    HW1 2381   1.211   0.448   4.043
  546SOL    HW2 2382   1.164   0.592   4.050
  547SOL     OW 2383   0.304   0.206   4.969
  547SOL    HW1 2384   0.264   0.237   5.050
  547SOL    HW2 2385   0.296   0.111   4.973
  548SOL     OW 2386   0.070   1.319   5.005
  548SOL    HW1 2387   0.091   1.259   5.076
  548SOL    HW2 2388   0.001   1.376   5.040
  549SOL     OW 2389   0.726   0.632   4.785
  549SOL    HW1 2390   0.800   0.614   4.726
  549SOL    HW2 2391   0.698   0.721   4.762
  550SOL     OW 2392   1.734   0.959   5.576
  550SOL    HW1 2393   1.688   0.899   5.518
  550SOL    HW2 2394   1.674   0.972   5.650
  551SOL     OW 2395   0.318   0.067   4.377
  551SOL    HW1 2396   0.299   0.161   4.386
  551SOL    HW2 2397   0.321   0.035   4.467
  552SOL     OW 2398   1.611   0.374   4.090
  552SOL    HW1 2399   1.645   0.311   4.154
  552SOL    HW2 2400   1.591   0.452   4.141
  553SOL     OW 2401   1.027   0.759   4.685
  553SOL    HW1 2402   1.025   0.777   4.779
  553SOL    HW2 2403   1.001   0.668   4.677
  554SOL     OW 2404   0.981   1.565   5.440
  554SOL    HW1 2405   0.967   1.610   5.357
  554SOL    HW2 2406   1.026   1.484   5.416
  555SOL     OW 2407   1.855   1.507   5.330
  555SOL    HW1 2408   1.873   1.532   5.239
  555SOL    HW2 2409   1.936   1.525   5.376
  556SOL     OW 2410   0.353   0.916   5.531
  556SOL    HW1 2411   0.434   0.938   5.577
  556SOL    HW2 2412   0.380   0.853   5.464
  557SOL     OW 2413   1.527   0.272   3.850
  557SOL    HW1 2414   1.463   0.208   3.881
  557SOL    HW2 2415   1.563   0.311   3.930
  558SOL     OW 2416   1.292   0.827   3.756
  558SOL    HW1 2417   1.335   0.741   3.759
  558SOL    HW2 2418   1.323   0.866   3.674
  559SOL     OW 2419   1.066   1.335   4.578
  559SOL    HW1 2420   1.069   1.263   4.515
  559SOL    HW2 2421   1.128   1.400   4.543
  560SOL     OW 2422   0.315   0.810   4.674
  560SOL    HW1 2423   0.409   0.828   4.670
  560SOL    HW2 2424   0.309   0.720   4.705
  561SOL     OW 2425   0.336   0.526   4.739
  561SOL    HW1 2426   0.299   0.439   4.722
  561SOL    HW2 2427   0.411   0.531   4.679
  562SOL     OW 2428   1.135   0.378   5.412
  562SOL    HW1 2429   1.088   0.433   5.474
  562SOL    HW2 2430   1.223   0.417   5.407
  563SOL     OW 2431   1.134   0.223   5.190
  563SOL    HW1 2432   1.139   0.281   5.265
  563SOL    HW2 2433   1.189   0.264   5.123
  564SOL     OW 2434   0.001   1.330   3.934
  564SOL    HW1 2435   5.226   1.320   3.876
  564SOL    HW2 2436   0.012   1.244   3.975
  565SOL     OW 2437   0.092   1.782   4.674
  565SOL    HW1 2438   0.059   1.711   4.619
  565SOL    HW2 2439   0.180   1.800   4.639
  566SOL     OW 2440   0.505   1.573   4.631
  566SOL    HW1 2441   0.572   1.638   4.652
  566SOL    HW2 2442   0.549   1.512   4.572
  567SOL     OW 2443   0.984   0.793   4.951
  567SOL    HW1 2444   1.040   0.769   5.025
  567SOL    HW2 2445   0.899   0.756   4.972
  568SOL     OW 2446   0.036   0.564   4.842
  568SOL    HW1 2447   0.118   0.534   4.804
  568SOL    HW2 2448   0.038   0.534   4.933
  569SOL     OW 2449   0.168   0.514   5.438
  569SOL    HW1 2450   0.252   0.495   5.397
  569SOL    HW2 2451   0.137   0.594   5.395
  570SOL     OW 2452   1.376   0.940   5.383
  570SOL    HW1 2453   1.398   1.033   5.381
  570SOL    HW2 2454   1.374   0.914   5.290
  571SOL     OW 2455   0.814   0.571   4.085
  571SOL    HW1 2456   0.818   0.497   4.025
  571SOL    HW2 2457   0.740   0.624   4.054
  572SOL     OW 2458   1.642   0.601   4.910
  572SOL    HW1 2459   1.631   0.542   4.985
  572SOL    HW2 2460   1.729   0.581   4.876
  573SOL     OW 2461   0.257   1.556   5.459
  573SOL    HW1 2462   0.233   1.619   5.528
  573SOL    HW2 2463   0.249   1.470   5.502
  574SOL     OW 2464   0.696   0.453   4.986
  574SOL    HW1 2465   0.647   0.379   4.951
  574SOL    HW2 2466   0.697   0.517   4.914
  575SOL     OW 2467   0.928   1.679   5.191
  575SOL    HW1 2468   0.902   1.645   5.106
  575SOL    HW2 2469   0.925   1.774   5.182
  576SOL     OW 2470   0.464   0.493   3.905
  576SOL    HW1 2471   0.527   0.561   3.928
  576SOL    HW2 2472   0.380   0.538   3.898
  577SOL     OW 2473   0.148   1.138   5.195
  577SOL    HW1 2474   0.146   1.088   5.277
  577SOL    HW2 2475   0.161   1.071   5.128
  578SOL     OW 2476   1.326   1.047   4.948
  578SOL    HW1 2477   1.350   0.984   4.880
  578SOL    HW2 2478   1.255   1.099   4.909
  579SOL     OW 2479   1.311   0.856   4.030
  579SOL    HW1 2480   1.235   0.826   4.080
  579SOL    HW2 2481   1.287   0.843   3.939
  580SOL     OW 2482   1.763   1.745   4.871
  580SOL    HW1 2483   1.828   1.774   4.808
  580SOL    HW2 2484   1.746   1.654   4.849
  581SOL     OW 2485   1.241   1.733   4.837
  581SOL    HW1 2486   1.323   1.754   4.793
  581SOL    HW2 2487   1.247   1.639   4.855
  582SOL     OW 2488   0.083   1.218   4.751
  582SOL    HW1 2489   0.070   1.243   4.843
  582SOL    HW2 2490   5.294   1.206   4.717
  583SOL     OW 2491   0.678   1.665   5.452
  583SOL    HW1 2492   0.623   1.744   5.447
  583SOL    HW2 2493   0.742   1.676   5.382
  584SOL     OW 2494   1.712   0.148   4.227
  584SOL    HW1 2495   1.788   0.127   4.172
  584SOL    HW2 2496   1.705   0.073   4.287
  585SOL     OW 2497   1.390   1.568   4.208
  585SOL    HW1 2498   1.450   1.599   4.141
  585SOL    HW2 2499   1.342   1.646   4.236
  586SOL     OW 2500   0.144   1.798   5.567
  586SOL    HW1 2501   0.090   1.735   5.614
  586SOL    HW2 2502   0.190   1.846   5.635
  587SOL     OW 2503   1.277   0.925   4.395
  587SOL    HW1 2504   1.351   0.864   4.401
  587SOL    HW2 2505   1.311   0.998   4.343
  588SOL     OW 2506   0.815   1.272   5.155
  588SOL    HW1 2507   0.787   1.312   5.237
  588SOL    HW2 2508   0.746   1.295   5.092
  589SOL     OW 2509   0.672   1.619   3.879
  589SOL    HW1 2510   0.682   1.631   3.785
  589SOL    HW2 2511   0.618   1.540   3.887
  590SOL     OW 2512   1.627   1.726   5.115
  590SOL    HW1 2513   1.675   1.734   5.033
  590SOL    HW2 2514   1.614   1.816   5.143
  591SOL     OW 2515   1.845   0.157   4.682
  591SOL    HW1 2516   1.846   0.063   4.667
  591SOL    HW2 2517   1.758   0.186   4.653
  592SOL     OW 2518   0.270   0.328   4.442
  592SOL    HW1 2519   0.184   0.366   4.426
  592SOL    HW2 2520   0.272   0.313   4.537
  593SOL     OW 2521   1.207   1.607   3.756
  593SOL    HW1 2522   1.198   1.515   3.782
  593SOL    HW2 2523   1.142   1.618   3.686
  594SOL     OW 2524   0.824   1.006   5.096
  594SOL    HW1 2525   0.868   1.002   5.011
  594SOL    HW2 2526   0.824   1.099   5.119
  595SOL     OW 2527   0.915   0.910   4.014
  595SOL    HW1 2528   0.976   0.942   3.947
  595SOL    HW2 2529   0.963   0.841   4.059
  596SOL     OW 2530   1.493   1.624   3.766
  596SOL    HW1 2531   1.398   1.619   3.753
  596SOL    HW2 2532   1.529   1.631   3.678
  597SOL     OW 2533   0.368   1.303   5.217
  597SOL    HW1 2534   0.359   1.378   5.158
  597SOL    HW2 2535   0.291   1.249   5.197
  598SOL     OW 2536   1.610   1.282   5.004
  598SOL    HW1 2537   1.672   1.274   5.076
  598SOL    HW2 2538   1.551   1.352   5.032
  599SOL     OW 2539   1.051   1.106   4.430
  599SOL    HW1 2540   0.981   1.055   4.470
  599SOL    HW2 2541   1.113   1.041   4.398
  600SOL     OW 2542   1.020   0.243   4.692
  600SOL    HW1 2543   1.000   0.197   4.610
  600SOL    HW2 2544   1.012   0.175   4.759
  601SOL     OW 2545   0.601   1.487   4.205
  601SOL    HW1 2546   0.645   1.439   4.136
  601SOL    HW2 2547   0.535   1.540   4.160
  602SOL     OW 2548   1.723   0.387   5.102
  602SOL    HW1 2549   1.793   0.452   5.102
  602SOL    HW2 2550   1.756   0.317   5.045
  603SOL     OW 2551   0.260   1.348   4.016
  603SOL    HW1 2552   0.167   1.351   3.993
  603SOL    HW2 2553   0.264   1.385   4.104
  604SOL     OW 2554   0.116   1.015   5.441
  604SOL    HW1 2555   0.044   0.982   5.496
  604SOL    HW2 2556   0.195   0.985   5.485
  605SOL     OW 2557   0.674   0.214   5.213
  605SOL    HW1 2558   0.757   0.196   5.169
  605SOL    HW2 2559   0.698   0.259   5.293
  606SOL     OW 2560   0.078   0.337   3.761
  606SOL    HW1 2561   5.287   0.311   3.749
  606SOL    HW2 2562   0.093   0.405   3.695
  607SOL     OW 2563   1.430   0.858   5.125
  607SOL    HW1 2564   1.382   0.919   5.069
  607SOL    HW2 2565   1.520   0.861   5.091
  608SOL     OW 2566   0.083   0.141   4.018
  608SOL    HW1 2567   0.077   0.235   4.000
  608SOL    HW2 2568   0.170   0.116   3.987
  609SOL     OW 2569   1.179   1.340   3.841
  609SOL    HW1 2570   1.088   1.310   3.844
  609SOL    HW2 2571   1.208   1.340   3.932
  610SOL     OW 2572   0.619   0.831   5.159
  610SOL    HW1 2573   0.674   0.907   5.143
  610SOL    HW2 2574   0.681   0.758   5.167
  611SOL     OW 2575   1.486   1.776   4.702
  611SOL    HW1 2576   1.509   1.837   4.632
  611SOL    HW2 2577   1.568   1.761   4.750
  612SOL     OW 2578   0.714   0.572   5.428
  612SOL    HW1 2579   0.755   0.636   5.486
  612SOL    HW2 2580   0.747   0.488   5.458
  613SOL     OW 2581   1.471   1.201   5.356
  613SOL    HW1 2582   1.459   1.214   5.450
  613SOL    HW2 2583   1.564   1.215   5.341
  614SOL     OW 2584   0.379   1.742   5.288
  614SOL    HW1 2585   0.296   1.788   5.273
  614SOL    HW2 2586   0.354   1.661   5.333
  615SOL     OW 2587   1.670   0.881   4.979
  615SOL    HW1 2588   1.663   0.796   4.936
  615SOL    HW2 2589   1.661   0.945   4.909
  616SOL     OW 2590   1.221   0.319   4.189
  616SOL    HW1 2591   1.284   0.248   4.182
  616SOL    HW2 2592   1.251   0.371   4.264
  617SOL     OW 2593   0.590   0.738   4.393
  617SOL    HW1 2594   0.629   0.824   4.377
  617SOL    HW2 2595   0.521   0.731   4.327
  618SOL     OW 2596   1.767   0.361   5.373
  618SOL    HW1 2597   1.747   0.376   5.280
  618SOL    HW2 2598   1.695   0.305   5.404
  619SOL     OW 2599   1.744   0.934   5.237
  619SOL    HW1 2600   1.744   1.028   5.250
  619SOL    HW2 2601   1.729   0.922   5.143
  620SOL     OW 2602   0.862   1.367   3.757
  620SOL    HW1 2603   0.824   1.396   3.840
  620SOL    HW2 2604   0.881   1.448   3.710
  621SOL     OW 2605   0.662   1.794   4.668
  621SOL    HW1 2606   0.641   1.884   4.645
  621SOL    HW2 2607   0.758   1.789   4.662
  622SOL     OW 2608   0.867   0.966   4.579
  622SOL    HW1 2609   0.918   0.895   4.619
  622SOL    HW2 2610   0.833   1.016   4.653
  623SOL     OW 2611   1.077   0.986   3.812
  623SOL    HW1 2612   1.058   1.039   3.734
  623SOL    HW2 2613   1.154   0.934   3.787
  624SOL     OW 2614   1.855   1.555   4.569
  624SOL    HW1 2615   1.777   1.545   4.514
  624SOL    HW2 2616   1.844   1.490   4.638
  625SOL     OW 2617   0.225   1.305   5.584
  625SOL    HW1 2618   0.156   1.243   5.558
  625SOL    HW2 2619   0.214   1.316   5.678
  626SOL     OW 2620   0.087   1.220   4.378
  626SOL    HW1 2621   0.099   1.188   4.468
  626SOL    HW2 2622   0.173   1.213   4.338
  627SOL     OW 2623   0.681   1.401   5.352
  627SOL    HW1 2624   0.600   1.360   5.382
  627SOL    HW2 2625   0.676   1.490   5.388
  628SOL     OW 2626   1.815   0.178   4.957
  628SOL    HW1 2627   1.783   0.088   4.964
  628SOL    HW2 2628   1.832   0.190   4.864
  629SOL     OW 2629   0.432   0.436   4.246
  629SOL    HW1 2630   0.464   0.362   4.194
  629SOL    HW2 2631   0.387   0.395   4.320
  630SOL     OW 2632   1.703   1.487   4.818
  630SOL    HW1 2633   1.620   1.464   4.775
  630SOL    HW2 2634   1.715   1.420   4.885
  631SOL     OW 2635   0.336   0.560   5.013
  631SOL    HW1 2636   0.392   0.502   5.064
  631SOL    HW2 2637   0.350   0.533   4.922
  632SOL     OW 2638   0.828   1.577   4.402
  632SOL    HW1 2639   0.817   1.631   4.324
  632SOL    HW2 2640   0.750   1.521   4.404
  633SOL     OW 2641   1.428   0.218   4.840
  633SOL    HW1 2642   1.465   0.144   4.888
  633SOL    HW2 2643   1.380   0.268   4.906
  634SOL     OW 2644   1.002   0.021   4.865
  634SOL    HW1 2645   0.952   5.252   4.822
  634SOL    HW2 2646   1.089   5.283   4.878
  635SOL     OW 2647   0.771   1.332   4.038
  635SOL    HW1 2648   0.741   1.242   4.045
  635SOL    HW2 2649   0.854   1.334   4.087
  636SOL     OW 2650   0.622   1.556   5.011
  636SOL    HW1 2651   0.624   1.639   5.060
  636SOL    HW2 2652   0.709   1.550   4.971
  637SOL     OW 2653   1.354   0.039   3.885
  637SOL    HW1 2654   1.387   5.297   3.806
  637SOL    HW2 2655   1.276   5.289   3.908
  638SOL     OW 2656   1.301   0.463   4.409
  638SOL    HW1 2657   1.246   0.542   4.415
  638SOL    HW2 2658   1.294   0.423   4.495
  639SOL     OW 2659   1.594   0.216   4.606
  639SOL    HW1 2660   1.527   0.227   4.673
  639SOL    HW2 2661   1.587   0.294   4.551
  640SOL     OW 2662   0.047   1.069   4.014
  640SOL    HW1 2663   0.137   1.038   4.004
  640SOL    HW2 2664   5.300   0.994   4.049
  641SOL     OW 2665   0.884   1.651   4.067
  641SOL    HW1 2666   0.811   1.636   4.006
  641SOL    HW2 2667   0.856   1.727   4.118
  642SOL     OW 2668   0.233   0.633   5.703
  642SOL    HW1 2669   0.156   0.607   5.754
  642SOL    HW2 2670   0.215   0.600   5.615
  643SOL     OW 2671   0.233   0.280   6.576
  643SOL    HW1 2672   0.252   0.244   6.662
  643SOL    HW2 2673   0.152   0.236   6.548
  644SOL     OW 2674   0.000   0.406   6.250
  644SOL    HW1 2675   5.207   0.427   6.254
  644SOL    HW2 2676   0.002   0.315   6.218
  645SOL     OW 2677   0.573   1.283   6.766
  645SOL    HW1 2678   0.490   1.292   6.719
  645SOL    HW2 2679   0.590   1.370   6.802
  646SOL     OW 2680   1.560   1.511   6.292
  646SOL    HW1 2681   1.517   1.492   6.375
  646SOL    HW2 2682   1.489   1.516   6.229
  647SOL     OW 2683   1.131   0.698   6.288
  647SOL    HW1 2684   1.180   0.779   6.273
  647SOL    HW2 2685   1.084   0.713   6.370
  648SOL     OW 2686   1.766   0.606   5.815
  648SOL    HW1 2687   1.746   0.598   5.722
  648SOL    HW2 2688   1.731   0.526   5.854
  649SOL     OW 2689   0.756   1.142   6.625
  649SOL    HW1 2690   0.689   1.176   6.683
  649SOL    HW2 2691   0.791   1.219   6.581
  650SOL     OW 2692   0.862   0.780   7.406
  650SOL    HW1 2693   0.855   0.855   7.465
  650SOL    HW2 2694   0.889   0.819   7.322
  651SOL     OW 2695   0.685   1.003   6.234
  651SOL    HW1 2696   0.751   0.991   6.302
  651SOL    HW2 2697   0.617   1.056   6.275
  652SOL     OW 2698   0.709   1.151   7.398
  652SOL    HW1 2699   0.757   1.230   7.424
  652SOL    HW2 2700   0.627   1.185   7.362
  653SOL     OW 2701   0.358   1.405   6.645
  653SOL    HW1 2702   0.270   1.405   6.608
  653SOL    HW2 2703   0.407   1.468   6.592
  654SOL     OW 2704   1.461   1.499   6.939
  654SOL    HW1 2705   1.510   1.580   6.949
  654SOL    HW2 2706   1.401   1.499   7.014
  655SOL     OW 2707   0.448   0.400   7.080
  655SOL    HW1 2708   0.527   0.347   7.072
  655SOL    HW2 2709   0.377   0.336   7.083
  656SOL     OW 2710   1.611   0.452   6.324
  656SOL    HW1 2711   1.535   0.476   6.270
  656SOL    HW2 2712   1.630   0.530   6.375
  657SOL     OW 2713   0.230   1.714   6.064
  657SOL    HW1 2714   0.265   1.783   6.121
  657SOL    HW2 2715   0.292   1.711   5.991
  658SOL     OW 2716   1.136   1.341   7.276
  658SOL    HW1 2717   1.177   1.338   7.363
  658SOL    HW2 2718   1.084   1.261   7.271
  659SOL     OW 2719   0.222   1.443   6.125
  659SOL    HW1 2720   0.215   1.539   6.122
  659SOL    HW2 2721   0.152   1.416   6.184
  660SOL     OW 2722   0.249   1.078   6.462
  660SOL    HW1 2723   0.260   0.993   6.504
  660SOL    HW2 2724   0.198   1.130   6.524
  661SOL     OW 2725   0.614   1.790   7.018
  661SOL    HW1 2726   0.530   1.773   7.061
  661SOL    HW2 2727   0.635   1.881   7.041
  662SOL     OW 2728   0.584   0.983   5.721
  662SOL    HW1 2729   0.629   1.031   5.651
  662SOL    HW2 2730   0.625   1.012   5.802
  663SOL     OW 2731   1.586   0.135   7.043
  663SOL    HW1 2732   1.607   0.220   7.004
  663SOL    HW2 2733   1.584   0.151   7.137
  664SOL     OW 2734   0.124   0.636   6.163
  664SOL    HW1 2735   0.089   0.554   6.196
  664SOL    HW2 2736   0.098   0.701   6.228
  665SOL     OW 2737   1.842   1.760   5.922
  665SOL    HW1 2738   1.906   1.731   5.987
  665SOL    HW2 2739   1.867   1.850   5.902
  666SOL     OW 2740   0.038   1.599   5.717
  666SOL    HW1 2741   0.024   1.507   5.742
  666SOL    HW2 2742   5.283   1.648   5.778
  667SOL     OW 2743   1.689   0.918   6.226
  667SOL    HW1 2744   1.773   0.877   6.205
  667SOL    HW2 2745   1.667   0.969   6.148
  668SOL     OW 2746   1.646   1.107   6.016
  668SOL    HW1 2747   1.731   1.113   5.973
  668SOL    HW2 2748   1.651   1.168   6.089
  669SOL     OW 2749   0.129   0.748   7.174
  669SOL    HW1 2750   0.224   0.763   7.175
  669SOL    HW2 2751   0.091   0.835   7.188
  670SOL     OW 2752   0.615   1.385   6.321
  670SOL    HW1 2753   0.567   1.302   6.331
  670SOL    HW2 2754   0.597   1.411   6.230
  671SOL     OW 2755   1.289   1.238   7.010
  671SOL    HW1 2756   1.322   1.171   6.950
  671SOL    HW2 2757   1.346   1.232   7.086
  672SOL     OW 2758   0.814   0.026   6.112
  672SOL    HW1 2759   0.841   0.114   6.088
  672SOL    HW2 2760   0.718   0.028   6.105
  673SOL     OW 2761   0.177   0.946   6.864
  673SOL    HW1 2762   0.267   0.918   6.854
  673SOL    HW2 2763   0.134   0.922   6.782
  674SOL     OW 2764   1.531   0.993   5.784
  674SOL    HW1 2765   1.462   0.936   5.816
  674SOL    HW2 2766   1.572   1.027   5.863
  675SOL     OW 2767   1.185   1.806   7.207
  675SOL    HW1 2768   1.197   1.864   7.132
  675SOL    HW2 2769   1.202   1.718   7.172
  676SOL     OW 2770   0.325   0.272   7.388
  676SOL    HW1 2771   0.386   0.336   7.425
  676SOL    HW2 2772   0.244   0.284   7.439
  677SOL     OW 2773   1.466   1.420   6.538
  677SOL    HW1 2774   1.398   1.435   6.603
  677SOL    HW2 2775   1.454   1.329   6.511
  678SOL     OW 2776   1.659   1.738   6.164
  678SOL    HW1 2777   1.639   1.709   6.075
  678SOL    HW2 2778   1.634   1.664   6.220
  679SOL     OW 2779   0.595   0.721   5.851
  679SOL    HW1 2780   0.603   0.802   5.800
  679SOL    HW2 2781   0.530   0.742   5.919
  680SOL     OW 2782   1.278   0.346   6.517
  680SOL    HW1 2783   1.188   0.318   6.529
  680SOL    HW2 2784   1.328   0.296   6.582
  681SOL     OW 2785   1.581   1.669   5.895
  681SOL    HW1 2786   1.671   1.702   5.888
  681SOL    HW2 2787   1.555   1.652   5.805
  682SOL     OW 2788   0.794   0.617   7.038
  682SOL    HW1 2789   0.766   0.596   7.126
  682SOL    HW2 2790   0.751   0.552   6.982
  683SOL     OW 2791   1.395   0.475   7.264
  683SOL    HW1 2792   1.396   0.519   7.348
  683SOL    HW2 2793   1.458   0.404   7.273
  684SOL     OW 2794   0.955   0.887   7.168
  684SOL    HW1 2795   1.010   0.817   7.132
  684SOL    HW2 2796   0.908   0.922   7.092
  685SOL     OW 2797   0.994   0.416   6.822
  685SOL    HW1 2798   0.909   0.439   6.861
  685SOL    HW2 2799   0.971   0.368   6.742
  686SOL     OW 2800   1.050   0.698   6.013
  686SOL    HW1 2801   1.066   0.691   6.107
  686SOL    HW2 2802   0.968   0.652   5.999
  687SOL     OW 2803   0.072   0.788   6.399
  687SOL    HW1 2804   0.154   0.793   6.447
  687SOL    HW2 2805   0.062   0.874   6.358
  688SOL     OW 2806   0.130   1.883   7.170
  688SOL    HW1 2807   0.131   1.853   7.261
  688SOL    HW2 2808   0.059   1.834   7.129
  689SOL     OW 2809   0.872   0.363   5.774
  689SOL    HW1 2810   0.916   0.423   5.713
  689SOL    HW2 2811   0.925   0.283   5.772
  690SOL     OW 2812   1.709   0.576   7.415
  690SOL    HW1 2813   1.671   0.650   7.368
  690SOL    HW2 2814   1.737   0.515   7.346
  691SOL     OW 2815   1.376   1.142   6.127
  691SOL    HW1 2816   1.455   1.129   6.075
  691SOL    HW2 2817   1.324   1.204   6.077
  692SOL     OW 2818   0.537   0.201   6.469
  692SOL    HW1 2819   0.554   0.219   6.562
  692SOL    HW2 2820   0.550   0.286   6.426
  693SOL     OW 2821   1.006   1.444   6.059
  693SOL    HW1 2822   0.968   1.516   6.009
  693SOL    HW2 2823   0.990   1.466   6.150
  694SOL     OW 2824   0.356   1.802   6.455
  694SOL    HW1 2825   0.397   1.717   6.468
  694SOL    HW2 2826   0.423   1.865   6.483
  695SOL     OW 2827   1.799   1.057   6.454
  695SOL    HW1 2828   1.744   1.041   6.377
  695SOL    HW2 2829   1.737   1.063   6.527
  696SOL     OW 2830   1.228   1.539   7.099
  696SOL    HW1 2831   1.214   1.466   7.159
  696SOL    HW2 2832   1.165   1.525   7.029
  697SOL     OW 2833   0.317   0.952   5.833
  697SOL    HW1 2834   0.399   0.976   5.790
  697SOL    HW2 2835   0.295   0.867   5.796
  698SOL     OW 2836   1.478   0.742   6.313
  698SOL    HW1 2837   1.469   0.699   6.398
  698SOL    HW2 2838   1.555   0.797   6.322
  699SOL     OW 2839   0.464   1.262   7.323
  699SOL    HW1 2840   0.437   1.269   7.232
  699SOL    HW2 2841   0.382   1.264   7.373
  700SOL     OW 2842   1.121   1.777   5.817
  700SOL    HW1 2843   1.049   1.735   5.863
  700SOL    HW2 2844   1.144   1.717   5.747
  701SOL     OW 2845   0.197   0.279   7.078
  701SOL    HW1 2846   0.157   0.366   7.074
  701SOL    HW2 2847   0.206   0.261   7.172
  702SOL     OW 2848   1.628   1.379   5.674
  702SOL    HW1 2849   1.588   1.465   5.658
  702SOL    HW2 2850   1.559   1.316   5.654
  703SOL     OW 2851   0.471   1.735   5.906
  703SOL    HW1 2852   0.513   1.793   5.969
  703SOL    HW2 2853   0.543   1.705   5.850
  704SOL     OW 2854   1.407   0.100   6.017
  704SOL    HW1 2855   1.398   0.082   5.923
  704SOL    HW2 2856   1.499   0.122   6.029
  705SOL     OW 2857   0.275   1.801   6.801
  705SOL    HW1 2858   0.307   1.725   6.848
  705SOL    HW2 2859   0.226   1.765   6.727
  706SOL     OW 2860   0.939   1.698   6.485
  706SOL    HW1 2861   1.017   1.646   6.505
  706SOL    HW2 2862   0.894   1.649   6.417
  707SOL     OW 2863   0.385   0.696   6.065
  707SOL    HW1 2864   0.415   0.605   6.073
  707SOL    HW2 2865   0.292   0.693   6.086
  708SOL     OW 2866   1.540   0.228   7.311
  708SOL    HW1 2867   1.546   0.246   7.404
  708SOL    HW2 2868   1.464   0.169   7.303
  709SOL     OW 2869   0.621   0.133   5.693
  709SOL    HW1 2870   0.689   0.070   5.717
  709SOL    HW2 2871   0.574   0.091   5.620
  710SOL     OW 2872   0.780   0.312   7.349
  710SOL    HW1 2873   0.842   0.239   7.351
  710SOL    HW2 2874   0.740   0.312   7.436
  711SOL     OW 2875   0.877   1.521   6.779
  711SOL    HW1 2876   0.861   1.485   6.692
  711SOL    HW2 2877   0.947   1.467   6.815
  712SOL     OW 2878   1.341   0.589   7.018
  712SOL    HW1 2879   1.372   0.558   7.103
  712SOL    HW2 2880   1.377   0.677   7.011
  713SOL     OW 2881   0.815   1.395   6.525
  713SOL    HW1 2882   0.899   1.384   6.481
  713SOL    HW2 2883   0.751   1.396   6.454
  714SOL     OW 2884   0.927   0.510   6.490
  714SOL    HW1 2885   0.903   0.502   6.397
  714SOL    HW2 2886   0.959   0.423   6.514
  715SOL     OW 2887   0.547   0.059   6.090
  715SOL    HW1 2888   0.468   0.060   6.144
  715SOL    HW2 2889   0.535   0.131   6.029
  716SOL     OW 2890   1.428   1.198   5.627
  716SOL    HW1 2891   1.459   1.122   5.677
  716SOL    HW2 2892   1.343   1.219   5.665
  717SOL     OW 2893   0.314   0.063   5.770
  717SOL    HW1 2894   0.380   0.129   5.749
  717SOL    HW2 2895   0.364   5.283   5.784
  718SOL     OW 2896   0.939   0.261   6.049
  718SOL    HW1 2897   0.911   0.299   5.965
  718SOL    HW2 2898   1.034   0.273   6.049
  719SOL     OW 2899   1.081   0.681   7.046
  719SOL    HW1 2900   1.012   0.614   7.051
  719SOL    HW2 2901   1.162   0.631   7.039
  720SOL     OW 2902   1.224   1.570   6.380
  720SOL    HW1 2903   1.240   1.637   6.313
  720SOL    HW2 2904   1.292   1.584   6.445
  721SOL     OW 2905   0.467   1.150   6.318
  721SOL    HW1 2906   0.398   1.130   6.381
  721SOL    HW2 2907   0.428   1.132   6.233
  722SOL     OW 2908   1.269   1.794   6.194
  722SOL    HW1 2909   1.315   1.855   6.136
  722SOL    HW2 2910   1.203   1.848   6.238
  723SOL     OW 2911   1.026   0.547   5.608
  723SOL    HW1 2912   0.984   0.631   5.589
  723SOL    HW2 2913   1.090   0.566   5.676
  724SOL     OW 2914   0.097   0.531   6.997
  724SOL    HW1 2915   0.178   0.550   6.949
  724SOL    HW2 2916   0.077   0.613   7.043
  725SOL     OW 2917   0.560   0.239   6.744
  725SOL    HW1 2918   0.591   0.152   6.770
  725SOL    HW2 2919   0.467   0.239   6.768
  726SOL     OW 2920   0.868   0.463   6.227
  726SOL    HW1 2921   0.821   0.516   6.162
  726SOL    HW2 2922   0.890   0.382   6.181
  727SOL     OW 2923   0.979   0.060   6.348
  727SOL    HW1 2924   0.914   0.055   6.278
  727SOL    HW2 2925   0.987   5.271   6.380
  728SOL     OW 2926   1.437   1.163   6.444
  728SOL    HW1 2927   1.368   1.097   6.441
  728SOL    HW2 2928   1.462   1.175   6.352
  729SOL     OW 2929   1.466   0.605   6.564
  729SOL    HW1 2930   1.418   0.523   6.568
  729SOL    HW2 2931   1.527   0.600   6.638
  730SOL     OW 2932   1.846   0.817   5.968
  730SOL    HW1 2933   1.902   0.766   6.026
  730SOL    HW2 2934   1.817   0.755   5.901
  731SOL     OW 2935   0.492   1.417   5.745
  731SOL    HW1 2936   0.417   1.389   5.797
  731SOL    HW2 2937   0.474   1.383   5.657
  732SOL     OW 2938   1.669   1.264   6.233
  732SOL    HW1 2939   1.764   1.268   6.246
  732SOL    HW2 2940   1.639   1.352   6.253
  733SOL     OW 2941   1.394   0.572   5.657
  733SOL    HW1 2942   1.333   0.553   5.729
  733SOL    HW2 2943   1.479   0.542   5.689
  734SOL     OW 2944   0.522   0.265   5.907
  734SOL    HW1 2945   0.569   0.216   5.838
  734SOL    HW2 2946   0.504   0.350   5.867
  735SOL     OW 2947   1.753   1.238   7.160
  735SOL    HW1 2948   1.840   1.200   7.155
  735SOL    HW2 2949   1.767   1.328   7.190
  736SOL     OW 2950   1.059   1.353   6.919
  736SOL    HW1 2951   0.984   1.322   6.971
  736SOL    HW2 2952   1.135   1.312   6.961
  737SOL     OW 2953   1.607   1.625   7.238
  737SOL    HW1 2954   1.603   1.659   7.149
  737SOL    HW2 2955   1.690   1.578   7.241
  738SOL     OW 2956   1.127   1.202   6.692
  738SOL    HW1 2957   1.070   1.241   6.757
  738SOL    HW2 2958   1.095   1.235   6.608
  739SOL     OW 2959   1.629   1.098   6.664
  739SOL    HW1 2960   1.624   1.160   6.736
  739SOL    HW2 2961   1.549   1.115   6.613
  740SOL     OW 2962   0.905   0.106   6.977
  740SOL    HW1 2963   0.936   0.073   6.892
  740SOL    HW2 2964   0.982   0.149   7.015
  741SOL     OW 2965   0.984   1.114   7.310
  741SOL    HW1 2966   0.892   1.131   7.328
  741SOL    HW2 2967   0.984   1.037   7.254
  742SOL     OW 2968   0.707   1.059   5.958
  742SOL    HW1 2969   0.696   1.044   6.052
  742SOL    HW2 2970   0.784   1.007   5.934
  743SOL     OW 2971   0.420   0.819   6.838
  743SOL    HW1 2972   0.490   0.825   6.904
  743SOL    HW2 2973   0.385   0.731   6.848
  744SOL     OW 2974   1.267   0.379   6.858
  744SOL    HW1 2975   1.300   0.456   6.905
  744SOL    HW2 2976   1.177   0.401   6.835
  745SOL     OW 2977   0.101   1.623   6.953
  745SOL    HW1 2978   0.079   1.633   6.861
  745SOL    HW2 2979   0.187   1.581   6.953
  746SOL     OW 2980   0.344   1.105   6.074
  746SOL    HW1 2981   0.354   1.184   6.021
  746SOL    HW2 2982   0.354   1.033   6.012
  747SOL     OW 2983   0.556   0.538   6.446
  747SOL    HW1 2984   0.571   0.596   6.372
  747SOL    HW2 2985   0.621   0.564   6.511
  748SOL     OW 2986   1.248   1.348   5.975
  748SOL    HW1 2987   1.304   1.420   6.006
  748SOL    HW2 2988   1.161   1.369   6.009
  749SOL     OW 2989   1.280   1.457   6.733
  749SOL    HW1 2990   1.336   1.460   6.811
  749SOL    HW2 2991   1.225   1.380   6.746
  750SOL     OW 2992   1.582   0.623   6.064
  750SOL    HW1 2993   1.536   0.678   6.127
  750SOL    HW2 2994   1.628   0.685   6.007
  751SOL     OW 2995   0.352   1.519   6.897
  751SOL    HW1 2996   0.342   1.476   6.812
  751SOL    HW2 2997   0.445   1.537   6.904
  752SOL     OW 2998   0.414   0.741   7.189
  752SOL    HW1 2999   0.472   0.790   7.130
  752SOL    HW2 3000   0.460   0.659   7.204
  753SOL     OW 3001   1.600   0.778   7.267
  753SOL    HW1 3002   1.514   0.819   7.260
  753SOL    HW2 3003   1.653   0.820   7.199
  754SOL     OW 3004   1.041   0.115   7.368
  754SOL    HW1 3005   1.069   0.195   7.323
  754SOL    HW2 3006   1.050   0.046   7.303
  755SOL     OW 3007   0.482   0.059   7.324
  755SOL    HW1 3008   0.428   5.291   7.285
  755SOL    HW2 3009   0.422   0.131   7.342
  756SOL     OW 3010   0.585   0.873   6.618
  756SOL    HW1 3011   0.617   0.964   6.616
  756SOL    HW2 3012   0.529   0.870   6.695
  757SOL     OW 3013   1.358   0.859   6.617
  757SOL    HW1 3014   1.276   0.850   6.569
  757SOL    HW2 3015   1.398   0.772   6.612
  758SOL     OW 3016   1.206   0.528   5.854
  758SOL    HW1 3017   1.211   0.448   5.905
  758SOL    HW2 3018   1.164   0.592   5.912
  759SOL     OW 3019   0.304   0.206   6.831
  759SOL    HW1 3020   0.264   0.237   6.912
  759SOL    HW2 3021   0.296   0.111   6.835
  760SOL     OW 3022   0.069   1.319   6.867
  760SOL    HW1 3023   0.091   1.259   6.939
  760SOL    HW2 3024   0.001   1.375   6.902
  761SOL     OW 3025   0.727   0.632   6.647
  761SOL    HW1 3026   0.800   0.614   6.588
  761SOL    HW2 3027   0.698   0.721   6.624
  762SOL     OW 3028   1.735   0.959   7.438
  762SOL    HW1 3029   1.686   0.900   7.381
  762SOL    HW2 3030   1.677   0.973   7.513
  763SOL     OW 3031   0.318   0.067   6.239
  763SOL    HW1 3032   0.299   0.161   6.248
  763SOL    HW2 3033   0.320   0.035   6.329
  764SOL     OW 3034   1.611   0.374   5.952
  764SOL    HW1 3035   1.645   0.311   6.016
  764SOL    HW2 3036   1.591   0.452   6.004
  765SOL     OW 3037   1.027   0.759   6.547
  765SOL    HW1 3038   1.025   0.777   6.641
  765SOL    HW2 3039   1.001   0.668   6.539
  766SOL     OW 3040   0.981   1.565   7.302
  766SOL    HW1 3041   0.967   1.610   7.219
  766SOL    HW2 3042   1.026   1.484   7.278
  767SOL     OW 3043   1.855   1.507   7.191
  767SOL    HW1 3044   1.873   1.532   7.101
  767SOL    HW2 3045   1.936   1.525   7.238
  768SOL     OW 3046   0.353   0.914   7.395
  768SOL    HW1 3047   0.435   0.938   7.438
  768SOL    HW2 3048   0.379   0.852   7.327
  769SOL     OW 3049   1.527   0.272   5.712
  769SOL    HW1 3050   1.463   0.208   5.743
  769SOL    HW2 3051   1.563   0.311   5.792
  770SOL     OW 3052   1.292   0.827   5.618
  770SOL    HW1 3053   1.335   0.741   5.621
  770SOL    HW2 3054   1.323   0.866   5.536
  771SOL     OW 3055   1.066   1.335   6.440
  771SOL    HW1 3056   1.069   1.263   6.377
  771SOL    HW2 3057   1.127   1.400   6.405
  772SOL     OW 3058   0.315   0.810   6.536
  772SOL    HW1 3059   0.409   0.828   6.531
  772SOL    HW2 3060   0.309   0.720   6.567
  773SOL     OW 3061   0.337   0.526   6.601
  773SOL    HW1 3062   0.299   0.439   6.585
  773SOL    HW2 3063   0.411   0.531   6.542
  774SOL     OW 3064   1.136   0.377   7.273
  774SOL    HW1 3065   1.089   0.432   7.336
  774SOL    HW2 3066   1.223   0.416   7.269
  775SOL     OW 3067   1.134   0.223   7.051
  775SOL    HW1 3068   1.138   0.281   7.127
  775SOL    HW2 3069   1.189   0.264   6.985
  776SOL     OW 3070   0.001   1.330   5.796
  776SOL    HW1 3071   5.226   1.320   5.738
  776SOL    HW2 3072   0.012   1.244   5.837
  777SOL     OW 3073   0.092   1.782   6.536
  777SOL    HW1 3074   0.059   1.711   6.481
  777SOL    HW2 3075   0.180   1.800   6.501
  778SOL     OW 3076   0.505   1.573   6.493
  778SOL    HW1 3077   0.572   1.638   6.514
  778SOL    HW2 3078   0.549   1.512   6.434
  779SOL     OW 3079   0.984   0.793   6.813
  779SOL    HW1 3080   1.040   0.769   6.887
  779SOL    HW2 3081   0.899   0.756   6.834
  780SOL     OW 3082   0.036   0.564   6.704
  780SOL    HW1 3083   0.118   0.534   6.666
  780SOL    HW2 3084   0.039   0.533   6.795
  781SOL     OW 3085   0.170   0.513   7.299
  781SOL    HW1 3086   0.253   0.495   7.254
  781SOL    HW2 3087   0.138   0.593   7.256
  782SOL     OW 3088   1.376   0.939   7.245
  782SOL    HW1 3089   1.398   1.033   7.244
  782SOL    HW2 3090   1.374   0.914   7.153
  783SOL     OW 3091   0.814   0.571   5.947
  783SOL    HW1 3092   0.818   0.497   5.887
  783SOL    HW2 3093   0.740   0.624   5.916
  784SOL     OW 3094   1.642   0.601   6.772
  784SOL    HW1 3095   1.631   0.542   6.847
  784SOL    HW2 3096   1.729   0.581   6.738
  785SOL     OW 3097   0.256   1.556   7.322
  785SOL    HW1 3098   0.233   1.618   7.391
  785SOL    HW2 3099   0.249   1.470   7.363
  786SOL     OW 3100   0.695   0.454   6.848
  786SOL    HW1 3101   0.647   0.379   6.813
  786SOL    HW2 3102   0.696   0.517   6.777
  787SOL     OW 3103   0.929   1.679   7.053
  787SOL    HW1 3104   0.902   1.646   6.967
  787SOL    HW2 3105   0.925   1.774   7.044
  788SOL     OW 3106   0.464   0.493   5.767
  788SOL    HW1 3107   0.527   0.561   5.790
  788SOL    HW2 3108   0.380   0.538   5.760
  789SOL     OW 3109   0.148   1.137   7.057
  789SOL    HW1 3110   0.146   1.088   7.139
  789SOL    HW2 3111   0.161   1.071   6.989
  790SOL     OW 3112   1.326   1.047   6.810
  790SOL    HW1 3113   1.350   0.984   6.742
  790SOL    HW2 3114   1.256   1.099   6.771
  791SOL     OW 3115   1.310   0.856   5.893
  791SOL    HW1 3116   1.234   0.826   5.942
  791SOL    HW2 3117   1.287   0.843   5.801
  792SOL     OW 3118   1.771   1.745   6.735
  792SOL    HW1 3119   1.831   1.771   6.666
  792SOL    HW2 3120   1.747   1.655   6.714
  793SOL     OW 3121   1.241   1.733   6.700
  793SOL    HW1 3122   1.323   1.753   6.655
  793SOL    HW2 3123   1.247   1.639   6.718
  794SOL     OW 3124   0.083   1.218   6.613
  794SOL    HW1 3125   0.070   1.243   6.705
  794SOL    HW2 3126   5.294   1.207   6.579
  795SOL     OW 3127   0.677   1.664   7.313
  795SOL    HW1 3128   0.624   1.744   7.310
  795SOL    HW2 3129   0.742   1.676   7.244
  796SOL     OW 3130   1.712   0.148   6.089
  796SOL    HW1 3131   1.788   0.127   6.034
  796SOL    HW2 3132   1.705   0.073   6.148
  797SOL     OW 3133   1.390   1.568   6.070
  797SOL    HW1 3134   1.451   1.600   6.003
  797SOL    HW2 3135   1.342   1.646   6.098
  798SOL     OW 3136   0.141   1.799   7.429
  798SOL    HW1 3137   0.089   1.735   7.478
  798SOL    HW2 3138   0.194   1.843   7.496
  799SOL     OW 3139   1.277   0.925   6.257
  799SOL    HW1 3140   1.351   0.864   6.263
  799SOL    HW2 3141   1.311   0.998   6.205
  800SOL     OW 3142   0.815   1.272   7.017
  800SOL    HW1 3143   0.787   1.312   7.099
  800SOL    HW2 3144   0.746   1.295   6.954
  801SOL     OW 3145   0.672   1.619   5.741
  801SOL    HW1 3146   0.682   1.631   5.647
  801SOL    HW2 3147   0.618   1.540   5.749
  802SOL     OW 3148   1.628   1.727   6.977
  802SOL    HW1 3149   1.677   1.734   6.895
  802SOL    HW2 3150   1.614   1.817   7.005
  803SOL     OW 3151   1.845   0.158   6.544
  803SOL    HW1 3152   1.846   0.063   6.528
  803SOL    HW2 3153   1.758   0.186   6.515
  804SOL     OW 3154   0.270   0.328   6.304
  804SOL    HW1 3155   0.184   0.366   6.288
  804SOL    HW2 3156   0.272   0.313   6.399
  805SOL     OW 3157   1.207   1.607   5.618
  805SOL    HW1 3158   1.197   1.515   5.644
  805SOL    HW2 3159   1.142   1.618   5.548
  806SOL     OW 3160   0.824   1.006   6.958
  806SOL    HW1 3161   0.868   1.001   6.873
  806SOL    HW2 3162   0.824   1.099   6.981
  807SOL     OW 3163   0.915   0.910   5.876
  807SOL    HW1 3164   0.976   0.942   5.809
  807SOL    HW2 3165   0.963   0.841   5.921
  808SOL     OW 3166   1.493   1.624   5.628
  808SOL    HW1 3167   1.398   1.619   5.615
  808SOL    HW2 3168   1.529   1.631   5.540
  809SOL     OW 3169   0.367   1.304   7.079
  809SOL    HW1 3170   0.359   1.378   7.020
  809SOL    HW2 3171   0.291   1.249   7.059
  810SOL     OW 3172   1.611   1.283   6.867
  810SOL    HW1 3173   1.671   1.273   6.941
  810SOL    HW2 3174   1.551   1.352   6.894
  811SOL     OW 3175   1.051   1.106   6.292
  811SOL    HW1 3176   0.981   1.055   6.332
  811SOL    HW2 3177   1.113   1.041   6.260
  812SOL     OW 3178   1.020   0.243   6.554
  812SOL    HW1 3179   1.000   0.197   6.472
  812SOL    HW2 3180   1.012   0.175   6.621
  813SOL     OW 3181   0.601   1.487   6.067
  813SOL    HW1 3182   0.645   1.439   5.998
  813SOL    HW2 3183   0.535   1.540   6.022
  814SOL     OW 3184   1.724   0.387   6.965
  814SOL    HW1 3185   1.793   0.452   6.964
  814SOL    HW2 3186   1.756   0.317   6.907
  815SOL     OW 3187   0.260   1.348   5.878
  815SOL    HW1 3188   0.167   1.350   5.855
  815SOL    HW2 3189   0.264   1.385   5.966
  816SOL     OW 3190   0.116   1.014   7.302
  816SOL    HW1 3191   0.043   0.985   7.358
  816SOL    HW2 3192   0.194   0.984   7.348
  817SOL     OW 3193   0.674   0.214   7.076
  817SOL    HW1 3194   0.757   0.197   7.032
  817SOL    HW2 3195   0.698   0.260   7.156
  818SOL     OW 3196   0.078   0.337   5.623
  818SOL    HW1 3197   5.287   0.311   5.611
  818SOL    HW2 3198   0.093   0.405   5.557
  819SOL     OW 3199   1.430   0.858   6.987
  819SOL    HW1 3200   1.382   0.919   6.931
  819SOL    HW2 3201   1.520   0.861   6.953
  820SOL     OW 3202   0.083   0.141   5.880
  820SOL    HW1 3203   0.077   0.235   5.862
  820SOL    HW2 3204   0.170   0.116   5.849
  821SOL     OW 3205   1.179   1.340   5.703
  821SOL    HW1 3206   1.088   1.310   5.706
  821SOL    HW2 3207   1.208   1.340   5.794
  822SOL     OW 3208   0.619   0.831   7.021
  822SOL    HW1 3209   0.674   0.908   7.005
  822SOL    HW2 3210   0.681   0.758   7.029
  823SOL     OW 3211   1.484   1.776   6.564
  823SOL    HW1 3212   1.508   1.834   6.492
  823SOL    HW2 3213   1.567   1.758   6.609
  824SOL     OW 3214   0.713   0.573   7.290
  824SOL    HW1 3215   0.755   0.636   7.349
  824SOL    HW2 3216   0.746   0.488   7.319
  825SOL     OW 3217   1.471   1.200   7.218
  825SOL    HW1 3218   1.458   1.214   7.312
  825SOL    HW2 3219   1.564   1.215   7.204
  826SOL     OW 3220   0.378   1.742   7.150
  826SOL    HW1 3221   0.295   1.788   7.135
  826SOL    HW2 3222   0.354   1.661   7.195
  827SOL     OW 3223   1.670   0.881   6.841
  827SOL    HW1 3224   1.663   0.796   6.798
  827SOL    HW2 3225   1.661   0.945   6.770
  828SOL     OW 3226   1.221   0.319   6.051
  828SOL    HW1 3227   1.284   0.248   6.044
  828SOL    HW2 3228   1.251   0.371   6.126
  829SOL     OW 3229   0.590   0.738   6.255
  829SOL    HW1 3230   0.629   0.824   6.239
  829SOL    HW2 3231   0.521   0.731   6.189
  830SOL     OW 3232   1.767   0.360   7.236
  830SOL    HW1 3233   1.748   0.376   7.143
  830SOL    HW2 3234   1.695   0.305   7.266
  831SOL     OW 3235   1.744   0.933   7.098
  831SOL    HW1 3236   1.743   1.028   7.112
  831SOL    HW2 3237   1.729   0.922   7.005
  832SOL     OW 3238   0.862   1.367   5.619
  832SOL    HW1 3239   0.824   1.396   5.702
  832SOL    HW2 3240   0.881   1.448   5.572
  833SOL     OW 3241   0.662   1.794   6.530
  833SOL    HW1 3242   0.641   1.884   6.507
  833SOL    HW2 3243   0.758   1.789   6.524
  834SOL     OW 3244   0.867   0.966   6.441
  834SOL    HW1 3245   0.917   0.895   6.481
  834SOL    HW2 3246   0.833   1.016   6.515
  835SOL     OW 3247   1.077   0.987   5.674
  835SOL    HW1 3248   1.057   1.039   5.596
  835SOL    HW2 3249   1.154   0.934   5.649
  836SOL     OW 3250   1.854   1.555   6.431
  836SOL    HW1 3251   1.777   1.543   6.376
  836SOL    HW2 3252   1.847   1.488   6.498
  837SOL     OW 3253   0.225   1.305   7.446
  837SOL    HW1 3254   0.154   1.245   7.420
  837SOL    HW2 3255   0.213   1.317   7.540
  838SOL     OW 3256   0.087   1.220   6.240
  838SOL    HW1 3257   0.099   1.188   6.329
  838SOL    HW2 3258   0.173   1.213   6.200
  839SOL     OW 3259   0.680   1.401   7.214
  839SOL    HW1 3260   0.599   1.360   7.244
  839SOL    HW2 3261   0.677   1.490   7.249
  840SOL     OW 3262   1.815   0.178   6.819
  840SOL    HW1 3263   1.782   0.088   6.825
  840SOL    HW2 3264   1.832   0.190   6.726
  841SOL     OW 3265   0.432   0.436   6.108
  841SOL    HW1 3266   0.464   0.362   6.056
  841SOL    HW2 3267   0.386   0.395   6.182
  842SOL     OW 3268   1.700   1.490   6.684
  842SOL    HW1 3269   1.620   1.466   6.638
  842SOL    HW2 3270   1.713   1.421   6.748
  843SOL     OW 3271   0.336   0.560   6.875
  843SOL    HW1 3272   0.393   0.502   6.925
  843SOL    HW2 3273   0.350   0.533   6.784
  844SOL     OW 3274   0.828   1.577   6.264
  844SOL    HW1 3275   0.817   1.631   6.186
  844SOL    HW2 3276   0.750   1.521   6.266
  845SOL     OW 3277   1.428   0.218   6.702
  845SOL    HW1 3278   1.465   0.144   6.750
  845SOL    HW2 3279   1.379   0.268   6.769
  846SOL     OW 3280   1.002   0.021   6.727
  846SOL    HW1 3281   0.952   5.252   6.684
  846SOL    HW2 3282   1.089   5.283   6.740
  847SOL     OW 3283   0.771   1.333   5.900
  847SOL    HW1 3284   0.741   1.242   5.906
  847SOL    HW2 3285   0.854   1.333   5.949
  848SOL     OW 3286   0.622   1.556   6.873
  848SOL    HW1 3287   0.624   1.639   6.922
  848SOL    HW2 3288   0.709   1.551   6.833
  849SOL     OW 3289   1.354   0.039   5.748
  849SOL    HW1 3290   1.387   5.298   5.668
  849SOL    HW2 3291   1.276   5.289   5.770
  850SOL     OW 3292   1.301   0.463   6.271
  850SOL    HW1 3293   1.246   0.542   6.277
  850SOL    HW2 3294   1.294   0.423   6.357
  851SOL     OW 3295   1.594   0.216   6.468
  851SOL    HW1 3296   1.527   0.227   6.535
  851SOL    HW2 3297   1.588   0.294   6.413
  852SOL     OW 3298   0.047   1.069   5.876
  852SOL    HW1 3299   0.137   1.038   5.866
  852SOL    HW2 3300   5.300   0.993   5.911
  853SOL     OW 3301   0.884   1.651   5.929
  853SOL    HW1 3302   0.811   1.635   5.868
  853SOL    HW2 3303   0.856   1.727   5.980
  854SOL     OW 3304   0.229   0.631   7.566
  854SOL    HW1 3305   0.150   0.596   7.608
  854SOL    HW2 3306   0.221   0.603   7.475
  855SOL     OW 3307   1.768   0.598   7.679
  855SOL    HW1 3308   1.747   0.594   7.586
  855SOL    HW2 3309   1.725   0.521   7.717
  856SOL     OW 3310   0.229   1.707   7.921
  856SOL    HW1 3311   0.264   1.752   7.998
  856SOL    HW2 3312   0.299   1.713   7.856
  857SOL     OW 3313   0.217   1.436   7.991
  857SOL    HW1 3314   0.209   1.531   7.984
  857SOL    HW2 3315   0.154   1.410   8.058
  858SOL     OW 3316   0.584   0.983   7.580
  858SOL    HW1 3317   0.629   1.032   7.511
  858SOL    HW2 3318   0.625   1.013   7.661
  859SOL     OW 3319   1.837   1.759   7.797
  859SOL    HW1 3320   1.907   1.728   7.854
  859SOL    HW2 3321   1.863   1.848   7.772
  860SOL     OW 3322   0.037   1.601   7.582
  860SOL    HW1 3323   0.027   1.508   7.602
  860SOL    HW2 3324   5.278   1.645   7.643
  861SOL     OW 3325   1.684   0.867   8.035
  861SOL    HW1 3326   1.764   0.879   0.005
  861SOL    HW2 3327   1.671   0.951   7.990
  862SOL     OW 3328   1.655   1.099   7.876
  862SOL    HW1 3329   1.742   1.124   7.846
  862SOL    HW2 3330   1.627   1.170   7.934
  863SOL     OW 3331   0.810   5.290   7.944
  863SOL    HW1 3332   0.851   0.076   7.931
  863SOL    HW2 3333   0.716   0.009   7.942
  864SOL     OW 3334   1.533   0.994   7.648
  864SOL    HW1 3335   1.466   0.935   7.682
  864SOL    HW2 3336   1.576   1.029   7.727
  865SOL     OW 3337   0.588   0.723   7.707
  865SOL    HW1 3338   0.598   0.805   7.658
  865SOL    HW2 3339   0.533   0.747   7.782
  866SOL     OW 3340   1.575   1.670   7.757
  866SOL    HW1 3341   1.665   1.700   7.765
  866SOL    HW2 3342   1.563   1.657   7.663
  867SOL     OW 3343   0.051   0.816   0.200
  867SOL    HW1 3344   0.124   0.767   0.163
  867SOL    HW2 3345   0.029   0.882   0.134
  868SOL     OW 3346   0.867   0.356   7.629
  868SOL    HW1 3347   0.914   0.420   7.576
  868SOL    HW2 3348   0.928   0.284   7.640
  869SOL     OW 3349   0.319   0.949   7.694
  869SOL    HW1 3350   0.400   0.976   7.650
  869SOL    HW2 3351   0.297   0.866   7.652
  870SOL     OW 3352   1.123   1.776   7.682
  870SOL    HW1 3353   1.047   1.735   7.723
  870SOL    HW2 3354   1.147   1.715   7.611
  871SOL     OW 3355   1.629   1.380   7.533
  871SOL    HW1 3356   1.587   1.465   7.520
  871SOL    HW2 3357   1.560   1.316   7.516
  872SOL     OW 3358   0.470   1.737   7.769
  872SOL    HW1 3359   0.515   1.791   7.834
  872SOL    HW2 3360   0.539   1.704   7.713
  873SOL     OW 3361   1.409   0.106   7.882
  873SOL    HW1 3362   1.403   0.083   7.789
  873SOL    HW2 3363   1.502   0.112   7.899
  874SOL     OW 3364   0.378   0.697   7.921
  874SOL    HW1 3365   0.402   0.604   7.925
  874SOL    HW2 3366   0.289   0.701   7.956
  875SOL     OW 3367   0.616   0.131   7.559
  875SOL    HW1 3368   0.692   0.076   7.578
  875SOL    HW2 3369   0.573   0.089   7.484
  876SOL     OW 3370   0.546   0.062   7.952
  876SOL    HW1 3371   0.454   0.047   7.976
  876SOL    HW2 3372   0.543   0.135   7.890
  877SOL     OW 3373   1.428   1.198   7.489
  877SOL    HW1 3374   1.459   1.124   7.542
  877SOL    HW2 3375   1.344   1.221   7.528
  878SOL     OW 3376   0.313   0.069   7.652
  878SOL    HW1 3377   0.372   0.125   7.602
  878SOL    HW2 3378   0.359   5.285   7.658
  879SOL     OW 3379   0.950   0.228   7.909
  879SOL    HW1 3380   0.899   0.298   7.868
  879SOL    HW2 3381   1.038   0.264   7.918
  880SOL     OW 3382   0.447   1.157   0.092
  880SOL    HW1 3383   0.374   1.181   0.150
  880SOL    HW2 3384   0.405   1.140   0.007
  881SOL     OW 3385   1.290   1.811   8.014
  881SOL    HW1 3386   1.326   1.880   7.958
  881SOL    HW2 3387   1.207   1.846   8.047
  882SOL     OW 3388   1.027   0.547   7.467
  882SOL    HW1 3389   0.984   0.631   7.451
  882SOL    HW2 3390   1.087   0.564   7.540
  883SOL     OW 3391   1.871   0.817   7.801
  883SOL    HW1 3392   1.868   0.788   7.893
  883SOL    HW2 3393   1.830   0.746   7.752
  884SOL     OW 3394   0.490   1.415   7.606
  884SOL    HW1 3395   0.415   1.386   7.658
  884SOL    HW2 3396   0.471   1.383   7.518
  885SOL     OW 3397   1.393   0.572   7.519
  885SOL    HW1 3398   1.332   0.552   7.590
  885SOL    HW2 3399   1.478   0.540   7.551
  886SOL     OW 3400   0.524   0.270   7.773
  886SOL    HW1 3401   0.566   0.217   7.705
  886SOL    HW2 3402   0.504   0.353   7.730
  887SOL     OW 3403   0.709   1.060   7.814
  887SOL    HW1 3404   0.693   1.050   7.908
  887SOL    HW2 3405   0.788   1.008   7.797
  888SOL     OW 3406   0.347   1.094   7.929
  888SOL    HW1 3407   0.347   1.179   7.884
  888SOL    HW2 3408   0.349   1.029   7.859
  889SOL     OW 3409   1.224   1.356   7.821
  889SOL    HW1 3410   1.287   1.424   7.846
  889SOL    HW2 3411   1.183   1.330   7.903
  890SOL     OW 3412   1.589   0.627   7.921
  890SOL    HW1 3413   1.572   0.685   7.996
  890SOL    HW2 3414   1.627   0.684   7.855
  891SOL     OW 3415   1.204   0.526   7.716
  891SOL    HW1 3416   1.205   0.439   7.756
  891SOL    HW2 3417   1.181   0.585   7.788
  892SOL     OW 3418   1.616   0.376   7.815
  892SOL    HW1 3419   1.637   0.308   7.879
  892SOL    HW2 3420   1.592   0.452   7.867
  893SOL     OW 3421   1.529   0.273   7.575
  893SOL    HW1 3422   1.465   0.208   7.605
  893SOL    HW2 3423   1.564   0.310   7.656
  894SOL     OW 3424   1.294   0.828   7.481
  894SOL    HW1 3425   1.335   0.741   7.483
  894SOL    HW2 3426   1.325   0.867   7.400
  895SOL     OW 3427   0.003   1.333   7.656
  895SOL    HW1 3428   5.220   1.332   7.609
  895SOL    HW2 3429   0.013   1.244   7.690
  896SOL     OW 3430   0.836   0.599   7.765
  896SOL    HW1 3431   0.827   0.509   7.734
  896SOL    HW2 3432   0.747   0.633   7.765
  897SOL     OW 3433   0.461   0.493   7.633
  897SOL    HW1 3434   0.524   0.563   7.651
  897SOL    HW2 3435   0.377   0.538   7.623
  898SOL     OW 3436   1.311   0.851   7.755
  898SOL    HW1 3437   1.225   0.852   7.795
  898SOL    HW2 3438   1.294   0.841   7.661
  899SOL     OW 3439   1.709   0.130   7.945
  899SOL    HW1 3440   1.784   0.131   7.886
  899SOL    HW2 3441   1.740   0.083   8.023
  900SOL     OW 3442   1.365   1.576   7.897
  900SOL    HW1 3443   1.439   1.597   7.841
  900SOL    HW2 3444   1.333   1.661   7.927
  901SOL     OW 3445   0.668   1.619   7.604
  901SOL    HW1 3446   0.680   1.630   7.509
  901SOL    HW2 3447   0.616   1.539   7.612
  902SOL     OW 3448   1.209   1.607   7.478
  902SOL    HW1 3449   1.198   1.516   7.506
  902SOL    HW2 3450   1.142   1.619   7.410
  903SOL     OW 3451   0.924   0.911   7.754
  903SOL    HW1 3452   0.979   0.935   7.679
  903SOL    HW2 3453   0.924   0.815   7.753
  904SOL     OW 3454   1.494   1.626   7.488
  904SOL    HW1 3455   1.399   1.619   7.477
  904SOL    HW2 3456   1.529   1.631   7.399
  905SOL     OW 3457   0.604   1.504   7.936
  905SOL    HW1 3458   0.649   1.445   7.876
  905SOL    HW2 3459   0.534   1.543   7.884
  906SOL     OW 3460   0.260   1.347   7.741
  906SOL    HW1 3461   0.167   1.351   7.717
  906SOL    HW2 3462   0.263   1.383   7.830
  907SOL     OW 3463   0.077   0.344   7.487
  907SOL    HW1 3464   5.290   0.308   7.469
  907SOL    HW2 3465   0.092   0.408   7.417
  908SOL     OW 3466   0.068   0.142   7.736
  908SOL    HW1 3467   0.069   0.237   7.723
  908SOL    HW2 3468   0.156   0.114   7.715
  909SOL     OW 3469   1.177   1.339   7.556
  909SOL    HW1 3470   1.085   1.313   7.557
  909SOL    HW2 3471   1.202   1.345   7.649
  910SOL     OW 3472   1.223   0.319   7.916
  910SOL    HW1 3473   1.289   0.250   7.909
  910SOL    HW2 3474   1.246   0.367   7.995
  911SOL     OW 3475   0.622   0.740   8.047
  911SOL    HW1 3476   0.629   0.818   0.023
  911SOL    HW2 3477   0.531   0.738   8.021
  912SOL     OW 3478   0.862   1.367   7.481
  912SOL    HW1 3479   0.824   1.396   7.564
  912SOL    HW2 3480   0.882   1.448   7.434
  913SOL     OW 3481   1.072   0.978   7.536
  913SOL    HW1 3482   1.054   1.036   7.462
  913SOL    HW2 3483   1.151   0.930   7.511
  914SOL     OW 3484   0.398   0.427   7.981
  914SOL    HW1 3485   0.447   0.367   7.924
  914SOL    HW2 3486   0.440   0.417   8.067
  915SOL     OW 3487   0.766   1.335   7.760
  915SOL    HW1 3488   0.736   1.244   7.762
  915SOL    HW2 3489   0.847   1.334   7.811
  916SOL     OW 3490   1.362   0.038   7.610
  916SOL    HW1 3491   1.378   5.292   7.528
  916SOL    HW2 3492   1.282   5.299   7.645
  917SOL     OW 3493   0.047   1.070   7.722
  917SOL    HW1 3494   0.137   1.037   7.722
  917SOL    HW2 3495   5.300   1.010   7.779
  918SOL     OW 3496   0.892   1.651   7.781
  918SOL    HW1 3497   0.816   1.627   7.728
  918SOL    HW2 3498   0.859   1.714   7.844
  919SOL     OW 3499   0.225   2.487   0.114
  919SOL    HW1 3500   0.155   2.444   0.164
  919SOL    HW2 3501   0.232   2.435   0.034
  920SOL     OW 3502   0.240   2.137   0.989
  920SOL    HW1 3503   0.255   2.103   1.078
  920SOL    HW2 3504   0.157   2.099   0.963
  921SOL     OW 3505   5.297   2.258   0.649
  921SOL    HW1 3506   5.206   2.286   0.659
  921SOL    HW2 3507   5.292   2.165   0.627
  922SOL     OW 3508   0.573   3.145   1.180
  922SOL    HW1 3509   0.490   3.153   1.133
  922SOL    HW2 3510   0.589   3.233   1.215
  923SOL     OW 3511   1.560   3.374   0.707
  923SOL    HW1 3512   1.517   3.354   0.790
  923SOL    HW2 3513   1.488   3.377   0.643
  924SOL     OW 3514   1.130   2.560   0.702
  924SOL    HW1 3515   1.180   2.641   0.687
  924SOL    HW2 3516   1.084   2.575   0.784
  925SOL     OW 3517   1.765   2.463   0.234
  925SOL    HW1 3518   1.730   2.466   0.145
  925SOL    HW2 3519   1.727   2.385   0.273
  926SOL     OW 3520   0.757   3.004   1.039
  926SOL    HW1 3521   0.689   3.037   1.097
  926SOL    HW2 3522   0.791   3.082   0.995
  927SOL     OW 3523   0.865   2.638   1.822
  927SOL    HW1 3524   0.856   2.710   1.884
  927SOL    HW2 3525   0.889   2.681   1.739
  928SOL     OW 3526   0.684   2.864   0.650
  928SOL    HW1 3527   0.750   2.853   0.718
  928SOL    HW2 3528   0.616   2.918   0.691
  929SOL     OW 3529   0.709   3.013   1.812
  929SOL    HW1 3530   0.757   3.091   1.838
  929SOL    HW2 3531   0.627   3.046   1.776
  930SOL     OW 3532   0.358   3.268   1.060
  930SOL    HW1 3533   0.271   3.264   1.021
  930SOL    HW2 3534   0.406   3.330   1.006
  931SOL     OW 3535   1.461   3.361   1.353
  931SOL    HW1 3536   1.510   3.442   1.363
  931SOL    HW2 3537   1.401   3.361   1.428
  932SOL     OW 3538   0.450   2.262   1.493
  932SOL    HW1 3539   0.524   2.202   1.495
  932SOL    HW2 3540   0.373   2.206   1.502
  933SOL     OW 3541   1.613   2.311   0.740
  933SOL    HW1 3542   1.538   2.333   0.685
  933SOL    HW2 3543   1.627   2.388   0.795
  934SOL     OW 3544   0.217   3.591   0.467
  934SOL    HW1 3545   0.260   3.647   0.532
  934SOL    HW2 3546   0.286   3.569   0.404
  935SOL     OW 3547   1.136   3.203   1.692
  935SOL    HW1 3548   1.177   3.199   1.779
  935SOL    HW2 3549   1.084   3.124   1.686
  936SOL     OW 3550   0.221   3.310   0.534
  936SOL    HW1 3551   0.202   3.403   0.540
  936SOL    HW2 3552   0.158   3.268   0.593
  937SOL     OW 3553   0.252   2.941   0.878
  937SOL    HW1 3554   0.259   2.855   0.919
  937SOL    HW2 3555   0.198   2.992   0.939
  938SOL     OW 3556   0.615   3.652   1.433
  938SOL    HW1 3557   0.530   3.635   1.475
  938SOL    HW2 3558   0.635   3.743   1.455
  939SOL     OW 3559   0.623   2.822   0.136
  939SOL    HW1 3560   0.579   2.902   0.107
  939SOL    HW2 3561   0.678   2.850   0.209
  940SOL     OW 3562   1.596   1.985   1.468
  940SOL    HW1 3563   1.600   2.066   1.417
  940SOL    HW2 3564   1.583   2.014   1.558
  941SOL     OW 3565   0.130   2.497   0.582
  941SOL    HW1 3566   0.087   2.414   0.606
  941SOL    HW2 3567   0.099   2.559   0.648
  942SOL     OW 3568   1.845   3.621   0.332
  942SOL    HW1 3569   1.908   3.591   0.397
  942SOL    HW2 3570   1.870   3.711   0.314
  943SOL     OW 3571   0.032   3.447   0.105
  943SOL    HW1 3572   0.024   3.361   0.146
  943SOL    HW2 3573   0.006   3.509   0.173
  944SOL     OW 3574   1.687   2.780   0.642
  944SOL    HW1 3575   1.771   2.738   0.620
  944SOL    HW2 3576   1.665   2.832   0.565
  945SOL     OW 3577   1.646   2.967   0.435
  945SOL    HW1 3578   1.726   2.981   0.384
  945SOL    HW2 3579   1.652   3.029   0.507
  946SOL     OW 3580   0.130   2.610   1.586
  946SOL    HW1 3581   0.225   2.624   1.589
  946SOL    HW2 3582   0.093   2.697   1.600
  947SOL     OW 3583   0.615   3.247   0.734
  947SOL    HW1 3584   0.567   3.165   0.745
  947SOL    HW2 3585   0.597   3.273   0.644
  948SOL     OW 3586   1.289   3.100   1.424
  948SOL    HW1 3587   1.321   3.033   1.364
  948SOL    HW2 3588   1.346   3.094   1.500
  949SOL     OW 3589   0.823   1.863   0.511
  949SOL    HW1 3590   0.861   1.948   0.490
  949SOL    HW2 3591   0.729   1.880   0.517
  950SOL     OW 3592   0.178   2.809   1.278
  950SOL    HW1 3593   0.268   2.780   1.268
  950SOL    HW2 3594   0.135   2.783   1.196
  951SOL     OW 3595   1.509   2.869   0.212
  951SOL    HW1 3596   1.450   2.802   0.244
  951SOL    HW2 3597   1.563   2.893   0.288
  952SOL     OW 3598   1.185   3.668   1.622
  952SOL    HW1 3599   1.197   3.726   1.547
  952SOL    HW2 3600   1.201   3.580   1.586
  953SOL     OW 3601   0.335   2.115   1.815
  953SOL    HW1 3602   0.383   2.197   1.828
  953SOL    HW2 3603   0.248   2.132   1.851
  954SOL     OW 3604   1.466   3.281   0.952
  954SOL    HW1 3605   1.398   3.297   1.017
  954SOL    HW2 3606   1.454   3.190   0.925
  955SOL     OW 3607   1.660   3.601   0.581
  955SOL    HW1 3608   1.638   3.573   0.492
  955SOL    HW2 3609   1.634   3.527   0.636
  956SOL     OW 3610   0.597   2.576   0.281
  956SOL    HW1 3611   0.617   2.654   0.229
  956SOL    HW2 3612   0.534   2.606   0.346
  957SOL     OW 3613   1.280   2.213   0.932
  957SOL    HW1 3614   1.190   2.181   0.941
  957SOL    HW2 3615   1.330   2.160   0.994
  958SOL     OW 3616   1.586   3.533   0.319
  958SOL    HW1 3617   1.677   3.563   0.312
  958SOL    HW2 3618   1.560   3.516   0.228
  959SOL     OW 3619   0.792   2.479   1.452
  959SOL    HW1 3620   0.765   2.456   1.541
  959SOL    HW2 3621   0.751   2.413   1.396
  960SOL     OW 3622   1.393   2.336   1.678
  960SOL    HW1 3623   1.395   2.381   1.762
  960SOL    HW2 3624   1.455   2.263   1.688
  961SOL     OW 3625   0.955   2.750   1.582
  961SOL    HW1 3626   1.010   2.679   1.547
  961SOL    HW2 3627   0.908   2.783   1.506
  962SOL     OW 3628   0.992   2.274   1.239
  962SOL    HW1 3629   0.907   2.297   1.277
  962SOL    HW2 3630   0.971   2.228   1.158
  963SOL     OW 3631   1.052   2.561   0.427
  963SOL    HW1 3632   1.067   2.554   0.521
  963SOL    HW2 3633   0.969   2.514   0.413
  964SOL     OW 3634   0.068   2.650   0.816
  964SOL    HW1 3635   0.152   2.654   0.862
  964SOL    HW2 3636   0.064   2.731   0.766
  965SOL     OW 3637   0.131   3.744   1.584
  965SOL    HW1 3638   0.133   3.714   1.675
  965SOL    HW2 3639   0.058   3.696   1.544
  966SOL     OW 3640   0.884   2.219   0.201
  966SOL    HW1 3641   0.929   2.269   0.133
  966SOL    HW2 3642   0.885   2.129   0.170
  967SOL     OW 3643   1.709   2.435   1.827
  967SOL    HW1 3644   1.672   2.511   1.781
  967SOL    HW2 3645   1.736   2.376   1.757
  968SOL     OW 3646   1.376   3.003   0.541
  968SOL    HW1 3647   1.454   2.990   0.488
  968SOL    HW2 3648   1.323   3.066   0.492
  969SOL     OW 3649   0.554   2.046   0.893
  969SOL    HW1 3650   0.552   2.073   0.985
  969SOL    HW2 3651   0.553   2.128   0.844
  970SOL     OW 3652   1.006   3.307   0.473
  970SOL    HW1 3653   0.967   3.379   0.423
  970SOL    HW2 3654   0.987   3.328   0.565
  971SOL     OW 3655   0.357   3.664   0.868
  971SOL    HW1 3656   0.398   3.578   0.882
  971SOL    HW2 3657   0.423   3.726   0.898
  972SOL     OW 3658   1.798   2.919   0.868
  972SOL    HW1 3659   1.742   2.903   0.792
  972SOL    HW2 3660   1.737   2.925   0.942
  973SOL     OW 3661   1.228   3.401   1.513
  973SOL    HW1 3662   1.214   3.328   1.573
  973SOL    HW2 3663   1.165   3.386   1.442
  974SOL     OW 3664   0.330   2.813   0.250
  974SOL    HW1 3665   0.411   2.826   0.200
  974SOL    HW2 3666   0.313   2.719   0.244
  975SOL     OW 3667   1.477   2.603   0.727
  975SOL    HW1 3668   1.469   2.560   0.812
  975SOL    HW2 3669   1.554   2.659   0.736
  976SOL     OW 3670   0.465   3.125   1.737
  976SOL    HW1 3671   0.438   3.132   1.646
  976SOL    HW2 3672   0.383   3.126   1.787
  977SOL     OW 3673   1.108   3.643   0.224
  977SOL    HW1 3674   1.052   3.602   0.291
  977SOL    HW2 3675   1.128   3.572   0.164
  978SOL     OW 3676   0.205   2.143   1.497
  978SOL    HW1 3677   0.125   2.194   1.482
  978SOL    HW2 3678   0.174   2.065   1.543
  979SOL     OW 3679   1.634   3.235   0.082
  979SOL    HW1 3680   1.592   3.321   0.081
  979SOL    HW2 3681   1.562   3.174   0.064
  980SOL     OW 3682   0.470   3.596   0.325
  980SOL    HW1 3683   0.512   3.657   0.386
  980SOL    HW2 3684   0.540   3.571   0.265
  981SOL     OW 3685   1.407   1.973   0.443
  981SOL    HW1 3686   1.397   1.952   0.350
  981SOL    HW2 3687   1.501   1.980   0.456
  982SOL     OW 3688   0.276   3.663   1.214
  982SOL    HW1 3689   0.307   3.586   1.263
  982SOL    HW2 3690   0.225   3.626   1.142
  983SOL     OW 3691   0.938   3.561   0.899
  983SOL    HW1 3692   1.016   3.508   0.920
  983SOL    HW2 3693   0.894   3.511   0.831
  984SOL     OW 3694   0.382   2.561   0.476
  984SOL    HW1 3695   0.414   2.471   0.485
  984SOL    HW2 3696   0.290   2.556   0.502
  985SOL     OW 3697   1.537   2.087   1.725
  985SOL    HW1 3698   1.546   2.108   1.818
  985SOL    HW2 3699   1.467   2.022   1.722
  986SOL     OW 3700   0.628   1.973   0.136
  986SOL    HW1 3701   0.723   1.961   0.141
  986SOL    HW2 3702   0.607   1.954   0.045
  987SOL     OW 3703   0.767   2.140   1.753
  987SOL    HW1 3704   0.842   2.080   1.756
  987SOL    HW2 3705   0.718   2.120   1.833
  988SOL     OW 3706   0.877   3.383   1.193
  988SOL    HW1 3707   0.861   3.347   1.106
  988SOL    HW2 3708   0.947   3.329   1.230
  989SOL     OW 3709   1.341   2.450   1.432
  989SOL    HW1 3710   1.371   2.419   1.517
  989SOL    HW2 3711   1.376   2.539   1.424
  990SOL     OW 3712   0.815   3.257   0.939
  990SOL    HW1 3713   0.899   3.246   0.894
  990SOL    HW2 3714   0.750   3.258   0.868
  991SOL     OW 3715   0.928   2.371   0.903
  991SOL    HW1 3716   0.904   2.363   0.810
  991SOL    HW2 3717   0.959   2.284   0.927
  992SOL     OW 3718   0.560   1.924   0.500
  992SOL    HW1 3719   0.485   1.924   0.560
  992SOL    HW2 3720   0.549   2.003   0.448
  993SOL     OW 3721   1.433   3.061   0.036
  993SOL    HW1 3722   1.458   2.987   0.091
  993SOL    HW2 3723   1.345   3.085   0.065
  994SOL     OW 3724   0.313   1.908   0.174
  994SOL    HW1 3725   0.377   1.979   0.178
  994SOL    HW2 3726   0.357   1.834   0.218
  995SOL     OW 3727   0.940   2.109   0.459
  995SOL    HW1 3728   0.912   2.150   0.378
  995SOL    HW2 3729   1.034   2.125   0.463
  996SOL     OW 3730   1.080   2.542   1.460
  996SOL    HW1 3731   1.010   2.476   1.464
  996SOL    HW2 3732   1.161   2.492   1.453
  997SOL     OW 3733   1.224   3.431   0.794
  997SOL    HW1 3734   1.240   3.498   0.728
  997SOL    HW2 3735   1.292   3.446   0.860
  998SOL     OW 3736   0.468   3.012   0.733
  998SOL    HW1 3737   0.398   2.992   0.796
  998SOL    HW2 3738   0.428   2.996   0.647
  999SOL     OW 3739   1.268   3.656   0.607
  999SOL    HW1 3740   1.317   3.719   0.554
  999SOL    HW2 3741   1.202   3.709   0.651
 1000SOL     OW 3742   1.031   2.392   0.031
 1000SOL    HW1 3743   0.990   2.472   8.080
 1000SOL    HW2 3744   1.094   2.420   0.097
 1001SOL     OW 3745   0.087   2.408   1.398
 1001SOL    HW1 3746   0.175   2.415   1.361
 1001SOL    HW2 3747   0.079   2.484   1.456
 1002SOL     OW 3748   0.560   2.089   1.165
 1002SOL    HW1 3749   0.598   2.009   1.202
 1002SOL    HW2 3750   0.469   2.088   1.194
 1003SOL     OW 3751   0.867   2.320   0.639
 1003SOL    HW1 3752   0.825   2.376   0.574
 1003SOL    HW2 3753   0.889   2.240   0.592
 1004SOL     OW 3754   1.016   1.914   0.751
 1004SOL    HW1 3755   0.956   1.908   0.676
 1004SOL    HW2 3756   0.994   1.839   0.806
 1005SOL     OW 3757   1.437   3.025   0.857
 1005SOL    HW1 3758   1.368   2.959   0.856
 1005SOL    HW2 3759   1.461   3.037   0.765
 1006SOL     OW 3760   1.467   2.466   0.977
 1006SOL    HW1 3761   1.416   2.385   0.981
 1006SOL    HW2 3762   1.526   2.461   1.052
 1007SOL     OW 3763   1.847   2.679   0.387
 1007SOL    HW1 3764   1.892   2.623   0.450
 1007SOL    HW2 3765   1.817   2.620   0.318
 1008SOL     OW 3766   0.483   3.302   0.173
 1008SOL    HW1 3767   0.411   3.262   0.221
 1008SOL    HW2 3768   0.487   3.253   0.091
 1009SOL     OW 3769   1.670   3.127   0.648
 1009SOL    HW1 3770   1.765   3.131   0.661
 1009SOL    HW2 3771   1.639   3.215   0.669
 1010SOL     OW 3772   1.397   2.441   0.086
 1010SOL    HW1 3773   1.336   2.421   0.157
 1010SOL    HW2 3774   1.455   2.365   0.083
 1011SOL     OW 3775   0.516   2.125   0.324
 1011SOL    HW1 3776   0.565   2.073   0.260
 1011SOL    HW2 3777   0.502   2.209   0.280
 1012SOL     OW 3778   1.752   3.101   1.574
 1012SOL    HW1 3779   1.840   3.062   1.570
 1012SOL    HW2 3780   1.767   3.191   1.603
 1013SOL     OW 3781   1.059   3.215   1.334
 1013SOL    HW1 3782   0.984   3.184   1.385
 1013SOL    HW2 3783   1.135   3.174   1.375
 1014SOL     OW 3784   1.607   3.487   1.653
 1014SOL    HW1 3785   1.602   3.521   1.564
 1014SOL    HW2 3786   1.690   3.440   1.656
 1015SOL     OW 3787   1.128   3.064   1.106
 1015SOL    HW1 3788   1.069   3.103   1.171
 1015SOL    HW2 3789   1.095   3.097   1.022
 1016SOL     OW 3790   1.628   2.960   1.078
 1016SOL    HW1 3791   1.624   3.022   1.151
 1016SOL    HW2 3792   1.549   2.977   1.027
 1017SOL     OW 3793   0.919   1.958   1.398
 1017SOL    HW1 3794   0.941   1.940   1.306
 1017SOL    HW2 3795   0.998   1.999   1.434
 1018SOL     OW 3796   0.984   2.977   1.722
 1018SOL    HW1 3797   0.892   2.993   1.743
 1018SOL    HW2 3798   0.983   2.899   1.667
 1019SOL     OW 3799   0.713   2.924   0.380
 1019SOL    HW1 3800   0.697   2.907   0.473
 1019SOL    HW2 3801   0.791   2.872   0.360
 1020SOL     OW 3802   0.420   2.680   1.252
 1020SOL    HW1 3803   0.489   2.687   1.318
 1020SOL    HW2 3804   0.385   2.592   1.263
 1021SOL     OW 3805   1.266   2.239   1.274
 1021SOL    HW1 3806   1.298   2.317   1.320
 1021SOL    HW2 3807   1.176   2.261   1.251
 1022SOL     OW 3808   0.101   3.485   1.367
 1022SOL    HW1 3809   0.078   3.494   1.275
 1022SOL    HW2 3810   0.187   3.443   1.367
 1023SOL     OW 3811   0.347   2.969   0.488
 1023SOL    HW1 3812   0.347   3.049   0.435
 1023SOL    HW2 3813   0.360   2.898   0.425
 1024SOL     OW 3814   0.555   2.398   0.859
 1024SOL    HW1 3815   0.570   2.457   0.785
 1024SOL    HW2 3816   0.618   2.425   0.925
 1025SOL     OW 3817   1.247   3.209   0.393
 1025SOL    HW1 3818   1.303   3.282   0.422
 1025SOL    HW2 3819   1.160   3.232   0.425
 1026SOL     OW 3820   1.280   3.319   1.147
 1026SOL    HW1 3821   1.336   3.322   1.225
 1026SOL    HW2 3822   1.224   3.242   1.159
 1027SOL     OW 3823   1.582   2.485   0.481
 1027SOL    HW1 3824   1.534   2.538   0.544
 1027SOL    HW2 3825   1.621   2.548   0.421
 1028SOL     OW 3826   0.351   3.381   1.311
 1028SOL    HW1 3827   0.342   3.338   1.226
 1028SOL    HW2 3828   0.445   3.399   1.318
 1029SOL     OW 3829   0.413   2.605   1.602
 1029SOL    HW1 3830   0.474   2.651   1.544
 1029SOL    HW2 3831   0.454   2.519   1.615
 1030SOL     OW 3832   1.600   2.640   1.681
 1030SOL    HW1 3833   1.514   2.681   1.674
 1030SOL    HW2 3834   1.653   2.682   1.613
 1031SOL     OW 3835   0.996   1.984   1.756
 1031SOL    HW1 3836   1.051   2.057   1.727
 1031SOL    HW2 3837   1.045   1.905   1.730
 1032SOL     OW 3838   0.497   1.904   1.747
 1032SOL    HW1 3839   0.455   1.850   1.680
 1032SOL    HW2 3840   0.437   1.977   1.759
 1033SOL     OW 3841   0.585   2.735   1.032
 1033SOL    HW1 3842   0.615   2.826   1.030
 1033SOL    HW2 3843   0.529   2.730   1.109
 1034SOL     OW 3844   1.359   2.721   1.031
 1034SOL    HW1 3845   1.276   2.712   0.983
 1034SOL    HW2 3846   1.398   2.633   1.025
 1035SOL     OW 3847   1.204   2.390   0.271
 1035SOL    HW1 3848   1.211   2.311   0.325
 1035SOL    HW2 3849   1.162   2.454   0.328
 1036SOL     OW 3850   0.302   2.066   1.248
 1036SOL    HW1 3851   0.267   2.091   1.333
 1036SOL    HW2 3852   0.289   1.971   1.243
 1037SOL     OW 3853   0.070   3.181   1.281
 1037SOL    HW1 3854   0.091   3.121   1.352
 1037SOL    HW2 3855   0.002   3.238   1.316
 1038SOL     OW 3856   0.724   2.493   1.058
 1038SOL    HW1 3857   0.799   2.477   1.000
 1038SOL    HW2 3858   0.697   2.582   1.037
 1039SOL     OW 3859   1.733   2.822   1.852
 1039SOL    HW1 3860   1.687   2.761   1.794
 1039SOL    HW2 3861   1.674   2.834   1.926
 1040SOL     OW 3862   0.325   1.925   0.635
 1040SOL    HW1 3863   0.309   2.015   0.664
 1040SOL    HW2 3864   0.331   1.874   0.716
 1041SOL     OW 3865   1.619   2.236   0.370
 1041SOL    HW1 3866   1.644   2.172   0.437
 1041SOL    HW2 3867   1.594   2.314   0.419
 1042SOL     OW 3868   1.028   2.621   0.961
 1042SOL    HW1 3869   1.025   2.639   1.055
 1042SOL    HW2 3870   1.001   2.529   0.953
 1043SOL     OW 3871   0.982   3.428   1.716
 1043SOL    HW1 3872   0.967   3.472   1.633
 1043SOL    HW2 3873   1.026   3.346   1.692
 1044SOL     OW 3874   1.855   3.369   1.605
 1044SOL    HW1 3875   1.873   3.395   1.515
 1044SOL    HW2 3876   1.936   3.387   1.652
 1045SOL     OW 3877   0.354   2.780   1.806
 1045SOL    HW1 3878   0.435   2.799   1.853
 1045SOL    HW2 3879   0.379   2.715   1.740
 1046SOL     OW 3880   1.520   2.160   0.126
 1046SOL    HW1 3881   1.470   2.080   0.143
 1046SOL    HW2 3882   1.559   2.182   0.211
 1047SOL     OW 3883   1.295   2.687   0.021
 1047SOL    HW1 3884   1.333   2.601   0.039
 1047SOL    HW2 3885   1.355   2.728   8.040
 1048SOL     OW 3886   1.066   3.197   0.854
 1048SOL    HW1 3887   1.069   3.125   0.791
 1048SOL    HW2 3888   1.127   3.262   0.819
 1049SOL     OW 3889   0.314   2.672   0.950
 1049SOL    HW1 3890   0.408   2.690   0.946
 1049SOL    HW2 3891   0.309   2.582   0.982
 1050SOL     OW 3892   0.335   2.387   1.015
 1050SOL    HW1 3893   0.300   2.299   1.000
 1050SOL    HW2 3894   0.410   2.393   0.955
 1051SOL     OW 3895   1.134   2.238   1.682
 1051SOL    HW1 3896   1.087   2.293   1.744
 1051SOL    HW2 3897   1.222   2.276   1.678
 1052SOL     OW 3898   1.161   2.065   1.470
 1052SOL    HW1 3899   1.150   2.128   1.542
 1052SOL    HW2 3900   1.200   2.116   1.399
 1053SOL     OW 3901   0.009   3.192   0.202
 1053SOL    HW1 3902   5.234   3.179   0.144
 1053SOL    HW2 3903   0.014   3.110   0.252
 1054SOL     OW 3904   0.092   3.644   0.948
 1054SOL    HW1 3905   0.059   3.572   0.895
 1054SOL    HW2 3906   0.180   3.660   0.914
 1055SOL     OW 3907   0.505   3.435   0.907
 1055SOL    HW1 3908   0.572   3.500   0.928
 1055SOL    HW2 3909   0.548   3.374   0.848
 1056SOL     OW 3910   0.984   2.654   1.227
 1056SOL    HW1 3911   1.039   2.631   1.302
 1056SOL    HW2 3912   0.898   2.618   1.248
 1057SOL     OW 3913   0.033   2.419   1.115
 1057SOL    HW1 3914   0.121   2.398   1.083
 1057SOL    HW2 3915   0.038   2.404   1.209
 1058SOL     OW 3916   0.175   2.375   1.712
 1058SOL    HW1 3917   0.241   2.339   1.652
 1058SOL    HW2 3918   0.146   2.456   1.670
 1059SOL     OW 3919   1.377   2.801   1.659
 1059SOL    HW1 3920   1.398   2.895   1.657
 1059SOL    HW2 3921   1.374   2.776   1.566
 1060SOL     OW 3922   0.818   2.431   0.366
 1060SOL    HW1 3923   0.828   2.360   0.303
 1060SOL    HW2 3924   0.742   2.480   0.335
 1061SOL     OW 3925   1.641   2.463   1.187
 1061SOL    HW1 3926   1.630   2.405   1.261
 1061SOL    HW2 3927   1.728   2.442   1.152
 1062SOL     OW 3928   0.257   3.418   1.735
 1062SOL    HW1 3929   0.233   3.481   1.804
 1062SOL    HW2 3930   0.249   3.332   1.777
 1063SOL     OW 3931   0.700   2.313   1.260
 1063SOL    HW1 3932   0.648   2.239   1.230
 1063SOL    HW2 3933   0.696   2.376   1.188
 1064SOL     OW 3934   0.929   3.541   1.467
 1064SOL    HW1 3935   0.902   3.507   1.382
 1064SOL    HW2 3936   0.924   3.636   1.458
 1065SOL     OW 3937   0.467   2.352   0.180
 1065SOL    HW1 3938   0.532   2.419   0.200
 1065SOL    HW2 3939   0.383   2.398   0.184
 1066SOL     OW 3940   0.148   3.000   1.471
 1066SOL    HW1 3941   0.147   2.950   1.553
 1066SOL    HW2 3942   0.161   2.933   1.404
 1067SOL     OW 3943   1.326   2.909   1.224
 1067SOL    HW1 3944   1.350   2.846   1.156
 1067SOL    HW2 3945   1.256   2.961   1.185
 1068SOL     OW 3946   1.306   2.710   0.308
 1068SOL    HW1 3947   1.228   2.682   0.356
 1068SOL    HW2 3948   1.283   2.700   0.216
 1069SOL     OW 3949   1.771   3.607   1.149
 1069SOL    HW1 3950   1.831   3.633   1.080
 1069SOL    HW2 3951   1.747   3.517   1.129
 1070SOL     OW 3952   1.241   3.595   1.114
 1070SOL    HW1 3953   1.323   3.615   1.068
 1070SOL    HW2 3954   1.246   3.501   1.132
 1071SOL     OW 3955   0.083   3.080   1.027
 1071SOL    HW1 3956   0.069   3.105   1.119
 1071SOL    HW2 3957   5.294   3.069   0.992
 1072SOL     OW 3958   0.678   3.527   1.728
 1072SOL    HW1 3959   0.623   3.606   1.723
 1072SOL    HW2 3960   0.741   3.538   1.658
 1073SOL     OW 3961   0.905   1.953   0.133
 1073SOL    HW1 3962   0.925   1.939   0.041
 1073SOL    HW2 3963   0.968   1.900   0.181
 1074SOL     OW 3964   1.720   2.007   0.512
 1074SOL    HW1 3965   1.791   1.991   0.450
 1074SOL    HW2 3966   1.704   1.921   0.552
 1075SOL     OW 3967   1.389   3.430   0.485
 1075SOL    HW1 3968   1.453   3.463   0.421
 1075SOL    HW2 3969   1.342   3.508   0.514
 1076SOL     OW 3970   0.144   3.660   1.843
 1076SOL    HW1 3971   0.090   3.597   1.889
 1076SOL    HW2 3972   0.190   3.708   1.911
 1077SOL     OW 3973   1.277   2.787   0.671
 1077SOL    HW1 3974   1.351   2.726   0.677
 1077SOL    HW2 3975   1.310   2.860   0.619
 1078SOL     OW 3976   0.815   3.135   1.430
 1078SOL    HW1 3977   0.787   3.174   1.513
 1078SOL    HW2 3978   0.745   3.156   1.369
 1079SOL     OW 3979   0.678   3.481   0.155
 1079SOL    HW1 3980   0.681   3.489   0.060
 1079SOL    HW2 3981   0.617   3.409   0.172
 1080SOL     OW 3982   1.627   3.588   1.391
 1080SOL    HW1 3983   1.677   3.596   1.310
 1080SOL    HW2 3984   1.614   3.679   1.419
 1081SOL     OW 3985   1.837   2.034   0.967
 1081SOL    HW1 3986   1.866   1.946   0.939
 1081SOL    HW2 3987   1.751   2.045   0.927
 1082SOL     OW 3988   0.270   2.178   0.717
 1082SOL    HW1 3989   0.187   2.222   0.697
 1082SOL    HW2 3990   0.270   2.168   0.812
 1083SOL     OW 3991   1.156   3.444   0.051
 1083SOL    HW1 3992   1.173   3.351   0.070
 1083SOL    HW2 3993   1.167   3.451   8.036
 1084SOL     OW 3994   0.824   2.868   1.372
 1084SOL    HW1 3995   0.867   2.864   1.287
 1084SOL    HW2 3996   0.824   2.961   1.395
 1085SOL     OW 3997   0.918   2.775   0.297
 1085SOL    HW1 3998   0.972   2.800   0.222
 1085SOL    HW2 3999   0.965   2.703   0.338
 1086SOL     OW 4000   1.510   3.486   0.060
 1086SOL    HW1 4001   1.415   3.487   0.049
 1086SOL    HW2 4002   1.545   3.486   8.051
 1087SOL     OW 4003   0.368   3.166   1.493
 1087SOL    HW1 4004   0.359   3.240   1.434
 1087SOL    HW2 4005   0.292   3.111   1.474
 1088SOL     OW 4006   1.610   3.144   1.280
 1088SOL    HW1 4007   1.671   3.135   1.354
 1088SOL    HW2 4008   1.550   3.214   1.308
 1089SOL     OW 4009   1.051   2.969   0.706
 1089SOL    HW1 4010   0.981   2.917   0.746
 1089SOL    HW2 4011   1.113   2.904   0.673
 1090SOL     OW 4012   1.021   2.102   0.966
 1090SOL    HW1 4013   1.016   2.054   0.883
 1090SOL    HW2 4014   1.016   2.034   1.033
 1091SOL     OW 4015   0.602   3.349   0.480
 1091SOL    HW1 4016   0.644   3.300   0.409
 1091SOL    HW2 4017   0.534   3.401   0.436
 1092SOL     OW 4018   1.718   2.252   1.380
 1092SOL    HW1 4019   1.789   2.317   1.379
 1092SOL    HW2 4020   1.750   2.182   1.323
 1093SOL     OW 4021   0.268   3.188   0.299
 1093SOL    HW1 4022   0.183   3.199   0.258
 1093SOL    HW2 4023   0.260   3.234   0.383
 1094SOL     OW 4024   0.115   2.878   1.718
 1094SOL    HW1 4025   0.044   2.843   1.772
 1094SOL    HW2 4026   0.195   2.847   1.761
 1095SOL     OW 4027   0.674   2.058   1.499
 1095SOL    HW1 4028   0.758   2.039   1.457
 1095SOL    HW2 4029   0.697   2.089   1.587
 1096SOL     OW 4030   0.041   2.255   0.028
 1096SOL    HW1 4031   0.019   2.167   0.058
 1096SOL    HW2 4032   0.121   2.244   8.057
 1097SOL     OW 4033   1.430   2.720   1.400
 1097SOL    HW1 4034   1.382   2.781   1.345
 1097SOL    HW2 4035   1.520   2.723   1.367
 1098SOL     OW 4036   0.052   1.997   0.219
 1098SOL    HW1 4037   0.053   2.085   0.256
 1098SOL    HW2 4038   0.144   1.973   0.208
 1099SOL     OW 4039   1.184   3.180   0.122
 1099SOL    HW1 4040   1.089   3.170   0.121
 1099SOL    HW2 4041   1.208   3.183   0.214
 1100SOL     OW 4042   0.619   2.693   1.435
 1100SOL    HW1 4043   0.675   2.769   1.419
 1100SOL    HW2 4044   0.680   2.619   1.443
 1101SOL     OW 4045   1.484   3.638   0.978
 1101SOL    HW1 4046   1.508   3.697   0.907
 1101SOL    HW2 4047   1.566   3.620   1.023
 1102SOL     OW 4048   0.717   2.426   1.705
 1102SOL    HW1 4049   0.757   2.489   1.765
 1102SOL    HW2 4050   0.747   2.341   1.736
 1103SOL     OW 4051   1.471   3.063   1.632
 1103SOL    HW1 4052   1.459   3.076   1.726
 1103SOL    HW2 4053   1.564   3.077   1.618
 1104SOL     OW 4054   0.379   3.604   1.564
 1104SOL    HW1 4055   0.296   3.650   1.549
 1104SOL    HW2 4056   0.354   3.523   1.609
 1105SOL     OW 4057   1.671   2.743   1.255
 1105SOL    HW1 4058   1.662   2.658   1.212
 1105SOL    HW2 4059   1.660   2.807   1.184
 1106SOL     OW 4060   1.217   2.180   0.460
 1106SOL    HW1 4061   1.283   2.110   0.452
 1106SOL    HW2 4062   1.245   2.231   0.536
 1107SOL     OW 4063   0.589   2.599   0.668
 1107SOL    HW1 4064   0.629   2.685   0.654
 1107SOL    HW2 4065   0.519   2.594   0.604
 1108SOL     OW 4066   1.765   2.221   1.648
 1108SOL    HW1 4067   1.744   2.238   1.556
 1108SOL    HW2 4068   1.693   2.166   1.679
 1109SOL     OW 4069   1.744   2.796   1.512
 1109SOL    HW1 4070   1.742   2.891   1.526
 1109SOL    HW2 4071   1.729   2.785   1.418
 1110SOL     OW 4072   0.893   3.234   0.034
 1110SOL    HW1 4073   0.830   3.226   0.106
 1110SOL    HW2 4074   0.878   3.322   8.079
 1111SOL     OW 4075   0.662   3.656   0.944
 1111SOL    HW1 4076   0.641   3.747   0.921
 1111SOL    HW2 4077   0.758   3.651   0.938
 1112SOL     OW 4078   0.867   2.828   0.855
 1112SOL    HW1 4079   0.917   2.757   0.895
 1112SOL    HW2 4080   0.833   2.878   0.929
 1113SOL     OW 4081   1.076   2.838   0.085
 1113SOL    HW1 4082   1.067   2.903   0.015
 1113SOL    HW2 4083   1.154   2.788   0.062
 1114SOL     OW 4084   1.855   3.417   0.844
 1114SOL    HW1 4085   1.776   3.405   0.791
 1114SOL    HW2 4086   1.847   3.350   0.912
 1115SOL     OW 4087   0.225   3.167   1.859
 1115SOL    HW1 4088   0.157   3.104   1.834
 1115SOL    HW2 4089   0.213   3.177   1.954
 1116SOL     OW 4090   0.092   3.094   0.660
 1116SOL    HW1 4091   0.098   3.050   0.744
 1116SOL    HW2 4092   0.169   3.064   0.611
 1117SOL     OW 4093   0.681   3.264   1.628
 1117SOL    HW1 4094   0.600   3.221   1.657
 1117SOL    HW2 4095   0.676   3.352   1.664
 1118SOL     OW 4096   1.815   2.047   1.238
 1118SOL    HW1 4097   1.822   1.953   1.253
 1118SOL    HW2 4098   1.822   2.057   1.143
 1119SOL     OW 4099   0.431   2.300   0.523
 1119SOL    HW1 4100   0.462   2.228   0.469
 1119SOL    HW2 4101   0.387   2.258   0.597
 1120SOL     OW 4102   1.700   3.352   1.097
 1120SOL    HW1 4103   1.619   3.328   1.052
 1120SOL    HW2 4104   1.714   3.283   1.162
 1121SOL     OW 4105   0.336   2.421   1.291
 1121SOL    HW1 4106   0.389   2.362   1.345
 1121SOL    HW2 4107   0.350   2.391   1.201
 1122SOL     OW 4108   0.828   3.439   0.678
 1122SOL    HW1 4109   0.816   3.492   0.599
 1122SOL    HW2 4110   0.750   3.383   0.681
 1123SOL     OW 4111   1.432   2.087   1.118
 1123SOL    HW1 4112   1.457   2.007   1.165
 1123SOL    HW2 4113   1.380   2.136   1.181
 1124SOL     OW 4114   1.009   1.881   1.143
 1124SOL    HW1 4115   0.954   1.813   1.103
 1124SOL    HW2 4116   1.097   1.843   1.145
 1125SOL     OW 4117   0.771   3.189   0.307
 1125SOL    HW1 4118   0.739   3.100   0.322
 1125SOL    HW2 4119   0.852   3.194   0.357
 1126SOL     OW 4120   0.622   3.419   1.287
 1126SOL    HW1 4121   0.624   3.501   1.336
 1126SOL    HW2 4122   0.709   3.413   1.247
 1127SOL     OW 4123   1.356   1.916   0.184
 1127SOL    HW1 4124   1.378   1.869   0.104
 1127SOL    HW2 4125   1.270   1.883   0.209
 1128SOL     OW 4126   1.297   2.322   0.681
 1128SOL    HW1 4127   1.244   2.402   0.689
 1128SOL    HW2 4128   1.293   2.283   0.769
 1129SOL     OW 4129   1.586   2.065   0.877
 1129SOL    HW1 4130   1.525   2.085   0.948
 1129SOL    HW2 4131   1.585   2.144   0.822
 1130SOL     OW 4132   0.046   2.939   0.317
 1130SOL    HW1 4133   0.135   2.915   0.291
 1130SOL    HW2 4134   5.298   2.856   0.320
 1131SOL     OW 4135   0.883   3.514   0.347
 1131SOL    HW1 4136   0.814   3.498   0.282
 1131SOL    HW2 4137   0.852   3.590   0.396
 1132SOL     OW 4138   0.233   2.495   1.978
 1132SOL    HW1 4139   0.159   2.462   2.029
 1132SOL    HW2 4140   0.219   2.459   1.890
 1133SOL     OW 4141   0.241   2.137   2.852
 1133SOL    HW1 4142   0.255   2.103   2.940
 1133SOL    HW2 4143   0.157   2.100   2.825
 1134SOL     OW 4144   5.299   2.259   2.514
 1134SOL    HW1 4145   5.206   2.282   2.521
 1134SOL    HW2 4146   5.299   2.169   2.484
 1135SOL     OW 4147   0.573   3.145   3.042
 1135SOL    HW1 4148   0.490   3.153   2.995
 1135SOL    HW2 4149   0.590   3.233   3.078
 1136SOL     OW 4150   1.560   3.374   2.569
 1136SOL    HW1 4151   1.517   3.354   2.652
 1136SOL    HW2 4152   1.489   3.378   2.505
 1137SOL     OW 4153   1.129   2.560   2.563
 1137SOL    HW1 4154   1.179   2.641   2.549
 1137SOL    HW2 4155   1.083   2.575   2.646
 1138SOL     OW 4156   1.764   2.469   2.090
 1138SOL    HW1 4157   1.745   2.459   1.997
 1138SOL    HW2 4158   1.730   2.388   2.130
 1139SOL     OW 4159   0.756   3.004   2.900
 1139SOL    HW1 4160   0.689   3.037   2.959
 1139SOL    HW2 4161   0.791   3.081   2.857
 1140SOL     OW 4162   0.864   2.638   3.683
 1140SOL    HW1 4163   0.857   2.710   3.746
 1140SOL    HW2 4164   0.888   2.681   3.601
 1141SOL     OW 4165   0.685   2.865   2.510
 1141SOL    HW1 4166   0.751   2.853   2.578
 1141SOL    HW2 4167   0.617   2.918   2.551
 1142SOL     OW 4168   0.709   3.013   3.674
 1142SOL    HW1 4169   0.757   3.091   3.700
 1142SOL    HW2 4170   0.627   3.046   3.638
 1143SOL     OW 4171   0.358   3.267   2.922
 1143SOL    HW1 4172   0.270   3.266   2.884
 1143SOL    HW2 4173   0.407   3.330   2.868
 1144SOL     OW 4174   1.460   3.363   3.216
 1144SOL    HW1 4175   1.510   3.444   3.226
 1144SOL    HW2 4176   1.400   3.362   3.290
 1145SOL     OW 4177   0.450   2.262   3.355
 1145SOL    HW1 4178   0.524   2.202   3.357
 1145SOL    HW2 4179   0.373   2.206   3.364
 1146SOL     OW 4180   1.612   2.311   2.601
 1146SOL    HW1 4181   1.537   2.333   2.546
 1146SOL    HW2 4182   1.629   2.390   2.653
 1147SOL     OW 4183   0.230   3.576   2.339
 1147SOL    HW1 4184   0.265   3.645   2.397
 1147SOL    HW2 4185   0.292   3.573   2.267
 1148SOL     OW 4186   1.136   3.204   3.554
 1148SOL    HW1 4187   1.178   3.198   3.640
 1148SOL    HW2 4188   1.084   3.124   3.548
 1149SOL     OW 4189   0.222   3.305   2.401
 1149SOL    HW1 4190   0.215   3.401   2.398
 1149SOL    HW2 4191   0.152   3.277   2.460
 1150SOL     OW 4192   0.249   2.940   2.737
 1150SOL    HW1 4193   0.260   2.855   2.781
 1150SOL    HW2 4194   0.198   2.992   2.800
 1151SOL     OW 4195   0.614   3.652   3.295
 1151SOL    HW1 4196   0.530   3.635   3.337
 1151SOL    HW2 4197   0.635   3.743   3.317
 1152SOL     OW 4198   0.584   2.844   1.997
 1152SOL    HW1 4199   0.630   2.893   1.928
 1152SOL    HW2 4200   0.626   2.874   2.078
 1153SOL     OW 4201   1.595   1.984   3.330
 1153SOL    HW1 4202   1.597   2.066   3.281
 1153SOL    HW2 4203   1.578   2.011   3.420
 1154SOL     OW 4204   0.126   2.496   2.440
 1154SOL    HW1 4205   0.089   2.413   2.469
 1154SOL    HW2 4206   0.099   2.559   2.507
 1155SOL     OW 4207   1.842   3.621   2.197
 1155SOL    HW1 4208   1.905   3.593   2.263
 1155SOL    HW2 4209   1.867   3.712   2.178
 1156SOL     OW 4210   0.037   3.461   1.993
 1156SOL    HW1 4211   0.024   3.369   2.018
 1156SOL    HW2 4212   5.283   3.510   2.055
 1157SOL     OW 4213   1.690   2.780   2.503
 1157SOL    HW1 4214   1.772   2.736   2.483
 1157SOL    HW2 4215   1.669   2.829   2.423
 1158SOL     OW 4216   1.646   2.969   2.291
 1158SOL    HW1 4217   1.732   2.975   2.249
 1158SOL    HW2 4218   1.651   3.030   2.365
 1159SOL     OW 4219   0.130   2.610   3.448
 1159SOL    HW1 4220   0.225   2.624   3.451
 1159SOL    HW2 4221   0.093   2.697   3.463
 1160SOL     OW 4222   0.615   3.247   2.597
 1160SOL    HW1 4223   0.567   3.164   2.607
 1160SOL    HW2 4224   0.597   3.273   2.506
 1161SOL     OW 4225   1.289   3.101   3.285
 1161SOL    HW1 4226   1.321   3.034   3.225
 1161SOL    HW2 4227   1.345   3.093   3.362
 1162SOL     OW 4228   0.822   1.861   2.371
 1162SOL    HW1 4229   0.862   1.945   2.352
 1162SOL    HW2 4230   0.728   1.879   2.377
 1163SOL     OW 4231   0.178   2.809   3.140
 1163SOL    HW1 4232   0.269   2.780   3.130
 1163SOL    HW2 4233   0.135   2.781   3.059
 1164SOL     OW 4234   1.531   2.855   2.060
 1164SOL    HW1 4235   1.462   2.797   2.092
 1164SOL    HW2 4236   1.573   2.889   2.139
 1165SOL     OW 4237   1.185   3.668   3.484
 1165SOL    HW1 4238   1.197   3.726   3.409
 1165SOL    HW2 4239   1.201   3.580   3.449
 1166SOL     OW 4240   0.335   2.115   3.677
 1166SOL    HW1 4241   0.383   2.196   3.690
 1166SOL    HW2 4242   0.248   2.132   3.713
 1167SOL     OW 4243   1.466   3.282   2.814
 1167SOL    HW1 4244   1.398   3.296   2.879
 1167SOL    HW2 4245   1.454   3.191   2.787
 1168SOL     OW 4246   1.659   3.600   2.440
 1168SOL    HW1 4247   1.639   3.571   2.351
 1168SOL    HW2 4248   1.634   3.526   2.496
 1169SOL     OW 4249   0.595   2.583   2.127
 1169SOL    HW1 4250   0.603   2.664   2.076
 1169SOL    HW2 4251   0.531   2.604   2.195
 1170SOL     OW 4252   1.279   2.213   2.794
 1170SOL    HW1 4253   1.190   2.180   2.803
 1170SOL    HW2 4254   1.330   2.160   2.856
 1171SOL     OW 4255   1.581   3.532   2.171
 1171SOL    HW1 4256   1.671   3.564   2.164
 1171SOL    HW2 4257   1.554   3.515   2.081
 1172SOL     OW 4258   0.791   2.479   3.314
 1172SOL    HW1 4259   0.765   2.456   3.403
 1172SOL    HW2 4260   0.751   2.413   3.258
 1173SOL     OW 4261   1.392   2.335   3.540
 1173SOL    HW1 4262   1.395   2.380   3.624
 1173SOL    HW2 4263   1.456   2.263   3.549
 1174SOL     OW 4264   0.955   2.749   3.444
 1174SOL    HW1 4265   1.010   2.679   3.409
 1174SOL    HW2 4266   0.908   2.783   3.368
 1175SOL     OW 4267   0.992   2.274   3.101
 1175SOL    HW1 4268   0.907   2.297   3.139
 1175SOL    HW2 4269   0.971   2.228   3.020
 1176SOL     OW 4270   1.050   2.561   2.288
 1176SOL    HW1 4271   1.066   2.554   2.382
 1176SOL    HW2 4272   0.968   2.514   2.274
 1177SOL     OW 4273   0.072   2.649   2.674
 1177SOL    HW1 4274   0.154   2.654   2.723
 1177SOL    HW2 4275   0.062   2.735   2.634
 1178SOL     OW 4276   0.131   3.744   3.446
 1178SOL    HW1 4277   0.133   3.714   3.537
 1178SOL    HW2 4278   0.058   3.696   3.406
 1179SOL     OW 4279   0.891   2.210   2.056
 1179SOL    HW1 4280   0.933   2.272   1.996
 1179SOL    HW2 4281   0.909   2.124   2.018
 1180SOL     OW 4282   1.683   2.433   3.697
 1180SOL    HW1 4283   1.651   2.508   3.647
 1180SOL    HW2 4284   1.704   2.367   3.631
 1181SOL     OW 4285   1.376   3.004   2.403
 1181SOL    HW1 4286   1.455   2.991   2.351
 1181SOL    HW2 4287   1.324   3.066   2.353
 1182SOL     OW 4288   0.555   2.045   2.755
 1182SOL    HW1 4289   0.552   2.073   2.847
 1182SOL    HW2 4290   0.551   2.127   2.705
 1183SOL     OW 4291   1.006   3.306   2.334
 1183SOL    HW1 4292   0.968   3.379   2.285
 1183SOL    HW2 4293   0.990   3.328   2.426
 1184SOL     OW 4294   0.356   3.664   2.731
 1184SOL    HW1 4295   0.397   3.578   2.744
 1184SOL    HW2 4296   0.423   3.727   2.759
 1185SOL     OW 4297   1.798   2.923   2.728
 1185SOL    HW1 4298   1.743   2.902   2.652
 1185SOL    HW2 4299   1.736   2.927   2.801
 1186SOL     OW 4300   1.228   3.401   3.375
 1186SOL    HW1 4301   1.214   3.328   3.435
 1186SOL    HW2 4302   1.165   3.386   3.304
 1187SOL     OW 4303   0.316   2.814   2.109
 1187SOL    HW1 4304   0.398   2.838   2.065
 1187SOL    HW2 4305   0.293   2.729   2.072
 1188SOL     OW 4306   1.478   2.603   2.589
 1188SOL    HW1 4307   1.469   2.561   2.675
 1188SOL    HW2 4308   1.555   2.659   2.599
 1189SOL     OW 4309   0.465   3.126   3.600
 1189SOL    HW1 4310   0.438   3.132   3.508
 1189SOL    HW2 4311   0.382   3.126   3.649
 1190SOL     OW 4312   1.121   3.640   2.093
 1190SOL    HW1 4313   1.049   3.597   2.139
 1190SOL    HW2 4314   1.144   3.579   2.023
 1191SOL     OW 4315   0.205   2.143   3.359
 1191SOL    HW1 4316   0.125   2.194   3.344
 1191SOL    HW2 4317   0.174   2.065   3.405
 1192SOL     OW 4318   1.629   3.242   1.949
 1192SOL    HW1 4319   1.587   3.327   1.934
 1192SOL    HW2 4320   1.560   3.178   1.930
 1193SOL     OW 4321   0.471   3.597   2.182
 1193SOL    HW1 4322   0.513   3.655   2.245
 1193SOL    HW2 4323   0.543   3.567   2.126
 1194SOL     OW 4324   1.401   1.969   2.294
 1194SOL    HW1 4325   1.391   1.945   2.202
 1194SOL    HW2 4326   1.496   1.977   2.306
 1195SOL     OW 4327   0.275   3.663   3.077
 1195SOL    HW1 4328   0.307   3.586   3.125
 1195SOL    HW2 4329   0.226   3.627   3.003
 1196SOL     OW 4330   0.939   3.561   2.761
 1196SOL    HW1 4331   1.016   3.508   2.782
 1196SOL    HW2 4332   0.894   3.511   2.693
 1197SOL     OW 4333   0.386   2.558   2.341
 1197SOL    HW1 4334   0.415   2.467   2.349
 1197SOL    HW2 4335   0.292   2.555   2.362
 1198SOL     OW 4336   1.528   2.078   3.588
 1198SOL    HW1 4337   1.541   2.103   3.679
 1198SOL    HW2 4338   1.457   2.014   3.590
 1199SOL     OW 4339   0.632   1.985   1.968
 1199SOL    HW1 4340   0.704   1.923   1.979
 1199SOL    HW2 4341   0.585   1.953   1.891
 1200SOL     OW 4342   0.767   2.139   3.615
 1200SOL    HW1 4343   0.842   2.080   3.618
 1200SOL    HW2 4344   0.719   2.121   3.696
 1201SOL     OW 4345   0.877   3.383   3.055
 1201SOL    HW1 4346   0.861   3.347   2.968
 1201SOL    HW2 4347   0.947   3.329   3.092
 1202SOL     OW 4348   1.341   2.450   3.294
 1202SOL    HW1 4349   1.372   2.419   3.379
 1202SOL    HW2 4350   1.375   2.539   3.286
 1203SOL     OW 4351   0.815   3.257   2.801
 1203SOL    HW1 4352   0.899   3.246   2.757
 1203SOL    HW2 4353   0.751   3.258   2.730
 1204SOL     OW 4354   0.928   2.371   2.765
 1204SOL    HW1 4355   0.904   2.363   2.673
 1204SOL    HW2 4356   0.959   2.284   2.790
 1205SOL     OW 4357   0.560   1.923   2.358
 1205SOL    HW1 4358   0.485   1.923   2.418
 1205SOL    HW2 4359   0.549   2.003   2.306
 1206SOL     OW 4360   1.428   3.060   1.903
 1206SOL    HW1 4361   1.459   2.985   1.953
 1206SOL    HW2 4362   1.343   3.081   1.941
 1207SOL     OW 4363   0.305   1.909   2.042
 1207SOL    HW1 4364   0.367   1.973   2.006
 1207SOL    HW2 4365   0.360   1.844   2.086
 1208SOL     OW 4366   0.939   2.108   2.322
 1208SOL    HW1 4367   0.911   2.150   2.241
 1208SOL    HW2 4368   1.033   2.123   2.326
 1209SOL     OW 4369   1.080   2.542   3.322
 1209SOL    HW1 4370   1.012   2.475   3.327
 1209SOL    HW2 4371   1.162   2.493   3.315
 1210SOL     OW 4372   1.224   3.431   2.656
 1210SOL    HW1 4373   1.240   3.499   2.590
 1210SOL    HW2 4374   1.292   3.445   2.721
 1211SOL     OW 4375   0.467   3.012   2.594
 1211SOL    HW1 4376   0.398   2.992   2.657
 1211SOL    HW2 4377   0.427   2.993   2.509
 1212SOL     OW 4378   1.270   3.656   2.470
 1212SOL    HW1 4379   1.315   3.717   2.412
 1212SOL    HW2 4380   1.203   3.709   2.514
 1213SOL     OW 4381   1.024   2.404   1.884
 1213SOL    HW1 4382   0.982   2.488   1.864
 1213SOL    HW2 4383   1.089   2.426   1.951
 1214SOL     OW 4384   0.087   2.408   3.260
 1214SOL    HW1 4385   0.175   2.415   3.223
 1214SOL    HW2 4386   0.079   2.484   3.318
 1215SOL     OW 4387   0.560   2.089   3.028
 1215SOL    HW1 4388   0.598   2.010   3.065
 1215SOL    HW2 4389   0.469   2.088   3.056
 1216SOL     OW 4390   0.868   2.321   2.502
 1216SOL    HW1 4391   0.822   2.375   2.437
 1216SOL    HW2 4392   0.889   2.240   2.455
 1217SOL     OW 4393   1.015   1.915   2.614
 1217SOL    HW1 4394   0.957   1.907   2.539
 1217SOL    HW2 4395   0.994   1.839   2.669
 1218SOL     OW 4396   1.436   3.025   2.719
 1218SOL    HW1 4397   1.368   2.958   2.719
 1218SOL    HW2 4398   1.460   3.036   2.627
 1219SOL     OW 4399   1.466   2.467   2.840
 1219SOL    HW1 4400   1.416   2.385   2.844
 1219SOL    HW2 4401   1.526   2.462   2.914
 1220SOL     OW 4402   1.843   2.681   2.241
 1220SOL    HW1 4403   1.896   2.630   2.302
 1220SOL    HW2 4404   1.816   2.619   2.173
 1221SOL     OW 4405   0.492   3.279   2.021
 1221SOL    HW1 4406   0.417   3.251   2.073
 1221SOL    HW2 4407   0.474   3.245   1.933
 1222SOL     OW 4408   1.670   3.127   2.508
 1222SOL    HW1 4409   1.764   3.130   2.522
 1222SOL    HW2 4410   1.639   3.215   2.529
 1223SOL     OW 4411   1.394   2.433   1.933
 1223SOL    HW1 4412   1.333   2.415   2.005
 1223SOL    HW2 4413   1.479   2.404   1.965
 1224SOL     OW 4414   0.524   2.125   2.180
 1224SOL    HW1 4415   0.568   2.077   2.110
 1224SOL    HW2 4416   0.503   2.210   2.141
 1225SOL     OW 4417   1.738   3.101   3.432
 1225SOL    HW1 4418   1.824   3.058   3.430
 1225SOL    HW2 4419   1.758   3.192   3.454
 1226SOL     OW 4420   1.059   3.215   3.195
 1226SOL    HW1 4421   0.984   3.184   3.247
 1226SOL    HW2 4422   1.135   3.174   3.236
 1227SOL     OW 4423   1.606   3.489   3.515
 1227SOL    HW1 4424   1.601   3.523   3.426
 1227SOL    HW2 4425   1.685   3.436   3.517
 1228SOL     OW 4426   1.127   3.065   2.967
 1228SOL    HW1 4427   1.069   3.103   3.033
 1228SOL    HW2 4428   1.094   3.098   2.884
 1229SOL     OW 4429   1.629   2.964   2.937
 1229SOL    HW1 4430   1.620   3.022   3.012
 1229SOL    HW2 4431   1.549   2.978   2.886
 1230SOL     OW 4432   0.919   1.958   3.260
 1230SOL    HW1 4433   0.941   1.941   3.168
 1230SOL    HW2 4434   0.998   1.999   3.296
 1231SOL     OW 4435   0.984   2.977   3.584
 1231SOL    HW1 4436   0.892   2.992   3.604
 1231SOL    HW2 4437   0.984   2.899   3.528
 1232SOL     OW 4438   0.707   2.922   2.234
 1232SOL    HW1 4439   0.696   2.906   2.328
 1232SOL    HW2 4440   0.784   2.869   2.211
 1233SOL     OW 4441   0.420   2.680   3.114
 1233SOL    HW1 4442   0.489   2.687   3.180
 1233SOL    HW2 4443   0.385   2.592   3.125
 1234SOL     OW 4444   1.266   2.239   3.136
 1234SOL    HW1 4445   1.299   2.316   3.183
 1234SOL    HW2 4446   1.176   2.262   3.113
 1235SOL     OW 4447   0.101   3.485   3.229
 1235SOL    HW1 4448   0.079   3.495   3.137
 1235SOL    HW2 4449   0.187   3.443   3.229
 1236SOL     OW 4450   0.343   2.967   2.350
 1236SOL    HW1 4451   0.354   3.046   2.297
 1236SOL    HW2 4452   0.354   2.895   2.288
 1237SOL     OW 4453   0.555   2.398   2.721
 1237SOL    HW1 4454   0.571   2.457   2.647
 1237SOL    HW2 4455   0.619   2.425   2.787
 1238SOL     OW 4456   1.248   3.210   2.251
 1238SOL    HW1 4457   1.304   3.282   2.282
 1238SOL    HW2 4458   1.161   3.231   2.285
 1239SOL     OW 4459   1.280   3.319   3.009
 1239SOL    HW1 4460   1.336   3.322   3.086
 1239SOL    HW2 4461   1.225   3.242   3.021
 1240SOL     OW 4462   1.580   2.484   2.339
 1240SOL    HW1 4463   1.536   2.540   2.403
 1240SOL    HW2 4464   1.631   2.545   2.286
 1241SOL     OW 4465   0.351   3.381   3.173
 1241SOL    HW1 4466   0.342   3.338   3.088
 1241SOL    HW2 4467   0.445   3.399   3.180
 1242SOL     OW 4468   0.413   2.604   3.464
 1242SOL    HW1 4469   0.474   2.651   3.406
 1242SOL    HW2 4470   0.454   2.519   3.477
 1243SOL     OW 4471   1.590   2.627   3.530
 1243SOL    HW1 4472   1.502   2.664   3.531
 1243SOL    HW2 4473   1.639   2.683   3.470
 1244SOL     OW 4474   0.996   1.984   3.618
 1244SOL    HW1 4475   1.051   2.057   3.589
 1244SOL    HW2 4476   1.045   1.906   3.591
 1245SOL     OW 4477   0.497   1.904   3.609
 1245SOL    HW1 4478   0.456   1.850   3.542
 1245SOL    HW2 4479   0.437   1.977   3.621
 1246SOL     OW 4480   0.584   2.736   2.894
 1246SOL    HW1 4481   0.616   2.826   2.893
 1246SOL    HW2 4482   0.529   2.730   2.971
 1247SOL     OW 4483   1.358   2.722   2.891
 1247SOL    HW1 4484   1.275   2.712   2.845
 1247SOL    HW2 4485   1.399   2.636   2.888
 1248SOL     OW 4486   1.205   2.390   2.129
 1248SOL    HW1 4487   1.213   2.312   2.184
 1248SOL    HW2 4488   1.163   2.455   2.186
 1249SOL     OW 4489   0.302   2.065   3.110
 1249SOL    HW1 4490   0.267   2.090   3.196
 1249SOL    HW2 4491   0.289   1.971   3.106
 1250SOL     OW 4492   0.070   3.181   3.143
 1250SOL    HW1 4493   0.091   3.121   3.214
 1250SOL    HW2 4494   0.002   3.238   3.178
 1251SOL     OW 4495   0.724   2.493   2.920
 1251SOL    HW1 4496   0.799   2.477   2.863
 1251SOL    HW2 4497   0.697   2.583   2.899
 1252SOL     OW 4498   1.703   2.781   3.742
 1252SOL    HW1 4499   1.652   2.751   3.666
 1252SOL    HW2 4500   1.638   2.810   3.805
 1253SOL     OW 4501   0.327   1.924   2.496
 1253SOL    HW1 4502   0.307   2.013   2.524
 1253SOL    HW2 4503   0.331   1.874   2.578
 1254SOL     OW 4504   1.615   2.235   2.229
 1254SOL    HW1 4505   1.642   2.173   2.296
 1254SOL    HW2 4506   1.592   2.314   2.278
 1255SOL     OW 4507   1.028   2.621   2.823
 1255SOL    HW1 4508   1.025   2.639   2.917
 1255SOL    HW2 4509   1.001   2.529   2.815
 1256SOL     OW 4510   0.981   3.428   3.578
 1256SOL    HW1 4511   0.967   3.472   3.495
 1256SOL    HW2 4512   1.026   3.346   3.555
 1257SOL     OW 4513   1.844   3.356   3.458
 1257SOL    HW1 4514   1.866   3.392   3.372
 1257SOL    HW2 4515   1.918   3.380   3.513
 1258SOL     OW 4516   0.354   2.780   3.668
 1258SOL    HW1 4517   0.435   2.799   3.715
 1258SOL    HW2 4518   0.379   2.715   3.602
 1259SOL     OW 4519   1.531   2.134   1.989
 1259SOL    HW1 4520   1.465   2.070   2.016
 1259SOL    HW2 4521   1.562   2.171   2.072
 1260SOL     OW 4522   1.292   2.688   1.893
 1260SOL    HW1 4523   1.335   2.603   1.897
 1260SOL    HW2 4524   1.323   2.728   1.812
 1261SOL     OW 4525   1.065   3.197   2.715
 1261SOL    HW1 4526   1.069   3.125   2.653
 1261SOL    HW2 4527   1.127   3.262   2.681
 1262SOL     OW 4528   0.314   2.672   2.812
 1262SOL    HW1 4529   0.408   2.691   2.808
 1262SOL    HW2 4530   0.309   2.582   2.844
 1263SOL     OW 4531   0.335   2.387   2.876
 1263SOL    HW1 4532   0.300   2.300   2.862
 1263SOL    HW2 4533   0.410   2.393   2.817
 1264SOL     OW 4534   1.134   2.238   3.544
 1264SOL    HW1 4535   1.087   2.293   3.607
 1264SOL    HW2 4536   1.222   2.275   3.540
 1265SOL     OW 4537   1.161   2.065   3.332
 1265SOL    HW1 4538   1.151   2.128   3.404
 1265SOL    HW2 4539   1.200   2.116   3.261
 1266SOL     OW 4540   0.001   3.192   2.072
 1266SOL    HW1 4541   5.227   3.182   2.013
 1266SOL    HW2 4542   0.012   3.106   2.113
 1267SOL     OW 4543   0.092   3.644   2.812
 1267SOL    HW1 4544   0.059   3.573   2.757
 1267SOL    HW2 4545   0.180   3.662   2.777
 1268SOL     OW 4546   0.505   3.435   2.769
 1268SOL    HW1 4547   0.572   3.500   2.790
 1268SOL    HW2 4548   0.549   3.374   2.710
 1269SOL     OW 4549   0.984   2.654   3.089
 1269SOL    HW1 4550   1.040   2.632   3.163
 1269SOL    HW2 4551   0.898   2.617   3.111
 1270SOL     OW 4552   0.033   2.422   2.977
 1270SOL    HW1 4553   0.120   2.397   2.944
 1270SOL    HW2 4554   0.038   2.405   3.071
 1271SOL     OW 4555   0.175   2.375   3.574
 1271SOL    HW1 4556   0.241   2.340   3.515
 1271SOL    HW2 4557   0.146   2.456   3.532
 1272SOL     OW 4558   1.376   2.801   3.522
 1272SOL    HW1 4559   1.398   2.895   3.520
 1272SOL    HW2 4560   1.375   2.776   3.429
 1273SOL     OW 4561   0.816   2.430   2.221
 1273SOL    HW1 4562   0.820   2.356   2.161
 1273SOL    HW2 4563   0.742   2.483   2.190
 1274SOL     OW 4564   1.643   2.460   3.047
 1274SOL    HW1 4565   1.627   2.403   3.122
 1274SOL    HW2 4566   1.730   2.435   3.016
 1275SOL     OW 4567   0.256   3.418   3.597
 1275SOL    HW1 4568   0.233   3.480   3.666
 1275SOL    HW2 4569   0.249   3.332   3.639
 1276SOL     OW 4570   0.700   2.313   3.122
 1276SOL    HW1 4571   0.648   2.238   3.092
 1276SOL    HW2 4572   0.696   2.376   3.050
 1277SOL     OW 4573   0.929   3.541   3.329
 1277SOL    HW1 4574   0.902   3.507   3.244
 1277SOL    HW2 4575   0.924   3.636   3.320
 1278SOL     OW 4576   0.465   2.355   2.048
 1278SOL    HW1 4577   0.525   2.427   2.069
 1278SOL    HW2 4578   0.380   2.397   2.037
 1279SOL     OW 4579   0.148   3.000   3.333
 1279SOL    HW1 4580   0.147   2.950   3.415
 1279SOL    HW2 4581   0.161   2.933   3.265
 1280SOL     OW 4582   1.325   2.910   3.085
 1280SOL    HW1 4583   1.350   2.847   3.018
 1280SOL    HW2 4584   1.254   2.961   3.045
 1281SOL     OW 4585   1.310   2.719   2.168
 1281SOL    HW1 4586   1.234   2.689   2.218
 1281SOL    HW2 4587   1.286   2.705   2.077
 1282SOL     OW 4588   1.770   3.607   3.011
 1282SOL    HW1 4589   1.831   3.633   2.941
 1282SOL    HW2 4590   1.747   3.517   2.991
 1283SOL     OW 4591   1.241   3.595   2.976
 1283SOL    HW1 4592   1.323   3.615   2.930
 1283SOL    HW2 4593   1.246   3.501   2.994
 1284SOL     OW 4594   0.083   3.081   2.889
 1284SOL    HW1 4595   0.070   3.105   2.981
 1284SOL    HW2 4596   5.294   3.068   2.855
 1285SOL     OW 4597   0.678   3.527   3.590
 1285SOL    HW1 4598   0.623   3.606   3.585
 1285SOL    HW2 4599   0.742   3.538   3.520
 1286SOL     OW 4600   1.719   2.007   2.373
 1286SOL    HW1 4601   1.792   1.993   2.312
 1286SOL    HW2 4602   1.704   1.922   2.412
 1287SOL     OW 4603   1.390   3.430   2.346
 1287SOL    HW1 4604   1.451   3.462   2.279
 1287SOL    HW2 4605   1.342   3.507   2.374
 1288SOL     OW 4606   0.144   3.660   3.705
 1288SOL    HW1 4607   0.090   3.597   3.751
 1288SOL    HW2 4608   0.190   3.708   3.774
 1289SOL     OW 4609   1.277   2.787   2.532
 1289SOL    HW1 4610   1.351   2.726   2.539
 1289SOL    HW2 4611   1.311   2.860   2.480
 1290SOL     OW 4612   0.815   3.135   3.292
 1290SOL    HW1 4613   0.787   3.174   3.375
 1290SOL    HW2 4614   0.745   3.156   3.231
 1291SOL     OW 4615   0.672   3.481   2.017
 1291SOL    HW1 4616   0.682   3.493   1.923
 1291SOL    HW2 4617   0.618   3.402   2.025
 1292SOL     OW 4618   1.627   3.589   3.254
 1292SOL    HW1 4619   1.677   3.595   3.172
 1292SOL    HW2 4620   1.614   3.680   3.281
 1293SOL     OW 4621   1.842   2.034   2.822
 1293SOL    HW1 4622   1.867   1.946   2.796
 1293SOL    HW2 4623   1.755   2.046   2.784
 1294SOL     OW 4624   0.272   2.179   2.580
 1294SOL    HW1 4625   0.188   2.218   2.559
 1294SOL    HW2 4626   0.271   2.168   2.675
 1295SOL     OW 4627   1.207   3.468   1.893
 1295SOL    HW1 4628   1.198   3.377   1.920
 1295SOL    HW2 4629   1.142   3.480   1.824
 1296SOL     OW 4630   0.824   2.867   3.234
 1296SOL    HW1 4631   0.868   2.863   3.149
 1296SOL    HW2 4632   0.824   2.961   3.257
 1297SOL     OW 4633   0.915   2.772   2.151
 1297SOL    HW1 4634   0.976   2.804   2.085
 1297SOL    HW2 4635   0.963   2.703   2.197
 1298SOL     OW 4636   1.492   3.487   1.904
 1298SOL    HW1 4637   1.398   3.481   1.891
 1298SOL    HW2 4638   1.529   3.493   1.816
 1299SOL     OW 4639   0.368   3.166   3.355
 1299SOL    HW1 4640   0.359   3.240   3.296
 1299SOL    HW2 4641   0.292   3.111   3.335
 1300SOL     OW 4642   1.599   3.141   3.141
 1300SOL    HW1 4643   1.669   3.138   3.206
 1300SOL    HW2 4644   1.542   3.212   3.170
 1301SOL     OW 4645   1.051   2.968   2.568
 1301SOL    HW1 4646   0.981   2.917   2.608
 1301SOL    HW2 4647   1.114   2.903   2.537
 1302SOL     OW 4648   1.021   2.102   2.828
 1302SOL    HW1 4649   1.016   2.054   2.745
 1302SOL    HW2 4650   1.016   2.035   2.895
 1303SOL     OW 4651   0.601   3.349   2.343
 1303SOL    HW1 4652   0.645   3.301   2.274
 1303SOL    HW2 4653   0.535   3.402   2.298
 1304SOL     OW 4654   1.718   2.249   3.233
 1304SOL    HW1 4655   1.797   2.302   3.246
 1304SOL    HW2 4656   1.747   2.177   3.178
 1305SOL     OW 4657   0.260   3.210   2.154
 1305SOL    HW1 4658   0.167   3.212   2.131
 1305SOL    HW2 4659   0.264   3.247   2.242
 1306SOL     OW 4660   0.115   2.878   3.580
 1306SOL    HW1 4661   0.045   2.842   3.634
 1306SOL    HW2 4662   0.195   2.847   3.623
 1307SOL     OW 4663   0.674   2.058   3.361
 1307SOL    HW1 4664   0.758   2.039   3.319
 1307SOL    HW2 4665   0.697   2.089   3.448
 1308SOL     OW 4666   0.081   2.213   1.903
 1308SOL    HW1 4667   0.003   2.164   1.879
 1308SOL    HW2 4668   0.098   2.270   1.828
 1309SOL     OW 4669   1.422   2.720   3.264
 1309SOL    HW1 4670   1.375   2.781   3.208
 1309SOL    HW2 4671   1.513   2.724   3.232
 1310SOL     OW 4672   0.055   1.995   2.104
 1310SOL    HW1 4673   0.055   2.091   2.098
 1310SOL    HW2 4674   0.146   1.970   2.084
 1311SOL     OW 4675   1.179   3.202   1.979
 1311SOL    HW1 4676   1.088   3.172   1.982
 1311SOL    HW2 4677   1.207   3.202   2.070
 1312SOL     OW 4678   0.619   2.693   3.297
 1312SOL    HW1 4679   0.675   2.769   3.281
 1312SOL    HW2 4680   0.680   2.619   3.305
 1313SOL     OW 4681   1.484   3.638   2.840
 1313SOL    HW1 4682   1.508   3.697   2.768
 1313SOL    HW2 4683   1.566   3.620   2.885
 1314SOL     OW 4684   0.717   2.427   3.567
 1314SOL    HW1 4685   0.757   2.490   3.626
 1314SOL    HW2 4686   0.747   2.341   3.598
 1315SOL     OW 4687   1.466   3.064   3.495
 1315SOL    HW1 4688   1.456   3.077   3.589
 1315SOL    HW2 4689   1.559   3.079   3.478
 1316SOL     OW 4690   0.379   3.604   3.426
 1316SOL    HW1 4691   0.296   3.650   3.411
 1316SOL    HW2 4692   0.354   3.523   3.471
 1317SOL     OW 4693   1.655   2.747   3.117
 1317SOL    HW1 4694   1.662   2.661   3.075
 1317SOL    HW2 4695   1.654   2.809   3.043
 1318SOL     OW 4696   1.217   2.181   2.320
 1318SOL    HW1 4697   1.280   2.110   2.311
 1318SOL    HW2 4698   1.246   2.230   2.397
 1319SOL     OW 4699   0.591   2.600   2.530
 1319SOL    HW1 4700   0.630   2.686   2.515
 1319SOL    HW2 4701   0.521   2.593   2.465
 1320SOL     OW 4702   1.731   2.235   3.505
 1320SOL    HW1 4703   1.726   2.229   3.409
 1320SOL    HW2 4704   1.674   2.165   3.536
 1321SOL     OW 4705   1.706   2.815   3.381
 1321SOL    HW1 4706   1.711   2.911   3.378
 1321SOL    HW2 4707   1.715   2.788   3.289
 1322SOL     OW 4708   0.862   3.229   1.895
 1322SOL    HW1 4709   0.824   3.258   1.978
 1322SOL    HW2 4710   0.881   3.311   1.848
 1323SOL     OW 4711   0.662   3.656   2.806
 1323SOL    HW1 4712   0.641   3.746   2.783
 1323SOL    HW2 4713   0.758   3.651   2.800
 1324SOL     OW 4714   0.867   2.828   2.717
 1324SOL    HW1 4715   0.918   2.757   2.757
 1324SOL    HW2 4716   0.833   2.878   2.791
 1325SOL     OW 4717   1.078   2.849   1.950
 1325SOL    HW1 4718   1.057   2.901   1.872
 1325SOL    HW2 4719   1.154   2.796   1.925
 1326SOL     OW 4720   1.854   3.417   2.707
 1326SOL    HW1 4721   1.777   3.406   2.651
 1326SOL    HW2 4722   1.843   3.351   2.775
 1327SOL     OW 4723   0.224   3.167   3.721
 1327SOL    HW1 4724   0.157   3.104   3.696
 1327SOL    HW2 4725   0.214   3.177   3.816
 1328SOL     OW 4726   0.087   3.083   2.517
 1328SOL    HW1 4727   0.099   3.050   2.606
 1328SOL    HW2 4728   0.172   3.074   2.476
 1329SOL     OW 4729   0.680   3.264   3.489
 1329SOL    HW1 4730   0.600   3.221   3.520
 1329SOL    HW2 4731   0.676   3.352   3.526
 1330SOL     OW 4732   1.809   2.044   3.089
 1330SOL    HW1 4733   1.823   1.952   3.111
 1330SOL    HW2 4734   1.813   2.046   2.993
 1331SOL     OW 4735   0.434   2.298   2.386
 1331SOL    HW1 4736   0.462   2.225   2.330
 1331SOL    HW2 4737   0.387   2.256   2.458
 1332SOL     OW 4738   1.700   3.351   2.959
 1332SOL    HW1 4739   1.618   3.328   2.914
 1332SOL    HW2 4740   1.712   3.282   3.023
 1333SOL     OW 4741   0.335   2.421   3.153
 1333SOL    HW1 4742   0.389   2.362   3.207
 1333SOL    HW2 4743   0.350   2.391   3.063
 1334SOL     OW 4744   0.828   3.439   2.540
 1334SOL    HW1 4745   0.816   3.492   2.461
 1334SOL    HW2 4746   0.750   3.383   2.543
 1335SOL     OW 4747   1.432   2.086   2.980
 1335SOL    HW1 4748   1.458   2.008   3.028
 1335SOL    HW2 4749   1.380   2.136   3.043
 1336SOL     OW 4750   1.009   1.881   3.005
 1336SOL    HW1 4751   0.954   1.813   2.965
 1336SOL    HW2 4752   1.097   1.843   3.007
 1337SOL     OW 4753   0.771   3.194   2.176
 1337SOL    HW1 4754   0.741   3.104   2.182
 1337SOL    HW2 4755   0.854   3.195   2.225
 1338SOL     OW 4756   0.622   3.419   3.149
 1338SOL    HW1 4757   0.624   3.501   3.198
 1338SOL    HW2 4758   0.709   3.412   3.109
 1339SOL     OW 4759   1.352   1.916   2.027
 1339SOL    HW1 4760   1.379   1.853   1.960
 1339SOL    HW2 4761   1.265   1.886   2.053
 1340SOL     OW 4762   1.296   2.322   2.543
 1340SOL    HW1 4763   1.244   2.402   2.551
 1340SOL    HW2 4764   1.293   2.283   2.630
 1341SOL     OW 4765   1.587   2.066   2.740
 1341SOL    HW1 4766   1.525   2.085   2.810
 1341SOL    HW2 4767   1.586   2.144   2.685
 1342SOL     OW 4768   0.048   2.931   2.152
 1342SOL    HW1 4769   0.137   2.899   2.141
 1342SOL    HW2 4770   5.300   2.855   2.187
 1343SOL     OW 4771   0.884   3.513   2.204
 1343SOL    HW1 4772   0.811   3.497   2.144
 1343SOL    HW2 4773   0.856   3.589   2.256
 1344SOL     OW 4774   0.233   2.495   3.840
 1344SOL    HW1 4775   0.159   2.462   3.891
 1344SOL    HW2 4776   0.219   2.459   3.752
 1345SOL     OW 4777   0.241   2.138   4.714
 1345SOL    HW1 4778   0.255   2.103   4.802
 1345SOL    HW2 4779   0.157   2.100   4.687
 1346SOL     OW 4780   5.299   2.259   4.377
 1346SOL    HW1 4781   5.206   2.282   4.383
 1346SOL    HW2 4782   5.299   2.169   4.346
 1347SOL     OW 4783   0.573   3.145   4.904
 1347SOL    HW1 4784   0.490   3.153   4.857
 1347SOL    HW2 4785   0.590   3.233   4.939
 1348SOL     OW 4786   1.558   3.375   4.431
 1348SOL    HW1 4787   1.515   3.354   4.514
 1348SOL    HW2 4788   1.487   3.379   4.367
 1349SOL     OW 4789   1.129   2.561   4.425
 1349SOL    HW1 4790   1.179   2.640   4.411
 1349SOL    HW2 4791   1.083   2.576   4.508
 1350SOL     OW 4792   1.746   2.465   3.962
 1350SOL    HW1 4793   1.740   2.458   3.867
 1350SOL    HW2 4794   1.718   2.379   3.994
 1351SOL     OW 4795   0.756   3.004   4.762
 1351SOL    HW1 4796   0.689   3.038   4.821
 1351SOL    HW2 4797   0.791   3.081   4.719
 1352SOL     OW 4798   0.865   2.638   5.545
 1352SOL    HW1 4799   0.856   2.710   5.608
 1352SOL    HW2 4800   0.889   2.681   5.463
 1353SOL     OW 4801   0.685   2.865   4.372
 1353SOL    HW1 4802   0.751   2.853   4.440
 1353SOL    HW2 4803   0.617   2.918   4.414
 1354SOL     OW 4804   0.709   3.013   5.536
 1354SOL    HW1 4805   0.757   3.091   5.562
 1354SOL    HW2 4806   0.627   3.046   5.500
 1355SOL     OW 4807   0.358   3.267   4.784
 1355SOL    HW1 4808   0.270   3.266   4.745
 1355SOL    HW2 4809   0.407   3.330   4.730
 1356SOL     OW 4810   1.462   3.363   5.078
 1356SOL    HW1 4811   1.510   3.445   5.089
 1356SOL    HW2 4812   1.401   3.361   5.152
 1357SOL     OW 4813   0.450   2.262   5.218
 1357SOL    HW1 4814   0.524   2.202   5.219
 1357SOL    HW2 4815   0.373   2.206   5.226
 1358SOL     OW 4816   1.606   2.307   4.462
 1358SOL    HW1 4817   1.534   2.336   4.405
 1358SOL    HW2 4818   1.626   2.384   4.516
 1359SOL     OW 4819   0.230   3.576   4.201
 1359SOL    HW1 4820   0.265   3.645   4.259
 1359SOL    HW2 4821   0.292   3.573   4.129
 1360SOL     OW 4822   1.136   3.204   5.417
 1360SOL    HW1 4823   1.177   3.198   5.503
 1360SOL    HW2 4824   1.084   3.124   5.410
 1361SOL     OW 4825   0.222   3.306   4.263
 1361SOL    HW1 4826   0.214   3.401   4.260
 1361SOL    HW2 4827   0.153   3.277   4.322
 1362SOL     OW 4828   0.249   2.940   4.599
 1362SOL    HW1 4829   0.260   2.855   4.643
 1362SOL    HW2 4830   0.198   2.992   4.662
 1363SOL     OW 4831   0.614   3.652   5.157
 1363SOL    HW1 4832   0.530   3.635   5.199
 1363SOL    HW2 4833   0.635   3.743   5.179
 1364SOL     OW 4834   0.584   2.845   3.859
 1364SOL    HW1 4835   0.629   2.893   3.789
 1364SOL    HW2 4836   0.626   2.874   3.940
 1365SOL     OW 4837   1.595   1.983   5.194
 1365SOL    HW1 4838   1.600   2.062   5.140
 1365SOL    HW2 4839   1.582   2.016   5.283
 1366SOL     OW 4840   0.125   2.497   4.302
 1366SOL    HW1 4841   0.089   2.413   4.331
 1366SOL    HW2 4842   0.098   2.559   4.370
 1367SOL     OW 4843   1.840   3.623   4.062
 1367SOL    HW1 4844   1.905   3.593   4.125
 1367SOL    HW2 4845   1.867   3.713   4.042
 1368SOL     OW 4846   0.037   3.461   3.855
 1368SOL    HW1 4847   0.024   3.369   3.880
 1368SOL    HW2 4848   5.284   3.510   3.917
 1369SOL     OW 4849   1.681   2.760   4.349
 1369SOL    HW1 4850   1.776   2.771   4.356
 1369SOL    HW2 4851   1.654   2.823   4.283
 1370SOL     OW 4852   1.644   2.969   4.157
 1370SOL    HW1 4853   1.729   2.973   4.114
 1370SOL    HW2 4854   1.652   3.030   4.231
 1371SOL     OW 4855   0.130   2.610   5.310
 1371SOL    HW1 4856   0.225   2.624   5.313
 1371SOL    HW2 4857   0.093   2.697   5.324
 1372SOL     OW 4858   0.615   3.247   4.459
 1372SOL    HW1 4859   0.567   3.164   4.469
 1372SOL    HW2 4860   0.597   3.273   4.368
 1373SOL     OW 4861   1.289   3.101   5.148
 1373SOL    HW1 4862   1.321   3.035   5.087
 1373SOL    HW2 4863   1.347   3.094   5.224
 1374SOL     OW 4864   0.822   1.861   4.233
 1374SOL    HW1 4865   0.862   1.945   4.214
 1374SOL    HW2 4866   0.728   1.880   4.239
 1375SOL     OW 4867   0.178   2.809   5.002
 1375SOL    HW1 4868   0.269   2.780   4.992
 1375SOL    HW2 4869   0.135   2.782   4.921
 1376SOL     OW 4870   1.519   2.861   3.929
 1376SOL    HW1 4871   1.453   2.803   3.965
 1376SOL    HW2 4872   1.568   2.892   4.005
 1377SOL     OW 4873   1.186   3.668   5.346
 1377SOL    HW1 4874   1.196   3.726   5.271
 1377SOL    HW2 4875   1.201   3.580   5.311
 1378SOL     OW 4876   0.335   2.115   5.539
 1378SOL    HW1 4877   0.383   2.197   5.551
 1378SOL    HW2 4878   0.248   2.132   5.575
 1379SOL     OW 4879   1.466   3.283   4.676
 1379SOL    HW1 4880   1.398   3.297   4.742
 1379SOL    HW2 4881   1.455   3.192   4.649
 1380SOL     OW 4882   1.657   3.601   4.304
 1380SOL    HW1 4883   1.642   3.573   4.214
 1380SOL    HW2 4884   1.631   3.526   4.357
 1381SOL     OW 4885   0.595   2.583   3.989
 1381SOL    HW1 4886   0.604   2.664   3.938
 1381SOL    HW2 4887   0.531   2.604   4.057
 1382SOL     OW 4888   1.279   2.215   4.657
 1382SOL    HW1 4889   1.190   2.181   4.665
 1382SOL    HW2 4890   1.330   2.161   4.718
 1383SOL     OW 4891   1.580   3.533   4.033
 1383SOL    HW1 4892   1.671   3.563   4.027
 1383SOL    HW2 4893   1.555   3.514   3.943
 1384SOL     OW 4894   0.792   2.479   5.176
 1384SOL    HW1 4895   0.765   2.456   5.265
 1384SOL    HW2 4896   0.751   2.413   5.120
 1385SOL     OW 4897   1.393   2.336   5.402
 1385SOL    HW1 4898   1.396   2.381   5.486
 1385SOL    HW2 4899   1.455   2.264   5.411
 1386SOL     OW 4900   0.955   2.749   5.306
 1386SOL    HW1 4901   1.010   2.679   5.271
 1386SOL    HW2 4902   0.908   2.783   5.230
 1387SOL     OW 4903   0.992   2.274   4.963
 1387SOL    HW1 4904   0.907   2.296   5.000
 1387SOL    HW2 4905   0.972   2.228   4.882
 1388SOL     OW 4906   1.050   2.561   4.150
 1388SOL    HW1 4907   1.066   2.554   4.244
 1388SOL    HW2 4908   0.968   2.513   4.137
 1389SOL     OW 4909   0.072   2.649   4.536
 1389SOL    HW1 4910   0.154   2.654   4.585
 1389SOL    HW2 4911   0.062   2.735   4.496
 1390SOL     OW 4912   0.131   3.744   5.308
 1390SOL    HW1 4913   0.133   3.714   5.399
 1390SOL    HW2 4914   0.058   3.696   5.268
 1391SOL     OW 4915   0.891   2.210   3.918
 1391SOL    HW1 4916   0.933   2.272   3.858
 1391SOL    HW2 4917   0.910   2.124   3.880
 1392SOL     OW 4918   1.706   2.436   5.552
 1392SOL    HW1 4919   1.672   2.512   5.505
 1392SOL    HW2 4920   1.737   2.377   5.484
 1393SOL     OW 4921   1.377   3.004   4.265
 1393SOL    HW1 4922   1.457   2.991   4.213
 1393SOL    HW2 4923   1.325   3.066   4.214
 1394SOL     OW 4924   0.554   2.045   4.617
 1394SOL    HW1 4925   0.552   2.073   4.709
 1394SOL    HW2 4926   0.552   2.127   4.567
 1395SOL     OW 4927   1.006   3.306   4.197
 1395SOL    HW1 4928   0.968   3.379   4.147
 1395SOL    HW2 4929   0.990   3.328   4.288
 1396SOL     OW 4930   0.357   3.664   4.593
 1396SOL    HW1 4931   0.397   3.578   4.606
 1396SOL    HW2 4932   0.423   3.727   4.621
 1397SOL     OW 4933   1.228   3.401   5.237
 1397SOL    HW1 4934   1.214   3.328   5.297
 1397SOL    HW2 4935   1.166   3.386   5.166
 1398SOL     OW 4936   0.316   2.814   3.971
 1398SOL    HW1 4937   0.398   2.838   3.927
 1398SOL    HW2 4938   0.293   2.729   3.934
 1399SOL     OW 4939   1.471   2.604   4.454
 1399SOL    HW1 4940   1.471   2.562   4.540
 1399SOL    HW2 4941   1.552   2.656   4.453
 1400SOL     OW 4942   0.464   3.126   5.462
 1400SOL    HW1 4943   0.438   3.132   5.370
 1400SOL    HW2 4944   0.382   3.126   5.511
 1401SOL     OW 4945   1.121   3.640   3.955
 1401SOL    HW1 4946   1.049   3.597   4.001
 1401SOL    HW2 4947   1.144   3.579   3.885
 1402SOL     OW 4948   0.205   2.143   5.221
 1402SOL    HW1 4949   0.125   2.194   5.206
 1402SOL    HW2 4950   0.174   2.065   5.267
 1403SOL     OW 4951   1.629   3.241   3.805
 1403SOL    HW1 4952   1.586   3.326   3.795
 1403SOL    HW2 4953   1.558   3.178   3.790
 1404SOL     OW 4954   0.471   3.597   4.044
 1404SOL    HW1 4955   0.513   3.655   4.107
 1404SOL    HW2 4956   0.542   3.567   3.988
 1405SOL     OW 4957   1.404   1.969   4.157
 1405SOL    HW1 4958   1.393   1.945   4.065
 1405SOL    HW2 4959   1.499   1.974   4.169
 1406SOL     OW 4960   0.275   3.663   4.939
 1406SOL    HW1 4961   0.307   3.586   4.986
 1406SOL    HW2 4962   0.226   3.627   4.865
 1407SOL     OW 4963   0.939   3.560   4.623
 1407SOL    HW1 4964   1.017   3.508   4.643
 1407SOL    HW2 4965   0.894   3.511   4.555
 1408SOL     OW 4966   0.386   2.558   4.203
 1408SOL    HW1 4967   0.415   2.468   4.211
 1408SOL    HW2 4968   0.292   2.555   4.224
 1409SOL     OW 4969   1.535   2.088   5.449
 1409SOL    HW1 4970   1.545   2.109   5.542
 1409SOL    HW2 4971   1.467   2.021   5.447
 1410SOL     OW 4972   0.631   1.984   3.831
 1410SOL    HW1 4973   0.704   1.924   3.841
 1410SOL    HW2 4974   0.585   1.953   3.753
 1411SOL     OW 4975   0.767   2.140   5.477
 1411SOL    HW1 4976   0.842   2.080   5.480
 1411SOL    HW2 4977   0.718   2.120   5.557
 1412SOL     OW 4978   0.877   3.383   4.918
 1412SOL    HW1 4979   0.861   3.348   4.830
 1412SOL    HW2 4980   0.947   3.329   4.954
 1413SOL     OW 4981   1.342   2.451   5.155
 1413SOL    HW1 4982   1.372   2.420   5.241
 1413SOL    HW2 4983   1.376   2.540   5.148
 1414SOL     OW 4984   0.815   3.257   4.663
 1414SOL    HW1 4985   0.899   3.246   4.619
 1414SOL    HW2 4986   0.751   3.258   4.592
 1415SOL     OW 4987   0.927   2.371   4.628
 1415SOL    HW1 4988   0.904   2.363   4.535
 1415SOL    HW2 4989   0.959   2.284   4.652
 1416SOL     OW 4990   0.560   1.923   4.220
 1416SOL    HW1 4991   0.485   1.924   4.280
 1416SOL    HW2 4992   0.549   2.003   4.168
 1417SOL     OW 4993   1.426   3.061   3.765
 1417SOL    HW1 4994   1.456   2.988   3.818
 1417SOL    HW2 4995   1.340   3.084   3.802
 1418SOL     OW 4996   0.305   1.909   3.904
 1418SOL    HW1 4997   0.368   1.973   3.868
 1418SOL    HW2 4998   0.360   1.844   3.948
 1419SOL     OW 4999   0.939   2.108   4.184
 1419SOL    HW1 5000   0.912   2.150   4.103
 1419SOL    HW2 5001   1.034   2.122   4.188
 1420SOL     OW 5002   1.080   2.542   5.184
 1420SOL    HW1 5003   1.011   2.476   5.188
 1420SOL    HW2 5004   1.161   2.492   5.176
 1421SOL     OW 5005   1.223   3.432   4.518
 1421SOL    HW1 5006   1.240   3.499   4.452
 1421SOL    HW2 5007   1.292   3.444   4.583
 1422SOL     OW 5008   0.467   3.012   4.456
 1422SOL    HW1 5009   0.398   2.992   4.519
 1422SOL    HW2 5010   0.427   2.993   4.371
 1423SOL     OW 5011   1.270   3.656   4.332
 1423SOL    HW1 5012   1.315   3.718   4.274
 1423SOL    HW2 5013   1.203   3.710   4.375
 1424SOL     OW 5014   1.023   2.404   3.747
 1424SOL    HW1 5015   0.982   2.488   3.726
 1424SOL    HW2 5016   1.090   2.425   3.812
 1425SOL     OW 5017   0.087   2.408   5.122
 1425SOL    HW1 5018   0.175   2.415   5.085
 1425SOL    HW2 5019   0.080   2.484   5.180
 1426SOL     OW 5020   0.560   2.089   4.890
 1426SOL    HW1 5021   0.598   2.009   4.926
 1426SOL    HW2 5022   0.469   2.088   4.918
 1427SOL     OW 5023   0.867   2.321   4.364
 1427SOL    HW1 5024   0.823   2.375   4.299
 1427SOL    HW2 5025   0.889   2.240   4.317
 1428SOL     OW 5026   1.015   1.915   4.476
 1428SOL    HW1 5027   0.957   1.907   4.401
 1428SOL    HW2 5028   0.993   1.839   4.531
 1429SOL     OW 5029   1.437   3.028   4.581
 1429SOL    HW1 5030   1.371   2.958   4.583
 1429SOL    HW2 5031   1.462   3.034   4.489
 1430SOL     OW 5032   1.469   2.466   4.702
 1430SOL    HW1 5033   1.418   2.385   4.705
 1430SOL    HW2 5034   1.531   2.458   4.775
 1431SOL     OW 5035   1.839   2.691   4.071
 1431SOL    HW1 5036   1.853   2.657   4.159
 1431SOL    HW2 5037   1.812   2.615   4.020
 1432SOL     OW 5038   0.492   3.279   3.883
 1432SOL    HW1 5039   0.417   3.251   3.935
 1432SOL    HW2 5040   0.475   3.245   3.795
 1433SOL     OW 5041   1.671   3.131   4.372
 1433SOL    HW1 5042   1.765   3.146   4.382
 1433SOL    HW2 5043   1.632   3.217   4.390
 1434SOL     OW 5044   1.393   2.436   3.794
 1434SOL    HW1 5045   1.336   2.413   3.868
 1434SOL    HW2 5046   1.480   2.409   3.821
 1435SOL     OW 5047   0.524   2.125   4.042
 1435SOL    HW1 5048   0.568   2.077   3.972
 1435SOL    HW2 5049   0.503   2.210   4.003
 1436SOL     OW 5050   1.752   3.096   5.307
 1436SOL    HW1 5051   1.834   3.051   5.329
 1436SOL    HW2 5052   1.768   3.188   5.329
 1437SOL     OW 5053   1.059   3.215   5.058
 1437SOL    HW1 5054   0.984   3.184   5.109
 1437SOL    HW2 5055   1.135   3.174   5.099
 1438SOL     OW 5056   1.608   3.488   5.378
 1438SOL    HW1 5057   1.603   3.522   5.288
 1438SOL    HW2 5058   1.690   3.439   5.381
 1439SOL     OW 5059   1.128   3.065   4.830
 1439SOL    HW1 5060   1.069   3.104   4.895
 1439SOL    HW2 5061   1.095   3.097   4.746
 1440SOL     OW 5062   1.629   2.948   4.803
 1440SOL    HW1 5063   1.619   3.016   4.870
 1440SOL    HW2 5064   1.566   2.972   4.735
 1441SOL     OW 5065   0.919   1.959   5.122
 1441SOL    HW1 5066   0.940   1.940   5.030
 1441SOL    HW2 5067   0.998   1.999   5.158
 1442SOL     OW 5068   0.984   2.976   5.447
 1442SOL    HW1 5069   0.892   2.992   5.466
 1442SOL    HW2 5070   0.984   2.899   5.391
 1443SOL     OW 5071   0.707   2.922   4.096
 1443SOL    HW1 5072   0.696   2.906   4.190
 1443SOL    HW2 5073   0.784   2.869   4.072
 1444SOL     OW 5074   0.420   2.680   4.976
 1444SOL    HW1 5075   0.489   2.687   5.042
 1444SOL    HW2 5076   0.385   2.592   4.987
 1445SOL     OW 5077   1.266   2.239   5.000
 1445SOL    HW1 5078   1.298   2.317   5.045
 1445SOL    HW2 5079   1.176   2.261   4.975
 1446SOL     OW 5080   0.101   3.485   5.091
 1446SOL    HW1 5081   0.079   3.494   4.999
 1446SOL    HW2 5082   0.187   3.443   5.091
 1447SOL     OW 5083   0.343   2.967   4.212
 1447SOL    HW1 5084   0.354   3.046   4.159
 1447SOL    HW2 5085   0.354   2.895   4.150
 1448SOL     OW 5086   0.555   2.398   4.583
 1448SOL    HW1 5087   0.571   2.457   4.509
 1448SOL    HW2 5088   0.619   2.425   4.649
 1449SOL     OW 5089   1.248   3.210   4.113
 1449SOL    HW1 5090   1.304   3.282   4.144
 1449SOL    HW2 5091   1.161   3.231   4.147
 1450SOL     OW 5092   1.280   3.320   4.871
 1450SOL    HW1 5093   1.336   3.321   4.949
 1450SOL    HW2 5094   1.226   3.241   4.882
 1451SOL     OW 5095   1.581   2.484   4.207
 1451SOL    HW1 5096   1.541   2.546   4.268
 1451SOL    HW2 5097   1.619   2.538   4.138
 1452SOL     OW 5098   0.351   3.381   5.035
 1452SOL    HW1 5099   0.342   3.338   4.950
 1452SOL    HW2 5100   0.445   3.399   5.042
 1453SOL     OW 5101   0.413   2.605   5.326
 1453SOL    HW1 5102   0.474   2.651   5.268
 1453SOL    HW2 5103   0.454   2.519   5.339
 1454SOL     OW 5104   1.601   2.642   5.405
 1454SOL    HW1 5105   1.516   2.683   5.396
 1454SOL    HW2 5106   1.654   2.681   5.336
 1455SOL     OW 5107   0.996   1.984   5.480
 1455SOL    HW1 5108   1.051   2.057   5.451
 1455SOL    HW2 5109   1.044   1.906   5.453
 1456SOL     OW 5110   0.497   1.904   5.471
 1456SOL    HW1 5111   0.456   1.850   5.404
 1456SOL    HW2 5112   0.437   1.977   5.483
 1457SOL     OW 5113   0.584   2.736   4.756
 1457SOL    HW1 5114   0.617   2.826   4.755
 1457SOL    HW2 5115   0.529   2.731   4.833
 1458SOL     OW 5116   1.357   2.720   4.755
 1458SOL    HW1 5117   1.275   2.711   4.706
 1458SOL    HW2 5118   1.398   2.633   4.749
 1459SOL     OW 5119   1.205   2.390   3.992
 1459SOL    HW1 5120   1.213   2.312   4.047
 1459SOL    HW2 5121   1.164   2.455   4.048
 1460SOL     OW 5122   0.302   2.065   4.972
 1460SOL    HW1 5123   0.267   2.090   5.058
 1460SOL    HW2 5124   0.289   1.971   4.968
 1461SOL     OW 5125   0.070   3.181   5.005
 1461SOL    HW1 5126   0.091   3.121   5.076
 1461SOL    HW2 5127   0.002   3.238   5.040
 1462SOL     OW 5128   0.724   2.493   4.782
 1462SOL    HW1 5129   0.799   2.476   4.725
 1462SOL    HW2 5130   0.697   2.583   4.761
 1463SOL     OW 5131   1.733   2.824   5.573
 1463SOL    HW1 5132   1.688   2.760   5.518
 1463SOL    HW2 5133   1.674   2.835   5.649
 1464SOL     OW 5134   0.327   1.924   4.358
 1464SOL    HW1 5135   0.307   2.013   4.386
 1464SOL    HW2 5136   0.331   1.874   4.440
 1465SOL     OW 5137   1.616   2.238   4.088
 1465SOL    HW1 5138   1.634   2.169   4.151
 1465SOL    HW2 5139   1.594   2.314   4.141
 1466SOL     OW 5140   1.027   2.621   4.685
 1466SOL    HW1 5141   1.025   2.639   4.779
 1466SOL    HW2 5142   1.001   2.529   4.677
 1467SOL     OW 5143   0.981   3.428   5.440
 1467SOL    HW1 5144   0.967   3.472   5.357
 1467SOL    HW2 5145   1.026   3.346   5.417
 1468SOL     OW 5146   1.856   3.367   5.328
 1468SOL    HW1 5147   1.874   3.399   5.239
 1468SOL    HW2 5148   1.935   3.387   5.377
 1469SOL     OW 5149   0.354   2.780   5.530
 1469SOL    HW1 5150   0.435   2.799   5.577
 1469SOL    HW2 5151   0.379   2.715   5.464
 1470SOL     OW 5152   1.528   2.133   3.850
 1470SOL    HW1 5153   1.464   2.069   3.879
 1470SOL    HW2 5154   1.561   2.172   3.931
 1471SOL     OW 5155   1.291   2.689   3.756
 1471SOL    HW1 5156   1.334   2.603   3.759
 1471SOL    HW2 5157   1.322   2.728   3.674
 1472SOL     OW 5158   1.065   3.197   4.577
 1472SOL    HW1 5159   1.069   3.125   4.515
 1472SOL    HW2 5160   1.127   3.261   4.543
 1473SOL     OW 5161   0.314   2.672   4.674
 1473SOL    HW1 5162   0.408   2.691   4.670
 1473SOL    HW2 5163   0.309   2.582   4.706
 1474SOL     OW 5164   0.335   2.388   4.738
 1474SOL    HW1 5165   0.300   2.300   4.724
 1474SOL    HW2 5166   0.410   2.393   4.679
 1475SOL     OW 5167   1.134   2.238   5.406
 1475SOL    HW1 5168   1.087   2.293   5.468
 1475SOL    HW2 5169   1.222   2.276   5.402
 1476SOL     OW 5170   1.161   2.065   5.194
 1476SOL    HW1 5171   1.150   2.128   5.266
 1476SOL    HW2 5172   1.200   2.116   5.123
 1477SOL     OW 5173   0.001   3.192   3.934
 1477SOL    HW1 5174   5.227   3.182   3.875
 1477SOL    HW2 5175   0.012   3.106   3.975
 1478SOL     OW 5176   0.092   3.644   4.674
 1478SOL    HW1 5177   0.059   3.573   4.619
 1478SOL    HW2 5178   0.180   3.662   4.639
 1479SOL     OW 5179   0.505   3.435   4.631
 1479SOL    HW1 5180   0.572   3.500   4.652
 1479SOL    HW2 5181   0.549   3.374   4.572
 1480SOL     OW 5182   0.984   2.654   4.951
 1480SOL    HW1 5183   1.040   2.632   5.025
 1480SOL    HW2 5184   0.898   2.617   4.973
 1481SOL     OW 5185   0.033   2.422   4.839
 1481SOL    HW1 5186   0.119   2.397   4.806
 1481SOL    HW2 5187   0.038   2.405   4.933
 1482SOL     OW 5188   0.175   2.375   5.436
 1482SOL    HW1 5189   0.241   2.339   5.376
 1482SOL    HW2 5190   0.146   2.456   5.394
 1483SOL     OW 5191   1.376   2.802   5.382
 1483SOL    HW1 5192   1.397   2.895   5.381
 1483SOL    HW2 5193   1.374   2.776   5.290
 1484SOL     OW 5194   0.815   2.430   4.084
 1484SOL    HW1 5195   0.820   2.356   4.023
 1484SOL    HW2 5196   0.742   2.482   4.052
 1485SOL     OW 5197   1.651   2.457   4.907
 1485SOL    HW1 5198   1.630   2.402   4.983
 1485SOL    HW2 5199   1.746   2.447   4.896
 1486SOL     OW 5200   0.256   3.418   5.459
 1486SOL    HW1 5201   0.233   3.480   5.528
 1486SOL    HW2 5202   0.249   3.332   5.501
 1487SOL     OW 5203   0.700   2.313   4.984
 1487SOL    HW1 5204   0.648   2.239   4.954
 1487SOL    HW2 5205   0.696   2.376   4.912
 1488SOL     OW 5206   0.928   3.541   5.192
 1488SOL    HW1 5207   0.902   3.507   5.106
 1488SOL    HW2 5208   0.924   3.636   5.182
 1489SOL     OW 5209   0.465   2.355   3.910
 1489SOL    HW1 5210   0.525   2.427   3.931
 1489SOL    HW2 5211   0.380   2.398   3.899
 1490SOL     OW 5212   0.148   3.000   5.195
 1490SOL    HW1 5213   0.147   2.950   5.277
 1490SOL    HW2 5214   0.161   2.933   5.127
 1491SOL     OW 5215   1.323   2.908   4.950
 1491SOL    HW1 5216   1.352   2.848   4.881
 1491SOL    HW2 5217   1.254   2.960   4.909
 1492SOL     OW 5218   1.309   2.716   4.032
 1492SOL    HW1 5219   1.232   2.686   4.080
 1492SOL    HW2 5220   1.286   2.703   3.940
 1493SOL     OW 5221   1.770   3.605   4.874
 1493SOL    HW1 5222   1.830   3.632   4.804
 1493SOL    HW2 5223   1.747   3.515   4.852
 1494SOL     OW 5224   1.241   3.595   4.839
 1494SOL    HW1 5225   1.323   3.615   4.792
 1494SOL    HW2 5226   1.246   3.501   4.856
 1495SOL     OW 5227   0.083   3.081   4.751
 1495SOL    HW1 5228   0.070   3.105   4.843
 1495SOL    HW2 5229   5.294   3.068   4.717
 1496SOL     OW 5230   0.678   3.527   5.452
 1496SOL    HW1 5231   0.623   3.606   5.447
 1496SOL    HW2 5232   0.742   3.538   5.382
 1497SOL     OW 5233   1.694   1.989   4.210
 1497SOL    HW1 5234   1.774   1.980   4.158
 1497SOL    HW2 5235   1.688   1.907   4.259
 1498SOL     OW 5236   1.390   3.430   4.209
 1498SOL    HW1 5237   1.451   3.461   4.142
 1498SOL    HW2 5238   1.342   3.508   4.236
 1499SOL     OW 5239   0.144   3.660   5.567
 1499SOL    HW1 5240   0.090   3.597   5.613
 1499SOL    HW2 5241   0.190   3.708   5.636
 1500SOL     OW 5242   1.275   2.788   4.394
 1500SOL    HW1 5243   1.348   2.727   4.402
 1500SOL    HW2 5244   1.311   2.860   4.342
 1501SOL     OW 5245   0.815   3.134   5.155
 1501SOL    HW1 5246   0.787   3.174   5.237
 1501SOL    HW2 5247   0.746   3.156   5.093
 1502SOL     OW 5248   0.672   3.481   3.879
 1502SOL    HW1 5249   0.682   3.493   3.785
 1502SOL    HW2 5250   0.618   3.403   3.887
 1503SOL     OW 5251   1.629   3.589   5.116
 1503SOL    HW1 5252   1.677   3.597   5.034
 1503SOL    HW2 5253   1.615   3.680   5.144
 1504SOL     OW 5254   1.844   2.041   4.695
 1504SOL    HW1 5255   1.878   1.956   4.665
 1504SOL    HW2 5256   1.761   2.051   4.648
 1505SOL     OW 5257   0.272   2.179   4.442
 1505SOL    HW1 5258   0.188   2.218   4.421
 1505SOL    HW2 5259   0.271   2.168   4.537
 1506SOL     OW 5260   1.206   3.469   3.755
 1506SOL    HW1 5261   1.198   3.377   3.782
 1506SOL    HW2 5262   1.142   3.480   3.686
 1507SOL     OW 5263   0.824   2.867   5.096
 1507SOL    HW1 5264   0.868   2.863   5.011
 1507SOL    HW2 5265   0.824   2.960   5.118
 1508SOL     OW 5266   0.915   2.772   4.013
 1508SOL    HW1 5267   0.976   2.804   3.947
 1508SOL    HW2 5268   0.963   2.703   4.059
 1509SOL     OW 5269   1.492   3.487   3.767
 1509SOL    HW1 5270   1.397   3.481   3.753
 1509SOL    HW2 5271   1.528   3.494   3.679
 1510SOL     OW 5272   0.367   3.166   5.217
 1510SOL    HW1 5273   0.359   3.240   5.158
 1510SOL    HW2 5274   0.292   3.111   5.197
 1511SOL     OW 5275   1.598   3.140   4.996
 1511SOL    HW1 5276   1.678   3.141   5.049
 1511SOL    HW2 5277   1.545   3.211   5.032
 1512SOL     OW 5278   1.050   2.968   4.429
 1512SOL    HW1 5279   0.981   2.916   4.469
 1512SOL    HW2 5280   1.114   2.904   4.399
 1513SOL     OW 5281   1.021   2.102   4.690
 1513SOL    HW1 5282   1.016   2.055   4.607
 1513SOL    HW2 5283   1.016   2.034   4.757
 1514SOL     OW 5284   0.601   3.349   4.205
 1514SOL    HW1 5285   0.646   3.301   4.136
 1514SOL    HW2 5286   0.535   3.401   4.160
 1515SOL     OW 5287   1.729   2.256   5.106
 1515SOL    HW1 5288   1.796   2.323   5.089
 1515SOL    HW2 5289   1.753   2.183   5.050
 1516SOL     OW 5290   0.260   3.210   4.016
 1516SOL    HW1 5291   0.167   3.212   3.993
 1516SOL    HW2 5292   0.264   3.247   4.104
 1517SOL     OW 5293   0.115   2.878   5.442
 1517SOL    HW1 5294   0.044   2.842   5.496
 1517SOL    HW2 5295   0.195   2.847   5.485
 1518SOL     OW 5296   0.674   2.058   5.223
 1518SOL    HW1 5297   0.758   2.039   5.181
 1518SOL    HW2 5298   0.697   2.089   5.310
 1519SOL     OW 5299   0.081   2.214   3.766
 1519SOL    HW1 5300   0.003   2.164   3.741
 1519SOL    HW2 5301   0.098   2.270   3.690
 1520SOL     OW 5302   1.430   2.720   5.125
 1520SOL    HW1 5303   1.380   2.781   5.070
 1520SOL    HW2 5304   1.519   2.724   5.089
 1521SOL     OW 5305   0.055   1.995   3.966
 1521SOL    HW1 5306   0.055   2.091   3.960
 1521SOL    HW2 5307   0.146   1.970   3.946
 1522SOL     OW 5308   1.179   3.202   3.841
 1522SOL    HW1 5309   1.089   3.171   3.844
 1522SOL    HW2 5310   1.208   3.202   3.932
 1523SOL     OW 5311   0.619   2.693   5.159
 1523SOL    HW1 5312   0.675   2.769   5.143
 1523SOL    HW2 5313   0.680   2.619   5.167
 1524SOL     OW 5314   1.484   3.639   4.702
 1524SOL    HW1 5315   1.507   3.696   4.629
 1524SOL    HW2 5316   1.566   3.622   4.747
 1525SOL     OW 5317   0.717   2.427   5.429
 1525SOL    HW1 5318   0.757   2.490   5.489
 1525SOL    HW2 5319   0.747   2.341   5.460
 1526SOL     OW 5320   1.470   3.063   5.357
 1526SOL    HW1 5321   1.459   3.076   5.451
 1526SOL    HW2 5322   1.563   3.077   5.341
 1527SOL     OW 5323   0.379   3.604   5.288
 1527SOL    HW1 5324   0.296   3.650   5.273
 1527SOL    HW2 5325   0.354   3.523   5.333
 1528SOL     OW 5326   1.667   2.743   4.981
 1528SOL    HW1 5327   1.664   2.660   4.934
 1528SOL    HW2 5328   1.661   2.810   4.913
 1529SOL     OW 5329   1.217   2.180   4.182
 1529SOL    HW1 5330   1.282   2.110   4.173
 1529SOL    HW2 5331   1.245   2.229   4.259
 1530SOL     OW 5332   0.590   2.600   4.393
 1530SOL    HW1 5333   0.630   2.686   4.377
 1530SOL    HW2 5334   0.521   2.593   4.327
 1531SOL     OW 5335   1.763   2.222   5.375
 1531SOL    HW1 5336   1.745   2.238   5.282
 1531SOL    HW2 5337   1.690   2.166   5.404
 1532SOL     OW 5338   1.748   2.800   5.235
 1532SOL    HW1 5339   1.733   2.894   5.247
 1532SOL    HW2 5340   1.728   2.784   5.142
 1533SOL     OW 5341   0.861   3.229   3.757
 1533SOL    HW1 5342   0.824   3.258   3.840
 1533SOL    HW2 5343   0.881   3.310   3.710
 1534SOL     OW 5344   0.663   3.656   4.669
 1534SOL    HW1 5345   0.641   3.747   4.645
 1534SOL    HW2 5346   0.758   3.651   4.662
 1535SOL     OW 5347   0.867   2.828   4.579
 1535SOL    HW1 5348   0.918   2.757   4.618
 1535SOL    HW2 5349   0.833   2.878   4.653
 1536SOL     OW 5350   1.077   2.849   3.812
 1536SOL    HW1 5351   1.057   2.901   3.734
 1536SOL    HW2 5352   1.153   2.797   3.788
 1537SOL     OW 5353   1.852   3.410   4.572
 1537SOL    HW1 5354   1.778   3.410   4.511
 1537SOL    HW2 5355   1.821   3.363   4.649
 1538SOL     OW 5356   0.224   3.167   5.583
 1538SOL    HW1 5357   0.157   3.104   5.558
 1538SOL    HW2 5358   0.213   3.177   5.678
 1539SOL     OW 5359   0.087   3.084   4.379
 1539SOL    HW1 5360   0.100   3.050   4.468
 1539SOL    HW2 5361   0.172   3.074   4.337
 1540SOL     OW 5362   0.681   3.264   5.352
 1540SOL    HW1 5363   0.600   3.221   5.382
 1540SOL    HW2 5364   0.676   3.352   5.388
 1541SOL     OW 5365   1.814   2.050   4.962
 1541SOL    HW1 5366   1.836   1.958   4.979
 1541SOL    HW2 5367   1.825   2.060   4.868
 1542SOL     OW 5368   0.433   2.298   4.248
 1542SOL    HW1 5369   0.462   2.225   4.192
 1542SOL    HW2 5370   0.387   2.256   4.320
 1543SOL     OW 5371   1.707   3.348   4.815
 1543SOL    HW1 5372   1.622   3.325   4.778
 1543SOL    HW2 5373   1.725   3.279   4.880
 1544SOL     OW 5374   0.336   2.421   5.015
 1544SOL    HW1 5375   0.389   2.362   5.069
 1544SOL    HW2 5376   0.350   2.391   4.925
 1545SOL     OW 5377   0.827   3.440   4.403
 1545SOL    HW1 5378   0.816   3.492   4.323
 1545SOL    HW2 5379   0.750   3.383   4.405
 1546SOL     OW 5380   1.432   2.087   4.842
 1546SOL    HW1 5381   1.461   2.009   4.888
 1546SOL    HW2 5382   1.379   2.135   4.906
 1547SOL     OW 5383   1.009   1.881   4.867
 1547SOL    HW1 5384   0.955   1.813   4.827
 1547SOL    HW2 5385   1.097   1.843   4.869
 1548SOL     OW 5386   0.771   3.195   4.039
 1548SOL    HW1 5387   0.741   3.104   4.044
 1548SOL    HW2 5388   0.854   3.195   4.087
 1549SOL     OW 5389   0.622   3.419   5.011
 1549SOL    HW1 5390   0.624   3.501   5.060
 1549SOL    HW2 5391   0.709   3.412   4.971
 1550SOL     OW 5392   1.352   1.915   3.890
 1550SOL    HW1 5393   1.379   1.853   3.823
 1550SOL    HW2 5394   1.265   1.885   3.916
 1551SOL     OW 5395   1.295   2.321   4.405
 1551SOL    HW1 5396   1.244   2.402   4.412
 1551SOL    HW2 5397   1.293   2.283   4.492
 1552SOL     OW 5398   1.586   2.064   4.601
 1552SOL    HW1 5399   1.526   2.084   4.673
 1552SOL    HW2 5400   1.584   2.142   4.546
 1553SOL     OW 5401   0.048   2.931   4.014
 1553SOL    HW1 5402   0.137   2.900   4.003
 1553SOL    HW2 5403   5.300   2.855   4.049
 1554SOL     OW 5404   0.884   3.513   4.067
 1554SOL    HW1 5405   0.811   3.497   4.006
 1554SOL    HW2 5406   0.856   3.589   4.118
 1555SOL     OW 5407   0.233   2.495   5.702
 1555SOL    HW1 5408   0.159   2.462   5.753
 1555SOL    HW2 5409   0.220   2.459   5.614
 1556SOL     OW 5410   0.241   2.138   6.576
 1556SOL    HW1 5411   0.255   2.103   6.664
 1556SOL    HW2 5412   0.157   2.100   6.549
 1557SOL     OW 5413   5.299   2.259   6.238
 1557SOL    HW1 5414   5.206   2.282   6.245
 1557SOL    HW2 5415   5.299   2.169   6.208
 1558SOL     OW 5416   0.573   3.145   6.766
 1558SOL    HW1 5417   0.490   3.153   6.719
 1558SOL    HW2 5418   0.590   3.233   6.801
 1559SOL     OW 5419   1.560   3.374   6.292
 1559SOL    HW1 5420   1.517   3.354   6.376
 1559SOL    HW2 5421   1.489   3.378   6.229
 1560SOL     OW 5422   1.130   2.560   6.287
 1560SOL    HW1 5423   1.179   2.641   6.273
 1560SOL    HW2 5424   1.083   2.575   6.370
 1561SOL     OW 5425   1.763   2.468   5.816
 1561SOL    HW1 5426   1.745   2.461   5.722
 1561SOL    HW2 5427   1.730   2.387   5.853
 1562SOL     OW 5428   0.756   3.004   6.625
 1562SOL    HW1 5429   0.689   3.038   6.683
 1562SOL    HW2 5430   0.791   3.081   6.581
 1563SOL     OW 5431   0.864   2.640   7.406
 1563SOL    HW1 5432   0.853   2.715   7.465
 1563SOL    HW2 5433   0.890   2.679   7.322
 1564SOL     OW 5434   0.685   2.865   6.234
 1564SOL    HW1 5435   0.751   2.853   6.302
 1564SOL    HW2 5436   0.617   2.918   6.275
 1565SOL     OW 5437   0.709   3.013   7.399
 1565SOL    HW1 5438   0.757   3.092   7.424
 1565SOL    HW2 5439   0.627   3.047   7.362
 1566SOL     OW 5440   0.358   3.267   6.646
 1566SOL    HW1 5441   0.270   3.266   6.608
 1566SOL    HW2 5442   0.406   3.330   6.592
 1567SOL     OW 5443   1.461   3.361   6.939
 1567SOL    HW1 5444   1.510   3.442   6.949
 1567SOL    HW2 5445   1.401   3.361   7.014
 1568SOL     OW 5446   0.450   2.263   7.080
 1568SOL    HW1 5447   0.524   2.202   7.081
 1568SOL    HW2 5448   0.373   2.206   7.089
 1569SOL     OW 5449   1.612   2.311   6.326
 1569SOL    HW1 5450   1.538   2.334   6.270
 1569SOL    HW2 5451   1.628   2.389   6.379
 1570SOL     OW 5452   0.230   3.576   6.063
 1570SOL    HW1 5453   0.265   3.645   6.121
 1570SOL    HW2 5454   0.292   3.573   5.991
 1571SOL     OW 5455   1.136   3.203   7.276
 1571SOL    HW1 5456   1.176   3.200   7.363
 1571SOL    HW2 5457   1.084   3.123   7.271
 1572SOL     OW 5458   0.222   3.306   6.125
 1572SOL    HW1 5459   0.214   3.401   6.122
 1572SOL    HW2 5460   0.153   3.277   6.184
 1573SOL     OW 5461   0.249   2.940   6.462
 1573SOL    HW1 5462   0.260   2.855   6.505
 1573SOL    HW2 5463   0.198   2.992   6.524
 1574SOL     OW 5464   0.614   3.652   7.018
 1574SOL    HW1 5465   0.530   3.635   7.061
 1574SOL    HW2 5466   0.635   3.743   7.041
 1575SOL     OW 5467   0.584   2.845   5.721
 1575SOL    HW1 5468   0.629   2.893   5.651
 1575SOL    HW2 5469   0.626   2.874   5.802
 1576SOL     OW 5470   1.596   1.985   7.054
 1576SOL    HW1 5471   1.600   2.065   7.003
 1576SOL    HW2 5472   1.582   2.014   7.144
 1577SOL     OW 5473   0.126   2.497   6.165
 1577SOL    HW1 5474   0.089   2.413   6.193
 1577SOL    HW2 5475   0.098   2.559   6.232
 1578SOL     OW 5476   1.842   3.621   5.921
 1578SOL    HW1 5477   1.905   3.593   5.987
 1578SOL    HW2 5478   1.867   3.712   5.902
 1579SOL     OW 5479   0.037   3.461   5.717
 1579SOL    HW1 5480   0.024   3.369   5.742
 1579SOL    HW2 5481   5.283   3.510   5.779
 1580SOL     OW 5482   1.689   2.780   6.226
 1580SOL    HW1 5483   1.772   2.738   6.203
 1580SOL    HW2 5484   1.666   2.831   6.148
 1581SOL     OW 5485   1.646   2.969   6.015
 1581SOL    HW1 5486   1.731   2.975   5.973
 1581SOL    HW2 5487   1.651   3.030   6.089
 1582SOL     OW 5488   0.130   2.609   7.173
 1582SOL    HW1 5489   0.225   2.623   7.175
 1582SOL    HW2 5490   0.093   2.695   7.188
 1583SOL     OW 5491   0.615   3.247   6.321
 1583SOL    HW1 5492   0.567   3.164   6.331
 1583SOL    HW2 5493   0.597   3.273   6.230
 1584SOL     OW 5494   1.289   3.100   7.010
 1584SOL    HW1 5495   1.322   3.033   6.950
 1584SOL    HW2 5496   1.346   3.094   7.086
 1585SOL     OW 5497   0.822   1.861   6.095
 1585SOL    HW1 5498   0.862   1.945   6.076
 1585SOL    HW2 5499   0.728   1.879   6.102
 1586SOL     OW 5500   0.178   2.809   6.864
 1586SOL    HW1 5501   0.268   2.780   6.854
 1586SOL    HW2 5502   0.135   2.782   6.783
 1587SOL     OW 5503   1.531   2.855   5.784
 1587SOL    HW1 5504   1.462   2.797   5.816
 1587SOL    HW2 5505   1.572   2.889   5.864
 1588SOL     OW 5506   1.185   3.668   7.207
 1588SOL    HW1 5507   1.197   3.726   7.132
 1588SOL    HW2 5508   1.202   3.580   7.173
 1589SOL     OW 5509   0.336   2.114   7.400
 1589SOL    HW1 5510   0.384   2.196   7.413
 1589SOL    HW2 5511   0.249   2.132   7.436
 1590SOL     OW 5512   1.466   3.282   6.538
 1590SOL    HW1 5513   1.398   3.297   6.603
 1590SOL    HW2 5514   1.454   3.191   6.511
 1591SOL     OW 5515   1.659   3.600   6.164
 1591SOL    HW1 5516   1.639   3.571   6.075
 1591SOL    HW2 5517   1.634   3.526   6.220
 1592SOL     OW 5518   0.596   2.583   5.851
 1592SOL    HW1 5519   0.604   2.664   5.800
 1592SOL    HW2 5520   0.531   2.604   5.919
 1593SOL     OW 5521   1.279   2.213   6.519
 1593SOL    HW1 5522   1.190   2.181   6.527
 1593SOL    HW2 5523   1.330   2.161   6.580
 1594SOL     OW 5524   1.581   3.532   5.895
 1594SOL    HW1 5525   1.671   3.564   5.888
 1594SOL    HW2 5526   1.554   3.515   5.805
 1595SOL     OW 5527   0.792   2.479   7.038
 1595SOL    HW1 5528   0.765   2.455   7.127
 1595SOL    HW2 5529   0.751   2.413   6.982
 1596SOL     OW 5530   1.394   2.336   7.263
 1596SOL    HW1 5531   1.395   2.380   7.348
 1596SOL    HW2 5532   1.455   2.263   7.274
 1597SOL     OW 5533   0.955   2.749   7.168
 1597SOL    HW1 5534   1.010   2.679   7.132
 1597SOL    HW2 5535   0.908   2.784   7.092
 1598SOL     OW 5536   0.992   2.275   6.825
 1598SOL    HW1 5537   0.907   2.296   6.863
 1598SOL    HW2 5538   0.971   2.228   6.744
 1599SOL     OW 5539   1.050   2.561   6.012
 1599SOL    HW1 5540   1.066   2.554   6.107
 1599SOL    HW2 5541   0.968   2.513   5.998
 1600SOL     OW 5542   0.072   2.649   6.398
 1600SOL    HW1 5543   0.154   2.654   6.447
 1600SOL    HW2 5544   0.062   2.735   6.358
 1601SOL     OW 5545   0.130   3.745   7.170
 1601SOL    HW1 5546   0.131   3.715   7.261
 1601SOL    HW2 5547   0.059   3.695   7.129
 1602SOL     OW 5548   0.892   2.210   5.780
 1602SOL    HW1 5549   0.933   2.272   5.720
 1602SOL    HW2 5550   0.909   2.124   5.742
 1603SOL     OW 5551   1.711   2.438   7.414
 1603SOL    HW1 5552   1.672   2.513   7.368
 1603SOL    HW2 5553   1.734   2.376   7.345
 1604SOL     OW 5554   1.376   3.004   6.127
 1604SOL    HW1 5555   1.455   2.991   6.075
 1604SOL    HW2 5556   1.324   3.066   6.077
 1605SOL     OW 5557   0.555   2.045   6.479
 1605SOL    HW1 5558   0.552   2.073   6.571
 1605SOL    HW2 5559   0.551   2.127   6.429
 1606SOL     OW 5560   1.006   3.306   6.059
 1606SOL    HW1 5561   0.968   3.379   6.009
 1606SOL    HW2 5562   0.990   3.328   6.150
 1607SOL     OW 5563   0.356   3.664   6.455
 1607SOL    HW1 5564   0.397   3.578   6.468
 1607SOL    HW2 5565   0.423   3.727   6.483
 1608SOL     OW 5566   1.798   2.920   6.454
 1608SOL    HW1 5567   1.743   2.903   6.378
 1608SOL    HW2 5568   1.736   2.925   6.527
 1609SOL     OW 5569   1.228   3.401   7.099
 1609SOL    HW1 5570   1.214   3.328   7.159
 1609SOL    HW2 5571   1.165   3.386   7.028
 1610SOL     OW 5572   0.316   2.814   5.833
 1610SOL    HW1 5573   0.398   2.838   5.789
 1610SOL    HW2 5574   0.293   2.729   5.796
 1611SOL     OW 5575   1.477   2.604   6.314
 1611SOL    HW1 5576   1.469   2.560   6.399
 1611SOL    HW2 5577   1.555   2.659   6.323
 1612SOL     OW 5578   0.464   3.124   7.323
 1612SOL    HW1 5579   0.437   3.131   7.232
 1612SOL    HW2 5580   0.382   3.126   7.373
 1613SOL     OW 5581   1.121   3.640   5.817
 1613SOL    HW1 5582   1.049   3.597   5.863
 1613SOL    HW2 5583   1.144   3.579   5.747
 1614SOL     OW 5584   0.204   2.143   7.084
 1614SOL    HW1 5585   0.125   2.194   7.067
 1614SOL    HW2 5586   0.174   2.064   7.128
 1615SOL     OW 5587   1.629   3.242   5.673
 1615SOL    HW1 5588   1.587   3.327   5.659
 1615SOL    HW2 5589   1.560   3.178   5.654
 1616SOL     OW 5590   0.471   3.597   5.906
 1616SOL    HW1 5591   0.513   3.655   5.969
 1616SOL    HW2 5592   0.542   3.567   5.850
 1617SOL     OW 5593   1.401   1.969   6.018
 1617SOL    HW1 5594   1.390   1.945   5.926
 1617SOL    HW2 5595   1.496   1.977   6.030
 1618SOL     OW 5596   0.276   3.663   6.801
 1618SOL    HW1 5597   0.307   3.586   6.849
 1618SOL    HW2 5598   0.225   3.627   6.728
 1619SOL     OW 5599   0.939   3.561   6.485
 1619SOL    HW1 5600   1.016   3.508   6.506
 1619SOL    HW2 5601   0.894   3.511   6.417
 1620SOL     OW 5602   0.386   2.558   6.065
 1620SOL    HW1 5603   0.415   2.467   6.073
 1620SOL    HW2 5604   0.292   2.555   6.086
 1621SOL     OW 5605   1.536   2.087   7.312
 1621SOL    HW1 5606   1.545   2.108   7.405
 1621SOL    HW2 5607   1.467   2.021   7.308
 1622SOL     OW 5608   0.632   1.985   5.692
 1622SOL    HW1 5609   0.704   1.923   5.703
 1622SOL    HW2 5610   0.585   1.953   5.615
 1623SOL     OW 5611   0.766   2.138   7.339
 1623SOL    HW1 5612   0.842   2.080   7.342
 1623SOL    HW2 5613   0.723   2.126   7.423
 1624SOL     OW 5614   0.877   3.383   6.779
 1624SOL    HW1 5615   0.861   3.347   6.692
 1624SOL    HW2 5616   0.947   3.329   6.816
 1625SOL     OW 5617   1.341   2.451   7.018
 1625SOL    HW1 5618   1.372   2.419   7.103
 1625SOL    HW2 5619   1.377   2.539   7.010
 1626SOL     OW 5620   0.815   3.257   6.525
 1626SOL    HW1 5621   0.899   3.246   6.481
 1626SOL    HW2 5622   0.751   3.258   6.454
 1627SOL     OW 5623   0.928   2.371   6.489
 1627SOL    HW1 5624   0.904   2.363   6.397
 1627SOL    HW2 5625   0.959   2.284   6.514
 1628SOL     OW 5626   0.560   1.923   6.082
 1628SOL    HW1 5627   0.485   1.924   6.142
 1628SOL    HW2 5628   0.549   2.003   6.030
 1629SOL     OW 5629   1.429   3.060   5.628
 1629SOL    HW1 5630   1.459   2.984   5.677
 1629SOL    HW2 5631   1.343   3.081   5.665
 1630SOL     OW 5632   0.305   1.909   5.766
 1630SOL    HW1 5633   0.367   1.972   5.730
 1630SOL    HW2 5634   0.360   1.844   5.810
 1631SOL     OW 5635   0.939   2.108   6.047
 1631SOL    HW1 5636   0.911   2.150   5.965
 1631SOL    HW2 5637   1.033   2.123   6.050
 1632SOL     OW 5638   1.080   2.542   7.046
 1632SOL    HW1 5639   1.011   2.476   7.050
 1632SOL    HW2 5640   1.161   2.492   7.039
 1633SOL     OW 5641   1.224   3.432   6.380
 1633SOL    HW1 5642   1.240   3.499   6.314
 1633SOL    HW2 5643   1.292   3.445   6.445
 1634SOL     OW 5644   0.467   3.012   6.318
 1634SOL    HW1 5645   0.398   2.992   6.381
 1634SOL    HW2 5646   0.427   2.993   6.233
 1635SOL     OW 5647   1.269   3.656   6.194
 1635SOL    HW1 5648   1.315   3.717   6.136
 1635SOL    HW2 5649   1.203   3.709   6.238
 1636SOL     OW 5650   1.023   2.404   5.609
 1636SOL    HW1 5651   0.982   2.488   5.588
 1636SOL    HW2 5652   1.090   2.426   5.674
 1637SOL     OW 5653   0.087   2.407   6.985
 1637SOL    HW1 5654   0.175   2.414   6.947
 1637SOL    HW2 5655   0.079   2.483   7.042
 1638SOL     OW 5656   0.560   2.089   6.752
 1638SOL    HW1 5657   0.598   2.009   6.788
 1638SOL    HW2 5658   0.469   2.088   6.780
 1639SOL     OW 5659   0.868   2.321   6.226
 1639SOL    HW1 5660   0.823   2.375   6.161
 1639SOL    HW2 5661   0.889   2.240   6.179
 1640SOL     OW 5662   1.015   1.915   6.338
 1640SOL    HW1 5663   0.957   1.907   6.262
 1640SOL    HW2 5664   0.993   1.839   6.393
 1641SOL     OW 5665   1.437   3.025   6.444
 1641SOL    HW1 5666   1.368   2.959   6.441
 1641SOL    HW2 5667   1.462   3.037   6.352
 1642SOL     OW 5668   1.466   2.467   6.564
 1642SOL    HW1 5669   1.416   2.385   6.567
 1642SOL    HW2 5670   1.526   2.461   6.638
 1643SOL     OW 5671   1.842   2.680   5.969
 1643SOL    HW1 5672   1.895   2.628   6.029
 1643SOL    HW2 5673   1.816   2.619   5.900
 1644SOL     OW 5674   0.492   3.279   5.745
 1644SOL    HW1 5675   0.417   3.251   5.797
 1644SOL    HW2 5676   0.475   3.245   5.657
 1645SOL     OW 5677   1.669   3.126   6.233
 1645SOL    HW1 5678   1.764   3.129   6.246
 1645SOL    HW2 5679   1.639   3.215   6.254
 1646SOL     OW 5680   1.393   2.434   5.657
 1646SOL    HW1 5681   1.334   2.414   5.729
 1646SOL    HW2 5682   1.479   2.404   5.687
 1647SOL     OW 5683   0.524   2.125   5.904
 1647SOL    HW1 5684   0.568   2.077   5.834
 1647SOL    HW2 5685   0.503   2.210   5.865
 1648SOL     OW 5686   1.753   3.100   7.160
 1648SOL    HW1 5687   1.841   3.063   7.153
 1648SOL    HW2 5688   1.767   3.190   7.190
 1649SOL     OW 5689   1.059   3.215   6.919
 1649SOL    HW1 5690   0.984   3.184   6.971
 1649SOL    HW2 5691   1.135   3.174   6.961
 1650SOL     OW 5692   1.607   3.487   7.238
 1650SOL    HW1 5693   1.603   3.521   7.149
 1650SOL    HW2 5694   1.690   3.440   7.241
 1651SOL     OW 5695   1.128   3.064   6.692
 1651SOL    HW1 5696   1.069   3.103   6.757
 1651SOL    HW2 5697   1.095   3.097   6.608
 1652SOL     OW 5698   1.628   2.960   6.664
 1652SOL    HW1 5699   1.624   3.022   6.737
 1652SOL    HW2 5700   1.549   2.977   6.613
 1653SOL     OW 5701   0.918   1.959   6.983
 1653SOL    HW1 5702   0.941   1.940   6.892
 1653SOL    HW2 5703   0.997   1.998   7.020
 1654SOL     OW 5704   0.984   2.976   7.310
 1654SOL    HW1 5705   0.892   2.993   7.328
 1654SOL    HW2 5706   0.984   2.898   7.254
 1655SOL     OW 5707   0.707   2.922   5.958
 1655SOL    HW1 5708   0.696   2.906   6.052
 1655SOL    HW2 5709   0.784   2.869   5.934
 1656SOL     OW 5710   0.420   2.680   6.838
 1656SOL    HW1 5711   0.489   2.687   6.904
 1656SOL    HW2 5712   0.385   2.592   6.849
 1657SOL     OW 5713   1.266   2.239   6.860
 1657SOL    HW1 5714   1.298   2.317   6.906
 1657SOL    HW2 5715   1.176   2.261   6.837
 1658SOL     OW 5716   0.101   3.485   6.953
 1658SOL    HW1 5717   0.078   3.494   6.861
 1658SOL    HW2 5718   0.187   3.443   6.953
 1659SOL     OW 5719   0.344   2.967   6.074
 1659SOL    HW1 5720   0.354   3.046   6.021
 1659SOL    HW2 5721   0.354   2.895   6.012
 1660SOL     OW 5722   0.555   2.398   6.445
 1660SOL    HW1 5723   0.571   2.457   6.371
 1660SOL    HW2 5724   0.619   2.425   6.511
 1661SOL     OW 5725   1.248   3.210   5.975
 1661SOL    HW1 5726   1.304   3.282   6.006
 1661SOL    HW2 5727   1.161   3.231   6.009
 1662SOL     OW 5728   1.280   3.319   6.733
 1662SOL    HW1 5729   1.336   3.322   6.811
 1662SOL    HW2 5730   1.225   3.242   6.746
 1663SOL     OW 5731   1.582   2.484   6.065
 1663SOL    HW1 5732   1.536   2.541   6.127
 1663SOL    HW2 5733   1.629   2.544   6.008
 1664SOL     OW 5734   0.352   3.381   6.897
 1664SOL    HW1 5735   0.342   3.338   6.812
 1664SOL    HW2 5736   0.445   3.399   6.904
 1665SOL     OW 5737   0.413   2.605   7.188
 1665SOL    HW1 5738   0.474   2.651   7.130
 1665SOL    HW2 5739   0.453   2.519   7.200
 1666SOL     OW 5740   1.600   2.640   7.267
 1666SOL    HW1 5741   1.514   2.681   7.260
 1666SOL    HW2 5742   1.653   2.682   7.199
 1667SOL     OW 5743   0.996   1.984   7.341
 1667SOL    HW1 5744   1.051   2.057   7.312
 1667SOL    HW2 5745   1.045   1.906   7.316
 1668SOL     OW 5746   0.498   1.903   7.333
 1668SOL    HW1 5747   0.456   1.849   7.266
 1668SOL    HW2 5748   0.439   1.977   7.345
 1669SOL     OW 5749   0.585   2.736   6.618
 1669SOL    HW1 5750   0.616   2.826   6.617
 1669SOL    HW2 5751   0.529   2.731   6.695
 1670SOL     OW 5752   1.358   2.720   6.617
 1670SOL    HW1 5753   1.276   2.712   6.569
 1670SOL    HW2 5754   1.398   2.633   6.611
 1671SOL     OW 5755   1.205   2.390   5.853
 1671SOL    HW1 5756   1.213   2.312   5.908
 1671SOL    HW2 5757   1.163   2.455   5.910
 1672SOL     OW 5758   0.302   2.066   6.834
 1672SOL    HW1 5759   0.267   2.090   6.920
 1672SOL    HW2 5760   0.289   1.971   6.830
 1673SOL     OW 5761   0.070   3.181   6.867
 1673SOL    HW1 5762   0.091   3.121   6.938
 1673SOL    HW2 5763   0.001   3.237   6.902
 1674SOL     OW 5764   0.725   2.494   6.644
 1674SOL    HW1 5765   0.799   2.477   6.587
 1674SOL    HW2 5766   0.697   2.583   6.623
 1675SOL     OW 5767   1.735   2.822   7.437
 1675SOL    HW1 5768   1.685   2.762   7.381
 1675SOL    HW2 5769   1.678   2.835   7.513
 1676SOL     OW 5770   0.327   1.924   6.220
 1676SOL    HW1 5771   0.307   2.013   6.248
 1676SOL    HW2 5772   0.331   1.874   6.302
 1677SOL     OW 5773   1.615   2.235   5.954
 1677SOL    HW1 5774   1.643   2.172   6.020
 1677SOL    HW2 5775   1.593   2.314   6.003
 1678SOL     OW 5776   1.027   2.621   6.547
 1678SOL    HW1 5777   1.025   2.639   6.641
 1678SOL    HW2 5778   1.001   2.530   6.539
 1679SOL     OW 5779   0.982   3.427   7.302
 1679SOL    HW1 5780   0.967   3.472   7.219
 1679SOL    HW2 5781   1.026   3.346   7.278
 1680SOL     OW 5782   1.855   3.369   7.191
 1680SOL    HW1 5783   1.873   3.395   7.101
 1680SOL    HW2 5784   1.936   3.387   7.238
 1681SOL     OW 5785   0.353   2.777   7.394
 1681SOL    HW1 5786   0.436   2.799   7.438
 1681SOL    HW2 5787   0.378   2.714   7.327
 1682SOL     OW 5788   1.530   2.134   5.713
 1682SOL    HW1 5789   1.465   2.069   5.740
 1682SOL    HW2 5790   1.562   2.171   5.796
 1683SOL     OW 5791   1.292   2.689   5.617
 1683SOL    HW1 5792   1.335   2.603   5.621
 1683SOL    HW2 5793   1.324   2.728   5.536
 1684SOL     OW 5794   1.066   3.197   6.440
 1684SOL    HW1 5795   1.069   3.125   6.377
 1684SOL    HW2 5796   1.127   3.262   6.405
 1685SOL     OW 5797   0.314   2.672   6.536
 1685SOL    HW1 5798   0.408   2.690   6.532
 1685SOL    HW2 5799   0.308   2.582   6.568
 1686SOL     OW 5800   0.335   2.387   6.601
 1686SOL    HW1 5801   0.300   2.300   6.586
 1686SOL    HW2 5802   0.410   2.393   6.541
 1687SOL     OW 5803   1.135   2.238   7.267
 1687SOL    HW1 5804   1.087   2.293   7.329
 1687SOL    HW2 5805   1.222   2.276   7.263
 1688SOL     OW 5806   1.161   2.065   7.056
 1688SOL    HW1 5807   1.150   2.127   7.127
 1688SOL    HW2 5808   1.200   2.116   6.984
 1689SOL     OW 5809   0.001   3.192   5.796
 1689SOL    HW1 5810   5.227   3.182   5.737
 1689SOL    HW2 5811   0.012   3.106   5.837
 1690SOL     OW 5812   0.092   3.644   6.536
 1690SOL    HW1 5813   0.059   3.573   6.481
 1690SOL    HW2 5814   0.180   3.662   6.501
 1691SOL     OW 5815   0.505   3.435   6.493
 1691SOL    HW1 5816   0.572   3.500   6.514
 1691SOL    HW2 5817   0.548   3.374   6.434
 1692SOL     OW 5818   0.984   2.654   6.813
 1692SOL    HW1 5819   1.039   2.631   6.888
 1692SOL    HW2 5820   0.898   2.617   6.834
 1693SOL     OW 5821   0.034   2.423   6.701
 1693SOL    HW1 5822   0.119   2.397   6.668
 1693SOL    HW2 5823   0.038   2.404   6.795
 1694SOL     OW 5824   0.175   2.375   7.302
 1694SOL    HW1 5825   0.239   2.337   7.242
 1694SOL    HW2 5826   0.145   2.454   7.259
 1695SOL     OW 5827   1.377   2.801   7.245
 1695SOL    HW1 5828   1.397   2.895   7.244
 1695SOL    HW2 5829   1.374   2.776   7.153
 1696SOL     OW 5830   0.816   2.430   5.945
 1696SOL    HW1 5831   0.820   2.356   5.885
 1696SOL    HW2 5832   0.742   2.483   5.914
 1697SOL     OW 5833   1.641   2.463   6.773
 1697SOL    HW1 5834   1.630   2.404   6.847
 1697SOL    HW2 5835   1.728   2.443   6.738
 1698SOL     OW 5836   0.256   3.418   7.322
 1698SOL    HW1 5837   0.233   3.479   7.391
 1698SOL    HW2 5838   0.249   3.332   7.362
 1699SOL     OW 5839   0.700   2.313   6.846
 1699SOL    HW1 5840   0.648   2.239   6.816
 1699SOL    HW2 5841   0.696   2.376   6.774
 1700SOL     OW 5842   0.929   3.541   7.053
 1700SOL    HW1 5843   0.902   3.507   6.967
 1700SOL    HW2 5844   0.925   3.636   7.044
 1701SOL     OW 5845   0.465   2.355   5.772
 1701SOL    HW1 5846   0.525   2.427   5.793
 1701SOL    HW2 5847   0.380   2.397   5.761
 1702SOL     OW 5848   0.148   2.999   7.057
 1702SOL    HW1 5849   0.146   2.950   7.139
 1702SOL    HW2 5850   0.161   2.933   6.989
 1703SOL     OW 5851   1.326   2.909   6.810
 1703SOL    HW1 5852   1.350   2.846   6.742
 1703SOL    HW2 5853   1.256   2.961   6.771
 1704SOL     OW 5854   1.310   2.718   5.892
 1704SOL    HW1 5855   1.234   2.688   5.942
 1704SOL    HW2 5856   1.287   2.705   5.801
 1705SOL     OW 5857   1.771   3.607   6.735
 1705SOL    HW1 5858   1.831   3.633   6.666
 1705SOL    HW2 5859   1.747   3.517   6.715
 1706SOL     OW 5860   1.241   3.595   6.700
 1706SOL    HW1 5861   1.323   3.615   6.655
 1706SOL    HW2 5862   1.246   3.501   6.718
 1707SOL     OW 5863   0.083   3.081   6.613
 1707SOL    HW1 5864   0.070   3.105   6.705
 1707SOL    HW2 5865   5.294   3.069   6.579
 1708SOL     OW 5866   0.677   3.526   7.313
 1708SOL    HW1 5867   0.624   3.606   7.310
 1708SOL    HW2 5868   0.742   3.538   7.244
 1709SOL     OW 5869   1.720   2.008   6.097
 1709SOL    HW1 5870   1.792   1.993   6.036
 1709SOL    HW2 5871   1.704   1.922   6.136
 1710SOL     OW 5872   1.390   3.430   6.070
 1710SOL    HW1 5873   1.451   3.462   6.003
 1710SOL    HW2 5874   1.342   3.507   6.098
 1711SOL     OW 5875   0.141   3.661   7.429
 1711SOL    HW1 5876   0.089   3.597   7.477
 1711SOL    HW2 5877   0.194   3.705   7.496
 1712SOL     OW 5878   1.277   2.787   6.257
 1712SOL    HW1 5879   1.351   2.726   6.264
 1712SOL    HW2 5880   1.311   2.860   6.205
 1713SOL     OW 5881   0.815   3.135   7.017
 1713SOL    HW1 5882   0.787   3.174   7.099
 1713SOL    HW2 5883   0.746   3.156   6.954
 1714SOL     OW 5884   0.672   3.481   5.741
 1714SOL    HW1 5885   0.682   3.493   5.647
 1714SOL    HW2 5886   0.618   3.403   5.749
 1715SOL     OW 5887   1.628   3.588   6.977
 1715SOL    HW1 5888   1.677   3.596   6.895
 1715SOL    HW2 5889   1.614   3.679   7.005
 1716SOL     OW 5890   1.839   2.034   6.553
 1716SOL    HW1 5891   1.868   1.947   6.525
 1716SOL    HW2 5892   1.753   2.045   6.513
 1717SOL     OW 5893   0.272   2.179   6.304
 1717SOL    HW1 5894   0.188   2.218   6.282
 1717SOL    HW2 5895   0.270   2.168   6.399
 1718SOL     OW 5896   1.207   3.468   5.618
 1718SOL    HW1 5897   1.198   3.377   5.644
 1718SOL    HW2 5898   1.142   3.480   5.548
 1719SOL     OW 5899   0.824   2.868   6.958
 1719SOL    HW1 5900   0.868   2.863   6.873
 1719SOL    HW2 5901   0.824   2.961   6.981
 1720SOL     OW 5902   0.915   2.772   5.876
 1720SOL    HW1 5903   0.976   2.804   5.809
 1720SOL    HW2 5904   0.963   2.703   5.921
 1721SOL     OW 5905   1.492   3.487   5.629
 1721SOL    HW1 5906   1.398   3.481   5.615
 1721SOL    HW2 5907   1.529   3.493   5.540
 1722SOL     OW 5908   0.367   3.166   7.079
 1722SOL    HW1 5909   0.359   3.240   7.020
 1722SOL    HW2 5910   0.292   3.111   7.060
 1723SOL     OW 5911   1.610   3.144   6.866
 1723SOL    HW1 5912   1.671   3.135   6.939
 1723SOL    HW2 5913   1.550   3.214   6.894
 1724SOL     OW 5914   1.051   2.968   6.292
 1724SOL    HW1 5915   0.981   2.917   6.332
 1724SOL    HW2 5916   1.113   2.903   6.260
 1725SOL     OW 5917   1.021   2.102   6.552
 1725SOL    HW1 5918   1.016   2.055   6.469
 1725SOL    HW2 5919   1.016   2.035   6.619
 1726SOL     OW 5920   0.601   3.349   6.067
 1726SOL    HW1 5921   0.645   3.301   5.998
 1726SOL    HW2 5922   0.535   3.401   6.022
 1727SOL     OW 5923   1.718   2.252   6.966
 1727SOL    HW1 5924   1.789   2.317   6.966
 1727SOL    HW2 5925   1.750   2.182   6.910
 1728SOL     OW 5926   0.260   3.210   5.878
 1728SOL    HW1 5927   0.167   3.212   5.855
 1728SOL    HW2 5928   0.264   3.247   5.966
 1729SOL     OW 5929   0.116   2.877   7.303
 1729SOL    HW1 5930   0.044   2.846   7.358
 1729SOL    HW2 5931   0.195   2.846   7.347
 1730SOL     OW 5932   0.673   2.058   7.085
 1730SOL    HW1 5933   0.758   2.039   7.043
 1730SOL    HW2 5934   0.696   2.088   7.173
 1731SOL     OW 5935   0.081   2.214   5.627
 1731SOL    HW1 5936   0.003   2.164   5.603
 1731SOL    HW2 5937   0.098   2.270   5.552
 1732SOL     OW 5938   1.431   2.720   6.987
 1732SOL    HW1 5939   1.381   2.781   6.931
 1732SOL    HW2 5940   1.520   2.723   6.952
 1733SOL     OW 5941   0.055   1.995   5.829
 1733SOL    HW1 5942   0.055   2.091   5.822
 1733SOL    HW2 5943   0.146   1.970   5.808
 1734SOL     OW 5944   1.179   3.202   5.703
 1734SOL    HW1 5945   1.089   3.172   5.706
 1734SOL    HW2 5946   1.207   3.202   5.795
 1735SOL     OW 5947   0.619   2.693   7.021
 1735SOL    HW1 5948   0.675   2.769   7.005
 1735SOL    HW2 5949   0.680   2.619   7.029
 1736SOL     OW 5950   1.484   3.638   6.564
 1736SOL    HW1 5951   1.508   3.697   6.492
 1736SOL    HW2 5952   1.567   3.620   6.609
 1737SOL     OW 5953   0.717   2.426   7.292
 1737SOL    HW1 5954   0.757   2.489   7.352
 1737SOL    HW2 5955   0.747   2.341   7.322
 1738SOL     OW 5956   1.471   3.062   7.218
 1738SOL    HW1 5957   1.458   3.076   7.312
 1738SOL    HW2 5958   1.564   3.077   7.204
 1739SOL     OW 5959   0.378   3.604   7.150
 1739SOL    HW1 5960   0.295   3.649   7.135
 1739SOL    HW2 5961   0.354   3.523   7.195
 1740SOL     OW 5962   1.671   2.743   6.842
 1740SOL    HW1 5963   1.662   2.658   6.798
 1740SOL    HW2 5964   1.660   2.807   6.771
 1741SOL     OW 5965   1.217   2.181   6.044
 1741SOL    HW1 5966   1.280   2.110   6.035
 1741SOL    HW2 5967   1.246   2.230   6.121
 1742SOL     OW 5968   0.590   2.600   6.255
 1742SOL    HW1 5969   0.629   2.686   6.239
 1742SOL    HW2 5970   0.521   2.593   6.189
 1743SOL     OW 5971   1.763   2.224   7.236
 1743SOL    HW1 5972   1.744   2.239   7.143
 1743SOL    HW2 5973   1.692   2.167   7.266
 1744SOL     OW 5974   1.749   2.793   7.098
 1744SOL    HW1 5975   1.744   2.887   7.114
 1744SOL    HW2 5976   1.731   2.784   7.004
 1745SOL     OW 5977   0.862   3.229   5.619
 1745SOL    HW1 5978   0.824   3.258   5.702
 1745SOL    HW2 5979   0.881   3.310   5.572
 1746SOL     OW 5980   0.663   3.656   6.530
 1746SOL    HW1 5981   0.641   3.746   6.507
 1746SOL    HW2 5982   0.758   3.651   6.524
 1747SOL     OW 5983   0.867   2.828   6.441
 1747SOL    HW1 5984   0.917   2.757   6.481
 1747SOL    HW2 5985   0.833   2.878   6.515
 1748SOL     OW 5986   1.078   2.849   5.674
 1748SOL    HW1 5987   1.057   2.901   5.596
 1748SOL    HW2 5988   1.154   2.796   5.649
 1749SOL     OW 5989   1.854   3.417   6.431
 1749SOL    HW1 5990   1.777   3.405   6.376
 1749SOL    HW2 5991   1.848   3.349   6.498
 1750SOL     OW 5992   0.225   3.167   7.445
 1750SOL    HW1 5993   0.155   3.106   7.419
 1750SOL    HW2 5994   0.212   3.178   7.540
 1751SOL     OW 5995   0.087   3.084   6.241
 1751SOL    HW1 5996   0.099   3.050   6.330
 1751SOL    HW2 5997   0.172   3.074   6.199
 1752SOL     OW 5998   0.681   3.263   7.214
 1752SOL    HW1 5999   0.600   3.222   7.244
 1752SOL    HW2 6000   0.677   3.352   7.249
 1753SOL     OW 6001   1.814   2.047   6.824
 1753SOL    HW1 6002   1.823   1.953   6.839
 1753SOL    HW2 6003   1.822   2.057   6.729
 1754SOL     OW 6004   0.434   2.298   6.110
 1754SOL    HW1 6005   0.462   2.225   6.054
 1754SOL    HW2 6006   0.387   2.256   6.182
 1755SOL     OW 6007   1.700   3.352   6.684
 1755SOL    HW1 6008   1.619   3.328   6.639
 1755SOL    HW2 6009   1.714   3.283   6.748
 1756SOL     OW 6010   0.336   2.421   6.877
 1756SOL    HW1 6011   0.389   2.362   6.930
 1756SOL    HW2 6012   0.350   2.391   6.787
 1757SOL     OW 6013   0.828   3.439   6.264
 1757SOL    HW1 6014   0.816   3.492   6.185
 1757SOL    HW2 6015   0.750   3.383   6.266
 1758SOL     OW 6016   1.432   2.087   6.704
 1758SOL    HW1 6017   1.457   2.007   6.751
 1758SOL    HW2 6018   1.380   2.136   6.768
 1759SOL     OW 6019   1.009   1.881   6.729
 1759SOL    HW1 6020   0.954   1.813   6.689
 1759SOL    HW2 6021   1.097   1.843   6.731
 1760SOL     OW 6022   0.771   3.195   5.901
 1760SOL    HW1 6023   0.741   3.104   5.906
 1760SOL    HW2 6024   0.854   3.195   5.949
 1761SOL     OW 6025   0.622   3.418   6.873
 1761SOL    HW1 6026   0.624   3.501   6.922
 1761SOL    HW2 6027   0.709   3.413   6.833
 1762SOL     OW 6028   1.352   1.916   5.751
 1762SOL    HW1 6029   1.380   1.853   5.684
 1762SOL    HW2 6030   1.265   1.885   5.777
 1763SOL     OW 6031   1.296   2.322   6.267
 1763SOL    HW1 6032   1.244   2.402   6.275
 1763SOL    HW2 6033   1.293   2.283   6.355
 1764SOL     OW 6034   1.587   2.065   6.464
 1764SOL    HW1 6035   1.525   2.085   6.534
 1764SOL    HW2 6036   1.586   2.143   6.408
 1765SOL     OW 6037   0.048   2.931   5.877
 1765SOL    HW1 6038   0.137   2.899   5.865
 1765SOL    HW2 6039   5.300   2.855   5.910
 1766SOL     OW 6040   0.884   3.513   5.928
 1766SOL    HW1 6041   0.811   3.497   5.868
 1766SOL    HW2 6042   0.856   3.589   5.980
 1767SOL     OW 6043   0.230   2.493   7.566
 1767SOL    HW1 6044   0.154   2.454   7.610
 1767SOL    HW2 6045   0.223   2.463   7.475
 1768SOL     OW 6046   1.769   2.460   7.679
 1768SOL    HW1 6047   1.748   2.456   7.586
 1768SOL    HW2 6048   1.725   2.383   7.717
 1769SOL     OW 6049   0.229   3.570   7.921
 1769SOL    HW1 6050   0.264   3.614   7.998
 1769SOL    HW2 6051   0.299   3.575   7.856
 1770SOL     OW 6052   0.217   3.298   7.990
 1770SOL    HW1 6053   0.208   3.393   7.984
 1770SOL    HW2 6054   0.154   3.272   8.058
 1771SOL     OW 6055   0.584   2.845   7.580
 1771SOL    HW1 6056   0.629   2.894   7.511
 1771SOL    HW2 6057   0.625   2.875   7.661
 1772SOL     OW 6058   1.837   3.622   7.797
 1772SOL    HW1 6059   1.907   3.591   7.855
 1772SOL    HW2 6060   1.863   3.710   7.772
 1773SOL     OW 6061   0.036   3.463   7.581
 1773SOL    HW1 6062   0.027   3.370   7.602
 1773SOL    HW2 6063   5.278   3.507   7.643
 1774SOL     OW 6064   1.678   2.730   8.039
 1774SOL    HW1 6065   1.762   2.738   0.005
 1774SOL    HW2 6066   1.671   2.812   7.990
 1775SOL     OW 6067   1.654   2.961   7.875
 1775SOL    HW1 6068   1.742   2.986   7.847
 1775SOL    HW2 6069   1.628   3.031   7.935
 1776SOL     OW 6070   0.800   1.856   7.938
 1776SOL    HW1 6071   0.849   1.937   7.923
 1776SOL    HW2 6072   0.709   1.886   7.949
 1777SOL     OW 6073   1.533   2.856   7.648
 1777SOL    HW1 6074   1.467   2.796   7.682
 1777SOL    HW2 6075   1.576   2.891   7.726
 1778SOL     OW 6076   0.589   2.586   7.708
 1778SOL    HW1 6077   0.597   2.667   7.658
 1778SOL    HW2 6078   0.533   2.609   7.782
 1779SOL     OW 6079   1.574   3.533   7.757
 1779SOL    HW1 6080   1.665   3.562   7.766
 1779SOL    HW2 6081   1.563   3.519   7.663
 1780SOL     OW 6082   0.058   2.685   0.204
 1780SOL    HW1 6083   0.124   2.625   0.169
 1780SOL    HW2 6084   0.031   2.738   0.128
 1781SOL     OW 6085   0.880   2.208   7.636
 1781SOL    HW1 6086   0.926   2.269   7.578
 1781SOL    HW2 6087   0.916   2.122   7.614
 1782SOL     OW 6088   0.319   2.810   7.694
 1782SOL    HW1 6089   0.399   2.838   7.650
 1782SOL    HW2 6090   0.295   2.727   7.652
 1783SOL     OW 6091   1.123   3.638   7.682
 1783SOL    HW1 6092   1.047   3.597   7.723
 1783SOL    HW2 6093   1.147   3.577   7.611
 1784SOL     OW 6094   1.629   3.242   7.533
 1784SOL    HW1 6095   1.586   3.327   7.520
 1784SOL    HW2 6096   1.560   3.178   7.516
 1785SOL     OW 6097   0.470   3.599   7.769
 1785SOL    HW1 6098   0.515   3.653   7.834
 1785SOL    HW2 6099   0.539   3.566   7.713
 1786SOL     OW 6100   1.415   1.993   7.864
 1786SOL    HW1 6101   1.403   1.958   7.776
 1786SOL    HW2 6102   1.510   1.991   7.878
 1787SOL     OW 6103   0.379   2.562   7.923
 1787SOL    HW1 6104   0.401   2.469   7.927
 1787SOL    HW2 6105   0.286   2.566   7.941
 1788SOL     OW 6106   0.626   1.981   7.559
 1788SOL    HW1 6107   0.704   1.927   7.568
 1788SOL    HW2 6108   0.584   1.951   7.479
 1789SOL     OW 6109   0.527   1.936   7.960
 1789SOL    HW1 6110   0.440   1.941   8.001
 1789SOL    HW2 6111   0.528   2.007   7.896
 1790SOL     OW 6112   1.428   3.060   7.489
 1790SOL    HW1 6113   1.459   2.986   7.542
 1790SOL    HW2 6114   1.344   3.083   7.528
 1791SOL     OW 6115   0.306   1.906   7.620
 1791SOL    HW1 6116   0.368   1.970   7.585
 1791SOL    HW2 6117   0.361   1.843   7.667
 1792SOL     OW 6118   0.944   2.087   7.911
 1792SOL    HW1 6119   0.899   2.153   7.857
 1792SOL    HW2 6120   1.035   2.117   7.915
 1793SOL     OW 6121   0.447   3.020   0.091
 1793SOL    HW1 6122   0.375   3.041   0.150
 1793SOL    HW2 6123   0.405   3.002   0.007
 1794SOL     OW 6124   1.290   3.673   8.014
 1794SOL    HW1 6125   1.325   3.742   7.958
 1794SOL    HW2 6126   1.207   3.708   8.047
 1795SOL     OW 6127   1.026   2.405   7.466
 1795SOL    HW1 6128   0.981   2.488   7.449
 1795SOL    HW2 6129   1.086   2.425   7.538
 1796SOL     OW 6130   1.863   2.682   7.802
 1796SOL    HW1 6131   1.885   2.647   7.888
 1796SOL    HW2 6132   1.829   2.608   7.753
 1797SOL     OW 6133   0.490   3.277   7.606
 1797SOL    HW1 6134   0.415   3.248   7.658
 1797SOL    HW2 6135   0.472   3.244   7.518
 1798SOL     OW 6136   1.394   2.433   7.519
 1798SOL    HW1 6137   1.333   2.414   7.590
 1798SOL    HW2 6138   1.478   2.401   7.551
 1799SOL     OW 6139   0.527   2.127   7.771
 1799SOL    HW1 6140   0.569   2.077   7.702
 1799SOL    HW2 6141   0.504   2.211   7.729
 1800SOL     OW 6142   0.709   2.922   7.814
 1800SOL    HW1 6143   0.693   2.913   7.908
 1800SOL    HW2 6144   0.788   2.870   7.798
 1801SOL     OW 6145   0.347   2.956   7.929
 1801SOL    HW1 6146   0.346   3.040   7.883
 1801SOL    HW2 6147   0.349   2.891   7.859
 1802SOL     OW 6148   1.224   3.218   7.821
 1802SOL    HW1 6149   1.287   3.286   7.846
 1802SOL    HW2 6150   1.183   3.192   7.903
 1803SOL     OW 6151   1.588   2.491   7.920
 1803SOL    HW1 6152   1.572   2.549   7.995
 1803SOL    HW2 6153   1.630   2.547   7.855
 1804SOL     OW 6154   1.204   2.388   7.715
 1804SOL    HW1 6155   1.206   2.306   7.763
 1804SOL    HW2 6156   1.182   2.454   7.781
 1805SOL     OW 6157   1.617   2.241   7.815
 1805SOL    HW1 6158   1.639   2.174   7.880
 1805SOL    HW2 6159   1.593   2.318   7.866
 1806SOL     OW 6160   1.531   2.136   7.575
 1806SOL    HW1 6161   1.465   2.071   7.601
 1806SOL    HW2 6162   1.563   2.172   7.658
 1807SOL     OW 6163   1.294   2.689   7.481
 1807SOL    HW1 6164   1.336   2.603   7.483
 1807SOL    HW2 6165   1.324   2.729   7.400
 1808SOL     OW 6166   0.003   3.195   7.656
 1808SOL    HW1 6167   5.221   3.193   7.608
 1808SOL    HW2 6168   0.013   3.107   7.691
 1809SOL     OW 6169   0.837   2.459   7.763
 1809SOL    HW1 6170   0.829   2.368   7.734
 1809SOL    HW2 6171   0.748   2.493   7.763
 1810SOL     OW 6172   0.462   2.355   7.639
 1810SOL    HW1 6173   0.523   2.427   7.654
 1810SOL    HW2 6174   0.378   2.397   7.625
 1811SOL     OW 6175   1.310   2.710   7.755
 1811SOL    HW1 6176   1.223   2.719   7.794
 1811SOL    HW2 6177   1.293   2.703   7.661
 1812SOL     OW 6178   1.710   2.007   7.947
 1812SOL    HW1 6179   1.789   2.000   7.893
 1812SOL    HW2 6180   1.713   1.930   8.004
 1813SOL     OW 6181   1.365   3.438   7.897
 1813SOL    HW1 6182   1.439   3.459   7.841
 1813SOL    HW2 6183   1.333   3.523   7.927
 1814SOL     OW 6184   0.668   3.481   7.604
 1814SOL    HW1 6185   0.680   3.492   7.509
 1814SOL    HW2 6186   0.616   3.401   7.612
 1815SOL     OW 6187   1.209   3.469   7.478
 1815SOL    HW1 6188   1.199   3.378   7.506
 1815SOL    HW2 6189   1.142   3.481   7.410
 1816SOL     OW 6190   0.925   2.773   7.754
 1816SOL    HW1 6191   0.979   2.797   7.679
 1816SOL    HW2 6192   0.923   2.677   7.752
 1817SOL     OW 6193   1.494   3.488   7.488
 1817SOL    HW1 6194   1.399   3.481   7.477
 1817SOL    HW2 6195   1.529   3.493   7.399
 1818SOL     OW 6196   0.605   3.367   7.936
 1818SOL    HW1 6197   0.649   3.307   7.876
 1818SOL    HW2 6198   0.534   3.405   7.884
 1819SOL     OW 6199   0.260   3.209   7.741
 1819SOL    HW1 6200   0.167   3.213   7.717
 1819SOL    HW2 6201   0.263   3.245   7.830
 1820SOL     OW 6202   0.080   2.205   7.488
 1820SOL    HW1 6203   5.297   2.164   7.462
 1820SOL    HW2 6204   0.099   2.267   7.418
 1821SOL     OW 6205   0.081   1.998   7.737
 1821SOL    HW1 6206   0.066   2.086   7.702
 1821SOL    HW2 6207   0.154   1.964   7.685
 1822SOL     OW 6208   1.177   3.201   7.556
 1822SOL    HW1 6209   1.085   3.176   7.557
 1822SOL    HW2 6210   1.201   3.207   7.649
 1823SOL     OW 6211   1.215   2.180   7.904
 1823SOL    HW1 6212   1.288   2.119   7.892
 1823SOL    HW2 6213   1.237   2.228   7.983
 1824SOL     OW 6214   0.622   2.599   8.051
 1824SOL    HW1 6215   0.629   2.679   0.023
 1824SOL    HW2 6216   0.531   2.598   8.021
 1825SOL     OW 6217   0.862   3.229   7.481
 1825SOL    HW1 6218   0.825   3.258   7.564
 1825SOL    HW2 6219   0.882   3.310   7.434
 1826SOL     OW 6220   1.073   2.841   7.537
 1826SOL    HW1 6221   1.054   2.898   7.463
 1826SOL    HW2 6222   1.152   2.793   7.511
 1827SOL     OW 6223   0.393   2.292   7.978
 1827SOL    HW1 6224   0.438   2.234   7.917
 1827SOL    HW2 6225   0.435   2.276   8.063
 1828SOL     OW 6226   0.766   3.197   7.760
 1828SOL    HW1 6227   0.735   3.106   7.762
 1828SOL    HW2 6228   0.847   3.196   7.810
 1829SOL     OW 6229   1.352   1.915   7.610
 1829SOL    HW1 6230   1.380   1.849   7.546
 1829SOL    HW2 6231   1.266   1.885   7.638
 1830SOL     OW 6232   0.048   2.932   7.722
 1830SOL    HW1 6233   0.137   2.899   7.722
 1830SOL    HW2 6234   5.300   2.872   7.778
 1831SOL     OW 6235   0.892   3.513   7.781
 1831SOL    HW1 6236   0.816   3.489   7.728
 1831SOL    HW2 6237   0.859   3.576   7.845
 1832SOL     OW 6238   0.227   4.349   0.113
 1832SOL    HW1 6239   0.155   4.311   0.164
 1832SOL    HW2 6240   0.232   4.294   0.034
 1833SOL     OW 6241   0.241   3.999   0.989
 1833SOL    HW1 6242   0.255   3.965   1.078
 1833SOL    HW2 6243   0.157   3.961   0.963
 1834SOL     OW 6244   5.297   4.120   0.649
 1834SOL    HW1 6245   5.205   4.148   0.659
 1834SOL    HW2 6246   5.291   4.027   0.627
 1835SOL     OW 6247   0.573   4.999   1.182
 1835SOL    HW1 6248   0.494   5.005   1.129
 1835SOL    HW2 6249   0.591   5.089   1.209
 1836SOL     OW 6250   1.555   5.233   0.688
 1836SOL    HW1 6251   1.531   5.229   0.781
 1836SOL    HW2 6252   1.478   5.268   0.644
 1837SOL     OW 6253   1.130   4.422   0.702
 1837SOL    HW1 6254   1.179   4.503   0.688
 1837SOL    HW2 6255   1.083   4.436   0.784
 1838SOL     OW 6256   1.769   4.325   0.233
 1838SOL    HW1 6257   1.731   4.325   0.145
 1838SOL    HW2 6258   1.729   4.249   0.276
 1839SOL     OW 6259   0.759   4.868   1.037
 1839SOL    HW1 6260   0.691   4.897   1.098
 1839SOL    HW2 6261   0.786   4.948   0.991
 1840SOL     OW 6262   0.866   4.500   1.822
 1840SOL    HW1 6263   0.854   4.572   1.884
 1840SOL    HW2 6264   0.889   4.543   1.739
 1841SOL     OW 6265   0.684   4.725   0.651
 1841SOL    HW1 6266   0.750   4.715   0.720
 1841SOL    HW2 6267   0.617   4.781   0.690
 1842SOL     OW 6268   0.708   4.873   1.811
 1842SOL    HW1 6269   0.756   4.952   1.835
 1842SOL    HW2 6270   0.625   4.904   1.776
 1843SOL     OW 6271   0.376   5.145   1.053
 1843SOL    HW1 6272   0.282   5.154   1.040
 1843SOL    HW2 6273   0.415   5.199   0.984
 1844SOL     OW 6274   1.455   5.220   1.347
 1844SOL    HW1 6275   1.509   5.293   1.379
 1844SOL    HW2 6276   1.388   5.208   1.415
 1845SOL     OW 6277   0.450   4.124   1.493
 1845SOL    HW1 6278   0.524   4.063   1.495
 1845SOL    HW2 6279   0.373   4.068   1.502
 1846SOL     OW 6280   1.612   4.172   0.740
 1846SOL    HW1 6281   1.537   4.195   0.687
 1846SOL    HW2 6282   1.628   4.249   0.794
 1847SOL     OW 6283   1.133   5.072   1.700
 1847SOL    HW1 6284   1.164   5.072   1.791
 1847SOL    HW2 6285   1.080   4.993   1.693
 1848SOL     OW 6286   0.210   5.150   0.529
 1848SOL    HW1 6287   0.251   5.230   0.563
 1848SOL    HW2 6288   0.131   5.139   0.582
 1849SOL     OW 6289   0.253   4.801   0.877
 1849SOL    HW1 6290   0.262   4.713   0.916
 1849SOL    HW2 6291   0.196   4.848   0.938
 1850SOL     OW 6292   0.623   4.684   0.135
 1850SOL    HW1 6293   0.579   4.764   0.106
 1850SOL    HW2 6294   0.676   4.712   0.210
 1851SOL     OW 6295   1.596   3.847   1.468
 1851SOL    HW1 6296   1.601   3.927   1.417
 1851SOL    HW2 6297   1.583   3.877   1.558
 1852SOL     OW 6298   0.132   4.355   0.581
 1852SOL    HW1 6299   0.086   4.275   0.609
 1852SOL    HW2 6300   0.100   4.422   0.641
 1853SOL     OW 6301   0.015   5.295   0.071
 1853SOL    HW1 6302   0.022   5.211   0.115
 1853SOL    HW2 6303   0.042   0.059   0.136
 1854SOL     OW 6304   1.687   4.642   0.642
 1854SOL    HW1 6305   1.771   4.601   0.621
 1854SOL    HW2 6306   1.666   4.694   0.565
 1855SOL     OW 6307   1.646   4.830   0.434
 1855SOL    HW1 6308   1.727   4.842   0.385
 1855SOL    HW2 6309   1.652   4.891   0.507
 1856SOL     OW 6310   0.130   4.471   1.587
 1856SOL    HW1 6311   0.224   4.486   1.589
 1856SOL    HW2 6312   0.092   4.558   1.598
 1857SOL     OW 6313   0.626   5.096   0.735
 1857SOL    HW1 6314   0.569   5.019   0.735
 1857SOL    HW2 6315   0.601   5.145   0.657
 1858SOL     OW 6316   1.289   4.955   1.426
 1858SOL    HW1 6317   1.323   4.889   1.365
 1858SOL    HW2 6318   1.348   4.952   1.501
 1859SOL     OW 6319   0.823   3.725   0.511
 1859SOL    HW1 6320   0.861   3.810   0.490
 1859SOL    HW2 6321   0.729   3.742   0.517
 1860SOL     OW 6322   0.177   4.668   1.281
 1860SOL    HW1 6323   0.267   4.638   1.267
 1860SOL    HW2 6324   0.134   4.655   1.197
 1861SOL     OW 6325   1.510   4.733   0.210
 1861SOL    HW1 6326   1.450   4.666   0.241
 1861SOL    HW2 6327   1.562   4.757   0.286
 1862SOL     OW 6328   0.335   3.977   1.815
 1862SOL    HW1 6329   0.383   4.059   1.828
 1862SOL    HW2 6330   0.248   3.994   1.851
 1863SOL     OW 6331   1.477   5.146   0.963
 1863SOL    HW1 6332   1.403   5.159   1.023
 1863SOL    HW2 6333   1.464   5.058   0.928
 1864SOL     OW 6334   0.597   4.438   0.280
 1864SOL    HW1 6335   0.618   4.517   0.230
 1864SOL    HW2 6336   0.535   4.467   0.347
 1865SOL     OW 6337   1.279   4.075   0.932
 1865SOL    HW1 6338   1.190   4.043   0.941
 1865SOL    HW2 6339   1.330   4.022   0.994
 1866SOL     OW 6340   0.792   4.341   1.452
 1866SOL    HW1 6341   0.765   4.318   1.541
 1866SOL    HW2 6342   0.752   4.275   1.396
 1867SOL     OW 6343   1.394   4.198   1.678
 1867SOL    HW1 6344   1.396   4.242   1.763
 1867SOL    HW2 6345   1.455   4.125   1.687
 1868SOL     OW 6346   0.956   4.612   1.582
 1868SOL    HW1 6347   1.010   4.541   1.547
 1868SOL    HW2 6348   0.908   4.646   1.506
 1869SOL     OW 6349   0.992   4.137   1.239
 1869SOL    HW1 6350   0.907   4.159   1.277
 1869SOL    HW2 6351   0.971   4.090   1.158
 1870SOL     OW 6352   1.052   4.423   0.427
 1870SOL    HW1 6353   1.067   4.416   0.522
 1870SOL    HW2 6354   0.969   4.376   0.413
 1871SOL     OW 6355   0.068   4.511   0.818
 1871SOL    HW1 6356   0.153   4.516   0.862
 1871SOL    HW2 6357   0.061   4.593   0.769
 1872SOL     OW 6358   0.884   4.081   0.201
 1872SOL    HW1 6359   0.929   4.130   0.132
 1872SOL    HW2 6360   0.884   3.990   0.170
 1873SOL     OW 6361   1.709   4.299   1.828
 1873SOL    HW1 6362   1.671   4.373   1.781
 1873SOL    HW2 6363   1.736   4.238   1.759
 1874SOL     OW 6364   1.376   4.864   0.540
 1874SOL    HW1 6365   1.456   4.850   0.489
 1874SOL    HW2 6366   1.325   4.926   0.488
 1875SOL     OW 6367   0.554   3.908   0.893
 1875SOL    HW1 6368   0.552   3.935   0.985
 1875SOL    HW2 6369   0.552   3.990   0.844
 1876SOL     OW 6370   1.020   5.165   0.469
 1876SOL    HW1 6371   0.945   5.224   0.466
 1876SOL    HW2 6372   1.040   5.157   0.563
 1877SOL     OW 6373   1.800   4.781   0.867
 1877SOL    HW1 6374   1.742   4.764   0.792
 1877SOL    HW2 6375   1.741   4.788   0.942
 1878SOL     OW 6376   1.250   5.240   1.523
 1878SOL    HW1 6377   1.214   5.173   1.582
 1878SOL    HW2 6378   1.179   5.258   1.462
 1879SOL     OW 6379   0.328   4.673   0.245
 1879SOL    HW1 6380   0.411   4.687   0.200
 1879SOL    HW2 6381   0.316   4.578   0.245
 1880SOL     OW 6382   1.478   4.464   0.727
 1880SOL    HW1 6383   1.468   4.422   0.812
 1880SOL    HW2 6384   1.554   4.521   0.736
 1881SOL     OW 6385   0.463   4.988   1.742
 1881SOL    HW1 6386   0.437   4.991   1.649
 1881SOL    HW2 6387   0.380   4.988   1.790
 1882SOL     OW 6388   1.157   0.161   0.237
 1882SOL    HW1 6389   1.072   0.176   0.280
 1882SOL    HW2 6390   1.134   0.141   0.146
 1883SOL     OW 6391   0.205   4.005   1.497
 1883SOL    HW1 6392   0.126   4.057   1.481
 1883SOL    HW2 6393   0.174   3.927   1.543
 1884SOL     OW 6394   1.630   5.095   0.076
 1884SOL    HW1 6395   1.592   5.181   0.092
 1884SOL    HW2 6396   1.555   5.037   0.062
 1885SOL     OW 6397   1.407   3.835   0.443
 1885SOL    HW1 6398   1.397   3.814   0.350
 1885SOL    HW2 6399   1.501   3.842   0.456
 1886SOL     OW 6400   0.382   4.423   0.476
 1886SOL    HW1 6401   0.414   4.333   0.485
 1886SOL    HW2 6402   0.290   4.419   0.501
 1887SOL     OW 6403   1.536   3.949   1.725
 1887SOL    HW1 6404   1.545   3.970   1.818
 1887SOL    HW2 6405   1.467   3.883   1.722
 1888SOL     OW 6406   0.628   3.835   0.136
 1888SOL    HW1 6407   0.723   3.823   0.141
 1888SOL    HW2 6408   0.607   3.816   0.045
 1889SOL     OW 6409   0.767   4.002   1.754
 1889SOL    HW1 6410   0.842   3.942   1.756
 1889SOL    HW2 6411   0.718   3.982   1.833
 1890SOL     OW 6412   1.341   4.312   1.432
 1890SOL    HW1 6413   1.371   4.281   1.517
 1890SOL    HW2 6414   1.377   4.401   1.424
 1891SOL     OW 6415   0.813   5.121   0.935
 1891SOL    HW1 6416   0.893   5.105   0.886
 1891SOL    HW2 6417   0.745   5.126   0.868
 1892SOL     OW 6418   0.928   4.233   0.903
 1892SOL    HW1 6419   0.904   4.225   0.810
 1892SOL    HW2 6420   0.959   4.146   0.927
 1893SOL     OW 6421   0.560   3.786   0.500
 1893SOL    HW1 6422   0.485   3.786   0.560
 1893SOL    HW2 6423   0.549   3.865   0.448
 1894SOL     OW 6424   1.426   4.925   0.036
 1894SOL    HW1 6425   1.455   4.851   0.089
 1894SOL    HW2 6426   1.340   4.947   0.071
 1895SOL     OW 6427   0.313   3.769   0.173
 1895SOL    HW1 6428   0.377   3.841   0.178
 1895SOL    HW2 6429   0.357   3.696   0.218
 1896SOL     OW 6430   0.940   3.971   0.459
 1896SOL    HW1 6431   0.912   4.012   0.378
 1896SOL    HW2 6432   1.034   3.987   0.463
 1897SOL     OW 6433   1.080   4.404   1.460
 1897SOL    HW1 6434   1.010   4.339   1.464
 1897SOL    HW2 6435   1.160   4.354   1.453
 1898SOL     OW 6436   1.263   5.266   0.781
 1898SOL    HW1 6437   1.224   0.046   0.747
 1898SOL    HW2 6438   1.306   5.292   0.862
 1899SOL     OW 6439   0.465   4.873   0.730
 1899SOL    HW1 6440   0.397   4.853   0.794
 1899SOL    HW2 6441   0.425   4.855   0.645
 1900SOL     OW 6442   1.033   4.254   0.029
 1900SOL    HW1 6443   0.989   4.334   0.001
 1900SOL    HW2 6444   1.094   4.282   0.097
 1901SOL     OW 6445   0.087   4.270   1.398
 1901SOL    HW1 6446   0.175   4.277   1.361
 1901SOL    HW2 6447   0.079   4.346   1.455
 1902SOL     OW 6448   0.560   3.951   1.166
 1902SOL    HW1 6449   0.598   3.871   1.203
 1902SOL    HW2 6450   0.469   3.950   1.194
 1903SOL     OW 6451   0.868   4.183   0.639
 1903SOL    HW1 6452   0.824   4.238   0.574
 1903SOL    HW2 6453   0.889   4.102   0.592
 1904SOL     OW 6454   1.016   3.776   0.751
 1904SOL    HW1 6455   0.956   3.769   0.676
 1904SOL    HW2 6456   0.994   3.701   0.806
 1905SOL     OW 6457   1.437   4.889   0.859
 1905SOL    HW1 6458   1.370   4.821   0.855
 1905SOL    HW2 6459   1.461   4.904   0.767
 1906SOL     OW 6460   1.467   4.328   0.978
 1906SOL    HW1 6461   1.416   4.247   0.982
 1906SOL    HW2 6462   1.526   4.323   1.052
 1907SOL     OW 6463   1.849   4.539   0.388
 1907SOL    HW1 6464   1.900   4.486   0.448
 1907SOL    HW2 6465   1.817   4.477   0.322
 1908SOL     OW 6466   0.474   5.158   0.159
 1908SOL    HW1 6467   0.421   5.107   0.220
 1908SOL    HW2 6468   0.500   5.096   0.091
 1909SOL     OW 6469   1.669   4.988   0.648
 1909SOL    HW1 6470   1.763   4.995   0.666
 1909SOL    HW2 6471   1.635   5.076   0.664
 1910SOL     OW 6472   1.398   4.304   0.087
 1910SOL    HW1 6473   1.336   4.284   0.157
 1910SOL    HW2 6474   1.455   4.227   0.082
 1911SOL     OW 6475   0.516   3.987   0.324
 1911SOL    HW1 6476   0.565   3.935   0.260
 1911SOL    HW2 6477   0.502   4.071   0.280
 1912SOL     OW 6478   1.752   4.960   1.577
 1912SOL    HW1 6479   1.838   4.918   1.576
 1912SOL    HW2 6480   1.770   5.052   1.590
 1913SOL     OW 6481   1.065   5.075   1.332
 1913SOL    HW1 6482   0.986   5.049   1.380
 1913SOL    HW2 6483   1.137   5.035   1.380
 1914SOL     OW 6484   1.126   4.926   1.108
 1914SOL    HW1 6485   1.074   4.967   1.177
 1914SOL    HW2 6486   1.082   4.952   1.027
 1915SOL     OW 6487   1.629   4.823   1.077
 1915SOL    HW1 6488   1.624   4.884   1.150
 1915SOL    HW2 6489   1.551   4.841   1.025
 1916SOL     OW 6490   0.919   3.821   1.398
 1916SOL    HW1 6491   0.940   3.802   1.306
 1916SOL    HW2 6492   0.998   3.861   1.434
 1917SOL     OW 6493   0.984   4.839   1.725
 1917SOL    HW1 6494   0.892   4.855   1.743
 1917SOL    HW2 6495   0.985   4.762   1.667
 1918SOL     OW 6496   0.707   4.780   0.381
 1918SOL    HW1 6497   0.694   4.766   0.474
 1918SOL    HW2 6498   0.788   4.733   0.361
 1919SOL     OW 6499   0.421   4.542   1.251
 1919SOL    HW1 6500   0.489   4.549   1.318
 1919SOL    HW2 6501   0.385   4.454   1.262
 1920SOL     OW 6502   1.266   4.101   1.274
 1920SOL    HW1 6503   1.298   4.179   1.320
 1920SOL    HW2 6504   1.175   4.123   1.251
 1921SOL     OW 6505   0.112   5.285   1.322
 1921SOL    HW1 6506   0.056   0.053   1.357
 1921SOL    HW2 6507   0.192   5.289   1.375
 1922SOL     OW 6508   0.347   4.828   0.488
 1922SOL    HW1 6509   0.343   4.907   0.434
 1922SOL    HW2 6510   0.359   4.757   0.425
 1923SOL     OW 6511   0.555   4.260   0.859
 1923SOL    HW1 6512   0.570   4.318   0.785
 1923SOL    HW2 6513   0.618   4.287   0.925
 1924SOL     OW 6514   1.258   5.072   0.386
 1924SOL    HW1 6515   1.312   5.146   0.412
 1924SOL    HW2 6516   1.169   5.096   0.413
 1925SOL     OW 6517   1.269   5.182   1.142
 1925SOL    HW1 6518   1.328   5.194   1.216
 1925SOL    HW2 6519   1.224   5.099   1.160
 1926SOL     OW 6520   1.583   4.348   0.481
 1926SOL    HW1 6521   1.534   4.399   0.545
 1926SOL    HW2 6522   1.619   4.414   0.421
 1927SOL     OW 6523   0.380   5.234   1.315
 1927SOL    HW1 6524   0.363   5.193   1.230
 1927SOL    HW2 6525   0.473   5.256   1.312
 1928SOL     OW 6526   0.413   4.467   1.602
 1928SOL    HW1 6527   0.474   4.513   1.544
 1928SOL    HW2 6528   0.453   4.381   1.615
 1929SOL     OW 6529   1.601   4.503   1.682
 1929SOL    HW1 6530   1.514   4.543   1.674
 1929SOL    HW2 6531   1.653   4.544   1.613
 1930SOL     OW 6532   0.996   3.846   1.756
 1930SOL    HW1 6533   1.051   3.919   1.727
 1930SOL    HW2 6534   1.044   3.767   1.730
 1931SOL     OW 6535   0.497   3.766   1.747
 1931SOL    HW1 6536   0.456   3.712   1.680
 1931SOL    HW2 6537   0.437   3.839   1.760
 1932SOL     OW 6538   0.586   4.597   1.032
 1932SOL    HW1 6539   0.613   4.688   1.029
 1932SOL    HW2 6540   0.529   4.591   1.109
 1933SOL     OW 6541   1.358   4.582   1.030
 1933SOL    HW1 6542   1.275   4.573   0.983
 1933SOL    HW2 6543   1.398   4.495   1.025
 1934SOL     OW 6544   1.204   4.252   0.271
 1934SOL    HW1 6545   1.212   4.173   0.324
 1934SOL    HW2 6546   1.161   4.316   0.328
 1935SOL     OW 6547   0.302   3.927   1.248
 1935SOL    HW1 6548   0.267   3.953   1.333
 1935SOL    HW2 6549   0.289   3.833   1.243
 1936SOL     OW 6550   0.043   5.021   1.277
 1936SOL    HW1 6551   0.075   4.971   1.352
 1936SOL    HW2 6552   0.046   5.112   1.307
 1937SOL     OW 6553   0.725   4.355   1.058
 1937SOL    HW1 6554   0.799   4.339   1.000
 1937SOL    HW2 6555   0.696   4.444   1.038
 1938SOL     OW 6556   1.734   4.684   1.852
 1938SOL    HW1 6557   1.688   4.623   1.794
 1938SOL    HW2 6558   1.675   4.697   1.925
 1939SOL     OW 6559   0.325   3.787   0.635
 1939SOL    HW1 6560   0.309   3.877   0.664
 1939SOL    HW2 6561   0.331   3.736   0.716
 1940SOL     OW 6562   1.620   4.099   0.370
 1940SOL    HW1 6563   1.644   4.034   0.436
 1940SOL    HW2 6564   1.594   4.176   0.420
 1941SOL     OW 6565   1.028   4.483   0.961
 1941SOL    HW1 6566   1.025   4.501   1.055
 1941SOL    HW2 6567   1.001   4.392   0.953
 1942SOL     OW 6568   1.855   5.214   1.586
 1942SOL    HW1 6569   1.850   5.288   1.526
 1942SOL    HW2 6570   1.924   5.237   1.648
 1943SOL     OW 6571   0.354   4.642   1.806
 1943SOL    HW1 6572   0.435   4.660   1.854
 1943SOL    HW2 6573   0.378   4.577   1.740
 1944SOL     OW 6574   1.520   4.023   0.126
 1944SOL    HW1 6575   1.470   3.943   0.142
 1944SOL    HW2 6576   1.559   4.045   0.211
 1945SOL     OW 6577   1.294   4.548   0.020
 1945SOL    HW1 6578   1.333   4.463   0.039
 1945SOL    HW2 6579   1.354   4.588   8.036
 1946SOL     OW 6580   1.059   5.077   0.829
 1946SOL    HW1 6581   1.064   4.993   0.784
 1946SOL    HW2 6582   1.144   5.117   0.814
 1947SOL     OW 6583   0.315   4.533   0.949
 1947SOL    HW1 6584   0.409   4.551   0.945
 1947SOL    HW2 6585   0.309   4.444   0.982
 1948SOL     OW 6586   0.335   4.249   1.015
 1948SOL    HW1 6587   0.300   4.161   1.000
 1948SOL    HW2 6588   0.410   4.255   0.955
 1949SOL     OW 6589   1.134   4.100   1.682
 1949SOL    HW1 6590   1.087   4.155   1.744
 1949SOL    HW2 6591   1.222   4.138   1.678
 1950SOL     OW 6592   1.161   3.927   1.470
 1950SOL    HW1 6593   1.150   3.990   1.541
 1950SOL    HW2 6594   1.200   3.978   1.399
 1951SOL     OW 6595   0.011   5.052   0.196
 1951SOL    HW1 6596   5.220   5.058   0.167
 1951SOL    HW2 6597   0.017   4.968   0.241
 1952SOL     OW 6598   0.984   4.516   1.227
 1952SOL    HW1 6599   1.039   4.493   1.302
 1952SOL    HW2 6600   0.898   4.479   1.248
 1953SOL     OW 6601   0.032   4.278   1.114
 1953SOL    HW1 6602   0.121   4.260   1.083
 1953SOL    HW2 6603   0.038   4.266   1.209
 1954SOL     OW 6604   0.175   4.237   1.712
 1954SOL    HW1 6605   0.241   4.201   1.652
 1954SOL    HW2 6606   0.146   4.318   1.670
 1955SOL     OW 6607   1.376   4.663   1.658
 1955SOL    HW1 6608   1.397   4.757   1.656
 1955SOL    HW2 6609   1.373   4.637   1.566
 1956SOL     OW 6610   0.818   4.294   0.365
 1956SOL    HW1 6611   0.828   4.222   0.303
 1956SOL    HW2 6612   0.742   4.342   0.334
 1957SOL     OW 6613   1.642   4.325   1.187
 1957SOL    HW1 6614   1.631   4.266   1.261
 1957SOL    HW2 6615   1.729   4.305   1.152
 1958SOL     OW 6616   0.210   5.280   1.732
 1958SOL    HW1 6617   0.178   0.023   1.811
 1958SOL    HW2 6618   0.213   5.187   1.755
 1959SOL     OW 6619   0.700   4.175   1.260
 1959SOL    HW1 6620   0.648   4.100   1.230
 1959SOL    HW2 6621   0.696   4.238   1.188
 1960SOL     OW 6622   0.467   4.214   0.181
 1960SOL    HW1 6623   0.532   4.281   0.201
 1960SOL    HW2 6624   0.383   4.259   0.184
 1961SOL     OW 6625   0.152   4.861   1.472
 1961SOL    HW1 6626   0.148   4.811   1.554
 1961SOL    HW2 6627   0.162   4.795   1.404
 1962SOL     OW 6628   1.328   4.770   1.223
 1962SOL    HW1 6629   1.350   4.708   1.154
 1962SOL    HW2 6630   1.256   4.822   1.186
 1963SOL     OW 6631   1.307   4.573   0.307
 1963SOL    HW1 6632   1.230   4.545   0.357
 1963SOL    HW2 6633   1.281   4.562   0.216
 1964SOL     OW 6634   0.076   4.921   1.030
 1964SOL    HW1 6635   0.064   4.960   1.117
 1964SOL    HW2 6636   5.290   4.926   0.989
 1965SOL     OW 6637   0.751   0.039   1.709
 1965SOL    HW1 6638   0.658   0.062   1.718
 1965SOL    HW2 6639   0.772   0.060   1.618
 1966SOL     OW 6640   0.905   3.815   0.133
 1966SOL    HW1 6641   0.925   3.800   0.041
 1966SOL    HW2 6642   0.968   3.762   0.181
 1967SOL     OW 6643   1.719   3.868   0.510
 1967SOL    HW1 6644   1.791   3.853   0.450
 1967SOL    HW2 6645   1.703   3.783   0.552
 1968SOL     OW 6646   1.277   4.649   0.671
 1968SOL    HW1 6647   1.351   4.588   0.677
 1968SOL    HW2 6648   1.311   4.721   0.619
 1969SOL     OW 6649   0.819   4.994   1.422
 1969SOL    HW1 6650   0.789   5.030   1.505
 1969SOL    HW2 6651   0.744   5.002   1.364
 1970SOL     OW 6652   1.840   3.897   0.967
 1970SOL    HW1 6653   1.869   3.810   0.940
 1970SOL    HW2 6654   1.754   3.907   0.927
 1971SOL     OW 6655   0.270   4.040   0.717
 1971SOL    HW1 6656   0.188   4.085   0.697
 1971SOL    HW2 6657   0.270   4.030   0.812
 1972SOL     OW 6658   1.141   0.020   0.005
 1972SOL    HW1 6659   1.156   5.230   0.035
 1972SOL    HW2 6660   1.144   0.014   7.989
 1973SOL     OW 6661   0.825   4.728   1.371
 1973SOL    HW1 6662   0.869   4.722   1.286
 1973SOL    HW2 6663   0.828   4.821   1.393
 1974SOL     OW 6664   0.918   4.638   0.298
 1974SOL    HW1 6665   0.973   4.665   0.224
 1974SOL    HW2 6666   0.965   4.566   0.339
 1975SOL     OW 6667   0.366   5.029   1.499
 1975SOL    HW1 6668   0.364   5.099   1.434
 1975SOL    HW2 6669   0.291   4.973   1.476
 1976SOL     OW 6670   1.613   5.004   1.282
 1976SOL    HW1 6671   1.669   4.998   1.359
 1976SOL    HW2 6672   1.550   5.073   1.304
 1977SOL     OW 6673   1.053   4.833   0.711
 1977SOL    HW1 6674   0.981   4.782   0.748
 1977SOL    HW2 6675   1.114   4.768   0.676
 1978SOL     OW 6676   1.021   3.964   0.966
 1978SOL    HW1 6677   1.016   3.916   0.883
 1978SOL    HW2 6678   1.016   3.896   1.033
 1979SOL     OW 6679   1.721   4.116   1.380
 1979SOL    HW1 6680   1.793   4.179   1.379
 1979SOL    HW2 6681   1.751   4.045   1.324
 1980SOL     OW 6682   0.269   5.036   0.294
 1980SOL    HW1 6683   0.187   5.050   0.248
 1980SOL    HW2 6684   0.258   5.083   0.377
 1981SOL     OW 6685   0.116   4.742   1.720
 1981SOL    HW1 6686   0.044   4.704   1.771
 1981SOL    HW2 6687   0.195   4.709   1.761
 1982SOL     OW 6688   0.674   3.920   1.499
 1982SOL    HW1 6689   0.758   3.901   1.457
 1982SOL    HW2 6690   0.697   3.951   1.587
 1983SOL     OW 6691   0.042   4.117   0.028
 1983SOL    HW1 6692   0.019   4.029   0.058
 1983SOL    HW2 6693   0.122   4.105   8.057
 1984SOL     OW 6694   1.430   4.582   1.401
 1984SOL    HW1 6695   1.382   4.642   1.345
 1984SOL    HW2 6696   1.520   4.585   1.367
 1985SOL     OW 6697   0.052   3.859   0.218
 1985SOL    HW1 6698   0.052   3.946   0.256
 1985SOL    HW2 6699   0.144   3.836   0.208
 1986SOL     OW 6700   1.182   5.064   0.113
 1986SOL    HW1 6701   1.087   5.049   0.111
 1986SOL    HW2 6702   1.205   5.060   0.205
 1987SOL     OW 6703   0.619   4.555   1.435
 1987SOL    HW1 6704   0.675   4.631   1.419
 1987SOL    HW2 6705   0.680   4.481   1.443
 1988SOL     OW 6706   0.717   4.288   1.705
 1988SOL    HW1 6707   0.758   4.351   1.765
 1988SOL    HW2 6708   0.747   4.203   1.736
 1989SOL     OW 6709   1.473   4.924   1.631
 1989SOL    HW1 6710   1.459   4.936   1.725
 1989SOL    HW2 6711   1.567   4.937   1.619
 1990SOL     OW 6712   1.670   4.606   1.255
 1990SOL    HW1 6713   1.663   4.520   1.212
 1990SOL    HW2 6714   1.660   4.669   1.184
 1991SOL     OW 6715   1.218   4.042   0.459
 1991SOL    HW1 6716   1.283   3.972   0.452
 1991SOL    HW2 6717   1.245   4.093   0.536
 1992SOL     OW 6718   0.590   4.461   0.668
 1992SOL    HW1 6719   0.629   4.547   0.655
 1992SOL    HW2 6720   0.519   4.456   0.604
 1993SOL     OW 6721   1.763   4.085   1.650
 1993SOL    HW1 6722   1.746   4.100   1.557
 1993SOL    HW2 6723   1.691   4.029   1.679
 1994SOL     OW 6724   1.745   4.657   1.512
 1994SOL    HW1 6725   1.741   4.752   1.525
 1994SOL    HW2 6726   1.729   4.646   1.418
 1995SOL     OW 6727   0.907   5.096   0.034
 1995SOL    HW1 6728   0.849   5.079   0.108
 1995SOL    HW2 6729   0.861   5.161   8.061
 1996SOL     OW 6730   0.868   4.691   0.855
 1996SOL    HW1 6731   0.917   4.619   0.896
 1996SOL    HW2 6732   0.833   4.741   0.929
 1997SOL     OW 6733   1.079   4.703   0.088
 1997SOL    HW1 6734   1.061   4.759   0.012
 1997SOL    HW2 6735   1.156   4.652   0.062
 1998SOL     OW 6736   0.220   5.026   1.854
 1998SOL    HW1 6737   0.155   4.958   1.835
 1998SOL    HW2 6738   0.216   5.036   1.949
 1999SOL     OW 6739   0.081   4.930   0.657
 1999SOL    HW1 6740   0.103   4.905   0.746
 1999SOL    HW2 6741   0.165   4.942   0.613
 2000SOL     OW 6742   0.671   5.107   1.609
 2000SOL    HW1 6743   0.594   5.073   1.656
 2000SOL    HW2 6744   0.701   5.180   1.663
 2001SOL     OW 6745   1.813   3.909   1.238
 2001SOL    HW1 6746   1.823   3.815   1.252
 2001SOL    HW2 6747   1.822   3.919   1.143
 2002SOL     OW 6748   0.432   4.162   0.523
 2002SOL    HW1 6749   0.461   4.089   0.469
 2002SOL    HW2 6750   0.386   4.121   0.596
 2003SOL     OW 6751   1.707   5.223   1.119
 2003SOL    HW1 6752   1.633   5.207   1.060
 2003SOL    HW2 6753   1.713   5.143   1.172
 2004SOL     OW 6754   0.336   4.283   1.291
 2004SOL    HW1 6755   0.389   4.224   1.345
 2004SOL    HW2 6756   0.350   4.253   1.201
 2005SOL     OW 6757   1.432   3.949   1.118
 2005SOL    HW1 6758   1.458   3.869   1.165
 2005SOL    HW2 6759   1.380   3.998   1.181
 2006SOL     OW 6760   1.009   3.743   1.143
 2006SOL    HW1 6761   0.954   3.675   1.103
 2006SOL    HW2 6762   1.097   3.705   1.145
 2007SOL     OW 6763   0.797   5.039   0.282
 2007SOL    HW1 6764   0.738   4.968   0.308
 2007SOL    HW2 6765   0.852   5.054   0.358
 2008SOL     OW 6766   0.639   0.002   1.286
 2008SOL    HW1 6767   0.643   0.057   1.365
 2008SOL    HW2 6768   0.730   5.285   1.264
 2009SOL     OW 6769   1.356   3.779   0.184
 2009SOL    HW1 6770   1.378   3.730   0.104
 2009SOL    HW2 6771   1.271   3.745   0.209
 2010SOL     OW 6772   1.297   4.185   0.681
 2010SOL    HW1 6773   1.243   4.264   0.689
 2010SOL    HW2 6774   1.293   4.145   0.768
 2011SOL     OW 6775   1.587   3.927   0.878
 2011SOL    HW1 6776   1.525   3.946   0.948
 2011SOL    HW2 6777   1.586   4.005   0.823
 2012SOL     OW 6778   0.041   4.801   0.305
 2012SOL    HW1 6779   0.133   4.777   0.293
 2012SOL    HW2 6780   5.296   4.718   0.323
 2013SOL     OW 6781   0.234   4.356   1.977
 2013SOL    HW1 6782   0.159   4.325   2.029
 2013SOL    HW2 6783   0.219   4.321   1.890
 2014SOL     OW 6784   0.241   3.999   2.852
 2014SOL    HW1 6785   0.255   3.965   2.940
 2014SOL    HW2 6786   0.157   3.962   2.825
 2015SOL     OW 6787   5.299   4.121   2.515
 2015SOL    HW1 6788   5.206   4.144   2.521
 2015SOL    HW2 6789   5.299   4.030   2.484
 2016SOL     OW 6790   0.573   4.999   3.044
 2016SOL    HW1 6791   0.494   5.006   2.991
 2016SOL    HW2 6792   0.591   5.089   3.071
 2017SOL     OW 6793   1.555   5.232   2.551
 2017SOL    HW1 6794   1.534   5.228   2.644
 2017SOL    HW2 6795   1.476   5.267   2.510
 2018SOL     OW 6796   1.130   4.422   2.563
 2018SOL    HW1 6797   1.179   4.503   2.549
 2018SOL    HW2 6798   1.083   4.436   2.646
 2019SOL     OW 6799   1.766   4.330   2.091
 2019SOL    HW1 6800   1.746   4.322   1.998
 2019SOL    HW2 6801   1.731   4.250   2.130
 2020SOL     OW 6802   0.759   4.868   2.898
 2020SOL    HW1 6803   0.691   4.897   2.960
 2020SOL    HW2 6804   0.786   4.948   2.853
 2021SOL     OW 6805   0.866   4.500   3.684
 2021SOL    HW1 6806   0.854   4.572   3.746
 2021SOL    HW2 6807   0.889   4.543   3.601
 2022SOL     OW 6808   0.686   4.727   2.510
 2022SOL    HW1 6809   0.751   4.715   2.580
 2022SOL    HW2 6810   0.618   4.781   2.551
 2023SOL     OW 6811   0.708   4.873   3.673
 2023SOL    HW1 6812   0.756   4.952   3.697
 2023SOL    HW2 6813   0.625   4.904   3.638
 2024SOL     OW 6814   0.376   5.145   2.915
 2024SOL    HW1 6815   0.282   5.153   2.902
 2024SOL    HW2 6816   0.415   5.200   2.847
 2025SOL     OW 6817   1.455   5.220   3.209
 2025SOL    HW1 6818   1.509   5.293   3.241
 2025SOL    HW2 6819   1.388   5.208   3.277
 2026SOL     OW 6820   0.450   4.124   3.356
 2026SOL    HW1 6821   0.524   4.063   3.357
 2026SOL    HW2 6822   0.373   4.068   3.364
 2027SOL     OW 6823   1.612   4.172   2.602
 2027SOL    HW1 6824   1.537   4.196   2.548
 2027SOL    HW2 6825   1.628   4.250   2.655
 2028SOL     OW 6826   1.133   5.072   3.562
 2028SOL    HW1 6827   1.164   5.072   3.653
 2028SOL    HW2 6828   1.080   4.993   3.555
 2029SOL     OW 6829   0.212   5.151   2.393
 2029SOL    HW1 6830   0.250   5.231   2.429
 2029SOL    HW2 6831   0.134   5.136   2.446
 2030SOL     OW 6832   0.252   4.800   2.738
 2030SOL    HW1 6833   0.263   4.713   2.778
 2030SOL    HW2 6834   0.196   4.847   2.799
 2031SOL     OW 6835   0.584   4.706   1.996
 2031SOL    HW1 6836   0.630   4.754   1.928
 2031SOL    HW2 6837   0.625   4.735   2.078
 2032SOL     OW 6838   1.597   3.847   3.330
 2032SOL    HW1 6839   1.601   3.928   3.279
 2032SOL    HW2 6840   1.583   3.877   3.420
 2033SOL     OW 6841   0.126   4.356   2.440
 2033SOL    HW1 6842   0.088   4.274   2.471
 2033SOL    HW2 6843   0.099   4.421   2.505
 2034SOL     OW 6844   5.299   5.300   1.944
 2034SOL    HW1 6845   0.016   5.212   1.979
 2034SOL    HW2 6846   0.025   0.058   2.016
 2035SOL     OW 6847   1.689   4.642   2.502
 2035SOL    HW1 6848   1.773   4.600   2.481
 2035SOL    HW2 6849   1.668   4.693   2.423
 2036SOL     OW 6850   1.645   4.831   2.292
 2036SOL    HW1 6851   1.731   4.837   2.248
 2036SOL    HW2 6852   1.651   4.892   2.365
 2037SOL     OW 6853   0.130   4.471   3.449
 2037SOL    HW1 6854   0.225   4.486   3.451
 2037SOL    HW2 6855   0.092   4.558   3.461
 2038SOL     OW 6856   0.626   5.096   2.596
 2038SOL    HW1 6857   0.569   5.019   2.597
 2038SOL    HW2 6858   0.601   5.144   2.518
 2039SOL     OW 6859   1.289   4.955   3.288
 2039SOL    HW1 6860   1.324   4.889   3.227
 2039SOL    HW2 6861   1.348   4.952   3.363
 2040SOL     OW 6862   0.822   3.723   2.371
 2040SOL    HW1 6863   0.862   3.808   2.352
 2040SOL    HW2 6864   0.728   3.741   2.377
 2041SOL     OW 6865   0.178   4.669   3.143
 2041SOL    HW1 6866   0.268   4.639   3.130
 2041SOL    HW2 6867   0.134   4.653   3.059
 2042SOL     OW 6868   1.531   4.718   2.059
 2042SOL    HW1 6869   1.461   4.660   2.090
 2042SOL    HW2 6870   1.572   4.752   2.139
 2043SOL     OW 6871   0.335   3.977   3.677
 2043SOL    HW1 6872   0.383   4.059   3.690
 2043SOL    HW2 6873   0.248   3.994   3.713
 2044SOL     OW 6874   1.476   5.146   2.824
 2044SOL    HW1 6875   1.403   5.159   2.885
 2044SOL    HW2 6876   1.464   5.058   2.790
 2045SOL     OW 6877   0.596   4.446   2.127
 2045SOL    HW1 6878   0.603   4.526   2.077
 2045SOL    HW2 6879   0.531   4.466   2.195
 2046SOL     OW 6880   1.279   4.075   2.794
 2046SOL    HW1 6881   1.190   4.042   2.803
 2046SOL    HW2 6882   1.330   4.022   2.856
 2047SOL     OW 6883   0.792   4.341   3.314
 2047SOL    HW1 6884   0.765   4.318   3.403
 2047SOL    HW2 6885   0.752   4.275   3.258
 2048SOL     OW 6886   1.394   4.198   3.540
 2048SOL    HW1 6887   1.396   4.242   3.625
 2048SOL    HW2 6888   1.455   4.125   3.549
 2049SOL     OW 6889   0.956   4.612   3.444
 2049SOL    HW1 6890   1.010   4.541   3.409
 2049SOL    HW2 6891   0.908   4.645   3.368
 2050SOL     OW 6892   0.992   4.137   3.101
 2050SOL    HW1 6893   0.907   4.158   3.139
 2050SOL    HW2 6894   0.972   4.090   3.020
 2051SOL     OW 6895   1.051   4.423   2.288
 2051SOL    HW1 6896   1.066   4.416   2.382
 2051SOL    HW2 6897   0.968   4.376   2.274
 2052SOL     OW 6898   0.073   4.510   2.673
 2052SOL    HW1 6899   0.154   4.515   2.723
 2052SOL    HW2 6900   0.060   4.598   2.638
 2053SOL     OW 6901   0.892   4.072   2.056
 2053SOL    HW1 6902   0.932   4.134   1.995
 2053SOL    HW2 6903   0.908   3.986   2.018
 2054SOL     OW 6904   1.709   4.299   3.690
 2054SOL    HW1 6905   1.671   4.373   3.643
 2054SOL    HW2 6906   1.736   4.238   3.621
 2055SOL     OW 6907   1.377   4.864   2.402
 2055SOL    HW1 6908   1.458   4.850   2.353
 2055SOL    HW2 6909   1.326   4.925   2.348
 2056SOL     OW 6910   0.555   3.908   2.755
 2056SOL    HW1 6911   0.552   3.935   2.847
 2056SOL    HW2 6912   0.551   3.989   2.705
 2057SOL     OW 6913   1.024   5.170   2.332
 2057SOL    HW1 6914   0.945   5.225   2.326
 2057SOL    HW2 6915   1.038   5.159   2.426
 2058SOL     OW 6916   1.800   4.781   2.728
 2058SOL    HW1 6917   1.743   4.764   2.653
 2058SOL    HW2 6918   1.740   4.788   2.803
 2059SOL     OW 6919   1.250   5.239   3.385
 2059SOL    HW1 6920   1.214   5.173   3.444
 2059SOL    HW2 6921   1.179   5.258   3.324
 2060SOL     OW 6922   0.317   4.676   2.109
 2060SOL    HW1 6923   0.399   4.699   2.065
 2060SOL    HW2 6924   0.293   4.591   2.073
 2061SOL     OW 6925   1.477   4.466   2.589
 2061SOL    HW1 6926   1.468   4.422   2.674
 2061SOL    HW2 6927   1.555   4.521   2.599
 2062SOL     OW 6928   0.463   4.988   3.604
 2062SOL    HW1 6929   0.437   4.991   3.512
 2062SOL    HW2 6930   0.380   4.988   3.652
 2063SOL     OW 6931   1.070   0.181   2.069
 2063SOL    HW1 6932   1.078   0.107   2.129
 2063SOL    HW2 6933   1.106   0.149   1.987
 2064SOL     OW 6934   0.205   4.005   3.359
 2064SOL    HW1 6935   0.125   4.057   3.343
 2064SOL    HW2 6936   0.174   3.927   3.405
 2065SOL     OW 6937   1.623   5.100   1.969
 2065SOL    HW1 6938   1.618   5.178   1.913
 2065SOL    HW2 6939   1.555   5.042   1.935
 2066SOL     OW 6940   1.401   3.832   2.294
 2066SOL    HW1 6941   1.391   3.807   2.202
 2066SOL    HW2 6942   1.496   3.838   2.307
 2067SOL     OW 6943   0.386   4.420   2.341
 2067SOL    HW1 6944   0.415   4.329   2.350
 2067SOL    HW2 6945   0.293   4.417   2.361
 2068SOL     OW 6946   1.536   3.949   3.587
 2068SOL    HW1 6947   1.545   3.970   3.680
 2068SOL    HW2 6948   1.467   3.883   3.584
 2069SOL     OW 6949   0.632   3.847   1.968
 2069SOL    HW1 6950   0.704   3.784   1.979
 2069SOL    HW2 6951   0.585   3.815   1.891
 2070SOL     OW 6952   0.767   4.002   3.616
 2070SOL    HW1 6953   0.842   3.942   3.618
 2070SOL    HW2 6954   0.718   3.981   3.695
 2071SOL     OW 6955   1.341   4.312   3.294
 2071SOL    HW1 6956   1.371   4.281   3.379
 2071SOL    HW2 6957   1.377   4.401   3.286
 2072SOL     OW 6958   0.813   5.121   2.797
 2072SOL    HW1 6959   0.893   5.105   2.748
 2072SOL    HW2 6960   0.744   5.126   2.730
 2073SOL     OW 6961   0.928   4.234   2.765
 2073SOL    HW1 6962   0.904   4.225   2.673
 2073SOL    HW2 6963   0.959   4.147   2.790
 2074SOL     OW 6964   0.560   3.785   2.358
 2074SOL    HW1 6965   0.485   3.785   2.418
 2074SOL    HW2 6966   0.549   3.865   2.306
 2075SOL     OW 6967   1.428   4.924   1.901
 2075SOL    HW1 6968   1.459   4.848   1.951
 2075SOL    HW2 6969   1.340   4.941   1.935
 2076SOL     OW 6970   0.305   3.771   2.042
 2076SOL    HW1 6971   0.367   3.835   2.006
 2076SOL    HW2 6972   0.360   3.706   2.086
 2077SOL     OW 6973   0.939   3.970   2.323
 2077SOL    HW1 6974   0.911   4.012   2.241
 2077SOL    HW2 6975   1.033   3.984   2.326
 2078SOL     OW 6976   1.080   4.404   3.322
 2078SOL    HW1 6977   1.010   4.338   3.326
 2078SOL    HW2 6978   1.161   4.354   3.315
 2079SOL     OW 6979   1.264   5.267   2.641
 2079SOL    HW1 6980   1.222   0.048   2.612
 2079SOL    HW2 6981   1.307   5.290   2.723
 2080SOL     OW 6982   0.465   4.873   2.591
 2080SOL    HW1 6983   0.397   4.853   2.655
 2080SOL    HW2 6984   0.425   4.853   2.507
 2081SOL     OW 6985   1.024   4.267   1.884
 2081SOL    HW1 6986   0.982   4.350   1.864
 2081SOL    HW2 6987   1.089   4.288   1.951
 2082SOL     OW 6988   0.087   4.270   3.260
 2082SOL    HW1 6989   0.175   4.277   3.223
 2082SOL    HW2 6990   0.079   4.346   3.317
 2083SOL     OW 6991   0.560   3.951   3.028
 2083SOL    HW1 6992   0.598   3.871   3.064
 2083SOL    HW2 6993   0.469   3.950   3.056
 2084SOL     OW 6994   0.868   4.183   2.502
 2084SOL    HW1 6995   0.822   4.237   2.438
 2084SOL    HW2 6996   0.889   4.102   2.455
 2085SOL     OW 6997   1.015   3.777   2.614
 2085SOL    HW1 6998   0.957   3.769   2.538
 2085SOL    HW2 6999   0.994   3.701   2.669
 2086SOL     OW 7000   1.437   4.890   2.721
 2086SOL    HW1 7001   1.371   4.821   2.717
 2086SOL    HW2 7002   1.462   4.903   2.629
 2087SOL     OW 7003   1.467   4.328   2.840
 2087SOL    HW1 7004   1.416   4.247   2.843
 2087SOL    HW2 7005   1.526   4.323   2.914
 2088SOL     OW 7006   1.846   4.540   2.244
 2088SOL    HW1 7007   1.902   4.489   2.302
 2088SOL    HW2 7008   1.817   4.478   2.178
 2089SOL     OW 7009   0.484   5.143   2.017
 2089SOL    HW1 7010   0.420   5.094   2.068
 2089SOL    HW2 7011   0.480   5.104   1.930
 2090SOL     OW 7012   1.669   4.987   2.509
 2090SOL    HW1 7013   1.763   4.994   2.526
 2090SOL    HW2 7014   1.635   5.075   2.526
 2091SOL     OW 7015   1.394   4.296   1.933
 2091SOL    HW1 7016   1.333   4.276   2.005
 2091SOL    HW2 7017   1.478   4.263   1.964
 2092SOL     OW 7018   0.524   3.987   2.180
 2092SOL    HW1 7019   0.568   3.939   2.110
 2092SOL    HW2 7020   0.503   4.072   2.141
 2093SOL     OW 7021   1.751   4.960   3.439
 2093SOL    HW1 7022   1.838   4.918   3.438
 2093SOL    HW2 7023   1.770   5.052   3.452
 2094SOL     OW 7024   1.065   5.075   3.194
 2094SOL    HW1 7025   0.986   5.049   3.242
 2094SOL    HW2 7026   1.137   5.035   3.242
 2095SOL     OW 7027   1.126   4.926   2.970
 2095SOL    HW1 7028   1.075   4.966   3.040
 2095SOL    HW2 7029   1.081   4.951   2.889
 2096SOL     OW 7030   1.629   4.823   2.939
 2096SOL    HW1 7031   1.625   4.884   3.012
 2096SOL    HW2 7032   1.551   4.841   2.887
 2097SOL     OW 7033   0.919   3.821   3.260
 2097SOL    HW1 7034   0.940   3.802   3.168
 2097SOL    HW2 7035   0.998   3.861   3.296
 2098SOL     OW 7036   0.984   4.839   3.587
 2098SOL    HW1 7037   0.892   4.854   3.605
 2098SOL    HW2 7038   0.985   4.762   3.529
 2099SOL     OW 7039   0.703   4.780   2.235
 2099SOL    HW1 7040   0.693   4.766   2.329
 2099SOL    HW2 7041   0.781   4.731   2.211
 2100SOL     OW 7042   0.421   4.542   3.113
 2100SOL    HW1 7043   0.489   4.549   3.180
 2100SOL    HW2 7044   0.385   4.454   3.124
 2101SOL     OW 7045   1.266   4.101   3.136
 2101SOL    HW1 7046   1.298   4.179   3.182
 2101SOL    HW2 7047   1.175   4.123   3.113
 2102SOL     OW 7048   0.113   5.289   3.181
 2102SOL    HW1 7049   0.053   0.050   3.223
 2102SOL    HW2 7050   0.190   5.289   3.237
 2103SOL     OW 7051   0.345   4.827   2.349
 2103SOL    HW1 7052   0.351   4.906   2.295
 2103SOL    HW2 7053   0.353   4.755   2.288
 2104SOL     OW 7054   0.555   4.260   2.721
 2104SOL    HW1 7055   0.571   4.319   2.647
 2104SOL    HW2 7056   0.619   4.288   2.787
 2105SOL     OW 7057   1.260   5.076   2.247
 2105SOL    HW1 7058   1.316   5.143   2.286
 2105SOL    HW2 7059   1.172   5.099   2.277
 2106SOL     OW 7060   1.269   5.181   3.003
 2106SOL    HW1 7061   1.328   5.195   3.078
 2106SOL    HW2 7062   1.225   5.098   3.022
 2107SOL     OW 7063   1.582   4.347   2.340
 2107SOL    HW1 7064   1.536   4.402   2.404
 2107SOL    HW2 7065   1.627   4.410   2.284
 2108SOL     OW 7066   0.381   5.232   3.178
 2108SOL    HW1 7067   0.363   5.192   3.092
 2108SOL    HW2 7068   0.473   5.256   3.174
 2109SOL     OW 7069   0.413   4.467   3.464
 2109SOL    HW1 7070   0.474   4.513   3.406
 2109SOL    HW2 7071   0.453   4.381   3.477
 2110SOL     OW 7072   1.601   4.503   3.544
 2110SOL    HW1 7073   1.514   4.543   3.536
 2110SOL    HW2 7074   1.653   4.544   3.475
 2111SOL     OW 7075   0.996   3.846   3.618
 2111SOL    HW1 7076   1.051   3.919   3.588
 2111SOL    HW2 7077   1.044   3.767   3.592
 2112SOL     OW 7078   0.497   3.766   3.609
 2112SOL    HW1 7079   0.456   3.712   3.543
 2112SOL    HW2 7080   0.437   3.839   3.621
 2113SOL     OW 7081   0.586   4.597   2.894
 2113SOL    HW1 7082   0.614   4.688   2.892
 2113SOL    HW2 7083   0.529   4.591   2.971
 2114SOL     OW 7084   1.358   4.582   2.891
 2114SOL    HW1 7085   1.275   4.573   2.845
 2114SOL    HW2 7086   1.398   4.495   2.887
 2115SOL     OW 7087   1.205   4.253   2.130
 2115SOL    HW1 7088   1.213   4.174   2.184
 2115SOL    HW2 7089   1.162   4.317   2.186
 2116SOL     OW 7090   0.302   3.927   3.110
 2116SOL    HW1 7091   0.267   3.952   3.196
 2116SOL    HW2 7092   0.289   3.833   3.106
 2117SOL     OW 7093   0.044   5.022   3.139
 2117SOL    HW1 7094   0.075   4.972   3.214
 2117SOL    HW2 7095   0.045   5.113   3.168
 2118SOL     OW 7096   0.725   4.355   2.921
 2118SOL    HW1 7097   0.799   4.339   2.862
 2118SOL    HW2 7098   0.697   4.444   2.899
 2119SOL     OW 7099   1.734   4.684   3.714
 2119SOL    HW1 7100   1.688   4.623   3.656
 2119SOL    HW2 7101   1.675   4.697   3.787
 2120SOL     OW 7102   0.327   3.786   2.496
 2120SOL    HW1 7103   0.307   3.875   2.524
 2120SOL    HW2 7104   0.331   3.736   2.578
 2121SOL     OW 7105   1.615   4.098   2.229
 2121SOL    HW1 7106   1.643   4.034   2.295
 2121SOL    HW2 7107   1.593   4.176   2.280
 2122SOL     OW 7108   1.028   4.483   2.823
 2122SOL    HW1 7109   1.025   4.501   2.917
 2122SOL    HW2 7110   1.001   4.392   2.815
 2123SOL     OW 7111   1.855   5.214   3.447
 2123SOL    HW1 7112   1.850   5.288   3.388
 2123SOL    HW2 7113   1.924   5.237   3.510
 2124SOL     OW 7114   0.354   4.643   3.668
 2124SOL    HW1 7115   0.435   4.660   3.716
 2124SOL    HW2 7116   0.378   4.577   3.602
 2125SOL     OW 7117   1.530   3.997   1.989
 2125SOL    HW1 7118   1.465   3.932   2.016
 2125SOL    HW2 7119   1.562   4.033   2.072
 2126SOL     OW 7120   1.292   4.550   1.894
 2126SOL    HW1 7121   1.335   4.465   1.897
 2126SOL    HW2 7122   1.323   4.589   1.812
 2127SOL     OW 7123   1.059   5.078   2.689
 2127SOL    HW1 7124   1.063   4.993   2.645
 2127SOL    HW2 7125   1.145   5.117   2.676
 2128SOL     OW 7126   0.315   4.533   2.811
 2128SOL    HW1 7127   0.409   4.551   2.808
 2128SOL    HW2 7128   0.308   4.444   2.844
 2129SOL     OW 7129   0.335   4.249   2.877
 2129SOL    HW1 7130   0.300   4.162   2.862
 2129SOL    HW2 7131   0.410   4.255   2.817
 2130SOL     OW 7132   1.134   4.100   3.543
 2130SOL    HW1 7133   1.087   4.155   3.606
 2130SOL    HW2 7134   1.222   4.138   3.540
 2131SOL     OW 7135   1.161   3.927   3.332
 2131SOL    HW1 7136   1.150   3.990   3.403
 2131SOL    HW2 7137   1.200   3.978   3.261
 2132SOL     OW 7138   0.002   5.049   2.070
 2132SOL    HW1 7139   5.225   5.039   2.014
 2132SOL    HW2 7140   0.013   4.964   2.112
 2133SOL     OW 7141   0.984   4.517   3.089
 2133SOL    HW1 7142   1.039   4.493   3.164
 2133SOL    HW2 7143   0.898   4.479   3.110
 2134SOL     OW 7144   0.033   4.282   2.977
 2134SOL    HW1 7145   0.120   4.259   2.944
 2134SOL    HW2 7146   0.038   4.267   3.071
 2135SOL     OW 7147   0.175   4.237   3.574
 2135SOL    HW1 7148   0.241   4.201   3.514
 2135SOL    HW2 7149   0.146   4.318   3.532
 2136SOL     OW 7150   1.376   4.663   3.520
 2136SOL    HW1 7151   1.397   4.757   3.518
 2136SOL    HW2 7152   1.373   4.637   3.428
 2137SOL     OW 7153   0.816   4.293   2.221
 2137SOL    HW1 7154   0.820   4.218   2.161
 2137SOL    HW2 7155   0.742   4.345   2.190
 2138SOL     OW 7156   1.642   4.326   3.049
 2138SOL    HW1 7157   1.631   4.266   3.123
 2138SOL    HW2 7158   1.729   4.305   3.014
 2139SOL     OW 7159   0.210   5.280   3.594
 2139SOL    HW1 7160   0.178   0.023   3.673
 2139SOL    HW2 7161   0.213   5.187   3.617
 2140SOL     OW 7162   0.700   4.175   3.122
 2140SOL    HW1 7163   0.648   4.100   3.093
 2140SOL    HW2 7164   0.696   4.237   3.050
 2141SOL     OW 7165   0.466   4.217   2.048
 2141SOL    HW1 7166   0.525   4.289   2.069
 2141SOL    HW2 7167   0.380   4.259   2.037
 2142SOL     OW 7168   0.151   4.861   3.334
 2142SOL    HW1 7169   0.148   4.811   3.416
 2142SOL    HW2 7170   0.162   4.795   3.266
 2143SOL     OW 7171   1.328   4.770   3.085
 2143SOL    HW1 7172   1.350   4.707   3.016
 2143SOL    HW2 7173   1.256   4.822   3.048
 2144SOL     OW 7174   1.310   4.582   2.168
 2144SOL    HW1 7175   1.234   4.550   2.218
 2144SOL    HW2 7176   1.286   4.567   2.077
 2145SOL     OW 7177   0.076   4.921   2.892
 2145SOL    HW1 7178   0.065   4.960   2.978
 2145SOL    HW2 7179   5.289   4.926   2.852
 2146SOL     OW 7180   0.751   0.039   3.571
 2146SOL    HW1 7181   0.658   0.061   3.580
 2146SOL    HW2 7182   0.772   0.061   3.480
 2147SOL     OW 7183   1.719   3.870   2.372
 2147SOL    HW1 7184   1.792   3.855   2.312
 2147SOL    HW2 7185   1.703   3.784   2.412
 2148SOL     OW 7186   1.277   4.649   2.533
 2148SOL    HW1 7187   1.350   4.588   2.540
 2148SOL    HW2 7188   1.311   4.721   2.481
 2149SOL     OW 7189   0.819   4.994   3.284
 2149SOL    HW1 7190   0.790   5.030   3.367
 2149SOL    HW2 7191   0.743   5.002   3.226
 2150SOL     OW 7192   1.841   3.897   2.829
 2150SOL    HW1 7193   1.869   3.810   2.801
 2150SOL    HW2 7194   1.754   3.908   2.789
 2151SOL     OW 7195   0.272   4.041   2.580
 2151SOL    HW1 7196   0.188   4.080   2.558
 2151SOL    HW2 7197   0.270   4.030   2.675
 2152SOL     OW 7198   0.825   4.728   3.233
 2152SOL    HW1 7199   0.870   4.721   3.149
 2152SOL    HW2 7200   0.828   4.821   3.255
 2153SOL     OW 7201   0.915   4.636   2.152
 2153SOL    HW1 7202   0.977   4.668   2.086
 2153SOL    HW2 7203   0.963   4.565   2.197
 2154SOL     OW 7204   0.366   5.028   3.361
 2154SOL    HW1 7205   0.365   5.099   3.297
 2154SOL    HW2 7206   0.291   4.973   3.338
 2155SOL     OW 7207   1.613   5.004   3.144
 2155SOL    HW1 7208   1.669   4.998   3.221
 2155SOL    HW2 7209   1.550   5.074   3.166
 2156SOL     OW 7210   1.053   4.833   2.572
 2156SOL    HW1 7211   0.981   4.782   2.609
 2156SOL    HW2 7212   1.115   4.767   2.539
 2157SOL     OW 7213   1.021   3.964   2.828
 2157SOL    HW1 7214   1.016   3.916   2.745
 2157SOL    HW2 7215   1.016   3.896   2.895
 2158SOL     OW 7216   1.721   4.116   3.242
 2158SOL    HW1 7217   1.793   4.179   3.241
 2158SOL    HW2 7218   1.751   4.045   3.186
 2159SOL     OW 7219   0.259   5.060   2.148
 2159SOL    HW1 7220   0.166   5.063   2.124
 2159SOL    HW2 7221   0.262   5.097   2.236
 2160SOL     OW 7222   0.115   4.741   3.581
 2160SOL    HW1 7223   0.044   4.704   3.633
 2160SOL    HW2 7224   0.195   4.709   3.623
 2161SOL     OW 7225   0.674   3.920   3.361
 2161SOL    HW1 7226   0.758   3.901   3.319
 2161SOL    HW2 7227   0.697   3.951   3.449
 2162SOL     OW 7228   0.081   4.075   1.903
 2162SOL    HW1 7229   0.002   4.026   1.879
 2162SOL    HW2 7230   0.098   4.132   1.828
 2163SOL     OW 7231   1.430   4.582   3.263
 2163SOL    HW1 7232   1.382   4.642   3.207
 2163SOL    HW2 7233   1.520   4.584   3.229
 2164SOL     OW 7234   0.055   3.857   2.105
 2164SOL    HW1 7235   0.054   3.952   2.098
 2164SOL    HW2 7236   0.145   3.832   2.084
 2165SOL     OW 7237   1.182   5.064   1.982
 2165SOL    HW1 7238   1.091   5.036   1.983
 2165SOL    HW2 7239   1.210   5.056   2.073
 2166SOL     OW 7240   0.619   4.555   3.297
 2166SOL    HW1 7241   0.675   4.630   3.281
 2166SOL    HW2 7242   0.679   4.481   3.305
 2167SOL     OW 7243   0.717   4.288   3.567
 2167SOL    HW1 7244   0.758   4.351   3.627
 2167SOL    HW2 7245   0.747   4.203   3.598
 2168SOL     OW 7246   1.473   4.924   3.493
 2168SOL    HW1 7247   1.459   4.936   3.587
 2168SOL    HW2 7248   1.567   4.937   3.481
 2169SOL     OW 7249   1.670   4.606   3.117
 2169SOL    HW1 7250   1.663   4.520   3.074
 2169SOL    HW2 7251   1.660   4.669   3.046
 2170SOL     OW 7252   1.217   4.043   2.320
 2170SOL    HW1 7253   1.280   3.972   2.311
 2170SOL    HW2 7254   1.246   4.092   2.397
 2171SOL     OW 7255   0.591   4.462   2.530
 2171SOL    HW1 7256   0.629   4.548   2.515
 2171SOL    HW2 7257   0.521   4.455   2.465
 2172SOL     OW 7258   1.763   4.085   3.512
 2172SOL    HW1 7259   1.746   4.100   3.419
 2172SOL    HW2 7260   1.691   4.029   3.541
 2173SOL     OW 7261   1.745   4.657   3.374
 2173SOL    HW1 7262   1.741   4.752   3.387
 2173SOL    HW2 7263   1.729   4.646   3.280
 2174SOL     OW 7264   0.849   5.095   1.881
 2174SOL    HW1 7265   0.830   5.095   1.975
 2174SOL    HW2 7266   0.868   5.186   1.860
 2175SOL     OW 7267   0.868   4.691   2.717
 2175SOL    HW1 7268   0.917   4.619   2.757
 2175SOL    HW2 7269   0.833   4.741   2.791
 2176SOL     OW 7270   1.080   4.713   1.951
 2176SOL    HW1 7271   1.057   4.763   1.873
 2176SOL    HW2 7272   1.154   4.659   1.925
 2177SOL     OW 7273   0.220   5.026   3.716
 2177SOL    HW1 7274   0.155   4.958   3.697
 2177SOL    HW2 7275   0.216   5.036   3.811
 2178SOL     OW 7276   0.082   4.930   2.518
 2178SOL    HW1 7277   0.100   4.908   2.609
 2178SOL    HW2 7278   0.168   4.938   2.477
 2179SOL     OW 7279   0.670   5.107   3.471
 2179SOL    HW1 7280   0.594   5.073   3.518
 2179SOL    HW2 7281   0.701   5.180   3.525
 2180SOL     OW 7282   1.814   3.909   3.100
 2180SOL    HW1 7283   1.822   3.815   3.114
 2180SOL    HW2 7284   1.823   3.920   3.005
 2181SOL     OW 7285   0.435   4.160   2.386
 2181SOL    HW1 7286   0.462   4.087   2.330
 2181SOL    HW2 7287   0.387   4.118   2.458
 2182SOL     OW 7288   1.707   5.223   2.981
 2182SOL    HW1 7289   1.633   5.207   2.922
 2182SOL    HW2 7290   1.714   5.144   3.034
 2183SOL     OW 7291   0.336   4.283   3.153
 2183SOL    HW1 7292   0.389   4.223   3.207
 2183SOL    HW2 7293   0.350   4.253   3.063
 2184SOL     OW 7294   1.432   3.949   2.980
 2184SOL    HW1 7295   1.457   3.869   3.026
 2184SOL    HW2 7296   1.380   3.998   3.044
 2185SOL     OW 7297   1.009   3.743   3.005
 2185SOL    HW1 7298   0.954   3.675   2.965
 2185SOL    HW2 7299   1.097   3.705   3.007
 2186SOL     OW 7300   0.803   5.047   2.146
 2186SOL    HW1 7301   0.741   4.977   2.165
 2186SOL    HW2 7302   0.857   5.053   2.225
 2187SOL     OW 7303   0.639   0.002   3.149
 2187SOL    HW1 7304   0.643   0.057   3.227
 2187SOL    HW2 7305   0.730   5.285   3.127
 2188SOL     OW 7306   1.352   3.778   2.027
 2188SOL    HW1 7307   1.380   3.715   1.960
 2188SOL    HW2 7308   1.265   3.748   2.053
 2189SOL     OW 7309   1.297   4.185   2.543
 2189SOL    HW1 7310   1.243   4.263   2.551
 2189SOL    HW2 7311   1.293   4.145   2.630
 2190SOL     OW 7312   1.587   3.927   2.740
 2190SOL    HW1 7313   1.525   3.947   2.810
 2190SOL    HW2 7314   1.586   4.005   2.684
 2191SOL     OW 7315   0.047   4.791   2.152
 2191SOL    HW1 7316   0.137   4.760   2.142
 2191SOL    HW2 7317   0.000   4.716   2.189
 2192SOL     OW 7318   0.233   4.357   3.839
 2192SOL    HW1 7319   0.159   4.325   3.891
 2192SOL    HW2 7320   0.219   4.321   3.752
 2193SOL     OW 7321   0.241   3.999   4.714
 2193SOL    HW1 7322   0.255   3.965   4.802
 2193SOL    HW2 7323   0.157   3.962   4.687
 2194SOL     OW 7324   5.299   4.121   4.377
 2194SOL    HW1 7325   5.206   4.144   4.383
 2194SOL    HW2 7326   5.299   4.030   4.346
 2195SOL     OW 7327   0.573   4.999   4.906
 2195SOL    HW1 7328   0.494   5.006   4.853
 2195SOL    HW2 7329   0.591   5.089   4.933
 2196SOL     OW 7330   1.555   5.232   4.413
 2196SOL    HW1 7331   1.534   5.229   4.506
 2196SOL    HW2 7332   1.476   5.267   4.372
 2197SOL     OW 7333   1.130   4.422   4.425
 2197SOL    HW1 7334   1.179   4.503   4.411
 2197SOL    HW2 7335   1.083   4.436   4.508
 2198SOL     OW 7336   1.766   4.330   3.953
 2198SOL    HW1 7337   1.746   4.322   3.860
 2198SOL    HW2 7338   1.731   4.250   3.992
 2199SOL     OW 7339   0.759   4.868   4.760
 2199SOL    HW1 7340   0.691   4.897   4.822
 2199SOL    HW2 7341   0.786   4.948   4.715
 2200SOL     OW 7342   0.866   4.500   5.546
 2200SOL    HW1 7343   0.854   4.572   5.608
 2200SOL    HW2 7344   0.889   4.543   5.463
 2201SOL     OW 7345   0.686   4.727   4.372
 2201SOL    HW1 7346   0.751   4.715   4.442
 2201SOL    HW2 7347   0.618   4.781   4.413
 2202SOL     OW 7348   0.708   4.873   5.535
 2202SOL    HW1 7349   0.756   4.952   5.559
 2202SOL    HW2 7350   0.625   4.905   5.500
 2203SOL     OW 7351   0.376   5.145   4.777
 2203SOL    HW1 7352   0.282   5.153   4.764
 2203SOL    HW2 7353   0.415   5.200   4.709
 2204SOL     OW 7354   1.455   5.220   5.071
 2204SOL    HW1 7355   1.509   5.293   5.103
 2204SOL    HW2 7356   1.388   5.208   5.139
 2205SOL     OW 7357   0.450   4.124   5.218
 2205SOL    HW1 7358   0.524   4.063   5.218
 2205SOL    HW2 7359   0.373   4.068   5.226
 2206SOL     OW 7360   1.612   4.172   4.464
 2206SOL    HW1 7361   1.537   4.195   4.410
 2206SOL    HW2 7362   1.628   4.250   4.517
 2207SOL     OW 7363   1.133   5.072   5.424
 2207SOL    HW1 7364   1.164   5.072   5.515
 2207SOL    HW2 7365   1.080   4.993   5.417
 2208SOL     OW 7366   0.212   5.151   4.255
 2208SOL    HW1 7367   0.250   5.231   4.291
 2208SOL    HW2 7368   0.134   5.136   4.308
 2209SOL     OW 7369   0.252   4.800   4.600
 2209SOL    HW1 7370   0.263   4.713   4.640
 2209SOL    HW2 7371   0.196   4.847   4.661
 2210SOL     OW 7372   0.584   4.706   3.858
 2210SOL    HW1 7373   0.630   4.754   3.790
 2210SOL    HW2 7374   0.625   4.735   3.940
 2211SOL     OW 7375   1.596   3.847   5.192
 2211SOL    HW1 7376   1.600   3.928   5.141
 2211SOL    HW2 7377   1.582   3.877   5.282
 2212SOL     OW 7378   0.126   4.356   4.302
 2212SOL    HW1 7379   0.088   4.274   4.333
 2212SOL    HW2 7380   0.099   4.421   4.367
 2213SOL     OW 7381   5.299   5.300   3.806
 2213SOL    HW1 7382   0.016   5.212   3.840
 2213SOL    HW2 7383   0.025   0.058   3.877
 2214SOL     OW 7384   1.689   4.642   4.364
 2214SOL    HW1 7385   1.773   4.600   4.343
 2214SOL    HW2 7386   1.668   4.693   4.285
 2215SOL     OW 7387   1.645   4.831   4.154
 2215SOL    HW1 7388   1.731   4.837   4.110
 2215SOL    HW2 7389   1.651   4.892   4.227
 2216SOL     OW 7390   0.130   4.471   5.311
 2216SOL    HW1 7391   0.225   4.486   5.313
 2216SOL    HW2 7392   0.092   4.558   5.323
 2217SOL     OW 7393   0.626   5.096   4.458
 2217SOL    HW1 7394   0.569   5.019   4.459
 2217SOL    HW2 7395   0.601   5.144   4.380
 2218SOL     OW 7396   1.289   4.955   5.150
 2218SOL    HW1 7397   1.324   4.889   5.089
 2218SOL    HW2 7398   1.348   4.952   5.225
 2219SOL     OW 7399   0.822   3.723   4.233
 2219SOL    HW1 7400   0.862   3.808   4.214
 2219SOL    HW2 7401   0.728   3.741   4.240
 2220SOL     OW 7402   0.178   4.668   5.005
 2220SOL    HW1 7403   0.268   4.639   4.992
 2220SOL    HW2 7404   0.134   4.653   4.921
 2221SOL     OW 7405   1.531   4.718   3.921
 2221SOL    HW1 7406   1.461   4.660   3.952
 2221SOL    HW2 7407   1.572   4.752   4.001
 2222SOL     OW 7408   0.335   3.977   5.539
 2222SOL    HW1 7409   0.383   4.059   5.552
 2222SOL    HW2 7410   0.248   3.994   5.575
 2223SOL     OW 7411   1.476   5.146   4.686
 2223SOL    HW1 7412   1.403   5.159   4.747
 2223SOL    HW2 7413   1.464   5.058   4.652
 2224SOL     OW 7414   0.596   4.445   3.989
 2224SOL    HW1 7415   0.603   4.526   3.939
 2224SOL    HW2 7416   0.531   4.466   4.057
 2225SOL     OW 7417   1.279   4.075   4.656
 2225SOL    HW1 7418   1.190   4.042   4.665
 2225SOL    HW2 7419   1.330   4.022   4.718
 2226SOL     OW 7420   0.792   4.341   5.176
 2226SOL    HW1 7421   0.765   4.318   5.265
 2226SOL    HW2 7422   0.752   4.275   5.120
 2227SOL     OW 7423   1.394   4.198   5.402
 2227SOL    HW1 7424   1.396   4.242   5.487
 2227SOL    HW2 7425   1.455   4.125   5.411
 2228SOL     OW 7426   0.956   4.612   5.306
 2228SOL    HW1 7427   1.010   4.541   5.271
 2228SOL    HW2 7428   0.908   4.645   5.230
 2229SOL     OW 7429   0.992   4.137   4.963
 2229SOL    HW1 7430   0.907   4.158   5.001
 2229SOL    HW2 7431   0.972   4.090   4.882
 2230SOL     OW 7432   1.050   4.423   4.150
 2230SOL    HW1 7433   1.066   4.416   4.244
 2230SOL    HW2 7434   0.968   4.376   4.136
 2231SOL     OW 7435   0.073   4.510   4.535
 2231SOL    HW1 7436   0.154   4.515   4.585
 2231SOL    HW2 7437   0.060   4.598   4.500
 2232SOL     OW 7438   0.892   4.072   3.918
 2232SOL    HW1 7439   0.933   4.134   3.857
 2232SOL    HW2 7440   0.908   3.986   3.880
 2233SOL     OW 7441   1.709   4.299   5.552
 2233SOL    HW1 7442   1.671   4.373   5.505
 2233SOL    HW2 7443   1.736   4.238   5.483
 2234SOL     OW 7444   1.377   4.864   4.264
 2234SOL    HW1 7445   1.458   4.850   4.215
 2234SOL    HW2 7446   1.326   4.925   4.210
 2235SOL     OW 7447   0.555   3.908   4.617
 2235SOL    HW1 7448   0.552   3.935   4.709
 2235SOL    HW2 7449   0.551   3.989   4.567
 2236SOL     OW 7450   1.024   5.170   4.194
 2236SOL    HW1 7451   0.946   5.225   4.188
 2236SOL    HW2 7452   1.038   5.159   4.288
 2237SOL     OW 7453   1.800   4.781   4.590
 2237SOL    HW1 7454   1.743   4.764   4.515
 2237SOL    HW2 7455   1.740   4.788   4.665
 2238SOL     OW 7456   1.250   5.239   5.247
 2238SOL    HW1 7457   1.213   5.173   5.306
 2238SOL    HW2 7458   1.179   5.258   5.186
 2239SOL     OW 7459   0.317   4.676   3.971
 2239SOL    HW1 7460   0.399   4.699   3.927
 2239SOL    HW2 7461   0.293   4.591   3.935
 2240SOL     OW 7462   1.477   4.466   4.452
 2240SOL    HW1 7463   1.468   4.422   4.536
 2240SOL    HW2 7464   1.555   4.521   4.461
 2241SOL     OW 7465   0.463   4.988   5.466
 2241SOL    HW1 7466   0.437   4.991   5.374
 2241SOL    HW2 7467   0.380   4.988   5.514
 2242SOL     OW 7468   1.069   0.181   3.932
 2242SOL    HW1 7469   1.079   0.107   3.992
 2242SOL    HW2 7470   1.107   0.149   3.850
 2243SOL     OW 7471   0.205   4.005   5.221
 2243SOL    HW1 7472   0.125   4.056   5.205
 2243SOL    HW2 7473   0.174   3.927   5.267
 2244SOL     OW 7474   1.623   5.100   3.831
 2244SOL    HW1 7475   1.619   5.178   3.775
 2244SOL    HW2 7476   1.555   5.042   3.797
 2245SOL     OW 7477   1.401   3.832   4.156
 2245SOL    HW1 7478   1.390   3.806   4.064
 2245SOL    HW2 7479   1.496   3.837   4.169
 2246SOL     OW 7480   0.386   4.420   4.203
 2246SOL    HW1 7481   0.415   4.329   4.212
 2246SOL    HW2 7482   0.293   4.417   4.223
 2247SOL     OW 7483   1.536   3.949   5.449
 2247SOL    HW1 7484   1.545   3.970   5.542
 2247SOL    HW2 7485   1.467   3.883   5.446
 2248SOL     OW 7486   0.632   3.847   3.830
 2248SOL    HW1 7487   0.704   3.784   3.841
 2248SOL    HW2 7488   0.585   3.815   3.753
 2249SOL     OW 7489   0.767   4.002   5.478
 2249SOL    HW1 7490   0.842   3.942   5.480
 2249SOL    HW2 7491   0.717   3.981   5.557
 2250SOL     OW 7492   1.341   4.312   5.156
 2250SOL    HW1 7493   1.371   4.281   5.241
 2250SOL    HW2 7494   1.377   4.401   5.148
 2251SOL     OW 7495   0.813   5.121   4.659
 2251SOL    HW1 7496   0.893   5.105   4.610
 2251SOL    HW2 7497   0.744   5.126   4.592
 2252SOL     OW 7498   0.928   4.234   4.627
 2252SOL    HW1 7499   0.904   4.225   4.535
 2252SOL    HW2 7500   0.959   4.146   4.652
 2253SOL     OW 7501   0.560   3.785   4.220
 2253SOL    HW1 7502   0.485   3.785   4.280
 2253SOL    HW2 7503   0.549   3.865   4.168
 2254SOL     OW 7504   1.428   4.924   3.763
 2254SOL    HW1 7505   1.459   4.848   3.813
 2254SOL    HW2 7506   1.340   4.941   3.797
 2255SOL     OW 7507   0.305   3.771   3.904
 2255SOL    HW1 7508   0.367   3.835   3.868
 2255SOL    HW2 7509   0.360   3.706   3.948
 2256SOL     OW 7510   0.939   3.971   4.185
 2256SOL    HW1 7511   0.911   4.012   4.103
 2256SOL    HW2 7512   1.033   3.984   4.188
 2257SOL     OW 7513   1.080   4.404   5.184
 2257SOL    HW1 7514   1.010   4.338   5.188
 2257SOL    HW2 7515   1.160   4.354   5.177
 2258SOL     OW 7516   1.264   5.267   4.503
 2258SOL    HW1 7517   1.222   0.048   4.474
 2258SOL    HW2 7518   1.307   5.290   4.585
 2259SOL     OW 7519   0.465   4.873   4.453
 2259SOL    HW1 7520   0.397   4.853   4.517
 2259SOL    HW2 7521   0.425   4.853   4.369
 2260SOL     OW 7522   1.024   4.267   3.746
 2260SOL    HW1 7523   0.982   4.350   3.726
 2260SOL    HW2 7524   1.089   4.288   3.813
 2261SOL     OW 7525   0.087   4.270   5.122
 2261SOL    HW1 7526   0.175   4.277   5.085
 2261SOL    HW2 7527   0.079   4.346   5.179
 2262SOL     OW 7528   0.560   3.951   4.890
 2262SOL    HW1 7529   0.598   3.871   4.926
 2262SOL    HW2 7530   0.469   3.950   4.918
 2263SOL     OW 7531   0.868   4.183   4.364
 2263SOL    HW1 7532   0.822   4.237   4.299
 2263SOL    HW2 7533   0.889   4.103   4.317
 2264SOL     OW 7534   1.015   3.777   4.476
 2264SOL    HW1 7535   0.956   3.769   4.400
 2264SOL    HW2 7536   0.994   3.701   4.531
 2265SOL     OW 7537   1.437   4.890   4.583
 2265SOL    HW1 7538   1.371   4.820   4.579
 2265SOL    HW2 7539   1.462   4.903   4.491
 2266SOL     OW 7540   1.467   4.328   4.702
 2266SOL    HW1 7541   1.416   4.247   4.705
 2266SOL    HW2 7542   1.526   4.323   4.776
 2267SOL     OW 7543   1.846   4.540   4.106
 2267SOL    HW1 7544   1.902   4.489   4.164
 2267SOL    HW2 7545   1.817   4.478   4.040
 2268SOL     OW 7546   0.484   5.143   3.879
 2268SOL    HW1 7547   0.420   5.093   3.930
 2268SOL    HW2 7548   0.480   5.104   3.792
 2269SOL     OW 7549   1.669   4.987   4.371
 2269SOL    HW1 7550   1.763   4.994   4.388
 2269SOL    HW2 7551   1.635   5.075   4.388
 2270SOL     OW 7552   1.394   4.296   3.795
 2270SOL    HW1 7553   1.333   4.276   3.867
 2270SOL    HW2 7554   1.478   4.263   3.826
 2271SOL     OW 7555   0.524   3.987   4.042
 2271SOL    HW1 7556   0.568   3.939   3.972
 2271SOL    HW2 7557   0.503   4.072   4.003
 2272SOL     OW 7558   1.752   4.960   5.301
 2272SOL    HW1 7559   1.838   4.918   5.300
 2272SOL    HW2 7560   1.770   5.053   5.314
 2273SOL     OW 7561   1.064   5.075   5.056
 2273SOL    HW1 7562   0.986   5.049   5.104
 2273SOL    HW2 7563   1.137   5.035   5.104
 2274SOL     OW 7564   1.126   4.926   4.832
 2274SOL    HW1 7565   1.075   4.967   4.902
 2274SOL    HW2 7566   1.081   4.951   4.751
 2275SOL     OW 7567   1.629   4.823   4.801
 2275SOL    HW1 7568   1.625   4.884   4.874
 2275SOL    HW2 7569   1.551   4.841   4.749
 2276SOL     OW 7570   0.919   3.821   5.121
 2276SOL    HW1 7571   0.940   3.802   5.030
 2276SOL    HW2 7572   0.998   3.861   5.158
 2277SOL     OW 7573   0.984   4.839   5.449
 2277SOL    HW1 7574   0.892   4.854   5.467
 2277SOL    HW2 7575   0.985   4.762   5.391
 2278SOL     OW 7576   0.703   4.780   4.097
 2278SOL    HW1 7577   0.693   4.766   4.191
 2278SOL    HW2 7578   0.781   4.731   4.073
 2279SOL     OW 7579   0.421   4.542   4.975
 2279SOL    HW1 7580   0.489   4.549   5.042
 2279SOL    HW2 7581   0.385   4.454   4.986
 2280SOL     OW 7582   1.266   4.101   4.999
 2280SOL    HW1 7583   1.298   4.179   5.044
 2280SOL    HW2 7584   1.175   4.123   4.975
 2281SOL     OW 7585   0.113   5.289   5.043
 2281SOL    HW1 7586   0.053   0.050   5.085
 2281SOL    HW2 7587   0.190   5.289   5.099
 2282SOL     OW 7588   0.344   4.827   4.211
 2282SOL    HW1 7589   0.351   4.906   4.157
 2282SOL    HW2 7590   0.353   4.755   4.150
 2283SOL     OW 7591   0.555   4.260   4.583
 2283SOL    HW1 7592   0.571   4.319   4.509
 2283SOL    HW2 7593   0.619   4.288   4.649
 2284SOL     OW 7594   1.260   5.076   4.109
 2284SOL    HW1 7595   1.316   5.143   4.148
 2284SOL    HW2 7596   1.172   5.099   4.139
 2285SOL     OW 7597   1.269   5.181   4.865
 2285SOL    HW1 7598   1.328   5.195   4.939
 2285SOL    HW2 7599   1.225   5.098   4.885
 2286SOL     OW 7600   1.582   4.347   4.203
 2286SOL    HW1 7601   1.536   4.402   4.266
 2286SOL    HW2 7602   1.627   4.410   4.146
 2287SOL     OW 7603   0.381   5.232   5.040
 2287SOL    HW1 7604   0.363   5.192   4.954
 2287SOL    HW2 7605   0.473   5.256   5.036
 2288SOL     OW 7606   0.413   4.467   5.326
 2288SOL    HW1 7607   0.474   4.513   5.268
 2288SOL    HW2 7608   0.453   4.381   5.339
 2289SOL     OW 7609   1.601   4.503   5.406
 2289SOL    HW1 7610   1.514   4.543   5.398
 2289SOL    HW2 7611   1.653   4.544   5.337
 2290SOL     OW 7612   0.996   3.846   5.480
 2290SOL    HW1 7613   1.051   3.919   5.450
 2290SOL    HW2 7614   1.044   3.767   5.454
 2291SOL     OW 7615   0.497   3.766   5.471
 2291SOL    HW1 7616   0.456   3.712   5.405
 2291SOL    HW2 7617   0.437   3.840   5.483
 2292SOL     OW 7618   0.585   4.597   4.756
 2292SOL    HW1 7619   0.614   4.688   4.754
 2292SOL    HW2 7620   0.529   4.591   4.833
 2293SOL     OW 7621   1.358   4.582   4.753
 2293SOL    HW1 7622   1.275   4.573   4.707
 2293SOL    HW2 7623   1.398   4.495   4.749
 2294SOL     OW 7624   1.205   4.253   3.991
 2294SOL    HW1 7625   1.213   4.174   4.046
 2294SOL    HW2 7626   1.162   4.317   4.048
 2295SOL     OW 7627   0.302   3.927   4.972
 2295SOL    HW1 7628   0.267   3.952   5.058
 2295SOL    HW2 7629   0.289   3.833   4.968
 2296SOL     OW 7630   0.044   5.022   5.001
 2296SOL    HW1 7631   0.075   4.972   5.076
 2296SOL    HW2 7632   0.045   5.113   5.030
 2297SOL     OW 7633   0.725   4.355   4.783
 2297SOL    HW1 7634   0.799   4.339   4.724
 2297SOL    HW2 7635   0.697   4.444   4.761
 2298SOL     OW 7636   1.734   4.684   5.576
 2298SOL    HW1 7637   1.688   4.623   5.518
 2298SOL    HW2 7638   1.675   4.697   5.649
 2299SOL     OW 7639   0.327   3.786   4.358
 2299SOL    HW1 7640   0.307   3.875   4.386
 2299SOL    HW2 7641   0.331   3.736   4.440
 2300SOL     OW 7642   1.616   4.098   4.091
 2300SOL    HW1 7643   1.643   4.034   4.157
 2300SOL    HW2 7644   1.593   4.176   4.142
 2301SOL     OW 7645   1.028   4.483   4.685
 2301SOL    HW1 7646   1.025   4.501   4.779
 2301SOL    HW2 7647   1.001   4.392   4.677
 2302SOL     OW 7648   1.855   5.214   5.309
 2302SOL    HW1 7649   1.850   5.288   5.250
 2302SOL    HW2 7650   1.924   5.237   5.372
 2303SOL     OW 7651   0.354   4.643   5.530
 2303SOL    HW1 7652   0.435   4.660   5.578
 2303SOL    HW2 7653   0.378   4.577   5.464
 2304SOL     OW 7654   1.529   3.998   3.851
 2304SOL    HW1 7655   1.465   3.932   3.877
 2304SOL    HW2 7656   1.562   4.033   3.934
 2305SOL     OW 7657   1.292   4.550   3.756
 2305SOL    HW1 7658   1.335   4.465   3.759
 2305SOL    HW2 7659   1.323   4.589   3.674
 2306SOL     OW 7660   1.059   5.078   4.551
 2306SOL    HW1 7661   1.063   4.993   4.507
 2306SOL    HW2 7662   1.145   5.117   4.538
 2307SOL     OW 7663   0.315   4.533   4.673
 2307SOL    HW1 7664   0.409   4.551   4.670
 2307SOL    HW2 7665   0.308   4.444   4.706
 2308SOL     OW 7666   0.335   4.249   4.739
 2308SOL    HW1 7667   0.300   4.162   4.724
 2308SOL    HW2 7668   0.410   4.255   4.679
 2309SOL     OW 7669   1.134   4.100   5.405
 2309SOL    HW1 7670   1.087   4.155   5.468
 2309SOL    HW2 7671   1.222   4.139   5.402
 2310SOL     OW 7672   1.161   3.927   5.194
 2310SOL    HW1 7673   1.150   3.990   5.265
 2310SOL    HW2 7674   1.200   3.978   5.123
 2311SOL     OW 7675   0.002   5.049   3.932
 2311SOL    HW1 7676   5.225   5.038   3.876
 2311SOL    HW2 7677   0.013   4.963   3.974
 2312SOL     OW 7678   0.984   4.517   4.951
 2312SOL    HW1 7679   1.039   4.493   5.026
 2312SOL    HW2 7680   0.898   4.479   4.972
 2313SOL     OW 7681   0.033   4.282   4.839
 2313SOL    HW1 7682   0.120   4.259   4.806
 2313SOL    HW2 7683   0.038   4.267   4.933
 2314SOL     OW 7684   0.175   4.237   5.436
 2314SOL    HW1 7685   0.241   4.201   5.376
 2314SOL    HW2 7686   0.146   4.318   5.394
 2315SOL     OW 7687   1.376   4.663   5.382
 2315SOL    HW1 7688   1.397   4.757   5.380
 2315SOL    HW2 7689   1.373   4.637   5.290
 2316SOL     OW 7690   0.816   4.293   4.083
 2316SOL    HW1 7691   0.820   4.218   4.023
 2316SOL    HW2 7692   0.742   4.345   4.051
 2317SOL     OW 7693   1.642   4.325   4.911
 2317SOL    HW1 7694   1.631   4.266   4.985
 2317SOL    HW2 7695   1.729   4.305   4.876
 2318SOL     OW 7696   0.210   5.280   5.456
 2318SOL    HW1 7697   0.178   0.023   5.535
 2318SOL    HW2 7698   0.213   5.187   5.479
 2319SOL     OW 7699   0.700   4.175   4.984
 2319SOL    HW1 7700   0.648   4.100   4.955
 2319SOL    HW2 7701   0.696   4.237   4.912
 2320SOL     OW 7702   0.465   4.217   3.910
 2320SOL    HW1 7703   0.525   4.289   3.931
 2320SOL    HW2 7704   0.380   4.259   3.899
 2321SOL     OW 7705   0.151   4.861   5.196
 2321SOL    HW1 7706   0.148   4.811   5.278
 2321SOL    HW2 7707   0.162   4.795   5.128
 2322SOL     OW 7708   1.328   4.770   4.947
 2322SOL    HW1 7709   1.350   4.707   4.878
 2322SOL    HW2 7710   1.256   4.822   4.910
 2323SOL     OW 7711   1.310   4.582   4.030
 2323SOL    HW1 7712   1.235   4.550   4.080
 2323SOL    HW2 7713   1.286   4.567   3.939
 2324SOL     OW 7714   0.076   4.921   4.754
 2324SOL    HW1 7715   0.065   4.960   4.840
 2324SOL    HW2 7716   5.289   4.926   4.714
 2325SOL     OW 7717   0.751   0.039   5.433
 2325SOL    HW1 7718   0.658   0.061   5.442
 2325SOL    HW2 7719   0.772   0.061   5.342
 2326SOL     OW 7720   1.720   3.870   4.235
 2326SOL    HW1 7721   1.792   3.855   4.174
 2326SOL    HW2 7722   1.703   3.784   4.274
 2327SOL     OW 7723   1.277   4.649   4.396
 2327SOL    HW1 7724   1.350   4.588   4.403
 2327SOL    HW2 7725   1.311   4.721   4.343
 2328SOL     OW 7726   0.819   4.994   5.146
 2328SOL    HW1 7727   0.790   5.030   5.229
 2328SOL    HW2 7728   0.743   5.002   5.088
 2329SOL     OW 7729   1.841   3.896   4.691
 2329SOL    HW1 7730   1.869   3.809   4.662
 2329SOL    HW2 7731   1.754   3.908   4.652
 2330SOL     OW 7732   0.272   4.041   4.442
 2330SOL    HW1 7733   0.188   4.080   4.420
 2330SOL    HW2 7734   0.270   4.030   4.537
 2331SOL     OW 7735   0.825   4.728   5.095
 2331SOL    HW1 7736   0.870   4.721   5.011
 2331SOL    HW2 7737   0.828   4.821   5.117
 2332SOL     OW 7738   0.915   4.636   4.014
 2332SOL    HW1 7739   0.977   4.668   3.948
 2332SOL    HW2 7740   0.963   4.565   4.059
 2333SOL     OW 7741   0.366   5.028   5.224
 2333SOL    HW1 7742   0.365   5.099   5.159
 2333SOL    HW2 7743   0.291   4.973   5.200
 2334SOL     OW 7744   1.613   5.004   5.006
 2334SOL    HW1 7745   1.669   4.998   5.083
 2334SOL    HW2 7746   1.550   5.074   5.028
 2335SOL     OW 7747   1.053   4.833   4.434
 2335SOL    HW1 7748   0.981   4.782   4.471
 2335SOL    HW2 7749   1.115   4.767   4.401
 2336SOL     OW 7750   1.021   3.964   4.690
 2336SOL    HW1 7751   1.016   3.916   4.607
 2336SOL    HW2 7752   1.016   3.896   4.757
 2337SOL     OW 7753   1.721   4.116   5.104
 2337SOL    HW1 7754   1.793   4.179   5.103
 2337SOL    HW2 7755   1.751   4.045   5.048
 2338SOL     OW 7756   0.259   5.060   4.010
 2338SOL    HW1 7757   0.166   5.063   3.986
 2338SOL    HW2 7758   0.262   5.097   4.098
 2339SOL     OW 7759   0.115   4.741   5.443
 2339SOL    HW1 7760   0.044   4.704   5.495
 2339SOL    HW2 7761   0.195   4.709   5.485
 2340SOL     OW 7762   0.674   3.920   5.223
 2340SOL    HW1 7763   0.758   3.901   5.181
 2340SOL    HW2 7764   0.697   3.951   5.311
 2341SOL     OW 7765   0.081   4.075   3.765
 2341SOL    HW1 7766   0.003   4.026   3.741
 2341SOL    HW2 7767   0.098   4.132   3.690
 2342SOL     OW 7768   1.430   4.582   5.125
 2342SOL    HW1 7769   1.382   4.642   5.069
 2342SOL    HW2 7770   1.520   4.584   5.091
 2343SOL     OW 7771   0.055   3.857   3.966
 2343SOL    HW1 7772   0.054   3.953   3.960
 2343SOL    HW2 7773   0.145   3.832   3.946
 2344SOL     OW 7774   1.182   5.065   3.844
 2344SOL    HW1 7775   1.091   5.036   3.845
 2344SOL    HW2 7776   1.210   5.056   3.935
 2345SOL     OW 7777   0.619   4.555   5.159
 2345SOL    HW1 7778   0.675   4.630   5.143
 2345SOL    HW2 7779   0.679   4.481   5.167
 2346SOL     OW 7780   0.717   4.288   5.429
 2346SOL    HW1 7781   0.758   4.351   5.489
 2346SOL    HW2 7782   0.747   4.203   5.460
 2347SOL     OW 7783   1.473   4.924   5.355
 2347SOL    HW1 7784   1.459   4.936   5.449
 2347SOL    HW2 7785   1.567   4.937   5.343
 2348SOL     OW 7786   1.670   4.606   4.979
 2348SOL    HW1 7787   1.663   4.520   4.936
 2348SOL    HW2 7788   1.660   4.669   4.908
 2349SOL     OW 7789   1.217   4.043   4.182
 2349SOL    HW1 7790   1.280   3.972   4.173
 2349SOL    HW2 7791   1.246   4.092   4.259
 2350SOL     OW 7792   0.591   4.462   4.392
 2350SOL    HW1 7793   0.629   4.548   4.377
 2350SOL    HW2 7794   0.521   4.455   4.327
 2351SOL     OW 7795   1.763   4.085   5.374
 2351SOL    HW1 7796   1.746   4.100   5.281
 2351SOL    HW2 7797   1.691   4.028   5.403
 2352SOL     OW 7798   1.745   4.657   5.236
 2352SOL    HW1 7799   1.742   4.752   5.249
 2352SOL    HW2 7800   1.729   4.646   5.142
 2353SOL     OW 7801   0.849   5.095   3.743
 2353SOL    HW1 7802   0.830   5.095   3.837
 2353SOL    HW2 7803   0.868   5.186   3.722
 2354SOL     OW 7804   0.868   4.691   4.579
 2354SOL    HW1 7805   0.917   4.619   4.619
 2354SOL    HW2 7806   0.833   4.741   4.653
 2355SOL     OW 7807   1.080   4.713   3.813
 2355SOL    HW1 7808   1.057   4.763   3.735
 2355SOL    HW2 7809   1.154   4.659   3.787
 2356SOL     OW 7810   0.220   5.026   5.578
 2356SOL    HW1 7811   0.155   4.958   5.559
 2356SOL    HW2 7812   0.216   5.036   5.673
 2357SOL     OW 7813   0.082   4.930   4.380
 2357SOL    HW1 7814   0.100   4.908   4.471
 2357SOL    HW2 7815   0.168   4.938   4.339
 2358SOL     OW 7816   0.670   5.107   5.333
 2358SOL    HW1 7817   0.594   5.073   5.380
 2358SOL    HW2 7818   0.701   5.180   5.387
 2359SOL     OW 7819   1.813   3.909   4.962
 2359SOL    HW1 7820   1.823   3.815   4.977
 2359SOL    HW2 7821   1.823   3.919   4.867
 2360SOL     OW 7822   0.434   4.160   4.248
 2360SOL    HW1 7823   0.462   4.087   4.192
 2360SOL    HW2 7824   0.387   4.118   4.320
 2361SOL     OW 7825   1.707   5.223   4.843
 2361SOL    HW1 7826   1.633   5.207   4.784
 2361SOL    HW2 7827   1.714   5.144   4.896
 2362SOL     OW 7828   0.336   4.283   5.015
 2362SOL    HW1 7829   0.389   4.223   5.069
 2362SOL    HW2 7830   0.350   4.253   4.925
 2363SOL     OW 7831   1.432   3.949   4.842
 2363SOL    HW1 7832   1.456   3.869   4.888
 2363SOL    HW2 7833   1.380   3.998   4.906
 2364SOL     OW 7834   1.009   3.743   4.867
 2364SOL    HW1 7835   0.954   3.675   4.827
 2364SOL    HW2 7836   1.097   3.705   4.869
 2365SOL     OW 7837   0.803   5.047   4.008
 2365SOL    HW1 7838   0.741   4.977   4.027
 2365SOL    HW2 7839   0.857   5.054   4.087
 2366SOL     OW 7840   0.639   0.002   5.011
 2366SOL    HW1 7841   0.643   0.057   5.089
 2366SOL    HW2 7842   0.730   5.285   4.989
 2367SOL     OW 7843   1.352   3.778   3.888
 2367SOL    HW1 7844   1.381   3.714   3.823
 2367SOL    HW2 7845   1.265   3.748   3.915
 2368SOL     OW 7846   1.297   4.185   4.406
 2368SOL    HW1 7847   1.243   4.263   4.413
 2368SOL    HW2 7848   1.293   4.145   4.492
 2369SOL     OW 7849   1.588   3.927   4.602
 2369SOL    HW1 7850   1.525   3.947   4.672
 2369SOL    HW2 7851   1.586   4.005   4.546
 2370SOL     OW 7852   0.047   4.791   4.014
 2370SOL    HW1 7853   0.137   4.760   4.004
 2370SOL    HW2 7854   0.000   4.716   4.051
 2371SOL     OW 7855   0.233   4.357   5.701
 2371SOL    HW1 7856   0.159   4.325   5.753
 2371SOL    HW2 7857   0.219   4.321   5.614
 2372SOL     OW 7858   0.241   3.999   6.576
 2372SOL    HW1 7859   0.255   3.965   6.664
 2372SOL    HW2 7860   0.157   3.962   6.549
 2373SOL     OW 7861   5.298   4.121   6.239
 2373SOL    HW1 7862   5.206   4.144   6.245
 2373SOL    HW2 7863   5.299   4.030   6.208
 2374SOL     OW 7864   0.573   4.999   6.768
 2374SOL    HW1 7865   0.494   5.005   6.715
 2374SOL    HW2 7866   0.591   5.089   6.795
 2375SOL     OW 7867   1.555   5.232   6.275
 2375SOL    HW1 7868   1.534   5.228   6.368
 2375SOL    HW2 7869   1.476   5.267   6.234
 2376SOL     OW 7870   1.130   4.422   6.287
 2376SOL    HW1 7871   1.179   4.503   6.274
 2376SOL    HW2 7872   1.083   4.437   6.370
 2377SOL     OW 7873   1.766   4.330   5.815
 2377SOL    HW1 7874   1.746   4.322   5.722
 2377SOL    HW2 7875   1.731   4.250   5.854
 2378SOL     OW 7876   0.759   4.868   6.623
 2378SOL    HW1 7877   0.691   4.897   6.684
 2378SOL    HW2 7878   0.786   4.948   6.577
 2379SOL     OW 7879   0.865   4.502   7.406
 2379SOL    HW1 7880   0.852   4.577   7.464
 2379SOL    HW2 7881   0.890   4.541   7.322
 2380SOL     OW 7882   0.686   4.727   6.234
 2380SOL    HW1 7883   0.751   4.715   6.303
 2380SOL    HW2 7884   0.618   4.781   6.275
 2381SOL     OW 7885   0.707   4.873   7.398
 2381SOL    HW1 7886   0.756   4.952   7.420
 2381SOL    HW2 7887   0.625   4.905   7.362
 2382SOL     OW 7888   0.376   5.145   6.639
 2382SOL    HW1 7889   0.282   5.153   6.626
 2382SOL    HW2 7890   0.415   5.200   6.570
 2383SOL     OW 7891   1.455   5.220   6.933
 2383SOL    HW1 7892   1.509   5.293   6.965
 2383SOL    HW2 7893   1.388   5.208   7.001
 2384SOL     OW 7894   0.450   4.125   7.080
 2384SOL    HW1 7895   0.524   4.064   7.081
 2384SOL    HW2 7896   0.373   4.068   7.089
 2385SOL     OW 7897   1.612   4.172   6.326
 2385SOL    HW1 7898   1.537   4.196   6.272
 2385SOL    HW2 7899   1.629   4.250   6.379
 2386SOL     OW 7900   1.133   5.071   7.285
 2386SOL    HW1 7901   1.166   5.071   7.375
 2386SOL    HW2 7902   1.079   4.992   7.278
 2387SOL     OW 7903   0.213   5.151   6.117
 2387SOL    HW1 7904   0.250   5.232   6.153
 2387SOL    HW2 7905   0.134   5.136   6.170
 2388SOL     OW 7906   0.252   4.800   6.462
 2388SOL    HW1 7907   0.263   4.713   6.502
 2388SOL    HW2 7908   0.196   4.847   6.523
 2389SOL     OW 7909   0.584   4.706   5.720
 2389SOL    HW1 7910   0.630   4.754   5.652
 2389SOL    HW2 7911   0.625   4.735   5.802
 2390SOL     OW 7912   1.596   3.847   7.054
 2390SOL    HW1 7913   1.601   3.927   7.003
 2390SOL    HW2 7914   1.582   3.877   7.144
 2391SOL     OW 7915   0.126   4.357   6.164
 2391SOL    HW1 7916   0.088   4.274   6.194
 2391SOL    HW2 7917   0.099   4.421   6.229
 2392SOL     OW 7918   5.299   5.300   5.668
 2392SOL    HW1 7919   0.016   5.212   5.702
 2392SOL    HW2 7920   0.025   0.058   5.739
 2393SOL     OW 7921   1.689   4.642   6.226
 2393SOL    HW1 7922   1.773   4.600   6.206
 2393SOL    HW2 7923   1.668   4.693   6.147
 2394SOL     OW 7924   1.645   4.831   6.016
 2394SOL    HW1 7925   1.731   4.837   5.972
 2394SOL    HW2 7926   1.652   4.892   6.089
 2395SOL     OW 7927   0.130   4.470   7.174
 2395SOL    HW1 7928   0.225   4.485   7.175
 2395SOL    HW2 7929   0.092   4.557   7.184
 2396SOL     OW 7930   0.626   5.096   6.321
 2396SOL    HW1 7931   0.569   5.019   6.321
 2396SOL    HW2 7932   0.601   5.144   6.242
 2397SOL     OW 7933   1.289   4.955   7.012
 2397SOL    HW1 7934   1.323   4.889   6.951
 2397SOL    HW2 7935   1.348   4.952   7.087
 2398SOL     OW 7936   0.822   3.723   6.095
 2398SOL    HW1 7937   0.862   3.808   6.076
 2398SOL    HW2 7938   0.728   3.741   6.102
 2399SOL     OW 7939   0.177   4.668   6.867
 2399SOL    HW1 7940   0.267   4.638   6.854
 2399SOL    HW2 7941   0.134   4.653   6.783
 2400SOL     OW 7942   1.531   4.718   5.783
 2400SOL    HW1 7943   1.461   4.660   5.814
 2400SOL    HW2 7944   1.572   4.752   5.863
 2401SOL     OW 7945   0.336   3.976   7.401
 2401SOL    HW1 7946   0.383   4.058   7.413
 2401SOL    HW2 7947   0.249   3.994   7.436
 2402SOL     OW 7948   1.476   5.146   6.548
 2402SOL    HW1 7949   1.403   5.159   6.609
 2402SOL    HW2 7950   1.464   5.058   6.514
 2403SOL     OW 7951   0.596   4.446   5.851
 2403SOL    HW1 7952   0.603   4.526   5.801
 2403SOL    HW2 7953   0.531   4.466   5.919
 2404SOL     OW 7954   1.279   4.076   6.518
 2404SOL    HW1 7955   1.190   4.042   6.527
 2404SOL    HW2 7956   1.330   4.023   6.580
 2405SOL     OW 7957   0.792   4.341   7.038
 2405SOL    HW1 7958   0.765   4.317   7.127
 2405SOL    HW2 7959   0.751   4.275   6.982
 2406SOL     OW 7960   1.394   4.198   7.263
 2406SOL    HW1 7961   1.396   4.242   7.348
 2406SOL    HW2 7962   1.455   4.125   7.273
 2407SOL     OW 7963   0.956   4.612   7.168
 2407SOL    HW1 7964   1.010   4.541   7.133
 2407SOL    HW2 7965   0.908   4.645   7.092
 2408SOL     OW 7966   0.992   4.137   6.825
 2408SOL    HW1 7967   0.907   4.158   6.863
 2408SOL    HW2 7968   0.972   4.090   6.744
 2409SOL     OW 7969   1.050   4.423   6.012
 2409SOL    HW1 7970   1.066   4.415   6.106
 2409SOL    HW2 7971   0.968   4.376   5.998
 2410SOL     OW 7972   0.072   4.510   6.397
 2410SOL    HW1 7973   0.154   4.515   6.447
 2410SOL    HW2 7974   0.060   4.598   6.361
 2411SOL     OW 7975   0.892   4.072   5.780
 2411SOL    HW1 7976   0.933   4.134   5.719
 2411SOL    HW2 7977   0.908   3.986   5.742
 2412SOL     OW 7978   1.710   4.300   7.415
 2412SOL    HW1 7979   1.672   4.374   7.368
 2412SOL    HW2 7980   1.736   4.239   7.347
 2413SOL     OW 7981   1.377   4.864   6.126
 2413SOL    HW1 7982   1.458   4.850   6.077
 2413SOL    HW2 7983   1.326   4.925   6.072
 2414SOL     OW 7984   0.555   3.907   6.479
 2414SOL    HW1 7985   0.552   3.935   6.571
 2414SOL    HW2 7986   0.551   3.989   6.429
 2415SOL     OW 7987   1.024   5.170   6.056
 2415SOL    HW1 7988   0.946   5.225   6.050
 2415SOL    HW2 7989   1.038   5.159   6.150
 2416SOL     OW 7990   1.800   4.782   6.452
 2416SOL    HW1 7991   1.743   4.764   6.377
 2416SOL    HW2 7992   1.740   4.788   6.527
 2417SOL     OW 7993   1.250   5.240   7.110
 2417SOL    HW1 7994   1.213   5.173   7.168
 2417SOL    HW2 7995   1.180   5.258   7.047
 2418SOL     OW 7996   0.317   4.676   5.833
 2418SOL    HW1 7997   0.399   4.699   5.789
 2418SOL    HW2 7998   0.293   4.591   5.797
 2419SOL     OW 7999   1.477   4.466   6.314
 2419SOL    HW1 8000   1.469   4.422   6.398
 2419SOL    HW2 8001   1.555   4.521   6.323
 2420SOL     OW 8002   0.462   4.988   7.329
 2420SOL    HW1 8003   0.437   4.991   7.237
 2420SOL    HW2 8004   0.380   4.988   7.377
 2421SOL     OW 8005   1.069   0.181   5.794
 2421SOL    HW1 8006   1.079   0.107   5.854
 2421SOL    HW2 8007   1.108   0.149   5.712
 2422SOL     OW 8008   0.205   4.005   7.084
 2422SOL    HW1 8009   0.125   4.055   7.066
 2422SOL    HW2 8010   0.174   3.926   7.128
 2423SOL     OW 8011   1.623   5.100   5.693
 2423SOL    HW1 8012   1.619   5.178   5.637
 2423SOL    HW2 8013   1.555   5.042   5.659
 2424SOL     OW 8014   1.401   3.832   6.018
 2424SOL    HW1 8015   1.391   3.807   5.926
 2424SOL    HW2 8016   1.496   3.838   6.031
 2425SOL     OW 8017   0.386   4.420   6.065
 2425SOL    HW1 8018   0.415   4.329   6.074
 2425SOL    HW2 8019   0.293   4.417   6.085
 2426SOL     OW 8020   1.536   3.949   7.312
 2426SOL    HW1 8021   1.544   3.970   7.404
 2426SOL    HW2 8022   1.467   3.882   7.309
 2427SOL     OW 8023   0.632   3.847   5.692
 2427SOL    HW1 8024   0.704   3.784   5.703
 2427SOL    HW2 8025   0.585   3.815   5.615
 2428SOL     OW 8026   0.766   4.000   7.339
 2428SOL    HW1 8027   0.842   3.942   7.342
 2428SOL    HW2 8028   0.722   3.987   7.423
 2429SOL     OW 8029   1.341   4.313   7.018
 2429SOL    HW1 8030   1.371   4.281   7.103
 2429SOL    HW2 8031   1.377   4.401   7.010
 2430SOL     OW 8032   0.813   5.121   6.521
 2430SOL    HW1 8033   0.893   5.105   6.472
 2430SOL    HW2 8034   0.744   5.126   6.454
 2431SOL     OW 8035   0.928   4.234   6.489
 2431SOL    HW1 8036   0.904   4.225   6.397
 2431SOL    HW2 8037   0.959   4.147   6.514
 2432SOL     OW 8038   0.560   3.785   6.082
 2432SOL    HW1 8039   0.485   3.785   6.142
 2432SOL    HW2 8040   0.549   3.865   6.030
 2433SOL     OW 8041   1.428   4.924   5.625
 2433SOL    HW1 8042   1.459   4.848   5.675
 2433SOL    HW2 8043   1.340   4.941   5.659
 2434SOL     OW 8044   0.305   3.771   5.766
 2434SOL    HW1 8045   0.367   3.834   5.730
 2434SOL    HW2 8046   0.360   3.706   5.810
 2435SOL     OW 8047   0.939   3.970   6.047
 2435SOL    HW1 8048   0.911   4.012   5.965
 2435SOL    HW2 8049   1.033   3.984   6.050
 2436SOL     OW 8050   1.080   4.404   7.046
 2436SOL    HW1 8051   1.011   4.338   7.050
 2436SOL    HW2 8052   1.161   4.354   7.039
 2437SOL     OW 8053   1.264   5.267   6.365
 2437SOL    HW1 8054   1.223   0.049   6.336
 2437SOL    HW2 8055   1.307   5.290   6.447
 2438SOL     OW 8056   0.465   4.873   6.315
 2438SOL    HW1 8057   0.397   4.853   6.379
 2438SOL    HW2 8058   0.425   4.853   6.231
 2439SOL     OW 8059   1.024   4.267   5.608
 2439SOL    HW1 8060   0.982   4.350   5.588
 2439SOL    HW2 8061   1.089   4.288   5.675
 2440SOL     OW 8062   0.087   4.269   6.985
 2440SOL    HW1 8063   0.175   4.276   6.947
 2440SOL    HW2 8064   0.079   4.345   7.042
 2441SOL     OW 8065   0.560   3.951   6.752
 2441SOL    HW1 8066   0.598   3.871   6.788
 2441SOL    HW2 8067   0.469   3.950   6.780
 2442SOL     OW 8068   0.868   4.183   6.226
 2442SOL    HW1 8069   0.822   4.237   6.161
 2442SOL    HW2 8070   0.889   4.102   6.179
 2443SOL     OW 8071   1.015   3.777   6.338
 2443SOL    HW1 8072   0.957   3.769   6.262
 2443SOL    HW2 8073   0.994   3.702   6.393
 2444SOL     OW 8074   1.437   4.890   6.445
 2444SOL    HW1 8075   1.371   4.820   6.441
 2444SOL    HW2 8076   1.462   4.903   6.354
 2445SOL     OW 8077   1.466   4.329   6.564
 2445SOL    HW1 8078   1.417   4.247   6.567
 2445SOL    HW2 8079   1.526   4.323   6.638
 2446SOL     OW 8080   1.846   4.540   5.968
 2446SOL    HW1 8081   1.902   4.489   6.026
 2446SOL    HW2 8082   1.817   4.478   5.902
 2447SOL     OW 8083   0.484   5.143   5.741
 2447SOL    HW1 8084   0.420   5.093   5.792
 2447SOL    HW2 8085   0.480   5.104   5.654
 2448SOL     OW 8086   1.669   4.987   6.233
 2448SOL    HW1 8087   1.763   4.994   6.250
 2448SOL    HW2 8088   1.635   5.075   6.250
 2449SOL     OW 8089   1.394   4.296   5.657
 2449SOL    HW1 8090   1.333   4.276   5.729
 2449SOL    HW2 8091   1.478   4.263   5.688
 2450SOL     OW 8092   0.524   3.987   5.904
 2450SOL    HW1 8093   0.568   3.939   5.834
 2450SOL    HW2 8094   0.503   4.072   5.865
 2451SOL     OW 8095   1.751   4.959   7.162
 2451SOL    HW1 8096   1.838   4.918   7.161
 2451SOL    HW2 8097   1.769   5.052   7.176
 2452SOL     OW 8098   1.065   5.075   6.918
 2452SOL    HW1 8099   0.986   5.049   6.966
 2452SOL    HW2 8100   1.137   5.035   6.966
 2453SOL     OW 8101   1.126   4.926   6.694
 2453SOL    HW1 8102   1.075   4.967   6.763
 2453SOL    HW2 8103   1.081   4.951   6.613
 2454SOL     OW 8104   1.629   4.823   6.663
 2454SOL    HW1 8105   1.625   4.884   6.736
 2454SOL    HW2 8106   1.551   4.841   6.611
 2455SOL     OW 8107   0.918   3.821   6.983
 2455SOL    HW1 8108   0.940   3.802   6.892
 2455SOL    HW2 8109   0.997   3.860   7.020
 2456SOL     OW 8110   0.985   4.838   7.312
 2456SOL    HW1 8111   0.892   4.855   7.328
 2456SOL    HW2 8112   0.986   4.762   7.254
 2457SOL     OW 8113   0.703   4.780   5.959
 2457SOL    HW1 8114   0.693   4.766   6.053
 2457SOL    HW2 8115   0.781   4.731   5.935
 2458SOL     OW 8116   0.421   4.542   6.837
 2458SOL    HW1 8117   0.490   4.549   6.904
 2458SOL    HW2 8118   0.386   4.454   6.848
 2459SOL     OW 8119   1.266   4.101   6.860
 2459SOL    HW1 8120   1.298   4.179   6.906
 2459SOL    HW2 8121   1.175   4.123   6.837
 2460SOL     OW 8122   0.113   5.288   6.905
 2460SOL    HW1 8123   0.053   0.050   6.947
 2460SOL    HW2 8124   0.191   5.289   6.961
 2461SOL     OW 8125   0.344   4.827   6.073
 2461SOL    HW1 8126   0.351   4.906   6.019
 2461SOL    HW2 8127   0.353   4.755   6.011
 2462SOL     OW 8128   0.555   4.260   6.445
 2462SOL    HW1 8129   0.571   4.319   6.371
 2462SOL    HW2 8130   0.619   4.288   6.511
 2463SOL     OW 8131   1.260   5.076   5.971
 2463SOL    HW1 8132   1.316   5.143   6.010
 2463SOL    HW2 8133   1.172   5.099   6.001
 2464SOL     OW 8134   1.269   5.181   6.727
 2464SOL    HW1 8135   1.328   5.195   6.801
 2464SOL    HW2 8136   1.225   5.098   6.746
 2465SOL     OW 8137   1.582   4.347   6.064
 2465SOL    HW1 8138   1.536   4.402   6.128
 2465SOL    HW2 8139   1.627   4.410   6.008
 2466SOL     OW 8140   0.381   5.232   6.902
 2466SOL    HW1 8141   0.363   5.192   6.817
 2466SOL    HW2 8142   0.474   5.256   6.898
 2467SOL     OW 8143   0.413   4.467   7.188
 2467SOL    HW1 8144   0.474   4.513   7.130
 2467SOL    HW2 8145   0.452   4.380   7.200
 2468SOL     OW 8146   1.600   4.503   7.268
 2468SOL    HW1 8147   1.514   4.543   7.260
 2468SOL    HW2 8148   1.653   4.544   7.199
 2469SOL     OW 8149   0.996   3.846   7.341
 2469SOL    HW1 8150   1.051   3.919   7.312
 2469SOL    HW2 8151   1.045   3.768   7.316
 2470SOL     OW 8152   0.498   3.765   7.333
 2470SOL    HW1 8153   0.456   3.711   7.266
 2470SOL    HW2 8154   0.438   3.839   7.345
 2471SOL     OW 8155   0.586   4.597   6.618
 2471SOL    HW1 8156   0.614   4.688   6.616
 2471SOL    HW2 8157   0.529   4.591   6.695
 2472SOL     OW 8158   1.358   4.582   6.616
 2472SOL    HW1 8159   1.275   4.573   6.569
 2472SOL    HW2 8160   1.398   4.496   6.611
 2473SOL     OW 8161   1.205   4.253   5.853
 2473SOL    HW1 8162   1.213   4.174   5.908
 2473SOL    HW2 8163   1.162   4.317   5.910
 2474SOL     OW 8164   0.302   3.928   6.834
 2474SOL    HW1 8165   0.267   3.952   6.920
 2474SOL    HW2 8166   0.289   3.833   6.830
 2475SOL     OW 8167   0.044   5.022   6.863
 2475SOL    HW1 8168   0.075   4.972   6.938
 2475SOL    HW2 8169   0.045   5.113   6.892
 2476SOL     OW 8170   0.725   4.355   6.645
 2476SOL    HW1 8171   0.799   4.339   6.586
 2476SOL    HW2 8172   0.697   4.444   6.623
 2477SOL     OW 8173   1.735   4.684   7.437
 2477SOL    HW1 8174   1.687   4.623   7.381
 2477SOL    HW2 8175   1.677   4.697   7.512
 2478SOL     OW 8176   0.328   3.786   6.220
 2478SOL    HW1 8177   0.307   3.875   6.248
 2478SOL    HW2 8178   0.331   3.736   6.302
 2479SOL     OW 8179   1.616   4.098   5.953
 2479SOL    HW1 8180   1.643   4.034   6.019
 2479SOL    HW2 8181   1.593   4.176   6.004
 2480SOL     OW 8182   1.028   4.483   6.547
 2480SOL    HW1 8183   1.025   4.501   6.641
 2480SOL    HW2 8184   1.001   4.392   6.539
 2481SOL     OW 8185   1.854   5.214   7.171
 2481SOL    HW1 8186   1.850   5.288   7.111
 2481SOL    HW2 8187   1.924   5.236   7.232
 2482SOL     OW 8188   0.354   4.641   7.393
 2482SOL    HW1 8189   0.436   4.660   7.439
 2482SOL    HW2 8190   0.378   4.577   7.326
 2483SOL     OW 8191   1.529   3.997   5.713
 2483SOL    HW1 8192   1.465   3.932   5.739
 2483SOL    HW2 8193   1.562   4.033   5.796
 2484SOL     OW 8194   1.292   4.550   5.618
 2484SOL    HW1 8195   1.335   4.465   5.621
 2484SOL    HW2 8196   1.323   4.589   5.536
 2485SOL     OW 8197   1.058   5.078   6.413
 2485SOL    HW1 8198   1.063   4.993   6.369
 2485SOL    HW2 8199   1.145   5.117   6.400
 2486SOL     OW 8200   0.315   4.534   6.535
 2486SOL    HW1 8201   0.409   4.551   6.531
 2486SOL    HW2 8202   0.308   4.444   6.568
 2487SOL     OW 8203   0.335   4.249   6.601
 2487SOL    HW1 8204   0.300   4.162   6.586
 2487SOL    HW2 8205   0.410   4.255   6.541
 2488SOL     OW 8206   1.135   4.100   7.266
 2488SOL    HW1 8207   1.087   4.155   7.329
 2488SOL    HW2 8208   1.222   4.138   7.263
 2489SOL     OW 8209   1.161   3.927   7.055
 2489SOL    HW1 8210   1.150   3.990   7.127
 2489SOL    HW2 8211   1.200   3.978   6.984
 2490SOL     OW 8212   0.002   5.049   5.794
 2490SOL    HW1 8213   5.225   5.039   5.738
 2490SOL    HW2 8214   0.013   4.964   5.836
 2491SOL     OW 8215   0.984   4.517   6.813
 2491SOL    HW1 8216   1.039   4.493   6.888
 2491SOL    HW2 8217   0.899   4.478   6.833
 2492SOL     OW 8218   0.033   4.283   6.701
 2492SOL    HW1 8219   0.119   4.259   6.668
 2492SOL    HW2 8220   0.038   4.266   6.795
 2493SOL     OW 8221   0.176   4.236   7.302
 2493SOL    HW1 8222   0.239   4.198   7.241
 2493SOL    HW2 8223   0.146   4.316   7.259
 2494SOL     OW 8224   1.376   4.664   7.245
 2494SOL    HW1 8225   1.397   4.757   7.243
 2494SOL    HW2 8226   1.373   4.637   7.153
 2495SOL     OW 8227   0.816   4.293   5.945
 2495SOL    HW1 8228   0.820   4.218   5.885
 2495SOL    HW2 8229   0.742   4.345   5.913
 2496SOL     OW 8230   1.642   4.326   6.773
 2496SOL    HW1 8231   1.632   4.266   6.847
 2496SOL    HW2 8232   1.729   4.305   6.738
 2497SOL     OW 8233   0.210   5.279   7.319
 2497SOL    HW1 8234   0.165   0.019   7.393
 2497SOL    HW2 8235   0.215   5.186   7.341
 2498SOL     OW 8236   0.700   4.175   6.847
 2498SOL    HW1 8237   0.648   4.100   6.817
 2498SOL    HW2 8238   0.696   4.237   6.774
 2499SOL     OW 8239   0.465   4.217   5.772
 2499SOL    HW1 8240   0.525   4.289   5.793
 2499SOL    HW2 8241   0.380   4.259   5.761
 2500SOL     OW 8242   0.152   4.861   7.058
 2500SOL    HW1 8243   0.148   4.811   7.140
 2500SOL    HW2 8244   0.162   4.795   6.990
 2501SOL     OW 8245   1.328   4.770   6.809
 2501SOL    HW1 8246   1.350   4.707   6.740
 2501SOL    HW2 8247   1.256   4.822   6.771
 2502SOL     OW 8248   1.310   4.582   5.892
 2502SOL    HW1 8249   1.234   4.550   5.942
 2502SOL    HW2 8250   1.286   4.567   5.801
 2503SOL     OW 8251   0.076   4.921   6.616
 2503SOL    HW1 8252   0.065   4.960   6.702
 2503SOL    HW2 8253   5.290   4.926   6.576
 2504SOL     OW 8254   0.750   0.037   7.296
 2504SOL    HW1 8255   0.658   0.061   7.304
 2504SOL    HW2 8256   0.774   0.061   7.207
 2505SOL     OW 8257   1.719   3.870   6.096
 2505SOL    HW1 8258   1.792   3.855   6.036
 2505SOL    HW2 8259   1.703   3.784   6.136
 2506SOL     OW 8260   1.277   4.649   6.258
 2506SOL    HW1 8261   1.350   4.588   6.265
 2506SOL    HW2 8262   1.311   4.721   6.205
 2507SOL     OW 8263   0.819   4.994   7.008
 2507SOL    HW1 8264   0.789   5.030   7.091
 2507SOL    HW2 8265   0.744   5.002   6.950
 2508SOL     OW 8266   1.840   3.897   6.553
 2508SOL    HW1 8267   1.869   3.810   6.526
 2508SOL    HW2 8268   1.754   3.907   6.513
 2509SOL     OW 8269   0.272   4.041   6.304
 2509SOL    HW1 8270   0.188   4.080   6.282
 2509SOL    HW2 8271   0.270   4.030   6.399
 2510SOL     OW 8272   0.824   4.728   6.957
 2510SOL    HW1 8273   0.870   4.721   6.873
 2510SOL    HW2 8274   0.828   4.821   6.979
 2511SOL     OW 8275   0.915   4.636   5.876
 2511SOL    HW1 8276   0.977   4.668   5.810
 2511SOL    HW2 8277   0.963   4.565   5.921
 2512SOL     OW 8278   0.365   5.029   7.086
 2512SOL    HW1 8279   0.365   5.099   7.021
 2512SOL    HW2 8280   0.291   4.973   7.062
 2513SOL     OW 8281   1.612   5.004   6.868
 2513SOL    HW1 8282   1.669   4.998   6.945
 2513SOL    HW2 8283   1.550   5.074   6.890
 2514SOL     OW 8284   1.053   4.833   6.296
 2514SOL    HW1 8285   0.981   4.782   6.333
 2514SOL    HW2 8286   1.115   4.767   6.263
 2515SOL     OW 8287   1.021   3.964   6.552
 2515SOL    HW1 8288   1.016   3.917   6.469
 2515SOL    HW2 8289   1.016   3.896   6.619
 2516SOL     OW 8290   1.721   4.116   6.967
 2516SOL    HW1 8291   1.793   4.179   6.965
 2516SOL    HW2 8292   1.751   4.045   6.911
 2517SOL     OW 8293   0.259   5.060   5.872
 2517SOL    HW1 8294   0.166   5.063   5.848
 2517SOL    HW2 8295   0.262   5.097   5.960
 2518SOL     OW 8296   0.116   4.742   7.305
 2518SOL    HW1 8297   0.044   4.705   7.357
 2518SOL    HW2 8298   0.195   4.708   7.348
 2519SOL     OW 8299   0.673   3.920   7.085
 2519SOL    HW1 8300   0.757   3.901   7.043
 2519SOL    HW2 8301   0.697   3.950   7.173
 2520SOL     OW 8302   0.081   4.075   5.627
 2520SOL    HW1 8303   0.003   4.026   5.603
 2520SOL    HW2 8304   0.098   4.132   5.552
 2521SOL     OW 8305   1.430   4.582   6.987
 2521SOL    HW1 8306   1.382   4.643   6.931
 2521SOL    HW2 8307   1.520   4.584   6.953
 2522SOL     OW 8308   0.055   3.857   5.829
 2522SOL    HW1 8309   0.055   3.953   5.822
 2522SOL    HW2 8310   0.145   3.832   5.808
 2523SOL     OW 8311   1.182   5.065   5.706
 2523SOL    HW1 8312   1.091   5.036   5.707
 2523SOL    HW2 8313   1.210   5.056   5.798
 2524SOL     OW 8314   0.619   4.555   7.021
 2524SOL    HW1 8315   0.676   4.630   7.004
 2524SOL    HW2 8316   0.679   4.481   7.029
 2525SOL     OW 8317   0.717   4.288   7.292
 2525SOL    HW1 8318   0.757   4.350   7.352
 2525SOL    HW2 8319   0.747   4.202   7.322
 2526SOL     OW 8320   1.473   4.924   7.218
 2526SOL    HW1 8321   1.460   4.936   7.312
 2526SOL    HW2 8322   1.567   4.937   7.205
 2527SOL     OW 8323   1.670   4.606   6.841
 2527SOL    HW1 8324   1.663   4.520   6.799
 2527SOL    HW2 8325   1.660   4.669   6.770
 2528SOL     OW 8326   1.217   4.043   6.044
 2528SOL    HW1 8327   1.280   3.972   6.035
 2528SOL    HW2 8328   1.246   4.092   6.121
 2529SOL     OW 8329   0.591   4.462   6.255
 2529SOL    HW1 8330   0.629   4.548   6.239
 2529SOL    HW2 8331   0.521   4.455   6.189
 2530SOL     OW 8332   1.763   4.086   7.237
 2530SOL    HW1 8333   1.746   4.100   7.144
 2530SOL    HW2 8334   1.691   4.029   7.265
 2531SOL     OW 8335   1.745   4.657   7.098
 2531SOL    HW1 8336   1.741   4.752   7.111
 2531SOL    HW2 8337   1.729   4.645   7.004
 2532SOL     OW 8338   0.849   5.095   5.605
 2532SOL    HW1 8339   0.830   5.095   5.699
 2532SOL    HW2 8340   0.868   5.186   5.583
 2533SOL     OW 8341   0.868   4.691   6.441
 2533SOL    HW1 8342   0.917   4.619   6.481
 2533SOL    HW2 8343   0.833   4.741   6.515
 2534SOL     OW 8344   1.080   4.713   5.675
 2534SOL    HW1 8345   1.057   4.763   5.597
 2534SOL    HW2 8346   1.154   4.659   5.649
 2535SOL     OW 8347   0.220   5.025   7.442
 2535SOL    HW1 8348   0.155   4.958   7.419
 2535SOL    HW2 8349   0.210   5.037   7.537
 2536SOL     OW 8350   0.082   4.931   6.242
 2536SOL    HW1 8351   0.100   4.908   6.333
 2536SOL    HW2 8352   0.168   4.938   6.201
 2537SOL     OW 8353   0.670   5.106   7.195
 2537SOL    HW1 8354   0.593   5.073   7.242
 2537SOL    HW2 8355   0.701   5.180   7.248
 2538SOL     OW 8356   1.813   3.909   6.824
 2538SOL    HW1 8357   1.823   3.815   6.839
 2538SOL    HW2 8358   1.822   3.919   6.729
 2539SOL     OW 8359   0.435   4.160   6.110
 2539SOL    HW1 8360   0.462   4.087   6.054
 2539SOL    HW2 8361   0.387   4.118   6.182
 2540SOL     OW 8362   1.707   5.223   6.705
 2540SOL    HW1 8363   1.633   5.207   6.646
 2540SOL    HW2 8364   1.714   5.144   6.758
 2541SOL     OW 8365   0.336   4.283   6.877
 2541SOL    HW1 8366   0.389   4.223   6.930
 2541SOL    HW2 8367   0.350   4.253   6.787
 2542SOL     OW 8368   1.432   3.949   6.704
 2542SOL    HW1 8369   1.458   3.869   6.750
 2542SOL    HW2 8370   1.380   3.998   6.768
 2543SOL     OW 8371   1.009   3.743   6.729
 2543SOL    HW1 8372   0.954   3.675   6.689
 2543SOL    HW2 8373   1.097   3.705   6.731
 2544SOL     OW 8374   0.803   5.047   5.870
 2544SOL    HW1 8375   0.741   4.977   5.889
 2544SOL    HW2 8376   0.857   5.053   5.949
 2545SOL     OW 8377   0.639   0.002   6.873
 2545SOL    HW1 8378   0.643   0.057   6.951
 2545SOL    HW2 8379   0.730   5.285   6.850
 2546SOL     OW 8380   1.352   3.778   5.751
 2546SOL    HW1 8381   1.380   3.715   5.684
 2546SOL    HW2 8382   1.265   3.748   5.777
 2547SOL     OW 8383   1.297   4.185   6.267
 2547SOL    HW1 8384   1.243   4.264   6.275
 2547SOL    HW2 8385   1.293   4.145   6.354
 2548SOL     OW 8386   1.587   3.927   6.464
 2548SOL    HW1 8387   1.525   3.947   6.534
 2548SOL    HW2 8388   1.586   4.005   6.408
 2549SOL     OW 8389   0.047   4.791   5.876
 2549SOL    HW1 8390   0.137   4.760   5.866
 2549SOL    HW2 8391   0.000   4.716   5.913
 2550SOL     OW 8392   0.230   4.355   7.566
 2550SOL    HW1 8393   0.154   4.316   7.610
 2550SOL    HW2 8394   0.223   4.325   7.475
 2551SOL     OW 8395   1.767   4.323   7.679
 2551SOL    HW1 8396   1.747   4.318   7.586
 2551SOL    HW2 8397   1.726   4.245   7.717
 2552SOL     OW 8398   0.279   0.133   7.957
 2552SOL    HW1 8399   0.243   0.211   7.999
 2552SOL    HW2 8400   0.287   0.156   7.864
 2553SOL     OW 8401   0.225   5.157   7.990
 2553SOL    HW1 8402   0.232   5.253   7.995
 2553SOL    HW2 8403   0.156   5.135   8.053
 2554SOL     OW 8404   0.583   4.707   7.580
 2554SOL    HW1 8405   0.629   4.755   7.512
 2554SOL    HW2 8406   0.624   4.736   7.662
 2555SOL     OW 8407   0.003   5.298   7.524
 2555SOL    HW1 8408   0.017   5.211   7.561
 2555SOL    HW2 8409   0.019   0.058   7.596
 2556SOL     OW 8410   1.683   4.592   8.035
 2556SOL    HW1 8411   1.763   4.603   0.005
 2556SOL    HW2 8412   1.671   4.676   7.990
 2557SOL     OW 8413   1.655   4.825   7.876
 2557SOL    HW1 8414   1.743   4.845   7.843
 2557SOL    HW2 8415   1.636   4.895   7.938
 2558SOL     OW 8416   0.800   3.718   7.938
 2558SOL    HW1 8417   0.849   3.799   7.923
 2558SOL    HW2 8418   0.709   3.747   7.949
 2559SOL     OW 8419   1.532   4.720   7.647
 2559SOL    HW1 8420   1.466   4.660   7.681
 2559SOL    HW2 8421   1.575   4.754   7.726
 2560SOL     OW 8422   0.589   4.448   7.708
 2560SOL    HW1 8423   0.597   4.529   7.658
 2560SOL    HW2 8424   0.534   4.470   7.783
 2561SOL     OW 8425   0.054   4.541   0.204
 2561SOL    HW1 8426   0.125   4.489   0.166
 2561SOL    HW2 8427   0.031   4.604   0.135
 2562SOL     OW 8428   0.881   4.070   7.637
 2562SOL    HW1 8429   0.926   4.130   7.578
 2562SOL    HW2 8430   0.915   3.984   7.614
 2563SOL     OW 8431   0.318   4.673   7.693
 2563SOL    HW1 8432   0.400   4.698   7.650
 2563SOL    HW2 8433   0.295   4.589   7.653
 2564SOL     OW 8434   1.085   0.192   7.648
 2564SOL    HW1 8435   1.066   0.125   7.714
 2564SOL    HW2 8436   1.098   0.143   7.567
 2565SOL     OW 8437   1.626   5.100   7.550
 2565SOL    HW1 8438   1.612   5.180   7.500
 2565SOL    HW2 8439   1.557   5.041   7.521
 2566SOL     OW 8440   1.415   3.855   7.864
 2566SOL    HW1 8441   1.403   3.820   7.776
 2566SOL    HW2 8442   1.510   3.852   7.878
 2567SOL     OW 8443   0.380   4.424   7.922
 2567SOL    HW1 8444   0.400   4.330   7.926
 2567SOL    HW2 8445   0.286   4.428   7.943
 2568SOL     OW 8446   0.627   3.844   7.559
 2568SOL    HW1 8447   0.704   3.788   7.568
 2568SOL    HW2 8448   0.584   3.813   7.479
 2569SOL     OW 8449   0.527   3.798   7.961
 2569SOL    HW1 8450   0.440   3.803   8.001
 2569SOL    HW2 8451   0.528   3.869   7.896
 2570SOL     OW 8452   1.428   4.924   7.488
 2570SOL    HW1 8453   1.458   4.849   7.539
 2570SOL    HW2 8454   1.340   4.942   7.521
 2571SOL     OW 8455   0.306   3.768   7.620
 2571SOL    HW1 8456   0.368   3.832   7.585
 2571SOL    HW2 8457   0.360   3.705   7.667
 2572SOL     OW 8458   0.944   3.950   7.911
 2572SOL    HW1 8459   0.900   4.014   7.856
 2572SOL    HW2 8460   1.035   3.979   7.914
 2573SOL     OW 8461   0.448   4.883   0.090
 2573SOL    HW1 8462   0.375   4.901   0.150
 2573SOL    HW2 8463   0.405   4.863   0.007
 2574SOL     OW 8464   1.026   4.267   7.466
 2574SOL    HW1 8465   0.981   4.350   7.449
 2574SOL    HW2 8466   1.086   4.287   7.538
 2575SOL     OW 8467   1.869   4.541   7.802
 2575SOL    HW1 8468   1.871   4.510   7.892
 2575SOL    HW2 8469   1.830   4.470   7.752
 2576SOL     OW 8470   0.478   5.146   7.603
 2576SOL    HW1 8471   0.417   5.095   7.656
 2576SOL    HW2 8472   0.479   5.102   7.518
 2577SOL     OW 8473   1.394   4.296   7.519
 2577SOL    HW1 8474   1.333   4.276   7.591
 2577SOL    HW2 8475   1.478   4.262   7.549
 2578SOL     OW 8476   0.527   3.989   7.771
 2578SOL    HW1 8477   0.570   3.939   7.701
 2578SOL    HW2 8478   0.504   4.072   7.729
 2579SOL     OW 8479   0.705   4.780   7.815
 2579SOL    HW1 8480   0.691   4.771   7.909
 2579SOL    HW2 8481   0.786   4.732   7.799
 2580SOL     OW 8482   0.347   4.818   7.929
 2580SOL    HW1 8483   0.344   4.902   7.883
 2580SOL    HW2 8484   0.349   4.753   7.859
 2581SOL     OW 8485   1.226   5.114   7.831
 2581SOL    HW1 8486   1.311   5.125   7.874
 2581SOL    HW2 8487   1.175   5.061   7.892
 2582SOL     OW 8488   1.587   4.353   7.921
 2582SOL    HW1 8489   1.573   4.412   7.995
 2582SOL    HW2 8490   1.628   4.408   7.854
 2583SOL     OW 8491   1.204   4.251   7.716
 2583SOL    HW1 8492   1.207   4.167   7.762
 2583SOL    HW2 8493   1.177   4.314   7.783
 2584SOL     OW 8494   1.618   4.102   7.815
 2584SOL    HW1 8495   1.640   4.035   7.880
 2584SOL    HW2 8496   1.593   4.179   7.867
 2585SOL     OW 8497   1.530   3.999   7.575
 2585SOL    HW1 8498   1.465   3.933   7.601
 2585SOL    HW2 8499   1.562   4.034   7.658
 2586SOL     OW 8500   1.295   4.552   7.481
 2586SOL    HW1 8501   1.336   4.465   7.483
 2586SOL    HW2 8502   1.324   4.591   7.399
 2587SOL     OW 8503   0.004   5.052   7.655
 2587SOL    HW1 8504   5.224   5.045   7.603
 2587SOL    HW2 8505   0.017   4.964   7.692
 2588SOL     OW 8506   0.838   4.322   7.762
 2588SOL    HW1 8507   0.830   4.231   7.734
 2588SOL    HW2 8508   0.748   4.355   7.763
 2589SOL     OW 8509   0.462   4.217   7.639
 2589SOL    HW1 8510   0.523   4.289   7.654
 2589SOL    HW2 8511   0.378   4.259   7.625
 2590SOL     OW 8512   1.310   4.578   7.755
 2590SOL    HW1 8513   1.223   4.575   7.794
 2590SOL    HW2 8514   1.294   4.566   7.661
 2591SOL     OW 8515   1.712   3.870   7.948
 2591SOL    HW1 8516   1.789   3.861   7.893
 2591SOL    HW2 8517   1.713   3.792   8.004
 2592SOL     OW 8518   0.926   4.636   7.756
 2592SOL    HW1 8519   0.980   4.661   7.681
 2592SOL    HW2 8520   0.922   4.540   7.752
 2593SOL     OW 8521   0.259   5.061   7.744
 2593SOL    HW1 8522   0.167   5.068   7.720
 2593SOL    HW2 8523   0.264   5.099   7.832
 2594SOL     OW 8524   0.080   4.067   7.488
 2594SOL    HW1 8525   5.298   4.025   7.462
 2594SOL    HW2 8526   0.099   4.129   7.418
 2595SOL     OW 8527   0.081   3.860   7.737
 2595SOL    HW1 8528   0.066   3.948   7.703
 2595SOL    HW2 8529   0.154   3.826   7.685
 2596SOL     OW 8530   1.182   5.059   7.564
 2596SOL    HW1 8531   1.089   5.034   7.562
 2596SOL    HW2 8532   1.200   5.073   7.657
 2597SOL     OW 8533   1.215   4.042   7.903
 2597SOL    HW1 8534   1.288   3.981   7.892
 2597SOL    HW2 8535   1.236   4.090   7.984
 2598SOL     OW 8536   0.623   4.464   8.048
 2598SOL    HW1 8537   0.629   4.542   0.023
 2598SOL    HW2 8538   0.532   4.460   8.021
 2599SOL     OW 8539   0.851   5.094   7.466
 2599SOL    HW1 8540   0.832   5.094   7.560
 2599SOL    HW2 8541   0.866   5.186   7.444
 2600SOL     OW 8542   1.075   4.704   7.538
 2600SOL    HW1 8543   1.054   4.759   7.463
 2600SOL    HW2 8544   1.152   4.655   7.511
 2601SOL     OW 8545   0.393   4.154   7.978
 2601SOL    HW1 8546   0.438   4.095   7.918
 2601SOL    HW2 8547   0.435   4.138   8.063
 2602SOL     OW 8548   0.805   5.047   7.730
 2602SOL    HW1 8549   0.746   4.974   7.749
 2602SOL    HW2 8550   0.827   5.083   7.816
 2603SOL     OW 8551   1.352   3.777   7.610
 2603SOL    HW1 8552   1.381   3.711   7.546
 2603SOL    HW2 8553   1.266   3.746   7.638
 2604SOL     OW 8554   0.048   4.792   7.725
 2604SOL    HW1 8555   0.138   4.759   7.723
 2604SOL    HW2 8556   0.000   4.730   7.779
 2605SOL     OW 8557   2.081   0.625   0.120
 2605SOL    HW1 8558   2.002   0.590   0.161
 2605SOL    HW2 8559   2.106   0.557   0.056
 2606SOL     OW 8560   2.080   0.284   0.993
 2606SOL    HW1 8561   2.109   0.249   1.077
 2606SOL    HW2 8562   1.995   0.243   0.978
 2607SOL     OW 8563   1.866   0.386   0.638
 2607SOL    HW1 8564   1.782   0.407   0.678
 2607SOL    HW2 8565   1.848   0.307   0.586
 2608SOL     OW 8566   2.429   1.286   1.174
 2608SOL    HW1 8567   2.341   1.290   1.136
 2608SOL    HW2 8568   2.444   1.375   1.208
 2609SOL     OW 8569   3.422   1.512   0.707
 2609SOL    HW1 8570   3.379   1.492   0.790
 2609SOL    HW2 8571   3.351   1.515   0.643
 2610SOL     OW 8572   2.993   0.698   0.703
 2610SOL    HW1 8573   3.042   0.779   0.687
 2610SOL    HW2 8574   2.946   0.713   0.784
 2611SOL     OW 8575   3.633   0.600   0.231
 2611SOL    HW1 8576   3.590   0.604   0.146
 2611SOL    HW2 8577   3.591   0.526   0.275
 2612SOL     OW 8578   2.618   1.143   1.040
 2612SOL    HW1 8579   2.549   1.177   1.097
 2612SOL    HW2 8580   2.653   1.220   0.995
 2613SOL     OW 8581   2.727   0.778   1.822
 2613SOL    HW1 8582   2.716   0.850   1.884
 2613SOL    HW2 8583   2.751   0.821   1.740
 2614SOL     OW 8584   2.547   1.003   0.649
 2614SOL    HW1 8585   2.612   0.991   0.718
 2614SOL    HW2 8586   2.478   1.055   0.691
 2615SOL     OW 8587   2.572   1.151   1.811
 2615SOL    HW1 8588   2.619   1.229   1.838
 2615SOL    HW2 8589   2.489   1.184   1.777
 2616SOL     OW 8590   2.192   1.427   1.068
 2616SOL    HW1 8591   2.120   1.389   1.017
 2616SOL    HW2 8592   2.243   1.476   1.004
 2617SOL     OW 8593   3.323   1.499   1.353
 2617SOL    HW1 8594   3.372   1.581   1.363
 2617SOL    HW2 8595   3.263   1.499   1.428
 2618SOL     OW 8596   2.306   0.398   1.487
 2618SOL    HW1 8597   2.381   0.339   1.485
 2618SOL    HW2 8598   2.230   0.341   1.502
 2619SOL     OW 8599   3.473   0.452   0.738
 2619SOL    HW1 8600   3.395   0.474   0.687
 2619SOL    HW2 8601   3.491   0.530   0.790
 2620SOL     OW 8602   2.082   1.715   0.472
 2620SOL    HW1 8603   2.104   1.792   0.526
 2620SOL    HW2 8604   2.155   1.706   0.412
 2621SOL     OW 8605   2.998   1.342   1.692
 2621SOL    HW1 8606   3.039   1.337   1.779
 2621SOL    HW2 8607   2.946   1.262   1.686
 2622SOL     OW 8608   2.089   1.441   0.531
 2622SOL    HW1 8609   2.074   1.535   0.536
 2622SOL    HW2 8610   2.030   1.403   0.596
 2623SOL     OW 8611   2.118   1.090   0.891
 2623SOL    HW1 8612   2.116   1.004   0.932
 2623SOL    HW2 8613   2.060   1.144   0.945
 2624SOL     OW 8614   2.474   1.790   1.430
 2624SOL    HW1 8615   2.392   1.774   1.476
 2624SOL    HW2 8616   2.498   1.880   1.454
 2625SOL     OW 8617   2.491   0.961   0.133
 2625SOL    HW1 8618   2.441   1.039   0.107
 2625SOL    HW2 8619   2.541   0.989   0.209
 2626SOL     OW 8620   3.448   0.135   1.457
 2626SOL    HW1 8621   3.469   0.220   1.418
 2626SOL    HW2 8622   3.447   0.151   1.551
 2627SOL     OW 8623   1.976   0.651   0.561
 2627SOL    HW1 8624   1.948   0.562   0.583
 2627SOL    HW2 8625   1.968   0.699   0.644
 2628SOL     OW 8626   3.707   1.759   0.333
 2628SOL    HW1 8627   3.771   1.728   0.397
 2628SOL    HW2 8628   3.732   1.849   0.315
 2629SOL     OW 8629   1.891   1.596   0.111
 2629SOL    HW1 8630   1.877   1.508   0.145
 2629SOL    HW2 8631   1.874   1.653   0.186
 2630SOL     OW 8632   3.551   0.919   0.643
 2630SOL    HW1 8633   3.633   0.876   0.621
 2630SOL    HW2 8634   3.528   0.970   0.566
 2631SOL     OW 8635   3.508   1.105   0.434
 2631SOL    HW1 8636   3.588   1.120   0.384
 2631SOL    HW2 8637   3.513   1.167   0.507
 2632SOL     OW 8638   1.984   0.743   1.585
 2632SOL    HW1 8639   2.076   0.768   1.594
 2632SOL    HW2 8640   1.936   0.826   1.593
 2633SOL     OW 8641   2.475   1.385   0.735
 2633SOL    HW1 8642   2.429   1.302   0.744
 2633SOL    HW2 8643   2.459   1.411   0.644
 2634SOL     OW 8644   3.151   1.238   1.424
 2634SOL    HW1 8645   3.183   1.171   1.364
 2634SOL    HW2 8646   3.208   1.232   1.500
 2635SOL     OW 8647   2.672   0.026   0.528
 2635SOL    HW1 8648   2.702   0.112   0.499
 2635SOL    HW2 8649   2.577   0.030   0.522
 2636SOL     OW 8650   2.052   0.967   1.270
 2636SOL    HW1 8651   2.137   0.925   1.255
 2636SOL    HW2 8652   1.989   0.911   1.225
 2637SOL     OW 8653   3.373   1.006   0.211
 2637SOL    HW1 8654   3.311   0.940   0.244
 2637SOL    HW2 8655   3.424   1.031   0.288
 2638SOL     OW 8656   3.047   1.806   1.622
 2638SOL    HW1 8657   3.058   1.865   1.547
 2638SOL    HW2 8658   3.063   1.718   1.586
 2639SOL     OW 8659   2.188   0.265   1.810
 2639SOL    HW1 8660   2.240   0.341   1.837
 2639SOL    HW2 8661   2.102   0.280   1.849
 2640SOL     OW 8662   3.328   1.419   0.952
 2640SOL    HW1 8663   3.260   1.434   1.017
 2640SOL    HW2 8664   3.316   1.328   0.925
 2641SOL     OW 8665   3.521   1.739   0.581
 2641SOL    HW1 8666   3.500   1.711   0.492
 2641SOL    HW2 8667   3.496   1.665   0.636
 2642SOL     OW 8668   2.460   0.715   0.282
 2642SOL    HW1 8669   2.478   0.791   0.227
 2642SOL    HW2 8670   2.394   0.745   0.345
 2643SOL     OW 8671   3.140   0.346   0.931
 2643SOL    HW1 8672   3.049   0.317   0.943
 2643SOL    HW2 8673   3.189   0.296   0.996
 2644SOL     OW 8674   3.448   1.671   0.319
 2644SOL    HW1 8675   3.539   1.701   0.312
 2644SOL    HW2 8676   3.422   1.654   0.228
 2645SOL     OW 8677   2.656   0.618   1.451
 2645SOL    HW1 8678   2.629   0.597   1.540
 2645SOL    HW2 8679   2.613   0.552   1.396
 2646SOL     OW 8680   3.257   0.475   1.678
 2646SOL    HW1 8681   3.258   0.519   1.763
 2646SOL    HW2 8682   3.320   0.404   1.687
 2647SOL     OW 8683   2.818   0.888   1.582
 2647SOL    HW1 8684   2.872   0.817   1.547
 2647SOL    HW2 8685   2.770   0.921   1.506
 2648SOL     OW 8686   2.856   0.417   1.236
 2648SOL    HW1 8687   2.771   0.438   1.275
 2648SOL    HW2 8688   2.834   0.368   1.156
 2649SOL     OW 8689   2.914   0.698   0.427
 2649SOL    HW1 8690   2.929   0.691   0.522
 2649SOL    HW2 8691   2.831   0.652   0.412
 2650SOL     OW 8692   1.951   0.821   0.776
 2650SOL    HW1 8693   2.032   0.814   0.827
 2650SOL    HW2 8694   1.908   0.899   0.811
 2651SOL     OW 8695   1.989   1.848   1.578
 2651SOL    HW1 8696   1.989   1.826   1.671
 2651SOL    HW2 8697   1.897   1.838   1.551
 2652SOL     OW 8698   2.748   0.359   0.202
 2652SOL    HW1 8699   2.792   0.406   0.132
 2652SOL    HW2 8700   2.730   0.272   0.166
 2653SOL     OW 8701   3.570   0.575   1.828
 2653SOL    HW1 8702   3.533   0.649   1.780
 2653SOL    HW2 8703   3.599   0.514   1.760
 2654SOL     OW 8704   3.238   1.142   0.542
 2654SOL    HW1 8705   3.316   1.128   0.488
 2654SOL    HW2 8706   3.185   1.204   0.492
 2655SOL     OW 8707   2.388   0.201   0.883
 2655SOL    HW1 8708   2.411   0.217   0.975
 2655SOL    HW2 8709   2.411   0.282   0.839
 2656SOL     OW 8710   2.868   1.445   0.473
 2656SOL    HW1 8711   2.829   1.517   0.424
 2656SOL    HW2 8712   2.850   1.467   0.565
 2657SOL     OW 8713   2.216   1.808   0.860
 2657SOL    HW1 8714   2.260   1.723   0.869
 2657SOL    HW2 8715   2.285   1.872   0.879
 2658SOL     OW 8716   3.661   1.058   0.868
 2658SOL    HW1 8717   3.606   1.039   0.792
 2658SOL    HW2 8718   3.599   1.063   0.941
 2659SOL     OW 8719   3.090   1.539   1.513
 2659SOL    HW1 8720   3.076   1.466   1.573
 2659SOL    HW2 8721   3.028   1.524   1.442
 2660SOL     OW 8722   2.189   0.943   0.253
 2660SOL    HW1 8723   2.262   0.981   0.203
 2660SOL    HW2 8724   2.186   0.852   0.224
 2661SOL     OW 8725   3.340   0.742   0.727
 2661SOL    HW1 8726   3.330   0.698   0.811
 2661SOL    HW2 8727   3.417   0.798   0.737
 2662SOL     OW 8728   2.328   1.265   1.738
 2662SOL    HW1 8729   2.300   1.269   1.646
 2662SOL    HW2 8730   2.246   1.263   1.787
 2663SOL     OW 8731   2.969   1.781   0.224
 2663SOL    HW1 8732   2.914   1.740   0.291
 2663SOL    HW2 8733   2.990   1.710   0.163
 2664SOL     OW 8734   2.059   0.278   1.502
 2664SOL    HW1 8735   1.980   0.332   1.497
 2664SOL    HW2 8736   2.050   0.230   1.584
 2665SOL     OW 8737   3.496   1.373   0.082
 2665SOL    HW1 8738   3.454   1.460   0.081
 2665SOL    HW2 8739   3.424   1.312   0.064
 2666SOL     OW 8740   2.327   1.740   0.322
 2666SOL    HW1 8741   2.371   1.795   0.387
 2666SOL    HW2 8742   2.397   1.709   0.264
 2667SOL     OW 8743   3.276   0.099   0.446
 2667SOL    HW1 8744   3.267   0.079   0.353
 2667SOL    HW2 8745   3.368   0.127   0.455
 2668SOL     OW 8746   2.118   1.792   1.232
 2668SOL    HW1 8747   2.170   1.727   1.279
 2668SOL    HW2 8748   2.108   1.757   1.144
 2669SOL     OW 8749   2.800   1.698   0.900
 2669SOL    HW1 8750   2.878   1.646   0.920
 2669SOL    HW2 8751   2.755   1.648   0.831
 2670SOL     OW 8752   2.247   0.698   0.477
 2670SOL    HW1 8753   2.273   0.606   0.486
 2670SOL    HW2 8754   2.155   0.700   0.500
 2671SOL     OW 8755   3.402   0.228   1.724
 2671SOL    HW1 8756   3.409   0.246   1.817
 2671SOL    HW2 8757   3.326   0.169   1.716
 2672SOL     OW 8758   2.487   0.136   0.124
 2672SOL    HW1 8759   2.578   0.108   0.134
 2672SOL    HW2 8760   2.459   0.098   0.041
 2673SOL     OW 8761   2.644   0.313   1.767
 2673SOL    HW1 8762   2.701   0.236   1.768
 2673SOL    HW2 8763   2.594   0.307   1.848
 2674SOL     OW 8764   2.737   1.520   1.194
 2674SOL    HW1 8765   2.723   1.485   1.106
 2674SOL    HW2 8766   2.808   1.467   1.230
 2675SOL     OW 8767   3.203   0.589   1.432
 2675SOL    HW1 8768   3.233   0.557   1.517
 2675SOL    HW2 8769   3.239   0.677   1.425
 2676SOL     OW 8770   2.676   1.396   0.939
 2676SOL    HW1 8771   2.761   1.384   0.895
 2676SOL    HW2 8772   2.612   1.396   0.867
 2677SOL     OW 8773   2.789   0.510   0.903
 2677SOL    HW1 8774   2.765   0.502   0.810
 2677SOL    HW2 8775   2.821   0.423   0.927
 2678SOL     OW 8776   2.404   0.062   0.512
 2678SOL    HW1 8777   2.317   0.060   0.552
 2678SOL    HW2 8778   2.398   0.131   0.446
 2679SOL     OW 8779   3.296   1.199   0.036
 2679SOL    HW1 8780   3.320   1.125   0.092
 2679SOL    HW2 8781   3.207   1.223   0.065
 2680SOL     OW 8782   2.162   0.068   0.205
 2680SOL    HW1 8783   2.218   0.138   0.172
 2680SOL    HW2 8784   2.215   5.289   0.198
 2681SOL     OW 8785   2.806   0.256   0.455
 2681SOL    HW1 8786   2.778   0.302   0.375
 2681SOL    HW2 8787   2.898   0.278   0.465
 2682SOL     OW 8788   2.942   0.681   1.460
 2682SOL    HW1 8789   2.873   0.615   1.465
 2682SOL    HW2 8790   3.023   0.630   1.453
 2683SOL     OW 8791   3.085   1.570   0.794
 2683SOL    HW1 8792   3.102   1.637   0.728
 2683SOL    HW2 8793   3.154   1.583   0.860
 2684SOL     OW 8794   2.329   1.150   0.734
 2684SOL    HW1 8795   2.261   1.130   0.798
 2684SOL    HW2 8796   2.289   1.134   0.649
 2685SOL     OW 8797   3.130   1.794   0.606
 2685SOL    HW1 8798   3.179   1.857   0.553
 2685SOL    HW2 8799   3.065   1.847   0.652
 2686SOL     OW 8800   2.892   0.529   0.031
 2686SOL    HW1 8801   2.851   0.611   0.001
 2686SOL    HW2 8802   2.955   0.557   0.097
 2687SOL     OW 8803   1.940   0.553   1.393
 2687SOL    HW1 8804   2.032   0.553   1.365
 2687SOL    HW2 8805   1.935   0.624   1.457
 2688SOL     OW 8806   2.418   0.238   1.158
 2688SOL    HW1 8807   2.449   0.152   1.186
 2688SOL    HW2 8808   2.326   0.240   1.184
 2689SOL     OW 8809   2.729   0.460   0.639
 2689SOL    HW1 8810   2.686   0.514   0.573
 2689SOL    HW2 8811   2.751   0.379   0.594
 2690SOL     OW 8812   2.839   0.062   0.763
 2690SOL    HW1 8813   2.775   0.055   0.691
 2690SOL    HW2 8814   2.850   5.271   0.792
 2691SOL     OW 8815   3.298   1.163   0.857
 2691SOL    HW1 8816   3.230   1.096   0.856
 2691SOL    HW2 8817   3.322   1.174   0.765
 2692SOL     OW 8818   3.329   0.605   0.978
 2692SOL    HW1 8819   3.280   0.523   0.982
 2692SOL    HW2 8820   3.389   0.600   1.052
 2693SOL     OW 8821   3.710   0.815   0.387
 2693SOL    HW1 8822   3.762   0.763   0.448
 2693SOL    HW2 8823   3.679   0.753   0.321
 2694SOL     OW 8824   2.344   1.439   0.173
 2694SOL    HW1 8825   2.272   1.397   0.220
 2694SOL    HW2 8826   2.351   1.390   0.090
 2695SOL     OW 8827   3.532   1.265   0.648
 2695SOL    HW1 8828   3.627   1.269   0.661
 2695SOL    HW2 8829   3.502   1.354   0.668
 2696SOL     OW 8830   3.261   0.579   0.087
 2696SOL    HW1 8831   3.198   0.560   0.156
 2696SOL    HW2 8832   3.317   0.502   0.083
 2697SOL     OW 8833   2.385   0.268   0.329
 2697SOL    HW1 8834   2.426   0.212   0.262
 2697SOL    HW2 8835   2.370   0.351   0.284
 2698SOL     OW 8836   3.615   1.239   1.574
 2698SOL    HW1 8837   3.702   1.199   1.570
 2698SOL    HW2 8838   3.630   1.329   1.603
 2699SOL     OW 8839   2.921   1.354   1.334
 2699SOL    HW1 8840   2.846   1.322   1.385
 2699SOL    HW2 8841   2.997   1.312   1.375
 2700SOL     OW 8842   3.469   1.625   1.653
 2700SOL    HW1 8843   3.464   1.659   1.564
 2700SOL    HW2 8844   3.552   1.578   1.656
 2701SOL     OW 8845   2.990   1.203   1.106
 2701SOL    HW1 8846   2.931   1.241   1.171
 2701SOL    HW2 8847   2.957   1.235   1.022
 2702SOL     OW 8848   3.491   1.099   1.078
 2702SOL    HW1 8849   3.486   1.160   1.150
 2702SOL    HW2 8850   3.411   1.115   1.027
 2703SOL     OW 8851   2.767   0.106   1.390
 2703SOL    HW1 8852   2.797   0.072   1.306
 2703SOL    HW2 8853   2.844   0.148   1.428
 2704SOL     OW 8854   2.846   1.115   1.722
 2704SOL    HW1 8855   2.754   1.130   1.743
 2704SOL    HW2 8856   2.845   1.037   1.666
 2705SOL     OW 8857   2.576   1.063   0.380
 2705SOL    HW1 8858   2.559   1.045   0.472
 2705SOL    HW2 8859   2.653   1.011   0.359
 2706SOL     OW 8860   2.280   0.815   1.252
 2706SOL    HW1 8861   2.349   0.824   1.318
 2706SOL    HW2 8862   2.245   0.727   1.265
 2707SOL     OW 8863   3.129   0.379   1.272
 2707SOL    HW1 8864   3.162   0.456   1.319
 2707SOL    HW2 8865   3.039   0.401   1.249
 2708SOL     OW 8866   1.932   1.573   1.352
 2708SOL    HW1 8867   1.902   1.646   1.298
 2708SOL    HW2 8868   2.028   1.577   1.346
 2709SOL     OW 8869   2.207   1.110   0.492
 2709SOL    HW1 8870   2.214   1.182   0.430
 2709SOL    HW2 8871   2.216   1.031   0.438
 2710SOL     OW 8872   2.416   0.538   0.861
 2710SOL    HW1 8873   2.431   0.596   0.786
 2710SOL    HW2 8874   2.481   0.565   0.926
 2711SOL     OW 8875   3.109   1.347   0.393
 2711SOL    HW1 8876   3.165   1.419   0.422
 2711SOL    HW2 8877   3.022   1.370   0.425
 2712SOL     OW 8878   3.142   1.457   1.147
 2712SOL    HW1 8879   3.198   1.459   1.224
 2712SOL    HW2 8880   3.087   1.380   1.159
 2713SOL     OW 8881   3.445   0.626   0.480
 2713SOL    HW1 8882   3.396   0.676   0.545
 2713SOL    HW2 8883   3.480   0.692   0.421
 2714SOL     OW 8884   2.209   1.527   1.316
 2714SOL    HW1 8885   2.196   1.484   1.231
 2714SOL    HW2 8886   2.303   1.539   1.323
 2715SOL     OW 8887   2.276   0.744   1.602
 2715SOL    HW1 8888   2.337   0.790   1.544
 2715SOL    HW2 8889   2.317   0.660   1.620
 2716SOL     OW 8890   3.463   0.778   1.681
 2716SOL    HW1 8891   3.376   0.819   1.674
 2716SOL    HW2 8892   3.515   0.821   1.613
 2717SOL     OW 8893   2.905   0.116   1.784
 2717SOL    HW1 8894   2.930   0.195   1.736
 2717SOL    HW2 8895   2.911   0.046   1.718
 2718SOL     OW 8896   2.345   0.057   1.739
 2718SOL    HW1 8897   2.287   5.292   1.697
 2718SOL    HW2 8898   2.287   0.130   1.760
 2719SOL     OW 8899   2.445   0.873   1.031
 2719SOL    HW1 8900   2.476   0.963   1.030
 2719SOL    HW2 8901   2.388   0.867   1.108
 2720SOL     OW 8902   3.220   0.859   1.031
 2720SOL    HW1 8903   3.138   0.850   0.982
 2720SOL    HW2 8904   3.260   0.772   1.026
 2721SOL     OW 8905   3.066   0.527   0.270
 2721SOL    HW1 8906   3.073   0.447   0.323
 2721SOL    HW2 8907   3.024   0.590   0.328
 2722SOL     OW 8908   2.159   0.204   1.247
 2722SOL    HW1 8909   2.120   0.243   1.325
 2722SOL    HW2 8910   2.157   0.110   1.264
 2723SOL     OW 8911   1.908   1.311   1.276
 2723SOL    HW1 8912   1.941   1.256   1.348
 2723SOL    HW2 8913   1.915   1.400   1.309
 2724SOL     OW 8914   2.588   0.632   1.060
 2724SOL    HW1 8915   2.661   0.615   1.001
 2724SOL    HW2 8916   2.559   0.720   1.037
 2725SOL     OW 8917   3.596   0.960   1.852
 2725SOL    HW1 8918   3.550   0.899   1.794
 2725SOL    HW2 8919   3.536   0.972   1.926
 2726SOL     OW 8920   2.162   0.072   0.650
 2726SOL    HW1 8921   2.147   0.166   0.658
 2726SOL    HW2 8922   2.205   0.047   0.731
 2727SOL     OW 8923   3.482   0.377   0.368
 2727SOL    HW1 8924   3.510   0.311   0.432
 2727SOL    HW2 8925   3.456   0.453   0.421
 2728SOL     OW 8926   2.889   0.759   0.961
 2728SOL    HW1 8927   2.887   0.777   1.055
 2728SOL    HW2 8928   2.863   0.668   0.953
 2729SOL     OW 8929   2.843   1.566   1.716
 2729SOL    HW1 8930   2.829   1.610   1.633
 2729SOL    HW2 8931   2.887   1.484   1.693
 2730SOL     OW 8932   3.717   1.507   1.605
 2730SOL    HW1 8933   3.735   1.533   1.515
 2730SOL    HW2 8934   3.798   1.525   1.652
 2731SOL     OW 8935   2.215   0.916   1.808
 2731SOL    HW1 8936   2.297   0.935   1.854
 2731SOL    HW2 8937   2.239   0.854   1.740
 2732SOL     OW 8938   3.384   0.300   0.126
 2732SOL    HW1 8939   3.346   0.214   0.141
 2732SOL    HW2 8940   3.423   0.324   0.210
 2733SOL     OW 8941   3.157   0.825   0.022
 2733SOL    HW1 8942   3.195   0.739   0.039
 2733SOL    HW2 8943   3.215   0.865   8.038
 2734SOL     OW 8944   2.927   1.336   0.854
 2734SOL    HW1 8945   2.930   1.263   0.792
 2734SOL    HW2 8946   2.989   1.400   0.819
 2735SOL     OW 8947   2.171   0.809   0.947
 2735SOL    HW1 8948   2.264   0.830   0.941
 2735SOL    HW2 8949   2.169   0.719   0.980
 2736SOL     OW 8950   2.194   0.525   1.012
 2736SOL    HW1 8951   2.158   0.438   0.997
 2736SOL    HW2 8952   2.271   0.530   0.955
 2737SOL     OW 8953   2.997   0.378   1.688
 2737SOL    HW1 8954   2.950   0.432   1.750
 2737SOL    HW2 8955   3.085   0.417   1.683
 2738SOL     OW 8956   2.996   0.222   1.465
 2738SOL    HW1 8957   3.000   0.281   1.541
 2738SOL    HW2 8958   3.051   0.264   1.399
 2739SOL     OW 8959   1.873   1.324   0.190
 2739SOL    HW1 8960   1.786   1.338   0.153
 2739SOL    HW2 8961   1.871   1.234   0.222
 2740SOL     OW 8962   1.952   1.788   0.937
 2740SOL    HW1 8963   1.922   1.708   0.894
 2740SOL    HW2 8964   2.042   1.799   0.906
 2741SOL     OW 8965   2.358   1.573   0.905
 2741SOL    HW1 8966   2.427   1.635   0.930
 2741SOL    HW2 8967   2.403   1.509   0.849
 2742SOL     OW 8968   2.846   0.793   1.227
 2742SOL    HW1 8969   2.901   0.769   1.301
 2742SOL    HW2 8970   2.761   0.755   1.248
 2743SOL     OW 8971   1.897   0.544   1.117
 2743SOL    HW1 8972   1.977   0.528   1.066
 2743SOL    HW2 8973   1.927   0.548   1.208
 2744SOL     OW 8974   2.049   0.521   1.726
 2744SOL    HW1 8975   2.112   0.487   1.663
 2744SOL    HW2 8976   2.008   0.595   1.681
 2745SOL     OW 8977   3.239   0.940   1.659
 2745SOL    HW1 8978   3.260   1.033   1.657
 2745SOL    HW2 8979   3.236   0.914   1.567
 2746SOL     OW 8980   2.680   0.570   0.366
 2746SOL    HW1 8981   2.689   0.499   0.303
 2746SOL    HW2 8982   2.604   0.620   0.337
 2747SOL     OW 8983   3.505   0.601   1.187
 2747SOL    HW1 8984   3.493   0.542   1.261
 2747SOL    HW2 8985   3.592   0.581   1.152
 2748SOL     OW 8986   2.106   1.552   1.728
 2748SOL    HW1 8987   2.083   1.615   1.796
 2748SOL    HW2 8988   2.107   1.467   1.773
 2749SOL     OW 8989   2.560   0.452   1.261
 2749SOL    HW1 8990   2.509   0.378   1.227
 2749SOL    HW2 8991   2.559   0.516   1.190
 2750SOL     OW 8992   2.789   1.679   1.468
 2750SOL    HW1 8993   2.765   1.645   1.382
 2750SOL    HW2 8994   2.787   1.775   1.457
 2751SOL     OW 8995   2.330   0.492   0.177
 2751SOL    HW1 8996   2.397   0.557   0.196
 2751SOL    HW2 8997   2.247   0.538   0.193
 2752SOL     OW 8998   2.008   1.140   1.472
 2752SOL    HW1 8999   2.011   1.088   1.552
 2752SOL    HW2 9000   2.026   1.077   1.402
 2753SOL     OW 9001   3.188   1.048   1.224
 2753SOL    HW1 9002   3.212   0.984   1.156
 2753SOL    HW2 9003   3.118   1.099   1.185
 2754SOL     OW 9004   3.168   0.849   0.308
 2754SOL    HW1 9005   3.090   0.820   0.356
 2754SOL    HW2 9006   3.144   0.838   0.216
 2755SOL     OW 9007   3.632   1.745   1.149
 2755SOL    HW1 9008   3.693   1.771   1.080
 2755SOL    HW2 9009   3.609   1.655   1.128
 2756SOL     OW 9010   3.103   1.732   1.113
 2756SOL    HW1 9011   3.185   1.753   1.068
 2756SOL    HW2 9012   3.109   1.638   1.131
 2757SOL     OW 9013   1.945   1.267   1.012
 2757SOL    HW1 9014   1.932   1.279   1.106
 2757SOL    HW2 9015   1.873   1.212   0.984
 2758SOL     OW 9016   2.540   1.665   1.728
 2758SOL    HW1 9017   2.487   1.745   1.723
 2758SOL    HW2 9018   2.605   1.676   1.659
 2759SOL     OW 9019   2.755   0.086   0.139
 2759SOL    HW1 9020   2.803   0.079   0.056
 2759SOL    HW2 9021   2.776   0.005   0.185
 2760SOL     OW 9022   3.575   0.148   0.505
 2760SOL    HW1 9023   3.649   0.127   0.448
 2760SOL    HW2 9024   3.567   0.073   0.563
 2761SOL     OW 9025   3.251   1.568   0.485
 2761SOL    HW1 9026   3.315   1.600   0.421
 2761SOL    HW2 9027   3.204   1.646   0.514
 2762SOL     OW 9028   1.998   1.797   1.843
 2762SOL    HW1 9029   1.947   1.731   1.891
 2762SOL    HW2 9030   2.046   1.844   1.912
 2763SOL     OW 9031   3.139   0.925   0.672
 2763SOL    HW1 9032   3.213   0.864   0.677
 2763SOL    HW2 9033   3.172   0.998   0.619
 2764SOL     OW 9034   2.678   1.273   1.430
 2764SOL    HW1 9035   2.650   1.312   1.513
 2764SOL    HW2 9036   2.608   1.295   1.368
 2765SOL     OW 9037   2.537   1.621   0.156
 2765SOL    HW1 9038   2.544   1.626   0.061
 2765SOL    HW2 9039   2.477   1.548   0.172
 2766SOL     OW 9040   3.489   1.726   1.391
 2766SOL    HW1 9041   3.539   1.734   1.310
 2766SOL    HW2 9042   3.476   1.817   1.419
 2767SOL     OW 9043   3.707   0.158   0.957
 2767SOL    HW1 9044   3.708   0.063   0.942
 2767SOL    HW2 9045   3.620   0.186   0.930
 2768SOL     OW 9046   2.124   0.329   0.720
 2768SOL    HW1 9047   2.037   0.360   0.698
 2768SOL    HW2 9048   2.122   0.317   0.815
 2769SOL     OW 9049   3.018   1.582   0.051
 2769SOL    HW1 9050   3.035   1.490   0.071
 2769SOL    HW2 9051   3.029   1.589   8.036
 2770SOL     OW 9052   2.686   1.006   1.372
 2770SOL    HW1 9053   2.730   1.001   1.287
 2770SOL    HW2 9054   2.686   1.099   1.394
 2771SOL     OW 9055   2.781   0.915   0.298
 2771SOL    HW1 9056   2.835   0.939   0.223
 2771SOL    HW2 9057   2.828   0.841   0.338
 2772SOL     OW 9058   3.372   1.624   0.060
 2772SOL    HW1 9059   3.277   1.624   0.049
 2772SOL    HW2 9060   3.407   1.625   8.051
 2773SOL     OW 9061   2.231   1.303   1.492
 2773SOL    HW1 9062   2.218   1.379   1.437
 2773SOL    HW2 9063   2.154   1.248   1.475
 2774SOL     OW 9064   3.473   1.283   1.281
 2774SOL    HW1 9065   3.533   1.273   1.354
 2774SOL    HW2 9066   3.413   1.352   1.308
 2775SOL     OW 9067   2.913   1.107   0.707
 2775SOL    HW1 9068   2.842   1.055   0.746
 2775SOL    HW2 9069   2.975   1.042   0.673
 2776SOL     OW 9070   2.881   0.243   0.968
 2776SOL    HW1 9071   2.862   0.197   0.886
 2776SOL    HW2 9072   2.874   0.176   1.036
 2777SOL     OW 9073   2.465   1.488   0.480
 2777SOL    HW1 9074   2.509   1.437   0.412
 2777SOL    HW2 9075   2.394   1.533   0.434
 2778SOL     OW 9076   3.585   0.387   1.378
 2778SOL    HW1 9077   3.655   0.452   1.378
 2778SOL    HW2 9078   3.617   0.317   1.321
 2779SOL     OW 9079   2.128   1.321   0.294
 2779SOL    HW1 9080   2.042   1.332   0.254
 2779SOL    HW2 9081   2.121   1.366   0.378
 2780SOL     OW 9082   1.974   1.021   1.719
 2780SOL    HW1 9083   1.898   0.998   1.772
 2780SOL    HW2 9084   2.049   0.984   1.766
 2781SOL     OW 9085   2.534   0.210   1.488
 2781SOL    HW1 9086   2.618   0.193   1.444
 2781SOL    HW2 9087   2.557   0.260   1.566
 2782SOL     OW 9088   1.930   0.362   0.035
 2782SOL    HW1 9089   1.858   0.300   0.022
 2782SOL    HW2 9090   1.946   0.397   8.027
 2783SOL     OW 9091   3.292   0.858   1.401
 2783SOL    HW1 9092   3.244   0.919   1.345
 2783SOL    HW2 9093   3.382   0.861   1.367
 2784SOL     OW 9094   1.930   0.165   0.314
 2784SOL    HW1 9095   1.937   0.253   0.276
 2784SOL    HW2 9096   2.015   0.125   0.296
 2785SOL     OW 9097   3.047   1.319   0.121
 2785SOL    HW1 9098   2.952   1.307   0.120
 2785SOL    HW2 9099   3.070   1.321   0.214
 2786SOL     OW 9100   2.481   0.831   1.433
 2786SOL    HW1 9101   2.536   0.907   1.418
 2786SOL    HW2 9102   2.542   0.758   1.442
 2787SOL     OW 9103   3.346   1.775   0.977
 2787SOL    HW1 9104   3.370   1.835   0.907
 2787SOL    HW2 9105   3.428   1.758   1.024
 2788SOL     OW 9106   2.578   0.572   1.703
 2788SOL    HW1 9107   2.618   0.635   1.763
 2788SOL    HW2 9108   2.609   0.487   1.734
 2789SOL     OW 9109   3.333   1.201   1.632
 2789SOL    HW1 9110   3.321   1.214   1.726
 2789SOL    HW2 9111   3.426   1.215   1.618
 2790SOL     OW 9112   2.241   1.740   1.564
 2790SOL    HW1 9113   2.156   1.780   1.551
 2790SOL    HW2 9114   2.222   1.656   1.605
 2791SOL     OW 9115   3.532   0.881   1.255
 2791SOL    HW1 9116   3.525   0.796   1.213
 2791SOL    HW2 9117   3.523   0.945   1.184
 2792SOL     OW 9118   3.077   0.327   0.474
 2792SOL    HW1 9119   3.136   0.254   0.457
 2792SOL    HW2 9120   3.117   0.374   0.547
 2793SOL     OW 9121   2.450   0.738   0.669
 2793SOL    HW1 9122   2.491   0.823   0.653
 2793SOL    HW2 9123   2.382   0.732   0.603
 2794SOL     OW 9124   3.629   0.362   1.649
 2794SOL    HW1 9125   3.609   0.376   1.556
 2794SOL    HW2 9126   3.558   0.305   1.680
 2795SOL     OW 9127   3.606   0.934   1.512
 2795SOL    HW1 9128   3.605   1.029   1.525
 2795SOL    HW2 9129   3.591   0.922   1.418
 2796SOL     OW 9130   2.756   1.373   0.035
 2796SOL    HW1 9131   2.692   1.364   0.105
 2796SOL    HW2 9132   2.740   1.460   8.078
 2797SOL     OW 9133   2.523   1.787   0.944
 2797SOL    HW1 9134   2.502   1.878   0.923
 2797SOL    HW2 9135   2.618   1.783   0.940
 2798SOL     OW 9136   2.728   0.966   0.856
 2798SOL    HW1 9137   2.779   0.895   0.895
 2798SOL    HW2 9138   2.695   1.016   0.930
 2799SOL     OW 9139   2.939   0.978   0.086
 2799SOL    HW1 9140   2.927   1.039   0.013
 2799SOL    HW2 9141   3.017   0.927   0.062
 2800SOL     OW 9142   3.717   1.555   0.844
 2800SOL    HW1 9143   3.638   1.543   0.790
 2800SOL    HW2 9144   3.708   1.488   0.913
 2801SOL     OW 9145   2.086   1.304   1.856
 2801SOL    HW1 9146   2.019   1.242   1.827
 2801SOL    HW2 9147   2.069   1.316   1.949
 2802SOL     OW 9148   1.947   1.233   0.664
 2802SOL    HW1 9149   1.949   1.184   0.746
 2802SOL    HW2 9150   2.018   1.196   0.612
 2803SOL     OW 9151   2.542   1.402   1.626
 2803SOL    HW1 9152   2.463   1.359   1.658
 2803SOL    HW2 9153   2.538   1.490   1.664
 2804SOL     OW 9154   3.677   0.178   1.233
 2804SOL    HW1 9155   3.645   0.088   1.240
 2804SOL    HW2 9156   3.694   0.190   1.140
 2805SOL     OW 9157   2.287   0.438   0.522
 2805SOL    HW1 9158   2.324   0.366   0.471
 2805SOL    HW2 9159   2.244   0.395   0.596
 2806SOL     OW 9160   3.563   1.490   1.097
 2806SOL    HW1 9161   3.482   1.466   1.052
 2806SOL    HW2 9162   3.575   1.421   1.162
 2807SOL     OW 9163   2.190   0.555   1.290
 2807SOL    HW1 9164   2.246   0.501   1.345
 2807SOL    HW2 9165   2.211   0.528   1.201
 2808SOL     OW 9166   2.689   1.578   0.678
 2808SOL    HW1 9167   2.678   1.628   0.597
 2808SOL    HW2 9168   2.612   1.521   0.682
 2809SOL     OW 9169   3.290   0.218   1.117
 2809SOL    HW1 9170   3.327   0.144   1.164
 2809SOL    HW2 9171   3.241   0.267   1.183
 2810SOL     OW 9172   2.864   0.022   1.141
 2810SOL    HW1 9173   2.814   5.252   1.099
 2810SOL    HW2 9174   2.951   5.284   1.154
 2811SOL     OW 9175   2.631   1.328   0.309
 2811SOL    HW1 9176   2.600   1.238   0.322
 2811SOL    HW2 9177   2.714   1.332   0.356
 2812SOL     OW 9178   2.481   1.557   1.285
 2812SOL    HW1 9179   2.485   1.639   1.334
 2812SOL    HW2 9180   2.569   1.549   1.247
 2813SOL     OW 9181   3.255   0.043   0.170
 2813SOL    HW1 9182   3.248   0.027   0.076
 2813SOL    HW2 9183   3.166   0.069   0.196
 2814SOL     OW 9184   3.170   0.467   0.690
 2814SOL    HW1 9185   3.111   0.543   0.693
 2814SOL    HW2 9186   3.159   0.425   0.775
 2815SOL     OW 9187   3.456   0.216   0.882
 2815SOL    HW1 9188   3.389   0.227   0.949
 2815SOL    HW2 9189   3.449   0.294   0.827
 2816SOL     OW 9190   1.905   1.068   0.303
 2816SOL    HW1 9191   2.001   1.066   0.306
 2816SOL    HW2 9192   1.879   0.985   0.344
 2817SOL     OW 9193   2.744   1.653   0.348
 2817SOL    HW1 9194   2.676   1.635   0.283
 2817SOL    HW2 9195   2.712   1.728   0.397
 2818SOL     OW 9196   2.091   0.625   1.984
 2818SOL    HW1 9197   2.002   0.622   2.020
 2818SOL    HW2 9198   2.081   0.598   1.893
 2819SOL     OW 9199   2.081   0.283   2.854
 2819SOL    HW1 9200   2.109   0.249   2.939
 2819SOL    HW2 9201   1.995   0.243   2.840
 2820SOL     OW 9202   1.866   0.385   2.500
 2820SOL    HW1 9203   1.782   0.407   2.540
 2820SOL    HW2 9204   1.849   0.308   2.447
 2821SOL     OW 9205   2.429   1.285   3.036
 2821SOL    HW1 9206   2.341   1.289   2.998
 2821SOL    HW2 9207   2.444   1.373   3.070
 2822SOL     OW 9208   3.422   1.512   2.568
 2822SOL    HW1 9209   3.379   1.491   2.651
 2822SOL    HW2 9210   3.351   1.516   2.505
 2823SOL     OW 9211   2.993   0.698   2.564
 2823SOL    HW1 9212   3.042   0.779   2.549
 2823SOL    HW2 9213   2.945   0.713   2.646
 2824SOL     OW 9214   3.628   0.607   2.091
 2824SOL    HW1 9215   3.608   0.598   1.998
 2824SOL    HW2 9216   3.593   0.526   2.130
 2825SOL     OW 9217   2.619   1.143   2.903
 2825SOL    HW1 9218   2.549   1.177   2.959
 2825SOL    HW2 9219   2.653   1.220   2.857
 2826SOL     OW 9220   2.727   0.778   3.684
 2826SOL    HW1 9221   2.715   0.850   3.747
 2826SOL    HW2 9222   2.751   0.821   3.602
 2827SOL     OW 9223   2.548   1.004   2.509
 2827SOL    HW1 9224   2.613   0.991   2.579
 2827SOL    HW2 9225   2.478   1.055   2.550
 2828SOL     OW 9226   2.571   1.150   3.673
 2828SOL    HW1 9227   2.619   1.229   3.699
 2828SOL    HW2 9228   2.488   1.183   3.639
 2829SOL     OW 9229   2.193   1.424   2.927
 2829SOL    HW1 9230   2.120   1.388   2.877
 2829SOL    HW2 9231   2.243   1.475   2.863
 2830SOL     OW 9232   3.324   1.499   3.215
 2830SOL    HW1 9233   3.373   1.580   3.225
 2830SOL    HW2 9234   3.264   1.497   3.289
 2831SOL     OW 9235   2.306   0.398   3.349
 2831SOL    HW1 9236   2.381   0.339   3.347
 2831SOL    HW2 9237   2.230   0.341   3.364
 2832SOL     OW 9238   3.473   0.451   2.600
 2832SOL    HW1 9239   3.397   0.476   2.546
 2832SOL    HW2 9240   3.492   0.530   2.651
 2833SOL     OW 9241   2.081   1.714   2.335
 2833SOL    HW1 9242   2.104   1.791   2.387
 2833SOL    HW2 9243   2.153   1.706   2.272
 2834SOL     OW 9244   2.997   1.342   3.555
 2834SOL    HW1 9245   3.038   1.337   3.642
 2834SOL    HW2 9246   2.945   1.262   3.549
 2835SOL     OW 9247   2.092   1.441   2.397
 2835SOL    HW1 9248   2.074   1.535   2.401
 2835SOL    HW2 9249   2.032   1.402   2.460
 2836SOL     OW 9250   2.119   1.090   2.753
 2836SOL    HW1 9251   2.115   1.004   2.794
 2836SOL    HW2 9252   2.061   1.144   2.806
 2837SOL     OW 9253   2.476   1.770   3.282
 2837SOL    HW1 9254   2.391   1.755   3.322
 2837SOL    HW2 9255   2.480   1.865   3.269
 2838SOL     OW 9256   2.448   0.981   1.996
 2838SOL    HW1 9257   2.493   1.030   1.927
 2838SOL    HW2 9258   2.488   1.011   2.077
 2839SOL     OW 9259   3.448   0.135   3.319
 2839SOL    HW1 9260   3.469   0.220   3.280
 2839SOL    HW2 9261   3.447   0.151   3.413
 2840SOL     OW 9262   1.976   0.653   2.421
 2840SOL    HW1 9263   1.949   0.564   2.443
 2840SOL    HW2 9264   1.969   0.701   2.504
 2841SOL     OW 9265   3.704   1.759   2.198
 2841SOL    HW1 9266   3.768   1.731   2.263
 2841SOL    HW2 9267   3.728   1.850   2.178
 2842SOL     OW 9268   1.894   1.595   1.986
 2842SOL    HW1 9269   1.876   1.503   2.005
 2842SOL    HW2 9270   1.869   1.642   2.065
 2843SOL     OW 9271   3.552   0.919   2.503
 2843SOL    HW1 9272   3.635   0.876   2.482
 2843SOL    HW2 9273   3.530   0.969   2.424
 2844SOL     OW 9274   3.508   1.107   2.291
 2844SOL    HW1 9275   3.593   1.113   2.249
 2844SOL    HW2 9276   3.513   1.168   2.365
 2845SOL     OW 9277   1.984   0.744   3.447
 2845SOL    HW1 9278   2.076   0.768   3.456
 2845SOL    HW2 9279   1.936   0.826   3.455
 2846SOL     OW 9280   2.475   1.385   2.598
 2846SOL    HW1 9281   2.429   1.301   2.607
 2846SOL    HW2 9282   2.459   1.411   2.507
 2847SOL     OW 9283   3.151   1.237   3.286
 2847SOL    HW1 9284   3.183   1.170   3.226
 2847SOL    HW2 9285   3.209   1.231   3.362
 2848SOL     OW 9286   2.672   0.026   2.389
 2848SOL    HW1 9287   2.701   0.114   2.364
 2848SOL    HW2 9288   2.576   0.029   2.383
 2849SOL     OW 9289   2.052   0.967   3.133
 2849SOL    HW1 9290   2.137   0.924   3.117
 2849SOL    HW2 9291   1.989   0.912   3.086
 2850SOL     OW 9292   3.394   0.993   2.060
 2850SOL    HW1 9293   3.324   0.936   2.091
 2850SOL    HW2 9294   3.434   1.027   2.140
 2851SOL     OW 9295   3.093   1.786   3.467
 2851SOL    HW1 9296   3.067   1.836   3.391
 2851SOL    HW2 9297   3.091   1.695   3.438
 2852SOL     OW 9298   2.189   0.265   3.672
 2852SOL    HW1 9299   2.240   0.341   3.699
 2852SOL    HW2 9300   2.102   0.280   3.711
 2853SOL     OW 9301   3.328   1.420   2.813
 2853SOL    HW1 9302   3.260   1.434   2.879
 2853SOL    HW2 9303   3.316   1.329   2.787
 2854SOL     OW 9304   3.520   1.738   2.440
 2854SOL    HW1 9305   3.501   1.709   2.351
 2854SOL    HW2 9306   3.496   1.664   2.495
 2855SOL     OW 9307   2.457   0.722   2.128
 2855SOL    HW1 9308   2.463   0.803   2.077
 2855SOL    HW2 9309   2.392   0.740   2.195
 2856SOL     OW 9310   3.140   0.346   2.793
 2856SOL    HW1 9311   3.050   0.318   2.805
 2856SOL    HW2 9312   3.190   0.296   2.858
 2857SOL     OW 9313   3.443   1.670   2.171
 2857SOL    HW1 9314   3.533   1.702   2.164
 2857SOL    HW2 9315   3.417   1.653   2.081
 2858SOL     OW 9316   2.657   0.618   3.313
 2858SOL    HW1 9317   2.629   0.597   3.402
 2858SOL    HW2 9318   2.613   0.552   3.258
 2859SOL     OW 9319   3.257   0.475   3.540
 2859SOL    HW1 9320   3.258   0.519   3.625
 2859SOL    HW2 9321   3.320   0.404   3.549
 2860SOL     OW 9322   2.818   0.888   3.444
 2860SOL    HW1 9323   2.872   0.817   3.409
 2860SOL    HW2 9324   2.770   0.921   3.368
 2861SOL     OW 9325   2.856   0.417   3.098
 2861SOL    HW1 9326   2.771   0.439   3.137
 2861SOL    HW2 9327   2.833   0.368   3.018
 2862SOL     OW 9328   2.913   0.698   2.289
 2862SOL    HW1 9329   2.928   0.691   2.383
 2862SOL    HW2 9330   2.830   0.652   2.274
 2863SOL     OW 9331   1.950   0.821   2.639
 2863SOL    HW1 9332   2.032   0.814   2.689
 2863SOL    HW2 9333   1.907   0.899   2.673
 2864SOL     OW 9334   1.994   1.833   3.437
 2864SOL    HW1 9335   1.992   1.821   3.532
 2864SOL    HW2 9336   1.905   1.860   3.414
 2865SOL     OW 9337   2.734   0.363   2.051
 2865SOL    HW1 9338   2.778   0.423   1.990
 2865SOL    HW2 9339   2.786   0.282   2.047
 2866SOL     OW 9340   3.570   0.575   3.690
 2866SOL    HW1 9341   3.533   0.649   3.642
 2866SOL    HW2 9342   3.599   0.514   3.622
 2867SOL     OW 9343   3.238   1.142   2.404
 2867SOL    HW1 9344   3.317   1.129   2.351
 2867SOL    HW2 9345   3.186   1.204   2.353
 2868SOL     OW 9346   2.390   0.201   2.745
 2868SOL    HW1 9347   2.411   0.217   2.837
 2868SOL    HW2 9348   2.411   0.284   2.701
 2869SOL     OW 9349   2.869   1.445   2.335
 2869SOL    HW1 9350   2.830   1.517   2.285
 2869SOL    HW2 9351   2.851   1.466   2.426
 2870SOL     OW 9352   2.217   1.809   2.723
 2870SOL    HW1 9353   2.259   1.723   2.732
 2870SOL    HW2 9354   2.288   1.871   2.737
 2871SOL     OW 9355   3.661   1.058   2.730
 2871SOL    HW1 9356   3.606   1.040   2.653
 2871SOL    HW2 9357   3.599   1.063   2.803
 2872SOL     OW 9358   3.086   1.529   3.369
 2872SOL    HW1 9359   3.074   1.459   3.433
 2872SOL    HW2 9360   3.029   1.504   3.296
 2873SOL     OW 9361   2.182   0.957   2.111
 2873SOL    HW1 9362   2.265   0.976   2.066
 2873SOL    HW2 9363   2.152   0.875   2.073
 2874SOL     OW 9364   3.340   0.742   2.589
 2874SOL    HW1 9365   3.331   0.698   2.674
 2874SOL    HW2 9366   3.418   0.797   2.599
 2875SOL     OW 9367   2.327   1.263   3.600
 2875SOL    HW1 9368   2.299   1.269   3.508
 2875SOL    HW2 9369   2.245   1.262   3.650
 2876SOL     OW 9370   2.983   1.778   2.093
 2876SOL    HW1 9371   2.911   1.735   2.139
 2876SOL    HW2 9372   3.006   1.717   2.023
 2877SOL     OW 9373   2.059   0.278   3.364
 2877SOL    HW1 9374   1.980   0.332   3.359
 2877SOL    HW2 9375   2.050   0.230   3.446
 2878SOL     OW 9376   3.490   1.380   1.950
 2878SOL    HW1 9377   3.449   1.465   1.934
 2878SOL    HW2 9378   3.422   1.316   1.930
 2879SOL     OW 9379   2.328   1.738   2.182
 2879SOL    HW1 9380   2.371   1.793   2.248
 2879SOL    HW2 9381   2.400   1.706   2.127
 2880SOL     OW 9382   3.269   0.099   2.293
 2880SOL    HW1 9383   3.260   0.082   2.200
 2880SOL    HW2 9384   3.361   0.122   2.305
 2881SOL     OW 9385   2.110   1.789   3.091
 2881SOL    HW1 9386   2.163   1.732   3.147
 2881SOL    HW2 9387   2.114   1.747   3.005
 2882SOL     OW 9388   2.799   1.697   2.760
 2882SOL    HW1 9389   2.877   1.646   2.781
 2882SOL    HW2 9390   2.755   1.647   2.691
 2883SOL     OW 9391   2.254   0.696   2.338
 2883SOL    HW1 9392   2.276   0.603   2.349
 2883SOL    HW2 9393   2.160   0.701   2.356
 2884SOL     OW 9394   3.402   0.228   3.586
 2884SOL    HW1 9395   3.409   0.246   3.679
 2884SOL    HW2 9396   3.326   0.169   3.578
 2885SOL     OW 9397   2.486   0.133   1.969
 2885SOL    HW1 9398   2.551   0.067   1.992
 2885SOL    HW2 9399   2.435   0.092   1.899
 2886SOL     OW 9400   2.644   0.312   3.629
 2886SOL    HW1 9401   2.701   0.236   3.630
 2886SOL    HW2 9402   2.594   0.307   3.710
 2887SOL     OW 9403   2.741   1.521   3.055
 2887SOL    HW1 9404   2.726   1.486   2.968
 2887SOL    HW2 9405   2.811   1.466   3.091
 2888SOL     OW 9406   3.203   0.589   3.294
 2888SOL    HW1 9407   3.233   0.557   3.379
 2888SOL    HW2 9408   3.239   0.677   3.287
 2889SOL     OW 9409   2.677   1.396   2.801
 2889SOL    HW1 9410   2.761   1.384   2.756
 2889SOL    HW2 9411   2.612   1.396   2.730
 2890SOL     OW 9412   2.789   0.510   2.765
 2890SOL    HW1 9413   2.766   0.502   2.673
 2890SOL    HW2 9414   2.821   0.423   2.790
 2891SOL     OW 9415   2.404   0.063   2.371
 2891SOL    HW1 9416   2.318   0.062   2.414
 2891SOL    HW2 9417   2.397   0.133   2.306
 2892SOL     OW 9418   3.290   1.198   1.903
 2892SOL    HW1 9419   3.321   1.122   1.953
 2892SOL    HW2 9420   3.204   1.218   1.940
 2893SOL     OW 9421   2.163   0.062   2.053
 2893SOL    HW1 9422   2.222   0.131   2.022
 2893SOL    HW2 9423   2.219   5.285   2.064
 2894SOL     OW 9424   2.801   0.260   2.324
 2894SOL    HW1 9425   2.773   0.299   2.241
 2894SOL    HW2 9426   2.896   0.272   2.325
 2895SOL     OW 9427   2.943   0.681   3.321
 2895SOL    HW1 9428   2.873   0.615   3.327
 2895SOL    HW2 9429   3.023   0.630   3.315
 2896SOL     OW 9430   3.085   1.570   2.656
 2896SOL    HW1 9431   3.101   1.637   2.590
 2896SOL    HW2 9432   3.154   1.583   2.721
 2897SOL     OW 9433   2.330   1.149   2.596
 2897SOL    HW1 9434   2.261   1.130   2.659
 2897SOL    HW2 9435   2.291   1.132   2.511
 2898SOL     OW 9436   3.131   1.794   2.470
 2898SOL    HW1 9437   3.177   1.856   2.413
 2898SOL    HW2 9438   3.064   1.847   2.513
 2899SOL     OW 9439   2.888   0.547   1.884
 2899SOL    HW1 9440   2.845   0.630   1.865
 2899SOL    HW2 9441   2.952   0.567   1.952
 2900SOL     OW 9442   1.940   0.553   3.255
 2900SOL    HW1 9443   2.032   0.553   3.227
 2900SOL    HW2 9444   1.935   0.624   3.319
 2901SOL     OW 9445   2.418   0.238   3.020
 2901SOL    HW1 9446   2.449   0.151   3.048
 2901SOL    HW2 9447   2.326   0.240   3.046
 2902SOL     OW 9448   2.729   0.462   2.503
 2902SOL    HW1 9449   2.683   0.515   2.438
 2902SOL    HW2 9450   2.752   0.382   2.456
 2903SOL     OW 9451   2.840   0.061   2.624
 2903SOL    HW1 9452   2.775   0.055   2.554
 2903SOL    HW2 9453   2.850   5.271   2.656
 2904SOL     OW 9454   3.299   1.163   2.719
 2904SOL    HW1 9455   3.230   1.096   2.718
 2904SOL    HW2 9456   3.323   1.174   2.627
 2905SOL     OW 9457   3.329   0.605   2.840
 2905SOL    HW1 9458   3.280   0.523   2.844
 2905SOL    HW2 9459   3.389   0.600   2.914
 2906SOL     OW 9460   3.708   0.817   2.244
 2906SOL    HW1 9461   3.764   0.765   2.302
 2906SOL    HW2 9462   3.679   0.755   2.177
 2907SOL     OW 9463   2.353   1.418   2.020
 2907SOL    HW1 9464   2.278   1.388   2.072
 2907SOL    HW2 9465   2.338   1.380   1.933
 2908SOL     OW 9466   3.531   1.264   2.509
 2908SOL    HW1 9467   3.626   1.268   2.522
 2908SOL    HW2 9468   3.501   1.353   2.529
 2909SOL     OW 9469   3.256   0.572   1.933
 2909SOL    HW1 9470   3.195   0.553   2.004
 2909SOL    HW2 9471   3.341   0.541   1.965
 2910SOL     OW 9472   2.386   0.264   2.183
 2910SOL    HW1 9473   2.430   0.216   2.114
 2910SOL    HW2 9474   2.366   0.349   2.144
 2911SOL     OW 9475   3.615   1.239   3.436
 2911SOL    HW1 9476   3.702   1.199   3.433
 2911SOL    HW2 9477   3.630   1.329   3.465
 2912SOL     OW 9478   2.922   1.355   3.199
 2912SOL    HW1 9479   2.846   1.322   3.247
 2912SOL    HW2 9480   2.997   1.309   3.237
 2913SOL     OW 9481   3.469   1.625   3.515
 2913SOL    HW1 9482   3.464   1.660   3.426
 2913SOL    HW2 9483   3.552   1.578   3.518
 2914SOL     OW 9484   2.991   1.205   2.968
 2914SOL    HW1 9485   2.929   1.240   3.032
 2914SOL    HW2 9486   2.958   1.235   2.883
 2915SOL     OW 9487   3.491   1.098   2.939
 2915SOL    HW1 9488   3.486   1.160   3.012
 2915SOL    HW2 9489   3.411   1.115   2.889
 2916SOL     OW 9490   2.767   0.106   3.252
 2916SOL    HW1 9491   2.797   0.072   3.168
 2916SOL    HW2 9492   2.844   0.148   3.290
 2917SOL     OW 9493   2.846   1.115   3.584
 2917SOL    HW1 9494   2.754   1.130   3.605
 2917SOL    HW2 9495   2.845   1.037   3.528
 2918SOL     OW 9496   2.571   1.062   2.233
 2918SOL    HW1 9497   2.557   1.045   2.326
 2918SOL    HW2 9498   2.647   1.008   2.210
 2919SOL     OW 9499   2.280   0.815   3.113
 2919SOL    HW1 9500   2.349   0.824   3.179
 2919SOL    HW2 9501   2.245   0.727   3.128
 2920SOL     OW 9502   3.129   0.379   3.134
 2920SOL    HW1 9503   3.162   0.456   3.181
 2920SOL    HW2 9504   3.039   0.401   3.111
 2921SOL     OW 9505   1.932   1.572   3.212
 2921SOL    HW1 9506   1.904   1.650   3.164
 2921SOL    HW2 9507   2.027   1.575   3.212
 2922SOL     OW 9508   2.212   1.109   2.353
 2922SOL    HW1 9509   2.217   1.182   2.291
 2922SOL    HW2 9510   2.210   1.030   2.298
 2923SOL     OW 9511   2.416   0.538   2.723
 2923SOL    HW1 9512   2.431   0.596   2.648
 2923SOL    HW2 9513   2.481   0.565   2.788
 2924SOL     OW 9514   3.110   1.348   2.251
 2924SOL    HW1 9515   3.166   1.420   2.282
 2924SOL    HW2 9516   3.023   1.369   2.285
 2925SOL     OW 9517   3.142   1.456   3.008
 2925SOL    HW1 9518   3.198   1.458   3.086
 2925SOL    HW2 9519   3.088   1.378   3.019
 2926SOL     OW 9520   3.444   0.623   2.341
 2926SOL    HW1 9521   3.398   0.678   2.403
 2926SOL    HW2 9522   3.489   0.685   2.283
 2927SOL     OW 9523   2.207   1.518   3.176
 2927SOL    HW1 9524   2.195   1.479   3.089
 2927SOL    HW2 9525   2.302   1.532   3.183
 2928SOL     OW 9526   2.276   0.744   3.464
 2928SOL    HW1 9527   2.337   0.790   3.406
 2928SOL    HW2 9528   2.318   0.660   3.482
 2929SOL     OW 9529   3.463   0.778   3.543
 2929SOL    HW1 9530   3.376   0.819   3.536
 2929SOL    HW2 9531   3.515   0.821   3.475
 2930SOL     OW 9532   2.905   0.116   3.646
 2930SOL    HW1 9533   2.930   0.195   3.598
 2930SOL    HW2 9534   2.911   0.046   3.580
 2931SOL     OW 9535   2.345   0.057   3.601
 2931SOL    HW1 9536   2.287   5.292   3.559
 2931SOL    HW2 9537   2.287   0.130   3.622
 2932SOL     OW 9538   2.446   0.872   2.894
 2932SOL    HW1 9539   2.475   0.963   2.892
 2932SOL    HW2 9540   2.388   0.867   2.970
 2933SOL     OW 9541   3.220   0.859   2.893
 2933SOL    HW1 9542   3.138   0.850   2.845
 2933SOL    HW2 9543   3.260   0.772   2.888
 2934SOL     OW 9544   3.068   0.529   2.130
 2934SOL    HW1 9545   3.072   0.448   2.181
 2934SOL    HW2 9546   3.026   0.591   2.188
 2935SOL     OW 9547   2.159   0.204   3.109
 2935SOL    HW1 9548   2.120   0.243   3.187
 2935SOL    HW2 9549   2.157   0.110   3.126
 2936SOL     OW 9550   1.907   1.310   3.138
 2936SOL    HW1 9551   1.941   1.257   3.210
 2936SOL    HW2 9552   1.915   1.400   3.169
 2937SOL     OW 9553   2.588   0.632   2.922
 2937SOL    HW1 9554   2.661   0.615   2.863
 2937SOL    HW2 9555   2.559   0.720   2.900
 2938SOL     OW 9556   3.596   0.960   3.714
 2938SOL    HW1 9557   3.550   0.899   3.656
 2938SOL    HW2 9558   3.537   0.972   3.788
 2939SOL     OW 9559   2.164   0.072   2.511
 2939SOL    HW1 9560   2.148   0.166   2.520
 2939SOL    HW2 9561   2.204   0.047   2.594
 2940SOL     OW 9562   3.473   0.374   2.228
 2940SOL    HW1 9563   3.507   0.311   2.291
 2940SOL    HW2 9564   3.454   0.452   2.280
 2941SOL     OW 9565   2.890   0.759   2.823
 2941SOL    HW1 9566   2.887   0.777   2.917
 2941SOL    HW2 9567   2.863   0.668   2.815
 2942SOL     OW 9568   2.844   1.569   3.575
 2942SOL    HW1 9569   2.831   1.610   3.490
 2942SOL    HW2 9570   2.888   1.486   3.555
 2943SOL     OW 9571   3.717   1.507   3.467
 2943SOL    HW1 9572   3.735   1.533   3.377
 2943SOL    HW2 9573   3.798   1.525   3.515
 2944SOL     OW 9574   2.215   0.916   3.670
 2944SOL    HW1 9575   2.297   0.935   3.716
 2944SOL    HW2 9576   2.240   0.853   3.602
 2945SOL     OW 9577   3.389   0.273   1.988
 2945SOL    HW1 9578   3.325   0.208   2.019
 2945SOL    HW2 9579   3.425   0.311   2.068
 2946SOL     OW 9580   3.154   0.827   1.894
 2946SOL    HW1 9581   3.197   0.741   1.897
 2946SOL    HW2 9582   3.186   0.866   1.812
 2947SOL     OW 9583   2.927   1.335   2.716
 2947SOL    HW1 9584   2.930   1.263   2.653
 2947SOL    HW2 9585   2.989   1.400   2.681
 2948SOL     OW 9586   2.171   0.809   2.810
 2948SOL    HW1 9587   2.264   0.830   2.802
 2948SOL    HW2 9588   2.170   0.719   2.842
 2949SOL     OW 9589   2.195   0.525   2.874
 2949SOL    HW1 9590   2.158   0.438   2.858
 2949SOL    HW2 9591   2.271   0.530   2.817
 2950SOL     OW 9592   2.997   0.378   3.549
 2950SOL    HW1 9593   2.950   0.432   3.612
 2950SOL    HW2 9594   3.085   0.417   3.545
 2951SOL     OW 9595   2.996   0.222   3.327
 2951SOL    HW1 9596   3.000   0.281   3.403
 2951SOL    HW2 9597   3.051   0.264   3.261
 2952SOL     OW 9598   1.867   1.322   2.057
 2952SOL    HW1 9599   1.780   1.335   2.019
 2952SOL    HW2 9600   1.864   1.232   2.091
 2953SOL     OW 9601   1.952   1.788   2.796
 2953SOL    HW1 9602   1.921   1.707   2.755
 2953SOL    HW2 9603   2.043   1.796   2.767
 2954SOL     OW 9604   2.358   1.574   2.766
 2954SOL    HW1 9605   2.427   1.635   2.792
 2954SOL    HW2 9606   2.403   1.509   2.711
 2955SOL     OW 9607   2.846   0.793   3.089
 2955SOL    HW1 9608   2.901   0.769   3.163
 2955SOL    HW2 9609   2.761   0.756   3.110
 2956SOL     OW 9610   1.897   0.543   2.979
 2956SOL    HW1 9611   1.977   0.529   2.928
 2956SOL    HW2 9612   1.927   0.548   3.070
 2957SOL     OW 9613   2.049   0.521   3.588
 2957SOL    HW1 9614   2.112   0.487   3.525
 2957SOL    HW2 9615   2.008   0.595   3.543
 2958SOL     OW 9616   3.239   0.940   3.521
 2958SOL    HW1 9617   3.260   1.033   3.519
 2958SOL    HW2 9618   3.236   0.914   3.429
 2959SOL     OW 9619   2.676   0.572   2.223
 2959SOL    HW1 9620   2.679   0.498   2.163
 2959SOL    HW2 9621   2.602   0.624   2.193
 2960SOL     OW 9622   3.504   0.601   3.049
 2960SOL    HW1 9623   3.493   0.542   3.123
 2960SOL    HW2 9624   3.592   0.581   3.014
 2961SOL     OW 9625   2.110   1.551   3.592
 2961SOL    HW1 9626   2.083   1.616   3.657
 2961SOL    HW2 9627   2.107   1.468   3.639
 2962SOL     OW 9628   2.560   0.452   3.123
 2962SOL    HW1 9629   2.509   0.378   3.089
 2962SOL    HW2 9630   2.559   0.516   3.052
 2963SOL     OW 9631   2.791   1.688   3.329
 2963SOL    HW1 9632   2.758   1.646   3.250
 2963SOL    HW2 9633   2.823   1.774   3.300
 2964SOL     OW 9634   2.326   0.493   2.046
 2964SOL    HW1 9635   2.385   0.564   2.069
 2964SOL    HW2 9636   2.240   0.535   2.036
 2965SOL     OW 9637   2.008   1.140   3.334
 2965SOL    HW1 9638   2.011   1.088   3.415
 2965SOL    HW2 9639   2.025   1.077   3.264
 2966SOL     OW 9640   3.189   1.048   3.085
 2966SOL    HW1 9641   3.212   0.984   3.018
 2966SOL    HW2 9642   3.118   1.099   3.046
 2967SOL     OW 9643   3.172   0.857   2.169
 2967SOL    HW1 9644   3.097   0.825   2.218
 2967SOL    HW2 9645   3.149   0.843   2.077
 2968SOL     OW 9646   3.632   1.745   3.011
 2968SOL    HW1 9647   3.693   1.770   2.942
 2968SOL    HW2 9648   3.609   1.654   2.991
 2969SOL     OW 9649   3.108   1.730   2.980
 2969SOL    HW1 9650   3.189   1.751   2.933
 2969SOL    HW2 9651   3.113   1.636   2.995
 2970SOL     OW 9652   1.946   1.267   2.874
 2970SOL    HW1 9653   1.932   1.279   2.968
 2970SOL    HW2 9654   1.872   1.212   2.846
 2971SOL     OW 9655   2.544   1.652   3.583
 2971SOL    HW1 9656   2.501   1.737   3.580
 2971SOL    HW2 9657   2.612   1.657   3.516
 2972SOL     OW 9658   3.574   0.148   2.365
 2972SOL    HW1 9659   3.650   0.127   2.310
 2972SOL    HW2 9660   3.567   0.073   2.424
 2973SOL     OW 9661   3.252   1.568   2.346
 2973SOL    HW1 9662   3.313   1.600   2.279
 2973SOL    HW2 9663   3.204   1.646   2.374
 2974SOL     OW 9664   1.995   1.797   3.705
 2974SOL    HW1 9665   1.946   1.731   3.754
 2974SOL    HW2 9666   2.045   1.843   3.772
 2975SOL     OW 9667   3.139   0.925   2.533
 2975SOL    HW1 9668   3.213   0.864   2.539
 2975SOL    HW2 9669   3.173   0.998   2.481
 2976SOL     OW 9670   2.678   1.273   3.290
 2976SOL    HW1 9671   2.649   1.310   3.373
 2976SOL    HW2 9672   2.607   1.294   3.229
 2977SOL     OW 9673   2.533   1.620   2.018
 2977SOL    HW1 9674   2.544   1.631   1.924
 2977SOL    HW2 9675   2.479   1.541   2.026
 2978SOL     OW 9676   3.489   1.728   3.253
 2978SOL    HW1 9677   3.539   1.734   3.172
 2978SOL    HW2 9678   3.471   1.819   3.277
 2979SOL     OW 9679   3.707   0.158   2.820
 2979SOL    HW1 9680   3.708   0.063   2.805
 2979SOL    HW2 9681   3.620   0.186   2.791
 2980SOL     OW 9682   2.124   0.329   2.582
 2980SOL    HW1 9683   2.037   0.360   2.559
 2980SOL    HW2 9684   2.122   0.317   2.676
 2981SOL     OW 9685   3.068   1.607   1.894
 2981SOL    HW1 9686   3.059   1.515   1.920
 2981SOL    HW2 9687   3.004   1.618   1.824
 2982SOL     OW 9688   2.686   1.005   3.234
 2982SOL    HW1 9689   2.729   1.001   3.149
 2982SOL    HW2 9690   2.686   1.099   3.256
 2983SOL     OW 9691   2.778   0.911   2.152
 2983SOL    HW1 9692   2.839   0.942   2.086
 2983SOL    HW2 9693   2.825   0.840   2.197
 2984SOL     OW 9694   3.354   1.625   1.904
 2984SOL    HW1 9695   3.260   1.619   1.891
 2984SOL    HW2 9696   3.391   1.631   1.816
 2985SOL     OW 9697   2.231   1.301   3.354
 2985SOL    HW1 9698   2.218   1.378   3.299
 2985SOL    HW2 9699   2.154   1.247   3.338
 2986SOL     OW 9700   3.473   1.282   3.143
 2986SOL    HW1 9701   3.533   1.272   3.216
 2986SOL    HW2 9702   3.413   1.352   3.169
 2987SOL     OW 9703   2.913   1.107   2.569
 2987SOL    HW1 9704   2.842   1.055   2.607
 2987SOL    HW2 9705   2.975   1.041   2.536
 2988SOL     OW 9706   2.882   0.243   2.830
 2988SOL    HW1 9707   2.862   0.197   2.748
 2988SOL    HW2 9708   2.874   0.176   2.897
 2989SOL     OW 9709   2.465   1.489   2.343
 2989SOL    HW1 9710   2.509   1.438   2.275
 2989SOL    HW2 9711   2.395   1.535   2.298
 2990SOL     OW 9712   3.585   0.387   3.240
 2990SOL    HW1 9713   3.655   0.452   3.240
 2990SOL    HW2 9714   3.617   0.317   3.183
 2991SOL     OW 9715   2.121   1.346   2.150
 2991SOL    HW1 9716   2.028   1.343   2.127
 2991SOL    HW2 9717   2.123   1.382   2.238
 2992SOL     OW 9718   1.974   1.020   3.581
 2992SOL    HW1 9719   1.898   0.998   3.634
 2992SOL    HW2 9720   2.049   0.984   3.629
 2993SOL     OW 9721   2.534   0.210   3.350
 2993SOL    HW1 9722   2.618   0.193   3.306
 2993SOL    HW2 9723   2.557   0.260   3.428
 2994SOL     OW 9724   1.939   0.339   1.903
 2994SOL    HW1 9725   1.856   0.306   1.870
 2994SOL    HW2 9726   1.961   0.413   1.845
 2995SOL     OW 9727   3.292   0.859   3.263
 2995SOL    HW1 9728   3.244   0.919   3.207
 2995SOL    HW2 9729   3.382   0.861   3.229
 2996SOL     OW 9730   1.934   0.167   2.178
 2996SOL    HW1 9731   1.934   0.250   2.130
 2996SOL    HW2 9732   2.019   0.127   2.157
 2997SOL     OW 9733   3.041   1.340   1.979
 2997SOL    HW1 9734   2.951   1.309   1.982
 2997SOL    HW2 9735   3.070   1.340   2.070
 2998SOL     OW 9736   2.481   0.830   3.295
 2998SOL    HW1 9737   2.536   0.907   3.280
 2998SOL    HW2 9738   2.542   0.758   3.304
 2999SOL     OW 9739   3.347   1.779   2.843
 2999SOL    HW1 9740   3.372   1.832   2.767
 2999SOL    HW2 9741   3.431   1.756   2.884
 3000SOL     OW 9742   2.578   0.572   3.565
 3000SOL    HW1 9743   2.617   0.635   3.625
 3000SOL    HW2 9744   2.609   0.487   3.596
 3001SOL     OW 9745   3.333   1.201   3.494
 3001SOL    HW1 9746   3.321   1.214   3.588
 3001SOL    HW2 9747   3.426   1.215   3.480
 3002SOL     OW 9748   2.237   1.718   3.401
 3002SOL    HW1 9749   2.155   1.768   3.402
 3002SOL    HW2 9750   2.220   1.643   3.458
 3003SOL     OW 9751   3.532   0.881   3.117
 3003SOL    HW1 9752   3.525   0.796   3.075
 3003SOL    HW2 9753   3.523   0.945   3.046
 3004SOL     OW 9754   3.082   0.319   2.328
 3004SOL    HW1 9755   3.145   0.248   2.320
 3004SOL    HW2 9756   3.113   0.371   2.403
 3005SOL     OW 9757   2.452   0.739   2.532
 3005SOL    HW1 9758   2.491   0.824   2.515
 3005SOL    HW2 9759   2.384   0.730   2.465
 3006SOL     OW 9760   3.629   0.361   3.510
 3006SOL    HW1 9761   3.609   0.376   3.418
 3006SOL    HW2 9762   3.558   0.305   3.542
 3007SOL     OW 9763   3.606   0.934   3.374
 3007SOL    HW1 9764   3.605   1.028   3.387
 3007SOL    HW2 9765   3.591   0.922   3.280
 3008SOL     OW 9766   2.723   1.367   1.894
 3008SOL    HW1 9767   2.686   1.395   1.978
 3008SOL    HW2 9768   2.743   1.449   1.849
 3009SOL     OW 9769   2.524   1.789   2.809
 3009SOL    HW1 9770   2.504   1.878   2.782
 3009SOL    HW2 9771   2.619   1.782   2.803
 3010SOL     OW 9772   2.729   0.966   2.718
 3010SOL    HW1 9773   2.779   0.895   2.757
 3010SOL    HW2 9774   2.695   1.016   2.792
 3011SOL     OW 9775   2.941   0.988   1.950
 3011SOL    HW1 9776   2.920   1.039   1.872
 3011SOL    HW2 9777   3.016   0.935   1.925
 3012SOL     OW 9778   3.716   1.555   2.707
 3012SOL    HW1 9779   3.639   1.542   2.651
 3012SOL    HW2 9780   3.709   1.487   2.774
 3013SOL     OW 9781   2.086   1.303   3.718
 3013SOL    HW1 9782   2.019   1.242   3.688
 3013SOL    HW2 9783   2.067   1.315   3.811
 3014SOL     OW 9784   1.946   1.234   2.526
 3014SOL    HW1 9785   1.950   1.185   2.609
 3014SOL    HW2 9786   2.014   1.195   2.472
 3015SOL     OW 9787   2.542   1.396   3.487
 3015SOL    HW1 9788   2.462   1.353   3.517
 3015SOL    HW2 9789   2.537   1.484   3.525
 3016SOL     OW 9790   3.677   0.178   3.095
 3016SOL    HW1 9791   3.645   0.088   3.102
 3016SOL    HW2 9792   3.694   0.190   3.002
 3017SOL     OW 9793   2.291   0.435   2.386
 3017SOL    HW1 9794   2.323   0.363   2.332
 3017SOL    HW2 9795   2.245   0.393   2.458
 3018SOL     OW 9796   3.562   1.490   2.960
 3018SOL    HW1 9797   3.481   1.465   2.914
 3018SOL    HW2 9798   3.576   1.421   3.024
 3019SOL     OW 9799   2.190   0.555   3.152
 3019SOL    HW1 9800   2.246   0.501   3.207
 3019SOL    HW2 9801   2.211   0.528   3.063
 3020SOL     OW 9802   2.689   1.577   2.539
 3020SOL    HW1 9803   2.678   1.628   2.459
 3020SOL    HW2 9804   2.612   1.520   2.542
 3021SOL     OW 9805   3.290   0.218   2.978
 3021SOL    HW1 9806   3.327   0.144   3.027
 3021SOL    HW2 9807   3.241   0.268   3.044
 3022SOL     OW 9808   2.865   0.022   3.003
 3022SOL    HW1 9809   2.814   5.252   2.962
 3022SOL    HW2 9810   2.951   5.284   3.016
 3023SOL     OW 9811   2.633   1.333   2.176
 3023SOL    HW1 9812   2.602   1.243   2.182
 3023SOL    HW2 9813   2.716   1.332   2.224
 3024SOL     OW 9814   2.483   1.543   3.138
 3024SOL    HW1 9815   2.483   1.623   3.190
 3024SOL    HW2 9816   2.571   1.539   3.101
 3025SOL     OW 9817   3.218   0.039   2.024
 3025SOL    HW1 9818   3.249   5.296   1.944
 3025SOL    HW2 9819   3.138   5.293   2.047
 3026SOL     OW 9820   3.163   0.464   2.547
 3026SOL    HW1 9821   3.108   0.542   2.553
 3026SOL    HW2 9822   3.156   0.423   2.634
 3027SOL     OW 9823   3.456   0.215   2.744
 3027SOL    HW1 9824   3.389   0.227   2.811
 3027SOL    HW2 9825   3.449   0.294   2.689
 3028SOL     OW 9826   1.906   1.071   2.168
 3028SOL    HW1 9827   1.999   1.063   2.150
 3028SOL    HW2 9828   1.877   0.983   2.190
 3029SOL     OW 9829   2.745   1.652   2.205
 3029SOL    HW1 9830   2.673   1.635   2.145
 3029SOL    HW2 9831   2.716   1.727   2.256
 3030SOL     OW 9832   2.091   0.625   3.846
 3030SOL    HW1 9833   2.002   0.622   3.882
 3030SOL    HW2 9834   2.081   0.598   3.755
 3031SOL     OW 9835   2.081   0.283   4.716
 3031SOL    HW1 9836   2.109   0.249   4.801
 3031SOL    HW2 9837   1.995   0.243   4.702
 3032SOL     OW 9838   1.866   0.385   4.362
 3032SOL    HW1 9839   1.782   0.407   4.402
 3032SOL    HW2 9840   1.849   0.308   4.309
 3033SOL     OW 9841   2.427   1.285   4.898
 3033SOL    HW1 9842   2.340   1.291   4.861
 3033SOL    HW2 9843   2.446   1.373   4.931
 3034SOL     OW 9844   3.423   1.512   4.431
 3034SOL    HW1 9845   3.379   1.493   4.514
 3034SOL    HW2 9846   3.351   1.516   4.367
 3035SOL     OW 9847   2.993   0.698   4.426
 3035SOL    HW1 9848   3.042   0.779   4.411
 3035SOL    HW2 9849   2.946   0.713   4.508
 3036SOL     OW 9850   3.628   0.606   3.953
 3036SOL    HW1 9851   3.608   0.598   3.860
 3036SOL    HW2 9852   3.593   0.526   3.992
 3037SOL     OW 9853   2.617   1.141   4.765
 3037SOL    HW1 9854   2.548   1.175   4.822
 3037SOL    HW2 9855   2.652   1.218   4.720
 3038SOL     OW 9856   2.727   0.778   5.546
 3038SOL    HW1 9857   2.716   0.850   5.608
 3038SOL    HW2 9858   2.751   0.821   5.464
 3039SOL     OW 9859   2.548   1.004   4.371
 3039SOL    HW1 9860   2.613   0.992   4.441
 3039SOL    HW2 9861   2.478   1.055   4.412
 3040SOL     OW 9862   2.572   1.151   5.536
 3040SOL    HW1 9863   2.620   1.230   5.562
 3040SOL    HW2 9864   2.489   1.184   5.501
 3041SOL     OW 9865   2.193   1.427   4.791
 3041SOL    HW1 9866   2.121   1.390   4.741
 3041SOL    HW2 9867   2.242   1.479   4.727
 3042SOL     OW 9868   3.323   1.499   5.078
 3042SOL    HW1 9869   3.372   1.581   5.087
 3042SOL    HW2 9870   3.261   1.500   5.151
 3043SOL     OW 9871   2.306   0.398   5.211
 3043SOL    HW1 9872   2.381   0.339   5.209
 3043SOL    HW2 9873   2.230   0.341   5.226
 3044SOL     OW 9874   3.473   0.452   4.462
 3044SOL    HW1 9875   3.397   0.476   4.409
 3044SOL    HW2 9876   3.492   0.530   4.514
 3045SOL     OW 9877   2.081   1.693   4.182
 3045SOL    HW1 9878   2.081   1.770   4.238
 3045SOL    HW2 9879   2.155   1.706   4.123
 3046SOL     OW 9880   2.998   1.341   5.416
 3046SOL    HW1 9881   3.039   1.337   5.502
 3046SOL    HW2 9882   2.946   1.261   5.410
 3047SOL     OW 9883   2.098   1.432   4.263
 3047SOL    HW1 9884   2.079   1.526   4.254
 3047SOL    HW2 9885   2.032   1.400   4.324
 3048SOL     OW 9886   2.118   1.090   4.614
 3048SOL    HW1 9887   2.116   1.004   4.656
 3048SOL    HW2 9888   2.061   1.144   4.668
 3049SOL     OW 9889   2.479   1.783   5.161
 3049SOL    HW1 9890   2.394   1.774   5.204
 3049SOL    HW2 9891   2.502   1.875   5.173
 3050SOL     OW 9892   2.448   0.981   3.858
 3050SOL    HW1 9893   2.493   1.030   3.789
 3050SOL    HW2 9894   2.488   1.011   3.939
 3051SOL     OW 9895   3.448   0.135   5.181
 3051SOL    HW1 9896   3.469   0.220   5.142
 3051SOL    HW2 9897   3.447   0.151   5.275
 3052SOL     OW 9898   1.976   0.653   4.283
 3052SOL    HW1 9899   1.949   0.564   4.305
 3052SOL    HW2 9900   1.969   0.701   4.366
 3053SOL     OW 9901   3.704   1.760   4.060
 3053SOL    HW1 9902   3.768   1.731   4.125
 3053SOL    HW2 9903   3.728   1.851   4.041
 3054SOL     OW 9904   1.895   1.594   3.848
 3054SOL    HW1 9905   1.876   1.502   3.868
 3054SOL    HW2 9906   1.869   1.641   3.926
 3055SOL     OW 9907   3.551   0.919   4.364
 3055SOL    HW1 9908   3.635   0.877   4.344
 3055SOL    HW2 9909   3.529   0.969   4.286
 3056SOL     OW 9910   3.508   1.107   4.153
 3056SOL    HW1 9911   3.593   1.113   4.111
 3056SOL    HW2 9912   3.513   1.168   4.227
 3057SOL     OW 9913   1.984   0.744   5.309
 3057SOL    HW1 9914   2.076   0.768   5.318
 3057SOL    HW2 9915   1.937   0.826   5.317
 3058SOL     OW 9916   2.474   1.385   4.457
 3058SOL    HW1 9917   2.429   1.301   4.467
 3058SOL    HW2 9918   2.458   1.410   4.366
 3059SOL     OW 9919   3.152   1.237   5.148
 3059SOL    HW1 9920   3.184   1.171   5.088
 3059SOL    HW2 9921   3.209   1.231   5.225
 3060SOL     OW 9922   2.672   0.026   4.250
 3060SOL    HW1 9923   2.701   0.114   4.226
 3060SOL    HW2 9924   2.576   0.029   4.245
 3061SOL     OW 9925   2.052   0.967   4.995
 3061SOL    HW1 9926   2.137   0.925   4.980
 3061SOL    HW2 9927   1.990   0.911   4.948
 3062SOL     OW 9928   3.394   0.993   3.922
 3062SOL    HW1 9929   3.324   0.936   3.953
 3062SOL    HW2 9930   3.434   1.027   4.002
 3063SOL     OW 9931   3.050   1.806   5.346
 3063SOL    HW1 9932   3.057   1.863   5.269
 3063SOL    HW2 9933   3.064   1.718   5.311
 3064SOL     OW 9934   2.188   0.265   5.535
 3064SOL    HW1 9935   2.240   0.341   5.561
 3064SOL    HW2 9936   2.102   0.280   5.573
 3065SOL     OW 9937   3.329   1.419   4.676
 3065SOL    HW1 9938   3.261   1.435   4.741
 3065SOL    HW2 9939   3.316   1.328   4.649
 3066SOL     OW 9940   3.519   1.741   4.303
 3066SOL    HW1 9941   3.500   1.712   4.213
 3066SOL    HW2 9942   3.495   1.667   4.358
 3067SOL     OW 9943   2.457   0.721   3.990
 3067SOL    HW1 9944   2.463   0.803   3.939
 3067SOL    HW2 9945   2.392   0.740   4.057
 3068SOL     OW 9946   3.140   0.345   4.654
 3068SOL    HW1 9947   3.050   0.318   4.667
 3068SOL    HW2 9948   3.190   0.296   4.720
 3069SOL     OW 9949   3.443   1.669   4.033
 3069SOL    HW1 9950   3.533   1.702   4.026
 3069SOL    HW2 9951   3.417   1.653   3.942
 3070SOL     OW 9952   2.657   0.617   5.175
 3070SOL    HW1 9953   2.629   0.597   5.264
 3070SOL    HW2 9954   2.613   0.552   5.120
 3071SOL     OW 9955   3.257   0.475   5.402
 3071SOL    HW1 9956   3.258   0.519   5.487
 3071SOL    HW2 9957   3.321   0.404   5.411
 3072SOL     OW 9958   2.817   0.888   5.306
 3072SOL    HW1 9959   2.872   0.818   5.271
 3072SOL    HW2 9960   2.770   0.922   5.230
 3073SOL     OW 9961   2.856   0.416   4.960
 3073SOL    HW1 9962   2.772   0.439   4.999
 3073SOL    HW2 9963   2.833   0.368   4.880
 3074SOL     OW 9964   2.913   0.698   4.151
 3074SOL    HW1 9965   2.928   0.691   4.245
 3074SOL    HW2 9966   2.830   0.652   4.136
 3075SOL     OW 9967   1.950   0.821   4.501
 3075SOL    HW1 9968   2.032   0.814   4.551
 3075SOL    HW2 9969   1.908   0.899   4.535
 3076SOL     OW 9970   1.988   1.856   5.305
 3076SOL    HW1 9971   1.987   1.830   5.397
 3076SOL    HW2 9972   1.900   1.835   5.274
 3077SOL     OW 9973   2.734   0.363   3.913
 3077SOL    HW1 9974   2.778   0.423   3.852
 3077SOL    HW2 9975   2.786   0.282   3.909
 3078SOL     OW 9976   3.570   0.575   5.552
 3078SOL    HW1 9977   3.533   0.649   5.504
 3078SOL    HW2 9978   3.599   0.515   5.484
 3079SOL     OW 9979   3.238   1.142   4.266
 3079SOL    HW1 9980   3.317   1.129   4.213
 3079SOL    HW2 9981   3.186   1.204   4.215
 3080SOL     OW 9982   2.390   0.201   4.607
 3080SOL    HW1 9983   2.411   0.217   4.699
 3080SOL    HW2 9984   2.411   0.284   4.563
 3081SOL     OW 9985   2.869   1.443   4.197
 3081SOL    HW1 9986   2.830   1.515   4.148
 3081SOL    HW2 9987   2.856   1.466   4.289
 3082SOL     OW 9988   3.661   1.057   4.592
 3082SOL    HW1 9989   3.606   1.040   4.515
 3082SOL    HW2 9990   3.599   1.063   4.665
 3083SOL     OW 9991   3.091   1.538   5.237
 3083SOL    HW1 9992   3.075   1.465   5.296
 3083SOL    HW2 9993   3.025   1.528   5.168
 3084SOL     OW 9994   2.182   0.957   3.974
 3084SOL    HW1 9995   2.264   0.976   3.928
 3084SOL    HW2 9996   2.152   0.875   3.935
 3085SOL     OW 9997   3.340   0.742   4.451
 3085SOL    HW1 9998   3.331   0.699   4.536
 3085SOL    HW2 9999   3.417   0.798   4.461
 3086SOL     OW10000   2.327   1.264   5.463
 3086SOL    HW110001   2.301   1.269   5.371
 3086SOL    HW210002   2.245   1.263   5.512
 3087SOL     OW10003   2.985   1.775   3.958
 3087SOL    HW110004   2.909   1.736   4.001
 3087SOL    HW210005   3.006   1.715   3.886
 3088SOL     OW10006   2.059   0.278   5.226
 3088SOL    HW110007   1.980   0.332   5.221
 3088SOL    HW210008   2.050   0.230   5.309
 3089SOL     OW10009   3.490   1.380   3.811
 3089SOL    HW110010   3.449   1.465   3.796
 3089SOL    HW210011   3.421   1.316   3.792
 3090SOL     OW10012   2.336   1.753   4.043
 3090SOL    HW110013   2.388   1.789   4.115
 3090SOL    HW210014   2.401   1.710   3.987
 3091SOL     OW10015   3.269   0.099   4.155
 3091SOL    HW110016   3.261   0.082   4.061
 3091SOL    HW210017   3.361   0.122   4.167
 3092SOL     OW10018   2.096   1.778   4.962
 3092SOL    HW110019   2.168   1.733   5.008
 3092SOL    HW210020   2.111   1.759   4.870
 3093SOL     OW10021   2.796   1.670   4.643
 3093SOL    HW110022   2.884   1.634   4.632
 3093SOL    HW210023   2.752   1.648   4.560
 3094SOL     OW10024   2.254   0.696   4.200
 3094SOL    HW110025   2.275   0.603   4.211
 3094SOL    HW210026   2.160   0.701   4.218
 3095SOL     OW10027   3.402   0.227   5.448
 3095SOL    HW110028   3.409   0.246   5.541
 3095SOL    HW210029   3.326   0.169   5.440
 3096SOL     OW10030   2.486   0.133   3.831
 3096SOL    HW110031   2.551   0.067   3.854
 3096SOL    HW210032   2.435   0.092   3.761
 3097SOL     OW10033   2.644   0.312   5.491
 3097SOL    HW110034   2.701   0.236   5.492
 3097SOL    HW210035   2.595   0.307   5.572
 3098SOL     OW10036   2.731   1.511   4.923
 3098SOL    HW110037   2.727   1.492   4.830
 3098SOL    HW210038   2.809   1.464   4.954
 3099SOL     OW10039   3.203   0.588   5.156
 3099SOL    HW110040   3.234   0.558   5.241
 3099SOL    HW210041   3.239   0.677   5.149
 3100SOL     OW10042   2.672   1.388   4.659
 3100SOL    HW110043   2.758   1.386   4.618
 3100SOL    HW210044   2.610   1.390   4.586
 3101SOL     OW10045   2.789   0.510   4.628
 3101SOL    HW110046   2.765   0.502   4.535
 3101SOL    HW210047   2.821   0.423   4.652
 3102SOL     OW10048   2.404   0.063   4.233
 3102SOL    HW110049   2.318   0.062   4.276
 3102SOL    HW210050   2.397   0.133   4.168
 3103SOL     OW10051   3.290   1.198   3.765
 3103SOL    HW110052   3.321   1.122   3.815
 3103SOL    HW210053   3.205   1.218   3.803
 3104SOL     OW10054   2.163   0.061   3.914
 3104SOL    HW110055   2.222   0.131   3.884
 3104SOL    HW210056   2.220   5.285   3.926
 3105SOL     OW10057   2.801   0.260   4.186
 3105SOL    HW110058   2.773   0.299   4.103
 3105SOL    HW210059   2.896   0.272   4.187
 3106SOL     OW10060   2.943   0.681   5.184
 3106SOL    HW110061   2.873   0.615   5.189
 3106SOL    HW210062   3.023   0.630   5.177
 3107SOL     OW10063   3.084   1.569   4.516
 3107SOL    HW110064   3.103   1.636   4.450
 3107SOL    HW210065   3.150   1.584   4.585
 3108SOL     OW10066   2.330   1.149   4.458
 3108SOL    HW110067   2.261   1.130   4.521
 3108SOL    HW210068   2.290   1.132   4.373
 3109SOL     OW10069   3.139   1.788   4.324
 3109SOL    HW110070   3.183   1.849   4.264
 3109SOL    HW210071   3.089   1.845   4.383
 3110SOL     OW10072   2.888   0.547   3.745
 3110SOL    HW110073   2.845   0.630   3.727
 3110SOL    HW210074   2.951   0.567   3.815
 3111SOL     OW10075   1.940   0.553   5.117
 3111SOL    HW110076   2.031   0.553   5.089
 3111SOL    HW210077   1.935   0.624   5.181
 3112SOL     OW10078   2.418   0.237   4.882
 3112SOL    HW110079   2.449   0.151   4.910
 3112SOL    HW210080   2.326   0.240   4.908
 3113SOL     OW10081   2.729   0.462   4.365
 3113SOL    HW110082   2.683   0.516   4.301
 3113SOL    HW210083   2.752   0.382   4.318
 3114SOL     OW10084   2.840   0.061   4.486
 3114SOL    HW110085   2.775   0.055   4.416
 3114SOL    HW210086   2.850   5.271   4.518
 3115SOL     OW10087   3.299   1.162   4.581
 3115SOL    HW110088   3.229   1.097   4.581
 3115SOL    HW210089   3.322   1.174   4.489
 3116SOL     OW10090   3.329   0.605   4.702
 3116SOL    HW110091   3.280   0.523   4.706
 3116SOL    HW210092   3.389   0.600   4.776
 3117SOL     OW10093   3.708   0.817   4.106
 3117SOL    HW110094   3.764   0.766   4.164
 3117SOL    HW210095   3.679   0.755   4.039
 3118SOL     OW10096   2.351   1.416   3.882
 3118SOL    HW110097   2.275   1.387   3.933
 3118SOL    HW210098   2.337   1.379   3.795
 3119SOL     OW10099   3.532   1.265   4.370
 3119SOL    HW110100   3.626   1.268   4.384
 3119SOL    HW210101   3.501   1.353   4.392
 3120SOL     OW10102   3.256   0.572   3.795
 3120SOL    HW110103   3.195   0.553   3.866
 3120SOL    HW210104   3.340   0.541   3.827
 3121SOL     OW10105   2.386   0.264   4.045
 3121SOL    HW110106   2.430   0.216   3.976
 3121SOL    HW210107   2.366   0.349   4.006
 3122SOL     OW10108   3.615   1.238   5.298
 3122SOL    HW110109   3.702   1.200   5.294
 3122SOL    HW210110   3.630   1.328   5.327
 3123SOL     OW10111   2.923   1.351   5.056
 3123SOL    HW110112   2.847   1.322   5.108
 3123SOL    HW210113   2.998   1.311   5.099
 3124SOL     OW10114   3.470   1.625   5.378
 3124SOL    HW110115   3.464   1.659   5.288
 3124SOL    HW210116   3.553   1.578   5.380
 3125SOL     OW10117   2.988   1.201   4.829
 3125SOL    HW110118   2.932   1.241   4.895
 3125SOL    HW210119   2.956   1.235   4.746
 3126SOL     OW10120   3.491   1.099   4.802
 3126SOL    HW110121   3.486   1.161   4.874
 3126SOL    HW210122   3.412   1.115   4.751
 3127SOL     OW10123   2.767   0.106   5.114
 3127SOL    HW110124   2.797   0.073   5.030
 3127SOL    HW210125   2.844   0.148   5.152
 3128SOL     OW10126   2.846   1.114   5.447
 3128SOL    HW110127   2.754   1.131   5.467
 3128SOL    HW210128   2.845   1.037   5.391
 3129SOL     OW10129   2.571   1.062   4.095
 3129SOL    HW110130   2.557   1.045   4.189
 3129SOL    HW210131   2.647   1.008   4.073
 3130SOL     OW10132   2.280   0.815   4.975
 3130SOL    HW110133   2.349   0.824   5.041
 3130SOL    HW210134   2.245   0.727   4.990
 3131SOL     OW10135   3.129   0.379   4.996
 3131SOL    HW110136   3.162   0.456   5.043
 3131SOL    HW210137   3.039   0.401   4.973
 3132SOL     OW10138   1.931   1.571   5.076
 3132SOL    HW110139   1.900   1.645   5.024
 3132SOL    HW210140   2.026   1.577   5.072
 3133SOL     OW10141   2.212   1.108   4.215
 3133SOL    HW110142   2.216   1.181   4.154
 3133SOL    HW210143   2.210   1.030   4.159
 3134SOL     OW10144   2.416   0.538   4.585
 3134SOL    HW110145   2.431   0.596   4.510
 3134SOL    HW210146   2.481   0.565   4.650
 3135SOL     OW10147   3.110   1.347   4.112
 3135SOL    HW110148   3.166   1.419   4.143
 3135SOL    HW210149   3.023   1.368   4.147
 3136SOL     OW10150   3.143   1.457   4.870
 3136SOL    HW110151   3.198   1.460   4.949
 3136SOL    HW210152   3.084   1.383   4.885
 3137SOL     OW10153   3.444   0.623   4.202
 3137SOL    HW110154   3.398   0.677   4.266
 3137SOL    HW210155   3.489   0.686   4.145
 3138SOL     OW10156   2.212   1.518   5.043
 3138SOL    HW110157   2.197   1.481   4.956
 3138SOL    HW210158   2.306   1.535   5.047
 3139SOL     OW10159   2.276   0.744   5.326
 3139SOL    HW110160   2.337   0.790   5.268
 3139SOL    HW210161   2.318   0.661   5.344
 3140SOL     OW10162   3.463   0.778   5.405
 3140SOL    HW110163   3.376   0.819   5.398
 3140SOL    HW210164   3.515   0.821   5.337
 3141SOL     OW10165   2.905   0.116   5.508
 3141SOL    HW110166   2.930   0.195   5.461
 3141SOL    HW210167   2.911   0.046   5.442
 3142SOL     OW10168   2.344   0.056   5.463
 3142SOL    HW110169   2.287   5.292   5.421
 3142SOL    HW210170   2.287   0.130   5.484
 3143SOL     OW10171   2.445   0.873   4.755
 3143SOL    HW110172   2.477   0.963   4.754
 3143SOL    HW210173   2.389   0.868   4.832
 3144SOL     OW10174   3.221   0.859   4.754
 3144SOL    HW110175   3.138   0.851   4.708
 3144SOL    HW210176   3.260   0.772   4.749
 3145SOL     OW10177   3.068   0.529   3.992
 3145SOL    HW110178   3.072   0.448   4.043
 3145SOL    HW210179   3.026   0.592   4.050
 3146SOL     OW10180   2.159   0.204   4.971
 3146SOL    HW110181   2.120   0.243   5.049
 3146SOL    HW210182   2.157   0.110   4.988
 3147SOL     OW10183   1.906   1.310   5.001
 3147SOL    HW110184   1.941   1.257   5.072
 3147SOL    HW210185   1.915   1.400   5.032
 3148SOL     OW10186   2.587   0.632   4.784
 3148SOL    HW110187   2.661   0.615   4.725
 3148SOL    HW210188   2.559   0.721   4.762
 3149SOL     OW10189   3.596   0.959   5.576
 3149SOL    HW110190   3.550   0.899   5.518
 3149SOL    HW210191   3.537   0.972   5.650
 3150SOL     OW10192   2.164   0.072   4.373
 3150SOL    HW110193   2.148   0.166   4.382
 3150SOL    HW210194   2.204   0.047   4.456
 3151SOL     OW10195   3.473   0.374   4.090
 3151SOL    HW110196   3.507   0.311   4.154
 3151SOL    HW210197   3.453   0.452   4.142
 3152SOL     OW10198   2.890   0.759   4.685
 3152SOL    HW110199   2.887   0.777   4.779
 3152SOL    HW210200   2.863   0.668   4.677
 3153SOL     OW10201   2.844   1.566   5.440
 3153SOL    HW110202   2.828   1.611   5.356
 3153SOL    HW210203   2.887   1.485   5.415
 3154SOL     OW10204   3.717   1.506   5.329
 3154SOL    HW110205   3.735   1.532   5.239
 3154SOL    HW210206   3.798   1.525   5.376
 3155SOL     OW10207   2.215   0.915   5.533
 3155SOL    HW110208   2.297   0.935   5.578
 3155SOL    HW210209   2.240   0.853   5.464
 3156SOL     OW10210   3.389   0.272   3.850
 3156SOL    HW110211   3.325   0.208   3.881
 3156SOL    HW210212   3.425   0.311   3.930
 3157SOL     OW10213   3.154   0.827   3.756
 3157SOL    HW110214   3.196   0.741   3.759
 3157SOL    HW210215   3.185   0.865   3.674
 3158SOL     OW10216   2.928   1.335   4.578
 3158SOL    HW110217   2.931   1.263   4.515
 3158SOL    HW210218   2.990   1.400   4.543
 3159SOL     OW10219   2.171   0.809   4.672
 3159SOL    HW110220   2.264   0.831   4.665
 3159SOL    HW210221   2.170   0.719   4.704
 3160SOL     OW10222   2.195   0.525   4.737
 3160SOL    HW110223   2.158   0.438   4.720
 3160SOL    HW210224   2.271   0.530   4.679
 3161SOL     OW10225   2.997   0.377   5.412
 3161SOL    HW110226   2.950   0.432   5.474
 3161SOL    HW210227   3.085   0.417   5.407
 3162SOL     OW10228   2.996   0.222   5.190
 3162SOL    HW110229   3.000   0.281   5.265
 3162SOL    HW210230   3.051   0.264   5.123
 3163SOL     OW10231   1.867   1.321   3.919
 3163SOL    HW110232   1.780   1.335   3.881
 3163SOL    HW210233   1.864   1.231   3.952
 3164SOL     OW10234   1.952   1.787   4.660
 3164SOL    HW110235   1.915   1.708   4.621
 3164SOL    HW210236   2.040   1.793   4.623
 3165SOL     OW10237   2.363   1.573   4.628
 3165SOL    HW110238   2.441   1.617   4.663
 3165SOL    HW210239   2.399   1.506   4.570
 3166SOL     OW10240   2.847   0.792   4.950
 3166SOL    HW110241   2.902   0.769   5.025
 3166SOL    HW210242   2.760   0.757   4.973
 3167SOL     OW10243   1.897   0.543   4.841
 3167SOL    HW110244   1.978   0.530   4.790
 3167SOL    HW210245   1.927   0.548   4.932
 3168SOL     OW10246   2.049   0.521   5.450
 3168SOL    HW110247   2.113   0.487   5.387
 3168SOL    HW210248   2.008   0.595   5.405
 3169SOL     OW10249   3.239   0.939   5.383
 3169SOL    HW110250   3.260   1.033   5.381
 3169SOL    HW210251   3.236   0.914   5.290
 3170SOL     OW10252   2.676   0.572   4.085
 3170SOL    HW110253   2.679   0.498   4.025
 3170SOL    HW210254   2.602   0.624   4.055
 3171SOL     OW10255   3.504   0.601   4.910
 3171SOL    HW110256   3.493   0.542   4.985
 3171SOL    HW210257   3.591   0.581   4.876
 3172SOL     OW10258   2.105   1.552   5.452
 3172SOL    HW110259   2.083   1.616   5.520
 3172SOL    HW210260   2.107   1.468   5.498
 3173SOL     OW10261   2.559   0.452   4.985
 3173SOL    HW110262   2.509   0.378   4.951
 3173SOL    HW210263   2.559   0.516   4.914
 3174SOL     OW10264   2.793   1.677   5.190
 3174SOL    HW110265   2.769   1.647   5.103
 3174SOL    HW210266   2.788   1.773   5.185
 3175SOL     OW10267   2.326   0.493   3.908
 3175SOL    HW110268   2.385   0.564   3.931
 3175SOL    HW210269   2.240   0.535   3.898
 3176SOL     OW10270   2.007   1.140   5.196
 3176SOL    HW110271   2.011   1.088   5.276
 3176SOL    HW210272   2.025   1.077   5.126
 3177SOL     OW10273   3.189   1.047   4.947
 3177SOL    HW110274   3.212   0.984   4.879
 3177SOL    HW210275   3.117   1.099   4.909
 3178SOL     OW10276   3.173   0.857   4.030
 3178SOL    HW110277   3.097   0.826   4.080
 3178SOL    HW210278   3.148   0.843   3.939
 3179SOL     OW10279   3.633   1.745   4.872
 3179SOL    HW110280   3.694   1.769   4.803
 3179SOL    HW210281   3.608   1.655   4.852
 3180SOL     OW10282   3.107   1.732   4.831
 3180SOL    HW110283   3.191   1.751   4.788
 3180SOL    HW210284   3.111   1.638   4.851
 3181SOL     OW10285   1.946   1.266   4.737
 3181SOL    HW110286   1.932   1.279   4.831
 3181SOL    HW210287   1.872   1.212   4.708
 3182SOL     OW10288   2.540   1.666   5.451
 3182SOL    HW110289   2.486   1.744   5.448
 3182SOL    HW210290   2.602   1.676   5.379
 3183SOL     OW10291   3.574   0.148   4.227
 3183SOL    HW110292   3.650   0.127   4.172
 3183SOL    HW210293   3.567   0.073   4.286
 3184SOL     OW10294   3.254   1.565   4.206
 3184SOL    HW110295   3.314   1.598   4.140
 3184SOL    HW210296   3.206   1.642   4.236
 3185SOL     OW10297   1.996   1.797   5.568
 3185SOL    HW110298   1.946   1.731   5.616
 3185SOL    HW210299   2.045   1.844   5.636
 3186SOL     OW10300   3.139   0.925   4.394
 3186SOL    HW110301   3.213   0.864   4.401
 3186SOL    HW210302   3.173   0.998   4.343
 3187SOL     OW10303   2.679   1.272   5.156
 3187SOL    HW110304   2.649   1.312   5.238
 3187SOL    HW210305   2.614   1.299   5.091
 3188SOL     OW10306   2.531   1.616   3.878
 3188SOL    HW110307   2.545   1.626   3.784
 3188SOL    HW210308   2.475   1.538   3.886
 3189SOL     OW10309   3.491   1.726   5.115
 3189SOL    HW110310   3.538   1.734   5.033
 3189SOL    HW210311   3.476   1.816   5.143
 3190SOL     OW10312   3.707   0.158   4.681
 3190SOL    HW110313   3.708   0.063   4.667
 3190SOL    HW210314   3.620   0.186   4.653
 3191SOL     OW10315   2.124   0.329   4.443
 3191SOL    HW110316   2.037   0.360   4.421
 3191SOL    HW210317   2.122   0.317   4.538
 3192SOL     OW10318   3.068   1.607   3.755
 3192SOL    HW110319   3.059   1.516   3.782
 3192SOL    HW210320   3.005   1.618   3.685
 3193SOL     OW10321   2.686   1.006   5.096
 3193SOL    HW110322   2.730   1.003   5.010
 3193SOL    HW210323   2.685   1.098   5.119
 3194SOL     OW10324   2.778   0.910   4.013
 3194SOL    HW110325   2.839   0.942   3.947
 3194SOL    HW210326   2.825   0.841   4.059
 3195SOL     OW10327   3.354   1.626   3.766
 3195SOL    HW110328   3.259   1.620   3.752
 3195SOL    HW210329   3.391   1.631   3.678
 3196SOL     OW10330   2.231   1.300   5.218
 3196SOL    HW110331   2.221   1.377   5.161
 3196SOL    HW210332   2.153   1.247   5.199
 3197SOL     OW10333   3.473   1.283   5.005
 3197SOL    HW110334   3.532   1.273   5.079
 3197SOL    HW210335   3.413   1.352   5.031
 3198SOL     OW10336   2.913   1.107   4.429
 3198SOL    HW110337   2.842   1.056   4.469
 3198SOL    HW210338   2.975   1.041   4.398
 3199SOL     OW10339   2.882   0.243   4.692
 3199SOL    HW110340   2.862   0.197   4.610
 3199SOL    HW210341   2.874   0.176   4.759
 3200SOL     OW10342   2.465   1.489   4.203
 3200SOL    HW110343   2.511   1.438   4.137
 3200SOL    HW210344   2.389   1.525   4.157
 3201SOL     OW10345   3.585   0.387   5.102
 3201SOL    HW110346   3.655   0.452   5.102
 3201SOL    HW210347   3.617   0.317   5.045
 3202SOL     OW10348   2.121   1.345   4.012
 3202SOL    HW110349   2.028   1.344   3.990
 3202SOL    HW210350   2.123   1.379   4.102
 3203SOL     OW10351   1.974   1.020   5.443
 3203SOL    HW110352   1.898   0.998   5.497
 3203SOL    HW210353   2.049   0.983   5.491
 3204SOL     OW10354   2.534   0.210   5.212
 3204SOL    HW110355   2.618   0.193   5.168
 3204SOL    HW210356   2.557   0.260   5.290
 3205SOL     OW10357   1.939   0.339   3.765
 3205SOL    HW110358   1.856   0.307   3.732
 3205SOL    HW210359   1.961   0.413   3.707
 3206SOL     OW10360   3.292   0.858   5.124
 3206SOL    HW110361   3.243   0.919   5.069
 3206SOL    HW210362   3.382   0.861   5.091
 3207SOL     OW10363   1.934   0.167   4.040
 3207SOL    HW110364   1.934   0.250   3.992
 3207SOL    HW210365   2.019   0.127   4.019
 3208SOL     OW10366   3.041   1.341   3.841
 3208SOL    HW110367   2.951   1.308   3.845
 3208SOL    HW210368   3.070   1.341   3.932
 3209SOL     OW10369   2.481   0.830   5.157
 3209SOL    HW110370   2.536   0.907   5.142
 3209SOL    HW210371   2.543   0.758   5.166
 3210SOL     OW10372   3.348   1.773   4.698
 3210SOL    HW110373   3.375   1.830   4.627
 3210SOL    HW210374   3.427   1.762   4.752
 3211SOL     OW10375   2.577   0.572   5.427
 3211SOL    HW110376   2.617   0.636   5.486
 3211SOL    HW210377   2.609   0.487   5.458
 3212SOL     OW10378   3.333   1.200   5.356
 3212SOL    HW110379   3.321   1.214   5.450
 3212SOL    HW210380   3.427   1.215   5.342
 3213SOL     OW10381   2.240   1.742   5.288
 3213SOL    HW110382   2.155   1.782   5.273
 3213SOL    HW210383   2.220   1.657   5.328
 3214SOL     OW10384   3.532   0.882   4.979
 3214SOL    HW110385   3.525   0.796   4.936
 3214SOL    HW210386   3.522   0.945   4.909
 3215SOL     OW10387   3.082   0.319   4.190
 3215SOL    HW110388   3.145   0.248   4.182
 3215SOL    HW210389   3.113   0.371   4.265
 3216SOL     OW10390   2.452   0.738   4.393
 3216SOL    HW110391   2.491   0.824   4.377
 3216SOL    HW210392   2.384   0.731   4.326
 3217SOL     OW10393   3.629   0.361   5.373
 3217SOL    HW110394   3.609   0.376   5.280
 3217SOL    HW210395   3.558   0.305   5.404
 3218SOL     OW10396   3.607   0.934   5.236
 3218SOL    HW110397   3.604   1.028   5.250
 3218SOL    HW210398   3.592   0.922   5.143
 3219SOL     OW10399   2.723   1.368   3.756
 3219SOL    HW110400   2.686   1.393   3.841
 3219SOL    HW210401   2.742   1.450   3.712
 3220SOL     OW10402   2.729   0.967   4.579
 3220SOL    HW110403   2.780   0.896   4.619
 3220SOL    HW210404   2.695   1.016   4.653
 3221SOL     OW10405   2.941   0.989   3.812
 3221SOL    HW110406   2.920   1.039   3.733
 3221SOL    HW210407   3.016   0.935   3.787
 3222SOL     OW10408   3.716   1.555   4.569
 3222SOL    HW110409   3.638   1.543   4.514
 3222SOL    HW210410   3.708   1.489   4.637
 3223SOL     OW10411   2.087   1.304   5.580
 3223SOL    HW110412   2.019   1.243   5.551
 3223SOL    HW210413   2.069   1.315   5.674
 3224SOL     OW10414   1.944   1.232   4.389
 3224SOL    HW110415   1.949   1.184   4.472
 3224SOL    HW210416   2.014   1.195   4.335
 3225SOL     OW10417   2.543   1.402   5.352
 3225SOL    HW110418   2.463   1.360   5.382
 3225SOL    HW210419   2.539   1.491   5.387
 3226SOL     OW10420   3.677   0.178   4.957
 3226SOL    HW110421   3.645   0.088   4.964
 3226SOL    HW210422   3.694   0.190   4.864
 3227SOL     OW10423   2.291   0.435   4.247
 3227SOL    HW110424   2.323   0.362   4.194
 3227SOL    HW210425   2.245   0.393   4.320
 3228SOL     OW10426   3.563   1.490   4.821
 3228SOL    HW110427   3.482   1.466   4.776
 3228SOL    HW210428   3.574   1.421   4.887
 3229SOL     OW10429   2.190   0.555   5.014
 3229SOL    HW110430   2.246   0.501   5.069
 3229SOL    HW210431   2.211   0.528   4.925
 3230SOL     OW10432   2.686   1.580   4.398
 3230SOL    HW110433   2.675   1.615   4.309
 3230SOL    HW210434   2.611   1.521   4.410
 3231SOL     OW10435   3.290   0.218   4.841
 3231SOL    HW110436   3.327   0.144   4.889
 3231SOL    HW210437   3.241   0.268   4.906
 3232SOL     OW10438   2.865   0.022   4.865
 3232SOL    HW110439   2.814   5.252   4.824
 3232SOL    HW210440   2.951   5.284   4.878
 3233SOL     OW10441   2.634   1.332   4.037
 3233SOL    HW110442   2.602   1.242   4.044
 3233SOL    HW210443   2.716   1.332   4.087
 3234SOL     OW10444   2.480   1.560   5.006
 3234SOL    HW110445   2.485   1.639   5.059
 3234SOL    HW210446   2.569   1.547   4.973
 3235SOL     OW10447   3.218   0.039   3.886
 3235SOL    HW110448   3.249   5.296   3.806
 3235SOL    HW210449   3.138   5.293   3.909
 3236SOL     OW10450   3.163   0.464   4.409
 3236SOL    HW110451   3.108   0.542   4.415
 3236SOL    HW210452   3.156   0.423   4.496
 3237SOL     OW10453   3.456   0.215   4.605
 3237SOL    HW110454   3.389   0.227   4.673
 3237SOL    HW210455   3.449   0.294   4.551
 3238SOL     OW10456   1.906   1.071   4.030
 3238SOL    HW110457   1.999   1.063   4.012
 3238SOL    HW210458   1.877   0.983   4.053
 3239SOL     OW10459   2.743   1.645   4.064
 3239SOL    HW110460   2.677   1.620   3.999
 3239SOL    HW210461   2.711   1.727   4.101
 3240SOL     OW10462   2.091   0.624   5.709
 3240SOL    HW110463   2.001   0.622   5.743
 3240SOL    HW210464   2.081   0.598   5.617
 3241SOL     OW10465   2.081   0.283   6.578
 3241SOL    HW110466   2.109   0.249   6.663
 3241SOL    HW210467   1.995   0.243   6.564
 3242SOL     OW10468   1.866   0.385   6.225
 3242SOL    HW110469   1.782   0.406   6.264
 3242SOL    HW210470   1.849   0.308   6.171
 3243SOL     OW10471   2.429   1.286   6.761
 3243SOL    HW110472   2.341   1.290   6.722
 3243SOL    HW210473   2.444   1.375   6.793
 3244SOL     OW10474   3.422   1.511   6.292
 3244SOL    HW110475   3.379   1.493   6.376
 3244SOL    HW210476   3.351   1.516   6.229
 3245SOL     OW10477   2.993   0.698   6.288
 3245SOL    HW110478   3.042   0.779   6.273
 3245SOL    HW210479   2.946   0.713   6.370
 3246SOL     OW10480   3.628   0.606   5.815
 3246SOL    HW110481   3.608   0.598   5.722
 3246SOL    HW210482   3.593   0.526   5.854
 3247SOL     OW10483   2.618   1.143   6.626
 3247SOL    HW110484   2.549   1.177   6.683
 3247SOL    HW210485   2.653   1.220   6.581
 3248SOL     OW10486   2.726   0.780   7.406
 3248SOL    HW110487   2.714   0.854   7.465
 3248SOL    HW210488   2.752   0.819   7.323
 3249SOL     OW10489   2.548   1.004   6.233
 3249SOL    HW110490   2.613   0.991   6.303
 3249SOL    HW210491   2.479   1.055   6.274
 3250SOL     OW10492   2.571   1.151   7.397
 3250SOL    HW110493   2.619   1.230   7.424
 3250SOL    HW210494   2.489   1.184   7.362
 3251SOL     OW10495   2.192   1.426   6.654
 3251SOL    HW110496   2.120   1.389   6.603
 3251SOL    HW210497   2.243   1.477   6.590
 3252SOL     OW10498   3.323   1.499   6.939
 3252SOL    HW110499   3.372   1.581   6.949
 3252SOL    HW210500   3.262   1.499   7.013
 3253SOL     OW10501   2.306   0.398   7.075
 3253SOL    HW110502   2.381   0.339   7.072
 3253SOL    HW210503   2.230   0.341   7.087
 3254SOL     OW10504   3.473   0.452   6.324
 3254SOL    HW110505   3.397   0.476   6.270
 3254SOL    HW210506   3.492   0.530   6.375
 3255SOL     OW10507   2.081   1.714   6.059
 3255SOL    HW110508   2.104   1.791   6.112
 3255SOL    HW210509   2.153   1.707   5.996
 3256SOL     OW10510   2.998   1.341   7.276
 3256SOL    HW110511   3.038   1.338   7.363
 3256SOL    HW210512   2.946   1.261   7.271
 3257SOL     OW10513   2.092   1.441   6.121
 3257SOL    HW110514   2.075   1.535   6.125
 3257SOL    HW210515   2.031   1.403   6.184
 3258SOL     OW10516   2.118   1.090   6.477
 3258SOL    HW110517   2.115   1.004   6.518
 3258SOL    HW210518   2.061   1.144   6.530
 3259SOL     OW10519   2.474   1.791   7.015
 3259SOL    HW110520   2.392   1.774   7.062
 3259SOL    HW210521   2.498   1.880   7.040
 3260SOL     OW10522   2.448   0.981   5.720
 3260SOL    HW110523   2.493   1.031   5.651
 3260SOL    HW210524   2.488   1.012   5.801
 3261SOL     OW10525   3.448   0.135   7.043
 3261SOL    HW110526   3.469   0.220   7.004
 3261SOL    HW210527   3.446   0.151   7.137
 3262SOL     OW10528   1.976   0.653   6.145
 3262SOL    HW110529   1.949   0.564   6.167
 3262SOL    HW210530   1.969   0.701   6.228
 3263SOL     OW10531   3.704   1.759   5.921
 3263SOL    HW110532   3.767   1.731   5.987
 3263SOL    HW210533   3.729   1.850   5.902
 3264SOL     OW10534   1.893   1.595   5.711
 3264SOL    HW110535   1.876   1.503   5.730
 3264SOL    HW210536   1.869   1.642   5.791
 3265SOL     OW10537   3.551   0.918   6.226
 3265SOL    HW110538   3.635   0.877   6.205
 3265SOL    HW210539   3.529   0.969   6.148
 3266SOL     OW10540   3.508   1.107   6.016
 3266SOL    HW110541   3.593   1.113   5.973
 3266SOL    HW210542   3.513   1.168   6.089
 3267SOL     OW10543   1.984   0.743   7.172
 3267SOL    HW110544   2.076   0.768   7.180
 3267SOL    HW210545   1.936   0.825   7.180
 3268SOL     OW10546   2.475   1.385   6.321
 3268SOL    HW110547   2.429   1.301   6.330
 3268SOL    HW210548   2.459   1.411   6.231
 3269SOL     OW10549   3.151   1.238   7.010
 3269SOL    HW110550   3.184   1.171   6.950
 3269SOL    HW210551   3.208   1.232   7.086
 3270SOL     OW10552   2.672   0.026   6.113
 3270SOL    HW110553   2.701   0.114   6.088
 3270SOL    HW210554   2.576   0.029   6.107
 3271SOL     OW10555   2.052   0.967   6.857
 3271SOL    HW110556   2.137   0.925   6.842
 3271SOL    HW210557   1.990   0.912   6.810
 3272SOL     OW10558   3.394   0.993   5.784
 3272SOL    HW110559   3.324   0.936   5.815
 3272SOL    HW210560   3.434   1.027   5.864
 3273SOL     OW10561   3.047   1.805   7.208
 3273SOL    HW110562   3.058   1.865   7.133
 3273SOL    HW210563   3.064   1.718   7.172
 3274SOL     OW10564   2.188   0.262   7.402
 3274SOL    HW110565   2.239   0.340   7.422
 3274SOL    HW210566   2.101   0.281   7.437
 3275SOL     OW10567   3.329   1.419   6.538
 3275SOL    HW110568   3.260   1.435   6.603
 3275SOL    HW210569   3.316   1.328   6.511
 3276SOL     OW10570   3.521   1.738   6.164
 3276SOL    HW110571   3.501   1.709   6.075
 3276SOL    HW210572   3.496   1.664   6.220
 3277SOL     OW10573   2.457   0.722   5.851
 3277SOL    HW110574   2.463   0.802   5.801
 3277SOL    HW210575   2.392   0.741   5.919
 3278SOL     OW10576   3.140   0.346   6.517
 3278SOL    HW110577   3.050   0.318   6.529
 3278SOL    HW210578   3.190   0.296   6.582
 3279SOL     OW10579   3.443   1.669   5.895
 3279SOL    HW110580   3.533   1.702   5.888
 3279SOL    HW210581   3.416   1.653   5.805
 3280SOL     OW10582   2.656   0.617   7.037
 3280SOL    HW110583   2.628   0.597   7.126
 3280SOL    HW210584   2.613   0.552   6.982
 3281SOL     OW10585   3.257   0.475   7.264
 3281SOL    HW110586   3.258   0.519   7.348
 3281SOL    HW210587   3.320   0.404   7.273
 3282SOL     OW10588   2.817   0.888   7.168
 3282SOL    HW110589   2.872   0.818   7.132
 3282SOL    HW210590   2.770   0.922   7.092
 3283SOL     OW10591   2.856   0.416   6.822
 3283SOL    HW110592   2.771   0.439   6.861
 3283SOL    HW210593   2.833   0.368   6.742
 3284SOL     OW10594   2.913   0.698   6.013
 3284SOL    HW110595   2.927   0.691   6.107
 3284SOL    HW210596   2.830   0.652   5.998
 3285SOL     OW10597   1.950   0.820   6.363
 3285SOL    HW110598   2.032   0.814   6.413
 3285SOL    HW210599   1.908   0.899   6.397
 3286SOL     OW10600   1.988   1.850   7.165
 3286SOL    HW110601   1.988   1.827   7.258
 3286SOL    HW210602   1.898   1.836   7.137
 3287SOL     OW10603   2.735   0.363   5.775
 3287SOL    HW110604   2.778   0.423   5.714
 3287SOL    HW210605   2.787   0.283   5.771
 3288SOL     OW10606   3.572   0.576   7.415
 3288SOL    HW110607   3.534   0.650   7.368
 3288SOL    HW210608   3.599   0.515   7.346
 3289SOL     OW10609   3.238   1.142   6.127
 3289SOL    HW110610   3.317   1.129   6.075
 3289SOL    HW210611   3.186   1.204   6.077
 3290SOL     OW10612   2.390   0.201   6.469
 3290SOL    HW110613   2.411   0.217   6.561
 3290SOL    HW210614   2.411   0.284   6.425
 3291SOL     OW10615   2.868   1.444   6.058
 3291SOL    HW110616   2.830   1.517   6.009
 3291SOL    HW210617   2.852   1.466   6.150
 3292SOL     OW10618   2.216   1.808   6.447
 3292SOL    HW110619   2.260   1.723   6.455
 3292SOL    HW210620   2.285   1.873   6.464
 3293SOL     OW10621   3.661   1.057   6.454
 3293SOL    HW110622   3.606   1.040   6.377
 3293SOL    HW210623   3.599   1.063   6.527
 3294SOL     OW10624   3.090   1.539   7.099
 3294SOL    HW110625   3.076   1.466   7.159
 3294SOL    HW210626   3.027   1.524   7.028
 3295SOL     OW10627   2.183   0.957   5.836
 3295SOL    HW110628   2.265   0.976   5.791
 3295SOL    HW210629   2.152   0.875   5.796
 3296SOL     OW10630   3.340   0.742   6.313
 3296SOL    HW110631   3.331   0.699   6.398
 3296SOL    HW210632   3.417   0.797   6.322
 3297SOL     OW10633   2.327   1.263   7.324
 3297SOL    HW110634   2.300   1.269   7.232
 3297SOL    HW210635   2.245   1.262   7.373
 3298SOL     OW10636   2.984   1.777   5.818
 3298SOL    HW110637   2.911   1.735   5.863
 3298SOL    HW210638   3.006   1.717   5.747
 3299SOL     OW10639   2.059   0.278   7.088
 3299SOL    HW110640   1.981   0.332   7.082
 3299SOL    HW210641   2.048   0.229   7.169
 3300SOL     OW10642   3.491   1.380   5.673
 3300SOL    HW110643   3.450   1.465   5.658
 3300SOL    HW210644   3.422   1.316   5.654
 3301SOL     OW10645   2.329   1.738   5.906
 3301SOL    HW110646   2.371   1.793   5.972
 3301SOL    HW210647   2.400   1.706   5.851
 3302SOL     OW10648   3.269   0.099   6.017
 3302SOL    HW110649   3.260   0.082   5.924
 3302SOL    HW210650   3.361   0.122   6.029
 3303SOL     OW10651   2.116   1.792   6.819
 3303SOL    HW110652   2.170   1.727   6.865
 3303SOL    HW210653   2.109   1.757   6.730
 3304SOL     OW10654   2.800   1.698   6.486
 3304SOL    HW110655   2.878   1.646   6.505
 3304SOL    HW210656   2.755   1.648   6.417
 3305SOL     OW10657   2.254   0.696   6.063
 3305SOL    HW110658   2.275   0.603   6.073
 3305SOL    HW210659   2.160   0.701   6.080
 3306SOL     OW10660   3.401   0.227   7.311
 3306SOL    HW110661   3.408   0.246   7.404
 3306SOL    HW210662   3.326   0.169   7.303
 3307SOL     OW10663   2.486   0.132   5.693
 3307SOL    HW110664   2.551   0.067   5.716
 3307SOL    HW210665   2.435   0.092   5.623
 3308SOL     OW10666   2.642   0.312   7.350
 3308SOL    HW110667   2.702   0.238   7.352
 3308SOL    HW210668   2.600   0.312   7.435
 3309SOL     OW10669   2.737   1.520   6.780
 3309SOL    HW110670   2.723   1.485   6.692
 3309SOL    HW210671   2.808   1.467   6.816
 3310SOL     OW10672   3.203   0.589   7.018
 3310SOL    HW110673   3.234   0.558   7.103
 3310SOL    HW210674   3.239   0.677   7.011
 3311SOL     OW10675   2.676   1.395   6.524
 3311SOL    HW110676   2.761   1.384   6.480
 3311SOL    HW210677   2.612   1.396   6.453
 3312SOL     OW10678   2.789   0.510   6.490
 3312SOL    HW110679   2.765   0.502   6.397
 3312SOL    HW210680   2.821   0.423   6.514
 3313SOL     OW10681   2.404   0.063   6.095
 3313SOL    HW110682   2.318   0.062   6.137
 3313SOL    HW210683   2.397   0.133   6.030
 3314SOL     OW10684   3.290   1.198   5.627
 3314SOL    HW110685   3.320   1.122   5.677
 3314SOL    HW210686   3.204   1.219   5.664
 3315SOL     OW10687   2.163   0.061   5.776
 3315SOL    HW110688   2.221   0.131   5.746
 3315SOL    HW210689   2.220   5.285   5.788
 3316SOL     OW10690   2.801   0.260   6.048
 3316SOL    HW110691   2.773   0.299   5.965
 3316SOL    HW210692   2.896   0.272   6.049
 3317SOL     OW10693   2.943   0.681   7.046
 3317SOL    HW110694   2.874   0.615   7.051
 3317SOL    HW210695   3.024   0.630   7.039
 3318SOL     OW10696   3.086   1.570   6.380
 3318SOL    HW110697   3.102   1.637   6.313
 3318SOL    HW210698   3.154   1.584   6.446
 3319SOL     OW10699   2.330   1.149   6.320
 3319SOL    HW110700   2.260   1.130   6.383
 3319SOL    HW210701   2.291   1.132   6.235
 3320SOL     OW10702   3.131   1.794   6.194
 3320SOL    HW110703   3.177   1.855   6.136
 3320SOL    HW210704   3.065   1.848   6.238
 3321SOL     OW10705   2.888   0.547   5.608
 3321SOL    HW110706   2.845   0.630   5.589
 3321SOL    HW210707   2.952   0.567   5.676
 3322SOL     OW10708   1.940   0.553   6.979
 3322SOL    HW110709   2.032   0.553   6.951
 3322SOL    HW210710   1.935   0.624   7.043
 3323SOL     OW10711   2.418   0.237   6.744
 3323SOL    HW110712   2.449   0.151   6.772
 3323SOL    HW210713   2.326   0.239   6.770
 3324SOL     OW10714   2.729   0.462   6.227
 3324SOL    HW110715   2.683   0.516   6.162
 3324SOL    HW210716   2.752   0.382   6.180
 3325SOL     OW10717   2.840   0.061   6.348
 3325SOL    HW110718   2.775   0.055   6.278
 3325SOL    HW210719   2.850   5.271   6.380
 3326SOL     OW10720   3.299   1.163   6.443
 3326SOL    HW110721   3.230   1.097   6.441
 3326SOL    HW210722   3.323   1.175   6.352
 3327SOL     OW10723   3.328   0.605   6.564
 3327SOL    HW110724   3.280   0.523   6.568
 3327SOL    HW210725   3.389   0.600   6.638
 3328SOL     OW10726   3.708   0.817   5.968
 3328SOL    HW110727   3.764   0.765   6.026
 3328SOL    HW210728   3.679   0.755   5.901
 3329SOL     OW10729   2.353   1.418   5.744
 3329SOL    HW110730   2.278   1.388   5.795
 3329SOL    HW210731   2.338   1.380   5.657
 3330SOL     OW10732   3.531   1.264   6.233
 3330SOL    HW110733   3.626   1.268   6.246
 3330SOL    HW210734   3.501   1.352   6.254
 3331SOL     OW10735   3.256   0.572   5.657
 3331SOL    HW110736   3.195   0.553   5.728
 3331SOL    HW210737   3.341   0.541   5.689
 3332SOL     OW10738   2.386   0.264   5.907
 3332SOL    HW110739   2.430   0.216   5.838
 3332SOL    HW210740   2.366   0.349   5.868
 3333SOL     OW10741   3.615   1.238   7.160
 3333SOL    HW110742   3.702   1.200   7.155
 3333SOL    HW210743   3.629   1.328   7.189
 3334SOL     OW10744   2.921   1.353   6.919
 3334SOL    HW110745   2.846   1.322   6.971
 3334SOL    HW210746   2.997   1.312   6.961
 3335SOL     OW10747   3.469   1.625   7.238
 3335SOL    HW110748   3.465   1.659   7.149
 3335SOL    HW210749   3.552   1.578   7.241
 3336SOL     OW10750   2.990   1.202   6.692
 3336SOL    HW110751   2.931   1.241   6.757
 3336SOL    HW210752   2.957   1.235   6.608
 3337SOL     OW10753   3.491   1.099   6.664
 3337SOL    HW110754   3.486   1.161   6.736
 3337SOL    HW210755   3.412   1.115   6.613
 3338SOL     OW10756   2.767   0.106   6.976
 3338SOL    HW110757   2.797   0.072   6.892
 3338SOL    HW210758   2.844   0.148   7.014
 3339SOL     OW10759   2.846   1.114   7.310
 3339SOL    HW110760   2.754   1.131   7.328
 3339SOL    HW210761   2.846   1.037   7.254
 3340SOL     OW10762   2.571   1.061   5.957
 3340SOL    HW110763   2.557   1.045   6.051
 3340SOL    HW210764   2.646   1.007   5.934
 3341SOL     OW10765   2.280   0.815   6.838
 3341SOL    HW110766   2.349   0.824   6.903
 3341SOL    HW210767   2.245   0.727   6.852
 3342SOL     OW10768   3.129   0.379   6.858
 3342SOL    HW110769   3.162   0.456   6.905
 3342SOL    HW210770   3.039   0.401   6.835
 3343SOL     OW10771   1.932   1.573   6.938
 3343SOL    HW110772   1.902   1.646   6.883
 3343SOL    HW210773   2.028   1.577   6.932
 3344SOL     OW10774   2.211   1.109   6.077
 3344SOL    HW110775   2.217   1.182   6.016
 3344SOL    HW210776   2.210   1.031   6.021
 3345SOL     OW10777   2.416   0.538   6.447
 3345SOL    HW110778   2.431   0.596   6.372
 3345SOL    HW210779   2.481   0.565   6.512
 3346SOL     OW10780   3.110   1.348   5.976
 3346SOL    HW110781   3.166   1.420   6.006
 3346SOL    HW210782   3.023   1.369   6.009
 3347SOL     OW10783   3.142   1.457   6.733
 3347SOL    HW110784   3.198   1.460   6.811
 3347SOL    HW210785   3.087   1.380   6.746
 3348SOL     OW10786   3.445   0.623   6.064
 3348SOL    HW110787   3.398   0.678   6.128
 3348SOL    HW210788   3.489   0.685   6.007
 3349SOL     OW10789   2.209   1.526   6.902
 3349SOL    HW110790   2.196   1.484   6.817
 3349SOL    HW210791   2.303   1.539   6.909
 3350SOL     OW10792   2.276   0.745   7.188
 3350SOL    HW110793   2.337   0.790   7.130
 3350SOL    HW210794   2.318   0.660   7.205
 3351SOL     OW10795   3.462   0.778   7.267
 3351SOL    HW110796   3.376   0.819   7.260
 3351SOL    HW210797   3.515   0.820   7.199
 3352SOL     OW10798   2.903   0.115   7.371
 3352SOL    HW110799   2.930   0.195   7.325
 3352SOL    HW210800   2.911   0.046   7.305
 3353SOL     OW10801   2.345   0.056   7.324
 3353SOL    HW110802   2.287   5.292   7.283
 3353SOL    HW210803   2.287   0.129   7.347
 3354SOL     OW10804   2.446   0.872   6.618
 3354SOL    HW110805   2.476   0.963   6.615
 3354SOL    HW210806   2.388   0.868   6.694
 3355SOL     OW10807   3.220   0.859   6.617
 3355SOL    HW110808   3.138   0.851   6.569
 3355SOL    HW210809   3.260   0.772   6.611
 3356SOL     OW10810   3.068   0.528   5.854
 3356SOL    HW110811   3.072   0.448   5.905
 3356SOL    HW210812   3.026   0.592   5.912
 3357SOL     OW10813   2.159   0.204   6.833
 3357SOL    HW110814   2.120   0.243   6.911
 3357SOL    HW210815   2.157   0.110   6.850
 3358SOL     OW10816   1.907   1.311   6.863
 3358SOL    HW110817   1.941   1.256   6.934
 3358SOL    HW210818   1.915   1.401   6.895
 3359SOL     OW10819   2.588   0.632   6.646
 3359SOL    HW110820   2.661   0.615   6.587
 3359SOL    HW210821   2.559   0.720   6.624
 3360SOL     OW10822   3.597   0.959   7.438
 3360SOL    HW110823   3.548   0.900   7.381
 3360SOL    HW210824   3.539   0.973   7.513
 3361SOL     OW10825   2.164   0.072   6.235
 3361SOL    HW110826   2.148   0.166   6.244
 3361SOL    HW210827   2.205   0.047   6.318
 3362SOL     OW10828   3.473   0.374   5.952
 3362SOL    HW110829   3.507   0.311   6.016
 3362SOL    HW210830   3.453   0.452   6.004
 3363SOL     OW10831   2.890   0.759   6.547
 3363SOL    HW110832   2.887   0.777   6.641
 3363SOL    HW210833   2.863   0.668   6.539
 3364SOL     OW10834   2.843   1.565   7.302
 3364SOL    HW110835   2.829   1.610   7.219
 3364SOL    HW210836   2.888   1.484   7.278
 3365SOL     OW10837   3.717   1.507   7.191
 3365SOL    HW110838   3.735   1.533   7.101
 3365SOL    HW210839   3.799   1.526   7.238
 3366SOL     OW10840   2.215   0.914   7.396
 3366SOL    HW110841   2.298   0.935   7.439
 3366SOL    HW210842   2.239   0.853   7.326
 3367SOL     OW10843   3.389   0.272   5.712
 3367SOL    HW110844   3.325   0.208   5.743
 3367SOL    HW210845   3.425   0.311   5.792
 3368SOL     OW10846   3.155   0.827   5.618
 3368SOL    HW110847   3.197   0.741   5.621
 3368SOL    HW210848   3.186   0.866   5.536
 3369SOL     OW10849   2.928   1.336   6.440
 3369SOL    HW110850   2.931   1.263   6.377
 3369SOL    HW210851   2.989   1.400   6.405
 3370SOL     OW10852   2.171   0.809   6.534
 3370SOL    HW110853   2.264   0.831   6.526
 3370SOL    HW210854   2.170   0.719   6.566
 3371SOL     OW10855   2.195   0.525   6.599
 3371SOL    HW110856   2.158   0.438   6.582
 3371SOL    HW210857   2.271   0.530   6.541
 3372SOL     OW10858   2.998   0.377   7.273
 3372SOL    HW110859   2.950   0.432   7.336
 3372SOL    HW210860   3.085   0.416   7.269
 3373SOL     OW10861   2.996   0.222   7.051
 3373SOL    HW110862   3.000   0.281   7.127
 3373SOL    HW210863   3.051   0.264   6.985
 3374SOL     OW10864   1.867   1.322   5.782
 3374SOL    HW110865   1.780   1.336   5.744
 3374SOL    HW210866   1.864   1.232   5.815
 3375SOL     OW10867   1.952   1.788   6.523
 3375SOL    HW110868   1.922   1.708   6.480
 3375SOL    HW210869   2.042   1.799   6.493
 3376SOL     OW10870   2.359   1.573   6.491
 3376SOL    HW110871   2.427   1.635   6.515
 3376SOL    HW210872   2.403   1.509   6.435
 3377SOL     OW10873   2.846   0.793   6.813
 3377SOL    HW110874   2.902   0.769   6.887
 3377SOL    HW210875   2.760   0.756   6.834
 3378SOL     OW10876   1.897   0.543   6.703
 3378SOL    HW110877   1.977   0.529   6.652
 3378SOL    HW210878   1.927   0.548   6.794
 3379SOL     OW10879   2.050   0.520   7.312
 3379SOL    HW110880   2.113   0.487   7.248
 3379SOL    HW210881   2.008   0.594   7.268
 3380SOL     OW10882   3.238   0.939   7.245
 3380SOL    HW110883   3.260   1.033   7.244
 3380SOL    HW210884   3.236   0.914   7.153
 3381SOL     OW10885   2.676   0.572   5.947
 3381SOL    HW110886   2.679   0.498   5.887
 3381SOL    HW210887   2.602   0.624   5.917
 3382SOL     OW10888   3.504   0.601   6.773
 3382SOL    HW110889   3.493   0.542   6.847
 3382SOL    HW210890   3.591   0.581   6.738
 3383SOL     OW10891   2.104   1.552   7.314
 3383SOL    HW110892   2.083   1.615   7.382
 3383SOL    HW210893   2.108   1.468   7.360
 3384SOL     OW10894   2.559   0.452   6.847
 3384SOL    HW110895   2.509   0.378   6.813
 3384SOL    HW210896   2.559   0.516   6.776
 3385SOL     OW10897   2.790   1.679   7.053
 3385SOL    HW110898   2.764   1.646   6.967
 3385SOL    HW210899   2.788   1.774   7.044
 3386SOL     OW10900   2.326   0.493   5.770
 3386SOL    HW110901   2.385   0.564   5.793
 3386SOL    HW210902   2.240   0.535   5.760
 3387SOL     OW10903   2.008   1.140   7.058
 3387SOL    HW110904   2.011   1.088   7.138
 3387SOL    HW210905   2.025   1.077   6.988
 3388SOL     OW10906   3.188   1.047   6.810
 3388SOL    HW110907   3.212   0.984   6.742
 3388SOL    HW210908   3.118   1.099   6.771
 3389SOL     OW10909   3.173   0.856   5.893
 3389SOL    HW110910   3.097   0.826   5.942
 3389SOL    HW210911   3.149   0.843   5.801
 3390SOL     OW10912   3.633   1.745   6.736
 3390SOL    HW110913   3.693   1.771   6.666
 3390SOL    HW210914   3.609   1.655   6.714
 3391SOL     OW10915   3.103   1.732   6.699
 3391SOL    HW110916   3.185   1.753   6.654
 3391SOL    HW210917   3.109   1.638   6.717
 3392SOL     OW10918   1.945   1.267   6.598
 3392SOL    HW110919   1.931   1.279   6.692
 3392SOL    HW210920   1.872   1.212   6.570
 3393SOL     OW10921   2.538   1.664   7.312
 3393SOL    HW110922   2.489   1.746   7.312
 3393SOL    HW210923   2.606   1.676   7.245
 3394SOL     OW10924   3.575   0.148   6.089
 3394SOL    HW110925   3.650   0.128   6.034
 3394SOL    HW210926   3.567   0.073   6.148
 3395SOL     OW10927   3.252   1.568   6.070
 3395SOL    HW110928   3.313   1.600   6.003
 3395SOL    HW210929   3.204   1.645   6.098
 3396SOL     OW10930   1.997   1.797   7.430
 3396SOL    HW110931   1.946   1.732   7.479
 3396SOL    HW210932   2.046   1.845   7.498
 3397SOL     OW10933   3.139   0.925   6.257
 3397SOL    HW110934   3.213   0.864   6.263
 3397SOL    HW210935   3.173   0.998   6.205
 3398SOL     OW10936   2.677   1.272   7.017
 3398SOL    HW110937   2.649   1.312   7.099
 3398SOL    HW210938   2.609   1.296   6.954
 3399SOL     OW10939   2.533   1.620   5.742
 3399SOL    HW110940   2.544   1.632   5.648
 3399SOL    HW210941   2.479   1.541   5.749
 3400SOL     OW10942   3.490   1.727   6.977
 3400SOL    HW110943   3.539   1.734   6.895
 3400SOL    HW210944   3.476   1.817   7.005
 3401SOL     OW10945   3.707   0.158   6.544
 3401SOL    HW110946   3.708   0.063   6.528
 3401SOL    HW210947   3.620   0.186   6.515
 3402SOL     OW10948   2.124   0.329   6.305
 3402SOL    HW110949   2.037   0.360   6.283
 3402SOL    HW210950   2.122   0.317   6.400
 3403SOL     OW10951   3.069   1.607   5.618
 3403SOL    HW110952   3.059   1.515   5.644
 3403SOL    HW210953   3.004   1.618   5.548
 3404SOL     OW10954   2.686   1.006   6.958
 3404SOL    HW110955   2.730   1.002   6.873
 3404SOL    HW210956   2.686   1.099   6.981
 3405SOL     OW10957   2.778   0.910   5.876
 3405SOL    HW110958   2.839   0.942   5.810
 3405SOL    HW210959   2.826   0.840   5.921
 3406SOL     OW10960   3.354   1.625   5.628
 3406SOL    HW110961   3.260   1.619   5.615
 3406SOL    HW210962   3.391   1.631   5.540
 3407SOL     OW10963   2.230   1.303   7.078
 3407SOL    HW110964   2.218   1.379   7.023
 3407SOL    HW210965   2.154   1.248   7.061
 3408SOL     OW10966   3.473   1.283   6.867
 3408SOL    HW110967   3.532   1.273   6.941
 3408SOL    HW210968   3.413   1.352   6.893
 3409SOL     OW10969   2.913   1.107   6.293
 3409SOL    HW110970   2.842   1.055   6.331
 3409SOL    HW210971   2.975   1.041   6.260
 3410SOL     OW10972   2.882   0.243   6.554
 3410SOL    HW110973   2.862   0.197   6.472
 3410SOL    HW210974   2.874   0.176   6.621
 3411SOL     OW10975   2.464   1.488   6.068
 3411SOL    HW110976   2.509   1.438   6.000
 3411SOL    HW210977   2.396   1.536   6.021
 3412SOL     OW10978   3.586   0.387   6.965
 3412SOL    HW110979   3.655   0.452   6.964
 3412SOL    HW210980   3.618   0.317   6.907
 3413SOL     OW10981   2.121   1.345   5.874
 3413SOL    HW110982   2.028   1.343   5.852
 3413SOL    HW210983   2.123   1.382   5.962
 3414SOL     OW10984   1.975   1.020   7.305
 3414SOL    HW110985   1.898   0.998   7.358
 3414SOL    HW210986   2.049   0.983   7.353
 3415SOL     OW10987   2.534   0.211   7.075
 3415SOL    HW110988   2.618   0.194   7.031
 3415SOL    HW210989   2.558   0.260   7.153
 3416SOL     OW10990   1.939   0.339   5.627
 3416SOL    HW110991   1.856   0.307   5.593
 3416SOL    HW210992   1.961   0.413   5.569
 3417SOL     OW10993   3.292   0.858   6.987
 3417SOL    HW110994   3.244   0.919   6.931
 3417SOL    HW210995   3.382   0.861   6.953
 3418SOL     OW10996   1.934   0.167   5.901
 3418SOL    HW110997   1.934   0.250   5.854
 3418SOL    HW210998   2.019   0.127   5.881
 3419SOL     OW10999   3.041   1.340   5.703
 3419SOL    HW111000   2.950   1.310   5.705
 3419SOL    HW211001   3.069   1.340   5.794
 3420SOL     OW11002   2.481   0.831   7.019
 3420SOL    HW111003   2.536   0.907   7.004
 3420SOL    HW211004   2.543   0.758   7.028
 3421SOL     OW11005   3.346   1.775   6.563
 3421SOL    HW111006   3.369   1.835   6.492
 3421SOL    HW211007   3.429   1.759   6.609
 3422SOL     OW11008   2.576   0.573   7.289
 3422SOL    HW111009   2.617   0.635   7.349
 3422SOL    HW211010   2.608   0.487   7.319
 3423SOL     OW11011   3.333   1.200   7.218
 3423SOL    HW111012   3.320   1.214   7.312
 3423SOL    HW211013   3.426   1.215   7.204
 3424SOL     OW11014   2.241   1.740   7.149
 3424SOL    HW111015   2.155   1.780   7.136
 3424SOL    HW211016   2.222   1.656   7.191
 3425SOL     OW11017   3.532   0.882   6.841
 3425SOL    HW111018   3.525   0.796   6.798
 3425SOL    HW211019   3.522   0.945   6.771
 3426SOL     OW11020   3.082   0.319   6.052
 3426SOL    HW111021   3.145   0.248   6.044
 3426SOL    HW211022   3.113   0.371   6.127
 3427SOL     OW11023   2.452   0.739   6.256
 3427SOL    HW111024   2.491   0.824   6.239
 3427SOL    HW211025   2.384   0.730   6.189
 3428SOL     OW11026   3.629   0.360   7.236
 3428SOL    HW111027   3.610   0.376   7.143
 3428SOL    HW211028   3.557   0.305   7.266
 3429SOL     OW11029   3.607   0.933   7.098
 3429SOL    HW111030   3.604   1.028   7.112
 3429SOL    HW211031   3.591   0.922   7.005
 3430SOL     OW11032   2.725   1.368   5.619
 3430SOL    HW111033   2.686   1.396   5.701
 3430SOL    HW211034   2.743   1.449   5.572
 3431SOL     OW11035   2.523   1.787   6.530
 3431SOL    HW111036   2.501   1.878   6.509
 3431SOL    HW211037   2.618   1.784   6.526
 3432SOL     OW11038   2.729   0.966   6.441
 3432SOL    HW111039   2.779   0.895   6.481
 3432SOL    HW211040   2.695   1.016   6.516
 3433SOL     OW11041   2.941   0.988   5.675
 3433SOL    HW111042   2.919   1.039   5.597
 3433SOL    HW211043   3.016   0.935   5.649
 3434SOL     OW11044   3.717   1.555   6.430
 3434SOL    HW111045   3.639   1.544   6.376
 3434SOL    HW211046   3.707   1.488   6.499
 3435SOL     OW11047   2.087   1.303   7.443
 3435SOL    HW111048   2.019   1.243   7.412
 3435SOL    HW211049   2.068   1.317   7.535
 3436SOL     OW11050   1.946   1.234   6.251
 3436SOL    HW111051   1.951   1.185   6.333
 3436SOL    HW211052   2.014   1.196   6.195
 3437SOL     OW11053   2.542   1.402   7.212
 3437SOL    HW111054   2.462   1.359   7.244
 3437SOL    HW211055   2.539   1.490   7.249
 3438SOL     OW11056   3.677   0.178   6.819
 3438SOL    HW111057   3.644   0.088   6.826
 3438SOL    HW211058   3.694   0.190   6.726
 3439SOL     OW11059   2.291   0.435   6.110
 3439SOL    HW111060   2.323   0.363   6.056
 3439SOL    HW211061   2.245   0.393   6.182
 3440SOL     OW11062   3.563   1.489   6.683
 3440SOL    HW111063   3.482   1.466   6.638
 3440SOL    HW211064   3.574   1.421   6.748
 3441SOL     OW11065   2.190   0.555   6.876
 3441SOL    HW111066   2.247   0.501   6.931
 3441SOL    HW211067   2.210   0.528   6.787
 3442SOL     OW11068   2.689   1.578   6.264
 3442SOL    HW111069   2.679   1.630   6.184
 3442SOL    HW211070   2.612   1.521   6.266
 3443SOL     OW11071   3.290   0.218   6.703
 3443SOL    HW111072   3.327   0.144   6.751
 3443SOL    HW211073   3.241   0.268   6.768
 3444SOL     OW11074   2.864   0.022   6.727
 3444SOL    HW111075   2.814   5.252   6.685
 3444SOL    HW211076   2.951   5.284   6.740
 3445SOL     OW11077   2.633   1.333   5.901
 3445SOL    HW111078   2.602   1.242   5.906
 3445SOL    HW211079   2.716   1.333   5.948
 3446SOL     OW11080   2.481   1.557   6.871
 3446SOL    HW111081   2.484   1.639   6.920
 3446SOL    HW211082   2.569   1.549   6.833
 3447SOL     OW11083   3.219   0.039   5.748
 3447SOL    HW111084   3.249   5.296   5.668
 3447SOL    HW211085   3.137   5.294   5.771
 3448SOL     OW11086   3.163   0.464   6.271
 3448SOL    HW111087   3.108   0.542   6.277
 3448SOL    HW211088   3.156   0.423   6.358
 3449SOL     OW11089   3.456   0.216   6.468
 3449SOL    HW111090   3.389   0.227   6.535
 3449SOL    HW211091   3.450   0.294   6.413
 3450SOL     OW11092   1.905   1.071   5.892
 3450SOL    HW111093   1.999   1.063   5.874
 3450SOL    HW211094   1.877   0.983   5.915
 3451SOL     OW11095   2.745   1.652   5.929
 3451SOL    HW111096   2.673   1.635   5.868
 3451SOL    HW211097   2.716   1.727   5.980
 3452SOL     OW11098   2.089   0.620   7.571
 3452SOL    HW111099   1.999   0.628   7.602
 3452SOL    HW211100   2.081   0.597   7.479
 3453SOL     OW11101   3.630   0.598   7.679
 3453SOL    HW111102   3.609   0.594   7.586
 3453SOL    HW211103   3.587   0.521   7.717
 3454SOL     OW11104   2.082   1.718   7.918
 3454SOL    HW111105   2.111   1.760   7.999
 3454SOL    HW211106   2.160   1.715   7.863
 3455SOL     OW11107   2.080   1.438   7.990
 3455SOL    HW111108   2.064   1.532   7.990
 3455SOL    HW211109   2.021   1.403   8.057
 3456SOL     OW11110   2.449   0.981   7.579
 3456SOL    HW111111   2.492   1.032   7.510
 3456SOL    HW211112   2.488   1.013   7.660
 3457SOL     OW11113   3.699   1.760   7.797
 3457SOL    HW111114   3.769   1.729   7.855
 3457SOL    HW211115   3.726   1.848   7.772
 3458SOL     OW11116   1.892   1.599   7.577
 3458SOL    HW111117   1.876   1.506   7.592
 3458SOL    HW211118   1.864   1.642   7.659
 3459SOL     OW11119   3.546   0.867   8.034
 3459SOL    HW111120   3.626   0.879   0.005
 3459SOL    HW211121   3.533   0.951   7.990
 3460SOL     OW11122   3.516   1.099   7.877
 3460SOL    HW111123   3.603   1.125   7.846
 3460SOL    HW211124   3.489   1.170   7.934
 3461SOL     OW11125   2.672   5.291   7.945
 3461SOL    HW111126   2.714   0.076   7.930
 3461SOL    HW211127   2.578   0.009   7.942
 3462SOL     OW11128   3.395   0.994   7.648
 3462SOL    HW111129   3.328   0.935   7.682
 3462SOL    HW211130   3.438   1.029   7.727
 3463SOL     OW11131   2.452   0.725   7.708
 3463SOL    HW111132   2.458   0.806   7.658
 3463SOL    HW211133   2.392   0.744   7.779
 3464SOL     OW11134   3.437   1.671   7.757
 3464SOL    HW111135   3.527   1.700   7.765
 3464SOL    HW211136   3.424   1.657   7.663
 3465SOL     OW11137   1.923   0.863   0.090
 3465SOL    HW111138   1.987   0.797   0.118
 3465SOL    HW211139   1.917   0.923   0.164
 3466SOL     OW11140   2.730   0.356   7.631
 3466SOL    HW111141   2.777   0.420   7.577
 3466SOL    HW211142   2.790   0.282   7.639
 3467SOL     OW11143   2.185   0.956   7.697
 3467SOL    HW111144   2.266   0.974   7.648
 3467SOL    HW211145   2.149   0.877   7.657
 3468SOL     OW11146   2.985   1.775   7.682
 3468SOL    HW111147   2.909   1.735   7.723
 3468SOL    HW211148   3.009   1.716   7.611
 3469SOL     OW11149   3.491   1.380   7.533
 3469SOL    HW111150   3.449   1.465   7.520
 3469SOL    HW211151   3.422   1.316   7.516
 3470SOL     OW11152   2.329   1.737   7.769
 3470SOL    HW111153   2.379   1.788   7.833
 3470SOL    HW211154   2.395   1.703   7.710
 3471SOL     OW11155   3.271   0.106   7.882
 3471SOL    HW111156   3.265   0.083   7.789
 3471SOL    HW211157   3.365   0.112   7.899
 3472SOL     OW11158   2.252   0.696   7.918
 3472SOL    HW111159   2.260   0.601   7.926
 3472SOL    HW211160   2.161   0.715   7.942
 3473SOL     OW11161   2.481   0.131   7.559
 3473SOL    HW111162   2.553   0.072   7.578
 3473SOL    HW211163   2.434   0.090   7.487
 3474SOL     OW11164   2.409   0.064   7.952
 3474SOL    HW111165   2.317   0.048   7.974
 3474SOL    HW211166   2.406   0.137   7.890
 3475SOL     OW11167   3.290   1.198   7.489
 3475SOL    HW111168   3.321   1.123   7.542
 3475SOL    HW211169   3.206   1.221   7.527
 3476SOL     OW11170   2.166   0.072   7.659
 3476SOL    HW111171   2.217   0.129   7.602
 3476SOL    HW211172   2.215   5.289   7.660
 3477SOL     OW11173   2.812   0.228   7.907
 3477SOL    HW111174   2.761   0.299   7.867
 3477SOL    HW211175   2.900   0.264   7.917
 3478SOL     OW11176   2.304   1.152   0.099
 3478SOL    HW111177   2.227   1.183   0.147
 3478SOL    HW211178   2.273   1.137   0.010
 3479SOL     OW11179   3.152   1.811   8.014
 3479SOL    HW111180   3.188   1.880   7.958
 3479SOL    HW211181   3.069   1.846   8.046
 3480SOL     OW11182   2.889   0.547   7.466
 3480SOL    HW111183   2.845   0.630   7.451
 3480SOL    HW211184   2.949   0.564   7.540
 3481SOL     OW11185   3.734   0.817   7.802
 3481SOL    HW111186   3.729   0.788   7.893
 3481SOL    HW211187   3.693   0.746   7.752
 3482SOL     OW11188   2.350   1.416   7.606
 3482SOL    HW111189   2.276   1.386   7.658
 3482SOL    HW211190   2.335   1.379   7.519
 3483SOL     OW11191   3.255   0.572   7.519
 3483SOL    HW111192   3.194   0.552   7.590
 3483SOL    HW211193   3.339   0.539   7.551
 3484SOL     OW11194   2.387   0.271   7.773
 3484SOL    HW111195   2.427   0.217   7.705
 3484SOL    HW211196   2.366   0.353   7.730
 3485SOL     OW11197   2.573   1.062   7.811
 3485SOL    HW111198   2.549   1.048   7.903
 3485SOL    HW211199   2.652   1.009   7.799
 3486SOL     OW11200   2.227   1.101   7.928
 3486SOL    HW111201   2.209   1.180   7.877
 3486SOL    HW211202   2.214   1.029   7.866
 3487SOL     OW11203   3.087   1.356   7.821
 3487SOL    HW111204   3.149   1.424   7.847
 3487SOL    HW211205   3.045   1.330   7.903
 3488SOL     OW11206   3.451   0.627   7.922
 3488SOL    HW111207   3.434   0.685   7.996
 3488SOL    HW211208   3.489   0.684   7.855
 3489SOL     OW11209   3.066   0.526   7.716
 3489SOL    HW111210   3.067   0.439   7.756
 3489SOL    HW211211   3.043   0.585   7.787
 3490SOL     OW11212   3.478   0.376   7.815
 3490SOL    HW111213   3.499   0.308   7.879
 3490SOL    HW211214   3.454   0.452   7.867
 3491SOL     OW11215   3.391   0.273   7.575
 3491SOL    HW111216   3.328   0.207   7.605
 3491SOL    HW211217   3.426   0.310   7.656
 3492SOL     OW11218   3.156   0.828   7.482
 3492SOL    HW111219   3.197   0.741   7.483
 3492SOL    HW211220   3.187   0.867   7.400
 3493SOL     OW11221   1.868   1.324   7.640
 3493SOL    HW111222   1.780   1.337   7.603
 3493SOL    HW211223   1.867   1.235   7.674
 3494SOL     OW11224   2.698   0.599   7.766
 3494SOL    HW111225   2.688   0.509   7.734
 3494SOL    HW211226   2.609   0.635   7.764
 3495SOL     OW11227   2.323   0.494   7.638
 3495SOL    HW111228   2.383   0.567   7.654
 3495SOL    HW211229   2.238   0.536   7.622
 3496SOL     OW11230   3.173   0.851   7.755
 3496SOL    HW111231   3.086   0.853   7.795
 3496SOL    HW211232   3.156   0.841   7.661
 3497SOL     OW11233   3.571   0.130   7.945
 3497SOL    HW111234   3.646   0.131   7.886
 3497SOL    HW211235   3.602   0.083   8.023
 3498SOL     OW11236   3.227   1.576   7.897
 3498SOL    HW111237   3.301   1.597   7.841
 3498SOL    HW211238   3.195   1.661   7.927
 3499SOL     OW11239   2.529   1.619   7.605
 3499SOL    HW111240   2.541   1.631   7.510
 3499SOL    HW211241   2.477   1.539   7.612
 3500SOL     OW11242   3.071   1.608   7.478
 3500SOL    HW111243   3.060   1.516   7.506
 3500SOL    HW211244   3.004   1.620   7.410
 3501SOL     OW11245   2.789   0.910   7.756
 3501SOL    HW111246   2.842   0.935   7.680
 3501SOL    HW211247   2.785   0.815   7.753
 3502SOL     OW11248   3.356   1.625   7.489
 3502SOL    HW111249   3.261   1.619   7.477
 3502SOL    HW211250   3.391   1.631   7.399
 3503SOL     OW11251   2.468   1.508   7.936
 3503SOL    HW111252   2.513   1.445   7.878
 3503SOL    HW211253   2.395   1.540   7.884
 3504SOL     OW11254   2.120   1.347   7.740
 3504SOL    HW111255   2.027   1.345   7.715
 3504SOL    HW211256   2.119   1.382   7.829
 3505SOL     OW11257   1.937   0.339   7.489
 3505SOL    HW111258   1.854   0.308   7.452
 3505SOL    HW211259   1.961   0.413   7.435
 3506SOL     OW11260   1.925   0.182   7.746
 3506SOL    HW111261   1.923   0.258   7.688
 3506SOL    HW211262   2.006   0.136   7.722
 3507SOL     OW11263   3.039   1.339   7.556
 3507SOL    HW111264   2.947   1.313   7.557
 3507SOL    HW211265   3.064   1.345   7.649
 3508SOL     OW11266   3.084   0.319   7.917
 3508SOL    HW111267   3.150   0.250   7.909
 3508SOL    HW211268   3.109   0.367   7.996
 3509SOL     OW11269   2.485   0.735   8.058
 3509SOL    HW111270   2.491   0.818   0.024
 3509SOL    HW211271   2.398   0.736   8.017
 3510SOL     OW11272   2.724   1.367   7.481
 3510SOL    HW111273   2.686   1.396   7.565
 3510SOL    HW211274   2.744   1.449   7.435
 3511SOL     OW11275   2.935   0.979   7.537
 3511SOL    HW111276   2.916   1.036   7.462
 3511SOL    HW211277   3.014   0.931   7.512
 3512SOL     OW11278   2.250   0.420   7.984
 3512SOL    HW111279   2.303   0.369   7.923
 3512SOL    HW211280   2.299   0.417   8.066
 3513SOL     OW11281   2.628   1.335   7.761
 3513SOL    HW111282   2.596   1.245   7.762
 3513SOL    HW211283   2.710   1.332   7.809
 3514SOL     OW11284   3.227   0.037   7.610
 3514SOL    HW111285   3.239   5.291   7.528
 3514SOL    HW211286   3.143   0.007   7.644
 3515SOL     OW11287   1.913   1.079   7.750
 3515SOL    HW111288   2.007   1.068   7.736
 3515SOL    HW211289   1.881   0.990   7.766
 3516SOL     OW11290   2.754   1.651   7.781
 3516SOL    HW111291   2.678   1.627   7.729
 3516SOL    HW211292   2.721   1.714   7.845
 3517SOL     OW11293   2.091   2.498   0.119
 3517SOL    HW111294   2.016   2.448   0.153
 3517SOL    HW211295   2.114   2.454   0.037
 3518SOL     OW11296   2.087   2.124   0.989
 3518SOL    HW111297   2.114   2.094   1.076
 3518SOL    HW211298   1.995   2.098   0.983
 3519SOL     OW11299   1.865   2.239   0.643
 3519SOL    HW111300   1.782   2.266   0.682
 3519SOL    HW211301   1.843   2.162   0.590
 3520SOL     OW11302   2.418   3.156   1.194
 3520SOL    HW111303   2.334   3.162   1.148
 3520SOL    HW211304   2.436   3.246   1.221
 3521SOL     OW11305   3.421   3.373   0.707
 3521SOL    HW111306   3.379   3.354   0.790
 3521SOL    HW211307   3.349   3.378   0.644
 3522SOL     OW11308   3.630   2.463   0.233
 3522SOL    HW111309   3.594   2.464   0.144
 3522SOL    HW211310   3.591   2.386   0.274
 3523SOL     OW11311   2.578   3.035   1.016
 3523SOL    HW111312   2.518   3.062   1.085
 3523SOL    HW211313   2.622   3.116   0.989
 3524SOL     OW11314   2.550   3.030   1.835
 3524SOL    HW111315   2.618   3.096   1.822
 3524SOL    HW211316   2.474   3.065   1.787
 3525SOL     OW11317   2.191   3.291   1.068
 3525SOL    HW111318   2.120   3.251   1.017
 3525SOL    HW211319   2.243   3.339   1.003
 3526SOL     OW11320   3.325   3.359   1.356
 3526SOL    HW111321   3.372   3.442   1.363
 3526SOL    HW211322   3.262   3.362   1.428
 3527SOL     OW11323   2.294   2.236   1.485
 3527SOL    HW111324   2.368   2.175   1.490
 3527SOL    HW211325   2.217   2.181   1.500
 3528SOL     OW11326   3.476   2.310   0.740
 3528SOL    HW111327   3.400   2.334   0.687
 3528SOL    HW211328   3.491   2.386   0.796
 3529SOL     OW11329   2.081   3.577   0.472
 3529SOL    HW111330   2.104   3.653   0.526
 3529SOL    HW211331   2.155   3.568   0.412
 3530SOL     OW11332   2.995   3.200   1.690
 3530SOL    HW111333   3.028   3.187   1.779
 3530SOL    HW211334   2.951   3.117   1.669
 3531SOL     OW11335   2.088   3.306   0.536
 3531SOL    HW111336   2.072   3.400   0.539
 3531SOL    HW211337   2.028   3.270   0.602
 3532SOL     OW11338   2.113   2.952   0.887
 3532SOL    HW111339   2.114   2.869   0.933
 3532SOL    HW211340   2.060   3.010   0.942
 3533SOL     OW11341   2.474   3.654   1.430
 3533SOL    HW111342   2.392   3.636   1.476
 3533SOL    HW211343   2.497   3.743   1.455
 3534SOL     OW11344   2.442   2.821   0.140
 3534SOL    HW111345   2.420   2.908   0.107
 3534SOL    HW211346   2.513   2.836   0.202
 3535SOL     OW11347   3.458   1.985   1.468
 3535SOL    HW111348   3.462   2.065   1.416
 3535SOL    HW211349   3.445   2.015   1.558
 3536SOL     OW11350   1.945   2.504   0.571
 3536SOL    HW111351   1.921   2.414   0.595
 3536SOL    HW211352   1.943   2.552   0.654
 3537SOL     OW11353   3.707   3.620   0.333
 3537SOL    HW111354   3.771   3.591   0.397
 3537SOL    HW211355   3.732   3.711   0.315
 3538SOL     OW11356   1.891   3.459   0.111
 3538SOL    HW111357   1.878   3.370   0.144
 3538SOL    HW211358   1.874   3.515   0.186
 3539SOL     OW11359   3.547   2.778   0.641
 3539SOL    HW111360   3.632   2.738   0.623
 3539SOL    HW211361   3.528   2.831   0.564
 3540SOL     OW11362   3.509   2.968   0.434
 3540SOL    HW111363   3.590   2.982   0.384
 3540SOL    HW211364   3.516   3.030   0.507
 3541SOL     OW11365   1.959   2.601   1.590
 3541SOL    HW111366   2.052   2.622   1.594
 3541SOL    HW211367   1.915   2.686   1.595
 3542SOL     OW11368   2.479   3.247   0.734
 3542SOL    HW111369   2.436   3.163   0.747
 3542SOL    HW211370   2.457   3.272   0.644
 3543SOL     OW11371   3.148   3.095   1.428
 3543SOL    HW111372   3.181   3.032   1.365
 3543SOL    HW211373   3.210   3.091   1.501
 3544SOL     OW11374   2.677   1.862   0.510
 3544SOL    HW111375   2.716   1.946   0.487
 3544SOL    HW211376   2.583   1.882   0.519
 3545SOL     OW11377   2.034   2.840   1.266
 3545SOL    HW111378   2.119   2.795   1.259
 3545SOL    HW211379   1.973   2.782   1.222
 3546SOL     OW11380   3.372   2.872   0.212
 3546SOL    HW111381   3.323   2.795   0.241
 3546SOL    HW211382   3.427   2.895   0.286
 3547SOL     OW11383   3.048   3.667   1.622
 3547SOL    HW111384   3.059   3.726   1.547
 3547SOL    HW211385   3.062   3.580   1.586
 3548SOL     OW11386   2.193   2.111   1.813
 3548SOL    HW111387   2.228   2.200   1.810
 3548SOL    HW211388   2.103   2.121   1.843
 3549SOL     OW11389   3.329   3.281   0.952
 3549SOL    HW111390   3.261   3.298   1.017
 3549SOL    HW211391   3.315   3.189   0.927
 3550SOL     OW11392   3.522   3.601   0.581
 3550SOL    HW111393   3.501   3.573   0.492
 3550SOL    HW211394   3.496   3.526   0.636
 3551SOL     OW11395   3.144   2.209   0.930
 3551SOL    HW111396   3.053   2.181   0.941
 3551SOL    HW211397   3.193   2.159   0.995
 3552SOL     OW11398   3.449   3.532   0.319
 3552SOL    HW111399   3.539   3.562   0.312
 3552SOL    HW211400   3.422   3.516   0.228
 3553SOL     OW11401   3.254   2.336   1.677
 3553SOL    HW111402   3.258   2.379   1.763
 3553SOL    HW211403   3.318   2.265   1.683
 3554SOL     OW11404   2.857   2.266   1.240
 3554SOL    HW111405   2.785   2.310   1.285
 3554SOL    HW211406   2.824   2.251   1.151
 3555SOL     OW11407   1.947   2.681   0.779
 3555SOL    HW111408   2.031   2.680   0.827
 3555SOL    HW211409   1.903   2.760   0.810
 3556SOL     OW11410   1.989   3.708   1.577
 3556SOL    HW111411   1.989   3.687   1.671
 3556SOL    HW211412   1.897   3.702   1.551
 3557SOL     OW11413   2.742   2.211   0.208
 3557SOL    HW111414   2.788   2.264   0.143
 3557SOL    HW211415   2.747   2.122   0.175
 3558SOL     OW11416   3.571   2.437   1.828
 3558SOL    HW111417   3.533   2.512   1.780
 3558SOL    HW211418   3.598   2.376   1.759
 3559SOL     OW11419   3.241   3.003   0.529
 3559SOL    HW111420   3.323   2.997   0.480
 3559SOL    HW211421   3.192   3.072   0.485
 3560SOL     OW11422   2.407   2.034   0.886
 3560SOL    HW111423   2.410   2.058   0.979
 3560SOL    HW211424   2.426   2.115   0.840
 3561SOL     OW11425   2.860   3.301   0.472
 3561SOL    HW111426   2.827   3.377   0.424
 3561SOL    HW211427   2.851   3.326   0.564
 3562SOL     OW11428   2.217   3.670   0.861
 3562SOL    HW111429   2.260   3.585   0.869
 3562SOL    HW211430   2.285   3.734   0.879
 3563SOL     OW11431   3.660   2.918   0.868
 3563SOL    HW111432   3.604   2.903   0.792
 3563SOL    HW211433   3.600   2.924   0.942
 3564SOL     OW11434   3.089   3.400   1.512
 3564SOL    HW111435   3.076   3.328   1.573
 3564SOL    HW211436   3.028   3.383   1.441
 3565SOL     OW11437   2.186   2.810   0.243
 3565SOL    HW111438   2.273   2.817   0.202
 3565SOL    HW211439   2.169   2.716   0.247
 3566SOL     OW11440   3.342   2.596   0.728
 3566SOL    HW111441   3.334   2.556   0.815
 3566SOL    HW211442   3.416   2.656   0.736
 3567SOL     OW11443   2.321   3.134   1.735
 3567SOL    HW111444   2.294   3.137   1.644
 3567SOL    HW211445   2.239   3.128   1.785
 3568SOL     OW11446   2.970   3.643   0.224
 3568SOL    HW111447   2.914   3.602   0.290
 3568SOL    HW211448   2.990   3.572   0.163
 3569SOL     OW11449   2.048   2.137   1.503
 3569SOL    HW111450   1.966   2.187   1.500
 3569SOL    HW211451   2.030   2.066   1.565
 3570SOL     OW11452   3.496   3.236   0.084
 3570SOL    HW111453   3.455   3.322   0.082
 3570SOL    HW211454   3.424   3.175   0.064
 3571SOL     OW11455   2.327   3.600   0.324
 3571SOL    HW111456   2.368   3.660   0.387
 3571SOL    HW211457   2.397   3.576   0.264
 3572SOL     OW11458   3.269   1.973   0.442
 3572SOL    HW111459   3.260   1.951   0.350
 3572SOL    HW211460   3.363   1.979   0.457
 3573SOL     OW11461   2.117   3.654   1.232
 3573SOL    HW111462   2.169   3.588   1.279
 3573SOL    HW211463   2.108   3.618   1.143
 3574SOL     OW11464   2.799   3.563   0.899
 3574SOL    HW111465   2.873   3.508   0.926
 3574SOL    HW211466   2.755   3.512   0.831
 3575SOL     OW11467   2.185   2.592   0.498
 3575SOL    HW111468   2.234   2.509   0.498
 3575SOL    HW211469   2.095   2.566   0.521
 3576SOL     OW11470   3.398   2.087   1.725
 3576SOL    HW111471   3.407   2.109   1.818
 3576SOL    HW211472   3.329   2.022   1.722
 3577SOL     OW11473   2.493   1.981   0.133
 3577SOL    HW111474   2.587   1.964   0.140
 3577SOL    HW211475   2.470   1.953   0.044
 3578SOL     OW11476   2.626   2.129   1.750
 3578SOL    HW111477   2.703   2.072   1.751
 3578SOL    HW211478   2.585   2.117   1.835
 3579SOL     OW11479   2.739   3.388   1.195
 3579SOL    HW111480   2.723   3.352   1.108
 3579SOL    HW211481   2.806   3.330   1.232
 3580SOL     OW11482   3.215   2.450   1.425
 3580SOL    HW111483   3.234   2.421   1.514
 3580SOL    HW211484   3.240   2.542   1.424
 3581SOL     OW11485   2.673   3.277   0.938
 3581SOL    HW111486   2.760   3.263   0.900
 3581SOL    HW211487   2.613   3.268   0.864
 3582SOL     OW11488   2.798   2.340   0.911
 3582SOL    HW111489   2.786   2.342   0.816
 3582SOL    HW211490   2.832   2.253   0.929
 3583SOL     OW11491   2.412   1.926   0.506
 3583SOL    HW111492   2.331   1.924   0.558
 3583SOL    HW211493   2.401   2.003   0.450
 3584SOL     OW11494   3.297   3.062   0.034
 3584SOL    HW111495   3.320   2.989   0.091
 3584SOL    HW211496   3.208   3.085   0.060
 3585SOL     OW11497   2.172   1.915   0.166
 3585SOL    HW111498   2.235   1.985   0.187
 3585SOL    HW211499   2.208   1.837   0.210
 3586SOL     OW11500   2.800   2.103   0.453
 3586SOL    HW111501   2.775   2.146   0.371
 3586SOL    HW211502   2.894   2.117   0.460
 3587SOL     OW11503   3.093   3.435   0.793
 3587SOL    HW111504   3.106   3.504   0.729
 3587SOL    HW211505   3.159   3.452   0.861
 3588SOL     OW11506   2.329   3.017   0.733
 3588SOL    HW111507   2.259   2.995   0.794
 3588SOL    HW211508   2.294   2.994   0.647
 3589SOL     OW11509   3.131   3.656   0.606
 3589SOL    HW111510   3.180   3.719   0.554
 3589SOL    HW211511   3.065   3.709   0.651
 3590SOL     OW11512   2.919   2.379   0.021
 3590SOL    HW111513   2.857   2.448   8.078
 3590SOL    HW211514   2.966   2.414   0.097
 3591SOL     OW11515   1.932   2.417   1.393
 3591SOL    HW111516   2.024   2.417   1.367
 3591SOL    HW211517   1.926   2.486   1.459
 3592SOL     OW11518   2.415   2.077   1.151
 3592SOL    HW111519   2.469   2.022   1.208
 3592SOL    HW211520   2.330   2.080   1.194
 3593SOL     OW11521   2.766   2.290   0.649
 3593SOL    HW111522   2.705   2.355   0.616
 3593SOL    HW211523   2.768   2.222   0.582
 3594SOL     OW11524   2.878   1.911   0.749
 3594SOL    HW111525   2.817   1.904   0.675
 3594SOL    HW211526   2.855   1.837   0.805
 3595SOL     OW11527   3.300   3.023   0.858
 3595SOL    HW111528   3.224   2.966   0.853
 3595SOL    HW211529   3.325   3.037   0.767
 3596SOL     OW11530   3.328   2.465   0.978
 3596SOL    HW111531   3.277   2.385   0.984
 3596SOL    HW211532   3.388   2.461   1.052
 3597SOL     OW11533   3.709   2.678   0.388
 3597SOL    HW111534   3.762   2.625   0.448
 3597SOL    HW211535   3.679   2.616   0.322
 3598SOL     OW11536   2.344   3.304   0.180
 3598SOL    HW111537   2.271   3.265   0.228
 3598SOL    HW211538   2.351   3.252   0.099
 3599SOL     OW11539   3.532   3.127   0.648
 3599SOL    HW111540   3.627   3.131   0.661
 3599SOL    HW211541   3.501   3.215   0.669
 3600SOL     OW11542   3.262   2.439   0.086
 3600SOL    HW111543   3.198   2.416   0.154
 3600SOL    HW211544   3.318   2.362   0.080
 3601SOL     OW11545   2.376   2.123   0.321
 3601SOL    HW111546   2.423   2.069   0.257
 3601SOL    HW211547   2.405   2.212   0.303
 3602SOL     OW11548   3.615   3.101   1.574
 3602SOL    HW111549   3.702   3.062   1.570
 3602SOL    HW211550   3.630   3.191   1.602
 3603SOL     OW11551   2.923   3.226   1.343
 3603SOL    HW111552   2.845   3.190   1.385
 3603SOL    HW211553   2.995   3.176   1.380
 3604SOL     OW11554   3.469   3.487   1.653
 3604SOL    HW111555   3.464   3.521   1.564
 3604SOL    HW211556   3.553   3.440   1.656
 3605SOL     OW11557   3.013   3.097   1.106
 3605SOL    HW111558   2.944   3.091   1.171
 3605SOL    HW211559   2.967   3.099   1.022
 3606SOL     OW11560   3.491   2.960   1.077
 3606SOL    HW111561   3.486   3.022   1.150
 3606SOL    HW211562   3.412   2.978   1.026
 3607SOL     OW11563   2.780   1.958   1.398
 3607SOL    HW111564   2.801   1.942   1.306
 3607SOL    HW211565   2.858   2.000   1.433
 3608SOL     OW11566   2.254   2.682   1.271
 3608SOL    HW111567   2.350   2.686   1.272
 3608SOL    HW211568   2.234   2.589   1.283
 3609SOL     OW11569   3.129   2.239   1.274
 3609SOL    HW111570   3.160   2.318   1.320
 3609SOL    HW211571   3.038   2.259   1.252
 3610SOL     OW11572   1.932   3.435   1.352
 3610SOL    HW111573   1.902   3.508   1.298
 3610SOL    HW211574   2.027   3.439   1.347
 3611SOL     OW11575   2.218   2.971   0.485
 3611SOL    HW111576   2.205   3.041   0.422
 3611SOL    HW211577   2.213   2.891   0.433
 3612SOL     OW11578   3.106   3.209   0.395
 3612SOL    HW111579   3.163   3.281   0.421
 3612SOL    HW211580   3.019   3.233   0.427
 3613SOL     OW11581   3.145   3.328   1.146
 3613SOL    HW111582   3.195   3.322   1.227
 3613SOL    HW211583   3.090   3.249   1.146
 3614SOL     OW11584   3.442   2.485   0.479
 3614SOL    HW111585   3.400   2.538   0.547
 3614SOL    HW211586   3.482   2.549   0.420
 3615SOL     OW11587   2.208   3.390   1.316
 3615SOL    HW111588   2.196   3.348   1.231
 3615SOL    HW211589   2.303   3.402   1.323
 3616SOL     OW11590   2.221   2.625   1.591
 3616SOL    HW111591   2.275   2.691   1.547
 3616SOL    HW211592   2.284   2.563   1.627
 3617SOL     OW11593   3.462   2.641   1.682
 3617SOL    HW111594   3.375   2.681   1.674
 3617SOL    HW211595   3.514   2.683   1.614
 3618SOL     OW11596   2.861   1.985   1.758
 3618SOL    HW111597   2.916   2.056   1.726
 3618SOL    HW211598   2.907   1.905   1.731
 3619SOL     OW11599   2.359   1.902   1.747
 3619SOL    HW111600   2.317   1.848   1.681
 3619SOL    HW211601   2.298   1.975   1.761
 3620SOL     OW11602   3.223   2.720   1.035
 3620SOL    HW111603   3.153   2.716   0.971
 3620SOL    HW211604   3.263   2.633   1.033
 3621SOL     OW11605   3.060   2.390   0.271
 3621SOL    HW111606   3.066   2.306   0.318
 3621SOL    HW211607   3.062   2.456   0.341
 3622SOL     OW11608   2.158   2.062   1.249
 3622SOL    HW111609   2.116   2.092   1.330
 3622SOL    HW211610   2.142   1.968   1.248
 3623SOL     OW11611   1.907   3.174   1.277
 3623SOL    HW111612   1.940   3.120   1.348
 3623SOL    HW211613   1.914   3.263   1.309
 3624SOL     OW11614   3.597   2.821   1.852
 3624SOL    HW111615   3.550   2.760   1.794
 3624SOL    HW211616   3.537   2.836   1.925
 3625SOL     OW11617   2.165   1.930   0.624
 3625SOL    HW111618   2.144   2.019   0.650
 3625SOL    HW211619   2.172   1.881   0.706
 3626SOL     OW11620   3.482   2.236   0.370
 3626SOL    HW111621   3.507   2.171   0.436
 3626SOL    HW211622   3.457   2.313   0.420
 3627SOL     OW11623   2.844   3.427   1.714
 3627SOL    HW111624   2.828   3.473   1.632
 3627SOL    HW211625   2.887   3.346   1.689
 3628SOL     OW11626   3.717   3.369   1.605
 3628SOL    HW111627   3.735   3.395   1.515
 3628SOL    HW211628   3.798   3.388   1.652
 3629SOL     OW11629   2.208   2.799   1.814
 3629SOL    HW111630   2.287   2.806   1.867
 3629SOL    HW211631   2.224   2.722   1.759
 3630SOL     OW11632   3.380   2.162   0.127
 3630SOL    HW111633   3.332   2.081   0.142
 3630SOL    HW211634   3.420   2.182   0.211
 3631SOL     OW11635   3.152   2.683   0.032
 3631SOL    HW111636   3.195   2.598   0.038
 3631SOL    HW211637   3.206   2.733   8.050
 3632SOL     OW11638   2.923   3.229   0.856
 3632SOL    HW111639   2.951   3.150   0.810
 3632SOL    HW211640   2.988   3.295   0.832
 3633SOL     OW11641   2.159   2.687   0.963
 3633SOL    HW111642   2.247   2.698   0.926
 3633SOL    HW211643   2.157   2.596   0.991
 3634SOL     OW11644   2.160   2.372   1.016
 3634SOL    HW111645   2.135   2.281   1.002
 3634SOL    HW211646   2.227   2.389   0.949
 3635SOL     OW11647   3.001   2.232   1.684
 3635SOL    HW111648   2.949   2.302   1.725
 3635SOL    HW211649   3.089   2.269   1.676
 3636SOL     OW11650   3.024   2.064   1.469
 3636SOL    HW111651   3.014   2.126   1.541
 3636SOL    HW211652   3.059   2.115   1.396
 3637SOL     OW11653   1.873   3.188   0.191
 3637SOL    HW111654   1.786   3.201   0.153
 3637SOL    HW211655   1.872   3.097   0.222
 3638SOL     OW11656   1.952   3.650   0.937
 3638SOL    HW111657   1.922   3.570   0.894
 3638SOL    HW211658   2.042   3.662   0.907
 3639SOL     OW11659   2.359   3.435   0.904
 3639SOL    HW111660   2.428   3.497   0.930
 3639SOL    HW211661   2.404   3.370   0.851
 3640SOL     OW11662   1.896   2.404   1.116
 3640SOL    HW111663   1.979   2.395   1.069
 3640SOL    HW211664   1.921   2.411   1.209
 3641SOL     OW11665   2.057   2.379   1.723
 3641SOL    HW111666   2.100   2.340   1.648
 3641SOL    HW211667   2.007   2.452   1.687
 3642SOL     OW11668   3.233   2.801   1.658
 3642SOL    HW111669   3.257   2.894   1.659
 3642SOL    HW211670   3.238   2.776   1.565
 3643SOL     OW11671   3.504   2.465   1.186
 3643SOL    HW111672   3.491   2.407   1.260
 3643SOL    HW211673   3.591   2.443   1.153
 3644SOL     OW11674   2.107   3.414   1.728
 3644SOL    HW111675   2.082   3.478   1.795
 3644SOL    HW211676   2.106   3.330   1.774
 3645SOL     OW11677   2.788   3.543   1.469
 3645SOL    HW111678   2.767   3.505   1.383
 3645SOL    HW211679   2.785   3.637   1.455
 3646SOL     OW11680   2.007   3.005   1.474
 3646SOL    HW111681   2.008   2.951   1.553
 3646SOL    HW211682   2.018   2.943   1.402
 3647SOL     OW11683   3.185   2.910   1.225
 3647SOL    HW111684   3.209   2.847   1.156
 3647SOL    HW211685   3.124   2.969   1.182
 3648SOL     OW11686   3.188   2.692   0.306
 3648SOL    HW111687   3.105   2.709   0.352
 3648SOL    HW211688   3.164   2.691   0.214
 3649SOL     OW11689   3.632   3.607   1.149
 3649SOL    HW111690   3.693   3.633   1.080
 3649SOL    HW211691   3.609   3.516   1.128
 3650SOL     OW11692   3.103   3.597   1.113
 3650SOL    HW111693   3.185   3.616   1.068
 3650SOL    HW211694   3.108   3.503   1.133
 3651SOL     OW11695   1.945   3.130   1.012
 3651SOL    HW111696   1.932   3.141   1.106
 3651SOL    HW211697   1.873   3.073   0.984
 3652SOL     OW11698   2.539   3.527   1.727
 3652SOL    HW111699   2.486   3.606   1.723
 3652SOL    HW211700   2.605   3.538   1.658
 3653SOL     OW11701   2.767   1.953   0.134
 3653SOL    HW111702   2.786   1.937   0.041
 3653SOL    HW211703   2.831   1.899   0.180
 3654SOL     OW11704   3.580   2.006   0.510
 3654SOL    HW111705   3.653   1.991   0.450
 3654SOL    HW211706   3.565   1.921   0.552
 3655SOL     OW11707   3.250   3.430   0.483
 3655SOL    HW111708   3.315   3.462   0.420
 3655SOL    HW211709   3.204   3.508   0.514
 3656SOL     OW11710   1.998   3.659   1.843
 3656SOL    HW111711   1.947   3.593   1.892
 3656SOL    HW211712   2.046   3.707   1.911
 3657SOL     OW11713   3.158   2.791   0.665
 3657SOL    HW111714   3.221   2.719   0.672
 3657SOL    HW211715   3.201   2.856   0.610
 3658SOL     OW11716   2.679   3.150   1.427
 3658SOL    HW111717   2.643   3.187   1.508
 3658SOL    HW211718   2.604   3.143   1.369
 3659SOL     OW11719   2.540   3.482   0.154
 3659SOL    HW111720   2.545   3.489   0.059
 3659SOL    HW211721   2.476   3.413   0.170
 3660SOL     OW11722   3.489   3.589   1.391
 3660SOL    HW111723   3.539   3.596   1.310
 3660SOL    HW211724   3.476   3.679   1.419
 3661SOL     OW11725   3.702   2.035   0.966
 3661SOL    HW111726   3.731   1.948   0.939
 3661SOL    HW211727   3.616   2.045   0.927
 3662SOL     OW11728   2.123   2.182   0.723
 3662SOL    HW111729   2.036   2.213   0.698
 3662SOL    HW211730   2.116   2.161   0.816
 3663SOL     OW11731   3.018   3.443   0.051
 3663SOL    HW111732   3.036   3.351   0.068
 3663SOL    HW211733   3.028   3.453   8.036
 3664SOL     OW11734   3.372   3.486   0.060
 3664SOL    HW111735   3.277   3.488   0.049
 3664SOL    HW211736   3.407   3.487   8.051
 3665SOL     OW11737   2.230   3.165   1.489
 3665SOL    HW111738   2.217   3.241   1.433
 3665SOL    HW211739   2.152   3.111   1.474
 3666SOL     OW11740   3.473   3.144   1.281
 3666SOL    HW111741   3.533   3.135   1.354
 3666SOL    HW211742   3.413   3.214   1.307
 3667SOL     OW11743   2.982   3.001   0.734
 3667SOL    HW111744   2.897   2.987   0.691
 3667SOL    HW211745   3.041   2.939   0.691
 3668SOL     OW11746   2.891   2.092   0.962
 3668SOL    HW111747   2.885   2.040   0.882
 3668SOL    HW211748   2.880   2.029   1.033
 3669SOL     OW11749   2.463   3.351   0.478
 3669SOL    HW111750   2.501   3.310   0.400
 3669SOL    HW211751   2.391   3.404   0.444
 3670SOL     OW11752   3.584   2.254   1.381
 3670SOL    HW111753   3.655   2.317   1.379
 3670SOL    HW211754   3.614   2.182   1.324
 3671SOL     OW11755   2.127   3.184   0.303
 3671SOL    HW111756   2.043   3.196   0.259
 3671SOL    HW211757   2.118   3.231   0.386
 3672SOL     OW11758   1.970   2.884   1.718
 3672SOL    HW111759   1.895   2.860   1.772
 3672SOL    HW211760   2.046   2.852   1.766
 3673SOL     OW11761   2.533   2.057   1.497
 3673SOL    HW111762   2.617   2.041   1.453
 3673SOL    HW211763   2.557   2.087   1.584
 3674SOL     OW11764   1.921   2.216   0.044
 3674SOL    HW111765   1.846   2.168   0.010
 3674SOL    HW211766   1.969   2.245   8.047
 3675SOL     OW11767   3.291   2.725   1.402
 3675SOL    HW111768   3.245   2.785   1.345
 3675SOL    HW211769   3.381   2.723   1.368
 3676SOL     OW11770   1.934   2.017   0.306
 3676SOL    HW111771   1.915   2.099   0.261
 3676SOL    HW211772   2.016   1.987   0.268
 3677SOL     OW11773   3.048   3.179   0.121
 3677SOL    HW111774   2.953   3.171   0.115
 3677SOL    HW211775   3.067   3.186   0.215
 3678SOL     OW11776   3.346   3.637   0.976
 3678SOL    HW111777   3.371   3.698   0.907
 3678SOL    HW211778   3.428   3.620   1.023
 3679SOL     OW11779   3.334   3.061   1.632
 3679SOL    HW111780   3.322   3.076   1.726
 3679SOL    HW211781   3.427   3.077   1.617
 3680SOL     OW11782   2.242   3.601   1.564
 3680SOL    HW111783   2.157   3.642   1.550
 3680SOL    HW211784   2.222   3.518   1.606
 3681SOL     OW11785   3.531   2.743   1.256
 3681SOL    HW111786   3.525   2.658   1.213
 3681SOL    HW211787   3.522   2.806   1.184
 3682SOL     OW11788   3.081   2.180   0.457
 3682SOL    HW111789   3.145   2.109   0.449
 3682SOL    HW211790   3.107   2.227   0.536
 3683SOL     OW11791   3.625   2.223   1.650
 3683SOL    HW111792   3.608   2.238   1.557
 3683SOL    HW211793   3.553   2.167   1.679
 3684SOL     OW11794   3.606   2.795   1.513
 3684SOL    HW111795   3.605   2.890   1.525
 3684SOL    HW211796   3.591   2.784   1.419
 3685SOL     OW11797   2.755   3.238   0.034
 3685SOL    HW111798   2.693   3.233   0.107
 3685SOL    HW211799   2.741   3.325   8.076
 3686SOL     OW11800   2.521   3.655   0.945
 3686SOL    HW111801   2.503   3.745   0.921
 3686SOL    HW211802   2.617   3.647   0.939
 3687SOL     OW11803   3.717   3.416   0.844
 3687SOL    HW111804   3.638   3.406   0.791
 3687SOL    HW211805   3.707   3.351   0.914
 3688SOL     OW11806   2.083   3.166   1.856
 3688SOL    HW111807   2.017   3.103   1.827
 3688SOL    HW211808   2.066   3.177   1.949
 3689SOL     OW11809   1.946   3.095   0.665
 3689SOL    HW111810   1.950   3.046   0.748
 3689SOL    HW211811   2.019   3.062   0.614
 3690SOL     OW11812   2.544   3.262   1.635
 3690SOL    HW111813   2.460   3.223   1.657
 3690SOL    HW211814   2.538   3.352   1.665
 3691SOL     OW11815   3.676   2.047   1.237
 3691SOL    HW111816   3.685   1.953   1.252
 3691SOL    HW211817   3.684   2.057   1.143
 3692SOL     OW11818   2.272   2.282   0.521
 3692SOL    HW111819   2.292   2.207   0.465
 3692SOL    HW211820   2.222   2.244   0.594
 3693SOL     OW11821   3.563   3.351   1.096
 3693SOL    HW111822   3.481   3.328   1.052
 3693SOL    HW211823   3.575   3.283   1.162
 3694SOL     OW11824   2.180   2.409   1.293
 3694SOL    HW111825   2.226   2.344   1.346
 3694SOL    HW211826   2.187   2.376   1.203
 3695SOL     OW11827   2.689   3.441   0.675
 3695SOL    HW111828   2.674   3.493   0.596
 3695SOL    HW211829   2.612   3.384   0.682
 3696SOL     OW11830   3.295   2.088   1.119
 3696SOL    HW111831   3.319   2.008   1.167
 3696SOL    HW211832   3.242   2.138   1.181
 3697SOL     OW11833   2.869   1.878   1.144
 3697SOL    HW111834   2.817   1.809   1.103
 3697SOL    HW211835   2.958   1.843   1.146
 3698SOL     OW11836   2.643   3.192   0.299
 3698SOL    HW111837   2.595   3.117   0.334
 3698SOL    HW211838   2.714   3.207   0.360
 3699SOL     OW11839   2.481   3.421   1.284
 3699SOL    HW111840   2.485   3.503   1.334
 3699SOL    HW211841   2.569   3.411   1.248
 3700SOL     OW11842   3.218   1.916   0.184
 3700SOL    HW111843   3.240   1.869   0.104
 3700SOL    HW211844   3.132   1.882   0.209
 3701SOL     OW11845   3.162   2.317   0.682
 3701SOL    HW111846   3.111   2.396   0.699
 3701SOL    HW211847   3.161   2.270   0.766
 3702SOL     OW11848   3.448   2.064   0.878
 3702SOL    HW111849   3.387   2.084   0.949
 3702SOL    HW211850   3.448   2.143   0.823
 3703SOL     OW11851   1.905   2.931   0.302
 3703SOL    HW111852   2.000   2.927   0.299
 3703SOL    HW211853   1.879   2.848   0.342
 3704SOL     OW11854   2.744   3.514   0.348
 3704SOL    HW111855   2.677   3.500   0.281
 3704SOL    HW211856   2.713   3.590   0.396
 3705SOL     OW11857   2.088   2.506   1.976
 3705SOL    HW111858   2.006   2.485   2.021
 3705SOL    HW211859   2.081   2.463   1.891
 3706SOL     OW11860   2.087   2.129   2.871
 3706SOL    HW111861   2.126   2.054   2.915
 3706SOL    HW211862   1.996   2.103   2.855
 3707SOL     OW11863   1.868   2.237   2.507
 3707SOL    HW111864   1.785   2.268   2.543
 3707SOL    HW211865   1.844   2.162   2.452
 3708SOL     OW11866   2.403   3.159   2.973
 3708SOL    HW111867   2.315   3.190   2.955
 3708SOL    HW211868   2.444   3.230   3.022
 3709SOL     OW11869   3.422   3.373   2.567
 3709SOL    HW111870   3.380   3.356   2.651
 3709SOL    HW211871   3.350   3.379   2.504
 3710SOL     OW11872   3.063   2.536   2.617
 3710SOL    HW111873   3.068   2.629   2.594
 3710SOL    HW211874   2.975   2.525   2.653
 3711SOL     OW11875   3.629   2.468   2.090
 3711SOL    HW111876   3.608   2.460   1.997
 3711SOL    HW211877   3.593   2.389   2.130
 3712SOL     OW11878   2.620   3.035   2.916
 3712SOL    HW111879   2.533   3.067   2.941
 3712SOL    HW211880   2.656   3.105   2.862
 3713SOL     OW11881   2.178   3.296   2.926
 3713SOL    HW111882   2.111   3.254   2.873
 3713SOL    HW211883   2.230   3.346   2.863
 3714SOL     OW11884   3.298   3.398   3.221
 3714SOL    HW111885   3.364   3.468   3.218
 3714SOL    HW211886   3.316   3.352   3.303
 3715SOL     OW11887   3.475   2.310   2.602
 3715SOL    HW111888   3.397   2.330   2.550
 3715SOL    HW211889   3.495   2.392   2.647
 3716SOL     OW11890   2.081   3.576   2.335
 3716SOL    HW111891   2.103   3.653   2.388
 3716SOL    HW211892   2.153   3.569   2.273
 3717SOL     OW11893   2.092   3.303   2.397
 3717SOL    HW111894   2.074   3.397   2.401
 3717SOL    HW211895   2.032   3.265   2.461
 3718SOL     OW11896   2.113   2.954   2.745
 3718SOL    HW111897   2.116   2.868   2.787
 3718SOL    HW211898   2.058   3.008   2.802
 3719SOL     OW11899   2.481   3.659   3.315
 3719SOL    HW111900   2.393   3.645   3.350
 3719SOL    HW211901   2.498   3.752   3.331
 3720SOL     OW11902   2.420   2.855   1.985
 3720SOL    HW111903   2.463   2.919   1.928
 3720SOL    HW211904   2.489   2.825   2.044
 3721SOL     OW11905   3.447   1.990   3.323
 3721SOL    HW111906   3.476   2.073   3.286
 3721SOL    HW211907   3.448   2.003   3.417
 3722SOL     OW11908   1.951   2.514   2.420
 3722SOL    HW111909   1.947   2.421   2.445
 3722SOL    HW211910   1.963   2.561   2.503
 3723SOL     OW11911   3.704   3.621   2.198
 3723SOL    HW111912   3.768   3.593   2.263
 3723SOL    HW211913   3.728   3.712   2.178
 3724SOL     OW11914   1.894   3.457   1.986
 3724SOL    HW111915   1.876   3.365   2.006
 3724SOL    HW211916   1.869   3.504   2.066
 3725SOL     OW11917   3.554   2.786   2.503
 3725SOL    HW111918   3.636   2.741   2.483
 3725SOL    HW211919   3.532   2.833   2.423
 3726SOL     OW11920   3.507   2.970   2.292
 3726SOL    HW111921   3.592   2.976   2.248
 3726SOL    HW211922   3.514   3.031   2.366
 3727SOL     OW11923   2.478   3.247   2.597
 3727SOL    HW111924   2.433   3.163   2.608
 3727SOL    HW211925   2.458   3.274   2.508
 3728SOL     OW11926   2.676   1.861   2.369
 3728SOL    HW111927   2.717   1.946   2.351
 3728SOL    HW211928   2.583   1.880   2.380
 3729SOL     OW11929   3.398   2.859   2.058
 3729SOL    HW111930   3.331   2.796   2.085
 3729SOL    HW211931   3.435   2.891   2.141
 3730SOL     OW11932   3.054   3.680   3.491
 3730SOL    HW111933   3.057   3.735   3.412
 3730SOL    HW211934   3.053   3.590   3.457
 3731SOL     OW11935   3.333   3.281   2.814
 3731SOL    HW111936   3.262   3.302   2.874
 3731SOL    HW211937   3.315   3.192   2.786
 3732SOL     OW11938   3.520   3.601   2.440
 3732SOL    HW111939   3.502   3.571   2.351
 3732SOL    HW211940   3.496   3.526   2.495
 3733SOL     OW11941   3.148   2.212   2.801
 3733SOL    HW111942   3.056   2.184   2.799
 3733SOL    HW211943   3.191   2.150   2.861
 3734SOL     OW11944   3.443   3.531   2.171
 3734SOL    HW111945   3.533   3.563   2.165
 3734SOL    HW211946   3.417   3.514   2.081
 3735SOL     OW11947   1.946   2.682   2.640
 3735SOL    HW111948   2.028   2.676   2.689
 3735SOL    HW211949   1.905   2.763   2.671
 3736SOL     OW11950   1.988   3.710   3.441
 3736SOL    HW111951   1.985   3.691   3.535
 3736SOL    HW211952   1.897   3.703   3.413
 3737SOL     OW11953   2.742   2.186   2.065
 3737SOL    HW111954   2.777   2.270   2.035
 3737SOL    HW211955   2.785   2.121   2.009
 3738SOL     OW11956   3.637   2.454   3.684
 3738SOL    HW111957   3.626   2.540   3.643
 3738SOL    HW211958   3.632   2.392   3.610
 3739SOL     OW11959   3.235   3.004   2.396
 3739SOL    HW111960   3.318   2.993   2.350
 3739SOL    HW211961   3.187   3.070   2.346
 3740SOL     OW11962   2.406   2.033   2.746
 3740SOL    HW111963   2.399   2.058   2.838
 3740SOL    HW211964   2.427   2.115   2.700
 3741SOL     OW11965   2.867   3.305   2.338
 3741SOL    HW111966   2.830   3.375   2.285
 3741SOL    HW211967   2.849   3.331   2.428
 3742SOL     OW11968   2.217   3.670   2.723
 3742SOL    HW111969   2.260   3.585   2.732
 3742SOL    HW211970   2.285   3.734   2.741
 3743SOL     OW11971   3.662   2.919   2.730
 3743SOL    HW111972   3.607   2.901   2.654
 3743SOL    HW211973   3.600   2.924   2.803
 3744SOL     OW11974   2.178   2.815   2.117
 3744SOL    HW111975   2.256   2.838   2.066
 3744SOL    HW211976   2.148   2.732   2.079
 3745SOL     OW11977   3.359   2.592   2.581
 3745SOL    HW111978   3.329   2.557   2.665
 3745SOL    HW211979   3.426   2.656   2.605
 3746SOL     OW11980   2.984   3.639   2.093
 3746SOL    HW111981   2.910   3.597   2.139
 3746SOL    HW211982   3.006   3.578   2.023
 3747SOL     OW11983   3.490   3.242   1.950
 3747SOL    HW111984   3.450   3.327   1.934
 3747SOL    HW211985   3.422   3.178   1.930
 3748SOL     OW11986   2.328   3.599   2.184
 3748SOL    HW111987   2.369   3.657   2.247
 3748SOL    HW211988   2.401   3.570   2.127
 3749SOL     OW11989   3.263   1.969   2.294
 3749SOL    HW111990   3.253   1.944   2.202
 3749SOL    HW211991   3.357   1.976   2.307
 3750SOL     OW11992   2.114   3.660   3.090
 3750SOL    HW111993   2.158   3.588   3.135
 3750SOL    HW211994   2.103   3.628   3.000
 3751SOL     OW11995   2.796   3.566   2.758
 3751SOL    HW111996   2.861   3.509   2.799
 3751SOL    HW211997   2.757   3.513   2.689
 3752SOL     OW11998   3.432   2.038   3.596
 3752SOL    HW111999   3.438   2.068   3.686
 3752SOL    HW212000   3.361   1.973   3.597
 3753SOL     OW12001   2.490   1.990   1.967
 3753SOL    HW112002   2.564   1.930   1.982
 3753SOL    HW212003   2.447   1.955   1.890
 3754SOL     OW12004   2.786   3.410   3.024
 3754SOL    HW112005   2.742   3.368   2.949
 3754SOL    HW212006   2.780   3.345   3.094
 3755SOL     OW12007   2.679   3.271   2.794
 3755SOL    HW112008   2.760   3.254   2.746
 3755SOL    HW212009   2.610   3.264   2.727
 3756SOL     OW12010   2.850   2.353   2.753
 3756SOL    HW112011   2.786   2.351   2.681
 3756SOL    HW212012   2.852   2.263   2.785
 3757SOL     OW12013   2.412   1.922   2.368
 3757SOL    HW112014   2.330   1.923   2.418
 3757SOL    HW212015   2.406   1.998   2.310
 3758SOL     OW12016   3.290   3.061   1.902
 3758SOL    HW112017   3.321   2.986   1.952
 3758SOL    HW212018   3.205   3.082   1.940
 3759SOL     OW12019   2.154   1.909   2.047
 3759SOL    HW112020   2.213   1.972   2.005
 3759SOL    HW212021   2.212   1.845   2.088
 3760SOL     OW12022   2.799   2.106   2.322
 3760SOL    HW112023   2.771   2.139   2.236
 3760SOL    HW212024   2.893   2.119   2.323
 3761SOL     OW12025   2.965   2.470   3.276
 3761SOL    HW112026   2.897   2.404   3.285
 3761SOL    HW212027   3.043   2.421   3.248
 3762SOL     OW12028   3.090   3.425   2.654
 3762SOL    HW112029   3.101   3.495   2.589
 3762SOL    HW212030   3.152   3.448   2.724
 3763SOL     OW12031   2.332   3.017   2.596
 3763SOL    HW112032   2.263   2.993   2.657
 3763SOL    HW212033   2.299   2.991   2.510
 3764SOL     OW12034   3.131   3.655   2.470
 3764SOL    HW112035   3.177   3.716   2.412
 3764SOL    HW212036   3.065   3.709   2.514
 3765SOL     OW12037   2.400   2.074   3.013
 3765SOL    HW112038   2.476   2.023   3.041
 3765SOL    HW212039   2.351   2.091   3.093
 3766SOL     OW12040   2.727   2.301   2.501
 3766SOL    HW112041   2.712   2.372   2.439
 3766SOL    HW212042   2.754   2.227   2.447
 3767SOL     OW12043   2.879   1.910   2.610
 3767SOL    HW112044   2.818   1.904   2.537
 3767SOL    HW212045   2.856   1.836   2.667
 3768SOL     OW12046   3.292   3.026   2.719
 3768SOL    HW112047   3.236   2.949   2.712
 3768SOL    HW212048   3.326   3.040   2.630
 3769SOL     OW12049   3.324   2.467   2.840
 3769SOL    HW112050   3.276   2.385   2.837
 3769SOL    HW212051   3.392   2.453   2.906
 3770SOL     OW12052   3.707   2.679   2.245
 3770SOL    HW112053   3.764   2.628   2.302
 3770SOL    HW212054   3.679   2.616   2.177
 3771SOL     OW12055   2.355   3.276   2.021
 3771SOL    HW112056   2.278   3.249   2.072
 3771SOL    HW212057   2.338   3.241   1.933
 3772SOL     OW12058   3.530   3.126   2.511
 3772SOL    HW112059   3.625   3.128   2.522
 3772SOL    HW212060   3.501   3.215   2.529
 3773SOL     OW12061   3.255   2.428   1.932
 3773SOL    HW112062   3.192   2.410   2.002
 3773SOL    HW212063   3.338   2.397   1.966
 3774SOL     OW12064   2.392   2.118   2.185
 3774SOL    HW112065   2.429   2.075   2.108
 3774SOL    HW212066   2.399   2.211   2.166
 3775SOL     OW12067   3.623   3.094   3.429
 3775SOL    HW112068   3.713   3.062   3.423
 3775SOL    HW212069   3.631   3.182   3.466
 3776SOL     OW12070   3.465   3.479   3.510
 3776SOL    HW112071   3.467   3.524   3.425
 3776SOL    HW212072   3.551   3.437   3.516
 3777SOL     OW12073   2.971   3.114   2.961
 3777SOL    HW112074   2.895   3.075   3.005
 3777SOL    HW212075   2.943   3.123   2.870
 3778SOL     OW12076   3.492   2.961   2.941
 3778SOL    HW112077   3.496   3.028   3.009
 3778SOL    HW212078   3.409   2.976   2.897
 3779SOL     OW12079   2.888   2.993   3.600
 3779SOL    HW112080   2.804   3.039   3.598
 3779SOL    HW212081   2.928   3.013   3.515
 3780SOL     OW12082   2.289   2.734   3.133
 3780SOL    HW112083   2.368   2.698   3.174
 3780SOL    HW212084   2.244   2.658   3.098
 3781SOL     OW12085   1.927   3.443   3.213
 3781SOL    HW112086   1.904   3.519   3.158
 3781SOL    HW212087   2.022   3.438   3.207
 3782SOL     OW12088   2.222   2.968   2.347
 3782SOL    HW112089   2.211   3.044   2.290
 3782SOL    HW212090   2.209   2.892   2.290
 3783SOL     OW12091   3.108   3.211   2.251
 3783SOL    HW112092   3.164   3.283   2.280
 3783SOL    HW212093   3.021   3.235   2.285
 3784SOL     OW12094   3.136   3.332   2.994
 3784SOL    HW112095   3.169   3.340   3.083
 3784SOL    HW212096   3.064   3.269   3.001
 3785SOL     OW12097   3.442   2.484   2.336
 3785SOL    HW112098   3.405   2.533   2.409
 3785SOL    HW212099   3.489   2.549   2.284
 3786SOL     OW12100   2.194   3.408   3.173
 3786SOL    HW112101   2.181   3.352   3.096
 3786SOL    HW212102   2.287   3.429   3.171
 3787SOL     OW12103   2.388   2.803   2.886
 3787SOL    HW112104   2.457   2.870   2.890
 3787SOL    HW212105   2.354   2.799   2.975
 3788SOL     OW12106   3.232   2.714   2.901
 3788SOL    HW112107   3.156   2.727   2.844
 3788SOL    HW212108   3.265   2.628   2.877
 3789SOL     OW12109   3.073   2.383   2.136
 3789SOL    HW112110   3.077   2.302   2.187
 3789SOL    HW212111   3.060   2.452   2.200
 3790SOL     OW12112   1.884   3.187   3.136
 3790SOL    HW112113   1.965   3.149   3.170
 3790SOL    HW212114   1.888   3.279   3.162
 3791SOL     OW12115   3.606   2.783   3.713
 3791SOL    HW112116   3.550   2.823   3.647
 3791SOL    HW212117   3.560   2.798   3.796
 3792SOL     OW12118   2.165   1.928   2.486
 3792SOL    HW112119   2.142   2.017   2.513
 3792SOL    HW212120   2.173   1.879   2.568
 3793SOL     OW12121   3.477   2.234   2.229
 3793SOL    HW112122   3.505   2.172   2.296
 3793SOL    HW212123   3.455   2.314   2.278
 3794SOL     OW12124   3.716   3.371   3.468
 3794SOL    HW112125   3.735   3.396   3.378
 3794SOL    HW212126   3.798   3.388   3.515
 3795SOL     OW12127   3.391   2.135   1.989
 3795SOL    HW112128   3.327   2.069   2.016
 3795SOL    HW212129   3.425   2.170   2.072
 3796SOL     OW12130   3.182   2.690   1.905
 3796SOL    HW112131   3.213   2.600   1.896
 3796SOL    HW212132   3.196   2.729   1.819
 3797SOL     OW12133   2.925   3.201   2.698
 3797SOL    HW112134   2.955   3.129   2.642
 3797SOL    HW212135   2.986   3.273   2.679
 3798SOL     OW12136   2.161   2.673   2.810
 3798SOL    HW112137   2.247   2.714   2.821
 3798SOL    HW212138   2.173   2.584   2.842
 3799SOL     OW12139   2.159   2.384   2.866
 3799SOL    HW112140   2.137   2.292   2.874
 3799SOL    HW212141   2.232   2.386   2.804
 3800SOL     OW12142   1.867   3.183   2.058
 3800SOL    HW112143   1.780   3.197   2.020
 3800SOL    HW212144   1.864   3.094   2.091
 3801SOL     OW12145   1.953   3.649   2.800
 3801SOL    HW112146   1.922   3.570   2.756
 3801SOL    HW212147   2.042   3.662   2.768
 3802SOL     OW12148   2.358   3.434   2.768
 3802SOL    HW112149   2.426   3.497   2.793
 3802SOL    HW212150   2.403   3.370   2.713
 3803SOL     OW12151   1.901   2.397   2.992
 3803SOL    HW112152   1.969   2.392   2.924
 3803SOL    HW212153   1.937   2.458   3.056
 3804SOL     OW12154   3.510   2.455   3.036
 3804SOL    HW112155   3.500   2.402   3.115
 3804SOL    HW212156   3.600   2.437   3.007
 3805SOL     OW12157   2.065   3.413   3.602
 3805SOL    HW112158   2.046   3.489   3.656
 3805SOL    HW212159   2.089   3.345   3.664
 3806SOL     OW12160   2.793   3.563   3.294
 3806SOL    HW112161   2.788   3.539   3.201
 3806SOL    HW212162   2.778   3.658   3.294
 3807SOL     OW12163   3.179   2.718   2.171
 3807SOL    HW112164   3.091   2.716   2.208
 3807SOL    HW212165   3.167   2.705   2.077
 3808SOL     OW12166   3.634   3.608   3.012
 3808SOL    HW112167   3.694   3.634   2.943
 3808SOL    HW212168   3.610   3.517   2.990
 3809SOL     OW12169   3.105   3.605   2.976
 3809SOL    HW112170   3.188   3.622   2.930
 3809SOL    HW212171   3.104   3.511   2.990
 3810SOL     OW12172   1.943   3.125   2.877
 3810SOL    HW112173   1.916   3.143   2.967
 3810SOL    HW212174   1.872   3.071   2.841
 3811SOL     OW12175   2.556   3.594   3.599
 3811SOL    HW112176   2.490   3.662   3.587
 3811SOL    HW212177   2.606   3.594   3.517
 3812SOL     OW12178   3.581   2.008   2.373
 3812SOL    HW112179   3.654   1.993   2.312
 3812SOL    HW212180   3.566   1.922   2.412
 3813SOL     OW12181   3.251   3.430   2.345
 3813SOL    HW112182   3.313   3.462   2.279
 3813SOL    HW212183   3.204   3.508   2.374
 3814SOL     OW12184   1.994   3.664   3.709
 3814SOL    HW112185   1.941   3.601   3.759
 3814SOL    HW212186   2.045   3.710   3.775
 3815SOL     OW12187   3.168   2.792   2.553
 3815SOL    HW112188   3.235   2.726   2.536
 3815SOL    HW212189   3.186   2.862   2.491
 3816SOL     OW12190   2.533   3.481   2.017
 3816SOL    HW112191   2.543   3.493   1.922
 3816SOL    HW212192   2.479   3.403   2.025
 3817SOL     OW12193   3.494   3.591   3.255
 3817SOL    HW112194   3.543   3.597   3.173
 3817SOL    HW212195   3.479   3.682   3.280
 3818SOL     OW12196   3.703   2.035   2.829
 3818SOL    HW112197   3.732   1.948   2.801
 3818SOL    HW212198   3.617   2.046   2.789
 3819SOL     OW12199   2.120   2.174   2.596
 3819SOL    HW112200   2.036   2.209   2.565
 3819SOL    HW212201   2.107   2.163   2.691
 3820SOL     OW12202   3.068   3.468   1.893
 3820SOL    HW112203   3.060   3.375   1.916
 3820SOL    HW212204   3.004   3.481   1.823
 3821SOL     OW12205   3.354   3.486   1.904
 3821SOL    HW112206   3.260   3.482   1.890
 3821SOL    HW212207   3.391   3.493   1.816
 3822SOL     OW12208   3.493   3.157   3.140
 3822SOL    HW112209   3.539   3.133   3.220
 3822SOL    HW212210   3.402   3.171   3.168
 3823SOL     OW12211   2.894   2.092   2.823
 3823SOL    HW112212   2.888   2.039   2.743
 3823SOL    HW212213   2.884   2.029   2.894
 3824SOL     OW12214   2.463   3.354   2.344
 3824SOL    HW112215   2.507   3.308   2.273
 3824SOL    HW212216   2.393   3.403   2.301
 3825SOL     OW12217   3.583   2.249   3.242
 3825SOL    HW112218   3.654   2.314   3.243
 3825SOL    HW212219   3.615   2.180   3.185
 3826SOL     OW12220   2.121   3.207   2.151
 3826SOL    HW112221   2.028   3.205   2.127
 3826SOL    HW212222   2.123   3.245   2.239
 3827SOL     OW12223   1.941   2.195   1.896
 3827SOL    HW112224   1.852   2.177   1.867
 3827SOL    HW212225   1.968   2.271   1.844
 3828SOL     OW12226   1.931   2.018   2.174
 3828SOL    HW112227   1.917   2.100   2.126
 3828SOL    HW212228   2.015   1.986   2.142
 3829SOL     OW12229   3.039   3.196   1.977
 3829SOL    HW112230   2.944   3.187   1.980
 3829SOL    HW212231   3.065   3.199   2.069
 3830SOL     OW12232   3.347   3.637   2.839
 3830SOL    HW112233   3.371   3.697   2.768
 3830SOL    HW212234   3.429   3.620   2.884
 3831SOL     OW12235   2.237   3.603   3.425
 3831SOL    HW112236   2.153   3.648   3.414
 3831SOL    HW212237   2.213   3.512   3.442
 3832SOL     OW12238   3.553   2.744   3.112
 3832SOL    HW112239   3.528   2.661   3.071
 3832SOL    HW212240   3.527   2.811   3.049
 3833SOL     OW12241   3.078   2.177   2.321
 3833SOL    HW112242   3.141   2.106   2.310
 3833SOL    HW212243   3.107   2.224   2.400
 3834SOL     OW12244   3.617   2.230   3.514
 3834SOL    HW112245   3.597   2.240   3.421
 3834SOL    HW212246   3.559   2.159   3.543
 3835SOL     OW12247   3.640   2.792   3.367
 3835SOL    HW112248   3.627   2.887   3.375
 3835SOL    HW212249   3.609   2.771   3.279
 3836SOL     OW12250   2.749   3.231   1.903
 3836SOL    HW112251   2.690   3.257   1.973
 3836SOL    HW212252   2.753   3.308   1.845
 3837SOL     OW12253   2.522   3.654   2.806
 3837SOL    HW112254   2.502   3.745   2.783
 3837SOL    HW212255   2.617   3.648   2.797
 3838SOL     OW12256   3.717   3.417   2.706
 3838SOL    HW112257   3.639   3.404   2.652
 3838SOL    HW212258   3.710   3.350   2.774
 3839SOL     OW12259   1.946   3.097   2.528
 3839SOL    HW112260   1.950   3.046   2.609
 3839SOL    HW212261   2.014   3.059   2.473
 3840SOL     OW12262   3.673   2.044   3.099
 3840SOL    HW112263   3.688   1.950   3.113
 3840SOL    HW212264   3.683   2.056   3.005
 3841SOL     OW12265   2.239   2.258   2.371
 3841SOL    HW112266   2.282   2.183   2.329
 3841SOL    HW212267   2.208   2.224   2.455
 3842SOL     OW12268   3.563   3.354   2.957
 3842SOL    HW112269   3.484   3.332   2.908
 3842SOL    HW212270   3.569   3.288   3.025
 3843SOL     OW12271   2.691   3.439   2.536
 3843SOL    HW112272   2.676   3.493   2.459
 3843SOL    HW212273   2.613   3.384   2.542
 3844SOL     OW12274   3.291   2.079   2.987
 3844SOL    HW112275   3.331   1.996   3.013
 3844SOL    HW212276   3.272   2.123   3.070
 3845SOL     OW12277   2.883   1.882   3.000
 3845SOL    HW112278   2.820   1.814   2.977
 3845SOL    HW212279   2.968   1.837   3.000
 3846SOL     OW12280   2.633   3.206   2.176
 3846SOL    HW112281   2.602   3.116   2.166
 3846SOL    HW212282   2.718   3.197   2.220
 3847SOL     OW12283   2.446   3.485   3.117
 3847SOL    HW112284   2.469   3.552   3.180
 3847SOL    HW212285   2.529   3.442   3.096
 3848SOL     OW12286   3.214   1.916   2.027
 3848SOL    HW112287   3.242   1.853   1.960
 3848SOL    HW212288   3.127   1.885   2.053
 3849SOL     OW12289   3.170   2.305   2.544
 3849SOL    HW112290   3.132   2.392   2.558
 3849SOL    HW212291   3.164   2.263   2.630
 3850SOL     OW12292   3.449   2.067   2.739
 3850SOL    HW112293   3.382   2.087   2.805
 3850SOL    HW212294   3.451   2.144   2.683
 3851SOL     OW12295   1.906   2.934   2.168
 3851SOL    HW112296   1.999   2.923   2.148
 3851SOL    HW212297   1.876   2.846   2.190
 3852SOL     OW12298   2.747   3.513   2.205
 3852SOL    HW112299   2.675   3.496   2.144
 3852SOL    HW212300   2.717   3.588   2.256
 3853SOL     OW12301   1.825   2.157   4.375
 3853SOL    HW112302   1.753   2.211   4.406
 3853SOL    HW212303   1.785   2.096   4.313
 3854SOL     OW12304   3.412   3.373   4.430
 3854SOL    HW112305   3.356   3.395   4.505
 3854SOL    HW212306   3.354   3.377   4.355
 3855SOL     OW12307   3.649   2.468   3.948
 3855SOL    HW112308   3.637   2.458   3.854
 3855SOL    HW212309   3.596   2.399   3.987
 3856SOL     OW12310   2.548   3.030   5.559
 3856SOL    HW112311   2.617   3.095   5.548
 3856SOL    HW212312   2.473   3.065   5.512
 3857SOL     OW12313   3.332   3.364   5.074
 3857SOL    HW112314   3.378   3.446   5.090
 3857SOL    HW212315   3.258   3.366   5.135
 3858SOL     OW12316   2.299   2.222   5.211
 3858SOL    HW112317   2.373   2.162   5.221
 3858SOL    HW212318   2.223   2.172   5.240
 3859SOL     OW12319   2.083   3.590   4.195
 3859SOL    HW112320   2.108   3.665   4.249
 3859SOL    HW212321   2.156   3.578   4.135
 3860SOL     OW12322   3.001   3.201   5.417
 3860SOL    HW112323   3.029   3.186   5.508
 3860SOL    HW212324   2.955   3.120   5.393
 3861SOL     OW12325   2.034   3.323   4.231
 3861SOL    HW112326   2.051   3.416   4.247
 3861SOL    HW212327   2.060   3.280   4.313
 3862SOL     OW12328   2.482   3.660   5.161
 3862SOL    HW112329   2.398   3.638   5.201
 3862SOL    HW212330   2.497   3.751   5.186
 3863SOL     OW12331   2.418   2.885   3.858
 3863SOL    HW112332   2.461   2.941   3.793
 3863SOL    HW212333   2.489   2.833   3.896
 3864SOL     OW12334   3.460   1.983   5.194
 3864SOL    HW112335   3.469   2.063   5.141
 3864SOL    HW212336   3.445   2.015   5.283
 3865SOL     OW12337   3.704   3.621   4.060
 3865SOL    HW112338   3.769   3.593   4.125
 3865SOL    HW212339   3.728   3.712   4.040
 3866SOL     OW12340   1.891   3.461   3.850
 3866SOL    HW112341   1.883   3.368   3.870
 3866SOL    HW212342   1.868   3.506   3.932
 3867SOL     OW12343   3.605   2.792   4.359
 3867SOL    HW112344   3.668   2.730   4.323
 3867SOL    HW212345   3.570   2.838   4.283
 3868SOL     OW12346   3.526   2.967   4.160
 3868SOL    HW112347   3.611   2.992   4.124
 3868SOL    HW212348   3.510   3.031   4.229
 3869SOL     OW12349   1.956   2.596   5.322
 3869SOL    HW112350   2.049   2.617   5.317
 3869SOL    HW212351   1.911   2.680   5.313
 3870SOL     OW12352   3.142   3.069   5.151
 3870SOL    HW112353   3.201   3.076   5.077
 3870SOL    HW212354   3.198   3.076   5.228
 3871SOL     OW12355   2.638   1.869   4.164
 3871SOL    HW112356   2.699   1.942   4.163
 3871SOL    HW212357   2.574   1.891   4.231
 3872SOL     OW12358   3.441   2.800   3.967
 3872SOL    HW112359   3.350   2.781   3.986
 3872SOL    HW212360   3.465   2.867   4.031
 3873SOL     OW12361   3.048   3.668   5.346
 3873SOL    HW112362   3.060   3.727   5.272
 3873SOL    HW212363   3.064   3.581   5.310
 3874SOL     OW12364   2.195   2.110   5.545
 3874SOL    HW112365   2.227   2.199   5.529
 3874SOL    HW212366   2.104   2.122   5.570
 3875SOL     OW12367   3.522   3.598   4.303
 3875SOL    HW112368   3.501   3.571   4.214
 3875SOL    HW212369   3.495   3.525   4.358
 3876SOL     OW12370   3.443   3.531   4.034
 3876SOL    HW112371   3.533   3.564   4.029
 3876SOL    HW212372   3.418   3.515   3.943
 3877SOL     OW12373   3.256   2.334   5.402
 3877SOL    HW112374   3.259   2.377   5.488
 3877SOL    HW212375   3.318   2.262   5.410
 3878SOL     OW12376   1.989   3.706   5.301
 3878SOL    HW112377   1.989   3.686   5.394
 3878SOL    HW212378   1.897   3.704   5.276
 3879SOL     OW12379   2.749   2.194   3.929
 3879SOL    HW112380   2.773   2.275   3.884
 3879SOL    HW212381   2.767   2.125   3.865
 3880SOL     OW12382   3.572   2.437   5.552
 3880SOL    HW112383   3.533   2.510   5.505
 3880SOL    HW212384   3.598   2.375   5.484
 3881SOL     OW12385   2.216   3.670   4.587
 3881SOL    HW112386   2.265   3.591   4.565
 3881SOL    HW212387   2.283   3.736   4.605
 3882SOL     OW12388   3.646   2.933   4.606
 3882SOL    HW112389   3.625   2.906   4.517
 3882SOL    HW212390   3.568   2.911   4.657
 3883SOL     OW12391   3.099   3.404   5.238
 3883SOL    HW112392   3.091   3.340   5.308
 3883SOL    HW212393   3.035   3.376   5.172
 3884SOL     OW12394   2.189   2.801   3.976
 3884SOL    HW112395   2.256   2.835   3.918
 3884SOL    HW212396   2.137   2.741   3.921
 3885SOL     OW12397   2.321   3.136   5.460
 3885SOL    HW112398   2.295   3.137   5.368
 3885SOL    HW212399   2.239   3.128   5.509
 3886SOL     OW12400   2.990   3.625   3.945
 3886SOL    HW112401   2.921   3.599   4.007
 3886SOL    HW212402   2.981   3.564   3.872
 3887SOL     OW12403   2.049   2.145   5.257
 3887SOL    HW112404   1.962   2.172   5.226
 3887SOL    HW212405   2.035   2.057   5.291
 3888SOL     OW12406   3.488   3.234   3.808
 3888SOL    HW112407   3.450   3.321   3.796
 3888SOL    HW212408   3.415   3.174   3.792
 3889SOL     OW12409   2.327   3.601   4.048
 3889SOL    HW112410   2.367   3.657   4.114
 3889SOL    HW212411   2.401   3.574   3.993
 3890SOL     OW12412   3.267   1.966   4.157
 3890SOL    HW112413   3.249   1.947   4.064
 3890SOL    HW212414   3.361   1.978   4.161
 3891SOL     OW12415   2.118   3.655   4.956
 3891SOL    HW112416   2.172   3.589   5.000
 3891SOL    HW212417   2.107   3.621   4.867
 3892SOL     OW12418   2.158   2.555   4.170
 3892SOL    HW112419   2.252   2.539   4.158
 3892SOL    HW212420   2.126   2.477   4.216
 3893SOL     OW12421   3.398   2.087   5.449
 3893SOL    HW112422   3.406   2.108   5.542
 3893SOL    HW212423   3.329   2.020   5.446
 3894SOL     OW12424   2.629   2.131   5.477
 3894SOL    HW112425   2.704   2.072   5.478
 3894SOL    HW212426   2.584   2.115   5.560
 3895SOL     OW12427   3.205   2.459   5.162
 3895SOL    HW112428   3.229   2.418   5.245
 3895SOL    HW212429   3.247   2.545   5.164
 3896SOL     OW12430   2.150   1.913   3.909
 3896SOL    HW112431   2.207   1.971   3.858
 3896SOL    HW212432   2.211   1.853   3.953
 3897SOL     OW12433   2.788   2.096   4.176
 3897SOL    HW112434   2.768   2.140   4.093
 3897SOL    HW212435   2.883   2.104   4.185
 3898SOL     OW12436   3.139   3.658   4.318
 3898SOL    HW112437   3.181   3.723   4.262
 3898SOL    HW212438   3.077   3.708   4.372
 3899SOL     OW12439   2.875   2.394   3.791
 3899SOL    HW112440   2.863   2.474   3.741
 3899SOL    HW212441   2.945   2.414   3.853
 3900SOL     OW12442   2.787   2.316   4.345
 3900SOL    HW112443   2.715   2.378   4.341
 3900SOL    HW212444   2.757   2.241   4.293
 3901SOL     OW12445   3.724   2.681   4.100
 3901SOL    HW112446   3.773   2.625   4.160
 3901SOL    HW212447   3.697   2.623   4.029
 3902SOL     OW12448   3.537   3.133   4.378
 3902SOL    HW112449   3.632   3.139   4.386
 3902SOL    HW212450   3.506   3.222   4.396
 3903SOL     OW12451   2.368   2.118   4.047
 3903SOL    HW112452   2.436   2.057   4.018
 3903SOL    HW212453   2.410   2.204   4.043
 3904SOL     OW12454   3.616   3.100   5.300
 3904SOL    HW112455   3.704   3.063   5.296
 3904SOL    HW212456   3.630   3.191   5.327
 3905SOL     OW12457   2.930   3.247   5.095
 3905SOL    HW112458   2.849   3.207   5.125
 3905SOL    HW212459   2.997   3.181   5.114
 3906SOL     OW12460   3.470   3.489   5.378
 3906SOL    HW112461   3.465   3.522   5.289
 3906SOL    HW212462   3.553   3.440   5.381
 3907SOL     OW12463   2.780   1.954   5.141
 3907SOL    HW112464   2.787   1.932   5.048
 3907SOL    HW212465   2.865   1.994   5.162
 3908SOL     OW12466   2.234   2.691   4.994
 3908SOL    HW112467   2.329   2.702   4.995
 3908SOL    HW212468   2.220   2.599   5.017
 3909SOL     OW12469   1.932   3.440   5.077
 3909SOL    HW112470   1.900   3.511   5.023
 3909SOL    HW212471   2.028   3.444   5.067
 3910SOL     OW12472   2.242   2.968   4.181
 3910SOL    HW112473   2.234   3.041   4.119
 3910SOL    HW212474   2.220   2.891   4.129
 3911SOL     OW12475   3.127   3.226   4.069
 3911SOL    HW112476   3.188   3.282   4.117
 3911SOL    HW212477   3.076   3.182   4.137
 3912SOL     OW12478   3.498   2.514   4.183
 3912SOL    HW112479   3.441   2.574   4.232
 3912SOL    HW212480   3.537   2.569   4.115
 3913SOL     OW12481   2.205   3.385   5.027
 3913SOL    HW112482   2.197   3.314   4.964
 3913SOL    HW212483   2.300   3.402   5.032
 3914SOL     OW12484   2.220   2.624   5.317
 3914SOL    HW112485   2.280   2.684   5.273
 3914SOL    HW212486   2.277   2.558   5.357
 3915SOL     OW12487   3.459   2.639   5.409
 3915SOL    HW112488   3.373   2.680   5.402
 3915SOL    HW212489   3.513   2.684   5.343
 3916SOL     OW12490   2.861   1.983   5.486
 3916SOL    HW112491   2.914   2.054   5.450
 3916SOL    HW212492   2.906   1.903   5.458
 3917SOL     OW12493   2.358   1.901   5.475
 3917SOL    HW112494   2.318   1.849   5.406
 3917SOL    HW212495   2.298   1.974   5.488
 3918SOL     OW12496   3.048   2.415   4.003
 3918SOL    HW112497   3.098   2.333   4.004
 3918SOL    HW212498   3.051   2.446   4.094
 3919SOL     OW12499   1.878   3.177   5.033
 3919SOL    HW112500   1.908   3.127   5.108
 3919SOL    HW212501   1.893   3.269   5.057
 3920SOL     OW12502   3.597   2.822   5.577
 3920SOL    HW112503   3.551   2.761   5.519
 3920SOL    HW212504   3.537   2.836   5.650
 3921SOL     OW12505   2.092   1.903   4.341
 3921SOL    HW112506   2.111   1.995   4.325
 3921SOL    HW212507   2.141   1.882   4.420
 3922SOL     OW12508   3.469   2.241   4.094
 3922SOL    HW112509   3.503   2.178   4.158
 3922SOL    HW212510   3.460   2.322   4.143
 3923SOL     OW12511   2.845   3.426   5.441
 3923SOL    HW112512   2.828   3.473   5.360
 3923SOL    HW212513   2.889   3.345   5.414
 3924SOL     OW12514   3.717   3.369   5.329
 3924SOL    HW112515   3.735   3.395   5.239
 3924SOL    HW212516   3.798   3.388   5.376
 3925SOL     OW12517   2.211   2.807   5.531
 3925SOL    HW112518   2.286   2.809   5.591
 3925SOL    HW212519   2.222   2.726   5.482
 3926SOL     OW12520   3.415   2.107   3.855
 3926SOL    HW112521   3.336   2.058   3.879
 3926SOL    HW212522   3.431   2.164   3.930
 3927SOL     OW12523   3.001   2.232   5.407
 3927SOL    HW112524   2.948   2.300   5.449
 3927SOL    HW212525   3.089   2.271   5.401
 3928SOL     OW12526   3.028   2.068   5.192
 3928SOL    HW112527   3.018   2.124   5.269
 3928SOL    HW212528   3.031   2.129   5.118
 3929SOL     OW12529   1.870   3.197   3.917
 3929SOL    HW112530   1.782   3.205   3.879
 3929SOL    HW212531   1.873   3.108   3.951
 3930SOL     OW12532   1.951   3.647   4.661
 3930SOL    HW112533   1.923   3.567   4.617
 3930SOL    HW212534   2.042   3.660   4.632
 3931SOL     OW12535   2.059   2.377   5.446
 3931SOL    HW112536   2.084   2.323   5.371
 3931SOL    HW212537   2.010   2.450   5.408
 3932SOL     OW12538   3.233   2.803   5.386
 3932SOL    HW112539   3.255   2.896   5.388
 3932SOL    HW212540   3.241   2.778   5.294
 3933SOL     OW12541   3.512   2.458   4.935
 3933SOL    HW112542   3.497   2.384   4.994
 3933SOL    HW212543   3.592   2.434   4.887
 3934SOL     OW12544   2.107   3.414   5.452
 3934SOL    HW112545   2.083   3.478   5.518
 3934SOL    HW212546   2.106   3.330   5.498
 3935SOL     OW12547   2.784   3.550   5.206
 3935SOL    HW112548   2.770   3.509   5.120
 3935SOL    HW212549   2.781   3.644   5.188
 3936SOL     OW12550   2.016   2.993   5.190
 3936SOL    HW112551   2.011   2.952   5.276
 3936SOL    HW212552   2.018   2.919   5.129
 3937SOL     OW12553   3.190   2.717   4.029
 3937SOL    HW112554   3.109   2.703   4.076
 3937SOL    HW212555   3.173   2.684   3.940
 3938SOL     OW12556   3.627   3.606   4.869
 3938SOL    HW112557   3.691   3.631   4.802
 3938SOL    HW212558   3.607   3.515   4.849
 3939SOL     OW12559   3.100   3.591   4.835
 3939SOL    HW112560   3.182   3.608   4.789
 3939SOL    HW212561   3.113   3.506   4.878
 3940SOL     OW12562   2.540   3.528   5.452
 3940SOL    HW112563   2.487   3.608   5.447
 3940SOL    HW212564   2.606   3.540   5.383
 3941SOL     OW12565   3.586   2.013   4.241
 3941SOL    HW112566   3.654   1.998   4.176
 3941SOL    HW212567   3.566   1.926   4.276
 3942SOL     OW12568   3.253   3.431   4.213
 3942SOL    HW112569   3.310   3.463   4.143
 3942SOL    HW212570   3.205   3.508   4.242
 3943SOL     OW12571   1.998   3.658   5.567
 3943SOL    HW112572   1.948   3.593   5.615
 3943SOL    HW212573   2.047   3.706   5.634
 3944SOL     OW12574   2.692   3.145   5.174
 3944SOL    HW112575   2.650   3.177   5.254
 3944SOL    HW212576   2.637   3.179   5.104
 3945SOL     OW12577   2.538   3.508   3.898
 3945SOL    HW112578   2.556   3.536   3.808
 3945SOL    HW212579   2.513   3.416   3.890
 3946SOL     OW12580   3.493   3.591   5.116
 3946SOL    HW112581   3.540   3.599   5.033
 3946SOL    HW212582   3.478   3.682   5.143
 3947SOL     OW12583   3.703   2.034   4.687
 3947SOL    HW112584   3.734   1.947   4.664
 3947SOL    HW212585   3.612   2.037   4.656
 3948SOL     OW12586   3.358   3.484   3.764
 3948SOL    HW112587   3.266   3.467   3.746
 3948SOL    HW212588   3.399   3.492   3.678
 3949SOL     OW12589   2.234   3.161   5.211
 3949SOL    HW112590   2.219   3.240   5.159
 3949SOL    HW212591   2.156   3.107   5.195
 3950SOL     OW12592   3.459   3.132   5.011
 3950SOL    HW112593   3.529   3.131   5.077
 3950SOL    HW212594   3.408   3.211   5.032
 3951SOL     OW12595   2.453   3.362   4.185
 3951SOL    HW112596   2.493   3.307   4.117
 3951SOL    HW212597   2.384   3.410   4.140
 3952SOL     OW12598   3.586   2.246   5.109
 3952SOL    HW112599   3.654   2.313   5.105
 3952SOL    HW212600   3.618   2.176   5.051
 3953SOL     OW12601   2.137   3.203   4.013
 3953SOL    HW112602   2.056   3.195   3.963
 3953SOL    HW212603   2.112   3.250   4.093
 3954SOL     OW12604   1.970   2.897   5.442
 3954SOL    HW112605   1.896   2.864   5.493
 3954SOL    HW212606   2.047   2.860   5.485
 3955SOL     OW12607   2.525   2.057   5.227
 3955SOL    HW112608   2.601   2.047   5.170
 3955SOL    HW212609   2.562   2.086   5.311
 3956SOL     OW12610   3.302   2.724   5.135
 3956SOL    HW112611   3.253   2.762   5.063
 3956SOL    HW212612   3.394   2.727   5.106
 3957SOL     OW12613   1.927   2.012   4.040
 3957SOL    HW112614   1.913   2.101   4.007
 3957SOL    HW212615   2.012   1.986   4.004
 3958SOL     OW12616   2.952   3.235   3.867
 3958SOL    HW112617   2.952   3.140   3.856
 3958SOL    HW212618   3.022   3.251   3.932
 3959SOL     OW12619   3.353   3.629   4.703
 3959SOL    HW112620   3.369   3.692   4.632
 3959SOL    HW212621   3.434   3.628   4.753
 3960SOL     OW12622   3.332   3.064   5.355
 3960SOL    HW112623   3.321   3.078   5.449
 3960SOL    HW212624   3.425   3.078   5.340
 3961SOL     OW12625   2.243   3.601   5.287
 3961SOL    HW112626   2.158   3.642   5.272
 3961SOL    HW212627   2.224   3.518   5.330
 3962SOL     OW12628   3.569   2.748   4.997
 3962SOL    HW112629   3.547   2.661   4.964
 3962SOL    HW212630   3.546   2.807   4.924
 3963SOL     OW12631   3.625   2.223   5.377
 3963SOL    HW112632   3.609   2.236   5.284
 3963SOL    HW212633   3.554   2.166   5.406
 3964SOL     OW12634   3.606   2.800   5.252
 3964SOL    HW112635   3.606   2.896   5.262
 3964SOL    HW212636   3.604   2.786   5.158
 3965SOL     OW12637   2.526   3.670   4.684
 3965SOL    HW112638   2.486   3.753   4.658
 3965SOL    HW212639   2.607   3.666   4.633
 3966SOL     OW12640   3.018   2.925   3.819
 3966SOL    HW112641   2.975   2.957   3.740
 3966SOL    HW212642   3.069   2.850   3.789
 3967SOL     OW12643   3.718   3.417   4.571
 3967SOL    HW112644   3.643   3.403   4.513
 3967SOL    HW212645   3.711   3.347   4.636
 3968SOL     OW12646   2.082   3.166   5.579
 3968SOL    HW112647   2.018   3.099   5.554
 3968SOL    HW212648   2.069   3.177   5.673
 3969SOL     OW12649   2.542   3.265   5.362
 3969SOL    HW112650   2.458   3.226   5.385
 3969SOL    HW212651   2.536   3.355   5.392
 3970SOL     OW12652   3.678   2.045   4.960
 3970SOL    HW112653   3.683   1.950   4.974
 3970SOL    HW212654   3.688   2.056   4.865
 3971SOL     OW12655   3.562   3.345   4.828
 3971SOL    HW112656   3.469   3.322   4.828
 3971SOL    HW212657   3.603   3.283   4.888
 3972SOL     OW12658   2.194   2.421   5.044
 3972SOL    HW112659   2.227   2.368   5.117
 3972SOL    HW212660   2.207   2.366   4.966
 3973SOL     OW12661   2.862   1.831   4.905
 3973SOL    HW112662   2.811   1.791   4.835
 3973SOL    HW212663   2.953   1.808   4.886
 3974SOL     OW12664   2.609   3.192   4.026
 3974SOL    HW112665   2.594   3.111   4.073
 3974SOL    HW212666   2.697   3.219   4.053
 3975SOL     OW12667   2.465   3.433   5.015
 3975SOL    HW112668   2.493   3.512   5.060
 3975SOL    HW212669   2.546   3.397   4.977
 3976SOL     OW12670   3.211   1.912   3.893
 3976SOL    HW112671   3.244   1.850   3.827
 3976SOL    HW212672   3.127   1.875   3.920
 3977SOL     OW12673   3.441   2.068   4.622
 3977SOL    HW112674   3.382   2.086   4.696
 3977SOL    HW212675   3.447   2.152   4.576
 3978SOL     OW12676   1.897   2.948   4.034
 3978SOL    HW112677   1.987   2.945   4.001
 3978SOL    HW212678   1.875   2.856   4.049
 3979SOL     OW12679   2.760   3.522   4.063
 3979SOL    HW112680   2.680   3.508   4.012
 3979SOL    HW212681   2.731   3.576   4.137
 3980SOL     OW12682   2.085   2.502   5.696
 3980SOL    HW112683   2.002   2.483   5.739
 3980SOL    HW212684   2.079   2.460   5.611
 3981SOL     OW12685   2.085   2.135   6.580
 3981SOL    HW112686   2.114   2.102   6.664
 3981SOL    HW212687   1.995   2.104   6.571
 3982SOL     OW12688   1.866   2.240   6.229
 3982SOL    HW112689   1.782   2.265   6.268
 3982SOL    HW212690   1.845   2.164   6.176
 3983SOL     OW12691   2.414   3.158   6.779
 3983SOL    HW112692   2.331   3.165   6.733
 3983SOL    HW212693   2.434   3.247   6.808
 3984SOL     OW12694   3.422   3.374   6.292
 3984SOL    HW112695   3.379   3.355   6.376
 3984SOL    HW212696   3.350   3.379   6.229
 3985SOL     OW12697   3.059   2.534   6.335
 3985SOL    HW112698   3.072   2.625   6.309
 3985SOL    HW212699   2.969   2.529   6.366
 3986SOL     OW12700   3.631   2.468   5.815
 3986SOL    HW112701   3.609   2.459   5.722
 3986SOL    HW212702   3.593   2.390   5.855
 3987SOL     OW12703   2.592   3.036   6.623
 3987SOL    HW112704   2.522   3.067   6.682
 3987SOL    HW212705   2.627   3.116   6.584
 3988SOL     OW12706   2.550   3.035   7.403
 3988SOL    HW112707   2.605   3.111   7.419
 3988SOL    HW212708   2.470   3.070   7.363
 3989SOL     OW12709   2.190   3.291   6.653
 3989SOL    HW112710   2.120   3.251   6.603
 3989SOL    HW212711   2.242   3.340   6.589
 3990SOL     OW12712   3.325   3.360   6.940
 3990SOL    HW112713   3.373   3.442   6.949
 3990SOL    HW212714   3.260   3.362   7.010
 3991SOL     OW12715   2.302   2.232   7.044
 3991SOL    HW112716   2.377   2.176   7.064
 3991SOL    HW212717   2.226   2.183   7.077
 3992SOL     OW12718   3.476   2.310   6.326
 3992SOL    HW112719   3.397   2.328   6.274
 3992SOL    HW212720   3.489   2.388   6.379
 3993SOL     OW12721   2.081   3.576   6.059
 3993SOL    HW112722   2.103   3.653   6.112
 3993SOL    HW212723   2.154   3.568   5.997
 3994SOL     OW12724   3.036   3.240   7.283
 3994SOL    HW112725   3.067   3.235   7.374
 3994SOL    HW212726   2.987   3.159   7.270
 3995SOL     OW12727   2.091   3.303   6.120
 3995SOL    HW112728   2.074   3.397   6.125
 3995SOL    HW212729   2.032   3.265   6.185
 3996SOL     OW12730   2.113   2.951   6.472
 3996SOL    HW112731   2.117   2.868   6.519
 3996SOL    HW212732   2.060   3.008   6.529
 3997SOL     OW12733   2.473   3.655   7.015
 3997SOL    HW112734   2.392   3.636   7.062
 3997SOL    HW212735   2.497   3.744   7.041
 3998SOL     OW12736   2.420   2.855   5.712
 3998SOL    HW112737   2.464   2.918   5.654
 3998SOL    HW212738   2.491   2.821   5.767
 3999SOL     OW12739   3.458   1.985   7.054
 3999SOL    HW112740   3.463   2.065   7.003
 3999SOL    HW212741   3.444   2.015   7.144
 4000SOL     OW12742   1.951   2.509   6.156
 4000SOL    HW112743   1.928   2.419   6.180
 4000SOL    HW212744   1.950   2.557   6.239
 4001SOL     OW12745   3.704   3.621   5.922
 4001SOL    HW112746   3.768   3.593   5.987
 4001SOL    HW212747   3.728   3.712   5.902
 4002SOL     OW12748   1.893   3.457   5.710
 4002SOL    HW112749   1.876   3.365   5.729
 4002SOL    HW212750   1.869   3.504   5.790
 4003SOL     OW12751   3.555   2.787   6.228
 4003SOL    HW112752   3.636   2.740   6.206
 4003SOL    HW212753   3.532   2.833   6.147
 4004SOL     OW12754   3.507   2.970   6.016
 4004SOL    HW112755   3.592   2.976   5.973
 4004SOL    HW212756   3.513   3.031   6.089
 4005SOL     OW12757   1.984   2.610   7.176
 4005SOL    HW112758   2.056   2.645   7.229
 4005SOL    HW212759   1.923   2.684   7.167
 4006SOL     OW12760   2.479   3.247   6.321
 4006SOL    HW112761   2.434   3.163   6.333
 4006SOL    HW212762   2.458   3.273   6.232
 4007SOL     OW12763   3.149   3.096   7.014
 4007SOL    HW112764   3.184   3.032   6.952
 4007SOL    HW212765   3.210   3.093   7.088
 4008SOL     OW12766   2.676   1.860   6.094
 4008SOL    HW112767   2.717   1.944   6.074
 4008SOL    HW212768   2.583   1.880   6.104
 4009SOL     OW12769   2.034   2.840   6.852
 4009SOL    HW112770   2.119   2.796   6.843
 4009SOL    HW212771   1.973   2.782   6.807
 4010SOL     OW12772   3.399   2.859   5.782
 4010SOL    HW112773   3.331   2.797   5.808
 4010SOL    HW212774   3.436   2.891   5.865
 4011SOL     OW12775   3.047   3.668   7.206
 4011SOL    HW112776   3.058   3.728   7.133
 4011SOL    HW212777   3.063   3.581   7.169
 4012SOL     OW12778   2.193   2.110   7.399
 4012SOL    HW112779   2.231   2.198   7.397
 4012SOL    HW212780   2.103   2.123   7.429
 4013SOL     OW12781   3.328   3.281   6.538
 4013SOL    HW112782   3.261   3.297   6.604
 4013SOL    HW212783   3.315   3.190   6.511
 4014SOL     OW12784   3.521   3.600   6.164
 4014SOL    HW112785   3.501   3.571   6.075
 4014SOL    HW212786   3.496   3.526   6.220
 4015SOL     OW12787   3.145   2.209   6.519
 4015SOL    HW112788   3.054   2.180   6.528
 4015SOL    HW212789   3.193   2.156   6.583
 4016SOL     OW12790   3.443   3.531   5.895
 4016SOL    HW112791   3.533   3.564   5.889
 4016SOL    HW212792   3.417   3.514   5.805
 4017SOL     OW12793   3.257   2.337   7.263
 4017SOL    HW112794   3.256   2.380   7.349
 4017SOL    HW212795   3.317   2.263   7.275
 4018SOL     OW12796   2.856   2.271   6.829
 4018SOL    HW112797   2.776   2.313   6.859
 4018SOL    HW212798   2.836   2.241   6.740
 4019SOL     OW12799   1.948   2.681   6.369
 4019SOL    HW112800   2.031   2.680   6.416
 4019SOL    HW212801   1.905   2.762   6.398
 4020SOL     OW12802   1.989   3.709   7.164
 4020SOL    HW112803   1.989   3.688   7.257
 4020SOL    HW212804   1.898   3.701   7.137
 4021SOL     OW12805   2.740   2.187   5.789
 4021SOL    HW112806   2.774   2.271   5.759
 4021SOL    HW212807   2.782   2.122   5.733
 4022SOL     OW12808   3.572   2.439   7.415
 4022SOL    HW112809   3.533   2.513   7.368
 4022SOL    HW212810   3.597   2.377   7.346
 4023SOL     OW12811   3.236   3.004   6.121
 4023SOL    HW112812   3.318   2.993   6.073
 4023SOL    HW212813   3.187   3.069   6.070
 4024SOL     OW12814   2.407   2.034   6.473
 4024SOL    HW112815   2.410   2.059   6.565
 4024SOL    HW212816   2.427   2.115   6.425
 4025SOL     OW12817   2.867   3.305   6.062
 4025SOL    HW112818   2.830   3.376   6.010
 4025SOL    HW212819   2.850   3.331   6.153
 4026SOL     OW12820   2.217   3.670   6.447
 4026SOL    HW112821   2.260   3.585   6.455
 4026SOL    HW212822   2.286   3.734   6.465
 4027SOL     OW12823   3.662   2.920   6.454
 4027SOL    HW112824   3.608   2.900   6.378
 4027SOL    HW212825   3.599   2.925   6.527
 4028SOL     OW12826   3.092   3.411   7.087
 4028SOL    HW112827   3.084   3.346   7.157
 4028SOL    HW212828   3.026   3.385   7.022
 4029SOL     OW12829   2.172   2.824   5.838
 4029SOL    HW112830   2.252   2.841   5.787
 4029SOL    HW212831   2.155   2.731   5.825
 4030SOL     OW12832   3.358   2.593   6.307
 4030SOL    HW112833   3.332   2.555   6.391
 4030SOL    HW212834   3.428   2.655   6.330
 4031SOL     OW12835   2.319   3.133   7.322
 4031SOL    HW112836   2.291   3.136   7.230
 4031SOL    HW212837   2.237   3.130   7.371
 4032SOL     OW12838   2.984   3.639   5.817
 4032SOL    HW112839   2.911   3.598   5.863
 4032SOL    HW212840   3.006   3.578   5.747
 4033SOL     OW12841   2.054   2.140   7.093
 4033SOL    HW112842   1.970   2.187   7.085
 4033SOL    HW212843   2.035   2.066   7.150
 4034SOL     OW12844   3.491   3.242   5.674
 4034SOL    HW112845   3.449   3.327   5.658
 4034SOL    HW212846   3.422   3.178   5.654
 4035SOL     OW12847   2.328   3.599   5.907
 4035SOL    HW112848   2.369   3.657   5.972
 4035SOL    HW212849   2.400   3.570   5.852
 4036SOL     OW12850   3.263   1.968   6.018
 4036SOL    HW112851   3.253   1.944   5.926
 4036SOL    HW212852   3.358   1.977   6.030
 4037SOL     OW12853   2.117   3.654   6.818
 4037SOL    HW112854   2.169   3.589   6.865
 4037SOL    HW212855   2.108   3.618   6.730
 4038SOL     OW12856   2.798   3.563   6.485
 4038SOL    HW112857   2.872   3.509   6.512
 4038SOL    HW212858   2.755   3.511   6.417
 4039SOL     OW12859   2.182   2.566   6.029
 4039SOL    HW112860   2.219   2.477   6.030
 4039SOL    HW212861   2.095   2.556   6.068
 4040SOL     OW12862   3.398   2.087   7.312
 4040SOL    HW112863   3.407   2.108   7.405
 4040SOL    HW212864   3.328   2.022   7.308
 4041SOL     OW12865   2.490   1.988   5.694
 4041SOL    HW112866   2.565   1.930   5.706
 4041SOL    HW212867   2.446   1.954   5.616
 4042SOL     OW12868   2.618   2.116   7.334
 4042SOL    HW112869   2.701   2.069   7.338
 4042SOL    HW212870   2.604   2.147   7.423
 4043SOL     OW12871   2.740   3.389   6.779
 4043SOL    HW112872   2.723   3.352   6.693
 4043SOL    HW212873   2.803   3.329   6.820
 4044SOL     OW12874   3.246   2.437   7.006
 4044SOL    HW112875   3.258   2.411   7.097
 4044SOL    HW212876   3.258   2.532   7.006
 4045SOL     OW12877   2.678   3.273   6.521
 4045SOL    HW112878   2.762   3.251   6.479
 4045SOL    HW212879   2.614   3.266   6.451
 4046SOL     OW12880   2.801   2.357   6.487
 4046SOL    HW112881   2.791   2.344   6.392
 4046SOL    HW212882   2.831   2.272   6.519
 4047SOL     OW12883   2.411   1.924   6.091
 4047SOL    HW112884   2.330   1.924   6.141
 4047SOL    HW212885   2.404   2.001   6.035
 4048SOL     OW12886   3.290   3.061   5.625
 4048SOL    HW112887   3.322   2.985   5.675
 4048SOL    HW212888   3.205   3.081   5.664
 4049SOL     OW12889   2.153   1.910   5.771
 4049SOL    HW112890   2.209   1.971   5.724
 4049SOL    HW212891   2.213   1.847   5.811
 4050SOL     OW12892   2.798   2.102   6.044
 4050SOL    HW112893   2.770   2.138   5.960
 4050SOL    HW212894   2.892   2.117   6.046
 4051SOL     OW12895   2.983   2.480   7.049
 4051SOL    HW112896   2.918   2.412   7.029
 4051SOL    HW212897   3.066   2.442   7.021
 4052SOL     OW12898   3.088   3.428   6.379
 4052SOL    HW112899   3.102   3.497   6.315
 4052SOL    HW212900   3.154   3.445   6.447
 4053SOL     OW12901   2.329   3.019   6.320
 4053SOL    HW112902   2.259   2.994   6.381
 4053SOL    HW212903   2.297   2.992   6.234
 4054SOL     OW12904   3.131   3.656   6.194
 4054SOL    HW112905   3.177   3.717   6.136
 4054SOL    HW212906   3.065   3.709   6.238
 4055SOL     OW12907   1.932   2.419   6.983
 4055SOL    HW112908   2.022   2.413   6.953
 4055SOL    HW212909   1.932   2.492   7.046
 4056SOL     OW12910   2.415   2.076   6.737
 4056SOL    HW112911   2.469   2.023   6.795
 4056SOL    HW212912   2.330   2.082   6.781
 4057SOL     OW12913   2.777   2.305   6.227
 4057SOL    HW112914   2.690   2.343   6.213
 4057SOL    HW212915   2.778   2.228   6.170
 4058SOL     OW12916   2.877   1.913   6.337
 4058SOL    HW112917   2.819   1.906   6.262
 4058SOL    HW212918   2.855   1.838   6.392
 4059SOL     OW12919   3.296   3.024   6.442
 4059SOL    HW112920   3.236   2.950   6.436
 4059SOL    HW212921   3.326   3.038   6.352
 4060SOL     OW12922   3.329   2.467   6.564
 4060SOL    HW112923   3.277   2.387   6.566
 4060SOL    HW212924   3.388   2.459   6.639
 4061SOL     OW12925   3.707   2.679   5.969
 4061SOL    HW112926   3.764   2.627   6.027
 4061SOL    HW212927   3.679   2.616   5.902
 4062SOL     OW12928   2.355   3.276   5.745
 4062SOL    HW112929   2.279   3.250   5.796
 4062SOL    HW212930   2.339   3.240   5.658
 4063SOL     OW12931   3.530   3.126   6.234
 4063SOL    HW112932   3.625   3.129   6.246
 4063SOL    HW212933   3.501   3.215   6.254
 4064SOL     OW12934   3.255   2.428   5.656
 4064SOL    HW112935   3.192   2.410   5.726
 4064SOL    HW212936   3.338   2.397   5.691
 4065SOL     OW12937   2.390   2.123   5.909
 4065SOL    HW112938   2.424   2.072   5.835
 4065SOL    HW212939   2.405   2.214   5.885
 4066SOL     OW12940   3.615   3.100   7.160
 4066SOL    HW112941   3.702   3.061   7.156
 4066SOL    HW212942   3.629   3.190   7.189
 4067SOL     OW12943   2.924   3.219   6.920
 4067SOL    HW112944   2.845   3.189   6.966
 4067SOL    HW212945   2.996   3.172   6.964
 4068SOL     OW12946   3.469   3.488   7.238
 4068SOL    HW112947   3.465   3.521   7.149
 4068SOL    HW212948   3.552   3.440   7.241
 4069SOL     OW12949   2.997   3.071   6.696
 4069SOL    HW112950   2.937   3.102   6.764
 4069SOL    HW212951   2.950   3.088   6.614
 4070SOL     OW12952   3.491   2.961   6.663
 4070SOL    HW112953   3.488   3.022   6.737
 4070SOL    HW212954   3.410   2.977   6.615
 4071SOL     OW12955   2.779   1.958   6.983
 4071SOL    HW112956   2.801   1.941   6.892
 4071SOL    HW212957   2.857   1.999   7.020
 4072SOL     OW12958   2.894   3.025   7.289
 4072SOL    HW112959   2.806   3.055   7.312
 4072SOL    HW212960   2.884   2.987   7.201
 4073SOL     OW12961   2.253   2.680   6.850
 4073SOL    HW112962   2.343   2.693   6.880
 4073SOL    HW212963   2.232   2.589   6.872
 4074SOL     OW12964   3.131   2.234   6.860
 4074SOL    HW112965   3.173   2.311   6.898
 4074SOL    HW212966   3.042   2.262   6.838
 4075SOL     OW12967   1.932   3.435   6.938
 4075SOL    HW112968   1.902   3.508   6.884
 4075SOL    HW212969   2.028   3.439   6.933
 4076SOL     OW12970   2.222   2.966   6.073
 4076SOL    HW112971   2.212   3.041   6.014
 4076SOL    HW212972   2.207   2.890   6.017
 4077SOL     OW12973   3.108   3.212   5.975
 4077SOL    HW112974   3.164   3.283   6.004
 4077SOL    HW212975   3.021   3.234   6.009
 4078SOL     OW12976   3.143   3.320   6.732
 4078SOL    HW112977   3.196   3.321   6.811
 4078SOL    HW212978   3.085   3.245   6.743
 4079SOL     OW12979   3.442   2.485   6.059
 4079SOL    HW112980   3.404   2.533   6.133
 4079SOL    HW212981   3.488   2.551   6.008
 4080SOL     OW12982   2.208   3.389   6.902
 4080SOL    HW112983   2.196   3.348   6.817
 4080SOL    HW212984   2.303   3.402   6.909
 4081SOL     OW12985   3.462   2.642   7.269
 4081SOL    HW112986   3.374   2.680   7.259
 4081SOL    HW212987   3.514   2.683   7.200
 4082SOL     OW12988   2.860   1.985   7.342
 4082SOL    HW112989   2.915   2.058   7.312
 4082SOL    HW212990   2.909   1.907   7.316
 4083SOL     OW12991   2.359   1.901   7.333
 4083SOL    HW112992   2.317   1.847   7.267
 4083SOL    HW212993   2.299   1.975   7.346
 4084SOL     OW12994   3.229   2.721   6.616
 4084SOL    HW112995   3.158   2.716   6.553
 4084SOL    HW212996   3.268   2.634   6.616
 4085SOL     OW12997   3.076   2.384   5.861
 4085SOL    HW112998   3.077   2.302   5.911
 4085SOL    HW212999   3.054   2.451   5.925
 4086SOL     OW13000   2.157   2.061   6.833
 4086SOL    HW113001   2.120   2.092   6.916
 4086SOL    HW213002   2.141   1.967   6.834
 4087SOL     OW13003   1.906   3.174   6.863
 4087SOL    HW113004   1.940   3.120   6.934
 4087SOL    HW213005   1.914   3.264   6.895
 4088SOL     OW13006   3.597   2.821   7.438
 4088SOL    HW113007   3.549   2.761   7.381
 4088SOL    HW213008   3.539   2.835   7.513
 4089SOL     OW13009   2.165   1.928   6.210
 4089SOL    HW113010   2.144   2.018   6.236
 4089SOL    HW213011   2.173   1.881   6.293
 4090SOL     OW13012   3.477   2.235   5.953
 4090SOL    HW113013   3.505   2.172   6.020
 4090SOL    HW213014   3.454   2.314   6.002
 4091SOL     OW13015   2.839   3.429   7.301
 4091SOL    HW113016   2.824   3.473   7.218
 4091SOL    HW213017   2.898   3.357   7.280
 4092SOL     OW13018   3.717   3.369   7.191
 4092SOL    HW113019   3.735   3.394   7.101
 4092SOL    HW213020   3.799   3.387   7.238
 4093SOL     OW13021   2.223   2.766   7.370
 4093SOL    HW113022   2.278   2.805   7.438
 4093SOL    HW213023   2.276   2.697   7.331
 4094SOL     OW13024   3.392   2.135   5.713
 4094SOL    HW113025   3.327   2.070   5.740
 4094SOL    HW213026   3.425   2.170   5.796
 4095SOL     OW13027   3.184   2.690   5.633
 4095SOL    HW113028   3.214   2.599   5.623
 4095SOL    HW213029   3.197   2.729   5.546
 4096SOL     OW13030   2.925   3.204   6.430
 4096SOL    HW113031   2.953   3.128   6.379
 4096SOL    HW213032   2.988   3.273   6.408
 4097SOL     OW13033   2.171   2.677   6.535
 4097SOL    HW113034   2.264   2.696   6.522
 4097SOL    HW213035   2.169   2.590   6.574
 4098SOL     OW13036   2.175   2.381   6.584
 4098SOL    HW113037   2.143   2.291   6.581
 4098SOL    HW213038   2.246   2.384   6.520
 4099SOL     OW13039   3.000   2.232   7.266
 4099SOL    HW113040   2.952   2.283   7.331
 4099SOL    HW213041   3.084   2.276   7.258
 4100SOL     OW13042   3.023   2.062   7.055
 4100SOL    HW113043   3.013   2.125   7.126
 4100SOL    HW213044   3.061   2.113   6.983
 4101SOL     OW13045   1.867   3.184   5.783
 4101SOL    HW113046   1.780   3.197   5.744
 4101SOL    HW213047   1.865   3.093   5.815
 4102SOL     OW13048   1.952   3.650   6.524
 4102SOL    HW113049   1.922   3.570   6.480
 4102SOL    HW213050   2.042   3.662   6.493
 4103SOL     OW13051   2.359   3.435   6.491
 4103SOL    HW113052   2.428   3.497   6.516
 4103SOL    HW213053   2.404   3.370   6.436
 4104SOL     OW13054   1.896   2.404   6.703
 4104SOL    HW113055   1.976   2.393   6.652
 4104SOL    HW213056   1.925   2.411   6.793
 4105SOL     OW13057   2.056   2.378   7.310
 4105SOL    HW113058   2.107   2.339   7.239
 4105SOL    HW213059   2.007   2.449   7.268
 4106SOL     OW13060   3.232   2.802   7.246
 4106SOL    HW113061   3.259   2.894   7.244
 4106SOL    HW213062   3.233   2.775   7.155
 4107SOL     OW13063   3.504   2.465   6.773
 4107SOL    HW113064   3.490   2.407   6.848
 4107SOL    HW213065   3.591   2.442   6.740
 4108SOL     OW13066   2.105   3.414   7.314
 4108SOL    HW113067   2.083   3.478   7.382
 4108SOL    HW213068   2.107   3.330   7.361
 4109SOL     OW13069   2.788   3.542   7.054
 4109SOL    HW113070   2.765   3.506   6.969
 4109SOL    HW213071   2.785   3.637   7.042
 4110SOL     OW13072   2.006   3.005   7.061
 4110SOL    HW113073   2.010   2.951   7.139
 4110SOL    HW213074   2.018   2.943   6.988
 4111SOL     OW13075   3.190   2.909   6.810
 4111SOL    HW113076   3.213   2.846   6.742
 4111SOL    HW213077   3.124   2.965   6.769
 4112SOL     OW13078   3.182   2.721   5.899
 4112SOL    HW113079   3.094   2.712   5.937
 4112SOL    HW213080   3.169   2.705   5.805
 4113SOL     OW13081   3.632   3.607   6.735
 4113SOL    HW113082   3.693   3.633   6.666
 4113SOL    HW213083   3.609   3.517   6.714
 4114SOL     OW13084   3.103   3.595   6.699
 4114SOL    HW113085   3.185   3.615   6.654
 4114SOL    HW213086   3.108   3.502   6.719
 4115SOL     OW13087   1.945   3.130   6.598
 4115SOL    HW113088   1.931   3.141   6.692
 4115SOL    HW213089   1.874   3.073   6.570
 4116SOL     OW13090   2.538   3.527   7.313
 4116SOL    HW113091   2.488   3.608   7.309
 4116SOL    HW213092   2.606   3.537   7.246
 4117SOL     OW13093   3.581   2.007   6.097
 4117SOL    HW113094   3.654   1.993   6.036
 4117SOL    HW213095   3.566   1.922   6.136
 4118SOL     OW13096   3.251   3.430   6.069
 4118SOL    HW113097   3.313   3.462   6.003
 4118SOL    HW213098   3.204   3.508   6.098
 4119SOL     OW13099   1.997   3.658   7.430
 4119SOL    HW113100   1.947   3.594   7.480
 4119SOL    HW213101   2.046   3.707   7.497
 4120SOL     OW13102   3.166   2.789   6.273
 4120SOL    HW113103   3.237   2.726   6.260
 4120SOL    HW213104   3.186   2.860   6.213
 4121SOL     OW13105   2.678   3.168   7.013
 4121SOL    HW113106   2.636   3.203   7.092
 4121SOL    HW213107   2.606   3.143   6.956
 4122SOL     OW13108   2.533   3.481   5.741
 4122SOL    HW113109   2.543   3.493   5.647
 4122SOL    HW213110   2.479   3.403   5.749
 4123SOL     OW13111   3.490   3.589   6.977
 4123SOL    HW113112   3.539   3.596   6.895
 4123SOL    HW213113   3.476   3.679   7.005
 4124SOL     OW13114   3.702   2.035   6.553
 4124SOL    HW113115   3.731   1.948   6.525
 4124SOL    HW213116   3.616   2.046   6.513
 4125SOL     OW13117   2.122   2.180   6.312
 4125SOL    HW113118   2.036   2.211   6.286
 4125SOL    HW213119   2.114   2.161   6.406
 4126SOL     OW13120   3.068   3.467   5.617
 4126SOL    HW113121   3.061   3.375   5.641
 4126SOL    HW213122   3.003   3.479   5.548
 4127SOL     OW13123   3.354   3.487   5.629
 4127SOL    HW113124   3.260   3.481   5.614
 4127SOL    HW213125   3.391   3.493   5.541
 4128SOL     OW13126   2.229   3.165   7.076
 4128SOL    HW113127   2.218   3.241   7.020
 4128SOL    HW213128   2.151   3.111   7.060
 4129SOL     OW13129   3.473   3.144   6.867
 4129SOL    HW113130   3.532   3.134   6.942
 4129SOL    HW213131   3.413   3.214   6.893
 4130SOL     OW13132   2.888   2.097   6.552
 4130SOL    HW113133   2.883   2.048   6.470
 4130SOL    HW213134   2.880   2.031   6.621
 4131SOL     OW13135   2.463   3.354   6.068
 4131SOL    HW113136   2.507   3.308   5.997
 4131SOL    HW213137   2.392   3.402   6.025
 4132SOL     OW13138   3.585   2.253   6.968
 4132SOL    HW113139   3.655   2.317   6.965
 4132SOL    HW213140   3.614   2.182   6.911
 4133SOL     OW13141   2.121   3.209   5.873
 4133SOL    HW113142   2.028   3.205   5.851
 4133SOL    HW213143   2.123   3.245   5.962
 4134SOL     OW13144   1.975   2.882   7.306
 4134SOL    HW113145   1.899   2.860   7.360
 4134SOL    HW213146   2.049   2.843   7.352
 4135SOL     OW13147   2.533   2.060   7.080
 4135SOL    HW113148   2.618   2.040   7.040
 4135SOL    HW213149   2.555   2.082   7.171
 4136SOL     OW13150   1.939   2.197   5.621
 4136SOL    HW113151   1.852   2.177   5.586
 4136SOL    HW213152   1.970   2.271   5.568
 4137SOL     OW13153   3.293   2.722   6.990
 4137SOL    HW113154   3.244   2.782   6.933
 4137SOL    HW213155   3.381   2.723   6.954
 4138SOL     OW13156   1.931   2.019   5.897
 4138SOL    HW113157   1.916   2.099   5.847
 4138SOL    HW213158   2.015   1.986   5.867
 4139SOL     OW13159   3.039   3.196   5.702
 4139SOL    HW113160   2.944   3.186   5.706
 4139SOL    HW213161   3.066   3.199   5.794
 4140SOL     OW13162   3.346   3.637   6.563
 4140SOL    HW113163   3.370   3.697   6.493
 4140SOL    HW213164   3.429   3.620   6.609
 4141SOL     OW13165   3.333   3.060   7.220
 4141SOL    HW113166   3.320   3.076   7.313
 4141SOL    HW213167   3.426   3.076   7.205
 4142SOL     OW13168   2.242   3.602   7.150
 4142SOL    HW113169   2.156   3.642   7.137
 4142SOL    HW213170   2.222   3.518   7.191
 4143SOL     OW13171   3.531   2.743   6.842
 4143SOL    HW113172   3.525   2.657   6.800
 4143SOL    HW213173   3.522   2.806   6.770
 4144SOL     OW13174   3.078   2.176   6.044
 4144SOL    HW113175   3.141   2.105   6.034
 4144SOL    HW213176   3.107   2.223   6.122
 4145SOL     OW13177   3.625   2.223   7.238
 4145SOL    HW113178   3.609   2.238   7.144
 4145SOL    HW213179   3.553   2.167   7.266
 4146SOL     OW13180   3.607   2.795   7.098
 4146SOL    HW113181   3.604   2.890   7.112
 4146SOL    HW213182   3.591   2.783   7.005
 4147SOL     OW13183   2.747   3.230   5.626
 4147SOL    HW113184   2.690   3.257   5.698
 4147SOL    HW213185   2.753   3.308   5.570
 4148SOL     OW13186   2.521   3.654   6.531
 4148SOL    HW113187   2.502   3.745   6.507
 4148SOL    HW213188   2.617   3.647   6.525
 4149SOL     OW13189   3.717   3.417   6.431
 4149SOL    HW113190   3.639   3.405   6.376
 4149SOL    HW213191   3.708   3.350   6.499
 4150SOL     OW13192   2.083   3.166   7.443
 4150SOL    HW113193   2.014   3.107   7.414
 4150SOL    HW213194   2.067   3.179   7.537
 4151SOL     OW13195   1.945   3.096   6.252
 4151SOL    HW113196   1.951   3.048   6.334
 4151SOL    HW213197   2.014   3.058   6.197
 4152SOL     OW13198   2.537   3.266   7.216
 4152SOL    HW113199   2.455   3.227   7.243
 4152SOL    HW213200   2.535   3.355   7.253
 4153SOL     OW13201   3.676   2.046   6.824
 4153SOL    HW113202   3.685   1.952   6.838
 4153SOL    HW213203   3.685   2.057   6.729
 4154SOL     OW13204   2.244   2.282   6.092
 4154SOL    HW113205   2.286   2.208   6.047
 4154SOL    HW213206   2.211   2.244   6.174
 4155SOL     OW13207   3.563   3.352   6.683
 4155SOL    HW113208   3.481   3.328   6.638
 4155SOL    HW213209   3.575   3.283   6.749
 4156SOL     OW13210   2.174   2.404   6.874
 4156SOL    HW113211   2.223   2.342   6.929
 4156SOL    HW213212   2.191   2.376   6.785
 4157SOL     OW13213   2.690   3.440   6.261
 4157SOL    HW113214   2.675   3.493   6.182
 4157SOL    HW213215   2.613   3.384   6.267
 4158SOL     OW13216   3.296   2.083   6.706
 4158SOL    HW113217   3.321   2.004   6.754
 4158SOL    HW213218   3.243   2.133   6.768
 4159SOL     OW13219   2.870   1.879   6.730
 4159SOL    HW113220   2.817   1.810   6.689
 4159SOL    HW213221   2.958   1.842   6.732
 4160SOL     OW13222   2.634   3.205   5.899
 4160SOL    HW113223   2.602   3.116   5.891
 4160SOL    HW213224   2.718   3.197   5.946
 4161SOL     OW13225   2.480   3.422   6.869
 4161SOL    HW113226   2.485   3.503   6.919
 4161SOL    HW213227   2.569   3.410   6.834
 4162SOL     OW13228   3.214   1.916   5.751
 4162SOL    HW113229   3.241   1.854   5.683
 4162SOL    HW213230   3.127   1.885   5.778
 4163SOL     OW13231   3.175   2.304   6.266
 4163SOL    HW113232   3.134   2.390   6.279
 4163SOL    HW213233   3.167   2.261   6.352
 4164SOL     OW13234   3.449   2.065   6.464
 4164SOL    HW113235   3.387   2.085   6.534
 4164SOL    HW213236   3.448   2.143   6.408
 4165SOL     OW13237   1.907   2.933   5.891
 4165SOL    HW113238   2.000   2.921   5.869
 4165SOL    HW213239   1.877   2.845   5.915
 4166SOL     OW13240   2.747   3.513   5.928
 4166SOL    HW113241   2.675   3.496   5.868
 4166SOL    HW213242   2.717   3.588   5.980
 4167SOL     OW13243   2.091   2.501   7.564
 4167SOL    HW113244   2.003   2.490   7.602
 4167SOL    HW213245   2.084   2.462   7.477
 4168SOL     OW13246   3.628   2.461   7.680
 4168SOL    HW113247   3.609   2.457   7.586
 4168SOL    HW213248   3.588   2.383   7.716
 4169SOL     OW13249   2.082   3.582   7.919
 4169SOL    HW113250   2.112   3.623   8.000
 4169SOL    HW213251   2.160   3.578   7.863
 4170SOL     OW13252   2.080   3.301   7.988
 4170SOL    HW113253   2.061   3.395   7.991
 4170SOL    HW213254   2.027   3.264   8.059
 4171SOL     OW13255   2.412   2.865   7.568
 4171SOL    HW113256   2.458   2.925   7.508
 4171SOL    HW213257   2.482   2.822   7.618
 4172SOL     OW13258   3.699   3.621   7.797
 4172SOL    HW113259   3.769   3.591   7.855
 4172SOL    HW213260   3.726   3.710   7.772
 4173SOL     OW13261   1.892   3.461   7.577
 4173SOL    HW113262   1.876   3.368   7.592
 4173SOL    HW213263   1.864   3.503   7.659
 4174SOL     OW13264   3.544   2.730   8.037
 4174SOL    HW113265   3.626   2.741   0.005
 4174SOL    HW213266   3.532   2.813   7.990
 4175SOL     OW13267   3.517   2.960   7.877
 4175SOL    HW113268   3.603   2.987   7.846
 4175SOL    HW213269   3.488   3.032   7.933
 4176SOL     OW13270   2.665   1.857   7.941
 4176SOL    HW113271   2.712   1.938   7.922
 4176SOL    HW213272   2.573   1.884   7.948
 4177SOL     OW13273   3.397   2.855   7.648
 4177SOL    HW113274   3.333   2.793   7.682
 4177SOL    HW213275   3.439   2.891   7.726
 4178SOL     OW13276   3.436   3.533   7.757
 4178SOL    HW113277   3.527   3.562   7.765
 4178SOL    HW213278   3.424   3.519   7.663
 4179SOL     OW13279   1.920   2.719   0.091
 4179SOL    HW113280   1.992   2.660   0.114
 4179SOL    HW213281   1.918   2.783   0.163
 4180SOL     OW13282   2.737   2.193   7.645
 4180SOL    HW113283   2.764   2.272   7.599
 4180SOL    HW213284   2.791   2.123   7.607
 4181SOL     OW13285   2.172   2.817   7.691
 4181SOL    HW113286   2.257   2.836   7.650
 4181SOL    HW213287   2.151   2.728   7.662
 4182SOL     OW13288   2.984   3.638   7.684
 4182SOL    HW113289   2.908   3.597   7.724
 4182SOL    HW213290   3.009   3.580   7.612
 4183SOL     OW13291   3.490   3.242   7.533
 4183SOL    HW113292   3.448   3.327   7.520
 4183SOL    HW213293   3.420   3.178   7.518
 4184SOL     OW13294   2.329   3.600   7.769
 4184SOL    HW113295   2.377   3.653   7.833
 4184SOL    HW213296   2.396   3.565   7.712
 4185SOL     OW13297   3.277   1.993   7.864
 4185SOL    HW113298   3.264   1.959   7.776
 4185SOL    HW213299   3.372   1.990   7.877
 4186SOL     OW13300   2.479   1.977   7.567
 4186SOL    HW113301   2.567   1.939   7.570
 4186SOL    HW213302   2.445   1.954   7.481
 4187SOL     OW13303   2.393   1.932   7.962
 4187SOL    HW113304   2.305   1.933   7.999
 4187SOL    HW213305   2.391   2.002   7.896
 4188SOL     OW13306   3.290   3.058   7.492
 4188SOL    HW113307   3.326   2.985   7.542
 4188SOL    HW213308   3.200   3.067   7.525
 4189SOL     OW13309   2.155   1.911   7.633
 4189SOL    HW113310   2.214   1.968   7.583
 4189SOL    HW213311   2.213   1.845   7.671
 4190SOL     OW13312   2.802   2.092   7.910
 4190SOL    HW113313   2.764   2.145   7.840
 4190SOL    HW213314   2.893   2.121   7.915
 4191SOL     OW13315   2.296   3.041   0.088
 4191SOL    HW113316   2.221   3.023   0.144
 4191SOL    HW213317   2.269   3.011   0.001
 4192SOL     OW13318   3.152   3.673   8.015
 4192SOL    HW113319   3.187   3.741   7.958
 4192SOL    HW213320   3.069   3.709   8.046
 4193SOL     OW13321   2.901   2.378   7.477
 4193SOL    HW113322   2.853   2.458   7.455
 4193SOL    HW213323   2.957   2.404   7.550
 4194SOL     OW13324   3.733   2.679   7.802
 4194SOL    HW113325   3.731   2.648   7.893
 4194SOL    HW213326   3.692   2.609   7.752
 4195SOL     OW13327   2.353   3.274   7.608
 4195SOL    HW113328   2.277   3.247   7.660
 4195SOL    HW213329   2.336   3.240   7.520
 4196SOL     OW13330   3.256   2.434   7.521
 4196SOL    HW113331   3.196   2.412   7.592
 4196SOL    HW213332   3.341   2.400   7.549
 4197SOL     OW13333   2.387   2.123   7.774
 4197SOL    HW113334   2.420   2.068   7.703
 4197SOL    HW213335   2.405   2.212   7.744
 4198SOL     OW13336   2.234   2.960   7.921
 4198SOL    HW113337   2.205   3.038   7.874
 4198SOL    HW213338   2.214   2.888   7.861
 4199SOL     OW13339   3.089   3.215   7.824
 4199SOL    HW113340   3.150   3.284   7.850
 4199SOL    HW213341   3.047   3.188   7.906
 4200SOL     OW13342   3.450   2.490   7.922
 4200SOL    HW113343   3.436   2.551   7.994
 4200SOL    HW213344   3.487   2.544   7.852
 4201SOL     OW13345   3.066   2.391   7.717
 4201SOL    HW113346   3.064   2.307   7.764
 4201SOL    HW213347   3.055   2.457   7.786
 4202SOL     OW13348   3.480   2.240   7.815
 4202SOL    HW113349   3.502   2.174   7.880
 4202SOL    HW213350   3.455   2.317   7.867
 4203SOL     OW13351   3.392   2.137   7.576
 4203SOL    HW113352   3.327   2.071   7.601
 4203SOL    HW213353   3.424   2.172   7.659
 4204SOL     OW13354   3.155   2.688   7.482
 4204SOL    HW113355   3.193   2.601   7.485
 4204SOL    HW213356   3.183   2.724   7.398
 4205SOL     OW13357   1.867   3.186   7.640
 4205SOL    HW113358   1.780   3.198   7.603
 4205SOL    HW213359   1.867   3.096   7.674
 4206SOL     OW13360   3.187   2.701   7.754
 4206SOL    HW113361   3.104   2.721   7.796
 4206SOL    HW213362   3.166   2.693   7.661
 4207SOL     OW13363   3.574   2.008   7.949
 4207SOL    HW113364   3.651   2.000   7.893
 4207SOL    HW213365   3.576   1.929   8.003
 4208SOL     OW13366   3.227   3.438   7.898
 4208SOL    HW113367   3.301   3.459   7.841
 4208SOL    HW213368   3.195   3.524   7.927
 4209SOL     OW13369   2.528   3.482   7.604
 4209SOL    HW113370   2.542   3.492   7.509
 4209SOL    HW213371   2.478   3.401   7.612
 4210SOL     OW13372   3.072   3.478   7.478
 4210SOL    HW113373   3.060   3.388   7.510
 4210SOL    HW213374   3.006   3.488   7.409
 4211SOL     OW13375   3.356   3.488   7.489
 4211SOL    HW113376   3.261   3.482   7.477
 4211SOL    HW213377   3.391   3.493   7.400
 4212SOL     OW13378   2.469   3.374   7.936
 4212SOL    HW113379   2.511   3.314   7.875
 4212SOL    HW213380   2.392   3.406   7.890
 4213SOL     OW13381   2.120   3.210   7.739
 4213SOL    HW113382   2.027   3.206   7.714
 4213SOL    HW213383   2.119   3.245   7.828
 4214SOL     OW13384   1.941   2.196   7.483
 4214SOL    HW113385   1.853   2.177   7.451
 4214SOL    HW213386   1.969   2.272   7.431
 4215SOL     OW13387   1.932   2.018   7.759
 4215SOL    HW113388   1.916   2.097   7.707
 4215SOL    HW213389   2.015   1.983   7.726
 4216SOL     OW13390   3.039   3.221   7.560
 4216SOL    HW113391   2.959   3.169   7.558
 4216SOL    HW213392   3.068   3.218   7.651
 4217SOL     OW13393   3.076   2.180   7.902
 4217SOL    HW113394   3.150   2.120   7.892
 4217SOL    HW213395   3.095   2.229   7.982
 4218SOL     OW13396   2.725   3.231   7.475
 4218SOL    HW113397   2.694   3.257   7.562
 4218SOL    HW213398   2.747   3.313   7.432
 4219SOL     OW13399   3.024   2.932   7.532
 4219SOL    HW113400   2.986   2.959   7.449
 4219SOL    HW213401   3.072   2.852   7.512
 4220SOL     OW13402   2.219   2.251   7.981
 4220SOL    HW113403   2.278   2.214   7.914
 4220SOL    HW213404   2.263   2.233   8.064
 4221SOL     OW13405   2.637   3.202   7.756
 4221SOL    HW113406   2.591   3.119   7.765
 4221SOL    HW213407   2.711   3.195   7.816
 4222SOL     OW13408   3.214   1.915   7.610
 4222SOL    HW113409   3.242   1.850   7.545
 4222SOL    HW213410   3.128   1.884   7.638
 4223SOL     OW13411   1.913   2.941   7.749
 4223SOL    HW113412   2.006   2.926   7.732
 4223SOL    HW213413   1.878   2.853   7.767
 4224SOL     OW13414   2.754   3.513   7.782
 4224SOL    HW113415   2.678   3.489   7.729
 4224SOL    HW213416   2.720   3.576   7.845
 4225SOL     OW13417   2.083   4.347   0.121
 4225SOL    HW113418   2.002   4.314   0.160
 4225SOL    HW213419   2.103   4.285   0.052
 4226SOL     OW13420   2.087   4.005   0.992
 4226SOL    HW113421   2.115   3.971   1.076
 4226SOL    HW213422   1.997   3.973   0.982
 4227SOL     OW13423   1.866   4.107   0.638
 4227SOL    HW113424   1.784   4.132   0.679
 4227SOL    HW213425   1.846   4.027   0.590
 4228SOL     OW13426   2.428   5.005   1.178
 4228SOL    HW113427   2.343   5.003   1.134
 4228SOL    HW213428   2.440   5.096   1.205
 4229SOL     OW13429   3.417   5.232   0.688
 4229SOL    HW113430   3.393   5.229   0.780
 4229SOL    HW213431   3.340   5.269   0.644
 4230SOL     OW13432   2.992   4.422   0.702
 4230SOL    HW113433   3.041   4.503   0.687
 4230SOL    HW213434   2.945   4.437   0.784
 4231SOL     OW13435   3.631   4.325   0.233
 4231SOL    HW113436   3.593   4.325   0.145
 4231SOL    HW213437   3.591   4.249   0.275
 4232SOL     OW13438   2.619   4.868   1.038
 4232SOL    HW113439   2.551   4.900   1.097
 4232SOL    HW213440   2.649   4.947   0.992
 4233SOL     OW13441   2.728   4.500   1.822
 4233SOL    HW113442   2.714   4.572   1.884
 4233SOL    HW213443   2.751   4.543   1.740
 4234SOL     OW13444   2.546   4.726   0.651
 4234SOL    HW113445   2.612   4.715   0.720
 4234SOL    HW213446   2.478   4.780   0.691
 4235SOL     OW13447   2.570   4.873   1.811
 4235SOL    HW113448   2.618   4.952   1.835
 4235SOL    HW213449   2.487   4.904   1.776
 4236SOL     OW13450   2.199   5.152   1.060
 4236SOL    HW113451   2.122   5.108   1.024
 4236SOL    HW213452   2.239   5.196   0.985
 4237SOL     OW13453   3.317   5.220   1.347
 4237SOL    HW113454   3.371   5.293   1.379
 4237SOL    HW213455   3.250   5.208   1.415
 4238SOL     OW13456   2.310   4.122   1.488
 4238SOL    HW113457   2.385   4.063   1.493
 4238SOL    HW213458   2.234   4.066   1.500
 4239SOL     OW13459   3.474   4.172   0.740
 4239SOL    HW113460   3.399   4.196   0.686
 4239SOL    HW213461   3.491   4.249   0.794
 4240SOL     OW13462   2.995   5.072   1.700
 4240SOL    HW113463   3.026   5.072   1.790
 4240SOL    HW213464   2.942   4.993   1.693
 4241SOL     OW13465   2.070   5.155   0.516
 4241SOL    HW113466   2.097   5.238   0.555
 4241SOL    HW213467   2.018   5.112   0.584
 4242SOL     OW13468   2.119   4.811   0.891
 4242SOL    HW113469   2.116   4.724   0.931
 4242SOL    HW213470   2.061   4.865   0.946
 4243SOL     OW13471   2.492   4.686   0.131
 4243SOL    HW113472   2.441   4.762   0.106
 4243SOL    HW213473   2.540   4.713   0.209
 4244SOL     OW13474   3.458   3.847   1.468
 4244SOL    HW113475   3.464   3.927   1.417
 4244SOL    HW213476   3.445   3.877   1.558
 4245SOL     OW13477   1.977   4.374   0.562
 4245SOL    HW113478   1.946   4.286   0.583
 4245SOL    HW213479   1.968   4.423   0.644
 4246SOL     OW13480   1.840   0.019   0.096
 4246SOL    HW113481   1.856   5.229   0.124
 4246SOL    HW213482   1.869   0.073   0.169
 4247SOL     OW13483   3.549   4.641   0.642
 4247SOL    HW113484   3.633   4.601   0.621
 4247SOL    HW213485   3.528   4.694   0.565
 4248SOL     OW13486   3.508   4.830   0.434
 4248SOL    HW113487   3.589   4.842   0.385
 4248SOL    HW213488   3.514   4.891   0.507
 4249SOL     OW13489   1.985   4.466   1.586
 4249SOL    HW113490   2.077   4.491   1.595
 4249SOL    HW213491   1.937   4.549   1.594
 4250SOL     OW13492   2.484   5.098   0.737
 4250SOL    HW113493   2.429   5.019   0.735
 4250SOL    HW213494   2.466   5.142   0.654
 4251SOL     OW13495   3.151   4.955   1.426
 4251SOL    HW113496   3.186   4.889   1.365
 4251SOL    HW213497   3.210   4.952   1.501
 4252SOL     OW13498   2.677   3.725   0.508
 4252SOL    HW113499   2.716   3.810   0.488
 4252SOL    HW213500   2.583   3.744   0.518
 4253SOL     OW13501   2.053   4.691   1.269
 4253SOL    HW113502   2.137   4.648   1.255
 4253SOL    HW213503   1.989   4.635   1.224
 4254SOL     OW13504   3.372   4.733   0.210
 4254SOL    HW113505   3.312   4.666   0.241
 4254SOL    HW213506   3.425   4.757   0.286
 4255SOL     OW13507   2.195   3.974   1.811
 4255SOL    HW113508   2.239   4.057   1.826
 4255SOL    HW213509   2.105   3.989   1.842
 4256SOL     OW13510   3.338   5.146   0.963
 4256SOL    HW113511   3.265   5.159   1.023
 4256SOL    HW213512   3.326   5.058   0.928
 4257SOL     OW13513   2.460   4.438   0.282
 4257SOL    HW113514   2.479   4.515   0.228
 4257SOL    HW213515   2.395   4.469   0.346
 4258SOL     OW13516   3.141   4.075   0.932
 4258SOL    HW113517   3.052   4.042   0.941
 4258SOL    HW213518   3.192   4.022   0.994
 4259SOL     OW13519   2.654   4.341   1.451
 4259SOL    HW113520   2.628   4.318   1.540
 4259SOL    HW213521   2.613   4.275   1.396
 4260SOL     OW13522   3.255   4.198   1.678
 4260SOL    HW113523   3.258   4.242   1.762
 4260SOL    HW213524   3.318   4.126   1.687
 4261SOL     OW13525   2.817   4.612   1.582
 4261SOL    HW113526   2.872   4.542   1.547
 4261SOL    HW213527   2.770   4.646   1.506
 4262SOL     OW13528   2.854   4.137   1.239
 4262SOL    HW113529   2.769   4.159   1.277
 4262SOL    HW213530   2.833   4.090   1.158
 4263SOL     OW13531   2.914   4.422   0.427
 4263SOL    HW113532   2.929   4.416   0.522
 4263SOL    HW213533   2.831   4.376   0.413
 4264SOL     OW13534   1.951   4.545   0.775
 4264SOL    HW113535   2.032   4.538   0.826
 4264SOL    HW213536   1.907   4.622   0.811
 4265SOL     OW13537   2.746   4.081   0.201
 4265SOL    HW113538   2.791   4.130   0.132
 4265SOL    HW213539   2.747   3.991   0.170
 4266SOL     OW13540   3.571   4.299   1.828
 4266SOL    HW113541   3.533   4.373   1.781
 4266SOL    HW213542   3.598   4.238   1.759
 4267SOL     OW13543   3.238   4.863   0.540
 4267SOL    HW113544   3.318   4.850   0.490
 4267SOL    HW213545   3.187   4.926   0.488
 4268SOL     OW13546   2.412   3.907   0.892
 4268SOL    HW113547   2.414   3.935   0.984
 4268SOL    HW213548   2.414   3.988   0.842
 4269SOL     OW13549   2.880   5.166   0.469
 4269SOL    HW113550   2.804   5.225   0.465
 4269SOL    HW213551   2.900   5.159   0.562
 4270SOL     OW13552   3.662   4.781   0.867
 4270SOL    HW113553   3.604   4.764   0.792
 4270SOL    HW213554   3.602   4.788   0.942
 4271SOL     OW13555   3.112   5.239   1.523
 4271SOL    HW113556   3.075   5.173   1.582
 4271SOL    HW213557   3.041   5.259   1.462
 4272SOL     OW13558   2.190   4.665   0.253
 4272SOL    HW113559   2.260   4.707   0.203
 4272SOL    HW213560   2.189   4.574   0.223
 4273SOL     OW13561   3.340   4.464   0.727
 4273SOL    HW113562   3.331   4.422   0.813
 4273SOL    HW213563   3.416   4.521   0.736
 4274SOL     OW13564   2.326   4.988   1.740
 4274SOL    HW113565   2.299   4.990   1.648
 4274SOL    HW213566   2.244   4.986   1.789
 4275SOL     OW13567   3.018   0.160   0.238
 4275SOL    HW113568   2.934   0.176   0.280
 4275SOL    HW213569   2.997   0.142   0.146
 4276SOL     OW13570   2.062   4.006   1.501
 4276SOL    HW113571   1.980   4.055   1.496
 4276SOL    HW213572   2.045   3.937   1.565
 4277SOL     OW13573   3.492   5.094   0.076
 4277SOL    HW113574   3.454   5.181   0.092
 4277SOL    HW213575   3.417   5.037   0.062
 4278SOL     OW13576   3.269   3.834   0.443
 4278SOL    HW113577   3.259   3.814   0.350
 4278SOL    HW213578   3.363   3.843   0.456
 4279SOL     OW13579   2.248   4.421   0.477
 4279SOL    HW113580   2.273   4.330   0.487
 4279SOL    HW213581   2.155   4.424   0.500
 4280SOL     OW13582   3.398   3.949   1.725
 4280SOL    HW113583   3.407   3.970   1.818
 4280SOL    HW213584   3.329   3.883   1.722
 4281SOL     OW13585   2.491   3.834   0.135
 4281SOL    HW113586   2.586   3.823   0.142
 4281SOL    HW213587   2.471   3.816   0.044
 4282SOL     OW13588   2.629   4.001   1.753
 4282SOL    HW113589   2.704   3.942   1.756
 4282SOL    HW213590   2.580   3.982   1.833
 4283SOL     OW13591   3.203   4.312   1.432
 4283SOL    HW113592   3.233   4.281   1.517
 4283SOL    HW213593   3.239   4.401   1.424
 4284SOL     OW13594   2.674   5.120   0.935
 4284SOL    HW113595   2.755   5.106   0.886
 4284SOL    HW213596   2.606   5.126   0.868
 4285SOL     OW13597   2.789   4.233   0.903
 4285SOL    HW113598   2.766   4.225   0.810
 4285SOL    HW213599   2.821   4.146   0.927
 4286SOL     OW13600   2.411   3.787   0.506
 4286SOL    HW113601   2.331   3.787   0.558
 4286SOL    HW213602   2.405   3.866   0.452
 4287SOL     OW13603   3.288   4.925   0.036
 4287SOL    HW113604   3.317   4.851   0.089
 4287SOL    HW213605   3.202   4.947   0.070
 4288SOL     OW13606   2.172   3.778   0.168
 4288SOL    HW113607   2.236   3.847   0.184
 4288SOL    HW213608   2.209   3.701   0.211
 4289SOL     OW13609   2.801   3.970   0.460
 4289SOL    HW113610   2.773   4.012   0.378
 4289SOL    HW213611   2.895   3.986   0.464
 4290SOL     OW13612   2.942   4.404   1.460
 4290SOL    HW113613   2.873   4.338   1.465
 4290SOL    HW213614   3.023   4.354   1.453
 4291SOL     OW13615   3.124   5.266   0.781
 4291SOL    HW113616   3.088   0.048   0.747
 4291SOL    HW213617   3.169   5.292   0.862
 4292SOL     OW13618   2.327   4.872   0.732
 4292SOL    HW113619   2.258   4.852   0.796
 4292SOL    HW213620   2.286   4.854   0.647
 4293SOL     OW13621   2.894   4.254   0.030
 4293SOL    HW113622   2.851   4.334   0.000
 4293SOL    HW213623   2.956   4.283   0.097
 4294SOL     OW13624   1.940   4.279   1.392
 4294SOL    HW113625   2.032   4.277   1.365
 4294SOL    HW213626   1.936   4.349   1.457
 4295SOL     OW13627   2.421   3.951   1.165
 4295SOL    HW113628   2.463   3.874   1.203
 4295SOL    HW213629   2.331   3.948   1.195
 4296SOL     OW13630   2.729   4.182   0.639
 4296SOL    HW113631   2.687   4.238   0.574
 4296SOL    HW213632   2.751   4.102   0.592
 4297SOL     OW13633   2.878   3.777   0.751
 4297SOL    HW113634   2.818   3.771   0.676
 4297SOL    HW213635   2.856   3.702   0.806
 4298SOL     OW13636   3.299   4.889   0.859
 4298SOL    HW113637   3.232   4.821   0.855
 4298SOL    HW213638   3.324   4.904   0.767
 4299SOL     OW13639   3.329   4.328   0.978
 4299SOL    HW113640   3.278   4.247   0.982
 4299SOL    HW213641   3.389   4.323   1.052
 4300SOL     OW13642   3.710   4.539   0.388
 4300SOL    HW113643   3.762   4.486   0.448
 4300SOL    HW213644   3.679   4.478   0.322
 4301SOL     OW13645   2.329   5.160   0.156
 4301SOL    HW113646   2.281   5.104   0.217
 4301SOL    HW213647   2.365   5.101   0.091
 4302SOL     OW13648   3.531   4.988   0.648
 4302SOL    HW113649   3.625   4.995   0.666
 4302SOL    HW213650   3.497   5.075   0.664
 4303SOL     OW13651   3.260   4.304   0.087
 4303SOL    HW113652   3.198   4.284   0.157
 4303SOL    HW213653   3.317   4.227   0.082
 4304SOL     OW13654   2.380   3.987   0.324
 4304SOL    HW113655   2.429   3.935   0.261
 4304SOL    HW213656   2.368   4.072   0.281
 4305SOL     OW13657   3.614   4.960   1.577
 4305SOL    HW113658   3.700   4.918   1.576
 4305SOL    HW213659   3.632   5.053   1.590
 4306SOL     OW13660   2.927   5.074   1.331
 4306SOL    HW113661   2.848   5.048   1.380
 4306SOL    HW213662   2.999   5.035   1.379
 4307SOL     OW13663   2.987   4.925   1.108
 4307SOL    HW113664   2.937   4.967   1.177
 4307SOL    HW213665   2.944   4.953   1.027
 4308SOL     OW13666   3.491   4.823   1.077
 4308SOL    HW113667   3.486   4.884   1.150
 4308SOL    HW213668   3.413   4.841   1.025
 4309SOL     OW13669   2.780   3.821   1.397
 4309SOL    HW113670   2.803   3.802   1.306
 4309SOL    HW213671   2.859   3.861   1.433
 4310SOL     OW13672   2.846   4.839   1.725
 4310SOL    HW113673   2.754   4.854   1.743
 4310SOL    HW213674   2.847   4.762   1.667
 4311SOL     OW13675   2.571   4.783   0.381
 4311SOL    HW113676   2.556   4.766   0.474
 4311SOL    HW213677   2.651   4.733   0.360
 4312SOL     OW13678   2.280   4.538   1.251
 4312SOL    HW113679   2.349   4.548   1.317
 4312SOL    HW213680   2.245   4.450   1.266
 4313SOL     OW13681   3.128   4.101   1.275
 4313SOL    HW113682   3.161   4.178   1.320
 4313SOL    HW213683   3.038   4.123   1.251
 4314SOL     OW13684   2.206   4.832   0.491
 4314SOL    HW113685   2.210   4.904   0.428
 4314SOL    HW213686   2.216   4.753   0.437
 4315SOL     OW13687   2.415   4.261   0.860
 4315SOL    HW113688   2.431   4.319   0.786
 4315SOL    HW213689   2.480   4.288   0.925
 4316SOL     OW13690   3.119   5.072   0.387
 4316SOL    HW113691   3.173   5.147   0.412
 4316SOL    HW213692   3.030   5.097   0.413
 4317SOL     OW13693   3.131   5.181   1.142
 4317SOL    HW113694   3.190   5.195   1.216
 4317SOL    HW213695   3.086   5.099   1.162
 4318SOL     OW13696   3.445   4.348   0.481
 4318SOL    HW113697   3.396   4.399   0.545
 4318SOL    HW213698   3.481   4.413   0.421
 4319SOL     OW13699   2.210   5.236   1.315
 4319SOL    HW113700   2.199   5.201   1.227
 4319SOL    HW213701   2.303   5.257   1.321
 4320SOL     OW13702   2.276   4.469   1.602
 4320SOL    HW113703   2.338   4.513   1.544
 4320SOL    HW213704   2.316   4.383   1.618
 4321SOL     OW13705   3.462   4.502   1.681
 4321SOL    HW113706   3.376   4.543   1.674
 4321SOL    HW213707   3.515   4.544   1.613
 4322SOL     OW13708   2.858   3.846   1.756
 4322SOL    HW113709   2.913   3.919   1.727
 4322SOL    HW213710   2.906   3.767   1.730
 4323SOL     OW13711   2.360   3.765   1.747
 4323SOL    HW113712   2.317   3.711   1.681
 4323SOL    HW213713   2.300   3.839   1.759
 4324SOL     OW13714   2.445   4.596   1.031
 4324SOL    HW113715   2.475   4.687   1.029
 4324SOL    HW213716   2.389   4.591   1.108
 4325SOL     OW13717   3.220   4.582   1.030
 4325SOL    HW113718   3.138   4.573   0.982
 4325SOL    HW213719   3.260   4.495   1.025
 4326SOL     OW13720   3.067   4.252   0.271
 4326SOL    HW113721   3.074   4.173   0.325
 4326SOL    HW213722   3.024   4.316   0.328
 4327SOL     OW13723   2.161   3.923   1.246
 4327SOL    HW113724   2.124   3.955   1.328
 4327SOL    HW213725   2.142   3.829   1.247
 4328SOL     OW13726   1.914   5.046   1.284
 4328SOL    HW113727   1.939   4.982   1.351
 4328SOL    HW213728   1.949   5.129   1.316
 4329SOL     OW13729   2.586   4.355   1.058
 4329SOL    HW113730   2.661   4.339   1.000
 4329SOL    HW213731   2.558   4.444   1.037
 4330SOL     OW13732   3.596   4.683   1.852
 4330SOL    HW113733   3.550   4.623   1.794
 4330SOL    HW213734   3.537   4.697   1.925
 4331SOL     OW13735   2.164   3.789   0.623
 4331SOL    HW113736   2.146   3.880   0.647
 4331SOL    HW213737   2.172   3.743   0.707
 4332SOL     OW13738   3.482   4.098   0.370
 4332SOL    HW113739   3.506   4.034   0.436
 4332SOL    HW213740   3.456   4.176   0.420
 4333SOL     OW13741   2.889   4.483   0.961
 4333SOL    HW113742   2.887   4.501   1.055
 4333SOL    HW213743   2.863   4.391   0.953
 4334SOL     OW13744   3.716   5.214   1.586
 4334SOL    HW113745   3.713   5.288   1.525
 4334SOL    HW213746   3.785   5.237   1.648
 4335SOL     OW13747   2.215   4.640   1.808
 4335SOL    HW113748   2.297   4.659   1.854
 4335SOL    HW213749   2.239   4.578   1.740
 4336SOL     OW13750   3.382   4.023   0.126
 4336SOL    HW113751   3.332   3.943   0.143
 4336SOL    HW213752   3.421   4.045   0.211
 4337SOL     OW13753   3.156   4.548   0.020
 4337SOL    HW113754   3.195   4.463   0.039
 4337SOL    HW213755   3.216   4.588   8.036
 4338SOL     OW13756   2.920   5.078   0.829
 4338SOL    HW113757   2.926   4.993   0.784
 4338SOL    HW213758   3.006   5.118   0.814
 4339SOL     OW13759   2.171   4.533   0.947
 4339SOL    HW113760   2.264   4.554   0.941
 4339SOL    HW213761   2.169   4.443   0.981
 4340SOL     OW13762   2.194   4.249   1.012
 4340SOL    HW113763   2.158   4.162   0.997
 4340SOL    HW213764   2.270   4.255   0.955
 4341SOL     OW13765   2.996   4.100   1.682
 4341SOL    HW113766   2.949   4.155   1.744
 4341SOL    HW213767   3.084   4.138   1.678
 4342SOL     OW13768   3.023   3.927   1.470
 4342SOL    HW113769   3.012   3.990   1.542
 4342SOL    HW213770   3.062   3.978   1.399
 4343SOL     OW13771   1.873   5.045   0.180
 4343SOL    HW113772   1.784   5.057   0.145
 4343SOL    HW213773   1.871   4.958   0.219
 4344SOL     OW13774   2.846   4.516   1.227
 4344SOL    HW113775   2.902   4.493   1.301
 4344SOL    HW213776   2.760   4.479   1.249
 4345SOL     OW13777   1.898   4.268   1.116
 4345SOL    HW113778   1.979   4.254   1.067
 4345SOL    HW213779   1.926   4.272   1.208
 4346SOL     OW13780   2.053   4.243   1.727
 4346SOL    HW113781   2.110   4.205   1.660
 4346SOL    HW213782   2.010   4.316   1.683
 4347SOL     OW13783   3.238   4.663   1.658
 4347SOL    HW113784   3.259   4.757   1.656
 4347SOL    HW213785   3.235   4.637   1.566
 4348SOL     OW13786   2.680   4.293   0.366
 4348SOL    HW113787   2.689   4.222   0.303
 4348SOL    HW213788   2.604   4.343   0.336
 4349SOL     OW13789   3.504   4.325   1.186
 4349SOL    HW113790   3.494   4.266   1.261
 4349SOL    HW213791   3.591   4.305   1.152
 4350SOL     OW13792   2.068   5.277   1.745
 4350SOL    HW113793   2.055   0.030   1.824
 4350SOL    HW213794   2.081   5.188   1.777
 4351SOL     OW13795   2.561   4.175   1.260
 4351SOL    HW113796   2.509   4.101   1.229
 4351SOL    HW213797   2.559   4.238   1.188
 4352SOL     OW13798   2.330   4.214   0.179
 4352SOL    HW113799   2.397   4.281   0.199
 4352SOL    HW213800   2.247   4.260   0.190
 4353SOL     OW13801   2.008   4.863   1.471
 4353SOL    HW113802   2.010   4.811   1.551
 4353SOL    HW213803   2.025   4.800   1.401
 4354SOL     OW13804   3.189   4.770   1.223
 4354SOL    HW113805   3.213   4.708   1.154
 4354SOL    HW213806   3.118   4.821   1.186
 4355SOL     OW13807   3.169   4.573   0.307
 4355SOL    HW113808   3.091   4.545   0.357
 4355SOL    HW213809   3.144   4.562   0.216
 4356SOL     OW13810   1.955   4.986   1.021
 4356SOL    HW113811   1.934   5.003   1.113
 4356SOL    HW213812   1.875   4.948   0.985
 4357SOL     OW13813   2.613   0.039   1.709
 4357SOL    HW113814   2.521   0.061   1.720
 4357SOL    HW213815   2.633   0.063   1.618
 4358SOL     OW13816   2.767   3.815   0.134
 4358SOL    HW113817   2.786   3.800   0.041
 4358SOL    HW213818   2.831   3.762   0.181
 4359SOL     OW13819   3.580   3.868   0.510
 4359SOL    HW113820   3.653   3.853   0.450
 4359SOL    HW213821   3.565   3.783   0.552
 4360SOL     OW13822   3.139   4.649   0.671
 4360SOL    HW113823   3.213   4.588   0.678
 4360SOL    HW213824   3.173   4.721   0.619
 4361SOL     OW13825   2.681   4.993   1.423
 4361SOL    HW113826   2.652   5.029   1.506
 4361SOL    HW213827   2.606   5.004   1.364
 4362SOL     OW13828   3.702   3.897   0.967
 4362SOL    HW113829   3.731   3.810   0.940
 4362SOL    HW213830   3.616   3.907   0.927
 4363SOL     OW13831   2.124   4.040   0.718
 4363SOL    HW113832   2.039   4.076   0.694
 4363SOL    HW213833   2.121   4.032   0.813
 4364SOL     OW13834   3.004   0.020   0.005
 4364SOL    HW113835   3.018   5.230   0.034
 4364SOL    HW213836   3.006   0.015   7.989
 4365SOL     OW13837   2.687   4.728   1.370
 4365SOL    HW113838   2.733   4.722   1.287
 4365SOL    HW213839   2.690   4.821   1.393
 4366SOL     OW13840   2.781   4.639   0.299
 4366SOL    HW113841   2.836   4.665   0.225
 4366SOL    HW213842   2.828   4.566   0.339
 4367SOL     OW13843   2.228   5.025   1.496
 4367SOL    HW113844   2.216   5.100   1.437
 4367SOL    HW213845   2.152   4.969   1.479
 4368SOL     OW13846   3.474   5.004   1.282
 4368SOL    HW113847   3.532   4.998   1.359
 4368SOL    HW213848   3.412   5.074   1.304
 4369SOL     OW13849   2.915   4.833   0.712
 4369SOL    HW113850   2.843   4.781   0.748
 4369SOL    HW213851   2.976   4.768   0.676
 4370SOL     OW13852   2.883   3.964   0.966
 4370SOL    HW113853   2.878   3.916   0.883
 4370SOL    HW213854   2.878   3.896   1.033
 4371SOL     OW13855   3.583   4.116   1.380
 4371SOL    HW113856   3.655   4.179   1.379
 4371SOL    HW213857   3.613   4.045   1.324
 4372SOL     OW13858   2.126   5.029   0.288
 4372SOL    HW113859   2.044   5.045   0.241
 4372SOL    HW213860   2.118   5.079   0.369
 4373SOL     OW13861   1.974   4.745   1.718
 4373SOL    HW113862   1.898   4.722   1.772
 4373SOL    HW213863   2.049   4.708   1.766
 4374SOL     OW13864   2.536   3.920   1.499
 4374SOL    HW113865   2.620   3.901   1.457
 4374SOL    HW213866   2.559   3.951   1.587
 4375SOL     OW13867   1.920   4.087   0.039
 4375SOL    HW113868   1.845   4.032   0.015
 4375SOL    HW213869   1.967   4.101   8.037
 4376SOL     OW13870   3.292   4.582   1.400
 4376SOL    HW113871   3.244   4.642   1.345
 4376SOL    HW213872   3.382   4.585   1.367
 4377SOL     OW13873   1.933   3.878   0.306
 4377SOL    HW113874   1.917   3.963   0.264
 4377SOL    HW213875   2.017   3.849   0.272
 4378SOL     OW13876   3.044   5.064   0.113
 4378SOL    HW113877   2.949   5.049   0.111
 4378SOL    HW213878   3.067   5.060   0.205
 4379SOL     OW13879   2.481   4.555   1.433
 4379SOL    HW113880   2.537   4.631   1.418
 4379SOL    HW213881   2.542   4.481   1.442
 4380SOL     OW13882   2.580   4.288   1.704
 4380SOL    HW113883   2.619   4.351   1.765
 4380SOL    HW213884   2.609   4.203   1.736
 4381SOL     OW13885   3.335   4.924   1.631
 4381SOL    HW113886   3.322   4.936   1.725
 4381SOL    HW213887   3.429   4.937   1.619
 4382SOL     OW13888   3.532   4.606   1.255
 4382SOL    HW113889   3.525   4.520   1.212
 4382SOL    HW213890   3.522   4.669   1.184
 4383SOL     OW13891   3.079   4.041   0.460
 4383SOL    HW113892   3.145   3.972   0.452
 4383SOL    HW213893   3.107   4.092   0.536
 4384SOL     OW13894   2.451   4.462   0.669
 4384SOL    HW113895   2.491   4.547   0.655
 4384SOL    HW213896   2.382   4.456   0.602
 4385SOL     OW13897   3.625   4.085   1.650
 4385SOL    HW113898   3.608   4.100   1.557
 4385SOL    HW213899   3.553   4.029   1.679
 4386SOL     OW13900   3.606   4.657   1.512
 4386SOL    HW113901   3.604   4.752   1.525
 4386SOL    HW213902   3.591   4.646   1.418
 4387SOL     OW13903   2.770   5.097   0.036
 4387SOL    HW113904   2.710   5.079   0.109
 4387SOL    HW213905   2.724   5.161   8.062
 4388SOL     OW13906   2.729   4.690   0.856
 4388SOL    HW113907   2.779   4.620   0.896
 4388SOL    HW213908   2.695   4.741   0.930
 4389SOL     OW13909   2.942   4.703   0.088
 4389SOL    HW113910   2.922   4.757   0.012
 4389SOL    HW213911   3.018   4.652   0.062
 4390SOL     OW13912   2.085   5.024   1.853
 4390SOL    HW113913   2.017   4.962   1.828
 4390SOL    HW213914   2.074   5.036   1.947
 4391SOL     OW13915   1.948   4.955   0.669
 4391SOL    HW113916   1.946   4.902   0.749
 4391SOL    HW213917   2.017   4.915   0.616
 4392SOL     OW13918   2.532   5.108   1.608
 4392SOL    HW113919   2.457   5.073   1.656
 4392SOL    HW213920   2.563   5.181   1.662
 4393SOL     OW13921   3.674   3.909   1.238
 4393SOL    HW113922   3.686   3.815   1.253
 4393SOL    HW213923   3.684   3.919   1.143
 4394SOL     OW13924   2.287   4.160   0.523
 4394SOL    HW113925   2.320   4.088   0.469
 4394SOL    HW213926   2.243   4.116   0.596
 4395SOL     OW13927   3.569   5.223   1.119
 4395SOL    HW113928   3.495   5.207   1.060
 4395SOL    HW213929   3.576   5.144   1.172
 4396SOL     OW13930   2.191   4.278   1.291
 4396SOL    HW113931   2.247   4.223   1.347
 4396SOL    HW213932   2.211   4.250   1.202
 4397SOL     OW13933   3.294   3.949   1.118
 4397SOL    HW113934   3.320   3.870   1.165
 4397SOL    HW213935   3.242   3.998   1.181
 4398SOL     OW13936   2.871   3.743   1.143
 4398SOL    HW113937   2.816   3.675   1.104
 4398SOL    HW213938   2.958   3.705   1.145
 4399SOL     OW13939   2.656   5.040   0.283
 4399SOL    HW113940   2.601   4.965   0.308
 4399SOL    HW213941   2.715   5.053   0.357
 4400SOL     OW13942   2.484   5.299   1.290
 4400SOL    HW113943   2.491   0.054   1.368
 4400SOL    HW213944   2.574   5.279   1.265
 4401SOL     OW13945   3.218   3.778   0.184
 4401SOL    HW113946   3.240   3.731   0.104
 4401SOL    HW213947   3.133   3.745   0.209
 4402SOL     OW13948   3.158   4.185   0.681
 4402SOL    HW113949   3.106   4.264   0.689
 4402SOL    HW213950   3.155   4.145   0.768
 4403SOL     OW13951   3.448   3.926   0.877
 4403SOL    HW113952   3.387   3.946   0.948
 4403SOL    HW213953   3.448   4.005   0.823
 4404SOL     OW13954   1.903   4.792   0.303
 4404SOL    HW113955   1.998   4.794   0.306
 4404SOL    HW213956   1.879   4.708   0.343
 4405SOL     OW13957   2.092   4.347   1.985
 4405SOL    HW113958   2.002   4.346   2.019
 4405SOL    HW213959   2.083   4.321   1.893
 4406SOL     OW13960   2.087   4.005   2.853
 4406SOL    HW113961   2.115   3.971   2.939
 4406SOL    HW213962   1.997   3.973   2.844
 4407SOL     OW13963   1.866   4.106   2.500
 4407SOL    HW113964   1.784   4.131   2.541
 4407SOL    HW213965   1.846   4.027   2.451
 4408SOL     OW13966   2.428   5.005   3.040
 4408SOL    HW113967   2.343   5.003   2.997
 4408SOL    HW213968   2.439   5.096   3.067
 4409SOL     OW13969   3.417   5.232   2.551
 4409SOL    HW113970   3.396   5.229   2.644
 4409SOL    HW213971   3.338   5.268   2.509
 4410SOL     OW13972   2.992   4.422   2.564
 4410SOL    HW113973   3.041   4.503   2.549
 4410SOL    HW213974   2.945   4.437   2.646
 4411SOL     OW13975   3.628   4.330   2.091
 4411SOL    HW113976   3.608   4.322   1.998
 4411SOL    HW213977   3.593   4.250   2.130
 4412SOL     OW13978   2.619   4.869   2.900
 4412SOL    HW113979   2.551   4.900   2.960
 4412SOL    HW213980   2.649   4.948   2.854
 4413SOL     OW13981   2.728   4.500   3.684
 4413SOL    HW113982   2.714   4.571   3.746
 4413SOL    HW213983   2.751   4.543   3.602
 4414SOL     OW13984   2.548   4.727   2.510
 4414SOL    HW113985   2.613   4.716   2.580
 4414SOL    HW213986   2.479   4.780   2.550
 4415SOL     OW13987   2.570   4.873   3.673
 4415SOL    HW113988   2.618   4.952   3.697
 4415SOL    HW213989   2.487   4.905   3.639
 4416SOL     OW13990   2.199   5.152   2.922
 4416SOL    HW113991   2.122   5.108   2.886
 4416SOL    HW213992   2.239   5.196   2.847
 4417SOL     OW13993   3.317   5.220   3.209
 4417SOL    HW113994   3.371   5.293   3.240
 4417SOL    HW213995   3.250   5.208   3.276
 4418SOL     OW13996   2.310   4.123   3.350
 4418SOL    HW113997   2.385   4.063   3.355
 4418SOL    HW213998   2.234   4.066   3.363
 4419SOL     OW13999   3.474   4.172   2.602
 4419SOL    HW114000   3.399   4.196   2.548
 4419SOL    HW214001   3.491   4.250   2.655
 4420SOL     OW14002   2.995   5.072   3.562
 4420SOL    HW114003   3.026   5.072   3.652
 4420SOL    HW214004   2.942   4.993   3.555
 4421SOL     OW14005   2.072   5.155   2.382
 4421SOL    HW114006   2.098   5.238   2.423
 4421SOL    HW214007   2.020   5.110   2.449
 4422SOL     OW14008   2.119   4.811   2.754
 4422SOL    HW114009   2.117   4.724   2.793
 4422SOL    HW214010   2.061   4.864   2.809
 4423SOL     OW14011   2.448   4.705   1.995
 4423SOL    HW114012   2.494   4.754   1.927
 4423SOL    HW214013   2.487   4.735   2.077
 4424SOL     OW14014   3.456   3.847   3.331
 4424SOL    HW114015   3.465   3.927   3.278
 4424SOL    HW214016   3.444   3.879   3.420
 4425SOL     OW14017   1.977   4.376   2.421
 4425SOL    HW114018   1.947   4.287   2.442
 4425SOL    HW214019   1.969   4.424   2.504
 4426SOL     OW14020   1.849   0.014   1.961
 4426SOL    HW114021   1.865   5.224   1.991
 4426SOL    HW214022   1.871   0.069   2.036
 4427SOL     OW14023   3.550   4.642   2.501
 4427SOL    HW114024   3.635   4.601   2.482
 4427SOL    HW214025   3.530   4.693   2.423
 4428SOL     OW14026   3.507   4.831   2.292
 4428SOL    HW114027   3.592   4.837   2.248
 4428SOL    HW214028   3.514   4.892   2.365
 4429SOL     OW14029   1.985   4.466   3.448
 4429SOL    HW114030   2.077   4.491   3.457
 4429SOL    HW214031   1.937   4.549   3.456
 4430SOL     OW14032   2.484   5.097   2.598
 4430SOL    HW114033   2.430   5.018   2.597
 4430SOL    HW214034   2.464   5.141   2.515
 4431SOL     OW14035   3.151   4.955   3.288
 4431SOL    HW114036   3.186   4.889   3.227
 4431SOL    HW214037   3.210   4.952   3.363
 4432SOL     OW14038   2.676   3.723   2.368
 4432SOL    HW114039   2.717   3.808   2.350
 4432SOL    HW214040   2.583   3.743   2.379
 4433SOL     OW14041   2.053   4.691   3.131
 4433SOL    HW114042   2.137   4.648   3.117
 4433SOL    HW214043   1.989   4.635   3.086
 4434SOL     OW14044   3.393   4.718   2.059
 4434SOL    HW114045   3.323   4.660   2.091
 4434SOL    HW214046   3.434   4.752   2.138
 4435SOL     OW14047   2.192   3.978   3.672
 4435SOL    HW114048   2.237   4.060   3.690
 4435SOL    HW214049   2.103   3.991   3.705
 4436SOL     OW14050   3.338   5.146   2.824
 4436SOL    HW114051   3.265   5.159   2.885
 4436SOL    HW214052   3.325   5.058   2.790
 4437SOL     OW14053   2.458   4.446   2.128
 4437SOL    HW114054   2.464   4.527   2.077
 4437SOL    HW214055   2.393   4.465   2.195
 4438SOL     OW14056   3.141   4.076   2.795
 4438SOL    HW114057   3.052   4.042   2.803
 4438SOL    HW214058   3.192   4.023   2.856
 4439SOL     OW14059   2.655   4.341   3.313
 4439SOL    HW114060   2.628   4.318   3.402
 4439SOL    HW214061   2.614   4.275   3.258
 4440SOL     OW14062   3.255   4.198   3.540
 4440SOL    HW114063   3.257   4.243   3.624
 4440SOL    HW214064   3.319   4.127   3.549
 4441SOL     OW14065   2.817   4.612   3.444
 4441SOL    HW114066   2.872   4.542   3.409
 4441SOL    HW214067   2.770   4.646   3.368
 4442SOL     OW14068   2.854   4.136   3.101
 4442SOL    HW114069   2.769   4.159   3.139
 4442SOL    HW214070   2.833   4.091   3.019
 4443SOL     OW14071   2.913   4.422   2.288
 4443SOL    HW114072   2.928   4.415   2.382
 4443SOL    HW214073   2.830   4.376   2.274
 4444SOL     OW14074   1.950   4.545   2.638
 4444SOL    HW114075   2.031   4.538   2.688
 4444SOL    HW214076   1.907   4.622   2.673
 4445SOL     OW14077   2.754   4.072   2.056
 4445SOL    HW114078   2.795   4.134   1.996
 4445SOL    HW214079   2.771   3.986   2.017
 4446SOL     OW14080   3.570   4.299   3.690
 4446SOL    HW114081   3.533   4.373   3.643
 4446SOL    HW214082   3.599   4.239   3.621
 4447SOL     OW14083   3.238   4.864   2.402
 4447SOL    HW114084   3.320   4.850   2.353
 4447SOL    HW214085   3.188   4.925   2.348
 4448SOL     OW14086   2.412   3.906   2.754
 4448SOL    HW114087   2.414   3.935   2.846
 4448SOL    HW214088   2.413   3.987   2.704
 4449SOL     OW14089   2.884   5.171   2.332
 4449SOL    HW114090   2.805   5.225   2.325
 4449SOL    HW214091   2.899   5.161   2.426
 4450SOL     OW14092   3.662   4.781   2.728
 4450SOL    HW114093   3.605   4.765   2.653
 4450SOL    HW214094   3.602   4.788   2.803
 4451SOL     OW14095   3.112   5.239   3.385
 4451SOL    HW114096   3.075   5.173   3.444
 4451SOL    HW214097   3.041   5.259   3.324
 4452SOL     OW14098   2.183   4.680   2.112
 4452SOL    HW114099   2.265   4.699   2.066
 4452SOL    HW214100   2.152   4.599   2.072
 4453SOL     OW14101   3.339   4.465   2.590
 4453SOL    HW114102   3.331   4.422   2.675
 4453SOL    HW214103   3.417   4.521   2.598
 4454SOL     OW14104   2.326   4.987   3.602
 4454SOL    HW114105   2.299   4.990   3.510
 4454SOL    HW214106   2.244   4.986   3.651
 4455SOL     OW14107   2.936   0.182   2.069
 4455SOL    HW114108   2.938   0.106   2.127
 4455SOL    HW214109   2.966   0.148   1.985
 4456SOL     OW14110   2.062   4.006   3.363
 4456SOL    HW114111   1.981   4.055   3.357
 4456SOL    HW214112   2.044   3.938   3.428
 4457SOL     OW14113   3.485   5.100   1.969
 4457SOL    HW114114   3.481   5.178   1.913
 4457SOL    HW214115   3.416   5.042   1.935
 4458SOL     OW14116   3.263   3.831   2.295
 4458SOL    HW114117   3.253   3.807   2.203
 4458SOL    HW214118   3.358   3.839   2.307
 4459SOL     OW14119   2.254   4.419   2.339
 4459SOL    HW114120   2.276   4.327   2.350
 4459SOL    HW214121   2.160   4.425   2.356
 4460SOL     OW14122   3.399   3.949   3.587
 4460SOL    HW114123   3.408   3.970   3.680
 4460SOL    HW214124   3.327   3.886   3.584
 4461SOL     OW14125   2.495   3.846   1.968
 4461SOL    HW114126   2.567   3.784   1.979
 4461SOL    HW214127   2.447   3.815   1.892
 4462SOL     OW14128   2.629   4.000   3.616
 4462SOL    HW114129   2.704   3.941   3.619
 4462SOL    HW214130   2.579   3.980   3.695
 4463SOL     OW14131   3.203   4.312   3.294
 4463SOL    HW114132   3.233   4.282   3.379
 4463SOL    HW214133   3.239   4.401   3.286
 4464SOL     OW14134   2.674   5.121   2.797
 4464SOL    HW114135   2.754   5.106   2.747
 4464SOL    HW214136   2.605   5.126   2.730
 4465SOL     OW14137   2.790   4.233   2.765
 4465SOL    HW114138   2.766   4.225   2.673
 4465SOL    HW214139   2.821   4.146   2.790
 4466SOL     OW14140   2.411   3.787   2.364
 4466SOL    HW114141   2.330   3.788   2.416
 4466SOL    HW214142   2.405   3.866   2.310
 4467SOL     OW14143   3.290   4.924   1.901
 4467SOL    HW114144   3.320   4.848   1.951
 4467SOL    HW214145   3.202   4.941   1.935
 4468SOL     OW14146   2.154   3.771   2.047
 4468SOL    HW114147   2.213   3.836   2.007
 4468SOL    HW214148   2.213   3.708   2.088
 4469SOL     OW14149   2.800   3.969   2.323
 4469SOL    HW114150   2.772   4.011   2.241
 4469SOL    HW214151   2.894   3.983   2.327
 4470SOL     OW14152   2.942   4.405   3.322
 4470SOL    HW114153   2.873   4.338   3.326
 4470SOL    HW214154   3.023   4.354   3.315
 4471SOL     OW14155   3.126   5.267   2.641
 4471SOL    HW114156   3.086   0.049   2.612
 4471SOL    HW214157   3.170   5.290   2.723
 4472SOL     OW14158   2.327   4.872   2.594
 4472SOL    HW114159   2.258   4.852   2.657
 4472SOL    HW214160   2.288   4.854   2.508
 4473SOL     OW14161   2.885   4.267   1.884
 4473SOL    HW114162   2.843   4.350   1.864
 4473SOL    HW214163   2.951   4.288   1.950
 4474SOL     OW14164   1.941   4.279   3.254
 4474SOL    HW114165   2.032   4.277   3.227
 4474SOL    HW214166   1.936   4.349   3.319
 4475SOL     OW14167   2.421   3.952   3.027
 4475SOL    HW114168   2.461   3.873   3.062
 4475SOL    HW214169   2.331   3.949   3.057
 4476SOL     OW14170   2.729   4.183   2.502
 4476SOL    HW114171   2.684   4.238   2.438
 4476SOL    HW214172   2.751   4.102   2.454
 4477SOL     OW14173   2.879   3.779   2.613
 4477SOL    HW114174   2.820   3.773   2.537
 4477SOL    HW214175   2.856   3.703   2.667
 4478SOL     OW14176   3.299   4.890   2.721
 4478SOL    HW114177   3.233   4.821   2.717
 4478SOL    HW214178   3.325   4.903   2.630
 4479SOL     OW14179   3.328   4.329   2.840
 4479SOL    HW114180   3.279   4.247   2.843
 4479SOL    HW214181   3.388   4.323   2.914
 4480SOL     OW14182   3.708   4.540   2.244
 4480SOL    HW114183   3.764   4.489   2.302
 4480SOL    HW214184   3.679   4.478   2.177
 4481SOL     OW14185   2.344   5.146   2.017
 4481SOL    HW114186   2.281   5.095   2.068
 4481SOL    HW214187   2.343   5.105   1.930
 4482SOL     OW14188   3.531   4.987   2.510
 4482SOL    HW114189   3.625   4.993   2.526
 4482SOL    HW214190   3.497   5.075   2.526
 4483SOL     OW14191   3.256   4.296   1.933
 4483SOL    HW114192   3.195   4.276   2.005
 4483SOL    HW214193   3.341   4.264   1.964
 4484SOL     OW14194   2.388   3.987   2.181
 4484SOL    HW114195   2.431   3.939   2.111
 4484SOL    HW214196   2.366   4.072   2.142
 4485SOL     OW14197   3.614   4.959   3.439
 4485SOL    HW114198   3.700   4.918   3.438
 4485SOL    HW214199   3.632   5.052   3.452
 4486SOL     OW14200   2.926   5.074   3.193
 4486SOL    HW114201   2.848   5.049   3.242
 4486SOL    HW214202   2.999   5.035   3.241
 4487SOL     OW14203   2.987   4.925   2.970
 4487SOL    HW114204   2.937   4.966   3.040
 4487SOL    HW214205   2.943   4.952   2.889
 4488SOL     OW14206   3.491   4.823   2.939
 4488SOL    HW114207   3.486   4.884   3.012
 4488SOL    HW214208   3.413   4.841   2.887
 4489SOL     OW14209   2.778   3.835   3.253
 4489SOL    HW114210   2.803   3.813   3.163
 4489SOL    HW214211   2.858   3.870   3.292
 4490SOL     OW14212   2.846   4.839   3.587
 4490SOL    HW114213   2.754   4.855   3.605
 4490SOL    HW214214   2.847   4.762   3.529
 4491SOL     OW14215   2.567   4.782   2.234
 4491SOL    HW114216   2.555   4.767   2.328
 4491SOL    HW214217   2.644   4.731   2.211
 4492SOL     OW14218   2.280   4.538   3.113
 4492SOL    HW114219   2.349   4.548   3.180
 4492SOL    HW214220   2.245   4.451   3.128
 4493SOL     OW14221   3.128   4.101   3.137
 4493SOL    HW114222   3.161   4.178   3.183
 4493SOL    HW214223   3.038   4.123   3.113
 4494SOL     OW14224   2.210   4.832   2.351
 4494SOL    HW114225   2.213   4.905   2.290
 4494SOL    HW214226   2.210   4.754   2.296
 4495SOL     OW14227   2.415   4.261   2.722
 4495SOL    HW114228   2.431   4.319   2.648
 4495SOL    HW214229   2.480   4.288   2.787
 4496SOL     OW14230   3.121   5.076   2.248
 4496SOL    HW114231   3.177   5.144   2.285
 4496SOL    HW214232   3.033   5.099   2.277
 4497SOL     OW14233   3.131   5.181   3.004
 4497SOL    HW114234   3.190   5.195   3.077
 4497SOL    HW214235   3.087   5.099   3.024
 4498SOL     OW14236   3.444   4.347   2.340
 4498SOL    HW114237   3.398   4.402   2.404
 4498SOL    HW214238   3.490   4.409   2.284
 4499SOL     OW14239   2.210   5.236   3.177
 4499SOL    HW114240   2.199   5.201   3.089
 4499SOL    HW214241   2.303   5.257   3.183
 4500SOL     OW14242   2.276   4.469   3.464
 4500SOL    HW114243   2.338   4.513   3.406
 4500SOL    HW214244   2.315   4.383   3.480
 4501SOL     OW14245   3.462   4.502   3.543
 4501SOL    HW114246   3.376   4.544   3.536
 4501SOL    HW214247   3.515   4.544   3.475
 4502SOL     OW14248   2.859   3.848   3.618
 4502SOL    HW114249   2.912   3.923   3.590
 4502SOL    HW214250   2.911   3.772   3.591
 4503SOL     OW14251   2.353   3.774   3.604
 4503SOL    HW114252   2.306   3.717   3.544
 4503SOL    HW214253   2.294   3.847   3.619
 4504SOL     OW14254   2.445   4.596   2.893
 4504SOL    HW114255   2.475   4.687   2.891
 4504SOL    HW214256   2.389   4.591   2.970
 4505SOL     OW14257   3.220   4.582   2.892
 4505SOL    HW114258   3.138   4.573   2.844
 4505SOL    HW214259   3.260   4.495   2.887
 4506SOL     OW14260   3.067   4.252   2.129
 4506SOL    HW114261   3.075   4.174   2.184
 4506SOL    HW214262   3.024   4.317   2.186
 4507SOL     OW14263   2.162   3.925   3.109
 4507SOL    HW114264   2.124   3.957   3.191
 4507SOL    HW214265   2.143   3.831   3.108
 4508SOL     OW14266   1.914   5.046   3.146
 4508SOL    HW114267   1.939   4.982   3.213
 4508SOL    HW214268   1.949   5.129   3.178
 4509SOL     OW14269   2.586   4.355   2.920
 4509SOL    HW114270   2.661   4.339   2.862
 4509SOL    HW214271   2.558   4.444   2.899
 4510SOL     OW14272   3.596   4.683   3.714
 4510SOL    HW114273   3.550   4.623   3.656
 4510SOL    HW214274   3.537   4.697   3.787
 4511SOL     OW14275   2.165   3.789   2.485
 4511SOL    HW114276   2.146   3.880   2.508
 4511SOL    HW214277   2.172   3.743   2.569
 4512SOL     OW14278   3.477   4.097   2.230
 4512SOL    HW114279   3.505   4.034   2.296
 4512SOL    HW214280   3.455   4.176   2.280
 4513SOL     OW14281   2.889   4.483   2.823
 4513SOL    HW114282   2.887   4.501   2.917
 4513SOL    HW214283   2.863   4.391   2.815
 4514SOL     OW14284   3.716   5.214   3.447
 4514SOL    HW114285   3.713   5.288   3.387
 4514SOL    HW214286   3.785   5.237   3.510
 4515SOL     OW14287   2.215   4.640   3.670
 4515SOL    HW114288   2.297   4.659   3.716
 4515SOL    HW214289   2.239   4.578   3.602
 4516SOL     OW14290   3.392   3.997   1.989
 4516SOL    HW114291   3.327   3.932   2.016
 4516SOL    HW214292   3.424   4.033   2.072
 4517SOL     OW14293   3.154   4.550   1.893
 4517SOL    HW114294   3.197   4.465   1.897
 4517SOL    HW214295   3.185   4.590   1.812
 4518SOL     OW14296   2.920   5.078   2.689
 4518SOL    HW114297   2.925   4.993   2.645
 4518SOL    HW214298   3.006   5.117   2.676
 4519SOL     OW14299   2.171   4.533   2.810
 4519SOL    HW114300   2.264   4.554   2.803
 4519SOL    HW214301   2.169   4.443   2.843
 4520SOL     OW14302   2.194   4.249   2.874
 4520SOL    HW114303   2.158   4.162   2.859
 4520SOL    HW214304   2.270   4.255   2.817
 4521SOL     OW14305   2.996   4.099   3.544
 4521SOL    HW114306   2.949   4.155   3.606
 4521SOL    HW214307   3.084   4.138   3.540
 4522SOL     OW14308   3.024   3.927   3.332
 4522SOL    HW114309   3.013   3.989   3.404
 4522SOL    HW214310   3.063   3.977   3.261
 4523SOL     OW14311   1.868   5.041   2.053
 4523SOL    HW114312   1.778   5.058   2.025
 4523SOL    HW214313   1.866   4.953   2.090
 4524SOL     OW14314   2.846   4.516   3.089
 4524SOL    HW114315   2.902   4.493   3.163
 4524SOL    HW214316   2.760   4.480   3.111
 4525SOL     OW14317   1.898   4.268   2.979
 4525SOL    HW114318   1.978   4.254   2.929
 4525SOL    HW214319   1.926   4.272   3.070
 4526SOL     OW14320   2.053   4.243   3.589
 4526SOL    HW114321   2.109   4.205   3.522
 4526SOL    HW214322   2.010   4.316   3.545
 4527SOL     OW14323   3.239   4.663   3.520
 4527SOL    HW114324   3.259   4.757   3.518
 4527SOL    HW214325   3.235   4.637   3.428
 4528SOL     OW14326   2.678   4.293   2.221
 4528SOL    HW114327   2.681   4.218   2.161
 4528SOL    HW214328   2.604   4.345   2.190
 4529SOL     OW14329   3.504   4.325   3.049
 4529SOL    HW114330   3.494   4.266   3.123
 4529SOL    HW214331   3.591   4.305   3.014
 4530SOL     OW14332   2.069   5.277   3.607
 4530SOL    HW114333   2.055   0.030   3.686
 4530SOL    HW214334   2.081   5.188   3.639
 4531SOL     OW14335   2.562   4.175   3.122
 4531SOL    HW114336   2.509   4.101   3.091
 4531SOL    HW214337   2.559   4.238   3.050
 4532SOL     OW14338   2.327   4.216   2.050
 4532SOL    HW114339   2.385   4.290   2.071
 4532SOL    HW214340   2.241   4.257   2.037
 4533SOL     OW14341   2.008   4.863   3.333
 4533SOL    HW114342   2.010   4.811   3.413
 4533SOL    HW214343   2.025   4.800   3.263
 4534SOL     OW14344   3.190   4.770   3.085
 4534SOL    HW114345   3.213   4.707   3.016
 4534SOL    HW214346   3.118   4.821   3.048
 4535SOL     OW14347   3.172   4.581   2.168
 4535SOL    HW114348   3.096   4.550   2.218
 4535SOL    HW214349   3.148   4.567   2.077
 4536SOL     OW14350   1.955   4.986   2.883
 4536SOL    HW114351   1.934   5.003   2.975
 4536SOL    HW214352   1.875   4.948   2.847
 4537SOL     OW14353   2.613   0.039   3.571
 4537SOL    HW114354   2.521   0.061   3.582
 4537SOL    HW214355   2.632   0.063   3.480
 4538SOL     OW14356   3.581   3.870   2.372
 4538SOL    HW114357   3.654   3.855   2.312
 4538SOL    HW214358   3.565   3.784   2.412
 4539SOL     OW14359   3.139   4.649   2.533
 4539SOL    HW114360   3.212   4.588   2.540
 4539SOL    HW214361   3.173   4.721   2.481
 4540SOL     OW14362   2.681   4.993   3.284
 4540SOL    HW114363   2.653   5.029   3.368
 4540SOL    HW214364   2.606   5.004   3.226
 4541SOL     OW14365   3.702   3.897   2.829
 4541SOL    HW114366   3.731   3.810   2.801
 4541SOL    HW214367   3.616   3.907   2.789
 4542SOL     OW14368   2.124   4.040   2.579
 4542SOL    HW114369   2.039   4.076   2.555
 4542SOL    HW214370   2.121   4.032   2.674
 4543SOL     OW14371   2.687   4.728   3.232
 4543SOL    HW114372   2.732   4.722   3.149
 4543SOL    HW214373   2.690   4.821   3.255
 4544SOL     OW14374   2.778   4.635   2.153
 4544SOL    HW114375   2.839   4.667   2.086
 4544SOL    HW214376   2.826   4.565   2.197
 4545SOL     OW14377   2.228   5.025   3.358
 4545SOL    HW114378   2.216   5.100   3.299
 4545SOL    HW214379   2.152   4.969   3.341
 4546SOL     OW14380   3.474   5.004   3.144
 4546SOL    HW114381   3.532   4.998   3.221
 4546SOL    HW214382   3.412   5.074   3.166
 4547SOL     OW14383   2.915   4.833   2.573
 4547SOL    HW114384   2.843   4.782   2.609
 4547SOL    HW214385   2.976   4.768   2.539
 4548SOL     OW14386   2.883   3.964   2.828
 4548SOL    HW114387   2.879   3.916   2.745
 4548SOL    HW214388   2.877   3.895   2.895
 4549SOL     OW14389   3.583   4.116   3.243
 4549SOL    HW114390   3.655   4.179   3.241
 4549SOL    HW214391   3.613   4.045   3.186
 4550SOL     OW14392   2.120   5.053   2.144
 4550SOL    HW114393   2.028   5.055   2.117
 4550SOL    HW214394   2.121   5.095   2.230
 4551SOL     OW14395   1.974   4.745   3.580
 4551SOL    HW114396   1.898   4.722   3.633
 4551SOL    HW214397   2.049   4.708   3.628
 4552SOL     OW14398   2.536   3.924   3.362
 4552SOL    HW114399   2.619   3.908   3.318
 4552SOL    HW214400   2.560   3.955   3.450
 4553SOL     OW14401   1.940   4.058   1.897
 4553SOL    HW114402   1.853   4.038   1.863
 4553SOL    HW214403   1.970   4.133   1.845
 4554SOL     OW14404   3.292   4.582   3.262
 4554SOL    HW114405   3.244   4.642   3.207
 4554SOL    HW214406   3.382   4.584   3.229
 4555SOL     OW14407   1.931   3.881   2.173
 4555SOL    HW114408   1.916   3.960   2.122
 4555SOL    HW214409   2.016   3.848   2.143
 4556SOL     OW14410   3.044   5.064   1.982
 4556SOL    HW114411   2.953   5.036   1.983
 4556SOL    HW214412   3.072   5.056   2.073
 4557SOL     OW14413   2.481   4.555   3.295
 4557SOL    HW114414   2.537   4.631   3.280
 4557SOL    HW214415   2.542   4.481   3.304
 4558SOL     OW14416   2.580   4.288   3.566
 4558SOL    HW114417   2.619   4.351   3.627
 4558SOL    HW214418   2.609   4.203   3.599
 4559SOL     OW14419   3.335   4.924   3.493
 4559SOL    HW114420   3.321   4.936   3.587
 4559SOL    HW214421   3.429   4.937   3.481
 4560SOL     OW14422   3.532   4.606   3.117
 4560SOL    HW114423   3.525   4.520   3.074
 4560SOL    HW214424   3.522   4.669   3.046
 4561SOL     OW14425   3.079   4.043   2.320
 4561SOL    HW114426   3.142   3.972   2.311
 4561SOL    HW214427   3.108   4.092   2.397
 4562SOL     OW14428   2.452   4.462   2.531
 4562SOL    HW114429   2.491   4.548   2.516
 4562SOL    HW214430   2.384   4.454   2.465
 4563SOL     OW14431   3.626   4.085   3.512
 4563SOL    HW114432   3.609   4.100   3.419
 4563SOL    HW214433   3.554   4.029   3.541
 4564SOL     OW14434   3.606   4.657   3.374
 4564SOL    HW114435   3.604   4.752   3.387
 4564SOL    HW214436   3.591   4.646   3.280
 4565SOL     OW14437   2.712   5.095   1.881
 4565SOL    HW114438   2.692   5.096   1.975
 4565SOL    HW214439   2.729   5.186   1.859
 4566SOL     OW14440   2.729   4.691   2.718
 4566SOL    HW114441   2.779   4.620   2.758
 4566SOL    HW214442   2.695   4.741   2.792
 4567SOL     OW14443   2.942   4.713   1.951
 4567SOL    HW114444   2.919   4.763   1.873
 4567SOL    HW214445   3.017   4.659   1.925
 4568SOL     OW14446   2.085   5.024   3.715
 4568SOL    HW114447   2.017   4.962   3.690
 4568SOL    HW214448   2.074   5.036   3.809
 4569SOL     OW14449   1.947   4.956   2.532
 4569SOL    HW114450   1.946   4.903   2.612
 4569SOL    HW214451   2.011   4.913   2.475
 4570SOL     OW14452   2.532   5.108   3.470
 4570SOL    HW114453   2.457   5.073   3.518
 4570SOL    HW214454   2.563   5.181   3.524
 4571SOL     OW14455   3.673   3.908   3.100
 4571SOL    HW114456   3.687   3.814   3.114
 4571SOL    HW214457   3.683   3.920   3.005
 4572SOL     OW14458   2.292   4.158   2.388
 4572SOL    HW114459   2.321   4.087   2.330
 4572SOL    HW214460   2.243   4.114   2.458
 4573SOL     OW14461   3.569   5.223   2.981
 4573SOL    HW114462   3.495   5.207   2.922
 4573SOL    HW214463   3.576   5.144   3.034
 4574SOL     OW14464   2.191   4.279   3.153
 4574SOL    HW114465   2.247   4.223   3.208
 4574SOL    HW214466   2.211   4.251   3.064
 4575SOL     OW14467   3.294   3.949   2.980
 4575SOL    HW114468   3.321   3.870   3.027
 4575SOL    HW214469   3.242   3.998   3.044
 4576SOL     OW14470   2.869   3.741   3.006
 4576SOL    HW114471   2.817   3.672   2.966
 4576SOL    HW214472   2.958   3.707   3.008
 4577SOL     OW14473   2.664   5.047   2.146
 4577SOL    HW114474   2.603   4.977   2.164
 4577SOL    HW214475   2.719   5.052   2.225
 4578SOL     OW14476   2.484   5.299   3.152
 4578SOL    HW114477   2.491   0.054   3.230
 4578SOL    HW214478   2.574   5.279   3.128
 4579SOL     OW14479   3.214   3.778   2.027
 4579SOL    HW114480   3.241   3.716   1.960
 4579SOL    HW214481   3.127   3.747   2.054
 4580SOL     OW14482   3.158   4.184   2.543
 4580SOL    HW114483   3.105   4.264   2.551
 4580SOL    HW214484   3.155   4.145   2.630
 4581SOL     OW14485   3.449   3.927   2.740
 4581SOL    HW114486   3.387   3.947   2.810
 4581SOL    HW214487   3.448   4.005   2.684
 4582SOL     OW14488   1.904   4.795   2.169
 4582SOL    HW114489   1.998   4.788   2.152
 4582SOL    HW214490   1.877   4.706   2.191
 4583SOL     OW14491   2.092   4.347   3.847
 4583SOL    HW114492   2.002   4.346   3.881
 4583SOL    HW214493   2.083   4.322   3.755
 4584SOL     OW14494   2.086   4.004   4.716
 4584SOL    HW114495   2.115   3.971   4.801
 4584SOL    HW214496   1.997   3.972   4.706
 4585SOL     OW14497   1.866   4.106   4.362
 4585SOL    HW114498   1.783   4.131   4.403
 4585SOL    HW214499   1.845   4.027   4.313
 4586SOL     OW14500   2.428   5.005   4.902
 4586SOL    HW114501   2.343   5.003   4.858
 4586SOL    HW214502   2.439   5.096   4.929
 4587SOL     OW14503   3.417   5.232   4.413
 4587SOL    HW114504   3.396   5.229   4.506
 4587SOL    HW214505   3.338   5.268   4.371
 4588SOL     OW14506   2.992   4.422   4.426
 4588SOL    HW114507   3.041   4.503   4.411
 4588SOL    HW214508   2.945   4.437   4.508
 4589SOL     OW14509   3.628   4.330   3.953
 4589SOL    HW114510   3.608   4.322   3.860
 4589SOL    HW214511   3.593   4.250   3.992
 4590SOL     OW14512   2.619   4.869   4.762
 4590SOL    HW114513   2.551   4.900   4.821
 4590SOL    HW214514   2.649   4.947   4.716
 4591SOL     OW14515   2.728   4.500   5.546
 4591SOL    HW114516   2.714   4.571   5.608
 4591SOL    HW214517   2.751   4.544   5.464
 4592SOL     OW14518   2.548   4.727   4.372
 4592SOL    HW114519   2.613   4.716   4.442
 4592SOL    HW214520   2.479   4.780   4.412
 4593SOL     OW14521   2.570   4.873   5.535
 4593SOL    HW114522   2.618   4.952   5.559
 4593SOL    HW214523   2.487   4.905   5.501
 4594SOL     OW14524   2.199   5.152   4.784
 4594SOL    HW114525   2.122   5.108   4.748
 4594SOL    HW214526   2.239   5.196   4.709
 4595SOL     OW14527   3.317   5.220   5.071
 4595SOL    HW114528   3.371   5.293   5.102
 4595SOL    HW214529   3.250   5.209   5.138
 4596SOL     OW14530   2.311   4.122   5.211
 4596SOL    HW114531   2.386   4.063   5.217
 4596SOL    HW214532   2.234   4.066   5.224
 4597SOL     OW14533   3.474   4.172   4.464
 4597SOL    HW114534   3.400   4.196   4.409
 4597SOL    HW214535   3.492   4.250   4.517
 4598SOL     OW14536   2.995   5.072   5.424
 4598SOL    HW114537   3.026   5.073   5.514
 4598SOL    HW214538   2.942   4.993   5.417
 4599SOL     OW14539   2.072   5.155   4.244
 4599SOL    HW114540   2.098   5.238   4.285
 4599SOL    HW214541   2.020   5.110   4.311
 4600SOL     OW14542   2.119   4.811   4.616
 4600SOL    HW114543   2.116   4.724   4.655
 4600SOL    HW214544   2.061   4.865   4.671
 4601SOL     OW14545   2.448   4.705   3.857
 4601SOL    HW114546   2.494   4.754   3.789
 4601SOL    HW214547   2.487   4.735   3.939
 4602SOL     OW14548   3.456   3.849   5.191
 4602SOL    HW114549   3.465   3.930   5.142
 4602SOL    HW214550   3.444   3.877   5.282
 4603SOL     OW14551   1.977   4.376   4.283
 4603SOL    HW114552   1.947   4.288   4.304
 4603SOL    HW214553   1.969   4.424   4.366
 4604SOL     OW14554   1.848   0.014   3.823
 4604SOL    HW114555   1.865   5.224   3.853
 4604SOL    HW214556   1.871   0.069   3.898
 4605SOL     OW14557   3.550   4.641   4.363
 4605SOL    HW114558   3.635   4.601   4.344
 4605SOL    HW214559   3.529   4.693   4.285
 4606SOL     OW14560   3.507   4.831   4.154
 4606SOL    HW114561   3.592   4.837   4.110
 4606SOL    HW214562   3.514   4.892   4.227
 4607SOL     OW14563   1.985   4.466   5.310
 4607SOL    HW114564   2.077   4.491   5.319
 4607SOL    HW214565   1.937   4.549   5.318
 4608SOL     OW14566   2.484   5.097   4.460
 4608SOL    HW114567   2.430   5.018   4.459
 4608SOL    HW214568   2.464   5.141   4.377
 4609SOL     OW14569   3.151   4.954   5.150
 4609SOL    HW114570   3.186   4.889   5.089
 4609SOL    HW214571   3.210   4.952   5.225
 4610SOL     OW14572   2.682   3.728   4.243
 4610SOL    HW114573   2.716   3.813   4.216
 4610SOL    HW214574   2.587   3.741   4.245
 4611SOL     OW14575   2.053   4.691   4.993
 4611SOL    HW114576   2.137   4.648   4.979
 4611SOL    HW214577   1.989   4.636   4.948
 4612SOL     OW14578   3.393   4.718   3.921
 4612SOL    HW114579   3.323   4.660   3.953
 4612SOL    HW214580   3.434   4.752   4.000
 4613SOL     OW14581   2.194   3.974   5.533
 4613SOL    HW114582   2.239   4.057   5.551
 4613SOL    HW214583   2.105   3.988   5.566
 4614SOL     OW14584   3.338   5.146   4.686
 4614SOL    HW114585   3.265   5.159   4.747
 4614SOL    HW214586   3.325   5.058   4.652
 4615SOL     OW14587   2.458   4.446   3.989
 4615SOL    HW114588   2.464   4.527   3.939
 4615SOL    HW214589   2.393   4.465   4.057
 4616SOL     OW14590   3.142   4.075   4.656
 4616SOL    HW114591   3.052   4.043   4.664
 4616SOL    HW214592   3.191   4.022   4.718
 4617SOL     OW14593   2.655   4.341   5.175
 4617SOL    HW114594   2.628   4.318   5.264
 4617SOL    HW214595   2.613   4.275   5.120
 4618SOL     OW14596   3.255   4.198   5.402
 4618SOL    HW114597   3.257   4.242   5.486
 4618SOL    HW214598   3.317   4.125   5.412
 4619SOL     OW14599   2.817   4.612   5.306
 4619SOL    HW114600   2.872   4.542   5.271
 4619SOL    HW214601   2.770   4.646   5.230
 4620SOL     OW14602   2.854   4.135   4.963
 4620SOL    HW114603   2.770   4.159   5.002
 4620SOL    HW214604   2.832   4.093   4.880
 4621SOL     OW14605   2.913   4.422   4.150
 4621SOL    HW114606   2.928   4.415   4.244
 4621SOL    HW214607   2.830   4.376   4.136
 4622SOL     OW14608   1.950   4.544   4.500
 4622SOL    HW114609   2.031   4.538   4.550
 4622SOL    HW214610   1.907   4.622   4.535
 4623SOL     OW14611   2.754   4.072   3.919
 4623SOL    HW114612   2.795   4.133   3.858
 4623SOL    HW214613   2.766   3.986   3.879
 4624SOL     OW14614   3.571   4.299   5.552
 4624SOL    HW114615   3.533   4.373   5.505
 4624SOL    HW214616   3.598   4.238   5.483
 4625SOL     OW14617   3.238   4.864   4.264
 4625SOL    HW114618   3.320   4.850   4.215
 4625SOL    HW214619   3.188   4.925   4.210
 4626SOL     OW14620   2.406   3.906   4.617
 4626SOL    HW114621   2.411   3.937   4.708
 4626SOL    HW214622   2.410   3.986   4.564
 4627SOL     OW14623   2.884   5.171   4.194
 4627SOL    HW114624   2.805   5.225   4.187
 4627SOL    HW214625   2.899   5.161   4.288
 4628SOL     OW14626   3.662   4.781   4.590
 4628SOL    HW114627   3.604   4.765   4.515
 4628SOL    HW214628   3.602   4.788   4.665
 4629SOL     OW14629   3.112   5.239   5.247
 4629SOL    HW114630   3.075   5.173   5.306
 4629SOL    HW214631   3.041   5.260   5.187
 4630SOL     OW14632   2.183   4.680   3.974
 4630SOL    HW114633   2.265   4.699   3.928
 4630SOL    HW214634   2.152   4.599   3.934
 4631SOL     OW14635   3.340   4.465   4.452
 4631SOL    HW114636   3.331   4.422   4.537
 4631SOL    HW214637   3.417   4.521   4.460
 4632SOL     OW14638   2.326   4.987   5.464
 4632SOL    HW114639   2.299   4.990   5.372
 4632SOL    HW214640   2.244   4.986   5.513
 4633SOL     OW14641   2.936   0.182   3.931
 4633SOL    HW114642   2.938   0.106   3.990
 4633SOL    HW214643   2.966   0.148   3.847
 4634SOL     OW14644   2.062   4.006   5.225
 4634SOL    HW114645   1.980   4.055   5.219
 4634SOL    HW214646   2.046   3.939   5.291
 4635SOL     OW14647   3.485   5.100   3.831
 4635SOL    HW114648   3.481   5.178   3.776
 4635SOL    HW214649   3.416   5.043   3.797
 4636SOL     OW14650   3.266   3.838   4.154
 4636SOL    HW114651   3.255   3.811   4.063
 4636SOL    HW214652   3.361   3.842   4.167
 4637SOL     OW14653   2.254   4.419   4.201
 4637SOL    HW114654   2.276   4.327   4.212
 4637SOL    HW214655   2.160   4.424   4.218
 4638SOL     OW14656   3.398   3.949   5.449
 4638SOL    HW114657   3.407   3.970   5.542
 4638SOL    HW214658   3.329   3.883   5.447
 4639SOL     OW14659   2.495   3.848   3.827
 4639SOL    HW114660   2.562   3.781   3.842
 4639SOL    HW214661   2.446   3.817   3.751
 4640SOL     OW14662   2.629   4.001   5.478
 4640SOL    HW114663   2.704   3.942   5.481
 4640SOL    HW214664   2.580   3.982   5.558
 4641SOL     OW14665   3.203   4.312   5.156
 4641SOL    HW114666   3.234   4.281   5.241
 4641SOL    HW214667   3.239   4.401   5.148
 4642SOL     OW14668   2.674   5.120   4.659
 4642SOL    HW114669   2.755   5.106   4.609
 4642SOL    HW214670   2.605   5.126   4.592
 4643SOL     OW14671   2.790   4.233   4.627
 4643SOL    HW114672   2.766   4.226   4.535
 4643SOL    HW214673   2.822   4.146   4.651
 4644SOL     OW14674   2.412   3.788   4.227
 4644SOL    HW114675   2.332   3.790   4.279
 4644SOL    HW214676   2.407   3.866   4.172
 4645SOL     OW14677   3.289   4.924   3.763
 4645SOL    HW114678   3.320   4.848   3.813
 4645SOL    HW214679   3.202   4.941   3.797
 4646SOL     OW14680   2.155   3.772   3.908
 4646SOL    HW114681   2.215   3.838   3.872
 4646SOL    HW214682   2.212   3.709   3.951
 4647SOL     OW14683   2.801   3.973   4.185
 4647SOL    HW114684   2.773   4.013   4.102
 4647SOL    HW214685   2.896   3.986   4.187
 4648SOL     OW14686   2.942   4.405   5.184
 4648SOL    HW114687   2.873   4.339   5.189
 4648SOL    HW214688   3.023   4.354   5.177
 4649SOL     OW14689   3.126   5.267   4.503
 4649SOL    HW114690   3.085   0.049   4.474
 4649SOL    HW214691   3.170   5.290   4.585
 4650SOL     OW14692   2.327   4.871   4.456
 4650SOL    HW114693   2.258   4.852   4.519
 4650SOL    HW214694   2.288   4.854   4.370
 4651SOL     OW14695   2.886   4.267   3.746
 4651SOL    HW114696   2.843   4.350   3.725
 4651SOL    HW214697   2.951   4.289   3.812
 4652SOL     OW14698   1.940   4.279   5.116
 4652SOL    HW114699   2.032   4.277   5.089
 4652SOL    HW214700   1.936   4.349   5.181
 4653SOL     OW14701   2.421   3.951   4.889
 4653SOL    HW114702   2.461   3.873   4.926
 4653SOL    HW214703   2.331   3.949   4.919
 4654SOL     OW14704   2.729   4.183   4.364
 4654SOL    HW114705   2.684   4.238   4.300
 4654SOL    HW214706   2.751   4.103   4.316
 4655SOL     OW14707   2.854   3.765   4.487
 4655SOL    HW114708   2.808   3.771   4.403
 4655SOL    HW214709   2.866   3.672   4.502
 4656SOL     OW14710   3.299   4.890   4.583
 4656SOL    HW114711   3.232   4.821   4.579
 4656SOL    HW214712   3.325   4.904   4.492
 4657SOL     OW14713   3.328   4.329   4.702
 4657SOL    HW114714   3.279   4.247   4.705
 4657SOL    HW214715   3.388   4.324   4.776
 4658SOL     OW14716   3.708   4.540   4.106
 4658SOL    HW114717   3.764   4.489   4.164
 4658SOL    HW214718   3.679   4.478   4.039
 4659SOL     OW14719   2.344   5.146   3.879
 4659SOL    HW114720   2.281   5.095   3.930
 4659SOL    HW214721   2.342   5.105   3.792
 4660SOL     OW14722   3.531   4.987   4.372
 4660SOL    HW114723   3.625   4.993   4.388
 4660SOL    HW214724   3.497   5.075   4.388
 4661SOL     OW14725   3.256   4.296   3.795
 4661SOL    HW114726   3.195   4.277   3.867
 4661SOL    HW214727   3.341   4.265   3.826
 4662SOL     OW14728   2.388   3.987   4.042
 4662SOL    HW114729   2.432   3.939   3.972
 4662SOL    HW214730   2.366   4.072   4.004
 4663SOL     OW14731   3.614   4.959   5.301
 4663SOL    HW114732   3.700   4.918   5.300
 4663SOL    HW214733   3.632   5.052   5.314
 4664SOL     OW14734   2.926   5.074   5.054
 4664SOL    HW114735   2.848   5.049   5.104
 4664SOL    HW214736   2.999   5.035   5.103
 4665SOL     OW14737   2.987   4.924   4.831
 4665SOL    HW114738   2.937   4.966   4.902
 4665SOL    HW214739   2.943   4.952   4.751
 4666SOL     OW14740   3.491   4.823   4.801
 4666SOL    HW114741   3.487   4.884   4.874
 4666SOL    HW214742   3.413   4.841   4.749
 4667SOL     OW14743   2.782   3.823   5.121
 4667SOL    HW114744   2.805   3.811   5.029
 4667SOL    HW214745   2.859   3.862   5.161
 4668SOL     OW14746   2.846   4.839   5.449
 4668SOL    HW114747   2.754   4.855   5.467
 4668SOL    HW214748   2.846   4.762   5.391
 4669SOL     OW14749   2.566   4.782   4.096
 4669SOL    HW114750   2.555   4.767   4.190
 4669SOL    HW214751   2.644   4.731   4.073
 4670SOL     OW14752   2.280   4.538   4.975
 4670SOL    HW114753   2.349   4.548   5.041
 4670SOL    HW214754   2.245   4.451   4.990
 4671SOL     OW14755   3.128   4.101   4.998
 4671SOL    HW114756   3.161   4.179   5.044
 4671SOL    HW214757   3.038   4.124   4.975
 4672SOL     OW14758   2.210   4.832   4.213
 4672SOL    HW114759   2.213   4.905   4.152
 4672SOL    HW214760   2.210   4.754   4.158
 4673SOL     OW14761   2.415   4.261   4.584
 4673SOL    HW114762   2.431   4.319   4.510
 4673SOL    HW214763   2.480   4.288   4.650
 4674SOL     OW14764   3.121   5.076   4.110
 4674SOL    HW114765   3.177   5.144   4.148
 4674SOL    HW214766   3.033   5.099   4.139
 4675SOL     OW14767   3.131   5.181   4.866
 4675SOL    HW114768   3.190   5.195   4.939
 4675SOL    HW214769   3.086   5.099   4.886
 4676SOL     OW14770   3.444   4.347   4.202
 4676SOL    HW114771   3.398   4.402   4.266
 4676SOL    HW214772   3.490   4.409   4.146
 4677SOL     OW14773   2.210   5.236   5.039
 4677SOL    HW114774   2.199   5.201   4.951
 4677SOL    HW214775   2.303   5.257   5.045
 4678SOL     OW14776   2.276   4.469   5.326
 4678SOL    HW114777   2.338   4.513   5.268
 4678SOL    HW214778   2.316   4.383   5.342
 4679SOL     OW14779   3.462   4.502   5.405
 4679SOL    HW114780   3.376   4.544   5.398
 4679SOL    HW214781   3.515   4.544   5.337
 4680SOL     OW14782   2.858   3.846   5.479
 4680SOL    HW114783   2.913   3.919   5.452
 4680SOL    HW214784   2.906   3.767   5.453
 4681SOL     OW14785   2.360   3.765   5.471
 4681SOL    HW114786   2.317   3.711   5.404
 4681SOL    HW214787   2.300   3.839   5.483
 4682SOL     OW14788   2.446   4.596   4.756
 4682SOL    HW114789   2.475   4.687   4.753
 4682SOL    HW214790   2.389   4.591   4.832
 4683SOL     OW14791   3.220   4.582   4.753
 4683SOL    HW114792   3.137   4.573   4.706
 4683SOL    HW214793   3.260   4.495   4.749
 4684SOL     OW14794   3.068   4.252   3.992
 4684SOL    HW114795   3.075   4.174   4.046
 4684SOL    HW214796   3.025   4.317   4.047
 4685SOL     OW14797   2.161   3.924   4.971
 4685SOL    HW114798   2.124   3.957   5.052
 4685SOL    HW214799   2.142   3.830   4.972
 4686SOL     OW14800   1.914   5.046   5.008
 4686SOL    HW114801   1.939   4.982   5.075
 4686SOL    HW214802   1.949   5.129   5.040
 4687SOL     OW14803   2.586   4.355   4.782
 4687SOL    HW114804   2.661   4.339   4.724
 4687SOL    HW214805   2.558   4.444   4.761
 4688SOL     OW14806   3.596   4.683   5.576
 4688SOL    HW114807   3.550   4.623   5.518
 4688SOL    HW214808   3.537   4.697   5.649
 4689SOL     OW14809   2.169   3.794   4.350
 4689SOL    HW114810   2.149   3.885   4.373
 4689SOL    HW214811   2.170   3.748   4.433
 4690SOL     OW14812   3.477   4.098   4.091
 4690SOL    HW114813   3.505   4.035   4.157
 4690SOL    HW214814   3.455   4.176   4.141
 4691SOL     OW14815   2.890   4.483   4.685
 4691SOL    HW114816   2.887   4.501   4.779
 4691SOL    HW214817   2.863   4.392   4.677
 4692SOL     OW14818   3.717   5.214   5.309
 4692SOL    HW114819   3.712   5.289   5.249
 4692SOL    HW214820   3.785   5.237   5.372
 4693SOL     OW14821   2.215   4.640   5.532
 4693SOL    HW114822   2.297   4.659   5.578
 4693SOL    HW214823   2.239   4.578   5.464
 4694SOL     OW14824   3.392   3.996   3.851
 4694SOL    HW114825   3.326   3.933   3.879
 4694SOL    HW214826   3.425   4.034   3.933
 4695SOL     OW14827   3.154   4.550   3.755
 4695SOL    HW114828   3.197   4.465   3.759
 4695SOL    HW214829   3.185   4.590   3.674
 4696SOL     OW14830   2.920   5.078   4.551
 4696SOL    HW114831   2.925   4.993   4.507
 4696SOL    HW214832   3.006   5.117   4.538
 4697SOL     OW14833   2.171   4.533   4.672
 4697SOL    HW114834   2.264   4.554   4.665
 4697SOL    HW214835   2.169   4.443   4.705
 4698SOL     OW14836   2.194   4.249   4.736
 4698SOL    HW114837   2.158   4.162   4.721
 4698SOL    HW214838   2.270   4.255   4.679
 4699SOL     OW14839   2.996   4.100   5.406
 4699SOL    HW114840   2.949   4.155   5.468
 4699SOL    HW214841   3.084   4.138   5.402
 4700SOL     OW14842   3.024   3.928   5.194
 4700SOL    HW114843   3.013   3.990   5.266
 4700SOL    HW214844   3.062   3.979   5.123
 4701SOL     OW14845   1.869   5.041   3.914
 4701SOL    HW114846   1.778   5.058   3.887
 4701SOL    HW214847   1.866   4.953   3.952
 4702SOL     OW14848   2.846   4.516   4.951
 4702SOL    HW114849   2.902   4.493   5.025
 4702SOL    HW214850   2.760   4.480   4.973
 4703SOL     OW14851   1.898   4.268   4.841
 4703SOL    HW114852   1.978   4.254   4.791
 4703SOL    HW214853   1.926   4.272   4.932
 4704SOL     OW14854   2.053   4.243   5.451
 4704SOL    HW114855   2.110   4.206   5.384
 4704SOL    HW214856   2.010   4.316   5.407
 4705SOL     OW14857   3.239   4.663   5.382
 4705SOL    HW114858   3.259   4.757   5.380
 4705SOL    HW214859   3.235   4.637   5.290
 4706SOL     OW14860   2.678   4.293   4.083
 4706SOL    HW114861   2.681   4.219   4.024
 4706SOL    HW214862   2.604   4.346   4.052
 4707SOL     OW14863   3.504   4.325   4.910
 4707SOL    HW114864   3.494   4.267   4.986
 4707SOL    HW214865   3.591   4.305   4.876
 4708SOL     OW14866   2.068   5.277   5.469
 4708SOL    HW114867   2.056   0.030   5.547
 4708SOL    HW214868   2.080   5.188   5.501
 4709SOL     OW14869   2.562   4.175   4.984
 4709SOL    HW114870   2.509   4.101   4.954
 4709SOL    HW214871   2.559   4.238   4.912
 4710SOL     OW14872   2.327   4.217   3.911
 4710SOL    HW114873   2.385   4.290   3.933
 4710SOL    HW214874   2.241   4.257   3.899
 4711SOL     OW14875   2.008   4.863   5.195
 4711SOL    HW114876   2.010   4.811   5.275
 4711SOL    HW214877   2.025   4.800   5.125
 4712SOL     OW14878   3.190   4.770   4.947
 4712SOL    HW114879   3.213   4.707   4.878
 4712SOL    HW214880   3.118   4.821   4.910
 4713SOL     OW14881   3.172   4.581   4.030
 4713SOL    HW114882   3.096   4.550   4.080
 4713SOL    HW214883   3.148   4.567   3.939
 4714SOL     OW14884   1.955   4.986   4.745
 4714SOL    HW114885   1.934   5.003   4.837
 4714SOL    HW214886   1.875   4.948   4.709
 4715SOL     OW14887   2.613   0.039   5.433
 4715SOL    HW114888   2.521   0.061   5.445
 4715SOL    HW214889   2.633   0.063   5.343
 4716SOL     OW14890   3.580   3.869   4.233
 4716SOL    HW114891   3.654   3.855   4.174
 4716SOL    HW214892   3.566   3.783   4.274
 4717SOL     OW14893   3.139   4.649   4.395
 4717SOL    HW114894   3.213   4.588   4.402
 4717SOL    HW214895   3.173   4.721   4.343
 4718SOL     OW14896   2.681   4.993   5.147
 4718SOL    HW114897   2.653   5.029   5.230
 4718SOL    HW214898   2.606   5.005   5.088
 4719SOL     OW14899   3.702   3.897   4.691
 4719SOL    HW114900   3.731   3.811   4.664
 4719SOL    HW214901   3.616   3.907   4.651
 4720SOL     OW14902   2.124   4.043   4.442
 4720SOL    HW114903   2.038   4.077   4.417
 4720SOL    HW214904   2.120   4.034   4.537
 4721SOL     OW14905   2.687   4.728   5.094
 4721SOL    HW114906   2.732   4.723   5.010
 4721SOL    HW214907   2.690   4.821   5.118
 4722SOL     OW14908   2.778   4.635   4.014
 4722SOL    HW114909   2.839   4.668   3.948
 4722SOL    HW214910   2.826   4.565   4.059
 4723SOL     OW14911   2.228   5.025   5.220
 4723SOL    HW114912   2.216   5.100   5.161
 4723SOL    HW214913   2.152   4.969   5.203
 4724SOL     OW14914   3.474   5.004   5.006
 4724SOL    HW114915   3.532   4.998   5.083
 4724SOL    HW214916   3.412   5.074   5.028
 4725SOL     OW14917   2.915   4.833   4.435
 4725SOL    HW114918   2.843   4.782   4.471
 4725SOL    HW214919   2.976   4.767   4.401
 4726SOL     OW14920   2.883   3.965   4.689
 4726SOL    HW114921   2.871   3.915   4.608
 4726SOL    HW214922   2.879   3.900   4.758
 4727SOL     OW14923   3.583   4.116   5.104
 4727SOL    HW114924   3.655   4.179   5.103
 4727SOL    HW214925   3.613   4.045   5.048
 4728SOL     OW14926   2.120   5.053   4.006
 4728SOL    HW114927   2.028   5.055   3.979
 4728SOL    HW214928   2.121   5.096   4.092
 4729SOL     OW14929   1.974   4.745   5.442
 4729SOL    HW114930   1.898   4.722   5.496
 4729SOL    HW214931   2.049   4.708   5.490
 4730SOL     OW14932   2.536   3.924   5.224
 4730SOL    HW114933   2.620   3.904   5.182
 4730SOL    HW214934   2.560   3.954   5.312
 4731SOL     OW14935   1.940   4.059   3.760
 4731SOL    HW114936   1.852   4.038   3.726
 4731SOL    HW214937   1.969   4.133   3.707
 4732SOL     OW14938   3.292   4.581   5.124
 4732SOL    HW114939   3.244   4.642   5.068
 4732SOL    HW214940   3.382   4.584   5.091
 4733SOL     OW14941   1.931   3.881   4.035
 4733SOL    HW114942   1.917   3.961   3.983
 4733SOL    HW214943   2.016   3.848   4.005
 4734SOL     OW14944   3.044   5.064   3.844
 4734SOL    HW114945   2.953   5.036   3.845
 4734SOL    HW214946   3.072   5.056   3.935
 4735SOL     OW14947   2.481   4.555   5.157
 4735SOL    HW114948   2.537   4.631   5.142
 4735SOL    HW214949   2.542   4.481   5.166
 4736SOL     OW14950   2.580   4.288   5.428
 4736SOL    HW114951   2.619   4.352   5.489
 4736SOL    HW214952   2.609   4.203   5.461
 4737SOL     OW14953   3.335   4.924   5.355
 4737SOL    HW114954   3.321   4.936   5.449
 4737SOL    HW214955   3.429   4.937   5.343
 4738SOL     OW14956   3.532   4.606   4.979
 4738SOL    HW114957   3.525   4.520   4.936
 4738SOL    HW214958   3.522   4.669   4.908
 4739SOL     OW14959   3.079   4.043   4.182
 4739SOL    HW114960   3.144   3.974   4.172
 4739SOL    HW214961   3.107   4.093   4.259
 4740SOL     OW14962   2.452   4.462   4.393
 4740SOL    HW114963   2.491   4.548   4.378
 4740SOL    HW214964   2.384   4.454   4.327
 4741SOL     OW14965   3.625   4.085   5.374
 4741SOL    HW114966   3.608   4.100   5.281
 4741SOL    HW214967   3.553   4.029   5.403
 4742SOL     OW14968   3.606   4.657   5.236
 4742SOL    HW114969   3.604   4.752   5.250
 4742SOL    HW214970   3.591   4.646   5.142
 4743SOL     OW14971   2.712   5.095   3.743
 4743SOL    HW114972   2.692   5.096   3.837
 4743SOL    HW214973   2.729   5.186   3.721
 4744SOL     OW14974   2.729   4.691   4.580
 4744SOL    HW114975   2.779   4.620   4.620
 4744SOL    HW214976   2.695   4.741   4.654
 4745SOL     OW14977   2.942   4.713   3.814
 4745SOL    HW114978   2.919   4.763   3.735
 4745SOL    HW214979   3.017   4.659   3.787
 4746SOL     OW14980   2.085   5.024   5.577
 4746SOL    HW114981   2.017   4.963   5.552
 4746SOL    HW214982   2.074   5.036   5.671
 4747SOL     OW14983   1.947   4.956   4.394
 4747SOL    HW114984   1.946   4.903   4.474
 4747SOL    HW214985   2.011   4.913   4.337
 4748SOL     OW14986   2.532   5.108   5.332
 4748SOL    HW114987   2.457   5.073   5.380
 4748SOL    HW214988   2.563   5.181   5.386
 4749SOL     OW14989   3.673   3.909   4.962
 4749SOL    HW114990   3.689   3.815   4.977
 4749SOL    HW214991   3.683   3.919   4.867
 4750SOL     OW14992   2.292   4.158   4.249
 4750SOL    HW114993   2.321   4.086   4.192
 4750SOL    HW214994   2.244   4.114   4.320
 4751SOL     OW14995   3.569   5.223   4.843
 4751SOL    HW114996   3.495   5.207   4.784
 4751SOL    HW214997   3.576   5.144   4.896
 4752SOL     OW14998   2.191   4.279   5.015
 4752SOL    HW114999   2.247   4.223   5.070
 4752SOL    HW215000   2.211   4.251   4.926
 4753SOL     OW15001   3.292   3.947   4.843
 4753SOL    HW115002   3.326   3.873   4.893
 4753SOL    HW215003   3.241   3.998   4.905
 4754SOL     OW15004   2.874   3.749   4.868
 4754SOL    HW115005   2.812   3.677   4.850
 4754SOL    HW215006   2.960   3.707   4.864
 4755SOL     OW15007   2.665   5.047   4.008
 4755SOL    HW115008   2.603   4.977   4.026
 4755SOL    HW215009   2.719   5.052   4.087
 4756SOL     OW15010   2.484   5.299   5.014
 4756SOL    HW115011   2.491   0.054   5.092
 4756SOL    HW215012   2.574   5.280   4.990
 4757SOL     OW15013   3.214   3.778   3.891
 4757SOL    HW115014   3.244   3.720   3.821
 4757SOL    HW215015   3.129   3.742   3.916
 4758SOL     OW15016   3.158   4.184   4.405
 4758SOL    HW115017   3.105   4.264   4.412
 4758SOL    HW215018   3.155   4.145   4.493
 4759SOL     OW15019   3.448   3.926   4.602
 4759SOL    HW115020   3.386   3.947   4.672
 4759SOL    HW215021   3.448   4.005   4.546
 4760SOL     OW15022   1.904   4.795   4.031
 4760SOL    HW115023   1.998   4.788   4.014
 4760SOL    HW215024   1.877   4.706   4.053
 4761SOL     OW15025   2.092   4.347   5.709
 4761SOL    HW115026   2.002   4.347   5.743
 4761SOL    HW215027   2.083   4.321   5.617
 4762SOL     OW15028   2.086   4.005   6.578
 4762SOL    HW115029   2.115   3.971   6.662
 4762SOL    HW215030   1.997   3.973   6.568
 4763SOL     OW15031   1.866   4.106   6.224
 4763SOL    HW115032   1.784   4.131   6.265
 4763SOL    HW215033   1.846   4.027   6.175
 4764SOL     OW15034   2.428   5.005   6.764
 4764SOL    HW115035   2.343   5.003   6.720
 4764SOL    HW215036   2.439   5.096   6.791
 4765SOL     OW15037   3.417   5.232   6.275
 4765SOL    HW115038   3.395   5.229   6.368
 4765SOL    HW215039   3.338   5.268   6.233
 4766SOL     OW15040   2.992   4.422   6.288
 4766SOL    HW115041   3.041   4.503   6.273
 4766SOL    HW215042   2.945   4.437   6.370
 4767SOL     OW15043   3.628   4.330   5.815
 4767SOL    HW115044   3.608   4.322   5.722
 4767SOL    HW215045   3.593   4.250   5.854
 4768SOL     OW15046   2.619   4.869   6.624
 4768SOL    HW115047   2.551   4.900   6.684
 4768SOL    HW215048   2.648   4.947   6.578
 4769SOL     OW15049   2.727   4.502   7.406
 4769SOL    HW115050   2.711   4.576   7.464
 4769SOL    HW215051   2.753   4.541   7.323
 4770SOL     OW15052   2.548   4.727   6.234
 4770SOL    HW115053   2.613   4.716   6.304
 4770SOL    HW215054   2.479   4.780   6.274
 4771SOL     OW15055   2.570   4.873   7.397
 4771SOL    HW115056   2.618   4.952   7.420
 4771SOL    HW215057   2.487   4.905   7.362
 4772SOL     OW15058   2.199   5.152   6.646
 4772SOL    HW115059   2.122   5.108   6.610
 4772SOL    HW215060   2.239   5.196   6.571
 4773SOL     OW15061   3.317   5.220   6.933
 4773SOL    HW115062   3.371   5.293   6.965
 4773SOL    HW215063   3.250   5.208   7.000
 4774SOL     OW15064   2.311   4.123   7.075
 4774SOL    HW115065   2.386   4.064   7.079
 4774SOL    HW215066   2.235   4.066   7.087
 4775SOL     OW15067   3.474   4.172   6.326
 4775SOL    HW115068   3.399   4.196   6.272
 4775SOL    HW215069   3.491   4.250   6.379
 4776SOL     OW15070   2.995   5.071   7.285
 4776SOL    HW115071   3.028   5.071   7.375
 4776SOL    HW215072   2.941   4.992   7.278
 4777SOL     OW15073   2.072   5.155   6.106
 4777SOL    HW115074   2.098   5.238   6.147
 4777SOL    HW215075   2.020   5.110   6.173
 4778SOL     OW15076   2.119   4.811   6.478
 4778SOL    HW115077   2.117   4.724   6.517
 4778SOL    HW215078   2.061   4.864   6.533
 4779SOL     OW15079   2.448   4.705   5.719
 4779SOL    HW115080   2.494   4.754   5.651
 4779SOL    HW215081   2.487   4.735   5.801
 4780SOL     OW15082   3.458   3.847   7.054
 4780SOL    HW115083   3.463   3.928   7.003
 4780SOL    HW215084   3.444   3.877   7.144
 4781SOL     OW15085   1.977   4.376   6.145
 4781SOL    HW115086   1.948   4.287   6.166
 4781SOL    HW215087   1.969   4.424   6.228
 4782SOL     OW15088   1.848   0.014   5.685
 4782SOL    HW115089   1.865   5.224   5.715
 4782SOL    HW215090   1.871   0.069   5.760
 4783SOL     OW15091   3.550   4.642   6.225
 4783SOL    HW115092   3.635   4.601   6.206
 4783SOL    HW215093   3.530   4.693   6.147
 4784SOL     OW15094   3.507   4.831   6.016
 4784SOL    HW115095   3.592   4.837   5.972
 4784SOL    HW215096   3.514   4.892   6.089
 4785SOL     OW15097   1.985   4.466   7.172
 4785SOL    HW115098   2.077   4.491   7.181
 4785SOL    HW215099   1.937   4.548   7.180
 4786SOL     OW15100   2.484   5.097   6.322
 4786SOL    HW115101   2.430   5.018   6.321
 4786SOL    HW215102   2.464   5.141   6.239
 4787SOL     OW15103   3.151   4.955   7.012
 4787SOL    HW115104   3.186   4.889   6.951
 4787SOL    HW215105   3.210   4.952   7.087
 4788SOL     OW15106   2.676   3.723   6.092
 4788SOL    HW115107   2.716   3.808   6.075
 4788SOL    HW215108   2.583   3.743   6.103
 4789SOL     OW15109   2.053   4.691   6.856
 4789SOL    HW115110   2.137   4.648   6.841
 4789SOL    HW215111   1.989   4.635   6.810
 4790SOL     OW15112   3.393   4.718   5.783
 4790SOL    HW115113   3.323   4.660   5.815
 4790SOL    HW215114   3.434   4.752   5.862
 4791SOL     OW15115   2.194   3.973   7.397
 4791SOL    HW115116   2.239   4.056   7.411
 4791SOL    HW215117   2.105   3.989   7.429
 4792SOL     OW15118   3.338   5.146   6.548
 4792SOL    HW115119   3.265   5.159   6.609
 4792SOL    HW215120   3.325   5.058   6.514
 4793SOL     OW15121   2.458   4.445   5.851
 4793SOL    HW115122   2.464   4.527   5.801
 4793SOL    HW215123   2.393   4.465   5.919
 4794SOL     OW15124   3.141   4.075   6.518
 4794SOL    HW115125   3.052   4.042   6.527
 4794SOL    HW215126   3.192   4.023   6.580
 4795SOL     OW15127   2.654   4.342   7.038
 4795SOL    HW115128   2.627   4.318   7.127
 4795SOL    HW215129   2.613   4.275   6.982
 4796SOL     OW15130   3.256   4.198   7.263
 4796SOL    HW115131   3.258   4.242   7.348
 4796SOL    HW215132   3.317   4.125   7.273
 4797SOL     OW15133   2.818   4.612   7.168
 4797SOL    HW115134   2.872   4.542   7.133
 4797SOL    HW215135   2.770   4.645   7.092
 4798SOL     OW15136   2.854   4.137   6.825
 4798SOL    HW115137   2.769   4.158   6.863
 4798SOL    HW215138   2.834   4.090   6.744
 4799SOL     OW15139   2.913   4.422   6.012
 4799SOL    HW115140   2.928   4.416   6.106
 4799SOL    HW215141   2.830   4.376   5.998
 4800SOL     OW15142   1.950   4.545   6.362
 4800SOL    HW115143   2.031   4.537   6.412
 4800SOL    HW215144   1.907   4.622   6.397
 4801SOL     OW15145   2.754   4.072   5.780
 4801SOL    HW115146   2.795   4.134   5.720
 4801SOL    HW215147   2.771   3.986   5.742
 4802SOL     OW15148   3.571   4.300   7.415
 4802SOL    HW115149   3.534   4.374   7.368
 4802SOL    HW215150   3.598   4.239   7.347
 4803SOL     OW15151   3.238   4.864   6.126
 4803SOL    HW115152   3.320   4.850   6.077
 4803SOL    HW215153   3.188   4.925   6.072
 4804SOL     OW15154   2.412   3.907   6.479
 4804SOL    HW115155   2.414   3.935   6.570
 4804SOL    HW215156   2.413   3.988   6.428
 4805SOL     OW15157   2.884   5.171   6.056
 4805SOL    HW115158   2.805   5.225   6.049
 4805SOL    HW215159   2.899   5.161   6.150
 4806SOL     OW15160   3.662   4.781   6.452
 4806SOL    HW115161   3.605   4.765   6.377
 4806SOL    HW215162   3.602   4.788   6.527
 4807SOL     OW15163   3.112   5.239   7.109
 4807SOL    HW115164   3.075   5.173   7.168
 4807SOL    HW215165   3.041   5.260   7.048
 4808SOL     OW15166   2.183   4.680   5.836
 4808SOL    HW115167   2.265   4.700   5.791
 4808SOL    HW215168   2.152   4.599   5.796
 4809SOL     OW15169   3.339   4.465   6.314
 4809SOL    HW115170   3.331   4.422   6.398
 4809SOL    HW215171   3.417   4.521   6.323
 4810SOL     OW15172   2.325   4.987   7.327
 4810SOL    HW115173   2.299   4.990   7.235
 4810SOL    HW215174   2.243   4.986   7.376
 4811SOL     OW15175   2.936   0.182   5.793
 4811SOL    HW115176   2.937   0.106   5.851
 4811SOL    HW215177   2.966   0.148   5.709
 4812SOL     OW15178   2.063   4.006   7.087
 4812SOL    HW115179   1.980   4.054   7.081
 4812SOL    HW215180   2.045   3.936   7.150
 4813SOL     OW15181   3.485   5.100   5.692
 4813SOL    HW115182   3.480   5.178   5.638
 4813SOL    HW215183   3.416   5.042   5.659
 4814SOL     OW15184   3.263   3.831   6.018
 4814SOL    HW115185   3.253   3.807   5.926
 4814SOL    HW215186   3.358   3.839   6.031
 4815SOL     OW15187   2.254   4.419   6.063
 4815SOL    HW115188   2.275   4.327   6.074
 4815SOL    HW215189   2.160   4.425   6.080
 4816SOL     OW15190   3.398   3.949   7.312
 4816SOL    HW115191   3.406   3.970   7.404
 4816SOL    HW215192   3.329   3.882   7.309
 4817SOL     OW15193   2.495   3.847   5.692
 4817SOL    HW115194   2.566   3.784   5.703
 4817SOL    HW215195   2.447   3.815   5.615
 4818SOL     OW15196   2.628   4.000   7.339
 4818SOL    HW115197   2.704   3.942   7.342
 4818SOL    HW215198   2.584   3.987   7.423
 4819SOL     OW15199   3.203   4.313   7.018
 4819SOL    HW115200   3.234   4.281   7.103
 4819SOL    HW215201   3.239   4.401   7.010
 4820SOL     OW15202   2.674   5.120   6.521
 4820SOL    HW115203   2.754   5.106   6.471
 4820SOL    HW215204   2.605   5.126   6.454
 4821SOL     OW15205   2.790   4.233   6.489
 4821SOL    HW115206   2.766   4.225   6.397
 4821SOL    HW215207   2.821   4.146   6.514
 4822SOL     OW15208   2.410   3.787   6.089
 4822SOL    HW115209   2.330   3.788   6.141
 4822SOL    HW215210   2.405   3.866   6.034
 4823SOL     OW15211   3.289   4.924   5.625
 4823SOL    HW115212   3.320   4.848   5.675
 4823SOL    HW215213   3.202   4.941   5.659
 4824SOL     OW15214   2.154   3.772   5.770
 4824SOL    HW115215   2.213   3.836   5.732
 4824SOL    HW215216   2.212   3.708   5.812
 4825SOL     OW15217   2.800   3.970   6.047
 4825SOL    HW115218   2.773   4.012   5.966
 4825SOL    HW215219   2.894   3.983   6.051
 4826SOL     OW15220   2.942   4.404   7.046
 4826SOL    HW115221   2.873   4.338   7.051
 4826SOL    HW215222   3.023   4.354   7.039
 4827SOL     OW15223   3.126   5.267   6.365
 4827SOL    HW115224   3.086   0.049   6.336
 4827SOL    HW215225   3.170   5.290   6.447
 4828SOL     OW15226   2.327   4.872   6.318
 4828SOL    HW115227   2.258   4.852   6.381
 4828SOL    HW215228   2.288   4.854   6.232
 4829SOL     OW15229   2.886   4.267   5.608
 4829SOL    HW115230   2.843   4.350   5.588
 4829SOL    HW215231   2.951   4.288   5.674
 4830SOL     OW15232   1.941   4.279   6.978
 4830SOL    HW115233   2.032   4.277   6.951
 4830SOL    HW215234   1.936   4.349   7.043
 4831SOL     OW15235   2.422   3.951   6.751
 4831SOL    HW115236   2.463   3.874   6.790
 4831SOL    HW215237   2.331   3.947   6.781
 4832SOL     OW15238   2.730   4.183   6.226
 4832SOL    HW115239   2.684   4.238   6.162
 4832SOL    HW215240   2.751   4.102   6.178
 4833SOL     OW15241   2.878   3.777   6.337
 4833SOL    HW115242   2.819   3.771   6.262
 4833SOL    HW215243   2.856   3.702   6.392
 4834SOL     OW15244   3.299   4.890   6.445
 4834SOL    HW115245   3.233   4.821   6.441
 4834SOL    HW215246   3.324   4.903   6.354
 4835SOL     OW15247   3.328   4.328   6.564
 4835SOL    HW115248   3.279   4.247   6.567
 4835SOL    HW215249   3.388   4.323   6.638
 4836SOL     OW15250   3.708   4.540   5.968
 4836SOL    HW115251   3.764   4.489   6.026
 4836SOL    HW215252   3.679   4.478   5.902
 4837SOL     OW15253   2.344   5.146   5.741
 4837SOL    HW115254   2.281   5.095   5.792
 4837SOL    HW215255   2.343   5.105   5.654
 4838SOL     OW15256   3.531   4.987   6.233
 4838SOL    HW115257   3.625   4.993   6.250
 4838SOL    HW215258   3.497   5.075   6.250
 4839SOL     OW15259   3.256   4.296   5.657
 4839SOL    HW115260   3.195   4.276   5.729
 4839SOL    HW215261   3.341   4.264   5.688
 4840SOL     OW15262   2.387   3.987   5.905
 4840SOL    HW115263   2.431   3.939   5.835
 4840SOL    HW215264   2.366   4.072   5.866
 4841SOL     OW15265   3.613   4.959   7.162
 4841SOL    HW115266   3.700   4.918   7.161
 4841SOL    HW215267   3.631   5.052   7.176
 4842SOL     OW15268   2.927   5.074   6.917
 4842SOL    HW115269   2.848   5.049   6.966
 4842SOL    HW215270   2.999   5.035   6.965
 4843SOL     OW15271   2.987   4.925   6.694
 4843SOL    HW115272   2.937   4.967   6.764
 4843SOL    HW215273   2.943   4.952   6.613
 4844SOL     OW15274   3.491   4.823   6.663
 4844SOL    HW115275   3.487   4.884   6.736
 4844SOL    HW215276   3.413   4.841   6.611
 4845SOL     OW15277   2.780   3.822   6.983
 4845SOL    HW115278   2.803   3.803   6.892
 4845SOL    HW215279   2.859   3.861   7.020
 4846SOL     OW15280   2.846   4.838   7.312
 4846SOL    HW115281   2.754   4.855   7.329
 4846SOL    HW215282   2.847   4.762   7.254
 4847SOL     OW15283   2.566   4.782   5.958
 4847SOL    HW115284   2.555   4.767   6.052
 4847SOL    HW215285   2.644   4.731   5.935
 4848SOL     OW15286   2.280   4.538   6.838
 4848SOL    HW115287   2.349   4.548   6.904
 4848SOL    HW215288   2.245   4.450   6.851
 4849SOL     OW15289   3.128   4.101   6.860
 4849SOL    HW115290   3.160   4.179   6.906
 4849SOL    HW215291   3.038   4.124   6.837
 4850SOL     OW15292   2.210   4.832   6.075
 4850SOL    HW115293   2.213   4.905   6.014
 4850SOL    HW215294   2.210   4.754   6.020
 4851SOL     OW15295   2.415   4.261   6.446
 4851SOL    HW115296   2.431   4.319   6.372
 4851SOL    HW215297   2.480   4.288   6.511
 4852SOL     OW15298   3.121   5.076   5.972
 4852SOL    HW115299   3.177   5.144   6.009
 4852SOL    HW215300   3.033   5.099   6.001
 4853SOL     OW15301   3.131   5.181   6.728
 4853SOL    HW115302   3.190   5.195   6.801
 4853SOL    HW215303   3.087   5.099   6.748
 4854SOL     OW15304   3.444   4.347   6.064
 4854SOL    HW115305   3.398   4.402   6.128
 4854SOL    HW215306   3.490   4.410   6.008
 4855SOL     OW15307   2.210   5.236   6.901
 4855SOL    HW115308   2.199   5.201   6.813
 4855SOL    HW215309   2.303   5.257   6.907
 4856SOL     OW15310   2.276   4.469   7.188
 4856SOL    HW115311   2.338   4.514   7.130
 4856SOL    HW215312   2.315   4.383   7.203
 4857SOL     OW15313   3.462   4.503   7.268
 4857SOL    HW115314   3.376   4.543   7.260
 4857SOL    HW215315   3.515   4.544   7.199
 4858SOL     OW15316   2.858   3.846   7.341
 4858SOL    HW115317   2.914   3.918   7.312
 4858SOL    HW215318   2.906   3.767   7.316
 4859SOL     OW15319   2.360   3.765   7.333
 4859SOL    HW115320   2.318   3.711   7.267
 4859SOL    HW215321   2.301   3.839   7.345
 4860SOL     OW15322   2.445   4.596   6.617
 4860SOL    HW115323   2.475   4.687   6.615
 4860SOL    HW215324   2.389   4.591   6.694
 4861SOL     OW15325   3.220   4.582   6.616
 4861SOL    HW115326   3.137   4.573   6.568
 4861SOL    HW215327   3.260   4.495   6.611
 4862SOL     OW15328   3.067   4.252   5.853
 4862SOL    HW115329   3.075   4.174   5.908
 4862SOL    HW215330   3.024   4.317   5.910
 4863SOL     OW15331   2.161   3.923   6.832
 4863SOL    HW115332   2.124   3.955   6.914
 4863SOL    HW215333   2.142   3.829   6.833
 4864SOL     OW15334   1.914   5.046   6.870
 4864SOL    HW115335   1.939   4.982   6.937
 4864SOL    HW215336   1.949   5.129   6.902
 4865SOL     OW15337   2.586   4.355   6.644
 4865SOL    HW115338   2.661   4.339   6.586
 4865SOL    HW215339   2.558   4.444   6.623
 4866SOL     OW15340   3.597   4.684   7.437
 4866SOL    HW115341   3.549   4.623   7.381
 4866SOL    HW215342   3.539   4.697   7.512
 4867SOL     OW15343   2.165   3.789   6.209
 4867SOL    HW115344   2.146   3.880   6.233
 4867SOL    HW215345   2.172   3.743   6.293
 4868SOL     OW15346   3.477   4.098   5.953
 4868SOL    HW115347   3.505   4.034   6.019
 4868SOL    HW215348   3.455   4.176   6.004
 4869SOL     OW15349   2.889   4.483   6.547
 4869SOL    HW115350   2.887   4.501   6.641
 4869SOL    HW215351   2.863   4.392   6.539
 4870SOL     OW15352   3.716   5.214   7.171
 4870SOL    HW115353   3.712   5.288   7.111
 4870SOL    HW215354   3.786   5.236   7.232
 4871SOL     OW15355   2.216   4.639   7.395
 4871SOL    HW115356   2.298   4.658   7.439
 4871SOL    HW215357   2.239   4.577   7.326
 4872SOL     OW15358   3.392   3.997   5.713
 4872SOL    HW115359   3.327   3.932   5.740
 4872SOL    HW215360   3.424   4.033   5.796
 4873SOL     OW15361   3.154   4.550   5.617
 4873SOL    HW115362   3.197   4.465   5.621
 4873SOL    HW215363   3.185   4.590   5.536
 4874SOL     OW15364   2.920   5.078   6.413
 4874SOL    HW115365   2.925   4.993   6.369
 4874SOL    HW215366   3.006   5.117   6.400
 4875SOL     OW15367   2.171   4.533   6.534
 4875SOL    HW115368   2.264   4.554   6.527
 4875SOL    HW215369   2.169   4.443   6.567
 4876SOL     OW15370   2.194   4.250   6.598
 4876SOL    HW115371   2.158   4.162   6.583
 4876SOL    HW215372   2.270   4.255   6.541
 4877SOL     OW15373   2.997   4.100   7.266
 4877SOL    HW115374   2.949   4.155   7.329
 4877SOL    HW215375   3.084   4.138   7.263
 4878SOL     OW15376   3.023   3.927   7.055
 4878SOL    HW115377   3.012   3.990   7.127
 4878SOL    HW215378   3.062   3.978   6.984
 4879SOL     OW15379   1.868   5.041   5.777
 4879SOL    HW115380   1.778   5.058   5.749
 4879SOL    HW215381   1.866   4.953   5.814
 4880SOL     OW15382   2.846   4.517   6.813
 4880SOL    HW115383   2.901   4.493   6.887
 4880SOL    HW215384   2.760   4.479   6.835
 4881SOL     OW15385   1.898   4.269   6.702
 4881SOL    HW115386   1.978   4.253   6.653
 4881SOL    HW215387   1.926   4.272   6.794
 4882SOL     OW15388   2.054   4.243   7.313
 4882SOL    HW115389   2.110   4.204   7.245
 4882SOL    HW215390   2.011   4.316   7.269
 4883SOL     OW15391   3.238   4.663   7.245
 4883SOL    HW115392   3.259   4.757   7.243
 4883SOL    HW215393   3.235   4.637   7.153
 4884SOL     OW15394   2.678   4.293   5.945
 4884SOL    HW115395   2.681   4.218   5.885
 4884SOL    HW215396   2.604   4.345   5.914
 4885SOL     OW15397   3.504   4.325   6.773
 4885SOL    HW115398   3.494   4.266   6.847
 4885SOL    HW215399   3.591   4.305   6.738
 4886SOL     OW15400   2.069   5.276   7.329
 4886SOL    HW115401   2.042   0.027   7.405
 4886SOL    HW215402   2.082   5.187   7.363
 4887SOL     OW15403   2.561   4.175   6.846
 4887SOL    HW115404   2.509   4.101   6.816
 4887SOL    HW215405   2.558   4.238   6.774
 4888SOL     OW15406   2.327   4.216   5.773
 4888SOL    HW115407   2.385   4.290   5.795
 4888SOL    HW215408   2.241   4.257   5.761
 4889SOL     OW15409   2.008   4.863   7.057
 4889SOL    HW115410   2.010   4.811   7.137
 4889SOL    HW215411   2.025   4.800   6.987
 4890SOL     OW15412   3.190   4.770   6.809
 4890SOL    HW115413   3.213   4.707   6.740
 4890SOL    HW215414   3.118   4.821   6.772
 4891SOL     OW15415   3.172   4.581   5.892
 4891SOL    HW115416   3.096   4.550   5.942
 4891SOL    HW215417   3.148   4.567   5.801
 4892SOL     OW15418   1.955   4.986   6.607
 4892SOL    HW115419   1.933   5.003   6.699
 4892SOL    HW215420   1.875   4.947   6.571
 4893SOL     OW15421   2.613   0.037   7.296
 4893SOL    HW115422   2.521   0.061   7.307
 4893SOL    HW215423   2.634   0.063   7.207
 4894SOL     OW15424   3.581   3.870   6.096
 4894SOL    HW115425   3.654   3.855   6.036
 4894SOL    HW215426   3.565   3.784   6.136
 4895SOL     OW15427   3.139   4.649   6.257
 4895SOL    HW115428   3.212   4.588   6.264
 4895SOL    HW215429   3.173   4.721   6.205
 4896SOL     OW15430   2.682   4.994   7.008
 4896SOL    HW115431   2.652   5.029   7.092
 4896SOL    HW215432   2.607   5.004   6.950
 4897SOL     OW15433   3.702   3.897   6.553
 4897SOL    HW115434   3.731   3.810   6.526
 4897SOL    HW215435   3.616   3.907   6.513
 4898SOL     OW15436   2.124   4.040   6.303
 4898SOL    HW115437   2.039   4.076   6.279
 4898SOL    HW215438   2.121   4.032   6.398
 4899SOL     OW15439   2.686   4.728   6.957
 4899SOL    HW115440   2.733   4.721   6.873
 4899SOL    HW215441   2.690   4.821   6.979
 4900SOL     OW15442   2.778   4.635   5.876
 4900SOL    HW115443   2.839   4.667   5.810
 4900SOL    HW215444   2.826   4.565   5.921
 4901SOL     OW15445   2.227   5.026   7.083
 4901SOL    HW115446   2.217   5.100   7.023
 4901SOL    HW215447   2.152   4.969   7.065
 4902SOL     OW15448   3.474   5.004   6.868
 4902SOL    HW115449   3.531   4.998   6.945
 4902SOL    HW215450   3.412   5.074   6.890
 4903SOL     OW15451   2.915   4.833   6.297
 4903SOL    HW115452   2.843   4.782   6.333
 4903SOL    HW215453   2.976   4.768   6.263
 4904SOL     OW15454   2.883   3.964   6.552
 4904SOL    HW115455   2.878   3.916   6.469
 4904SOL    HW215456   2.878   3.896   6.619
 4905SOL     OW15457   3.583   4.116   6.967
 4905SOL    HW115458   3.655   4.179   6.965
 4905SOL    HW215459   3.613   4.045   6.910
 4906SOL     OW15460   2.120   5.053   5.868
 4906SOL    HW115461   2.028   5.055   5.841
 4906SOL    HW215462   2.121   5.096   5.954
 4907SOL     OW15463   1.975   4.746   7.305
 4907SOL    HW115464   1.898   4.722   7.357
 4907SOL    HW215465   2.049   4.708   7.352
 4908SOL     OW15466   2.536   3.921   7.085
 4908SOL    HW115467   2.620   3.901   7.044
 4908SOL    HW215468   2.559   3.950   7.173
 4909SOL     OW15469   1.940   4.058   5.621
 4909SOL    HW115470   1.853   4.039   5.588
 4909SOL    HW215471   1.970   4.133   5.569
 4910SOL     OW15472   3.292   4.582   6.987
 4910SOL    HW115473   3.244   4.643   6.931
 4910SOL    HW215474   3.382   4.584   6.953
 4911SOL     OW15475   1.931   3.880   5.897
 4911SOL    HW115476   1.916   3.960   5.846
 4911SOL    HW215477   2.016   3.848   5.867
 4912SOL     OW15478   3.044   5.064   5.706
 4912SOL    HW115479   2.953   5.036   5.707
 4912SOL    HW215480   3.072   5.056   5.797
 4913SOL     OW15481   2.481   4.555   7.019
 4913SOL    HW115482   2.537   4.630   7.003
 4913SOL    HW215483   2.541   4.481   7.028
 4914SOL     OW15484   2.580   4.288   7.291
 4914SOL    HW115485   2.619   4.350   7.352
 4914SOL    HW215486   2.609   4.202   7.322
 4915SOL     OW15487   3.335   4.924   7.218
 4915SOL    HW115488   3.322   4.936   7.312
 4915SOL    HW215489   3.429   4.937   7.205
 4916SOL     OW15490   3.532   4.606   6.841
 4916SOL    HW115491   3.525   4.520   6.798
 4916SOL    HW215492   3.522   4.669   6.770
 4917SOL     OW15493   3.079   4.043   6.044
 4917SOL    HW115494   3.142   3.972   6.035
 4917SOL    HW215495   3.108   4.092   6.121
 4918SOL     OW15496   2.452   4.462   6.255
 4918SOL    HW115497   2.491   4.548   6.240
 4918SOL    HW215498   2.384   4.455   6.188
 4919SOL     OW15499   3.625   4.085   7.237
 4919SOL    HW115500   3.608   4.100   7.144
 4919SOL    HW215501   3.553   4.029   7.265
 4920SOL     OW15502   3.607   4.657   7.098
 4920SOL    HW115503   3.603   4.752   7.111
 4920SOL    HW215504   3.591   4.646   7.004
 4921SOL     OW15505   2.712   5.094   5.605
 4921SOL    HW115506   2.692   5.096   5.699
 4921SOL    HW215507   2.728   5.186   5.583
 4922SOL     OW15508   2.729   4.691   6.442
 4922SOL    HW115509   2.779   4.620   6.482
 4922SOL    HW215510   2.695   4.741   6.516
 4923SOL     OW15511   2.942   4.713   5.675
 4923SOL    HW115512   2.919   4.763   5.597
 4923SOL    HW215513   3.016   4.659   5.649
 4924SOL     OW15514   2.084   5.024   7.442
 4924SOL    HW115515   2.018   4.962   7.412
 4924SOL    HW215516   2.065   5.037   7.534
 4925SOL     OW15517   1.947   4.956   6.256
 4925SOL    HW115518   1.947   4.903   6.336
 4925SOL    HW215519   2.011   4.913   6.199
 4926SOL     OW15520   2.531   5.107   7.194
 4926SOL    HW115521   2.456   5.074   7.243
 4926SOL    HW215522   2.563   5.181   7.247
 4927SOL     OW15523   3.675   3.909   6.824
 4927SOL    HW115524   3.685   3.815   6.839
 4927SOL    HW215525   3.684   3.919   6.729
 4928SOL     OW15526   2.291   4.158   6.111
 4928SOL    HW115527   2.321   4.087   6.054
 4928SOL    HW215528   2.244   4.114   6.182
 4929SOL     OW15529   3.569   5.223   6.705
 4929SOL    HW115530   3.495   5.207   6.646
 4929SOL    HW215531   3.576   5.144   6.758
 4930SOL     OW15532   2.192   4.279   6.877
 4930SOL    HW115533   2.247   4.223   6.932
 4930SOL    HW215534   2.211   4.251   6.788
 4931SOL     OW15535   3.294   3.949   6.704
 4931SOL    HW115536   3.320   3.869   6.751
 4931SOL    HW215537   3.242   3.998   6.767
 4932SOL     OW15538   2.871   3.743   6.729
 4932SOL    HW115539   2.816   3.675   6.692
 4932SOL    HW215540   2.959   3.705   6.731
 4933SOL     OW15541   2.665   5.047   5.870
 4933SOL    HW115542   2.603   4.977   5.888
 4933SOL    HW215543   2.719   5.052   5.949
 4934SOL     OW15544   2.484   5.299   6.876
 4934SOL    HW115545   2.491   0.054   6.954
 4934SOL    HW215546   2.574   5.279   6.852
 4935SOL     OW15547   3.214   3.778   5.751
 4935SOL    HW115548   3.242   3.715   5.685
 4935SOL    HW215549   3.127   3.748   5.777
 4936SOL     OW15550   3.158   4.184   6.267
 4936SOL    HW115551   3.105   4.264   6.275
 4936SOL    HW215552   3.155   4.145   6.354
 4937SOL     OW15553   3.449   3.927   6.464
 4937SOL    HW115554   3.387   3.947   6.534
 4937SOL    HW215555   3.448   4.005   6.408
 4938SOL     OW15556   1.904   4.795   5.893
 4938SOL    HW115557   1.998   4.788   5.876
 4938SOL    HW215558   1.877   4.706   5.915
 4939SOL     OW15559   2.091   4.344   7.571
 4939SOL    HW115560   2.000   4.350   7.602
 4939SOL    HW215561   2.084   4.320   7.479
 4940SOL     OW15562   3.629   4.323   7.679
 4940SOL    HW115563   3.609   4.318   7.586
 4940SOL    HW215564   3.587   4.245   7.717
 4941SOL     OW15565   2.139   0.126   7.957
 4941SOL    HW115566   2.114   0.212   7.992
 4941SOL    HW215567   2.145   0.139   7.862
 4942SOL     OW15568   2.080   5.156   7.990
 4942SOL    HW115569   2.091   5.251   7.997
 4942SOL    HW215570   2.021   5.133   8.062
 4943SOL     OW15571   2.448   4.705   7.579
 4943SOL    HW115572   2.493   4.755   7.511
 4943SOL    HW215573   2.487   4.736   7.661
 4944SOL     OW15574   1.861   0.010   7.539
 4944SOL    HW115575   1.865   5.222   7.574
 4944SOL    HW215576   1.861   0.067   7.616
 4945SOL     OW15577   3.545   4.592   8.035
 4945SOL    HW115578   3.625   4.603   0.005
 4945SOL    HW215579   3.533   4.676   7.990
 4946SOL     OW15580   3.517   4.825   7.876
 4946SOL    HW115581   3.605   4.845   7.843
 4946SOL    HW215582   3.498   4.895   7.938
 4947SOL     OW15583   2.664   3.718   7.940
 4947SOL    HW115584   2.712   3.799   7.923
 4947SOL    HW215585   2.573   3.746   7.948
 4948SOL     OW15586   3.394   4.720   7.647
 4948SOL    HW115587   3.328   4.659   7.681
 4948SOL    HW215588   3.437   4.754   7.726
 4949SOL     OW15589   2.453   4.448   7.708
 4949SOL    HW115590   2.458   4.530   7.658
 4949SOL    HW215591   2.393   4.468   7.780
 4950SOL     OW15592   1.923   4.586   0.091
 4950SOL    HW115593   1.988   4.522   0.120
 4950SOL    HW215594   1.916   4.649   0.163
 4951SOL     OW15595   2.743   4.070   7.637
 4951SOL    HW115596   2.788   4.130   7.578
 4951SOL    HW215597   2.777   3.984   7.613
 4952SOL     OW15598   2.185   4.679   7.697
 4952SOL    HW115599   2.266   4.697   7.648
 4952SOL    HW215600   2.149   4.601   7.656
 4953SOL     OW15601   2.953   0.190   7.648
 4953SOL    HW115602   2.924   0.125   7.712
 4953SOL    HW215603   2.955   0.142   7.565
 4954SOL     OW15604   3.489   5.099   7.549
 4954SOL    HW115605   3.473   5.181   7.502
 4954SOL    HW215606   3.419   5.041   7.521
 4955SOL     OW15607   3.277   3.854   7.864
 4955SOL    HW115608   3.264   3.820   7.776
 4955SOL    HW215609   3.372   3.852   7.877
 4956SOL     OW15610   2.253   4.422   7.918
 4956SOL    HW115611   2.259   4.327   7.926
 4956SOL    HW215612   2.161   4.442   7.939
 4957SOL     OW15613   2.489   3.844   7.560
 4957SOL    HW115614   2.566   3.788   7.568
 4957SOL    HW215615   2.446   3.813   7.480
 4958SOL     OW15616   2.394   3.797   7.959
 4958SOL    HW115617   2.309   3.801   8.002
 4958SOL    HW215618   2.392   3.868   7.895
 4959SOL     OW15619   3.290   4.924   7.488
 4959SOL    HW115620   3.320   4.849   7.539
 4959SOL    HW215621   3.202   4.943   7.521
 4960SOL     OW15622   2.155   3.773   7.633
 4960SOL    HW115623   2.214   3.834   7.587
 4960SOL    HW215624   2.213   3.708   7.671
 4961SOL     OW15625   2.806   3.950   7.911
 4961SOL    HW115626   2.762   4.015   7.856
 4961SOL    HW215627   2.897   3.979   7.914
 4962SOL     OW15628   2.303   4.875   0.100
 4962SOL    HW115629   2.227   4.908   0.147
 4962SOL    HW215630   2.272   4.860   0.010
 4963SOL     OW15631   2.888   4.267   7.466
 4963SOL    HW115632   2.843   4.350   7.449
 4963SOL    HW215633   2.948   4.287   7.538
 4964SOL     OW15634   3.732   4.541   7.802
 4964SOL    HW115635   3.732   4.510   7.892
 4964SOL    HW215636   3.692   4.470   7.752
 4965SOL     OW15637   2.337   5.150   7.602
 4965SOL    HW115638   2.278   5.097   7.657
 4965SOL    HW215639   2.340   5.102   7.519
 4966SOL     OW15640   3.256   4.296   7.519
 4966SOL    HW115641   3.195   4.276   7.591
 4966SOL    HW215642   3.340   4.262   7.549
 4967SOL     OW15643   2.388   3.990   7.771
 4967SOL    HW115644   2.431   3.939   7.702
 4967SOL    HW215645   2.366   4.073   7.729
 4968SOL     OW15646   2.569   4.782   7.813
 4968SOL    HW115647   2.548   4.770   7.905
 4968SOL    HW215648   2.650   4.733   7.800
 4969SOL     OW15649   2.227   4.825   7.928
 4969SOL    HW115650   2.206   4.904   7.879
 4969SOL    HW215651   2.215   4.754   7.865
 4970SOL     OW15652   3.087   5.114   7.831
 4970SOL    HW115653   3.172   5.125   7.873
 4970SOL    HW215654   3.037   5.060   7.892
 4971SOL     OW15655   3.449   4.353   7.921
 4971SOL    HW115656   3.435   4.412   7.995
 4971SOL    HW215657   3.490   4.408   7.854
 4972SOL     OW15658   3.066   4.251   7.716
 4972SOL    HW115659   3.069   4.167   7.763
 4972SOL    HW215660   3.040   4.314   7.782
 4973SOL     OW15661   3.480   4.102   7.815
 4973SOL    HW115662   3.502   4.036   7.880
 4973SOL    HW215663   3.455   4.179   7.867
 4974SOL     OW15664   3.392   3.999   7.575
 4974SOL    HW115665   3.327   3.933   7.601
 4974SOL    HW215666   3.424   4.034   7.658
 4975SOL     OW15667   3.157   4.552   7.482
 4975SOL    HW115668   3.198   4.465   7.483
 4975SOL    HW215669   3.187   4.591   7.399
 4976SOL     OW15670   1.870   5.045   7.640
 4976SOL    HW115671   1.780   5.058   7.610
 4976SOL    HW215672   1.871   4.956   7.675
 4977SOL     OW15673   2.699   4.321   7.763
 4977SOL    HW115674   2.691   4.230   7.734
 4977SOL    HW215675   2.610   4.356   7.762
 4978SOL     OW15676   2.324   4.217   7.642
 4978SOL    HW115677   2.383   4.291   7.656
 4978SOL    HW215678   2.239   4.257   7.624
 4979SOL     OW15679   3.171   4.577   7.755
 4979SOL    HW115680   3.084   4.577   7.794
 4979SOL    HW215681   3.156   4.566   7.661
 4980SOL     OW15682   3.574   3.870   7.948
 4980SOL    HW115683   3.651   3.862   7.893
 4980SOL    HW215684   3.576   3.792   8.004
 4981SOL     OW15685   2.791   4.635   7.758
 4981SOL    HW115686   2.843   4.660   7.681
 4981SOL    HW215687   2.784   4.540   7.751
 4982SOL     OW15688   2.120   5.059   7.744
 4982SOL    HW115689   2.028   5.061   7.716
 4982SOL    HW215690   2.119   5.098   7.832
 4983SOL     OW15691   1.939   4.058   7.484
 4983SOL    HW115692   1.853   4.038   7.448
 4983SOL    HW215693   1.970   4.133   7.433
 4984SOL     OW15694   1.932   3.882   7.759
 4984SOL    HW115695   1.916   3.958   7.703
 4984SOL    HW215696   2.015   3.846   7.727
 4985SOL     OW15697   3.044   5.058   7.564
 4985SOL    HW115698   2.951   5.034   7.562
 4985SOL    HW215699   3.062   5.073   7.656
 4986SOL     OW15700   3.077   4.042   7.903
 4986SOL    HW115701   3.150   3.981   7.892
 4986SOL    HW215702   3.099   4.090   7.984
 4987SOL     OW15703   2.485   4.458   8.058
 4987SOL    HW115704   2.492   4.542   0.024
 4987SOL    HW215705   2.399   4.460   8.017
 4988SOL     OW15706   2.713   5.094   7.466
 4988SOL    HW115707   2.694   5.094   7.560
 4988SOL    HW215708   2.727   5.186   7.444
 4989SOL     OW15709   2.937   4.704   7.538
 4989SOL    HW115710   2.916   4.759   7.463
 4989SOL    HW215711   3.014   4.655   7.511
 4990SOL     OW15712   2.249   4.150   7.982
 4990SOL    HW115713   2.300   4.099   7.918
 4990SOL    HW215714   2.299   4.142   8.063
 4991SOL     OW15715   2.666   5.047   7.730
 4991SOL    HW115716   2.608   4.974   7.748
 4991SOL    HW215717   2.689   5.082   7.816
 4992SOL     OW15718   3.214   3.776   7.610
 4992SOL    HW115719   3.243   3.711   7.546
 4992SOL    HW215720   3.128   3.747   7.638
 4993SOL     OW15721   1.911   4.802   7.751
 4993SOL    HW115722   2.006   4.793   7.738
 4993SOL    HW215723   1.881   4.712   7.766
 4994SOL     OW15724   3.943   0.624   0.120
 4994SOL    HW115725   3.864   0.590   0.161
 4994SOL    HW215726   3.967   0.557   0.056
 4995SOL     OW15727   3.942   0.284   0.993
 4995SOL    HW115728   3.972   0.249   1.077
 4995SOL    HW215729   3.857   0.243   0.978
 4996SOL     OW15730   3.728   0.386   0.638
 4996SOL    HW115731   3.644   0.407   0.678
 4996SOL    HW215732   3.710   0.307   0.586
 4997SOL     OW15733   4.291   1.286   1.174
 4997SOL    HW115734   4.203   1.290   1.136
 4997SOL    HW215735   4.306   1.375   1.208
 4998SOL     OW15736   5.283   1.545   0.707
 4998SOL    HW115737   5.247   1.493   0.778
 4998SOL    HW215738   5.224   1.529   0.633
 4999SOL     OW15739   4.858   0.699   0.702
 4999SOL    HW115740   4.908   0.780   0.691
 4999SOL    HW215741   4.809   0.712   0.783
 5000SOL     OW15742   4.480   1.143   1.040
 5000SOL    HW115743   4.411   1.177   1.097
 5000SOL    HW215744   4.515   1.220   0.995
 5001SOL     OW15745   4.591   0.778   1.823
 5001SOL    HW115746   4.574   0.850   1.883
 5001SOL    HW215747   4.613   0.820   1.740
 5002SOL     OW15748   4.409   1.003   0.650
 5002SOL    HW115749   4.474   0.991   0.719
 5002SOL    HW215750   4.340   1.055   0.691
 5003SOL     OW15751   4.434   1.151   1.812
 5003SOL    HW115752   4.482   1.230   1.838
 5003SOL    HW215753   4.351   1.184   1.777
 5004SOL     OW15754   4.054   1.426   1.068
 5004SOL    HW115755   3.982   1.389   1.017
 5004SOL    HW215756   4.105   1.477   1.004
 5005SOL     OW15757   5.161   1.481   1.350
 5005SOL    HW115758   5.204   1.562   1.376
 5005SOL    HW215759   5.108   1.457   1.426
 5006SOL     OW15760   4.168   0.399   1.488
 5006SOL    HW115761   4.243   0.340   1.485
 5006SOL    HW215762   4.093   0.341   1.502
 5007SOL     OW15763   3.944   1.714   0.472
 5007SOL    HW115764   3.966   1.790   0.526
 5007SOL    HW215765   4.018   1.705   0.412
 5008SOL     OW15766   4.860   1.339   1.694
 5008SOL    HW115767   4.898   1.336   1.781
 5008SOL    HW215768   4.807   1.260   1.687
 5009SOL     OW15769   3.951   1.441   0.530
 5009SOL    HW115770   3.937   1.535   0.535
 5009SOL    HW215771   3.892   1.404   0.596
 5010SOL     OW15772   3.980   1.090   0.891
 5010SOL    HW115773   3.978   1.004   0.932
 5010SOL    HW215774   3.922   1.144   0.944
 5011SOL     OW15775   4.334   1.792   1.427
 5011SOL    HW115776   4.253   1.774   1.475
 5011SOL    HW215777   4.358   1.881   1.454
 5012SOL     OW15778   4.354   0.961   0.133
 5012SOL    HW115779   4.303   1.038   0.107
 5012SOL    HW215780   4.404   0.990   0.209
 5013SOL     OW15781   5.249   0.147   1.481
 5013SOL    HW115782   5.299   0.226   1.459
 5013SOL    HW215783   5.278   0.122   1.568
 5014SOL     OW15784   3.838   0.651   0.561
 5014SOL    HW115785   3.810   0.562   0.583
 5014SOL    HW215786   3.831   0.699   0.644
 5015SOL     OW15787   3.752   1.596   0.111
 5015SOL    HW115788   3.739   1.508   0.145
 5015SOL    HW215789   3.736   1.653   0.186
 5016SOL     OW15790   0.114   0.946   0.593
 5016SOL    HW115791   0.201   0.906   0.593
 5016SOL    HW215792   0.119   1.014   0.526
 5017SOL     OW15793   3.846   0.743   1.585
 5017SOL    HW115794   3.938   0.768   1.594
 5017SOL    HW215795   3.798   0.826   1.593
 5018SOL     OW15796   4.337   1.385   0.735
 5018SOL    HW115797   4.291   1.302   0.744
 5018SOL    HW215798   4.321   1.411   0.644
 5019SOL     OW15799   5.008   1.237   1.425
 5019SOL    HW115800   5.041   1.170   1.365
 5019SOL    HW215801   5.063   1.228   1.503
 5020SOL     OW15802   4.534   0.025   0.527
 5020SOL    HW115803   4.564   0.112   0.499
 5020SOL    HW215804   4.439   0.030   0.521
 5021SOL     OW15805   3.914   0.967   1.270
 5021SOL    HW115806   3.999   0.925   1.256
 5021SOL    HW215807   3.851   0.911   1.225
 5022SOL     OW15808   4.897   1.807   1.623
 5022SOL    HW115809   4.919   1.865   1.550
 5022SOL    HW215810   4.918   1.720   1.591
 5023SOL     OW15811   4.049   0.265   1.810
 5023SOL    HW115812   4.102   0.340   1.837
 5023SOL    HW215813   3.963   0.281   1.849
 5024SOL     OW15814   5.169   1.434   0.937
 5024SOL    HW115815   5.106   1.441   1.009
 5024SOL    HW215816   5.163   1.343   0.908
 5025SOL     OW15817   4.321   0.715   0.282
 5025SOL    HW115818   4.339   0.792   0.228
 5025SOL    HW215819   4.256   0.745   0.345
 5026SOL     OW15820   4.997   0.329   0.920
 5026SOL    HW115821   4.907   0.304   0.943
 5026SOL    HW215822   5.049   0.301   0.995
 5027SOL     OW15823   4.517   0.618   1.451
 5027SOL    HW115824   4.490   0.596   1.540
 5027SOL    HW215825   4.475   0.552   1.396
 5028SOL     OW15826   5.117   0.486   1.679
 5028SOL    HW115827   5.118   0.521   1.768
 5028SOL    HW215828   5.182   0.416   1.680
 5029SOL     OW15829   4.680   0.888   1.582
 5029SOL    HW115830   4.732   0.816   1.547
 5029SOL    HW215831   4.631   0.922   1.506
 5030SOL     OW15832   4.718   0.422   1.232
 5030SOL    HW115833   4.634   0.437   1.275
 5030SOL    HW215834   4.697   0.367   1.156
 5031SOL     OW15835   4.776   0.697   0.427
 5031SOL    HW115836   4.791   0.691   0.521
 5031SOL    HW215837   4.693   0.652   0.412
 5032SOL     OW15838   3.813   0.821   0.776
 5032SOL    HW115839   3.894   0.814   0.827
 5032SOL    HW215840   3.770   0.899   0.811
 5033SOL     OW15841   3.851   1.845   1.577
 5033SOL    HW115842   3.851   1.825   1.671
 5033SOL    HW215843   3.759   1.841   1.551
 5034SOL     OW15844   4.606   0.360   0.200
 5034SOL    HW115845   4.653   0.401   0.128
 5034SOL    HW215846   4.589   0.270   0.169
 5035SOL     OW15847   5.094   1.147   0.548
 5035SOL    HW115848   5.177   1.140   0.501
 5035SOL    HW215849   5.041   1.206   0.495
 5036SOL     OW15850   4.249   0.201   0.883
 5036SOL    HW115851   4.273   0.216   0.975
 5036SOL    HW215852   4.273   0.283   0.839
 5037SOL     OW15853   4.731   1.445   0.474
 5037SOL    HW115854   4.691   1.516   0.424
 5037SOL    HW215855   4.712   1.466   0.565
 5038SOL     OW15856   4.079   1.808   0.861
 5038SOL    HW115857   4.122   1.724   0.869
 5038SOL    HW215858   4.147   1.873   0.879
 5039SOL     OW15859   4.940   1.543   1.520
 5039SOL    HW115860   4.927   1.469   1.579
 5039SOL    HW215861   4.885   1.522   1.444
 5040SOL     OW15862   4.051   0.942   0.254
 5040SOL    HW115863   4.121   0.983   0.203
 5040SOL    HW215864   4.049   0.852   0.224
 5041SOL     OW15865   4.189   1.264   1.738
 5041SOL    HW115866   4.162   1.269   1.646
 5041SOL    HW215867   4.107   1.262   1.787
 5042SOL     OW15868   4.826   1.774   0.225
 5042SOL    HW115869   4.770   1.734   0.293
 5042SOL    HW215870   4.841   1.704   0.162
 5043SOL     OW15871   3.921   0.278   1.502
 5043SOL    HW115872   3.842   0.331   1.498
 5043SOL    HW215873   3.913   0.230   1.584
 5044SOL     OW15874   4.189   1.738   0.323
 5044SOL    HW115875   4.231   1.796   0.386
 5044SOL    HW215876   4.259   1.712   0.264
 5045SOL     OW15877   5.102   0.113   0.443
 5045SOL    HW115878   5.092   0.073   0.356
 5045SOL    HW215879   5.196   0.129   0.452
 5046SOL     OW15880   3.979   1.791   1.232
 5046SOL    HW115881   4.031   1.727   1.279
 5046SOL    HW215882   3.970   1.756   1.144
 5047SOL     OW15883   4.662   1.698   0.899
 5047SOL    HW115884   4.742   1.648   0.916
 5047SOL    HW215885   4.617   1.649   0.830
 5048SOL     OW15886   4.110   0.698   0.477
 5048SOL    HW115887   4.135   0.606   0.487
 5048SOL    HW215888   4.017   0.700   0.500
 5049SOL     OW15889   4.348   0.137   0.123
 5049SOL    HW115890   4.438   0.108   0.134
 5049SOL    HW215891   4.320   0.098   0.040
 5050SOL     OW15892   4.509   0.311   1.766
 5050SOL    HW115893   4.571   0.239   1.766
 5050SOL    HW215894   4.458   0.300   1.847
 5051SOL     OW15895   4.600   1.521   1.194
 5051SOL    HW115896   4.585   1.486   1.106
 5051SOL    HW215897   4.670   1.467   1.230
 5052SOL     OW15898   5.060   0.591   1.431
 5052SOL    HW115899   5.090   0.560   1.516
 5052SOL    HW215900   5.099   0.678   1.422
 5053SOL     OW15901   4.538   1.395   0.939
 5053SOL    HW115902   4.622   1.384   0.895
 5053SOL    HW215903   4.474   1.396   0.867
 5054SOL     OW15904   4.651   0.510   0.902
 5054SOL    HW115905   4.628   0.501   0.810
 5054SOL    HW215906   4.682   0.424   0.929
 5055SOL     OW15907   4.266   0.062   0.512
 5055SOL    HW115908   4.179   0.060   0.552
 5055SOL    HW215909   4.260   0.131   0.446
 5056SOL     OW15910   5.140   1.172   0.042
 5056SOL    HW115911   5.141   1.102   0.107
 5056SOL    HW215912   5.056   1.215   0.055
 5057SOL     OW15913   4.024   0.068   0.205
 5057SOL    HW115914   4.080   0.138   0.171
 5057SOL    HW215915   4.077   5.289   0.198
 5058SOL     OW15916   4.667   0.256   0.453
 5058SOL    HW115917   4.639   0.302   0.374
 5058SOL    HW215918   4.759   0.279   0.464
 5059SOL     OW15919   4.802   0.680   1.461
 5059SOL    HW115920   4.733   0.615   1.463
 5059SOL    HW215921   4.883   0.630   1.450
 5060SOL     OW15922   4.941   1.572   0.796
 5060SOL    HW115923   4.964   1.637   0.730
 5060SOL    HW215924   5.021   1.558   0.846
 5061SOL     OW15925   4.192   1.150   0.734
 5061SOL    HW115926   4.123   1.130   0.798
 5061SOL    HW215927   4.151   1.133   0.649
 5062SOL     OW15928   4.993   1.794   0.604
 5062SOL    HW115929   5.037   1.857   0.548
 5062SOL    HW215930   4.928   1.846   0.651
 5063SOL     OW15931   4.765   0.534   0.022
 5063SOL    HW115932   4.709   0.609   0.003
 5063SOL    HW215933   4.814   0.559   0.100
 5064SOL     OW15934   3.802   0.553   1.393
 5064SOL    HW115935   3.894   0.553   1.365
 5064SOL    HW215936   3.797   0.624   1.457
 5065SOL     OW15937   4.280   0.238   1.158
 5065SOL    HW115938   4.312   0.152   1.186
 5065SOL    HW215939   4.188   0.239   1.184
 5066SOL     OW15940   4.593   0.461   0.639
 5066SOL    HW115941   4.548   0.514   0.573
 5066SOL    HW215942   4.613   0.379   0.594
 5067SOL     OW15943   4.696   0.064   0.764
 5067SOL    HW115944   4.634   0.053   0.691
 5067SOL    HW215945   4.716   5.274   0.792
 5068SOL     OW15946   5.158   1.175   0.850
 5068SOL    HW115947   5.102   1.099   0.863
 5068SOL    HW215948   5.167   1.182   0.755
 5069SOL     OW15949   4.207   1.439   0.172
 5069SOL    HW115950   4.134   1.396   0.219
 5069SOL    HW215951   4.212   1.392   0.089
 5070SOL     OW15952   5.123   0.574   0.083
 5070SOL    HW115953   5.049   0.557   0.142
 5070SOL    HW215954   5.200   0.545   0.132
 5071SOL     OW15955   4.247   0.268   0.329
 5071SOL    HW115956   4.287   0.212   0.262
 5071SOL    HW215957   4.231   0.351   0.284
 5072SOL     OW15958   4.781   1.354   1.334
 5072SOL    HW115959   4.706   1.323   1.384
 5072SOL    HW215960   4.857   1.311   1.374
 5073SOL     OW15961   0.006   1.604   1.617
 5073SOL    HW115962   0.040   1.610   1.528
 5073SOL    HW215963   0.083   1.584   1.670
 5074SOL     OW15964   4.852   1.203   1.107
 5074SOL    HW115965   4.791   1.239   1.171
 5074SOL    HW215966   4.818   1.232   1.022
 5075SOL     OW15967   4.625   0.104   1.388
 5075SOL    HW115968   4.658   0.070   1.305
 5075SOL    HW215969   4.700   0.147   1.428
 5076SOL     OW15970   4.708   1.113   1.725
 5076SOL    HW115971   4.616   1.130   1.744
 5076SOL    HW215972   4.707   1.036   1.667
 5077SOL     OW15973   4.438   1.063   0.380
 5077SOL    HW115974   4.420   1.045   0.472
 5077SOL    HW215975   4.515   1.010   0.360
 5078SOL     OW15976   4.142   0.815   1.251
 5078SOL    HW115977   4.211   0.824   1.317
 5078SOL    HW215978   4.107   0.727   1.265
 5079SOL     OW15979   4.992   0.380   1.269
 5079SOL    HW115980   5.025   0.458   1.314
 5079SOL    HW215981   4.901   0.402   1.247
 5080SOL     OW15982   3.794   1.573   1.352
 5080SOL    HW115983   3.764   1.646   1.298
 5080SOL    HW215984   3.889   1.577   1.347
 5081SOL     OW15985   4.070   1.109   0.492
 5081SOL    HW115986   4.076   1.182   0.430
 5081SOL    HW215987   4.078   1.031   0.437
 5082SOL     OW15988   4.278   0.538   0.861
 5082SOL    HW115989   4.294   0.596   0.786
 5082SOL    HW215990   4.343   0.564   0.926
 5083SOL     OW15991   4.971   1.347   0.392
 5083SOL    HW115992   5.027   1.419   0.420
 5083SOL    HW215993   4.884   1.369   0.424
 5084SOL     OW15994   4.993   1.456   1.139
 5084SOL    HW115995   5.048   1.458   1.217
 5084SOL    HW215996   4.940   1.377   1.150
 5085SOL     OW15997   4.071   1.526   1.316
 5085SOL    HW115998   4.058   1.484   1.231
 5085SOL    HW215999   4.166   1.539   1.323
 5086SOL     OW16000   4.138   0.745   1.602
 5086SOL    HW116001   4.199   0.790   1.544
 5086SOL    HW216002   4.179   0.660   1.619
 5087SOL     OW16003   4.753   0.116   1.759
 5087SOL    HW116004   4.794   0.198   1.730
 5087SOL    HW216005   4.792   0.049   1.703
 5088SOL     OW16006   4.204   0.057   1.738
 5088SOL    HW116007   4.146   5.293   1.696
 5088SOL    HW216008   4.146   0.130   1.760
 5089SOL     OW16009   4.307   0.873   1.031
 5089SOL    HW116010   4.338   0.963   1.030
 5089SOL    HW216011   4.250   0.867   1.108
 5090SOL     OW16012   5.085   0.857   1.039
 5090SOL    HW116013   5.010   0.841   0.982
 5090SOL    HW216014   5.138   0.777   1.031
 5091SOL     OW16015   4.929   0.531   0.268
 5091SOL    HW116016   4.933   0.448   0.316
 5091SOL    HW216017   4.885   0.591   0.328
 5092SOL     OW16018   4.021   0.204   1.247
 5092SOL    HW116019   3.982   0.243   1.325
 5092SOL    HW216020   4.020   0.110   1.264
 5093SOL     OW16021   3.769   1.311   1.276
 5093SOL    HW116022   3.803   1.256   1.348
 5093SOL    HW216023   3.777   1.400   1.309
 5094SOL     OW16024   4.450   0.632   1.060
 5094SOL    HW116025   4.523   0.614   1.001
 5094SOL    HW216026   4.422   0.720   1.036
 5095SOL     OW16027   4.024   0.072   0.650
 5095SOL    HW116028   4.009   0.166   0.658
 5095SOL    HW216029   4.068   0.047   0.731
 5096SOL     OW16030   0.037   0.407   0.361
 5096SOL    HW116031   0.061   0.345   0.431
 5096SOL    HW216032   0.002   0.483   0.408
 5097SOL     OW16033   4.751   0.759   0.961
 5097SOL    HW116034   4.750   0.777   1.055
 5097SOL    HW216035   4.725   0.667   0.953
 5098SOL     OW16036   4.698   1.561   1.713
 5098SOL    HW116037   4.687   1.609   1.631
 5098SOL    HW216038   4.746   1.483   1.689
 5099SOL     OW16039   4.077   0.916   1.808
 5099SOL    HW116040   4.160   0.935   1.854
 5099SOL    HW216041   4.101   0.853   1.740
 5100SOL     OW16042   5.031   0.831   0.028
 5100SOL    HW116043   5.059   0.741   0.043
 5100SOL    HW216044   5.058   0.851   8.019
 5101SOL     OW16045   4.789   1.334   0.855
 5101SOL    HW116046   4.792   1.262   0.792
 5101SOL    HW216047   4.847   1.401   0.819
 5102SOL     OW16048   4.033   0.809   0.947
 5102SOL    HW116049   4.126   0.830   0.941
 5102SOL    HW216050   4.031   0.719   0.980
 5103SOL     OW16051   4.056   0.526   1.012
 5103SOL    HW116052   4.020   0.438   0.997
 5103SOL    HW216053   4.133   0.530   0.955
 5104SOL     OW16054   4.862   0.377   1.690
 5104SOL    HW116055   4.812   0.432   1.751
 5104SOL    HW216056   4.946   0.422   1.681
 5105SOL     OW16057   4.847   0.234   1.458
 5105SOL    HW116058   4.860   0.283   1.540
 5105SOL    HW216059   4.912   0.270   1.398
 5106SOL     OW16060   3.735   1.324   0.190
 5106SOL    HW116061   3.648   1.338   0.153
 5106SOL    HW216062   3.733   1.234   0.222
 5107SOL     OW16063   3.814   1.788   0.937
 5107SOL    HW116064   3.784   1.708   0.894
 5107SOL    HW216065   3.904   1.800   0.907
 5108SOL     OW16066   4.221   1.574   0.906
 5108SOL    HW116067   4.290   1.636   0.930
 5108SOL    HW216068   4.265   1.510   0.849
 5109SOL     OW16069   4.708   0.794   1.228
 5109SOL    HW116070   4.763   0.769   1.302
 5109SOL    HW216071   4.623   0.754   1.246
 5110SOL     OW16072   3.759   0.544   1.117
 5110SOL    HW116073   3.839   0.528   1.066
 5110SOL    HW216074   3.789   0.548   1.208
 5111SOL     OW16075   3.911   0.521   1.727
 5111SOL    HW116076   3.974   0.486   1.664
 5111SOL    HW216077   3.870   0.595   1.681
 5112SOL     OW16078   5.112   0.939   1.666
 5112SOL    HW116079   5.120   1.033   1.654
 5112SOL    HW216080   5.114   0.903   1.577
 5113SOL     OW16081   4.542   0.571   0.364
 5113SOL    HW116082   4.549   0.498   0.302
 5113SOL    HW216083   4.465   0.620   0.336
 5114SOL     OW16084   3.968   1.552   1.728
 5114SOL    HW116085   3.945   1.615   1.796
 5114SOL    HW216086   3.969   1.468   1.774
 5115SOL     OW16087   4.420   0.453   1.262
 5115SOL    HW116088   4.371   0.378   1.227
 5115SOL    HW216089   4.421   0.516   1.190
 5116SOL     OW16090   4.645   1.680   1.468
 5116SOL    HW116091   4.624   1.648   1.381
 5116SOL    HW216092   4.647   1.775   1.459
 5117SOL     OW16093   4.192   0.492   0.177
 5117SOL    HW116094   4.259   0.558   0.197
 5117SOL    HW216095   4.109   0.538   0.192
 5118SOL     OW16096   3.870   1.140   1.472
 5118SOL    HW116097   3.873   1.088   1.552
 5118SOL    HW216098   3.887   1.077   1.402
 5119SOL     OW16099   5.054   1.050   1.225
 5119SOL    HW116100   5.075   0.985   1.158
 5119SOL    HW216101   4.982   1.100   1.187
 5120SOL     OW16102   5.024   0.868   0.319
 5120SOL    HW116103   4.946   0.825   0.353
 5120SOL    HW216104   5.022   0.850   0.225
 5121SOL     OW16105   4.960   1.731   1.122
 5121SOL    HW116106   5.046   1.751   1.084
 5121SOL    HW216107   4.960   1.636   1.132
 5122SOL     OW16108   3.807   1.267   1.012
 5122SOL    HW116109   3.793   1.279   1.106
 5122SOL    HW216110   3.735   1.212   0.984
 5123SOL     OW16111   4.401   1.664   1.727
 5123SOL    HW116112   4.350   1.745   1.722
 5123SOL    HW216113   4.469   1.675   1.661
 5124SOL     OW16114   4.615   0.085   0.142
 5124SOL    HW116115   4.661   0.075   0.058
 5124SOL    HW216116   4.631   0.003   0.188
 5125SOL     OW16117   5.108   1.570   0.478
 5125SOL    HW116118   5.162   1.612   0.411
 5125SOL    HW216119   5.060   1.642   0.519
 5126SOL     OW16120   3.859   1.797   1.843
 5126SOL    HW116121   3.809   1.732   1.892
 5126SOL    HW216122   3.908   1.845   1.911
 5127SOL     OW16123   5.016   0.920   0.673
 5127SOL    HW116124   5.093   0.864   0.658
 5127SOL    HW216125   5.035   1.000   0.624
 5128SOL     OW16126   4.539   1.273   1.431
 5128SOL    HW116127   4.511   1.312   1.513
 5128SOL    HW216128   4.470   1.295   1.369
 5129SOL     OW16129   4.400   1.620   0.156
 5129SOL    HW116130   4.407   1.626   0.061
 5129SOL    HW216131   4.340   1.548   0.172
 5130SOL     OW16132   3.986   0.329   0.720
 5130SOL    HW116133   3.899   0.360   0.698
 5130SOL    HW216134   3.984   0.317   0.815
 5131SOL     OW16135   4.860   1.580   0.045
 5131SOL    HW116136   4.901   1.494   0.061
 5131SOL    HW216137   4.897   1.609   8.042
 5132SOL     OW16138   4.547   1.006   1.373
 5132SOL    HW116139   4.592   1.001   1.288
 5132SOL    HW216140   4.548   1.099   1.394
 5133SOL     OW16141   4.643   0.914   0.299
 5133SOL    HW116142   4.696   0.938   0.224
 5133SOL    HW216143   4.690   0.841   0.339
 5134SOL     OW16144   4.093   1.302   1.492
 5134SOL    HW116145   4.080   1.380   1.437
 5134SOL    HW216146   4.016   1.248   1.475
 5135SOL     OW16147   4.775   1.107   0.707
 5135SOL    HW116148   4.704   1.056   0.747
 5135SOL    HW216149   4.832   1.041   0.667
 5136SOL     OW16150   4.738   0.242   0.971
 5136SOL    HW116151   4.720   0.197   0.888
 5136SOL    HW216152   4.733   0.174   1.038
 5137SOL     OW16153   4.326   1.487   0.480
 5137SOL    HW116154   4.370   1.437   0.411
 5137SOL    HW216155   4.258   1.537   0.435
 5138SOL     OW16156   3.990   1.321   0.293
 5138SOL    HW116157   3.904   1.332   0.253
 5138SOL    HW216158   3.984   1.366   0.377
 5139SOL     OW16159   3.836   1.021   1.719
 5139SOL    HW116160   3.760   0.998   1.772
 5139SOL    HW216161   3.911   0.984   1.766
 5140SOL     OW16162   4.396   0.212   1.489
 5140SOL    HW116163   4.479   0.191   1.445
 5140SOL    HW216164   4.421   0.260   1.568
 5141SOL     OW16165   3.793   0.361   0.034
 5141SOL    HW116166   3.720   0.300   0.023
 5141SOL    HW216167   3.807   0.398   8.027
 5142SOL     OW16168   5.163   0.860   1.404
 5142SOL    HW116169   5.110   0.915   1.347
 5142SOL    HW216170   5.252   0.869   1.369
 5143SOL     OW16171   3.792   0.165   0.314
 5143SOL    HW116172   3.799   0.252   0.275
 5143SOL    HW216173   3.877   0.125   0.296
 5144SOL     OW16174   4.914   1.315   0.120
 5144SOL    HW116175   4.819   1.314   0.114
 5144SOL    HW216176   4.933   1.321   0.214
 5145SOL     OW16177   4.343   0.831   1.433
 5145SOL    HW116178   4.399   0.907   1.418
 5145SOL    HW216179   4.404   0.758   1.441
 5146SOL     OW16180   4.440   0.571   1.703
 5146SOL    HW116181   4.480   0.633   1.764
 5146SOL    HW216182   4.470   0.485   1.733
 5147SOL     OW16183   5.182   1.205   1.632
 5147SOL    HW116184   5.173   1.217   1.727
 5147SOL    HW216185   5.276   1.211   1.616
 5148SOL     OW16186   4.104   1.739   1.564
 5148SOL    HW116187   4.019   1.780   1.551
 5148SOL    HW216188   4.084   1.656   1.606
 5149SOL     OW16189   4.936   0.332   0.472
 5149SOL    HW116190   4.990   0.254   0.457
 5149SOL    HW216191   4.975   0.373   0.550
 5150SOL     OW16192   4.313   0.738   0.669
 5150SOL    HW116193   4.353   0.824   0.653
 5150SOL    HW216194   4.244   0.732   0.603
 5151SOL     OW16195   4.619   1.370   0.032
 5151SOL    HW116196   4.554   1.364   0.103
 5151SOL    HW216197   4.615   1.461   0.003
 5152SOL     OW16198   4.384   1.792   0.945
 5152SOL    HW116199   4.364   1.883   0.922
 5152SOL    HW216200   4.479   1.785   0.938
 5153SOL     OW16201   4.591   0.966   0.856
 5153SOL    HW116202   4.641   0.895   0.895
 5153SOL    HW216203   4.557   1.016   0.930
 5154SOL     OW16204   4.801   0.974   0.086
 5154SOL    HW116205   4.790   1.037   0.015
 5154SOL    HW216206   4.883   0.930   0.066
 5155SOL     OW16207   3.948   1.304   1.856
 5155SOL    HW116208   3.881   1.242   1.827
 5155SOL    HW216209   3.931   1.316   1.949
 5156SOL     OW16210   3.809   1.233   0.664
 5156SOL    HW116211   3.812   1.184   0.746
 5156SOL    HW216212   3.880   1.197   0.612
 5157SOL     OW16213   4.405   1.401   1.628
 5157SOL    HW116214   4.324   1.359   1.659
 5157SOL    HW216215   4.401   1.490   1.663
 5158SOL     OW16216   4.150   0.438   0.522
 5158SOL    HW116217   4.186   0.366   0.471
 5158SOL    HW216218   4.107   0.395   0.597
 5159SOL     OW16219   0.095   1.522   1.100
 5159SOL    HW116220   0.028   1.496   1.036
 5159SOL    HW216221   0.105   1.446   1.156
 5160SOL     OW16222   4.052   0.555   1.290
 5160SOL    HW116223   4.108   0.501   1.345
 5160SOL    HW216224   4.073   0.528   1.201
 5161SOL     OW16225   4.551   1.578   0.678
 5161SOL    HW116226   4.540   1.629   0.598
 5161SOL    HW216227   4.473   1.521   0.680
 5162SOL     OW16228   5.151   0.216   1.121
 5162SOL    HW116229   5.158   0.133   1.167
 5162SOL    HW216230   5.105   0.274   1.181
 5163SOL     OW16231   4.725   0.021   1.141
 5163SOL    HW116232   4.674   5.252   1.098
 5163SOL    HW216233   4.812   5.283   1.152
 5164SOL     OW16234   4.493   1.328   0.308
 5164SOL    HW116235   4.462   1.238   0.322
 5164SOL    HW216236   4.576   1.331   0.357
 5165SOL     OW16237   4.344   1.557   1.285
 5165SOL    HW116238   4.346   1.639   1.334
 5165SOL    HW216239   4.431   1.549   1.247
 5166SOL     OW16240   5.074   5.295   0.202
 5166SOL    HW116241   5.138   0.010   0.132
 5166SOL    HW216242   5.001   0.053   0.180
 5167SOL     OW16243   5.034   0.465   0.691
 5167SOL    HW116244   4.974   0.540   0.693
 5167SOL    HW216245   5.019   0.420   0.775
 5168SOL     OW16246   5.296   0.214   0.882
 5168SOL    HW116247   5.237   0.216   0.957
 5168SOL    HW216248   5.278   0.295   0.834
 5169SOL     OW16249   3.767   1.068   0.303
 5169SOL    HW116250   3.862   1.066   0.306
 5169SOL    HW216251   3.741   0.985   0.344
 5170SOL     OW16252   4.604   1.651   0.350
 5170SOL    HW116253   4.537   1.635   0.283
 5170SOL    HW216254   4.572   1.728   0.397
 5171SOL     OW16255   3.953   0.626   1.984
 5171SOL    HW116256   3.864   0.622   2.020
 5171SOL    HW216257   3.943   0.598   1.893
 5172SOL     OW16258   3.942   0.284   2.854
 5172SOL    HW116259   3.971   0.249   2.939
 5172SOL    HW216260   3.857   0.243   2.840
 5173SOL     OW16261   3.728   0.385   2.500
 5173SOL    HW116262   3.644   0.406   2.540
 5173SOL    HW216263   3.711   0.308   2.447
 5174SOL     OW16264   4.291   1.286   3.036
 5174SOL    HW116265   4.203   1.290   2.998
 5174SOL    HW216266   4.306   1.375   3.070
 5175SOL     OW16267   5.285   1.535   2.568
 5175SOL    HW116268   5.245   1.492   2.644
 5175SOL    HW216269   5.219   1.526   2.498
 5176SOL     OW16270   4.859   0.699   2.563
 5176SOL    HW116271   4.908   0.780   2.553
 5176SOL    HW216272   4.809   0.711   2.644
 5177SOL     OW16273   4.480   1.143   2.902
 5177SOL    HW116274   4.411   1.177   2.959
 5177SOL    HW216275   4.515   1.220   2.857
 5178SOL     OW16276   4.591   0.778   3.685
 5178SOL    HW116277   4.574   0.850   3.746
 5178SOL    HW216278   4.613   0.821   3.602
 5179SOL     OW16279   4.411   1.004   2.509
 5179SOL    HW116280   4.475   0.991   2.579
 5179SOL    HW216281   4.341   1.055   2.550
 5180SOL     OW16282   4.434   1.151   3.674
 5180SOL    HW116283   4.482   1.230   3.700
 5180SOL    HW216284   4.351   1.184   3.639
 5181SOL     OW16285   4.054   1.427   2.930
 5181SOL    HW116286   3.982   1.389   2.879
 5181SOL    HW216287   4.105   1.477   2.866
 5182SOL     OW16288   5.160   1.481   3.212
 5182SOL    HW116289   5.205   1.562   3.237
 5182SOL    HW216290   5.108   1.458   3.289
 5183SOL     OW16291   4.168   0.399   3.349
 5183SOL    HW116292   4.243   0.340   3.347
 5183SOL    HW216293   4.093   0.341   3.364
 5184SOL     OW16294   3.943   1.714   2.334
 5184SOL    HW116295   3.965   1.790   2.388
 5184SOL    HW216296   4.016   1.706   2.273
 5185SOL     OW16297   4.860   1.339   3.556
 5185SOL    HW116298   4.898   1.336   3.643
 5185SOL    HW216299   4.807   1.260   3.549
 5186SOL     OW16300   3.954   1.441   2.397
 5186SOL    HW116301   3.937   1.535   2.401
 5186SOL    HW216302   3.894   1.403   2.460
 5187SOL     OW16303   3.981   1.090   2.753
 5187SOL    HW116304   3.978   1.004   2.794
 5187SOL    HW216305   3.923   1.144   2.807
 5188SOL     OW16306   4.334   1.792   3.289
 5188SOL    HW116307   4.253   1.774   3.337
 5188SOL    HW216308   4.359   1.881   3.316
 5189SOL     OW16309   4.311   0.981   1.996
 5189SOL    HW116310   4.355   1.031   1.927
 5189SOL    HW216311   4.350   1.011   2.077
 5190SOL     OW16312   5.250   0.145   3.341
 5190SOL    HW116313   5.298   0.225   3.321
 5190SOL    HW216314   5.277   0.123   3.431
 5191SOL     OW16315   3.838   0.653   2.421
 5191SOL    HW116316   3.811   0.564   2.442
 5191SOL    HW216317   3.831   0.701   2.504
 5192SOL     OW16318   3.755   1.596   1.986
 5192SOL    HW116319   3.738   1.503   2.006
 5192SOL    HW216320   3.731   1.642   2.066
 5193SOL     OW16321   0.112   0.940   2.438
 5193SOL    HW116322   0.200   0.904   2.455
 5193SOL    HW216323   0.129   1.024   2.395
 5194SOL     OW16324   3.846   0.744   3.447
 5194SOL    HW116325   3.938   0.768   3.456
 5194SOL    HW216326   3.798   0.826   3.455
 5195SOL     OW16327   4.337   1.385   2.597
 5195SOL    HW116328   4.291   1.301   2.606
 5195SOL    HW216329   4.321   1.411   2.507
 5196SOL     OW16330   5.008   1.237   3.287
 5196SOL    HW116331   5.041   1.170   3.227
 5196SOL    HW216332   5.062   1.229   3.365
 5197SOL     OW16333   4.534   0.025   2.390
 5197SOL    HW116334   4.563   0.113   2.365
 5197SOL    HW216335   4.439   0.028   2.383
 5198SOL     OW16336   3.914   0.967   3.132
 5198SOL    HW116337   3.999   0.925   3.117
 5198SOL    HW216338   3.852   0.911   3.087
 5199SOL     OW16339   4.897   1.807   3.485
 5199SOL    HW116340   4.919   1.865   3.412
 5199SOL    HW216341   4.918   1.720   3.453
 5200SOL     OW16342   4.049   0.266   3.671
 5200SOL    HW116343   4.102   0.340   3.699
 5200SOL    HW216344   3.963   0.281   3.711
 5201SOL     OW16345   5.169   1.434   2.799
 5201SOL    HW116346   5.106   1.441   2.871
 5201SOL    HW216347   5.163   1.343   2.770
 5202SOL     OW16348   4.319   0.722   2.128
 5202SOL    HW116349   4.324   0.803   2.077
 5202SOL    HW216350   4.253   0.740   2.195
 5203SOL     OW16351   4.997   0.329   2.780
 5203SOL    HW116352   4.907   0.305   2.804
 5203SOL    HW216353   5.050   0.302   2.855
 5204SOL     OW16354   4.518   0.618   3.313
 5204SOL    HW116355   4.490   0.596   3.402
 5204SOL    HW216356   4.475   0.552   3.258
 5205SOL     OW16357   5.117   0.486   3.541
 5205SOL    HW116358   5.118   0.521   3.630
 5205SOL    HW216359   5.183   0.416   3.542
 5206SOL     OW16360   4.680   0.888   3.444
 5206SOL    HW116361   4.732   0.816   3.409
 5206SOL    HW216362   4.631   0.922   3.368
 5207SOL     OW16363   4.718   0.422   3.094
 5207SOL    HW116364   4.634   0.437   3.137
 5207SOL    HW216365   4.697   0.367   3.019
 5208SOL     OW16366   4.775   0.697   2.288
 5208SOL    HW116367   4.789   0.691   2.382
 5208SOL    HW216368   4.692   0.652   2.273
 5209SOL     OW16369   3.812   0.821   2.639
 5209SOL    HW116370   3.894   0.813   2.689
 5209SOL    HW216371   3.770   0.899   2.673
 5210SOL     OW16372   3.851   1.844   3.439
 5210SOL    HW116373   3.852   1.825   3.533
 5210SOL    HW216374   3.759   1.839   3.415
 5211SOL     OW16375   4.597   0.361   2.052
 5211SOL    HW116376   4.636   0.418   1.985
 5211SOL    HW216377   4.648   0.281   2.047
 5212SOL     OW16378   5.092   1.146   2.409
 5212SOL    HW116379   5.179   1.146   2.370
 5212SOL    HW216380   5.041   1.206   2.354
 5213SOL     OW16381   4.251   0.202   2.745
 5213SOL    HW116382   4.273   0.216   2.837
 5213SOL    HW216383   4.273   0.284   2.701
 5214SOL     OW16384   4.731   1.444   2.335
 5214SOL    HW116385   4.692   1.516   2.285
 5214SOL    HW216386   4.714   1.466   2.426
 5215SOL     OW16387   4.078   1.808   2.724
 5215SOL    HW116388   4.122   1.724   2.731
 5215SOL    HW216389   4.147   1.873   2.741
 5216SOL     OW16390   4.940   1.543   3.382
 5216SOL    HW116391   4.927   1.469   3.441
 5216SOL    HW216392   4.885   1.522   3.306
 5217SOL     OW16393   4.044   0.957   2.112
 5217SOL    HW116394   4.126   0.976   2.066
 5217SOL    HW216395   4.013   0.875   2.073
 5218SOL     OW16396   4.189   1.264   3.600
 5218SOL    HW116397   4.162   1.269   3.508
 5218SOL    HW216398   4.108   1.262   3.649
 5219SOL     OW16399   4.833   1.775   2.098
 5219SOL    HW116400   4.761   1.730   2.143
 5219SOL    HW216401   4.857   1.716   2.027
 5220SOL     OW16402   3.921   0.278   3.364
 5220SOL    HW116403   3.842   0.332   3.360
 5220SOL    HW216404   3.913   0.230   3.447
 5221SOL     OW16405   4.190   1.737   2.183
 5221SOL    HW116406   4.232   1.795   2.247
 5221SOL    HW216407   4.262   1.707   2.127
 5222SOL     OW16408   5.100   0.099   2.283
 5222SOL    HW116409   5.085   0.082   2.190
 5222SOL    HW216410   5.193   0.118   2.289
 5223SOL     OW16411   3.977   1.791   3.094
 5223SOL    HW116412   4.031   1.727   3.141
 5223SOL    HW216413   3.971   1.756   3.005
 5224SOL     OW16414   4.662   1.698   2.761
 5224SOL    HW116415   4.741   1.647   2.779
 5224SOL    HW216416   4.617   1.649   2.692
 5225SOL     OW16417   4.116   0.696   2.339
 5225SOL    HW116418   4.138   0.603   2.349
 5225SOL    HW216419   4.022   0.701   2.356
 5226SOL     OW16420   4.346   0.133   1.970
 5226SOL    HW116421   4.419   0.074   1.988
 5226SOL    HW216422   4.298   0.090   1.899
 5227SOL     OW16423   4.509   0.311   3.628
 5227SOL    HW116424   4.571   0.238   3.628
 5227SOL    HW216425   4.458   0.300   3.709
 5228SOL     OW16426   4.600   1.521   3.056
 5228SOL    HW116427   4.585   1.486   2.968
 5228SOL    HW216428   4.670   1.467   3.092
 5229SOL     OW16429   5.060   0.591   3.293
 5229SOL    HW116430   5.090   0.560   3.378
 5229SOL    HW216431   5.099   0.678   3.284
 5230SOL     OW16432   4.538   1.395   2.801
 5230SOL    HW116433   4.622   1.384   2.757
 5230SOL    HW216434   4.474   1.396   2.730
 5231SOL     OW16435   4.651   0.511   2.765
 5231SOL    HW116436   4.628   0.501   2.673
 5231SOL    HW216437   4.682   0.424   2.791
 5232SOL     OW16438   4.266   0.063   2.371
 5232SOL    HW116439   4.180   0.062   2.413
 5232SOL    HW216440   4.260   0.132   2.306
 5233SOL     OW16441   5.137   1.180   1.905
 5233SOL    HW116442   5.147   1.103   1.961
 5233SOL    HW216443   5.049   1.213   1.926
 5234SOL     OW16444   4.026   0.061   2.052
 5234SOL    HW116445   4.085   0.130   2.021
 5234SOL    HW216446   4.082   5.285   2.064
 5235SOL     OW16447   4.661   0.261   2.325
 5235SOL    HW116448   4.632   0.295   2.241
 5235SOL    HW216449   4.756   0.275   2.326
 5236SOL     OW16450   4.802   0.681   3.323
 5236SOL    HW116451   4.733   0.615   3.325
 5236SOL    HW216452   4.883   0.630   3.312
 5237SOL     OW16453   4.941   1.571   2.656
 5237SOL    HW116454   4.963   1.637   2.591
 5237SOL    HW216455   5.020   1.560   2.708
 5238SOL     OW16456   4.192   1.149   2.596
 5238SOL    HW116457   4.123   1.130   2.659
 5238SOL    HW216458   4.153   1.132   2.511
 5239SOL     OW16459   4.996   1.794   2.467
 5239SOL    HW116460   5.038   1.855   2.406
 5239SOL    HW216461   4.930   1.847   2.512
 5240SOL     OW16462   4.753   0.551   1.881
 5240SOL    HW116463   4.706   0.632   1.863
 5240SOL    HW216464   4.807   0.571   1.957
 5241SOL     OW16465   3.802   0.553   3.255
 5241SOL    HW116466   3.894   0.553   3.227
 5241SOL    HW216467   3.797   0.624   3.319
 5242SOL     OW16468   4.280   0.238   3.020
 5242SOL    HW116469   4.312   0.152   3.049
 5242SOL    HW216470   4.188   0.239   3.046
 5243SOL     OW16471   4.593   0.464   2.502
 5243SOL    HW116472   4.544   0.516   2.438
 5243SOL    HW216473   4.613   0.382   2.456
 5244SOL     OW16474   4.699   0.063   2.625
 5244SOL    HW116475   4.635   0.054   2.554
 5244SOL    HW216476   4.714   5.273   2.655
 5245SOL     OW16477   5.158   1.176   2.713
 5245SOL    HW116478   5.101   1.099   2.726
 5245SOL    HW216479   5.169   1.181   2.618
 5246SOL     OW16480   4.215   1.417   2.019
 5246SOL    HW116481   4.140   1.388   2.072
 5246SOL    HW216482   4.199   1.380   1.932
 5247SOL     OW16483   5.127   0.560   1.943
 5247SOL    HW116484   5.052   0.552   2.001
 5247SOL    HW216485   5.202   0.531   1.996
 5248SOL     OW16486   4.248   0.265   2.184
 5248SOL    HW116487   4.291   0.215   2.115
 5248SOL    HW216488   4.228   0.349   2.144
 5249SOL     OW16489   4.781   1.354   3.195
 5249SOL    HW116490   4.706   1.323   3.246
 5249SOL    HW216491   4.857   1.311   3.236
 5250SOL     OW16492   0.006   1.603   3.479
 5250SOL    HW116493   0.040   1.610   3.390
 5250SOL    HW216494   0.083   1.584   3.533
 5251SOL     OW16495   4.852   1.203   2.969
 5251SOL    HW116496   4.791   1.238   3.033
 5251SOL    HW216497   4.818   1.232   2.884
 5252SOL     OW16498   4.625   0.104   3.250
 5252SOL    HW116499   4.658   0.070   3.167
 5252SOL    HW216500   4.701   0.147   3.290
 5253SOL     OW16501   4.708   1.113   3.587
 5253SOL    HW116502   4.616   1.130   3.606
 5253SOL    HW216503   4.706   1.036   3.529
 5254SOL     OW16504   4.432   1.061   2.233
 5254SOL    HW116505   4.418   1.045   2.327
 5254SOL    HW216506   4.508   1.008   2.211
 5255SOL     OW16507   4.142   0.815   3.113
 5255SOL    HW116508   4.211   0.824   3.179
 5255SOL    HW216509   4.107   0.727   3.127
 5256SOL     OW16510   4.992   0.380   3.131
 5256SOL    HW116511   5.025   0.458   3.176
 5256SOL    HW216512   4.901   0.401   3.109
 5257SOL     OW16513   3.794   1.573   3.214
 5257SOL    HW116514   3.765   1.646   3.160
 5257SOL    HW216515   3.890   1.576   3.209
 5258SOL     OW16516   4.074   1.109   2.353
 5258SOL    HW116517   4.079   1.182   2.291
 5258SOL    HW216518   4.072   1.031   2.297
 5259SOL     OW16519   4.278   0.538   2.723
 5259SOL    HW116520   4.294   0.596   2.648
 5259SOL    HW216521   4.343   0.565   2.788
 5260SOL     OW16522   4.972   1.349   2.250
 5260SOL    HW116523   5.026   1.421   2.280
 5260SOL    HW216524   4.884   1.369   2.283
 5261SOL     OW16525   4.993   1.456   3.001
 5261SOL    HW116526   5.048   1.459   3.079
 5261SOL    HW216527   4.940   1.377   3.012
 5262SOL     OW16528   4.071   1.526   3.178
 5262SOL    HW116529   4.058   1.484   3.093
 5262SOL    HW216530   4.165   1.539   3.185
 5263SOL     OW16531   4.138   0.744   3.464
 5263SOL    HW116532   4.199   0.789   3.406
 5263SOL    HW216533   4.179   0.660   3.481
 5264SOL     OW16534   4.753   0.116   3.621
 5264SOL    HW116535   4.794   0.198   3.592
 5264SOL    HW216536   4.792   0.049   3.565
 5265SOL     OW16537   4.204   0.057   3.600
 5265SOL    HW116538   4.146   5.293   3.558
 5265SOL    HW216539   4.146   0.130   3.622
 5266SOL     OW16540   4.307   0.873   2.893
 5266SOL    HW116541   4.337   0.964   2.892
 5266SOL    HW216542   4.251   0.867   2.970
 5267SOL     OW16543   5.086   0.858   2.899
 5267SOL    HW116544   5.008   0.841   2.845
 5267SOL    HW216545   5.136   0.776   2.895
 5268SOL     OW16546   4.930   0.531   2.129
 5268SOL    HW116547   4.934   0.451   2.180
 5268SOL    HW216548   4.886   0.594   2.186
 5269SOL     OW16549   4.021   0.204   3.109
 5269SOL    HW116550   3.982   0.243   3.187
 5269SOL    HW216551   4.020   0.110   3.126
 5270SOL     OW16552   3.769   1.311   3.139
 5270SOL    HW116553   3.803   1.256   3.210
 5270SOL    HW216554   3.777   1.400   3.171
 5271SOL     OW16555   4.450   0.632   2.922
 5271SOL    HW116556   4.523   0.614   2.863
 5271SOL    HW216557   4.421   0.720   2.899
 5272SOL     OW16558   4.026   0.072   2.512
 5272SOL    HW116559   4.010   0.166   2.520
 5272SOL    HW216560   4.067   0.047   2.594
 5273SOL     OW16561   0.028   0.406   2.227
 5273SOL    HW116562   0.060   0.344   2.293
 5273SOL    HW216563   0.004   0.484   2.277
 5274SOL     OW16564   4.751   0.759   2.823
 5274SOL    HW116565   4.750   0.777   2.917
 5274SOL    HW216566   4.725   0.667   2.815
 5275SOL     OW16567   4.698   1.561   3.575
 5275SOL    HW116568   4.687   1.609   3.493
 5275SOL    HW216569   4.746   1.482   3.551
 5276SOL     OW16570   4.077   0.916   3.670
 5276SOL    HW116571   4.159   0.935   3.716
 5276SOL    HW216572   4.101   0.853   3.602
 5277SOL     OW16573   5.028   0.830   1.899
 5277SOL    HW116574   5.063   0.740   1.899
 5277SOL    HW216575   5.054   0.865   1.814
 5278SOL     OW16576   4.789   1.334   2.717
 5278SOL    HW116577   4.793   1.262   2.654
 5278SOL    HW216578   4.847   1.401   2.681
 5279SOL     OW16579   4.033   0.809   2.810
 5279SOL    HW116580   4.126   0.830   2.803
 5279SOL    HW216581   4.031   0.719   2.842
 5280SOL     OW16582   4.056   0.525   2.874
 5280SOL    HW116583   4.020   0.438   2.858
 5280SOL    HW216584   4.133   0.530   2.817
 5281SOL     OW16585   4.861   0.377   3.551
 5281SOL    HW116586   4.812   0.432   3.612
 5281SOL    HW216587   4.946   0.422   3.543
 5282SOL     OW16588   4.848   0.233   3.320
 5282SOL    HW116589   4.859   0.283   3.401
 5282SOL    HW216590   4.912   0.270   3.260
 5283SOL     OW16591   3.729   1.322   2.057
 5283SOL    HW116592   3.642   1.336   2.019
 5283SOL    HW216593   3.726   1.232   2.091
 5284SOL     OW16594   3.814   1.788   2.800
 5284SOL    HW116595   3.784   1.708   2.756
 5284SOL    HW216596   3.904   1.800   2.769
 5285SOL     OW16597   4.221   1.573   2.768
 5285SOL    HW116598   4.290   1.636   2.792
 5285SOL    HW216599   4.265   1.510   2.712
 5286SOL     OW16600   4.708   0.794   3.090
 5286SOL    HW116601   4.763   0.769   3.164
 5286SOL    HW216602   4.623   0.754   3.108
 5287SOL     OW16603   3.759   0.544   2.979
 5287SOL    HW116604   3.839   0.529   2.928
 5287SOL    HW216605   3.789   0.548   3.070
 5288SOL     OW16606   3.911   0.522   3.589
 5288SOL    HW116607   3.974   0.486   3.526
 5288SOL    HW216608   3.870   0.595   3.543
 5289SOL     OW16609   5.112   0.938   3.528
 5289SOL    HW116610   5.120   1.033   3.516
 5289SOL    HW216611   5.114   0.903   3.439
 5290SOL     OW16612   4.539   0.573   2.221
 5290SOL    HW116613   4.541   0.497   2.163
 5290SOL    HW216614   4.464   0.624   2.191
 5291SOL     OW16615   3.968   1.551   3.590
 5291SOL    HW116616   3.945   1.616   3.657
 5291SOL    HW216617   3.969   1.468   3.636
 5292SOL     OW16618   4.420   0.453   3.124
 5292SOL    HW116619   4.371   0.378   3.089
 5292SOL    HW216620   4.421   0.516   3.052
 5293SOL     OW16621   4.645   1.680   3.330
 5293SOL    HW116622   4.624   1.648   3.243
 5293SOL    HW216623   4.647   1.775   3.321
 5294SOL     OW16624   4.188   0.493   2.046
 5294SOL    HW116625   4.247   0.564   2.069
 5294SOL    HW216626   4.102   0.535   2.037
 5295SOL     OW16627   3.870   1.140   3.334
 5295SOL    HW116628   3.873   1.088   3.414
 5295SOL    HW216629   3.887   1.077   3.264
 5296SOL     OW16630   5.054   1.050   3.087
 5296SOL    HW116631   5.076   0.985   3.019
 5296SOL    HW216632   4.982   1.100   3.049
 5297SOL     OW16633   5.035   0.858   2.178
 5297SOL    HW116634   4.952   0.827   2.216
 5297SOL    HW216635   5.023   0.851   2.084
 5298SOL     OW16636   4.960   1.731   2.983
 5298SOL    HW116637   5.046   1.752   2.947
 5298SOL    HW216638   4.960   1.636   2.994
 5299SOL     OW16639   3.807   1.267   2.874
 5299SOL    HW116640   3.793   1.279   2.968
 5299SOL    HW216641   3.735   1.211   2.846
 5300SOL     OW16642   4.401   1.664   3.589
 5300SOL    HW116643   4.350   1.745   3.584
 5300SOL    HW216644   4.469   1.675   3.523
 5301SOL     OW16645   5.111   1.570   2.342
 5301SOL    HW116646   5.181   1.610   2.290
 5301SOL    HW216647   5.061   1.644   2.377
 5302SOL     OW16648   3.860   1.796   3.705
 5302SOL    HW116649   3.809   1.731   3.754
 5302SOL    HW216650   3.908   1.845   3.773
 5303SOL     OW16651   5.016   0.919   2.535
 5303SOL    HW116652   5.093   0.865   2.521
 5303SOL    HW216653   5.034   1.000   2.486
 5304SOL     OW16654   4.539   1.273   3.293
 5304SOL    HW116655   4.511   1.312   3.375
 5304SOL    HW216656   4.470   1.295   3.231
 5305SOL     OW16657   4.395   1.619   2.018
 5305SOL    HW116658   4.406   1.631   1.923
 5305SOL    HW216659   4.341   1.541   2.026
 5306SOL     OW16660   3.987   0.329   2.581
 5306SOL    HW116661   3.899   0.360   2.559
 5306SOL    HW216662   3.984   0.317   2.676
 5307SOL     OW16663   4.909   1.609   1.903
 5307SOL    HW116664   4.920   1.515   1.914
 5307SOL    HW216665   4.854   1.618   1.825
 5308SOL     OW16666   4.548   1.006   3.235
 5308SOL    HW116667   4.591   1.001   3.149
 5308SOL    HW216668   4.548   1.099   3.256
 5309SOL     OW16669   4.640   0.912   2.152
 5309SOL    HW116670   4.702   0.943   2.086
 5309SOL    HW216671   4.686   0.840   2.196
 5310SOL     OW16672   4.093   1.302   3.354
 5310SOL    HW116673   4.080   1.379   3.299
 5310SOL    HW216674   4.016   1.248   3.337
 5311SOL     OW16675   4.775   1.107   2.568
 5311SOL    HW116676   4.704   1.057   2.609
 5311SOL    HW216677   4.833   1.040   2.530
 5312SOL     OW16678   4.739   0.242   2.832
 5312SOL    HW116679   4.720   0.197   2.750
 5312SOL    HW216680   4.733   0.174   2.899
 5313SOL     OW16681   4.326   1.488   2.344
 5313SOL    HW116682   4.370   1.438   2.275
 5313SOL    HW216683   4.258   1.537   2.298
 5314SOL     OW16684   3.983   1.345   2.150
 5314SOL    HW116685   3.890   1.343   2.127
 5314SOL    HW216686   3.986   1.382   2.238
 5315SOL     OW16687   3.836   1.021   3.581
 5315SOL    HW116688   3.760   0.998   3.634
 5315SOL    HW216689   3.911   0.984   3.628
 5316SOL     OW16690   4.396   0.212   3.351
 5316SOL    HW116691   4.479   0.191   3.307
 5316SOL    HW216692   4.421   0.260   3.430
 5317SOL     OW16693   3.801   0.340   1.903
 5317SOL    HW116694   3.718   0.306   1.870
 5317SOL    HW216695   3.822   0.413   1.845
 5318SOL     OW16696   5.163   0.860   3.265
 5318SOL    HW116697   5.110   0.915   3.209
 5318SOL    HW216698   5.252   0.870   3.232
 5319SOL     OW16699   3.796   0.167   2.177
 5319SOL    HW116700   3.797   0.250   2.129
 5319SOL    HW216701   3.881   0.127   2.158
 5320SOL     OW16702   4.907   1.330   1.976
 5320SOL    HW116703   4.813   1.311   1.977
 5320SOL    HW216704   4.931   1.337   2.069
 5321SOL     OW16705   4.343   0.831   3.295
 5321SOL    HW116706   4.399   0.907   3.280
 5321SOL    HW216707   4.404   0.758   3.303
 5322SOL     OW16708   4.440   0.571   3.565
 5322SOL    HW116709   4.480   0.633   3.626
 5322SOL    HW216710   4.470   0.485   3.595
 5323SOL     OW16711   5.182   1.204   3.494
 5323SOL    HW116712   5.173   1.217   3.589
 5323SOL    HW216713   5.276   1.212   3.478
 5324SOL     OW16714   4.104   1.739   3.426
 5324SOL    HW116715   4.018   1.780   3.413
 5324SOL    HW216716   4.084   1.655   3.468
 5325SOL     OW16717   4.942   0.323   2.323
 5325SOL    HW116718   4.998   0.246   2.316
 5325SOL    HW216719   4.972   0.368   2.402
 5326SOL     OW16720   4.315   0.739   2.531
 5326SOL    HW116721   4.353   0.825   2.515
 5326SOL    HW216722   4.246   0.730   2.465
 5327SOL     OW16723   4.590   1.367   1.896
 5327SOL    HW116724   4.549   1.397   1.977
 5327SOL    HW216725   4.607   1.447   1.846
 5328SOL     OW16726   4.384   1.792   2.807
 5328SOL    HW116727   4.364   1.883   2.784
 5328SOL    HW216728   4.479   1.786   2.800
 5329SOL     OW16729   4.592   0.967   2.718
 5329SOL    HW116730   4.641   0.895   2.757
 5329SOL    HW216731   4.557   1.016   2.792
 5330SOL     OW16732   4.807   0.988   1.952
 5330SOL    HW116733   4.782   1.037   1.874
 5330SOL    HW216734   4.881   0.934   1.924
 5331SOL     OW16735   3.949   1.304   3.718
 5331SOL    HW116736   3.881   1.242   3.689
 5331SOL    HW216737   3.932   1.316   3.811
 5332SOL     OW16738   3.808   1.234   2.527
 5332SOL    HW116739   3.812   1.185   2.609
 5332SOL    HW216740   3.876   1.196   2.472
 5333SOL     OW16741   4.405   1.401   3.490
 5333SOL    HW116742   4.324   1.359   3.521
 5333SOL    HW216743   4.401   1.490   3.525
 5334SOL     OW16744   4.154   0.435   2.386
 5334SOL    HW116745   4.186   0.363   2.332
 5334SOL    HW216746   4.108   0.393   2.458
 5335SOL     OW16747   0.096   1.521   2.961
 5335SOL    HW116748   0.028   1.496   2.898
 5335SOL    HW216749   0.104   1.445   3.019
 5336SOL     OW16750   4.052   0.555   3.152
 5336SOL    HW116751   4.108   0.501   3.207
 5336SOL    HW216752   4.073   0.528   3.063
 5337SOL     OW16753   4.551   1.578   2.540
 5337SOL    HW116754   4.541   1.629   2.460
 5337SOL    HW216755   4.474   1.521   2.542
 5338SOL     OW16756   5.151   0.216   2.982
 5338SOL    HW116757   5.159   0.133   3.029
 5338SOL    HW216758   5.105   0.274   3.043
 5339SOL     OW16759   4.725   0.021   3.002
 5339SOL    HW116760   4.674   5.251   2.961
 5339SOL    HW216761   4.812   5.283   3.014
 5340SOL     OW16762   4.494   1.332   2.176
 5340SOL    HW116763   4.463   1.242   2.182
 5340SOL    HW216764   4.577   1.332   2.224
 5341SOL     OW16765   4.344   1.557   3.147
 5341SOL    HW116766   4.346   1.639   3.196
 5341SOL    HW216767   4.431   1.549   3.109
 5342SOL     OW16768   5.035   0.035   2.022
 5342SOL    HW116769   5.117   0.028   1.972
 5342SOL    HW216770   4.984   5.259   1.996
 5343SOL     OW16771   5.029   0.461   2.548
 5343SOL    HW116772   4.972   0.538   2.552
 5343SOL    HW216773   5.017   0.418   2.632
 5344SOL     OW16774   5.295   0.214   2.744
 5344SOL    HW116775   5.237   0.216   2.819
 5344SOL    HW216776   5.278   0.296   2.698
 5345SOL     OW16777   3.768   1.071   2.168
 5345SOL    HW116778   3.861   1.063   2.150
 5345SOL    HW216779   3.739   0.983   2.191
 5346SOL     OW16780   4.604   1.649   2.208
 5346SOL    HW116781   4.533   1.634   2.145
 5346SOL    HW216782   4.576   1.727   2.257
 5347SOL     OW16783   3.953   0.626   3.846
 5347SOL    HW116784   3.864   0.622   3.882
 5347SOL    HW216785   3.943   0.598   3.755
 5348SOL     OW16786   3.943   0.283   4.716
 5348SOL    HW116787   3.971   0.249   4.801
 5348SOL    HW216788   3.857   0.243   4.702
 5349SOL     OW16789   3.728   0.385   4.362
 5349SOL    HW116790   3.644   0.407   4.402
 5349SOL    HW216791   3.711   0.308   4.309
 5350SOL     OW16792   4.291   1.286   4.898
 5350SOL    HW116793   4.203   1.289   4.860
 5350SOL    HW216794   4.306   1.375   4.932
 5351SOL     OW16795   5.285   1.535   4.430
 5351SOL    HW116796   5.245   1.492   4.506
 5351SOL    HW216797   5.219   1.526   4.360
 5352SOL     OW16798   4.859   0.699   4.425
 5352SOL    HW116799   4.908   0.780   4.415
 5352SOL    HW216800   4.809   0.711   4.506
 5353SOL     OW16801   4.480   1.143   4.764
 5353SOL    HW116802   4.411   1.177   4.820
 5353SOL    HW216803   4.515   1.220   4.719
 5354SOL     OW16804   4.591   0.778   5.547
 5354SOL    HW116805   4.573   0.850   5.608
 5354SOL    HW216806   4.613   0.821   5.464
 5355SOL     OW16807   4.411   1.004   4.371
 5355SOL    HW116808   4.475   0.991   4.441
 5355SOL    HW216809   4.341   1.055   4.412
 5356SOL     OW16810   4.434   1.151   5.536
 5356SOL    HW116811   4.481   1.230   5.562
 5356SOL    HW216812   4.351   1.184   5.501
 5357SOL     OW16813   4.054   1.426   4.792
 5357SOL    HW116814   3.982   1.389   4.742
 5357SOL    HW216815   4.105   1.477   4.728
 5358SOL     OW16816   5.160   1.481   5.074
 5358SOL    HW116817   5.205   1.562   5.099
 5358SOL    HW216818   5.108   1.458   5.150
 5359SOL     OW16819   4.168   0.398   5.211
 5359SOL    HW116820   4.243   0.339   5.209
 5359SOL    HW216821   4.093   0.341   5.226
 5360SOL     OW16822   3.943   1.714   4.196
 5360SOL    HW116823   3.965   1.790   4.250
 5360SOL    HW216824   4.016   1.706   4.134
 5361SOL     OW16825   4.860   1.339   5.418
 5361SOL    HW116826   4.898   1.336   5.505
 5361SOL    HW216827   4.807   1.260   5.411
 5362SOL     OW16828   3.954   1.441   4.259
 5362SOL    HW116829   3.937   1.535   4.263
 5362SOL    HW216830   3.894   1.402   4.322
 5363SOL     OW16831   3.981   1.090   4.615
 5363SOL    HW116832   3.977   1.004   4.656
 5363SOL    HW216833   3.923   1.144   4.668
 5364SOL     OW16834   4.334   1.792   5.151
 5364SOL    HW116835   4.253   1.774   5.199
 5364SOL    HW216836   4.358   1.881   5.178
 5365SOL     OW16837   4.311   0.981   3.858
 5365SOL    HW116838   4.355   1.031   3.789
 5365SOL    HW216839   4.350   1.012   3.939
 5366SOL     OW16840   5.250   0.145   5.203
 5366SOL    HW116841   5.298   0.225   5.183
 5366SOL    HW216842   5.277   0.124   5.293
 5367SOL     OW16843   3.838   0.653   4.283
 5367SOL    HW116844   3.811   0.564   4.304
 5367SOL    HW216845   3.831   0.701   4.366
 5368SOL     OW16846   3.755   1.596   3.848
 5368SOL    HW116847   3.738   1.504   3.868
 5368SOL    HW216848   3.731   1.642   3.928
 5369SOL     OW16849   0.112   0.940   4.299
 5369SOL    HW116850   0.200   0.905   4.317
 5369SOL    HW216851   0.129   1.025   4.258
 5370SOL     OW16852   3.846   0.743   5.309
 5370SOL    HW116853   3.938   0.769   5.318
 5370SOL    HW216854   3.798   0.826   5.317
 5371SOL     OW16855   4.337   1.385   4.459
 5371SOL    HW116856   4.291   1.301   4.469
 5371SOL    HW216857   4.321   1.411   4.369
 5372SOL     OW16858   5.008   1.237   5.149
 5372SOL    HW116859   5.041   1.170   5.089
 5372SOL    HW216860   5.062   1.229   5.227
 5373SOL     OW16861   4.534   0.025   4.251
 5373SOL    HW116862   4.563   0.113   4.227
 5373SOL    HW216863   4.439   0.028   4.245
 5374SOL     OW16864   3.915   0.967   4.995
 5374SOL    HW116865   3.999   0.924   4.979
 5374SOL    HW216866   3.851   0.912   4.949
 5375SOL     OW16867   4.897   1.807   5.347
 5375SOL    HW116868   4.919   1.865   5.274
 5375SOL    HW216869   4.919   1.720   5.315
 5376SOL     OW16870   4.049   0.265   5.534
 5376SOL    HW116871   4.102   0.341   5.561
 5376SOL    HW216872   3.963   0.281   5.573
 5377SOL     OW16873   5.169   1.434   4.661
 5377SOL    HW116874   5.106   1.441   4.733
 5377SOL    HW216875   5.163   1.343   4.632
 5378SOL     OW16876   4.319   0.722   3.990
 5378SOL    HW116877   4.324   0.803   3.939
 5378SOL    HW216878   4.253   0.740   4.057
 5379SOL     OW16879   4.997   0.329   4.642
 5379SOL    HW116880   4.907   0.305   4.666
 5379SOL    HW216881   5.050   0.302   4.717
 5380SOL     OW16882   4.518   0.618   5.174
 5380SOL    HW116883   4.490   0.596   5.264
 5380SOL    HW216884   4.475   0.552   5.120
 5381SOL     OW16885   5.117   0.486   5.403
 5381SOL    HW116886   5.118   0.521   5.492
 5381SOL    HW216887   5.183   0.416   5.404
 5382SOL     OW16888   4.680   0.888   5.306
 5382SOL    HW116889   4.732   0.816   5.271
 5382SOL    HW216890   4.631   0.922   5.230
 5383SOL     OW16891   4.718   0.422   4.956
 5383SOL    HW116892   4.634   0.437   4.999
 5383SOL    HW216893   4.696   0.367   4.881
 5384SOL     OW16894   4.775   0.697   4.150
 5384SOL    HW116895   4.789   0.691   4.244
 5384SOL    HW216896   4.692   0.652   4.135
 5385SOL     OW16897   3.812   0.821   4.500
 5385SOL    HW116898   3.894   0.814   4.551
 5385SOL    HW216899   3.769   0.899   4.535
 5386SOL     OW16900   3.851   1.845   5.301
 5386SOL    HW116901   3.851   1.825   5.395
 5386SOL    HW216902   3.759   1.840   5.275
 5387SOL     OW16903   4.597   0.361   3.914
 5387SOL    HW116904   4.636   0.418   3.847
 5387SOL    HW216905   4.648   0.281   3.909
 5388SOL     OW16906   5.092   1.146   4.271
 5388SOL    HW116907   5.179   1.146   4.232
 5388SOL    HW216908   5.041   1.206   4.216
 5389SOL     OW16909   4.251   0.202   4.607
 5389SOL    HW116910   4.273   0.216   4.699
 5389SOL    HW216911   4.272   0.284   4.563
 5390SOL     OW16912   4.731   1.444   4.197
 5390SOL    HW116913   4.692   1.516   4.147
 5390SOL    HW216914   4.714   1.466   4.288
 5391SOL     OW16915   4.078   1.808   4.586
 5391SOL    HW116916   4.122   1.724   4.593
 5391SOL    HW216917   4.147   1.873   4.603
 5392SOL     OW16918   4.940   1.543   5.244
 5392SOL    HW116919   4.927   1.469   5.303
 5392SOL    HW216920   4.885   1.523   5.168
 5393SOL     OW16921   4.044   0.957   3.974
 5393SOL    HW116922   4.126   0.976   3.928
 5393SOL    HW216923   4.013   0.875   3.935
 5394SOL     OW16924   4.189   1.264   5.462
 5394SOL    HW116925   4.162   1.269   5.370
 5394SOL    HW216926   4.108   1.262   5.511
 5395SOL     OW16927   4.833   1.775   3.960
 5395SOL    HW116928   4.761   1.730   4.005
 5395SOL    HW216929   4.857   1.716   3.889
 5396SOL     OW16930   3.921   0.278   5.226
 5396SOL    HW116931   3.842   0.332   5.222
 5396SOL    HW216932   3.913   0.230   5.309
 5397SOL     OW16933   4.190   1.737   4.045
 5397SOL    HW116934   4.232   1.795   4.109
 5397SOL    HW216935   4.262   1.707   3.989
 5398SOL     OW16936   5.099   0.099   4.145
 5398SOL    HW116937   5.085   0.082   4.052
 5398SOL    HW216938   5.193   0.118   4.151
 5399SOL     OW16939   3.979   1.791   4.956
 5399SOL    HW116940   4.031   1.727   5.004
 5399SOL    HW216941   3.971   1.755   4.868
 5400SOL     OW16942   4.662   1.698   4.623
 5400SOL    HW116943   4.741   1.647   4.641
 5400SOL    HW216944   4.617   1.649   4.554
 5401SOL     OW16945   4.116   0.696   4.200
 5401SOL    HW116946   4.138   0.603   4.211
 5401SOL    HW216947   4.022   0.701   4.218
 5402SOL     OW16948   4.346   0.133   3.832
 5402SOL    HW116949   4.419   0.074   3.850
 5402SOL    HW216950   4.298   0.090   3.761
 5403SOL     OW16951   4.509   0.311   5.491
 5403SOL    HW116952   4.571   0.238   5.491
 5403SOL    HW216953   4.458   0.300   5.571
 5404SOL     OW16954   4.600   1.521   4.917
 5404SOL    HW116955   4.585   1.486   4.830
 5404SOL    HW216956   4.670   1.467   4.954
 5405SOL     OW16957   5.060   0.591   5.155
 5405SOL    HW116958   5.090   0.560   5.240
 5405SOL    HW216959   5.099   0.678   5.146
 5406SOL     OW16960   4.538   1.395   4.663
 5406SOL    HW116961   4.622   1.384   4.619
 5406SOL    HW216962   4.474   1.396   4.592
 5407SOL     OW16963   4.651   0.511   4.627
 5407SOL    HW116964   4.628   0.501   4.535
 5407SOL    HW216965   4.682   0.424   4.653
 5408SOL     OW16966   4.266   0.062   4.233
 5408SOL    HW116967   4.180   0.062   4.276
 5408SOL    HW216968   4.260   0.132   4.168
 5409SOL     OW16969   5.137   1.180   3.767
 5409SOL    HW116970   5.148   1.103   3.823
 5409SOL    HW216971   5.049   1.213   3.788
 5410SOL     OW16972   4.026   0.061   3.914
 5410SOL    HW116973   4.085   0.130   3.884
 5410SOL    HW216974   4.082   5.285   3.927
 5411SOL     OW16975   4.661   0.260   4.187
 5411SOL    HW116976   4.632   0.295   4.103
 5411SOL    HW216977   4.756   0.275   4.188
 5412SOL     OW16978   4.802   0.681   5.185
 5412SOL    HW116979   4.732   0.615   5.187
 5412SOL    HW216980   4.883   0.630   5.174
 5413SOL     OW16981   4.941   1.571   4.518
 5413SOL    HW116982   4.963   1.637   4.453
 5413SOL    HW216983   5.020   1.560   4.570
 5414SOL     OW16984   4.192   1.149   4.458
 5414SOL    HW116985   4.123   1.130   4.521
 5414SOL    HW216986   4.153   1.132   4.373
 5415SOL     OW16987   4.996   1.794   4.329
 5415SOL    HW116988   5.038   1.855   4.268
 5415SOL    HW216989   4.930   1.846   4.374
 5416SOL     OW16990   4.754   0.551   3.743
 5416SOL    HW116991   4.706   0.632   3.725
 5416SOL    HW216992   4.807   0.571   3.819
 5417SOL     OW16993   3.802   0.553   5.117
 5417SOL    HW116994   3.894   0.553   5.089
 5417SOL    HW216995   3.797   0.624   5.181
 5418SOL     OW16996   4.280   0.237   4.882
 5418SOL    HW116997   4.312   0.152   4.911
 5418SOL    HW216998   4.188   0.239   4.908
 5419SOL     OW16999   4.593   0.464   4.364
 5419SOL    HW117000   4.544   0.516   4.301
 5419SOL    HW217001   4.613   0.382   4.318
 5420SOL     OW17002   4.699   0.063   4.486
 5420SOL    HW117003   4.635   0.054   4.416
 5420SOL    HW217004   4.714   5.273   4.517
 5421SOL     OW17005   5.158   1.175   4.575
 5421SOL    HW117006   5.101   1.099   4.588
 5421SOL    HW217007   5.169   1.181   4.480
 5422SOL     OW17008   4.215   1.417   3.881
 5422SOL    HW117009   4.140   1.388   3.934
 5422SOL    HW217010   4.199   1.381   3.794
 5423SOL     OW17011   5.127   0.559   3.805
 5423SOL    HW117012   5.052   0.551   3.863
 5423SOL    HW217013   5.202   0.532   3.858
 5424SOL     OW17014   4.248   0.265   4.046
 5424SOL    HW117015   4.291   0.215   3.977
 5424SOL    HW217016   4.228   0.349   4.006
 5425SOL     OW17017   4.781   1.354   5.057
 5425SOL    HW117018   4.706   1.323   5.108
 5425SOL    HW217019   4.857   1.311   5.098
 5426SOL     OW17020   0.006   1.604   5.341
 5426SOL    HW117021   0.040   1.610   5.252
 5426SOL    HW217022   0.083   1.584   5.395
 5427SOL     OW17023   4.852   1.202   4.831
 5427SOL    HW117024   4.791   1.238   4.895
 5427SOL    HW217025   4.818   1.232   4.746
 5428SOL     OW17026   4.625   0.104   5.112
 5428SOL    HW117027   4.658   0.070   5.029
 5428SOL    HW217028   4.701   0.147   5.152
 5429SOL     OW17029   4.708   1.113   5.449
 5429SOL    HW117030   4.616   1.130   5.469
 5429SOL    HW217031   4.706   1.036   5.392
 5430SOL     OW17032   4.432   1.061   4.095
 5430SOL    HW117033   4.418   1.045   4.188
 5430SOL    HW217034   4.508   1.008   4.073
 5431SOL     OW17035   4.142   0.815   4.975
 5431SOL    HW117036   4.211   0.824   5.041
 5431SOL    HW217037   4.107   0.727   4.989
 5432SOL     OW17038   4.992   0.380   4.993
 5432SOL    HW117039   5.025   0.458   5.038
 5432SOL    HW217040   4.901   0.401   4.971
 5433SOL     OW17041   3.794   1.573   5.076
 5433SOL    HW117042   3.763   1.646   5.024
 5433SOL    HW217043   3.889   1.577   5.071
 5434SOL     OW17044   4.074   1.108   4.215
 5434SOL    HW117045   4.079   1.182   4.153
 5434SOL    HW217046   4.072   1.031   4.159
 5435SOL     OW17047   4.278   0.538   4.585
 5435SOL    HW117048   4.294   0.596   4.510
 5435SOL    HW217049   4.343   0.565   4.650
 5436SOL     OW17050   4.972   1.349   4.112
 5436SOL    HW117051   5.026   1.422   4.142
 5436SOL    HW217052   4.884   1.369   4.145
 5437SOL     OW17053   4.993   1.456   4.863
 5437SOL    HW117054   5.048   1.459   4.941
 5437SOL    HW217055   4.939   1.378   4.874
 5438SOL     OW17056   4.071   1.527   5.040
 5438SOL    HW117057   4.058   1.484   4.955
 5438SOL    HW217058   4.166   1.539   5.047
 5439SOL     OW17059   4.138   0.745   5.326
 5439SOL    HW117060   4.199   0.790   5.268
 5439SOL    HW217061   4.179   0.660   5.343
 5440SOL     OW17062   4.753   0.116   5.483
 5440SOL    HW117063   4.794   0.198   5.454
 5440SOL    HW217064   4.792   0.049   5.427
 5441SOL     OW17065   4.204   0.057   5.462
 5441SOL    HW117066   4.146   5.293   5.420
 5441SOL    HW217067   4.146   0.130   5.484
 5442SOL     OW17068   4.308   0.872   4.755
 5442SOL    HW117069   4.337   0.964   4.754
 5442SOL    HW217070   4.250   0.867   4.832
 5443SOL     OW17071   5.086   0.858   4.761
 5443SOL    HW117072   5.008   0.841   4.707
 5443SOL    HW217073   5.136   0.776   4.756
 5444SOL     OW17074   4.930   0.531   3.991
 5444SOL    HW117075   4.934   0.451   4.042
 5444SOL    HW217076   4.886   0.594   4.048
 5445SOL     OW17077   4.021   0.204   4.971
 5445SOL    HW117078   3.982   0.243   5.049
 5445SOL    HW217079   4.019   0.110   4.988
 5446SOL     OW17080   3.771   1.310   5.000
 5446SOL    HW117081   3.803   1.256   5.072
 5446SOL    HW217082   3.777   1.400   5.033
 5447SOL     OW17083   4.450   0.632   4.784
 5447SOL    HW117084   4.523   0.615   4.725
 5447SOL    HW217085   4.421   0.720   4.761
 5448SOL     OW17086   4.026   0.072   4.374
 5448SOL    HW117087   4.010   0.166   4.382
 5448SOL    HW217088   4.067   0.047   4.456
 5449SOL     OW17089   0.028   0.406   4.089
 5449SOL    HW117090   0.060   0.344   4.155
 5449SOL    HW217091   0.005   0.484   4.139
 5450SOL     OW17092   4.752   0.759   4.685
 5450SOL    HW117093   4.750   0.777   4.779
 5450SOL    HW217094   4.725   0.667   4.677
 5451SOL     OW17095   4.698   1.562   5.437
 5451SOL    HW117096   4.687   1.609   5.355
 5451SOL    HW217097   4.746   1.483   5.413
 5452SOL     OW17098   4.077   0.916   5.533
 5452SOL    HW117099   4.160   0.935   5.578
 5452SOL    HW217100   4.101   0.853   5.464
 5453SOL     OW17101   5.028   0.830   3.761
 5453SOL    HW117102   5.063   0.740   3.761
 5453SOL    HW217103   5.054   0.865   3.676
 5454SOL     OW17104   4.789   1.334   4.579
 5454SOL    HW117105   4.793   1.262   4.516
 5454SOL    HW217106   4.847   1.401   4.543
 5455SOL     OW17107   4.033   0.809   4.672
 5455SOL    HW117108   4.126   0.830   4.665
 5455SOL    HW217109   4.031   0.719   4.704
 5456SOL     OW17110   4.057   0.525   4.736
 5456SOL    HW117111   4.020   0.438   4.720
 5456SOL    HW217112   4.133   0.530   4.679
 5457SOL     OW17113   4.861   0.377   5.413
 5457SOL    HW117114   4.812   0.432   5.474
 5457SOL    HW217115   4.946   0.422   5.405
 5458SOL     OW17116   4.848   0.233   5.183
 5458SOL    HW117117   4.859   0.283   5.263
 5458SOL    HW217118   4.912   0.270   5.122
 5459SOL     OW17119   3.729   1.322   3.919
 5459SOL    HW117120   3.642   1.336   3.881
 5459SOL    HW217121   3.726   1.232   3.953
 5460SOL     OW17122   3.814   1.788   4.660
 5460SOL    HW117123   3.784   1.708   4.617
 5460SOL    HW217124   3.904   1.800   4.630
 5461SOL     OW17125   4.221   1.574   4.629
 5461SOL    HW117126   4.290   1.636   4.654
 5461SOL    HW217127   4.265   1.510   4.574
 5462SOL     OW17128   4.708   0.794   4.951
 5462SOL    HW117129   4.763   0.769   5.026
 5462SOL    HW217130   4.623   0.755   4.970
 5463SOL     OW17131   3.759   0.543   4.841
 5463SOL    HW117132   3.839   0.529   4.790
 5463SOL    HW217133   3.789   0.548   4.932
 5464SOL     OW17134   3.911   0.522   5.451
 5464SOL    HW117135   3.974   0.486   5.387
 5464SOL    HW217136   3.870   0.595   5.405
 5465SOL     OW17137   5.112   0.938   5.390
 5465SOL    HW117138   5.120   1.033   5.378
 5465SOL    HW217139   5.114   0.903   5.301
 5466SOL     OW17140   4.539   0.573   4.083
 5466SOL    HW117141   4.541   0.497   4.025
 5466SOL    HW217142   4.464   0.624   4.053
 5467SOL     OW17143   3.969   1.552   5.452
 5467SOL    HW117144   3.945   1.616   5.519
 5467SOL    HW217145   3.969   1.468   5.498
 5468SOL     OW17146   4.420   0.453   4.985
 5468SOL    HW117147   4.371   0.378   4.951
 5468SOL    HW217148   4.421   0.516   4.914
 5469SOL     OW17149   4.646   1.680   5.192
 5469SOL    HW117150   4.624   1.648   5.105
 5469SOL    HW217151   4.647   1.775   5.183
 5470SOL     OW17152   4.188   0.493   3.908
 5470SOL    HW117153   4.247   0.564   3.931
 5470SOL    HW217154   4.102   0.535   3.898
 5471SOL     OW17155   3.871   1.140   5.196
 5471SOL    HW117156   3.873   1.088   5.276
 5471SOL    HW217157   3.888   1.077   5.126
 5472SOL     OW17158   5.054   1.050   4.949
 5472SOL    HW117159   5.076   0.985   4.881
 5472SOL    HW217160   4.982   1.100   4.911
 5473SOL     OW17161   5.035   0.858   4.040
 5473SOL    HW117162   4.952   0.827   4.078
 5473SOL    HW217163   5.022   0.851   3.946
 5474SOL     OW17164   4.960   1.731   4.845
 5474SOL    HW117165   5.046   1.751   4.809
 5474SOL    HW217166   4.960   1.636   4.856
 5475SOL     OW17167   3.808   1.267   4.736
 5475SOL    HW117168   3.794   1.279   4.830
 5475SOL    HW217169   3.734   1.212   4.708
 5476SOL     OW17170   4.401   1.665   5.451
 5476SOL    HW117171   4.349   1.745   5.446
 5476SOL    HW217172   4.469   1.675   5.385
 5477SOL     OW17173   5.111   1.570   4.204
 5477SOL    HW117174   5.181   1.610   4.152
 5477SOL    HW217175   5.061   1.644   4.239
 5478SOL     OW17176   3.860   1.797   5.567
 5478SOL    HW117177   3.809   1.731   5.615
 5478SOL    HW217178   3.908   1.845   5.635
 5479SOL     OW17179   5.016   0.919   4.397
 5479SOL    HW117180   5.093   0.865   4.383
 5479SOL    HW217181   5.034   1.000   4.348
 5480SOL     OW17182   4.539   1.273   5.155
 5480SOL    HW117183   4.511   1.312   5.237
 5480SOL    HW217184   4.469   1.295   5.093
 5481SOL     OW17185   4.395   1.619   3.879
 5481SOL    HW117186   4.406   1.631   3.785
 5481SOL    HW217187   4.341   1.541   3.888
 5482SOL     OW17188   3.987   0.329   4.443
 5482SOL    HW117189   3.899   0.360   4.421
 5482SOL    HW217190   3.984   0.317   4.538
 5483SOL     OW17191   4.909   1.609   3.765
 5483SOL    HW117192   4.920   1.515   3.776
 5483SOL    HW217193   4.854   1.618   3.687
 5484SOL     OW17194   4.548   1.006   5.097
 5484SOL    HW117195   4.591   1.001   5.011
 5484SOL    HW217196   4.548   1.099   5.118
 5485SOL     OW17197   4.640   0.911   4.014
 5485SOL    HW117198   4.702   0.943   3.948
 5485SOL    HW217199   4.686   0.840   4.058
 5486SOL     OW17200   4.093   1.302   5.216
 5486SOL    HW117201   4.080   1.380   5.161
 5486SOL    HW217202   4.016   1.248   5.199
 5487SOL     OW17203   4.775   1.107   4.430
 5487SOL    HW117204   4.704   1.057   4.471
 5487SOL    HW217205   4.833   1.040   4.393
 5488SOL     OW17206   4.739   0.242   4.694
 5488SOL    HW117207   4.720   0.197   4.612
 5488SOL    HW217208   4.733   0.174   4.761
 5489SOL     OW17209   4.326   1.488   4.206
 5489SOL    HW117210   4.370   1.438   4.137
 5489SOL    HW217211   4.258   1.537   4.160
 5490SOL     OW17212   3.983   1.346   4.012
 5490SOL    HW117213   3.890   1.343   3.989
 5490SOL    HW217214   3.986   1.382   4.100
 5491SOL     OW17215   3.836   1.021   5.443
 5491SOL    HW117216   3.760   0.998   5.496
 5491SOL    HW217217   3.911   0.984   5.491
 5492SOL     OW17218   4.396   0.211   5.213
 5492SOL    HW117219   4.479   0.191   5.169
 5492SOL    HW217220   4.421   0.260   5.292
 5493SOL     OW17221   3.801   0.340   3.765
 5493SOL    HW117222   3.718   0.306   3.732
 5493SOL    HW217223   3.822   0.413   3.707
 5494SOL     OW17224   5.163   0.860   5.127
 5494SOL    HW117225   5.110   0.915   5.071
 5494SOL    HW217226   5.252   0.870   5.094
 5495SOL     OW17227   3.796   0.167   4.039
 5495SOL    HW117228   3.797   0.250   3.992
 5495SOL    HW217229   3.881   0.127   4.020
 5496SOL     OW17230   4.907   1.330   3.838
 5496SOL    HW117231   4.813   1.312   3.839
 5496SOL    HW217232   4.931   1.337   3.931
 5497SOL     OW17233   4.343   0.831   5.157
 5497SOL    HW117234   4.399   0.907   5.142
 5497SOL    HW217235   4.404   0.758   5.165
 5498SOL     OW17236   4.440   0.571   5.427
 5498SOL    HW117237   4.480   0.633   5.488
 5498SOL    HW217238   4.470   0.485   5.457
 5499SOL     OW17239   5.182   1.204   5.356
 5499SOL    HW117240   5.173   1.217   5.451
 5499SOL    HW217241   5.276   1.212   5.340
 5500SOL     OW17242   4.104   1.739   5.288
 5500SOL    HW117243   4.018   1.780   5.275
 5500SOL    HW217244   4.084   1.656   5.330
 5501SOL     OW17245   4.942   0.323   4.185
 5501SOL    HW117246   4.998   0.246   4.178
 5501SOL    HW217247   4.972   0.368   4.264
 5502SOL     OW17248   4.315   0.739   4.393
 5502SOL    HW117249   4.353   0.825   4.377
 5502SOL    HW217250   4.246   0.730   4.327
 5503SOL     OW17251   4.590   1.367   3.758
 5503SOL    HW117252   4.549   1.396   3.839
 5503SOL    HW217253   4.607   1.447   3.709
 5504SOL     OW17254   4.384   1.792   4.669
 5504SOL    HW117255   4.364   1.883   4.646
 5504SOL    HW217256   4.479   1.786   4.662
 5505SOL     OW17257   4.592   0.967   4.580
 5505SOL    HW117258   4.641   0.895   4.619
 5505SOL    HW217259   4.557   1.016   4.654
 5506SOL     OW17260   4.807   0.988   3.814
 5506SOL    HW117261   4.782   1.037   3.736
 5506SOL    HW217262   4.881   0.934   3.786
 5507SOL     OW17263   3.949   1.304   5.580
 5507SOL    HW117264   3.881   1.243   5.551
 5507SOL    HW217265   3.931   1.316   5.673
 5508SOL     OW17266   3.808   1.234   4.389
 5508SOL    HW117267   3.812   1.185   4.471
 5508SOL    HW217268   3.876   1.195   4.334
 5509SOL     OW17269   4.405   1.401   5.352
 5509SOL    HW117270   4.324   1.359   5.382
 5509SOL    HW217271   4.400   1.490   5.388
 5510SOL     OW17272   4.154   0.435   4.248
 5510SOL    HW117273   4.185   0.363   4.194
 5510SOL    HW217274   4.108   0.393   4.320
 5511SOL     OW17275   0.096   1.521   4.823
 5511SOL    HW117276   0.028   1.496   4.760
 5511SOL    HW217277   0.104   1.445   4.881
 5512SOL     OW17278   4.052   0.555   5.014
 5512SOL    HW117279   4.108   0.501   5.069
 5512SOL    HW217280   4.073   0.528   4.925
 5513SOL     OW17281   4.551   1.577   4.402
 5513SOL    HW117282   4.541   1.629   4.322
 5513SOL    HW217283   4.474   1.521   4.404
 5514SOL     OW17284   5.151   0.216   4.844
 5514SOL    HW117285   5.159   0.133   4.891
 5514SOL    HW217286   5.105   0.274   4.905
 5515SOL     OW17287   4.725   0.021   4.864
 5515SOL    HW117288   4.674   5.251   4.823
 5515SOL    HW217289   4.812   5.283   4.876
 5516SOL     OW17290   4.495   1.332   4.038
 5516SOL    HW117291   4.463   1.242   4.044
 5516SOL    HW217292   4.577   1.333   4.087
 5517SOL     OW17293   4.344   1.557   5.009
 5517SOL    HW117294   4.346   1.639   5.058
 5517SOL    HW217295   4.431   1.549   4.971
 5518SOL     OW17296   5.035   0.035   3.884
 5518SOL    HW117297   5.117   0.027   3.834
 5518SOL    HW217298   4.984   5.259   3.858
 5519SOL     OW17299   5.029   0.461   4.410
 5519SOL    HW117300   4.972   0.538   4.414
 5519SOL    HW217301   5.017   0.418   4.494
 5520SOL     OW17302   5.295   0.214   4.606
 5520SOL    HW117303   5.237   0.216   4.681
 5520SOL    HW217304   5.278   0.296   4.560
 5521SOL     OW17305   3.768   1.071   4.030
 5521SOL    HW117306   3.861   1.063   4.012
 5521SOL    HW217307   3.739   0.983   4.052
 5522SOL     OW17308   4.604   1.649   4.070
 5522SOL    HW117309   4.533   1.634   4.007
 5522SOL    HW217310   4.576   1.727   4.119
 5523SOL     OW17311   3.953   0.625   5.708
 5523SOL    HW117312   3.864   0.622   5.744
 5523SOL    HW217313   3.943   0.598   5.617
 5524SOL     OW17314   3.942   0.284   6.578
 5524SOL    HW117315   3.971   0.249   6.663
 5524SOL    HW217316   3.857   0.243   6.564
 5525SOL     OW17317   3.728   0.385   6.224
 5525SOL    HW117318   3.644   0.407   6.264
 5525SOL    HW217319   3.711   0.308   6.171
 5526SOL     OW17320   4.291   1.286   6.760
 5526SOL    HW117321   4.203   1.290   6.722
 5526SOL    HW217322   4.306   1.375   6.794
 5527SOL     OW17323   5.285   1.535   6.292
 5527SOL    HW117324   5.245   1.492   6.367
 5527SOL    HW217325   5.219   1.526   6.222
 5528SOL     OW17326   4.859   0.698   6.287
 5528SOL    HW117327   4.908   0.780   6.277
 5528SOL    HW217328   4.809   0.711   6.368
 5529SOL     OW17329   4.480   1.143   6.626
 5529SOL    HW117330   4.411   1.177   6.682
 5529SOL    HW217331   4.515   1.220   6.581
 5530SOL     OW17332   4.591   0.780   7.408
 5530SOL    HW117333   4.569   0.855   7.463
 5530SOL    HW217334   4.615   0.818   7.324
 5531SOL     OW17335   4.411   1.004   6.233
 5531SOL    HW117336   4.475   0.991   6.303
 5531SOL    HW217337   4.341   1.055   6.274
 5532SOL     OW17338   4.434   1.152   7.398
 5532SOL    HW117339   4.481   1.230   7.424
 5532SOL    HW217340   4.351   1.184   7.362
 5533SOL     OW17341   4.055   1.426   6.654
 5533SOL    HW117342   3.982   1.389   6.604
 5533SOL    HW217343   4.105   1.477   6.590
 5534SOL     OW17344   5.161   1.481   6.936
 5534SOL    HW117345   5.204   1.562   6.962
 5534SOL    HW217346   5.107   1.458   7.012
 5535SOL     OW17347   4.168   0.399   7.075
 5535SOL    HW117348   4.243   0.340   7.072
 5535SOL    HW217349   4.093   0.341   7.087
 5536SOL     OW17350   3.943   1.714   6.059
 5536SOL    HW117351   3.965   1.790   6.112
 5536SOL    HW217352   4.016   1.706   5.996
 5537SOL     OW17353   4.860   1.339   7.278
 5537SOL    HW117354   4.898   1.337   7.365
 5537SOL    HW217355   4.807   1.259   7.273
 5538SOL     OW17356   3.954   1.441   6.121
 5538SOL    HW117357   3.937   1.535   6.125
 5538SOL    HW217358   3.893   1.403   6.184
 5539SOL     OW17359   3.981   1.090   6.477
 5539SOL    HW117360   3.977   1.004   6.518
 5539SOL    HW217361   3.923   1.144   6.530
 5540SOL     OW17362   4.334   1.792   7.013
 5540SOL    HW117363   4.253   1.774   7.061
 5540SOL    HW217364   4.359   1.881   7.040
 5541SOL     OW17365   4.311   0.981   5.719
 5541SOL    HW117366   4.355   1.031   5.651
 5541SOL    HW217367   4.350   1.012   5.801
 5542SOL     OW17368   5.250   0.145   7.065
 5542SOL    HW117369   5.296   0.226   7.044
 5542SOL    HW217370   5.277   0.124   7.154
 5543SOL     OW17371   3.839   0.653   6.145
 5543SOL    HW117372   3.811   0.564   6.167
 5543SOL    HW217373   3.831   0.701   6.228
 5544SOL     OW17374   3.756   1.595   5.710
 5544SOL    HW117375   3.738   1.503   5.730
 5544SOL    HW217376   3.732   1.642   5.790
 5545SOL     OW17377   0.113   0.940   6.162
 5545SOL    HW117378   0.200   0.905   6.179
 5545SOL    HW217379   0.128   1.024   6.120
 5546SOL     OW17380   3.846   0.743   7.171
 5546SOL    HW117381   3.938   0.768   7.180
 5546SOL    HW217382   3.798   0.825   7.179
 5547SOL     OW17383   4.337   1.385   6.321
 5547SOL    HW117384   4.291   1.301   6.331
 5547SOL    HW217385   4.321   1.411   6.231
 5548SOL     OW17386   5.008   1.237   7.010
 5548SOL    HW117387   5.041   1.170   6.951
 5548SOL    HW217388   5.062   1.229   7.089
 5549SOL     OW17389   4.534   0.025   6.114
 5549SOL    HW117390   4.563   0.113   6.089
 5549SOL    HW217391   4.439   0.028   6.107
 5550SOL     OW17392   3.914   0.967   6.857
 5550SOL    HW117393   3.999   0.924   6.841
 5550SOL    HW217394   3.851   0.912   6.810
 5551SOL     OW17395   4.898   1.808   7.208
 5551SOL    HW117396   4.919   1.865   7.135
 5551SOL    HW217397   4.919   1.720   7.177
 5552SOL     OW17398   4.048   0.263   7.401
 5552SOL    HW117399   4.101   0.340   7.422
 5552SOL    HW217400   3.962   0.282   7.437
 5553SOL     OW17401   5.169   1.434   6.523
 5553SOL    HW117402   5.107   1.441   6.595
 5553SOL    HW217403   5.163   1.343   6.494
 5554SOL     OW17404   4.319   0.722   5.852
 5554SOL    HW117405   4.324   0.803   5.801
 5554SOL    HW217406   4.253   0.740   5.919
 5555SOL     OW17407   4.997   0.329   6.504
 5555SOL    HW117408   4.908   0.305   6.528
 5555SOL    HW217409   5.050   0.302   6.579
 5556SOL     OW17410   4.518   0.618   7.037
 5556SOL    HW117411   4.490   0.596   7.126
 5556SOL    HW217412   4.475   0.552   6.982
 5557SOL     OW17413   5.117   0.487   7.265
 5557SOL    HW117414   5.117   0.522   7.354
 5557SOL    HW217415   5.181   0.415   7.267
 5558SOL     OW17416   4.679   0.888   7.168
 5558SOL    HW117417   4.732   0.816   7.132
 5558SOL    HW217418   4.631   0.922   7.092
 5559SOL     OW17419   4.718   0.421   6.818
 5559SOL    HW117420   4.634   0.437   6.861
 5559SOL    HW217421   4.696   0.367   6.743
 5560SOL     OW17422   4.775   0.697   6.012
 5560SOL    HW117423   4.789   0.691   6.106
 5560SOL    HW217424   4.692   0.652   5.997
 5561SOL     OW17425   3.812   0.820   6.363
 5561SOL    HW117426   3.894   0.814   6.413
 5561SOL    HW217427   3.769   0.899   6.397
 5562SOL     OW17428   3.851   1.846   7.164
 5562SOL    HW117429   3.850   1.825   7.257
 5562SOL    HW217430   3.759   1.840   7.137
 5563SOL     OW17431   4.597   0.361   5.776
 5563SOL    HW117432   4.636   0.418   5.709
 5563SOL    HW217433   4.648   0.281   5.771
 5564SOL     OW17434   5.092   1.146   6.133
 5564SOL    HW117435   5.179   1.146   6.094
 5564SOL    HW217436   5.041   1.206   6.078
 5565SOL     OW17437   4.251   0.201   6.469
 5565SOL    HW117438   4.273   0.216   6.561
 5565SOL    HW217439   4.272   0.284   6.425
 5566SOL     OW17440   4.731   1.444   6.059
 5566SOL    HW117441   4.692   1.516   6.009
 5566SOL    HW217442   4.713   1.466   6.150
 5567SOL     OW17443   4.078   1.808   6.447
 5567SOL    HW117444   4.122   1.724   6.455
 5567SOL    HW217445   4.147   1.873   6.465
 5568SOL     OW17446   4.941   1.543   7.105
 5568SOL    HW117447   4.928   1.469   7.165
 5568SOL    HW217448   4.884   1.523   7.030
 5569SOL     OW17449   4.045   0.957   5.836
 5569SOL    HW117450   4.126   0.976   5.790
 5569SOL    HW217451   4.013   0.875   5.797
 5570SOL     OW17452   4.189   1.263   7.323
 5570SOL    HW117453   4.162   1.268   7.232
 5570SOL    HW217454   4.107   1.262   7.373
 5571SOL     OW17455   4.833   1.775   5.822
 5571SOL    HW117456   4.761   1.730   5.867
 5571SOL    HW217457   4.858   1.716   5.751
 5572SOL     OW17458   3.921   0.278   7.088
 5572SOL    HW117459   3.842   0.332   7.082
 5572SOL    HW217460   3.911   0.229   7.169
 5573SOL     OW17461   4.190   1.737   5.907
 5573SOL    HW117462   4.232   1.795   5.971
 5573SOL    HW217463   4.262   1.707   5.851
 5574SOL     OW17464   5.100   0.099   6.007
 5574SOL    HW117465   5.085   0.082   5.914
 5574SOL    HW217466   5.193   0.118   6.013
 5575SOL     OW17467   3.979   1.792   6.818
 5575SOL    HW117468   4.031   1.726   6.864
 5575SOL    HW217469   3.969   1.756   6.730
 5576SOL     OW17470   4.662   1.698   6.485
 5576SOL    HW117471   4.741   1.647   6.503
 5576SOL    HW217472   4.617   1.649   6.416
 5577SOL     OW17473   4.116   0.696   6.063
 5577SOL    HW117474   4.138   0.603   6.073
 5577SOL    HW217475   4.022   0.701   6.080
 5578SOL     OW17476   4.346   0.133   5.694
 5578SOL    HW117477   4.419   0.073   5.712
 5578SOL    HW217478   4.298   0.090   5.623
 5579SOL     OW17479   4.508   0.311   7.350
 5579SOL    HW117480   4.572   0.240   7.351
 5579SOL    HW217481   4.463   0.305   7.435
 5580SOL     OW17482   4.600   1.521   6.779
 5580SOL    HW117483   4.585   1.486   6.692
 5580SOL    HW217484   4.670   1.467   6.816
 5581SOL     OW17485   5.061   0.591   7.017
 5581SOL    HW117486   5.091   0.561   7.102
 5581SOL    HW217487   5.099   0.679   7.007
 5582SOL     OW17488   4.538   1.395   6.525
 5582SOL    HW117489   4.622   1.384   6.480
 5582SOL    HW217490   4.474   1.396   6.454
 5583SOL     OW17491   4.651   0.511   6.489
 5583SOL    HW117492   4.628   0.501   6.397
 5583SOL    HW217493   4.682   0.424   6.515
 5584SOL     OW17494   4.266   0.063   6.095
 5584SOL    HW117495   4.180   0.062   6.137
 5584SOL    HW217496   4.260   0.132   6.030
 5585SOL     OW17497   5.137   1.180   5.629
 5585SOL    HW117498   5.147   1.103   5.685
 5585SOL    HW217499   5.049   1.213   5.650
 5586SOL     OW17500   4.026   0.061   5.776
 5586SOL    HW117501   4.084   0.130   5.745
 5586SOL    HW217502   4.082   5.285   5.789
 5587SOL     OW17503   4.661   0.260   6.049
 5587SOL    HW117504   4.632   0.295   5.965
 5587SOL    HW217505   4.756   0.275   6.049
 5588SOL     OW17506   4.802   0.681   7.047
 5588SOL    HW117507   4.732   0.615   7.049
 5588SOL    HW217508   4.883   0.630   7.036
 5589SOL     OW17509   4.941   1.570   6.380
 5589SOL    HW117510   4.963   1.637   6.315
 5589SOL    HW217511   5.020   1.561   6.432
 5590SOL     OW17512   4.193   1.149   6.320
 5590SOL    HW117513   4.123   1.130   6.383
 5590SOL    HW217514   4.153   1.132   6.235
 5591SOL     OW17515   4.996   1.794   6.191
 5591SOL    HW117516   5.038   1.855   6.130
 5591SOL    HW217517   4.930   1.846   6.236
 5592SOL     OW17518   4.754   0.551   5.605
 5592SOL    HW117519   4.706   0.632   5.587
 5592SOL    HW217520   4.807   0.571   5.681
 5593SOL     OW17521   3.802   0.553   6.979
 5593SOL    HW117522   3.894   0.553   6.951
 5593SOL    HW217523   3.797   0.624   7.043
 5594SOL     OW17524   4.280   0.238   6.744
 5594SOL    HW117525   4.312   0.152   6.772
 5594SOL    HW217526   4.188   0.239   6.770
 5595SOL     OW17527   4.593   0.464   6.226
 5595SOL    HW117528   4.544   0.516   6.163
 5595SOL    HW217529   4.613   0.382   6.180
 5596SOL     OW17530   4.699   0.063   6.348
 5596SOL    HW117531   4.635   0.054   6.278
 5596SOL    HW217532   4.714   5.273   6.379
 5597SOL     OW17533   5.158   1.176   6.437
 5597SOL    HW117534   5.101   1.100   6.450
 5597SOL    HW217535   5.169   1.181   6.342
 5598SOL     OW17536   4.215   1.417   5.744
 5598SOL    HW117537   4.140   1.388   5.796
 5598SOL    HW217538   4.199   1.381   5.656
 5599SOL     OW17539   5.127   0.559   5.667
 5599SOL    HW117540   5.052   0.551   5.725
 5599SOL    HW217541   5.202   0.532   5.720
 5600SOL     OW17542   4.248   0.265   5.908
 5600SOL    HW117543   4.291   0.215   5.839
 5600SOL    HW217544   4.228   0.349   5.868
 5601SOL     OW17545   4.781   1.354   6.919
 5601SOL    HW117546   4.706   1.323   6.970
 5601SOL    HW217547   4.857   1.311   6.960
 5602SOL     OW17548   0.007   1.604   7.203
 5602SOL    HW117549   0.040   1.610   7.113
 5602SOL    HW217550   0.084   1.585   7.256
 5603SOL     OW17551   4.852   1.202   6.693
 5603SOL    HW117552   4.791   1.238   6.757
 5603SOL    HW217553   4.818   1.232   6.608
 5604SOL     OW17554   4.625   0.104   6.974
 5604SOL    HW117555   4.658   0.070   6.891
 5604SOL    HW217556   4.701   0.147   7.014
 5605SOL     OW17557   4.709   1.112   7.313
 5605SOL    HW117558   4.617   1.131   7.330
 5605SOL    HW217559   4.707   1.036   7.255
 5606SOL     OW17560   4.432   1.061   5.957
 5606SOL    HW117561   4.418   1.045   6.050
 5606SOL    HW217562   4.508   1.008   5.935
 5607SOL     OW17563   4.142   0.815   6.837
 5607SOL    HW117564   4.211   0.824   6.903
 5607SOL    HW217565   4.107   0.727   6.851
 5608SOL     OW17566   4.992   0.380   6.855
 5608SOL    HW117567   5.025   0.458   6.900
 5608SOL    HW217568   4.901   0.401   6.833
 5609SOL     OW17569   3.794   1.573   6.938
 5609SOL    HW117570   3.763   1.646   6.884
 5609SOL    HW217571   3.889   1.578   6.933
 5610SOL     OW17572   4.074   1.108   6.077
 5610SOL    HW117573   4.078   1.182   6.016
 5610SOL    HW217574   4.072   1.031   6.021
 5611SOL     OW17575   4.278   0.538   6.447
 5611SOL    HW117576   4.294   0.596   6.372
 5611SOL    HW217577   4.343   0.565   6.512
 5612SOL     OW17578   4.972   1.349   5.974
 5612SOL    HW117579   5.026   1.422   6.004
 5612SOL    HW217580   4.884   1.369   6.007
 5613SOL     OW17581   4.994   1.456   6.725
 5613SOL    HW117582   5.048   1.458   6.804
 5613SOL    HW217583   4.939   1.378   6.736
 5614SOL     OW17584   4.071   1.526   6.902
 5614SOL    HW117585   4.058   1.484   6.817
 5614SOL    HW217586   4.166   1.539   6.909
 5615SOL     OW17587   4.138   0.745   7.188
 5615SOL    HW117588   4.199   0.790   7.130
 5615SOL    HW217589   4.179   0.660   7.204
 5616SOL     OW17590   4.750   0.115   7.341
 5616SOL    HW117591   4.794   0.197   7.317
 5616SOL    HW217592   4.793   0.048   7.287
 5617SOL     OW17593   4.204   0.057   7.323
 5617SOL    HW117594   4.146   5.293   7.282
 5617SOL    HW217595   4.146   0.130   7.347
 5618SOL     OW17596   4.308   0.872   6.618
 5618SOL    HW117597   4.337   0.964   6.615
 5618SOL    HW217598   4.250   0.867   6.694
 5619SOL     OW17599   5.086   0.857   6.623
 5619SOL    HW117600   5.008   0.841   6.569
 5619SOL    HW217601   5.136   0.776   6.618
 5620SOL     OW17602   4.930   0.531   5.853
 5620SOL    HW117603   4.934   0.451   5.904
 5620SOL    HW217604   4.886   0.594   5.910
 5621SOL     OW17605   4.021   0.204   6.833
 5621SOL    HW117606   3.982   0.243   6.911
 5621SOL    HW217607   4.019   0.110   6.850
 5622SOL     OW17608   3.770   1.311   6.863
 5622SOL    HW117609   3.803   1.257   6.934
 5622SOL    HW217610   3.777   1.400   6.895
 5623SOL     OW17611   4.450   0.632   6.646
 5623SOL    HW117612   4.523   0.615   6.587
 5623SOL    HW217613   4.421   0.720   6.623
 5624SOL     OW17614   4.026   0.072   6.236
 5624SOL    HW117615   4.010   0.166   6.244
 5624SOL    HW217616   4.067   0.047   6.318
 5625SOL     OW17617   0.028   0.406   5.951
 5625SOL    HW117618   0.060   0.344   6.017
 5625SOL    HW217619   0.004   0.484   6.001
 5626SOL     OW17620   4.752   0.759   6.547
 5626SOL    HW117621   4.750   0.777   6.641
 5626SOL    HW217622   4.725   0.667   6.539
 5627SOL     OW17623   4.699   1.562   7.299
 5627SOL    HW117624   4.688   1.609   7.217
 5627SOL    HW217625   4.747   1.482   7.275
 5628SOL     OW17626   4.077   0.914   7.396
 5628SOL    HW117627   4.161   0.935   7.439
 5628SOL    HW217628   4.101   0.853   7.327
 5629SOL     OW17629   5.028   0.830   5.623
 5629SOL    HW117630   5.063   0.740   5.623
 5629SOL    HW217631   5.054   0.865   5.538
 5630SOL     OW17632   4.789   1.334   6.441
 5630SOL    HW117633   4.793   1.262   6.378
 5630SOL    HW217634   4.847   1.401   6.405
 5631SOL     OW17635   4.033   0.809   6.534
 5631SOL    HW117636   4.126   0.831   6.526
 5631SOL    HW217637   4.032   0.719   6.566
 5632SOL     OW17638   4.057   0.525   6.599
 5632SOL    HW117639   4.020   0.438   6.583
 5632SOL    HW217640   4.133   0.530   6.541
 5633SOL     OW17641   4.862   0.377   7.275
 5633SOL    HW117642   4.812   0.431   7.336
 5633SOL    HW217643   4.946   0.422   7.265
 5634SOL     OW17644   4.848   0.232   7.044
 5634SOL    HW117645   4.859   0.282   7.125
 5634SOL    HW217646   4.912   0.270   6.984
 5635SOL     OW17647   3.729   1.321   5.781
 5635SOL    HW117648   3.642   1.336   5.743
 5635SOL    HW217649   3.726   1.232   5.814
 5636SOL     OW17650   3.814   1.787   6.524
 5636SOL    HW117651   3.784   1.708   6.480
 5636SOL    HW217652   3.904   1.800   6.493
 5637SOL     OW17653   4.221   1.573   6.492
 5637SOL    HW117654   4.290   1.636   6.516
 5637SOL    HW217655   4.265   1.510   6.436
 5638SOL     OW17656   4.708   0.794   6.813
 5638SOL    HW117657   4.763   0.769   6.888
 5638SOL    HW217658   4.623   0.755   6.832
 5639SOL     OW17659   3.759   0.543   6.703
 5639SOL    HW117660   3.839   0.529   6.652
 5639SOL    HW217661   3.789   0.548   6.794
 5640SOL     OW17662   3.912   0.520   7.313
 5640SOL    HW117663   3.974   0.486   7.248
 5640SOL    HW217664   3.870   0.594   7.268
 5641SOL     OW17665   5.110   0.938   7.253
 5641SOL    HW117666   5.119   1.033   7.241
 5641SOL    HW217667   5.113   0.903   7.163
 5642SOL     OW17668   4.539   0.573   5.945
 5642SOL    HW117669   4.541   0.497   5.887
 5642SOL    HW217670   4.464   0.624   5.915
 5643SOL     OW17671   3.968   1.551   7.314
 5643SOL    HW117672   3.945   1.616   7.381
 5643SOL    HW217673   3.969   1.468   7.361
 5644SOL     OW17674   4.420   0.453   6.848
 5644SOL    HW117675   4.371   0.378   6.813
 5644SOL    HW217676   4.421   0.516   6.776
 5645SOL     OW17677   4.646   1.680   7.054
 5645SOL    HW117678   4.624   1.648   6.966
 5645SOL    HW217679   4.647   1.775   7.045
 5646SOL     OW17680   4.188   0.493   5.770
 5646SOL    HW117681   4.247   0.565   5.793
 5646SOL    HW217682   4.102   0.535   5.760
 5647SOL     OW17683   3.870   1.140   7.058
 5647SOL    HW117684   3.873   1.088   7.139
 5647SOL    HW217685   3.887   1.077   6.988
 5648SOL     OW17686   5.054   1.049   6.811
 5648SOL    HW117687   5.076   0.985   6.743
 5648SOL    HW217688   4.982   1.100   6.773
 5649SOL     OW17689   5.035   0.858   5.902
 5649SOL    HW117690   4.952   0.827   5.940
 5649SOL    HW217691   5.023   0.851   5.808
 5650SOL     OW17692   4.960   1.731   6.707
 5650SOL    HW117693   5.046   1.751   6.670
 5650SOL    HW217694   4.960   1.636   6.718
 5651SOL     OW17695   3.808   1.266   6.599
 5651SOL    HW117696   3.794   1.279   6.692
 5651SOL    HW217697   3.734   1.212   6.570
 5652SOL     OW17698   4.400   1.664   7.312
 5652SOL    HW117699   4.350   1.745   7.309
 5652SOL    HW217700   4.469   1.675   7.246
 5653SOL     OW17701   5.111   1.570   6.066
 5653SOL    HW117702   5.180   1.610   6.014
 5653SOL    HW217703   5.061   1.644   6.101
 5654SOL     OW17704   3.860   1.796   7.430
 5654SOL    HW117705   3.809   1.732   7.479
 5654SOL    HW217706   3.908   1.845   7.497
 5655SOL     OW17707   5.016   0.919   6.259
 5655SOL    HW117708   5.093   0.865   6.245
 5655SOL    HW217709   5.034   1.000   6.210
 5656SOL     OW17710   4.539   1.273   7.017
 5656SOL    HW117711   4.511   1.312   7.099
 5656SOL    HW217712   4.470   1.295   6.955
 5657SOL     OW17713   4.395   1.619   5.741
 5657SOL    HW117714   4.406   1.631   5.647
 5657SOL    HW217715   4.341   1.541   5.750
 5658SOL     OW17716   3.987   0.329   6.305
 5658SOL    HW117717   3.899   0.360   6.283
 5658SOL    HW217718   3.984   0.317   6.400
 5659SOL     OW17719   4.909   1.609   5.627
 5659SOL    HW117720   4.920   1.515   5.638
 5659SOL    HW217721   4.854   1.618   5.549
 5660SOL     OW17722   4.548   1.006   6.959
 5660SOL    HW117723   4.591   1.002   6.873
 5660SOL    HW217724   4.548   1.099   6.980
 5661SOL     OW17725   4.641   0.911   5.876
 5661SOL    HW117726   4.702   0.943   5.810
 5661SOL    HW217727   4.686   0.840   5.920
 5662SOL     OW17728   4.093   1.302   7.078
 5662SOL    HW117729   4.080   1.380   7.023
 5662SOL    HW217730   4.016   1.248   7.061
 5663SOL     OW17731   4.775   1.107   6.292
 5663SOL    HW117732   4.704   1.057   6.333
 5663SOL    HW217733   4.833   1.040   6.254
 5664SOL     OW17734   4.739   0.242   6.556
 5664SOL    HW117735   4.720   0.197   6.474
 5664SOL    HW217736   4.733   0.174   6.623
 5665SOL     OW17737   4.326   1.489   6.068
 5665SOL    HW117738   4.370   1.438   5.999
 5665SOL    HW217739   4.258   1.537   6.023
 5666SOL     OW17740   3.983   1.345   5.874
 5666SOL    HW117741   3.890   1.343   5.851
 5666SOL    HW217742   3.985   1.382   5.963
 5667SOL     OW17743   3.837   1.020   7.305
 5667SOL    HW117744   3.760   0.998   7.358
 5667SOL    HW217745   3.911   0.983   7.354
 5668SOL     OW17746   4.396   0.212   7.076
 5668SOL    HW117747   4.479   0.191   7.032
 5668SOL    HW217748   4.421   0.259   7.155
 5669SOL     OW17749   3.801   0.340   5.627
 5669SOL    HW117750   3.717   0.307   5.594
 5669SOL    HW217751   3.822   0.413   5.569
 5670SOL     OW17752   5.163   0.859   6.989
 5670SOL    HW117753   5.110   0.915   6.933
 5670SOL    HW217754   5.252   0.871   6.956
 5671SOL     OW17755   3.796   0.167   5.901
 5671SOL    HW117756   3.796   0.250   5.854
 5671SOL    HW217757   3.881   0.127   5.881
 5672SOL     OW17758   4.907   1.330   5.700
 5672SOL    HW117759   4.813   1.312   5.701
 5672SOL    HW217760   4.931   1.337   5.793
 5673SOL     OW17761   4.343   0.831   7.019
 5673SOL    HW117762   4.398   0.907   7.004
 5673SOL    HW217763   4.404   0.758   7.027
 5674SOL     OW17764   4.439   0.572   7.289
 5674SOL    HW117765   4.479   0.633   7.351
 5674SOL    HW217766   4.470   0.485   7.318
 5675SOL     OW17767   5.182   1.204   7.217
 5675SOL    HW117768   5.172   1.216   7.312
 5675SOL    HW217769   5.276   1.213   7.202
 5676SOL     OW17770   4.104   1.740   7.150
 5676SOL    HW117771   4.018   1.780   7.137
 5676SOL    HW217772   4.084   1.656   7.192
 5677SOL     OW17773   4.942   0.323   6.047
 5677SOL    HW117774   4.998   0.246   6.040
 5677SOL    HW217775   4.972   0.368   6.126
 5678SOL     OW17776   4.315   0.739   6.255
 5678SOL    HW117777   4.353   0.825   6.239
 5678SOL    HW217778   4.246   0.730   6.189
 5679SOL     OW17779   4.591   1.367   5.620
 5679SOL    HW117780   4.549   1.396   5.701
 5679SOL    HW217781   4.606   1.447   5.571
 5680SOL     OW17782   4.384   1.792   6.531
 5680SOL    HW117783   4.364   1.883   6.508
 5680SOL    HW217784   4.479   1.786   6.524
 5681SOL     OW17785   4.592   0.967   6.442
 5681SOL    HW117786   4.641   0.895   6.481
 5681SOL    HW217787   4.557   1.016   6.516
 5682SOL     OW17788   4.807   0.988   5.676
 5682SOL    HW117789   4.782   1.037   5.598
 5682SOL    HW217790   4.881   0.934   5.648
 5683SOL     OW17791   3.949   1.303   7.443
 5683SOL    HW117792   3.881   1.243   7.412
 5683SOL    HW217793   3.929   1.317   7.535
 5684SOL     OW17794   3.808   1.234   6.251
 5684SOL    HW117795   3.812   1.185   6.333
 5684SOL    HW217796   3.876   1.195   6.196
 5685SOL     OW17797   4.405   1.401   7.214
 5685SOL    HW117798   4.324   1.359   7.244
 5685SOL    HW217799   4.401   1.490   7.249
 5686SOL     OW17800   4.154   0.435   6.110
 5686SOL    HW117801   4.185   0.363   6.056
 5686SOL    HW217802   4.108   0.393   6.182
 5687SOL     OW17803   0.096   1.521   6.685
 5687SOL    HW117804   0.028   1.496   6.623
 5687SOL    HW217805   0.104   1.445   6.743
 5688SOL     OW17806   4.052   0.555   6.876
 5688SOL    HW117807   4.109   0.501   6.931
 5688SOL    HW217808   4.073   0.528   6.787
 5689SOL     OW17809   4.551   1.577   6.264
 5689SOL    HW117810   4.541   1.630   6.184
 5689SOL    HW217811   4.474   1.521   6.266
 5690SOL     OW17812   5.151   0.216   6.706
 5690SOL    HW117813   5.159   0.133   6.753
 5690SOL    HW217814   5.105   0.274   6.767
 5691SOL     OW17815   4.725   0.021   6.726
 5691SOL    HW117816   4.674   5.251   6.685
 5691SOL    HW217817   4.812   5.283   6.738
 5692SOL     OW17818   4.495   1.332   5.900
 5692SOL    HW117819   4.463   1.242   5.906
 5692SOL    HW217820   4.577   1.332   5.948
 5693SOL     OW17821   4.344   1.557   6.871
 5693SOL    HW117822   4.346   1.639   6.920
 5693SOL    HW217823   4.431   1.549   6.833
 5694SOL     OW17824   5.035   0.035   5.746
 5694SOL    HW117825   5.117   0.027   5.696
 5694SOL    HW217826   4.984   5.259   5.720
 5695SOL     OW17827   5.029   0.461   6.272
 5695SOL    HW117828   4.972   0.538   6.276
 5695SOL    HW217829   5.017   0.418   6.356
 5696SOL     OW17830   5.296   0.214   6.468
 5696SOL    HW117831   5.237   0.216   6.543
 5696SOL    HW217832   5.278   0.295   6.421
 5697SOL     OW17833   3.767   1.072   5.892
 5697SOL    HW117834   3.861   1.063   5.874
 5697SOL    HW217835   3.739   0.983   5.915
 5698SOL     OW17836   4.604   1.649   5.932
 5698SOL    HW117837   4.534   1.634   5.869
 5698SOL    HW217838   4.576   1.727   5.981
 5699SOL     OW17839   3.952   0.620   7.571
 5699SOL    HW117840   3.861   0.628   7.603
 5699SOL    HW217841   3.943   0.597   7.479
 5700SOL     OW17842   3.945   1.718   7.919
 5700SOL    HW117843   3.974   1.760   7.999
 5700SOL    HW217844   4.022   1.715   7.863
 5701SOL     OW17845   3.942   1.438   7.990
 5701SOL    HW117846   3.927   1.532   7.990
 5701SOL    HW217847   3.882   1.404   8.057
 5702SOL     OW17848   4.312   0.981   7.579
 5702SOL    HW117849   4.355   1.033   7.510
 5702SOL    HW217850   4.350   1.013   7.660
 5703SOL     OW17851   3.754   1.599   7.578
 5703SOL    HW117852   3.738   1.506   7.592
 5703SOL    HW217853   3.726   1.641   7.659
 5704SOL     OW17854   0.118   0.924   8.015
 5704SOL    HW117855   0.211   0.916   8.036
 5704SOL    HW217856   0.105   1.018   7.998
 5705SOL     OW17857   4.534   5.290   7.946
 5705SOL    HW117858   4.575   0.075   7.930
 5705SOL    HW217859   4.440   0.008   7.942
 5706SOL     OW17860   4.315   0.725   7.709
 5706SOL    HW117861   4.318   0.807   7.659
 5706SOL    HW217862   4.254   0.743   7.780
 5707SOL     OW17863   3.785   0.863   0.090
 5707SOL    HW117864   3.849   0.798   0.119
 5707SOL    HW217865   3.779   0.924   0.164
 5708SOL     OW17866   4.589   0.356   7.634
 5708SOL    HW117867   4.631   0.417   7.573
 5708SOL    HW217868   4.647   0.280   7.637
 5709SOL     OW17869   4.047   0.956   7.697
 5709SOL    HW117870   4.127   0.974   7.647
 5709SOL    HW217871   4.011   0.877   7.657
 5710SOL     OW17872   4.837   1.776   7.684
 5710SOL    HW117873   4.763   1.733   7.727
 5710SOL    HW217874   4.861   1.716   7.613
 5711SOL     OW17875   4.191   1.738   7.769
 5711SOL    HW117876   4.239   1.791   7.833
 5711SOL    HW217877   4.258   1.703   7.711
 5712SOL     OW17878   5.115   0.113   7.873
 5712SOL    HW117879   5.087   0.090   7.784
 5712SOL    HW217880   5.210   0.100   7.871
 5713SOL     OW17881   4.115   0.696   7.918
 5713SOL    HW117882   4.121   0.600   7.926
 5713SOL    HW217883   4.024   0.715   7.941
 5714SOL     OW17884   4.341   0.131   7.560
 5714SOL    HW117885   4.421   0.080   7.574
 5714SOL    HW217886   4.297   0.088   7.487
 5715SOL     OW17887   4.270   0.064   7.952
 5715SOL    HW117888   4.178   0.048   7.974
 5715SOL    HW217889   4.268   0.136   7.890
 5716SOL     OW17890   5.137   1.178   7.488
 5716SOL    HW117891   5.154   1.109   7.552
 5716SOL    HW217892   5.050   1.211   7.511
 5717SOL     OW17893   4.029   0.071   7.659
 5717SOL    HW117894   4.080   0.128   7.602
 5717SOL    HW217895   4.078   5.289   7.661
 5718SOL     OW17896   4.673   0.230   7.911
 5718SOL    HW117897   4.620   0.293   7.863
 5718SOL    HW217898   4.759   0.272   7.919
 5719SOL     OW17899   4.165   1.149   0.100
 5719SOL    HW117900   4.090   1.185   0.146
 5719SOL    HW217901   4.134   1.136   0.010
 5720SOL     OW17902   5.008   1.805   8.013
 5720SOL    HW117903   5.047   1.871   7.955
 5720SOL    HW217904   4.937   1.851   8.058
 5721SOL     OW17905   4.756   0.553   7.463
 5721SOL    HW117906   4.706   0.633   7.448
 5721SOL    HW217907   4.803   0.569   7.545
 5722SOL     OW17908   4.213   1.415   7.605
 5722SOL    HW117909   4.139   1.386   7.659
 5722SOL    HW217910   4.195   1.380   7.518
 5723SOL     OW17911   5.127   0.560   7.529
 5723SOL    HW117912   5.051   0.552   7.587
 5723SOL    HW217913   5.199   0.524   7.580
 5724SOL     OW17914   4.249   0.271   7.773
 5724SOL    HW117915   4.289   0.217   7.705
 5724SOL    HW217916   4.228   0.353   7.730
 5725SOL     OW17917   4.436   1.062   7.811
 5725SOL    HW117918   4.410   1.049   7.903
 5725SOL    HW217919   4.515   1.009   7.801
 5726SOL     OW17920   4.090   1.101   7.928
 5726SOL    HW117921   4.071   1.181   7.878
 5726SOL    HW217922   4.076   1.030   7.866
 5727SOL     OW17923   4.959   1.357   7.819
 5727SOL    HW117924   5.016   1.428   7.849
 5727SOL    HW217925   4.902   1.340   7.894
 5728SOL     OW17926   0.026   0.639   7.936
 5728SOL    HW117927   5.276   0.680   8.006
 5728SOL    HW217928   0.048   0.710   7.876
 5729SOL     OW17929   4.929   0.530   7.715
 5729SOL    HW117930   4.932   0.444   7.758
 5729SOL    HW217931   4.895   0.589   7.783
 5730SOL     OW17932   0.030   0.404   7.804
 5730SOL    HW117933   0.031   0.338   7.873
 5730SOL    HW217934   0.021   0.487   7.851
 5731SOL     OW17935   5.034   0.832   7.490
 5731SOL    HW117936   5.063   0.741   7.486
 5731SOL    HW217937   5.057   0.868   7.404
 5732SOL     OW17938   3.730   1.324   7.640
 5732SOL    HW117939   3.642   1.337   7.603
 5732SOL    HW217940   3.729   1.235   7.674
 5733SOL     OW17941   4.562   0.601   7.763
 5733SOL    HW117942   4.551   0.510   7.734
 5733SOL    HW217943   4.472   0.636   7.764
 5734SOL     OW17944   4.185   0.495   7.638
 5734SOL    HW117945   4.245   0.568   7.655
 5734SOL    HW217946   4.101   0.536   7.622
 5735SOL     OW17947   5.033   0.846   7.773
 5735SOL    HW117948   4.940   0.858   7.792
 5735SOL    HW217949   5.038   0.846   7.677
 5736SOL     OW17950   5.103   1.573   7.907
 5736SOL    HW117951   5.197   1.586   7.903
 5736SOL    HW217952   5.069   1.654   7.946
 5737SOL     OW17953   4.390   1.620   7.604
 5737SOL    HW117954   4.403   1.630   7.509
 5737SOL    HW217955   4.339   1.539   7.612
 5738SOL     OW17956   4.912   1.611   7.486
 5738SOL    HW117957   4.920   1.516   7.501
 5738SOL    HW217958   4.853   1.618   7.411
 5739SOL     OW17959   4.655   0.909   7.759
 5739SOL    HW117960   4.705   0.934   7.681
 5739SOL    HW217961   4.644   0.815   7.751
 5740SOL     OW17962   4.328   1.506   7.936
 5740SOL    HW117963   4.373   1.445   7.878
 5740SOL    HW217964   4.256   1.541   7.884
 5741SOL     OW17965   3.982   1.347   7.741
 5741SOL    HW117966   3.890   1.345   7.715
 5741SOL    HW217967   3.982   1.382   7.829
 5742SOL     OW17968   3.798   0.339   7.490
 5742SOL    HW117969   3.716   0.308   7.453
 5742SOL    HW217970   3.823   0.414   7.435
 5743SOL     OW17971   3.788   0.182   7.746
 5743SOL    HW117972   3.785   0.258   7.688
 5743SOL    HW217973   3.868   0.136   7.722
 5744SOL     OW17974   4.906   1.329   7.556
 5744SOL    HW117975   4.811   1.315   7.556
 5744SOL    HW217976   4.928   1.342   7.648
 5745SOL     OW17977   5.266   1.743   0.321
 5745SOL    HW117978   5.269   1.829   0.280
 5745SOL    HW217979   0.038   1.744   0.384
 5746SOL     OW17980   4.944   0.325   7.909
 5746SOL    HW117981   5.007   0.252   7.906
 5746SOL    HW217982   4.956   0.363   7.996
 5747SOL     OW17983   4.349   0.736   8.055
 5747SOL    HW117984   4.354   0.818   0.024
 5747SOL    HW217985   4.261   0.735   8.018
 5748SOL     OW17986   4.591   1.366   7.482
 5748SOL    HW117987   4.551   1.394   7.564
 5748SOL    HW217988   4.606   1.447   7.434
 5749SOL     OW17989   4.802   0.979   7.540
 5749SOL    HW117990   4.778   1.033   7.465
 5749SOL    HW217991   4.880   0.931   7.511
 5750SOL     OW17992   4.113   0.421   7.983
 5750SOL    HW117993   4.165   0.369   7.922
 5750SOL    HW217994   4.161   0.417   8.066
 5751SOL     OW17995   4.490   1.334   7.758
 5751SOL    HW117996   4.459   1.244   7.762
 5751SOL    HW217997   4.568   1.335   7.813
 5752SOL     OW17998   5.037   0.039   7.613
 5752SOL    HW117999   5.115   0.029   7.558
 5752SOL    HW218000   4.986   5.260   7.596
 5753SOL     OW18001   3.775   1.079   7.750
 5753SOL    HW118002   3.869   1.068   7.736
 5753SOL    HW218003   3.743   0.990   7.766
 5754SOL     OW18004   4.613   1.647   7.783
 5754SOL    HW118005   4.537   1.627   7.729
 5754SOL    HW218006   4.582   1.711   7.846
 5755SOL     OW18007   3.945   2.485   0.122
 5755SOL    HW118008   3.864   2.451   0.160
 5755SOL    HW218009   3.966   2.425   0.051
 5756SOL     OW18010   3.949   2.143   0.991
 5756SOL    HW118011   3.977   2.109   1.076
 5756SOL    HW218012   3.859   2.110   0.982
 5757SOL     OW18013   3.729   2.245   0.638
 5757SOL    HW118014   3.646   2.270   0.679
 5757SOL    HW218015   3.708   2.165   0.590
 5758SOL     OW18016   4.291   3.148   1.174
 5758SOL    HW118017   4.203   3.152   1.136
 5758SOL    HW218018   4.306   3.237   1.208
 5759SOL     OW18019   5.283   3.407   0.707
 5759SOL    HW118020   5.247   3.355   0.778
 5759SOL    HW218021   5.224   3.391   0.633
 5760SOL     OW18022   4.858   2.561   0.701
 5760SOL    HW118023   4.908   2.642   0.690
 5760SOL    HW218024   4.810   2.574   0.783
 5761SOL     OW18025   4.480   3.005   1.040
 5761SOL    HW118026   4.411   3.039   1.096
 5761SOL    HW218027   4.515   3.082   0.995
 5762SOL     OW18028   4.591   2.638   1.822
 5762SOL    HW118029   4.575   2.709   1.883
 5762SOL    HW218030   4.613   2.681   1.740
 5763SOL     OW18031   4.409   2.864   0.650
 5763SOL    HW118032   4.474   2.853   0.719
 5763SOL    HW218033   4.340   2.917   0.691
 5764SOL     OW18034   4.434   3.013   1.812
 5764SOL    HW118035   4.482   3.092   1.838
 5764SOL    HW218036   4.351   3.046   1.777
 5765SOL     OW18037   4.055   3.288   1.068
 5765SOL    HW118038   3.982   3.251   1.017
 5765SOL    HW218039   4.105   3.339   1.004
 5766SOL     OW18040   5.160   3.343   1.350
 5766SOL    HW118041   5.205   3.424   1.376
 5766SOL    HW218042   5.108   3.319   1.427
 5767SOL     OW18043   4.172   2.260   1.488
 5767SOL    HW118044   4.248   2.201   1.493
 5767SOL    HW218045   4.096   2.204   1.501
 5768SOL     OW18046   3.944   3.576   0.472
 5768SOL    HW118047   3.966   3.652   0.526
 5768SOL    HW218048   4.018   3.568   0.412
 5769SOL     OW18049   4.860   3.202   1.694
 5769SOL    HW118050   4.899   3.198   1.781
 5769SOL    HW218051   4.807   3.122   1.688
 5770SOL     OW18052   3.950   3.302   0.530
 5770SOL    HW118053   3.937   3.397   0.534
 5770SOL    HW218054   3.891   3.267   0.597
 5771SOL     OW18055   3.979   2.952   0.890
 5771SOL    HW118056   3.978   2.866   0.932
 5771SOL    HW218057   3.923   3.006   0.944
 5772SOL     OW18058   4.334   3.654   1.427
 5772SOL    HW118059   4.253   3.637   1.475
 5772SOL    HW218060   4.359   3.743   1.454
 5773SOL     OW18061   4.355   2.823   0.132
 5773SOL    HW118062   4.303   2.899   0.107
 5773SOL    HW218063   4.404   2.852   0.209
 5774SOL     OW18064   3.838   2.512   0.562
 5774SOL    HW118065   3.809   2.424   0.583
 5774SOL    HW218066   3.830   2.560   0.644
 5775SOL     OW18067   3.751   3.458   0.111
 5775SOL    HW118068   3.739   3.370   0.146
 5775SOL    HW218069   3.737   3.516   0.186
 5776SOL     OW18070   0.114   2.808   0.594
 5776SOL    HW118071   0.203   2.771   0.593
 5776SOL    HW218072   0.115   2.874   0.524
 5777SOL     OW18073   3.847   2.604   1.586
 5777SOL    HW118074   3.939   2.629   1.595
 5777SOL    HW218075   3.799   2.687   1.594
 5778SOL     OW18076   4.337   3.247   0.735
 5778SOL    HW118077   4.291   3.164   0.744
 5778SOL    HW218078   4.321   3.273   0.644
 5779SOL     OW18079   5.008   3.099   1.425
 5779SOL    HW118080   5.041   3.032   1.365
 5779SOL    HW218081   5.063   3.091   1.503
 5780SOL     OW18082   4.539   1.864   0.511
 5780SOL    HW118083   4.578   1.949   0.489
 5780SOL    HW218084   4.445   1.882   0.519
 5781SOL     OW18085   3.915   2.829   1.270
 5781SOL    HW118086   3.999   2.786   1.256
 5781SOL    HW218087   3.851   2.773   1.225
 5782SOL     OW18088   4.897   3.669   1.623
 5782SOL    HW118089   4.919   3.728   1.550
 5782SOL    HW218090   4.918   3.582   1.590
 5783SOL     OW18091   4.056   2.112   1.810
 5783SOL    HW118092   4.101   2.195   1.826
 5783SOL    HW218093   3.967   2.127   1.842
 5784SOL     OW18094   5.169   3.296   0.937
 5784SOL    HW118095   5.106   3.303   1.009
 5784SOL    HW218096   5.163   3.205   0.908
 5785SOL     OW18097   4.322   2.576   0.282
 5785SOL    HW118098   4.340   2.653   0.227
 5785SOL    HW218099   4.257   2.607   0.345
 5786SOL     OW18100   4.996   2.198   0.920
 5786SOL    HW118101   4.908   2.169   0.941
 5786SOL    HW218102   5.051   2.164   0.990
 5787SOL     OW18103   4.515   2.480   1.451
 5787SOL    HW118104   4.489   2.456   1.540
 5787SOL    HW218105   4.475   2.413   1.396
 5788SOL     OW18106   5.115   2.341   1.680
 5788SOL    HW118107   5.116   2.380   1.768
 5788SOL    HW218108   5.190   2.282   1.679
 5789SOL     OW18109   4.679   2.750   1.582
 5789SOL    HW118110   4.732   2.678   1.547
 5789SOL    HW218111   4.631   2.784   1.506
 5790SOL     OW18112   4.715   2.275   1.238
 5790SOL    HW118113   4.629   2.296   1.276
 5790SOL    HW218114   4.695   2.228   1.158
 5791SOL     OW18115   4.776   2.559   0.426
 5791SOL    HW118116   4.791   2.555   0.520
 5791SOL    HW218117   4.693   2.514   0.413
 5792SOL     OW18118   3.812   2.684   0.776
 5792SOL    HW118119   3.894   2.676   0.826
 5792SOL    HW218120   3.769   2.761   0.811
 5793SOL     OW18121   3.851   3.707   1.577
 5793SOL    HW118122   3.851   3.687   1.671
 5793SOL    HW218123   3.759   3.703   1.552
 5794SOL     OW18124   4.608   2.219   0.200
 5794SOL    HW118125   4.653   2.267   0.131
 5794SOL    HW218126   4.609   2.128   0.171
 5795SOL     OW18127   5.094   3.009   0.548
 5795SOL    HW118128   5.177   3.001   0.501
 5795SOL    HW218129   5.041   3.068   0.494
 5796SOL     OW18130   4.273   2.044   0.893
 5796SOL    HW118131   4.276   2.072   0.984
 5796SOL    HW218132   4.276   2.126   0.843
 5797SOL     OW18133   4.730   3.307   0.473
 5797SOL    HW118134   4.690   3.378   0.424
 5797SOL    HW218135   4.713   3.329   0.565
 5798SOL     OW18136   4.078   3.670   0.861
 5798SOL    HW118137   4.122   3.586   0.869
 5798SOL    HW218138   4.147   3.735   0.879
 5799SOL     OW18139   4.940   3.405   1.520
 5799SOL    HW118140   4.927   3.331   1.579
 5799SOL    HW218141   4.886   3.384   1.444
 5800SOL     OW18142   4.051   2.803   0.254
 5800SOL    HW118143   4.119   2.846   0.203
 5800SOL    HW218144   4.051   2.713   0.223
 5801SOL     OW18145   4.189   3.126   1.738
 5801SOL    HW118146   4.162   3.131   1.646
 5801SOL    HW218147   4.107   3.125   1.787
 5802SOL     OW18148   4.826   3.636   0.225
 5802SOL    HW118149   4.771   3.596   0.293
 5802SOL    HW218150   4.841   3.566   0.162
 5803SOL     OW18151   3.924   2.144   1.501
 5803SOL    HW118152   3.842   2.193   1.495
 5803SOL    HW218153   3.907   2.075   1.566
 5804SOL     OW18154   4.189   3.600   0.323
 5804SOL    HW118155   4.230   3.659   0.386
 5804SOL    HW218156   4.260   3.574   0.264
 5805SOL     OW18157   5.117   1.987   0.438
 5805SOL    HW118158   5.101   1.968   0.345
 5805SOL    HW218159   5.213   1.994   0.444
 5806SOL     OW18160   3.978   3.653   1.232
 5806SOL    HW118161   4.031   3.589   1.279
 5806SOL    HW218162   3.970   3.618   1.144
 5807SOL     OW18163   4.662   3.560   0.900
 5807SOL    HW118164   4.742   3.510   0.916
 5807SOL    HW218165   4.617   3.511   0.830
 5808SOL     OW18166   4.110   2.559   0.477
 5808SOL    HW118167   4.135   2.468   0.487
 5808SOL    HW218168   4.017   2.562   0.500
 5809SOL     OW18169   4.353   1.973   0.135
 5809SOL    HW118170   4.448   1.961   0.142
 5809SOL    HW218171   4.333   1.953   0.044
 5810SOL     OW18172   4.490   2.140   1.754
 5810SOL    HW118173   4.566   2.081   1.756
 5810SOL    HW218174   4.441   2.119   1.833
 5811SOL     OW18175   4.599   3.383   1.194
 5811SOL    HW118176   4.585   3.348   1.106
 5811SOL    HW218177   4.670   3.329   1.230
 5812SOL     OW18178   5.058   2.453   1.432
 5812SOL    HW118179   5.091   2.421   1.516
 5812SOL    HW218180   5.100   2.538   1.421
 5813SOL     OW18181   4.538   3.257   0.939
 5813SOL    HW118182   4.622   3.246   0.895
 5813SOL    HW218183   4.474   3.258   0.867
 5814SOL     OW18184   4.651   2.371   0.903
 5814SOL    HW118185   4.628   2.362   0.810
 5814SOL    HW218186   4.683   2.284   0.928
 5815SOL     OW18187   4.273   1.925   0.506
 5815SOL    HW118188   4.192   1.925   0.557
 5815SOL    HW218189   4.267   2.003   0.451
 5816SOL     OW18190   5.141   3.035   0.042
 5816SOL    HW118191   5.142   2.963   0.106
 5816SOL    HW218192   5.056   3.078   0.056
 5817SOL     OW18193   4.034   1.916   0.169
 5817SOL    HW118194   4.098   1.985   0.184
 5817SOL    HW218195   4.071   1.839   0.211
 5818SOL     OW18196   4.661   2.108   0.459
 5818SOL    HW118197   4.633   2.149   0.378
 5818SOL    HW218198   4.756   2.125   0.463
 5819SOL     OW18199   4.801   2.543   1.461
 5819SOL    HW118200   4.734   2.475   1.463
 5819SOL    HW218201   4.883   2.494   1.451
 5820SOL     OW18202   4.941   3.434   0.796
 5820SOL    HW118203   4.964   3.499   0.730
 5820SOL    HW218204   5.021   3.420   0.846
 5821SOL     OW18205   4.191   3.012   0.734
 5821SOL    HW118206   4.122   2.992   0.798
 5821SOL    HW218207   4.151   2.995   0.649
 5822SOL     OW18208   4.993   3.656   0.604
 5822SOL    HW118209   5.038   3.719   0.548
 5822SOL    HW218210   4.928   3.708   0.652
 5823SOL     OW18211   4.759   2.394   0.028
 5823SOL    HW118212   4.711   2.472   0.002
 5823SOL    HW218213   4.818   2.423   0.098
 5824SOL     OW18214   3.802   2.417   1.391
 5824SOL    HW118215   3.894   2.415   1.365
 5824SOL    HW218216   3.798   2.487   1.457
 5825SOL     OW18217   4.284   2.089   1.165
 5825SOL    HW118218   4.325   2.012   1.204
 5825SOL    HW218219   4.193   2.085   1.195
 5826SOL     OW18220   4.592   2.321   0.639
 5826SOL    HW118221   4.549   2.376   0.573
 5826SOL    HW218222   4.613   2.240   0.591
 5827SOL     OW18223   4.739   1.914   0.751
 5827SOL    HW118224   4.680   1.907   0.676
 5827SOL    HW218225   4.717   1.839   0.806
 5828SOL     OW18226   5.157   3.038   0.850
 5828SOL    HW118227   5.102   2.961   0.863
 5828SOL    HW218228   5.168   3.044   0.755
 5829SOL     OW18229   4.207   3.301   0.172
 5829SOL    HW118230   4.135   3.258   0.219
 5829SOL    HW218231   4.212   3.255   0.088
 5830SOL     OW18232   5.125   2.446   0.077
 5830SOL    HW118233   5.067   2.421   0.148
 5830SOL    HW218234   5.194   2.380   0.078
 5831SOL     OW18235   4.242   2.125   0.324
 5831SOL    HW118236   4.291   2.073   0.261
 5831SOL    HW218237   4.230   2.210   0.281
 5832SOL     OW18238   4.781   3.215   1.333
 5832SOL    HW118239   4.706   3.185   1.384
 5832SOL    HW218240   4.857   3.173   1.374
 5833SOL     OW18241   0.006   3.466   1.617
 5833SOL    HW118242   0.040   3.472   1.528
 5833SOL    HW218243   0.083   3.446   1.671
 5834SOL     OW18244   4.852   3.064   1.107
 5834SOL    HW118245   4.791   3.101   1.171
 5834SOL    HW218246   4.818   3.094   1.022
 5835SOL     OW18247   4.642   1.960   1.397
 5835SOL    HW118248   4.664   1.941   1.306
 5835SOL    HW218249   4.721   1.999   1.434
 5836SOL     OW18250   4.708   2.975   1.725
 5836SOL    HW118251   4.616   2.992   1.744
 5836SOL    HW218252   4.706   2.898   1.668
 5837SOL     OW18253   4.438   2.924   0.380
 5837SOL    HW118254   4.420   2.907   0.472
 5837SOL    HW218255   4.515   2.872   0.360
 5838SOL     OW18256   4.142   2.676   1.251
 5838SOL    HW118257   4.211   2.686   1.317
 5838SOL    HW218258   4.107   2.588   1.266
 5839SOL     OW18259   4.989   2.237   1.276
 5839SOL    HW118260   5.024   2.316   1.317
 5839SOL    HW218261   4.900   2.261   1.251
 5840SOL     OW18262   3.794   3.435   1.352
 5840SOL    HW118263   3.764   3.509   1.299
 5840SOL    HW218264   3.889   3.439   1.347
 5841SOL     OW18265   4.069   2.971   0.492
 5841SOL    HW118266   4.077   3.044   0.430
 5841SOL    HW218267   4.078   2.893   0.437
 5842SOL     OW18268   4.277   2.399   0.860
 5842SOL    HW118269   4.293   2.457   0.786
 5842SOL    HW218270   4.342   2.425   0.925
 5843SOL     OW18271   4.971   3.209   0.392
 5843SOL    HW118272   5.027   3.281   0.420
 5843SOL    HW218273   4.884   3.231   0.424
 5844SOL     OW18274   4.993   3.318   1.139
 5844SOL    HW118275   5.048   3.321   1.217
 5844SOL    HW218276   4.940   3.239   1.150
 5845SOL     OW18277   4.071   3.388   1.316
 5845SOL    HW118278   4.059   3.346   1.231
 5845SOL    HW218279   4.166   3.401   1.323
 5846SOL     OW18280   4.138   2.607   1.602
 5846SOL    HW118281   4.199   2.652   1.544
 5846SOL    HW218282   4.177   2.521   1.617
 5847SOL     OW18283   4.718   1.985   1.756
 5847SOL    HW118284   4.774   2.057   1.728
 5847SOL    HW218285   4.766   1.906   1.730
 5848SOL     OW18286   4.222   1.903   1.747
 5848SOL    HW118287   4.179   1.849   1.681
 5848SOL    HW218288   4.162   1.977   1.759
 5849SOL     OW18289   4.306   2.735   1.031
 5849SOL    HW118290   4.338   2.825   1.030
 5849SOL    HW218291   4.250   2.730   1.108
 5850SOL     OW18292   5.085   2.719   1.039
 5850SOL    HW118293   5.010   2.703   0.982
 5850SOL    HW218294   5.138   2.639   1.032
 5851SOL     OW18295   4.933   2.393   0.270
 5851SOL    HW118296   4.935   2.313   0.321
 5851SOL    HW218297   4.886   2.456   0.325
 5852SOL     OW18298   4.023   2.061   1.246
 5852SOL    HW118299   3.986   2.094   1.328
 5852SOL    HW218300   4.004   1.967   1.247
 5853SOL     OW18301   3.769   3.173   1.276
 5853SOL    HW118302   3.803   3.119   1.348
 5853SOL    HW218303   3.777   3.262   1.309
 5854SOL     OW18304   4.448   2.493   1.058
 5854SOL    HW118305   4.523   2.476   1.001
 5854SOL    HW218306   4.421   2.582   1.036
 5855SOL     OW18307   4.026   1.927   0.623
 5855SOL    HW118308   4.008   2.018   0.647
 5855SOL    HW218309   4.033   1.881   0.707
 5856SOL     OW18310   0.046   2.240   0.358
 5856SOL    HW118311   0.062   2.182   0.432
 5856SOL    HW218312   0.015   2.321   0.397
 5857SOL     OW18313   4.750   2.621   0.960
 5857SOL    HW118314   4.750   2.639   1.054
 5857SOL    HW218315   4.725   2.529   0.953
 5858SOL     OW18316   4.698   3.423   1.713
 5858SOL    HW118317   4.687   3.471   1.631
 5858SOL    HW218318   4.747   3.345   1.689
 5859SOL     OW18319   4.077   2.777   1.809
 5859SOL    HW118320   4.160   2.797   1.853
 5859SOL    HW218321   4.101   2.715   1.740
 5860SOL     OW18322   5.030   2.696   0.028
 5860SOL    HW118323   5.061   2.607   0.045
 5860SOL    HW218324   5.059   2.715   8.019
 5861SOL     OW18325   4.789   3.196   0.855
 5861SOL    HW118326   4.793   3.124   0.792
 5861SOL    HW218327   4.847   3.263   0.819
 5862SOL     OW18328   4.033   2.671   0.947
 5862SOL    HW118329   4.126   2.693   0.942
 5862SOL    HW218330   4.031   2.582   0.981
 5863SOL     OW18331   4.055   2.387   1.012
 5863SOL    HW118332   4.021   2.300   0.997
 5863SOL    HW218333   4.132   2.393   0.955
 5864SOL     OW18334   4.856   2.239   1.680
 5864SOL    HW118335   4.809   2.294   1.743
 5864SOL    HW218336   4.944   2.277   1.675
 5865SOL     OW18337   4.885   2.065   1.469
 5865SOL    HW118338   4.874   2.127   1.541
 5865SOL    HW218339   4.924   2.117   1.398
 5866SOL     OW18340   3.735   3.186   0.190
 5866SOL    HW118341   3.648   3.200   0.153
 5866SOL    HW218342   3.733   3.096   0.222
 5867SOL     OW18343   3.814   3.650   0.937
 5867SOL    HW118344   3.784   3.570   0.894
 5867SOL    HW218345   3.904   3.662   0.907
 5868SOL     OW18346   4.221   3.435   0.906
 5868SOL    HW118347   4.289   3.498   0.930
 5868SOL    HW218348   4.265   3.372   0.850
 5869SOL     OW18349   4.708   2.655   1.227
 5869SOL    HW118350   4.763   2.631   1.301
 5869SOL    HW218351   4.622   2.617   1.248
 5870SOL     OW18352   3.760   2.406   1.116
 5870SOL    HW118353   3.841   2.392   1.068
 5870SOL    HW218354   3.787   2.410   1.208
 5871SOL     OW18355   3.915   2.381   1.727
 5871SOL    HW118356   3.972   2.343   1.660
 5871SOL    HW218357   3.872   2.454   1.683
 5872SOL     OW18358   5.111   2.801   1.666
 5872SOL    HW118359   5.120   2.895   1.654
 5872SOL    HW218360   5.114   2.765   1.577
 5873SOL     OW18361   4.542   2.431   0.366
 5873SOL    HW118362   4.551   2.360   0.303
 5873SOL    HW218363   4.466   2.481   0.336
 5874SOL     OW18364   3.968   3.413   1.728
 5874SOL    HW118365   3.945   3.478   1.795
 5874SOL    HW218366   3.969   3.330   1.774
 5875SOL     OW18367   4.423   2.313   1.260
 5875SOL    HW118368   4.371   2.239   1.229
 5875SOL    HW218369   4.420   2.376   1.188
 5876SOL     OW18370   4.645   3.542   1.469
 5876SOL    HW118371   4.624   3.510   1.381
 5876SOL    HW218372   4.647   3.637   1.459
 5877SOL     OW18373   4.193   2.352   0.179
 5877SOL    HW118374   4.259   2.419   0.199
 5877SOL    HW218375   4.109   2.398   0.189
 5878SOL     OW18376   3.870   3.002   1.472
 5878SOL    HW118377   3.873   2.950   1.552
 5878SOL    HW218378   3.887   2.939   1.402
 5879SOL     OW18379   5.054   2.912   1.225
 5879SOL    HW118380   5.076   2.847   1.158
 5879SOL    HW218381   4.982   2.962   1.187
 5880SOL     OW18382   5.023   2.732   0.319
 5880SOL    HW118383   4.945   2.687   0.352
 5880SOL    HW218384   5.024   2.711   0.225
 5881SOL     OW18385   4.960   3.593   1.122
 5881SOL    HW118386   5.045   3.613   1.084
 5881SOL    HW218387   4.960   3.498   1.131
 5882SOL     OW18388   3.808   3.128   1.012
 5882SOL    HW118389   3.794   3.141   1.106
 5882SOL    HW218390   3.734   3.074   0.985
 5883SOL     OW18391   4.401   3.526   1.727
 5883SOL    HW118392   4.350   3.607   1.722
 5883SOL    HW218393   4.469   3.537   1.661
 5884SOL     OW18394   4.629   1.953   0.134
 5884SOL    HW118395   4.649   1.937   0.041
 5884SOL    HW218396   4.692   1.899   0.181
 5885SOL     OW18397   0.082   2.012   0.522
 5885SOL    HW118398   0.173   2.006   0.493
 5885SOL    HW218399   0.073   1.942   0.587
 5886SOL     OW18400   5.108   3.432   0.478
 5886SOL    HW118401   5.162   3.474   0.411
 5886SOL    HW218402   5.060   3.504   0.519
 5887SOL     OW18403   3.859   3.659   1.843
 5887SOL    HW118404   3.809   3.594   1.892
 5887SOL    HW218405   3.908   3.707   1.911
 5888SOL     OW18406   5.016   2.781   0.672
 5888SOL    HW118407   5.093   2.727   0.658
 5888SOL    HW218408   5.034   2.862   0.624
 5889SOL     OW18409   4.539   3.135   1.431
 5889SOL    HW118410   4.511   3.174   1.514
 5889SOL    HW218411   4.470   3.158   1.369
 5890SOL     OW18412   4.400   3.482   0.157
 5890SOL    HW118413   4.407   3.488   0.061
 5890SOL    HW218414   4.340   3.410   0.172
 5891SOL     OW18415   3.987   2.178   0.718
 5891SOL    HW118416   3.901   2.214   0.694
 5891SOL    HW218417   3.983   2.170   0.813
 5892SOL     OW18418   4.860   3.441   0.045
 5892SOL    HW118419   4.901   3.357   0.061
 5892SOL    HW218420   4.898   3.472   8.043
 5893SOL     OW18421   4.548   2.868   1.372
 5893SOL    HW118422   4.592   2.864   1.287
 5893SOL    HW218423   4.548   2.961   1.394
 5894SOL     OW18424   4.643   2.776   0.299
 5894SOL    HW118425   4.696   2.800   0.223
 5894SOL    HW218426   4.690   2.703   0.339
 5895SOL     OW18427   4.093   3.164   1.492
 5895SOL    HW118428   4.080   3.242   1.437
 5895SOL    HW218429   4.016   3.110   1.475
 5896SOL     OW18430   4.775   2.969   0.707
 5896SOL    HW118431   4.705   2.917   0.747
 5896SOL    HW218432   4.832   2.904   0.667
 5897SOL     OW18433   4.740   2.101   0.968
 5897SOL    HW118434   4.737   2.054   0.885
 5897SOL    HW218435   4.736   2.032   1.035
 5898SOL     OW18436   4.326   3.348   0.480
 5898SOL    HW118437   4.370   3.299   0.411
 5898SOL    HW218438   4.259   3.399   0.435
 5899SOL     OW18439   3.990   3.182   0.293
 5899SOL    HW118440   3.904   3.194   0.253
 5899SOL    HW218441   3.984   3.228   0.377
 5900SOL     OW18442   3.837   2.883   1.719
 5900SOL    HW118443   3.760   2.860   1.772
 5900SOL    HW218444   3.911   2.846   1.767
 5901SOL     OW18445   4.398   2.058   1.499
 5901SOL    HW118446   4.482   2.039   1.458
 5901SOL    HW218447   4.421   2.089   1.587
 5902SOL     OW18448   3.781   2.225   0.039
 5902SOL    HW118449   3.707   2.169   0.014
 5902SOL    HW218450   3.829   2.239   8.037
 5903SOL     OW18451   5.162   2.722   1.404
 5903SOL    HW118452   5.110   2.779   1.347
 5903SOL    HW218453   5.252   2.729   1.370
 5904SOL     OW18454   3.795   2.017   0.306
 5904SOL    HW118455   3.780   2.101   0.263
 5904SOL    HW218456   3.879   1.987   0.272
 5905SOL     OW18457   4.914   3.177   0.120
 5905SOL    HW118458   4.818   3.176   0.115
 5905SOL    HW218459   4.933   3.183   0.214
 5906SOL     OW18460   4.343   2.693   1.433
 5906SOL    HW118461   4.399   2.769   1.418
 5906SOL    HW218462   4.403   2.619   1.441
 5907SOL     OW18463   4.441   2.426   1.704
 5907SOL    HW118464   4.481   2.488   1.765
 5907SOL    HW218465   4.470   2.340   1.736
 5908SOL     OW18466   5.182   3.067   1.632
 5908SOL    HW118467   5.173   3.079   1.727
 5908SOL    HW218468   5.276   3.073   1.616
 5909SOL     OW18469   4.104   3.601   1.564
 5909SOL    HW118470   4.018   3.642   1.551
 5909SOL    HW218471   4.084   3.518   1.606
 5910SOL     OW18472   4.934   2.187   0.460
 5910SOL    HW118473   4.997   2.115   0.449
 5910SOL    HW218474   4.964   2.233   0.539
 5911SOL     OW18475   4.313   2.600   0.669
 5911SOL    HW118476   4.353   2.685   0.654
 5911SOL    HW218477   4.244   2.594   0.602
 5912SOL     OW18478   4.618   3.232   0.032
 5912SOL    HW118479   4.554   3.227   0.103
 5912SOL    HW218480   4.615   3.323   0.003
 5913SOL     OW18481   4.383   3.654   0.945
 5913SOL    HW118482   4.364   3.745   0.922
 5913SOL    HW218483   4.479   3.647   0.939
 5914SOL     OW18484   4.591   2.828   0.856
 5914SOL    HW118485   4.642   2.757   0.895
 5914SOL    HW218486   4.557   2.878   0.930
 5915SOL     OW18487   4.799   2.836   0.085
 5915SOL    HW118488   4.790   2.900   0.015
 5915SOL    HW218489   4.882   2.792   0.067
 5916SOL     OW18490   3.949   3.165   1.856
 5916SOL    HW118491   3.881   3.104   1.827
 5916SOL    HW218492   3.931   3.178   1.949
 5917SOL     OW18493   3.808   3.094   0.664
 5917SOL    HW118494   3.813   3.046   0.747
 5917SOL    HW218495   3.881   3.060   0.612
 5918SOL     OW18496   4.404   3.263   1.628
 5918SOL    HW118497   4.324   3.222   1.659
 5918SOL    HW218498   4.401   3.352   1.663
 5919SOL     OW18499   4.149   2.298   0.523
 5919SOL    HW118500   4.182   2.226   0.469
 5919SOL    HW218501   4.105   2.254   0.596
 5920SOL     OW18502   0.095   3.384   1.099
 5920SOL    HW118503   0.028   3.358   1.036
 5920SOL    HW218504   0.105   3.308   1.156
 5921SOL     OW18505   4.054   2.416   1.291
 5921SOL    HW118506   4.109   2.361   1.347
 5921SOL    HW218507   4.073   2.388   1.202
 5922SOL     OW18508   4.551   3.440   0.678
 5922SOL    HW118509   4.541   3.491   0.598
 5922SOL    HW218510   4.473   3.384   0.680
 5923SOL     OW18511   5.149   2.081   1.115
 5923SOL    HW118512   5.193   2.015   1.169
 5923SOL    HW218513   5.102   2.136   1.178
 5924SOL     OW18514   4.730   1.881   1.143
 5924SOL    HW118515   4.677   1.812   1.103
 5924SOL    HW218516   4.818   1.844   1.147
 5925SOL     OW18517   4.493   3.190   0.308
 5925SOL    HW118518   4.462   3.100   0.322
 5925SOL    HW218519   4.576   3.194   0.356
 5926SOL     OW18520   4.344   3.419   1.285
 5926SOL    HW118521   4.346   3.501   1.334
 5926SOL    HW218522   4.431   3.411   1.247
 5927SOL     OW18523   5.052   1.923   0.185
 5927SOL    HW118524   5.094   1.874   0.115
 5927SOL    HW218525   4.974   1.872   0.207
 5928SOL     OW18526   5.029   2.322   0.684
 5928SOL    HW118527   4.973   2.400   0.688
 5928SOL    HW218528   5.017   2.280   0.769
 5929SOL     OW18529   0.000   2.087   0.877
 5929SOL    HW118530   5.237   2.073   0.947
 5929SOL    HW218531   5.276   2.171   0.838
 5930SOL     OW18532   3.766   2.929   0.303
 5930SOL    HW118533   3.862   2.929   0.306
 5930SOL    HW218534   3.741   2.846   0.344
 5931SOL     OW18535   4.604   3.513   0.350
 5931SOL    HW118536   4.537   3.497   0.283
 5931SOL    HW218537   4.573   3.590   0.397
 5932SOL     OW18538   3.954   2.485   1.985
 5932SOL    HW118539   3.864   2.484   2.019
 5932SOL    HW218540   3.945   2.460   1.893
 5933SOL     OW18541   3.949   2.142   2.853
 5933SOL    HW118542   3.978   2.109   2.938
 5933SOL    HW218543   3.859   2.111   2.844
 5934SOL     OW18544   3.729   2.244   2.500
 5934SOL    HW118545   3.646   2.268   2.542
 5934SOL    HW218546   3.708   2.165   2.451
 5935SOL     OW18547   4.291   3.148   3.037
 5935SOL    HW118548   4.203   3.151   2.999
 5935SOL    HW218549   4.306   3.237   3.069
 5936SOL     OW18550   5.284   3.397   2.568
 5936SOL    HW118551   5.245   3.354   2.643
 5936SOL    HW218552   5.219   3.388   2.498
 5937SOL     OW18553   4.857   2.561   2.562
 5937SOL    HW118554   4.908   2.642   2.552
 5937SOL    HW218555   4.809   2.573   2.644
 5938SOL     OW18556   4.480   3.005   2.902
 5938SOL    HW118557   4.411   3.039   2.958
 5938SOL    HW218558   4.515   3.082   2.857
 5939SOL     OW18559   4.591   2.638   3.684
 5939SOL    HW118560   4.575   2.709   3.745
 5939SOL    HW218561   4.613   2.681   3.602
 5940SOL     OW18562   4.410   2.865   2.509
 5940SOL    HW118563   4.475   2.853   2.579
 5940SOL    HW218564   4.340   2.917   2.550
 5941SOL     OW18565   4.434   3.013   3.674
 5941SOL    HW118566   4.482   3.092   3.700
 5941SOL    HW218567   4.351   3.046   3.639
 5942SOL     OW18568   4.055   3.288   2.930
 5942SOL    HW118569   3.982   3.251   2.880
 5942SOL    HW218570   4.105   3.339   2.866
 5943SOL     OW18571   5.160   3.344   3.212
 5943SOL    HW118572   5.205   3.424   3.237
 5943SOL    HW218573   5.108   3.320   3.289
 5944SOL     OW18574   4.172   2.260   3.350
 5944SOL    HW118575   4.248   2.202   3.355
 5944SOL    HW218576   4.096   2.203   3.362
 5945SOL     OW18577   3.943   3.576   2.334
 5945SOL    HW118578   3.965   3.652   2.388
 5945SOL    HW218579   4.016   3.568   2.273
 5946SOL     OW18580   4.860   3.202   3.556
 5946SOL    HW118581   4.899   3.198   3.643
 5946SOL    HW218582   4.807   3.122   3.550
 5947SOL     OW18583   3.953   3.303   2.397
 5947SOL    HW118584   3.937   3.397   2.401
 5947SOL    HW218585   3.893   3.265   2.460
 5948SOL     OW18586   3.981   2.952   2.753
 5948SOL    HW118587   3.977   2.866   2.794
 5948SOL    HW218588   3.923   3.007   2.806
 5949SOL     OW18589   4.334   3.654   3.289
 5949SOL    HW118590   4.253   3.636   3.337
 5949SOL    HW218591   4.359   3.743   3.316
 5950SOL     OW18592   4.311   2.843   1.996
 5950SOL    HW118593   4.355   2.893   1.927
 5950SOL    HW218594   4.350   2.874   2.077
 5951SOL     OW18595   3.838   2.515   2.421
 5951SOL    HW118596   3.810   2.426   2.443
 5951SOL    HW218597   3.831   2.562   2.504
 5952SOL     OW18598   3.755   3.458   1.986
 5952SOL    HW118599   3.738   3.366   2.006
 5952SOL    HW218600   3.731   3.504   2.066
 5953SOL     OW18601   0.112   2.803   2.438
 5953SOL    HW118602   0.198   2.765   2.455
 5953SOL    HW218603   0.130   2.886   2.394
 5954SOL     OW18604   3.841   2.602   3.452
 5954SOL    HW118605   3.931   2.633   3.459
 5954SOL    HW218606   3.789   2.682   3.441
 5955SOL     OW18607   4.337   3.247   2.597
 5955SOL    HW118608   4.291   3.163   2.606
 5955SOL    HW218609   4.321   3.273   2.507
 5956SOL     OW18610   5.008   3.099   3.287
 5956SOL    HW118611   5.041   3.032   3.227
 5956SOL    HW218612   5.063   3.091   3.365
 5957SOL     OW18613   4.538   1.862   2.370
 5957SOL    HW118614   4.578   1.946   2.351
 5957SOL    HW218615   4.445   1.882   2.380
 5958SOL     OW18616   3.915   2.830   3.133
 5958SOL    HW118617   3.998   2.786   3.115
 5958SOL    HW218618   3.848   2.776   3.091
 5959SOL     OW18619   4.897   3.669   3.485
 5959SOL    HW118620   4.919   3.728   3.412
 5959SOL    HW218621   4.918   3.582   3.453
 5960SOL     OW18622   4.056   2.111   3.672
 5960SOL    HW118623   4.101   2.195   3.686
 5960SOL    HW218624   3.967   2.126   3.703
 5961SOL     OW18625   5.169   3.297   2.799
 5961SOL    HW118626   5.106   3.303   2.871
 5961SOL    HW218627   5.163   3.205   2.770
 5962SOL     OW18628   4.320   2.584   2.127
 5962SOL    HW118629   4.326   2.665   2.077
 5962SOL    HW218630   4.255   2.602   2.195
 5963SOL     OW18631   4.996   2.199   2.782
 5963SOL    HW118632   4.908   2.169   2.803
 5963SOL    HW218633   5.051   2.164   2.852
 5964SOL     OW18634   4.515   2.480   3.313
 5964SOL    HW118635   4.489   2.456   3.402
 5964SOL    HW218636   4.475   2.413   3.258
 5965SOL     OW18637   5.115   2.341   3.542
 5965SOL    HW118638   5.116   2.380   3.630
 5965SOL    HW218639   5.190   2.282   3.541
 5966SOL     OW18640   4.679   2.750   3.444
 5966SOL    HW118641   4.732   2.679   3.409
 5966SOL    HW218642   4.631   2.784   3.368
 5967SOL     OW18643   4.715   2.275   3.100
 5967SOL    HW118644   4.629   2.296   3.138
 5967SOL    HW218645   4.695   2.228   3.020
 5968SOL     OW18646   4.774   2.560   2.288
 5968SOL    HW118647   4.790   2.554   2.382
 5968SOL    HW218648   4.692   2.513   2.274
 5969SOL     OW18649   3.812   2.682   2.639
 5969SOL    HW118650   3.894   2.675   2.688
 5969SOL    HW218651   3.770   2.761   2.673
 5970SOL     OW18652   3.852   3.708   3.439
 5970SOL    HW118653   3.851   3.688   3.533
 5970SOL    HW218654   3.760   3.703   3.413
 5971SOL     OW18655   4.616   2.209   2.056
 5971SOL    HW118656   4.656   2.270   1.994
 5971SOL    HW218657   4.631   2.123   2.018
 5972SOL     OW18658   5.092   3.008   2.409
 5972SOL    HW118659   5.179   3.007   2.370
 5972SOL    HW218660   5.041   3.068   2.354
 5973SOL     OW18661   4.274   2.044   2.755
 5973SOL    HW118662   4.276   2.073   2.846
 5973SOL    HW218663   4.275   2.125   2.704
 5974SOL     OW18664   4.731   3.305   2.335
 5974SOL    HW118665   4.692   3.377   2.285
 5974SOL    HW218666   4.714   3.328   2.426
 5975SOL     OW18667   4.078   3.670   2.724
 5975SOL    HW118668   4.122   3.586   2.731
 5975SOL    HW218669   4.147   3.735   2.741
 5976SOL     OW18670   4.939   3.405   3.382
 5976SOL    HW118671   4.927   3.331   3.441
 5976SOL    HW218672   4.886   3.384   3.306
 5977SOL     OW18673   4.045   2.819   2.112
 5977SOL    HW118674   4.126   2.838   2.066
 5977SOL    HW218675   4.014   2.737   2.072
 5978SOL     OW18676   4.189   3.126   3.600
 5978SOL    HW118677   4.162   3.131   3.508
 5978SOL    HW218678   4.107   3.125   3.649
 5979SOL     OW18679   4.833   3.637   2.098
 5979SOL    HW118680   4.761   3.592   2.143
 5979SOL    HW218681   4.857   3.578   2.027
 5980SOL     OW18682   3.924   2.143   3.361
 5980SOL    HW118683   3.844   2.195   3.359
 5980SOL    HW218684   3.908   2.078   3.430
 5981SOL     OW18685   4.190   3.599   2.183
 5981SOL    HW118686   4.232   3.657   2.247
 5981SOL    HW218687   4.262   3.569   2.127
 5982SOL     OW18688   5.121   1.969   2.286
 5982SOL    HW118689   5.101   1.951   2.194
 5982SOL    HW218690   5.216   1.984   2.288
 5983SOL     OW18691   3.978   3.653   3.094
 5983SOL    HW118692   4.030   3.589   3.141
 5983SOL    HW218693   3.970   3.618   3.005
 5984SOL     OW18694   4.662   3.560   2.762
 5984SOL    HW118695   4.741   3.510   2.779
 5984SOL    HW218696   4.617   3.511   2.692
 5985SOL     OW18697   4.116   2.557   2.339
 5985SOL    HW118698   4.137   2.465   2.349
 5985SOL    HW218699   4.022   2.563   2.356
 5986SOL     OW18700   4.358   1.985   1.968
 5986SOL    HW118701   4.429   1.922   1.979
 5986SOL    HW218702   4.309   1.953   1.892
 5987SOL     OW18703   4.490   2.140   3.616
 5987SOL    HW118704   4.566   2.081   3.618
 5987SOL    HW218705   4.441   2.119   3.695
 5988SOL     OW18706   4.599   3.383   3.056
 5988SOL    HW118707   4.585   3.348   2.968
 5988SOL    HW218708   4.670   3.329   3.092
 5989SOL     OW18709   5.058   2.453   3.294
 5989SOL    HW118710   5.091   2.421   3.378
 5989SOL    HW218711   5.100   2.538   3.283
 5990SOL     OW18712   4.538   3.257   2.801
 5990SOL    HW118713   4.622   3.246   2.757
 5990SOL    HW218714   4.474   3.258   2.730
 5991SOL     OW18715   4.651   2.371   2.765
 5991SOL    HW118716   4.628   2.362   2.673
 5991SOL    HW218717   4.683   2.285   2.790
 5992SOL     OW18718   4.272   1.925   2.365
 5992SOL    HW118719   4.192   1.926   2.416
 5992SOL    HW218720   4.267   2.003   2.310
 5993SOL     OW18721   5.137   3.042   1.905
 5993SOL    HW118722   5.148   2.965   1.961
 5993SOL    HW218723   5.049   3.074   1.926
 5994SOL     OW18724   4.016   1.909   2.047
 5994SOL    HW118725   4.075   1.974   2.007
 5994SOL    HW218726   4.074   1.846   2.088
 5995SOL     OW18727   4.661   2.108   2.323
 5995SOL    HW118728   4.634   2.149   2.240
 5995SOL    HW218729   4.756   2.120   2.325
 5996SOL     OW18730   4.801   2.543   3.323
 5996SOL    HW118731   4.734   2.475   3.325
 5996SOL    HW218732   4.883   2.494   3.314
 5997SOL     OW18733   4.941   3.433   2.656
 5997SOL    HW118734   4.963   3.499   2.591
 5997SOL    HW218735   5.020   3.422   2.708
 5998SOL     OW18736   4.192   3.011   2.596
 5998SOL    HW118737   4.123   2.992   2.659
 5998SOL    HW218738   4.153   2.994   2.511
 5999SOL     OW18739   4.996   3.656   2.467
 5999SOL    HW118740   5.038   3.717   2.406
 5999SOL    HW218741   4.930   3.709   2.512
 6000SOL     OW18742   4.749   2.406   1.883
 6000SOL    HW118743   4.704   2.489   1.863
 6000SOL    HW218744   4.809   2.428   1.954
 6001SOL     OW18745   3.801   2.415   3.255
 6001SOL    HW118746   3.893   2.414   3.228
 6001SOL    HW218747   3.797   2.486   3.320
 6002SOL     OW18748   4.283   2.089   3.027
 6002SOL    HW118749   4.325   2.012   3.067
 6002SOL    HW218750   4.193   2.085   3.057
 6003SOL     OW18751   4.593   2.321   2.501
 6003SOL    HW118752   4.546   2.376   2.438
 6003SOL    HW218753   4.613   2.241   2.454
 6004SOL     OW18754   4.739   1.915   2.614
 6004SOL    HW118755   4.681   1.907   2.538
 6004SOL    HW218756   4.717   1.839   2.669
 6005SOL     OW18757   5.157   3.038   2.713
 6005SOL    HW118758   5.101   2.961   2.726
 6005SOL    HW218759   5.169   3.043   2.618
 6006SOL     OW18760   4.215   3.279   2.019
 6006SOL    HW118761   4.140   3.250   2.072
 6006SOL    HW218762   4.199   3.243   1.932
 6007SOL     OW18763   5.127   2.425   1.941
 6007SOL    HW118764   5.055   2.415   2.004
 6007SOL    HW218765   5.202   2.386   1.986
 6008SOL     OW18766   4.250   2.125   2.181
 6008SOL    HW118767   4.293   2.077   2.111
 6008SOL    HW218768   4.228   2.210   2.142
 6009SOL     OW18769   4.781   3.215   3.195
 6009SOL    HW118770   4.706   3.185   3.246
 6009SOL    HW218771   4.857   3.173   3.236
 6010SOL     OW18772   0.006   3.466   3.479
 6010SOL    HW118773   0.040   3.472   3.390
 6010SOL    HW218774   0.083   3.446   3.533
 6011SOL     OW18775   4.852   3.064   2.969
 6011SOL    HW118776   4.791   3.101   3.033
 6011SOL    HW218777   4.818   3.094   2.884
 6012SOL     OW18778   4.642   1.960   3.259
 6012SOL    HW118779   4.664   1.941   3.168
 6012SOL    HW218780   4.721   1.999   3.296
 6013SOL     OW18781   4.708   2.975   3.587
 6013SOL    HW118782   4.616   2.992   3.606
 6013SOL    HW218783   4.706   2.898   3.530
 6014SOL     OW18784   4.432   2.923   2.233
 6014SOL    HW118785   4.419   2.907   2.327
 6014SOL    HW218786   4.508   2.869   2.211
 6015SOL     OW18787   4.142   2.676   3.113
 6015SOL    HW118788   4.210   2.686   3.179
 6015SOL    HW218789   4.106   2.588   3.128
 6016SOL     OW18790   4.989   2.238   3.138
 6016SOL    HW118791   5.024   2.317   3.179
 6016SOL    HW218792   4.900   2.261   3.113
 6017SOL     OW18793   3.794   3.436   3.215
 6017SOL    HW118794   3.764   3.507   3.159
 6017SOL    HW218795   3.889   3.438   3.209
 6018SOL     OW18796   4.074   2.970   2.353
 6018SOL    HW118797   4.079   3.044   2.292
 6018SOL    HW218798   4.072   2.893   2.297
 6019SOL     OW18799   4.277   2.399   2.722
 6019SOL    HW118800   4.293   2.457   2.648
 6019SOL    HW218801   4.342   2.426   2.787
 6020SOL     OW18802   4.972   3.211   2.250
 6020SOL    HW118803   5.026   3.283   2.280
 6020SOL    HW218804   4.884   3.231   2.283
 6021SOL     OW18805   4.993   3.318   3.001
 6021SOL    HW118806   5.048   3.321   3.079
 6021SOL    HW218807   4.940   3.239   3.012
 6022SOL     OW18808   4.070   3.389   3.178
 6022SOL    HW118809   4.058   3.346   3.093
 6022SOL    HW218810   4.165   3.401   3.184
 6023SOL     OW18811   4.138   2.607   3.463
 6023SOL    HW118812   4.200   2.652   3.405
 6023SOL    HW218813   4.178   2.521   3.480
 6024SOL     OW18814   4.718   1.985   3.618
 6024SOL    HW118815   4.774   2.058   3.590
 6024SOL    HW218816   4.766   1.906   3.592
 6025SOL     OW18817   4.222   1.903   3.609
 6025SOL    HW118818   4.179   1.849   3.543
 6025SOL    HW218819   4.163   1.977   3.622
 6026SOL     OW18820   4.307   2.735   2.893
 6026SOL    HW118821   4.337   2.825   2.892
 6026SOL    HW218822   4.250   2.729   2.970
 6027SOL     OW18823   5.086   2.719   2.899
 6027SOL    HW118824   5.009   2.702   2.845
 6027SOL    HW218825   5.137   2.638   2.895
 6028SOL     OW18826   4.929   2.393   2.127
 6028SOL    HW118827   4.936   2.313   2.180
 6028SOL    HW218828   4.885   2.456   2.185
 6029SOL     OW18829   4.023   2.060   3.108
 6029SOL    HW118830   3.986   2.093   3.190
 6029SOL    HW218831   4.004   1.967   3.109
 6030SOL     OW18832   3.786   3.172   3.136
 6030SOL    HW118833   3.811   3.119   3.211
 6030SOL    HW218834   3.782   3.261   3.170
 6031SOL     OW18835   4.448   2.493   2.920
 6031SOL    HW118836   4.523   2.477   2.863
 6031SOL    HW218837   4.420   2.582   2.899
 6032SOL     OW18838   4.026   1.927   2.485
 6032SOL    HW118839   4.008   2.017   2.508
 6032SOL    HW218840   4.034   1.881   2.569
 6033SOL     OW18841   0.035   2.255   2.222
 6033SOL    HW118842   0.055   2.181   2.279
 6033SOL    HW218843   0.016   2.327   2.282
 6034SOL     OW18844   4.751   2.621   2.822
 6034SOL    HW118845   4.750   2.639   2.916
 6034SOL    HW218846   4.725   2.529   2.815
 6035SOL     OW18847   4.697   3.423   3.575
 6035SOL    HW118848   4.687   3.471   3.493
 6035SOL    HW218849   4.746   3.345   3.551
 6036SOL     OW18850   4.078   2.778   3.669
 6036SOL    HW118851   4.160   2.796   3.715
 6036SOL    HW218852   4.102   2.715   3.601
 6037SOL     OW18853   5.027   2.691   1.899
 6037SOL    HW118854   5.064   2.603   1.901
 6037SOL    HW218855   5.054   2.727   1.814
 6038SOL     OW18856   4.789   3.196   2.717
 6038SOL    HW118857   4.793   3.124   2.654
 6038SOL    HW218858   4.847   3.263   2.681
 6039SOL     OW18859   4.033   2.671   2.809
 6039SOL    HW118860   4.126   2.693   2.803
 6039SOL    HW218861   4.032   2.582   2.843
 6040SOL     OW18862   4.055   2.387   2.874
 6040SOL    HW118863   4.021   2.299   2.859
 6040SOL    HW218864   4.132   2.393   2.817
 6041SOL     OW18865   4.856   2.239   3.542
 6041SOL    HW118866   4.809   2.294   3.605
 6041SOL    HW218867   4.944   2.277   3.537
 6042SOL     OW18868   4.885   2.065   3.331
 6042SOL    HW118869   4.874   2.127   3.403
 6042SOL    HW218870   4.924   2.117   3.260
 6043SOL     OW18871   3.729   3.184   2.057
 6043SOL    HW118872   3.642   3.198   2.020
 6043SOL    HW218873   3.726   3.094   2.090
 6044SOL     OW18874   3.814   3.650   2.800
 6044SOL    HW118875   3.784   3.570   2.756
 6044SOL    HW218876   3.904   3.662   2.769
 6045SOL     OW18877   4.221   3.436   2.767
 6045SOL    HW118878   4.290   3.498   2.792
 6045SOL    HW218879   4.265   3.372   2.712
 6046SOL     OW18880   4.708   2.655   3.089
 6046SOL    HW118881   4.763   2.631   3.164
 6046SOL    HW218882   4.622   2.618   3.110
 6047SOL     OW18883   3.766   2.402   2.977
 6047SOL    HW118884   3.849   2.392   2.929
 6047SOL    HW218885   3.793   2.410   3.069
 6048SOL     OW18886   3.921   2.379   3.587
 6048SOL    HW118887   3.979   2.346   3.518
 6048SOL    HW218888   3.876   2.453   3.548
 6049SOL     OW18889   5.111   2.801   3.528
 6049SOL    HW118890   5.120   2.895   3.516
 6049SOL    HW218891   5.114   2.765   3.439
 6050SOL     OW18892   4.540   2.431   2.220
 6050SOL    HW118893   4.543   2.356   2.161
 6050SOL    HW218894   4.466   2.483   2.189
 6051SOL     OW18895   3.967   3.413   3.590
 6051SOL    HW118896   3.946   3.477   3.658
 6051SOL    HW218897   3.969   3.329   3.636
 6052SOL     OW18898   4.423   2.313   3.122
 6052SOL    HW118899   4.371   2.239   3.091
 6052SOL    HW218900   4.420   2.376   3.050
 6053SOL     OW18901   4.645   3.542   3.330
 6053SOL    HW118902   4.624   3.510   3.243
 6053SOL    HW218903   4.647   3.637   3.321
 6054SOL     OW18904   4.189   2.355   2.050
 6054SOL    HW118905   4.247   2.428   2.071
 6054SOL    HW218906   4.103   2.395   2.037
 6055SOL     OW18907   3.873   3.001   3.337
 6055SOL    HW118908   3.876   2.948   3.416
 6055SOL    HW218909   3.889   2.939   3.265
 6056SOL     OW18910   5.054   2.912   3.087
 6056SOL    HW118911   5.076   2.847   3.019
 6056SOL    HW218912   4.982   2.962   3.049
 6057SOL     OW18913   5.034   2.721   2.178
 6057SOL    HW118914   4.952   2.688   2.215
 6057SOL    HW218915   5.023   2.712   2.084
 6058SOL     OW18916   4.960   3.593   2.983
 6058SOL    HW118917   5.046   3.614   2.947
 6058SOL    HW218918   4.960   3.498   2.993
 6059SOL     OW18919   3.808   3.130   2.871
 6059SOL    HW118920   3.798   3.142   2.966
 6059SOL    HW218921   3.735   3.074   2.847
 6060SOL     OW18922   4.401   3.526   3.589
 6060SOL    HW118923   4.350   3.607   3.584
 6060SOL    HW218924   4.469   3.537   3.523
 6061SOL     OW18925   0.082   2.021   2.391
 6061SOL    HW118926   0.167   2.009   2.349
 6061SOL    HW218927   0.069   1.941   2.442
 6062SOL     OW18928   5.110   3.432   2.342
 6062SOL    HW118929   5.181   3.472   2.290
 6062SOL    HW218930   5.061   3.506   2.377
 6063SOL     OW18931   3.858   3.659   3.706
 6063SOL    HW118932   3.808   3.594   3.754
 6063SOL    HW218933   3.908   3.706   3.773
 6064SOL     OW18934   5.016   2.781   2.534
 6064SOL    HW118935   5.093   2.727   2.521
 6064SOL    HW218936   5.034   2.861   2.485
 6065SOL     OW18937   4.539   3.135   3.293
 6065SOL    HW118938   4.511   3.174   3.375
 6065SOL    HW218939   4.470   3.158   3.231
 6066SOL     OW18940   4.395   3.481   2.018
 6066SOL    HW118941   4.406   3.493   1.923
 6066SOL    HW218942   4.341   3.403   2.026
 6067SOL     OW18943   3.987   2.178   2.579
 6067SOL    HW118944   3.901   2.214   2.555
 6067SOL    HW218945   3.983   2.170   2.674
 6068SOL     OW18946   4.909   3.471   1.903
 6068SOL    HW118947   4.920   3.377   1.914
 6068SOL    HW218948   4.855   3.480   1.825
 6069SOL     OW18949   4.548   2.868   3.234
 6069SOL    HW118950   4.591   2.864   3.149
 6069SOL    HW218951   4.548   2.961   3.257
 6070SOL     OW18952   4.640   2.773   2.152
 6070SOL    HW118953   4.702   2.805   2.086
 6070SOL    HW218954   4.687   2.702   2.196
 6071SOL     OW18955   4.094   3.165   3.354
 6071SOL    HW118956   4.080   3.242   3.298
 6071SOL    HW218957   4.018   3.109   3.337
 6072SOL     OW18958   4.775   2.968   2.568
 6072SOL    HW118959   4.704   2.918   2.609
 6072SOL    HW218960   4.833   2.902   2.531
 6073SOL     OW18961   4.739   2.101   2.830
 6073SOL    HW118962   4.737   2.054   2.747
 6073SOL    HW218963   4.736   2.033   2.897
 6074SOL     OW18964   4.326   3.350   2.344
 6074SOL    HW118965   4.370   3.300   2.275
 6074SOL    HW218966   4.258   3.400   2.298
 6075SOL     OW18967   3.983   3.207   2.150
 6075SOL    HW118968   3.890   3.205   2.127
 6075SOL    HW218969   3.986   3.244   2.238
 6076SOL     OW18970   3.840   2.890   3.594
 6076SOL    HW118971   3.768   2.848   3.641
 6076SOL    HW218972   3.919   2.850   3.630
 6077SOL     OW18973   4.398   2.058   3.361
 6077SOL    HW118974   4.482   2.039   3.320
 6077SOL    HW218975   4.421   2.089   3.449
 6078SOL     OW18976   3.802   2.196   1.897
 6078SOL    HW118977   3.715   2.176   1.863
 6078SOL    HW218978   3.832   2.271   1.846
 6079SOL     OW18979   5.162   2.722   3.266
 6079SOL    HW118980   5.111   2.779   3.209
 6079SOL    HW218981   5.252   2.729   3.232
 6080SOL     OW18982   3.792   2.019   2.173
 6080SOL    HW118983   3.778   2.098   2.122
 6080SOL    HW218984   3.878   1.986   2.143
 6081SOL     OW18985   4.907   3.192   1.976
 6081SOL    HW118986   4.813   3.174   1.977
 6081SOL    HW218987   4.931   3.199   2.069
 6082SOL     OW18988   4.343   2.693   3.295
 6082SOL    HW118989   4.399   2.769   3.280
 6082SOL    HW218990   4.403   2.620   3.303
 6083SOL     OW18991   4.442   2.426   3.566
 6083SOL    HW118992   4.481   2.488   3.627
 6083SOL    HW218993   4.470   2.340   3.598
 6084SOL     OW18994   5.182   3.067   3.494
 6084SOL    HW118995   5.173   3.079   3.589
 6084SOL    HW218996   5.276   3.072   3.478
 6085SOL     OW18997   4.104   3.601   3.426
 6085SOL    HW118998   4.019   3.642   3.413
 6085SOL    HW218999   4.084   3.517   3.467
 6086SOL     OW19000   4.940   2.182   2.318
 6086SOL    HW119001   5.002   2.110   2.305
 6086SOL    HW219002   4.970   2.226   2.397
 6087SOL     OW19003   4.315   2.600   2.531
 6087SOL    HW119004   4.353   2.686   2.516
 6087SOL    HW219005   4.246   2.593   2.464
 6088SOL     OW19006   4.590   3.228   1.896
 6088SOL    HW119007   4.549   3.259   1.977
 6088SOL    HW219008   4.607   3.309   1.846
 6089SOL     OW19009   4.384   3.654   2.807
 6089SOL    HW119010   4.364   3.745   2.784
 6089SOL    HW219011   4.479   3.648   2.800
 6090SOL     OW19012   4.591   2.829   2.717
 6090SOL    HW119013   4.641   2.757   2.757
 6090SOL    HW219014   4.557   2.878   2.792
 6091SOL     OW19015   4.806   2.849   1.952
 6091SOL    HW119016   4.782   2.899   1.874
 6091SOL    HW219017   4.881   2.796   1.925
 6092SOL     OW19018   3.948   3.165   3.717
 6092SOL    HW119019   3.885   3.099   3.688
 6092SOL    HW219020   3.931   3.176   3.811
 6093SOL     OW19021   3.806   3.095   2.526
 6093SOL    HW119022   3.812   3.048   2.609
 6093SOL    HW219023   3.876   3.058   2.472
 6094SOL     OW19024   4.405   3.263   3.490
 6094SOL    HW119025   4.324   3.222   3.521
 6094SOL    HW219026   4.401   3.352   3.525
 6095SOL     OW19027   4.154   2.296   2.387
 6095SOL    HW119028   4.183   2.225   2.330
 6095SOL    HW219029   4.106   2.252   2.458
 6096SOL     OW19030   0.096   3.383   2.961
 6096SOL    HW119031   0.028   3.358   2.898
 6096SOL    HW219032   0.105   3.307   3.019
 6097SOL     OW19033   4.052   2.416   3.154
 6097SOL    HW119034   4.108   2.361   3.209
 6097SOL    HW219035   4.073   2.388   3.064
 6098SOL     OW19036   4.551   3.439   2.540
 6098SOL    HW119037   4.541   3.491   2.460
 6098SOL    HW219038   4.473   3.383   2.542
 6099SOL     OW19039   5.147   2.081   2.977
 6099SOL    HW119040   5.193   2.016   3.030
 6099SOL    HW219041   5.101   2.136   3.040
 6100SOL     OW19042   4.730   1.881   3.005
 6100SOL    HW119043   4.677   1.812   2.965
 6100SOL    HW219044   4.818   1.844   3.009
 6101SOL     OW19045   4.494   3.195   2.176
 6101SOL    HW119046   4.463   3.104   2.183
 6101SOL    HW219047   4.577   3.195   2.224
 6102SOL     OW19048   4.343   3.419   3.147
 6102SOL    HW119049   4.346   3.501   3.196
 6102SOL    HW219050   4.431   3.411   3.109
 6103SOL     OW19051   5.058   1.908   2.030
 6103SOL    HW119052   5.083   1.867   1.947
 6103SOL    HW219053   4.973   1.869   2.051
 6104SOL     OW19054   5.028   2.320   2.545
 6104SOL    HW119055   4.973   2.398   2.549
 6104SOL    HW219056   5.017   2.279   2.630
 6105SOL     OW19057   0.002   2.086   2.741
 6105SOL    HW119058   5.236   2.075   2.810
 6105SOL    HW219059   5.277   2.168   2.697
 6106SOL     OW19060   3.767   2.933   2.168
 6106SOL    HW119061   3.861   2.925   2.151
 6106SOL    HW219062   3.739   2.844   2.190
 6107SOL     OW19063   4.604   3.511   2.208
 6107SOL    HW119064   4.533   3.496   2.145
 6107SOL    HW219065   4.576   3.589   2.257
 6108SOL     OW19066   3.953   2.485   3.847
 6108SOL    HW119067   3.863   2.485   3.880
 6108SOL    HW219068   3.944   2.458   3.755
 6109SOL     OW19069   3.949   2.142   4.715
 6109SOL    HW119070   3.977   2.109   4.800
 6109SOL    HW219071   3.859   2.110   4.706
 6110SOL     OW19072   3.738   2.244   4.359
 6110SOL    HW119073   3.660   2.274   4.406
 6110SOL    HW219074   3.710   2.165   4.312
 6111SOL     OW19075   4.291   3.148   4.898
 6111SOL    HW119076   4.203   3.153   4.860
 6111SOL    HW219077   4.307   3.237   4.932
 6112SOL     OW19078   5.284   3.398   4.430
 6112SOL    HW119079   5.245   3.354   4.506
 6112SOL    HW219080   5.219   3.388   4.360
 6113SOL     OW19081   4.857   2.561   4.424
 6113SOL    HW119082   4.908   2.642   4.414
 6113SOL    HW219083   4.809   2.573   4.506
 6114SOL     OW19084   4.480   3.005   4.764
 6114SOL    HW119085   4.411   3.039   4.821
 6114SOL    HW219086   4.515   3.082   4.719
 6115SOL     OW19087   4.591   2.638   5.546
 6115SOL    HW119088   4.575   2.709   5.607
 6115SOL    HW219089   4.613   2.681   5.464
 6116SOL     OW19090   4.410   2.866   4.371
 6116SOL    HW119091   4.475   2.853   4.441
 6116SOL    HW219092   4.340   2.917   4.412
 6117SOL     OW19093   4.434   3.013   5.536
 6117SOL    HW119094   4.482   3.092   5.562
 6117SOL    HW219095   4.351   3.046   5.501
 6118SOL     OW19096   4.055   3.288   4.792
 6118SOL    HW119097   3.982   3.252   4.741
 6118SOL    HW219098   4.106   3.339   4.728
 6119SOL     OW19099   5.160   3.344   5.074
 6119SOL    HW119100   5.205   3.424   5.099
 6119SOL    HW219101   5.109   3.320   5.151
 6120SOL     OW19102   4.173   2.260   5.212
 6120SOL    HW119103   4.247   2.201   5.217
 6120SOL    HW219104   4.096   2.204   5.225
 6121SOL     OW19105   3.943   3.577   4.196
 6121SOL    HW119106   3.965   3.653   4.250
 6121SOL    HW219107   4.016   3.568   4.135
 6122SOL     OW19108   4.860   3.202   5.418
 6122SOL    HW119109   4.899   3.198   5.505
 6122SOL    HW219110   4.807   3.122   5.412
 6123SOL     OW19111   3.956   3.304   4.257
 6123SOL    HW119112   3.938   3.398   4.263
 6123SOL    HW219113   3.897   3.264   4.322
 6124SOL     OW19114   3.975   2.950   4.611
 6124SOL    HW119115   3.979   2.865   4.656
 6124SOL    HW219116   3.923   3.005   4.669
 6125SOL     OW19117   4.333   3.655   5.150
 6125SOL    HW119118   4.253   3.637   5.199
 6125SOL    HW219119   4.359   3.743   5.178
 6126SOL     OW19120   4.311   2.843   3.858
 6126SOL    HW119121   4.355   2.893   3.789
 6126SOL    HW219122   4.350   2.873   3.939
 6127SOL     OW19123   3.842   2.515   4.282
 6127SOL    HW119124   3.814   2.426   4.300
 6127SOL    HW219125   3.836   2.560   4.366
 6128SOL     OW19126   3.752   3.458   3.848
 6128SOL    HW119127   3.740   3.365   3.869
 6128SOL    HW219128   3.731   3.504   3.929
 6129SOL     OW19129   0.112   2.803   4.300
 6129SOL    HW119130   0.198   2.765   4.317
 6129SOL    HW219131   0.130   2.886   4.256
 6130SOL     OW19132   3.846   2.605   5.309
 6130SOL    HW119133   3.939   2.629   5.319
 6130SOL    HW219134   3.799   2.687   5.320
 6131SOL     OW19135   4.336   3.247   4.459
 6131SOL    HW119136   4.291   3.163   4.468
 6131SOL    HW219137   4.321   3.273   4.369
 6132SOL     OW19138   5.008   3.099   5.149
 6132SOL    HW119139   5.041   3.032   5.089
 6132SOL    HW219140   5.063   3.091   5.227
 6133SOL     OW19141   4.538   1.862   4.232
 6133SOL    HW119142   4.578   1.946   4.213
 6133SOL    HW219143   4.445   1.882   4.242
 6134SOL     OW19144   3.914   2.830   4.991
 6134SOL    HW119145   3.998   2.787   4.977
 6134SOL    HW219146   3.850   2.769   4.956
 6135SOL     OW19147   4.897   3.669   5.347
 6135SOL    HW119148   4.919   3.728   5.274
 6135SOL    HW219149   4.918   3.582   5.315
 6136SOL     OW19150   4.056   2.112   5.534
 6136SOL    HW119151   4.101   2.195   5.550
 6136SOL    HW219152   3.967   2.126   5.566
 6137SOL     OW19153   5.169   3.297   4.661
 6137SOL    HW119154   5.106   3.303   4.733
 6137SOL    HW219155   5.163   3.205   4.632
 6138SOL     OW19156   4.320   2.584   3.990
 6138SOL    HW119157   4.325   2.665   3.939
 6138SOL    HW219158   4.254   2.602   4.057
 6139SOL     OW19159   4.996   2.199   4.644
 6139SOL    HW119160   4.908   2.169   4.665
 6139SOL    HW219161   5.051   2.164   4.714
 6140SOL     OW19162   4.515   2.480   5.175
 6140SOL    HW119163   4.489   2.456   5.264
 6140SOL    HW219164   4.475   2.413   5.120
 6141SOL     OW19165   5.115   2.341   5.404
 6141SOL    HW119166   5.116   2.380   5.492
 6141SOL    HW219167   5.190   2.282   5.403
 6142SOL     OW19168   4.679   2.750   5.306
 6142SOL    HW119169   4.732   2.678   5.271
 6142SOL    HW219170   4.631   2.784   5.230
 6143SOL     OW19171   4.715   2.276   4.962
 6143SOL    HW119172   4.629   2.296   5.000
 6143SOL    HW219173   4.695   2.228   4.882
 6144SOL     OW19174   4.774   2.560   4.149
 6144SOL    HW119175   4.790   2.554   4.244
 6144SOL    HW219176   4.692   2.513   4.136
 6145SOL     OW19177   3.823   2.669   4.504
 6145SOL    HW119178   3.903   2.672   4.558
 6145SOL    HW219179   3.775   2.748   4.527
 6146SOL     OW19180   3.850   3.705   5.301
 6146SOL    HW119181   3.851   3.686   5.395
 6146SOL    HW219182   3.758   3.704   5.277
 6147SOL     OW19183   4.616   2.209   3.918
 6147SOL    HW119184   4.656   2.270   3.857
 6147SOL    HW219185   4.631   2.123   3.881
 6148SOL     OW19186   5.092   3.008   4.271
 6148SOL    HW119187   5.179   3.007   4.232
 6148SOL    HW219188   5.041   3.068   4.216
 6149SOL     OW19189   4.274   2.044   4.617
 6149SOL    HW119190   4.276   2.072   4.708
 6149SOL    HW219191   4.275   2.125   4.566
 6150SOL     OW19192   4.731   3.305   4.197
 6150SOL    HW119193   4.692   3.377   4.147
 6150SOL    HW219194   4.714   3.328   4.288
 6151SOL     OW19195   4.079   3.671   4.586
 6151SOL    HW119196   4.123   3.586   4.593
 6151SOL    HW219197   4.147   3.735   4.603
 6152SOL     OW19198   4.939   3.405   5.244
 6152SOL    HW119199   4.927   3.331   5.303
 6152SOL    HW219200   4.886   3.384   5.167
 6153SOL     OW19201   4.045   2.820   3.973
 6153SOL    HW119202   4.127   2.837   3.927
 6153SOL    HW219203   4.013   2.738   3.936
 6154SOL     OW19204   4.189   3.126   5.462
 6154SOL    HW119205   4.162   3.131   5.370
 6154SOL    HW219206   4.107   3.124   5.511
 6155SOL     OW19207   4.832   3.637   3.960
 6155SOL    HW119208   4.761   3.592   4.005
 6155SOL    HW219209   4.857   3.578   3.889
 6156SOL     OW19210   3.924   2.144   5.225
 6156SOL    HW119211   3.842   2.193   5.218
 6156SOL    HW219212   3.907   2.076   5.289
 6157SOL     OW19213   4.190   3.599   4.045
 6157SOL    HW119214   4.232   3.657   4.109
 6157SOL    HW219215   4.262   3.569   3.989
 6158SOL     OW19216   5.121   1.969   4.148
 6158SOL    HW119217   5.101   1.951   4.056
 6158SOL    HW219218   5.216   1.984   4.150
 6159SOL     OW19219   3.976   3.653   4.956
 6159SOL    HW119220   4.031   3.590   5.003
 6159SOL    HW219221   3.971   3.619   4.867
 6160SOL     OW19222   4.662   3.560   4.624
 6160SOL    HW119223   4.742   3.510   4.641
 6160SOL    HW219224   4.617   3.511   4.554
 6161SOL     OW19225   4.117   2.558   4.200
 6161SOL    HW119226   4.138   2.465   4.211
 6161SOL    HW219227   4.023   2.564   4.218
 6162SOL     OW19228   4.358   1.985   3.830
 6162SOL    HW119229   4.429   1.922   3.841
 6162SOL    HW219230   4.309   1.953   3.754
 6163SOL     OW19231   4.490   2.140   5.478
 6163SOL    HW119232   4.566   2.081   5.480
 6163SOL    HW219233   4.441   2.119   5.557
 6164SOL     OW19234   4.599   3.383   4.918
 6164SOL    HW119235   4.585   3.348   4.830
 6164SOL    HW219236   4.670   3.329   4.954
 6165SOL     OW19237   5.058   2.453   5.156
 6165SOL    HW119238   5.091   2.421   5.240
 6165SOL    HW219239   5.100   2.538   5.145
 6166SOL     OW19240   4.538   3.257   4.663
 6166SOL    HW119241   4.622   3.246   4.619
 6166SOL    HW219242   4.474   3.258   4.591
 6167SOL     OW19243   4.651   2.371   4.627
 6167SOL    HW119244   4.628   2.362   4.535
 6167SOL    HW219245   4.683   2.285   4.652
 6168SOL     OW19246   4.272   1.925   4.227
 6168SOL    HW119247   4.192   1.926   4.278
 6168SOL    HW219248   4.267   2.004   4.172
 6169SOL     OW19249   5.137   3.042   3.767
 6169SOL    HW119250   5.148   2.965   3.823
 6169SOL    HW219251   5.049   3.074   3.788
 6170SOL     OW19252   4.015   1.910   3.909
 6170SOL    HW119253   4.073   1.974   3.869
 6170SOL    HW219254   4.074   1.846   3.950
 6171SOL     OW19255   4.661   2.108   4.185
 6171SOL    HW119256   4.634   2.149   4.103
 6171SOL    HW219257   4.756   2.120   4.187
 6172SOL     OW19258   4.801   2.543   5.185
 6172SOL    HW119259   4.733   2.475   5.187
 6172SOL    HW219260   4.883   2.494   5.176
 6173SOL     OW19261   4.941   3.433   4.518
 6173SOL    HW119262   4.963   3.499   4.453
 6173SOL    HW219263   5.020   3.422   4.570
 6174SOL     OW19264   4.191   3.011   4.459
 6174SOL    HW119265   4.121   2.991   4.520
 6174SOL    HW219266   4.153   2.994   4.372
 6175SOL     OW19267   4.996   3.656   4.329
 6175SOL    HW119268   5.038   3.717   4.268
 6175SOL    HW219269   4.930   3.709   4.374
 6176SOL     OW19270   4.749   2.406   3.745
 6176SOL    HW119271   4.704   2.489   3.725
 6176SOL    HW219272   4.809   2.428   3.816
 6177SOL     OW19273   3.802   2.416   5.115
 6177SOL    HW119274   3.894   2.414   5.088
 6177SOL    HW219275   3.797   2.486   5.180
 6178SOL     OW19276   4.283   2.089   4.889
 6178SOL    HW119277   4.325   2.012   4.929
 6178SOL    HW219278   4.193   2.086   4.919
 6179SOL     OW19279   4.593   2.321   4.363
 6179SOL    HW119280   4.546   2.375   4.300
 6179SOL    HW219281   4.613   2.241   4.316
 6180SOL     OW19282   4.739   1.915   4.476
 6180SOL    HW119283   4.681   1.907   4.400
 6180SOL    HW219284   4.717   1.839   4.531
 6181SOL     OW19285   5.157   3.038   4.575
 6181SOL    HW119286   5.101   2.961   4.588
 6181SOL    HW219287   5.170   3.043   4.481
 6182SOL     OW19288   4.215   3.279   3.881
 6182SOL    HW119289   4.140   3.250   3.933
 6182SOL    HW219290   4.200   3.242   3.794
 6183SOL     OW19291   5.127   2.425   3.803
 6183SOL    HW119292   5.055   2.415   3.866
 6183SOL    HW219293   5.202   2.386   3.848
 6184SOL     OW19294   4.250   2.125   4.043
 6184SOL    HW119295   4.293   2.077   3.973
 6184SOL    HW219296   4.228   2.209   4.004
 6185SOL     OW19297   4.781   3.215   5.057
 6185SOL    HW119298   4.706   3.185   5.108
 6185SOL    HW219299   4.857   3.173   5.098
 6186SOL     OW19300   0.006   3.466   5.341
 6186SOL    HW119301   0.040   3.472   5.252
 6186SOL    HW219302   0.083   3.446   5.395
 6187SOL     OW19303   4.852   3.064   4.831
 6187SOL    HW119304   4.791   3.101   4.895
 6187SOL    HW219305   4.818   3.094   4.746
 6188SOL     OW19306   4.642   1.960   5.121
 6188SOL    HW119307   4.664   1.941   5.030
 6188SOL    HW219308   4.721   1.999   5.158
 6189SOL     OW19309   4.708   2.975   5.449
 6189SOL    HW119310   4.616   2.992   5.469
 6189SOL    HW219311   4.706   2.898   5.392
 6190SOL     OW19312   4.432   2.923   4.095
 6190SOL    HW119313   4.419   2.907   4.189
 6190SOL    HW219314   4.508   2.870   4.073
 6191SOL     OW19315   4.142   2.677   4.976
 6191SOL    HW119316   4.210   2.686   5.042
 6191SOL    HW219317   4.107   2.589   4.990
 6192SOL     OW19318   4.989   2.238   5.000
 6192SOL    HW119319   5.024   2.317   5.041
 6192SOL    HW219320   4.900   2.261   4.975
 6193SOL     OW19321   3.795   3.434   5.074
 6193SOL    HW119322   3.766   3.512   5.025
 6193SOL    HW219323   3.890   3.438   5.072
 6194SOL     OW19324   4.074   2.971   4.215
 6194SOL    HW119325   4.079   3.044   4.153
 6194SOL    HW219326   4.072   2.893   4.160
 6195SOL     OW19327   4.277   2.399   4.584
 6195SOL    HW119328   4.293   2.457   4.510
 6195SOL    HW219329   4.342   2.426   4.649
 6196SOL     OW19330   4.972   3.211   4.112
 6196SOL    HW119331   5.026   3.283   4.142
 6196SOL    HW219332   4.884   3.231   4.145
 6197SOL     OW19333   4.993   3.318   4.863
 6197SOL    HW119334   5.048   3.321   4.941
 6197SOL    HW219335   4.940   3.239   4.874
 6198SOL     OW19336   4.071   3.388   5.040
 6198SOL    HW119337   4.059   3.346   4.955
 6198SOL    HW219338   4.166   3.401   5.047
 6199SOL     OW19339   4.138   2.607   5.326
 6199SOL    HW119340   4.200   2.651   5.268
 6199SOL    HW219341   4.177   2.521   5.341
 6200SOL     OW19342   4.718   1.985   5.480
 6200SOL    HW119343   4.774   2.057   5.452
 6200SOL    HW219344   4.766   1.906   5.454
 6201SOL     OW19345   4.222   1.904   5.471
 6201SOL    HW119346   4.179   1.849   5.405
 6201SOL    HW219347   4.162   1.977   5.483
 6202SOL     OW19348   4.307   2.735   4.756
 6202SOL    HW119349   4.339   2.825   4.755
 6202SOL    HW219350   4.251   2.730   4.833
 6203SOL     OW19351   5.086   2.719   4.761
 6203SOL    HW119352   5.009   2.702   4.707
 6203SOL    HW219353   5.137   2.638   4.757
 6204SOL     OW19354   4.929   2.393   3.989
 6204SOL    HW119355   4.936   2.313   4.042
 6204SOL    HW219356   4.885   2.456   4.047
 6205SOL     OW19357   4.023   2.061   4.970
 6205SOL    HW119358   3.986   2.094   5.052
 6205SOL    HW219359   4.004   1.967   4.971
 6206SOL     OW19360   3.762   3.174   5.000
 6206SOL    HW119361   3.798   3.117   5.068
 6206SOL    HW219362   3.776   3.263   5.033
 6207SOL     OW19363   4.448   2.493   4.782
 6207SOL    HW119364   4.523   2.476   4.725
 6207SOL    HW219365   4.421   2.582   4.761
 6208SOL     OW19366   4.026   1.926   4.347
 6208SOL    HW119367   4.009   2.017   4.371
 6208SOL    HW219368   4.034   1.880   4.431
 6209SOL     OW19369   0.035   2.255   4.084
 6209SOL    HW119370   0.055   2.181   4.141
 6209SOL    HW219371   0.016   2.327   4.144
 6210SOL     OW19372   4.751   2.621   4.684
 6210SOL    HW119373   4.750   2.639   4.778
 6210SOL    HW219374   4.725   2.529   4.677
 6211SOL     OW19375   4.698   3.423   5.437
 6211SOL    HW119376   4.687   3.471   5.355
 6211SOL    HW219377   4.746   3.345   5.413
 6212SOL     OW19378   4.077   2.778   5.533
 6212SOL    HW119379   4.160   2.797   5.578
 6212SOL    HW219380   4.101   2.715   5.464
 6213SOL     OW19381   5.027   2.691   3.761
 6213SOL    HW119382   5.064   2.603   3.763
 6213SOL    HW219383   5.054   2.727   3.676
 6214SOL     OW19384   4.789   3.196   4.579
 6214SOL    HW119385   4.793   3.124   4.516
 6214SOL    HW219386   4.847   3.263   4.543
 6215SOL     OW19387   4.037   2.673   4.675
 6215SOL    HW119388   4.130   2.692   4.668
 6215SOL    HW219389   4.033   2.583   4.706
 6216SOL     OW19390   4.055   2.387   4.736
 6216SOL    HW119391   4.020   2.299   4.721
 6216SOL    HW219392   4.132   2.393   4.679
 6217SOL     OW19393   4.856   2.239   5.404
 6217SOL    HW119394   4.809   2.294   5.467
 6217SOL    HW219395   4.944   2.277   5.399
 6218SOL     OW19396   4.885   2.065   5.193
 6218SOL    HW119397   4.874   2.127   5.265
 6218SOL    HW219398   4.924   2.117   5.122
 6219SOL     OW19399   3.727   3.186   3.920
 6219SOL    HW119400   3.640   3.196   3.881
 6219SOL    HW219401   3.729   3.095   3.952
 6220SOL     OW19402   3.814   3.650   4.662
 6220SOL    HW119403   3.785   3.570   4.619
 6220SOL    HW219404   3.904   3.663   4.631
 6221SOL     OW19405   4.221   3.435   4.630
 6221SOL    HW119406   4.290   3.498   4.654
 6221SOL    HW219407   4.265   3.372   4.574
 6222SOL     OW19408   4.708   2.655   4.951
 6222SOL    HW119409   4.763   2.631   5.026
 6222SOL    HW219410   4.622   2.617   4.972
 6223SOL     OW19411   3.762   2.399   4.838
 6223SOL    HW119412   3.846   2.392   4.792
 6223SOL    HW219413   3.787   2.408   4.931
 6224SOL     OW19414   3.916   2.381   5.451
 6224SOL    HW119415   3.971   2.343   5.383
 6224SOL    HW219416   3.871   2.454   5.407
 6225SOL     OW19417   5.111   2.801   5.390
 6225SOL    HW119418   5.120   2.895   5.378
 6225SOL    HW219419   5.114   2.765   5.301
 6226SOL     OW19420   4.540   2.431   4.082
 6226SOL    HW119421   4.543   2.356   4.023
 6226SOL    HW219422   4.466   2.483   4.051
 6227SOL     OW19423   3.968   3.413   5.452
 6227SOL    HW119424   3.945   3.477   5.519
 6227SOL    HW219425   3.969   3.330   5.498
 6228SOL     OW19426   4.423   2.313   4.984
 6228SOL    HW119427   4.371   2.239   4.953
 6228SOL    HW219428   4.420   2.376   4.912
 6229SOL     OW19429   4.645   3.542   5.193
 6229SOL    HW119430   4.624   3.510   5.105
 6229SOL    HW219431   4.647   3.637   5.183
 6230SOL     OW19432   4.189   2.355   3.912
 6230SOL    HW119433   4.246   2.428   3.933
 6230SOL    HW219434   4.103   2.394   3.899
 6231SOL     OW19435   3.870   3.002   5.194
 6231SOL    HW119436   3.873   2.951   5.275
 6231SOL    HW219437   3.888   2.939   5.124
 6232SOL     OW19438   5.054   2.912   4.949
 6232SOL    HW119439   5.076   2.847   4.881
 6232SOL    HW219440   4.982   2.962   4.911
 6233SOL     OW19441   5.034   2.721   4.040
 6233SOL    HW119442   4.952   2.688   4.077
 6233SOL    HW219443   5.023   2.712   3.946
 6234SOL     OW19444   4.960   3.593   4.845
 6234SOL    HW119445   5.046   3.614   4.809
 6234SOL    HW219446   4.960   3.498   4.855
 6235SOL     OW19447   3.808   3.131   4.735
 6235SOL    HW119448   3.792   3.140   4.829
 6235SOL    HW219449   3.738   3.073   4.704
 6236SOL     OW19450   4.401   3.526   5.451
 6236SOL    HW119451   4.350   3.607   5.446
 6236SOL    HW219452   4.470   3.537   5.385
 6237SOL     OW19453   0.082   2.021   4.253
 6237SOL    HW119454   0.167   2.009   4.211
 6237SOL    HW219455   0.069   1.941   4.304
 6238SOL     OW19456   5.110   3.432   4.204
 6238SOL    HW119457   5.181   3.471   4.152
 6238SOL    HW219458   5.062   3.506   4.239
 6239SOL     OW19459   3.859   3.659   5.567
 6239SOL    HW119460   3.809   3.594   5.615
 6239SOL    HW219461   3.908   3.707   5.635
 6240SOL     OW19462   5.016   2.781   4.396
 6240SOL    HW119463   5.093   2.727   4.383
 6240SOL    HW219464   5.034   2.861   4.347
 6241SOL     OW19465   4.539   3.135   5.155
 6241SOL    HW119466   4.511   3.174   5.238
 6241SOL    HW219467   4.470   3.157   5.093
 6242SOL     OW19468   4.395   3.481   3.880
 6242SOL    HW119469   4.406   3.493   3.785
 6242SOL    HW219470   4.341   3.403   3.888
 6243SOL     OW19471   3.992   2.177   4.442
 6243SOL    HW119472   3.907   2.213   4.415
 6243SOL    HW219473   3.986   2.169   4.537
 6244SOL     OW19474   4.908   3.471   3.765
 6244SOL    HW119475   4.920   3.377   3.776
 6244SOL    HW219476   4.855   3.480   3.687
 6245SOL     OW19477   4.548   2.868   5.096
 6245SOL    HW119478   4.592   2.864   5.011
 6245SOL    HW219479   4.548   2.961   5.118
 6246SOL     OW19480   4.640   2.773   4.014
 6246SOL    HW119481   4.702   2.805   3.948
 6246SOL    HW219482   4.687   2.702   4.058
 6247SOL     OW19483   4.093   3.164   5.216
 6247SOL    HW119484   4.080   3.241   5.161
 6247SOL    HW219485   4.016   3.110   5.199
 6248SOL     OW19486   4.775   2.968   4.430
 6248SOL    HW119487   4.704   2.918   4.471
 6248SOL    HW219488   4.833   2.902   4.393
 6249SOL     OW19489   4.739   2.101   4.692
 6249SOL    HW119490   4.737   2.054   4.609
 6249SOL    HW219491   4.736   2.033   4.759
 6250SOL     OW19492   4.326   3.350   4.206
 6250SOL    HW119493   4.370   3.300   4.137
 6250SOL    HW219494   4.258   3.399   4.160
 6251SOL     OW19495   3.983   3.208   4.011
 6251SOL    HW119496   3.890   3.205   3.989
 6251SOL    HW219497   3.986   3.244   4.099
 6252SOL     OW19498   3.838   2.885   5.443
 6252SOL    HW119499   3.761   2.861   5.496
 6252SOL    HW219500   3.911   2.846   5.491
 6253SOL     OW19501   4.398   2.058   5.223
 6253SOL    HW119502   4.482   2.038   5.182
 6253SOL    HW219503   4.421   2.089   5.311
 6254SOL     OW19504   3.803   2.192   3.759
 6254SOL    HW119505   3.713   2.176   3.731
 6254SOL    HW219506   3.830   2.270   3.711
 6255SOL     OW19507   5.162   2.722   5.128
 6255SOL    HW119508   5.111   2.779   5.071
 6255SOL    HW219509   5.252   2.729   5.094
 6256SOL     OW19510   3.792   2.020   4.036
 6256SOL    HW119511   3.777   2.098   3.982
 6256SOL    HW219512   3.877   1.987   4.007
 6257SOL     OW19513   4.907   3.192   3.838
 6257SOL    HW119514   4.813   3.174   3.839
 6257SOL    HW219515   4.931   3.199   3.931
 6258SOL     OW19516   4.343   2.693   5.157
 6258SOL    HW119517   4.399   2.769   5.142
 6258SOL    HW219518   4.403   2.619   5.165
 6259SOL     OW19519   4.442   2.426   5.428
 6259SOL    HW119520   4.481   2.488   5.490
 6259SOL    HW219521   4.470   2.340   5.460
 6260SOL     OW19522   5.182   3.067   5.356
 6260SOL    HW119523   5.173   3.079   5.451
 6260SOL    HW219524   5.276   3.072   5.340
 6261SOL     OW19525   4.104   3.601   5.288
 6261SOL    HW119526   4.018   3.642   5.275
 6261SOL    HW219527   4.085   3.518   5.330
 6262SOL     OW19528   4.940   2.182   4.180
 6262SOL    HW119529   5.002   2.110   4.167
 6262SOL    HW219530   4.970   2.226   4.259
 6263SOL     OW19531   4.315   2.600   4.393
 6263SOL    HW119532   4.353   2.686   4.377
 6263SOL    HW219533   4.246   2.592   4.327
 6264SOL     OW19534   4.590   3.229   3.758
 6264SOL    HW119535   4.549   3.259   3.839
 6264SOL    HW219536   4.607   3.308   3.708
 6265SOL     OW19537   4.383   3.654   4.669
 6265SOL    HW119538   4.364   3.745   4.646
 6265SOL    HW219539   4.479   3.647   4.663
 6266SOL     OW19540   4.591   2.828   4.579
 6266SOL    HW119541   4.641   2.757   4.619
 6266SOL    HW219542   4.557   2.878   4.654
 6267SOL     OW19543   4.806   2.849   3.814
 6267SOL    HW119544   4.782   2.899   3.736
 6267SOL    HW219545   4.881   2.796   3.787
 6268SOL     OW19546   3.948   3.165   5.580
 6268SOL    HW119547   3.881   3.104   5.551
 6268SOL    HW219548   3.931   3.178   5.673
 6269SOL     OW19549   3.813   3.099   4.389
 6269SOL    HW119550   3.822   3.051   4.472
 6269SOL    HW219551   3.876   3.058   4.330
 6270SOL     OW19552   4.404   3.263   5.351
 6270SOL    HW119553   4.324   3.221   5.383
 6270SOL    HW219554   4.401   3.352   5.387
 6271SOL     OW19555   4.154   2.296   4.249
 6271SOL    HW119556   4.183   2.225   4.192
 6271SOL    HW219557   4.108   2.252   4.320
 6272SOL     OW19558   0.095   3.383   4.823
 6272SOL    HW119559   0.028   3.358   4.760
 6272SOL    HW219560   0.105   3.307   4.880
 6273SOL     OW19561   4.054   2.417   5.015
 6273SOL    HW119562   4.109   2.362   5.071
 6273SOL    HW219563   4.074   2.388   4.926
 6274SOL     OW19564   4.551   3.440   4.402
 6274SOL    HW119565   4.541   3.491   4.322
 6274SOL    HW219566   4.473   3.384   4.404
 6275SOL     OW19567   5.148   2.081   4.839
 6275SOL    HW119568   5.193   2.016   4.892
 6275SOL    HW219569   5.101   2.136   4.902
 6276SOL     OW19570   4.730   1.881   4.867
 6276SOL    HW119571   4.677   1.813   4.827
 6276SOL    HW219572   4.818   1.844   4.871
 6277SOL     OW19573   4.494   3.195   4.039
 6277SOL    HW119574   4.463   3.104   4.045
 6277SOL    HW219575   4.577   3.195   4.086
 6278SOL     OW19576   4.344   3.419   5.009
 6278SOL    HW119577   4.346   3.501   5.058
 6278SOL    HW219578   4.431   3.411   4.971
 6279SOL     OW19579   5.058   1.908   3.892
 6279SOL    HW119580   5.083   1.867   3.809
 6279SOL    HW219581   4.973   1.870   3.913
 6280SOL     OW19582   5.028   2.320   4.407
 6280SOL    HW119583   4.973   2.398   4.411
 6280SOL    HW219584   5.017   2.279   4.492
 6281SOL     OW19585   0.002   2.086   4.603
 6281SOL    HW119586   5.236   2.076   4.672
 6281SOL    HW219587   5.277   2.167   4.559
 6282SOL     OW19588   3.777   2.938   4.025
 6282SOL    HW119589   3.870   2.922   4.010
 6282SOL    HW219590   3.742   2.851   4.048
 6283SOL     OW19591   4.604   3.511   4.070
 6283SOL    HW119592   4.533   3.496   4.007
 6283SOL    HW219593   4.576   3.589   4.119
 6284SOL     OW19594   3.954   2.485   5.709
 6284SOL    HW119595   3.864   2.484   5.743
 6284SOL    HW219596   3.945   2.460   5.617
 6285SOL     OW19597   3.949   2.143   6.577
 6285SOL    HW119598   3.977   2.109   6.662
 6285SOL    HW219599   3.859   2.111   6.568
 6286SOL     OW19600   3.729   2.244   6.224
 6286SOL    HW119601   3.646   2.270   6.265
 6286SOL    HW219602   3.707   2.165   6.175
 6287SOL     OW19603   4.291   3.148   6.760
 6287SOL    HW119604   4.203   3.152   6.722
 6287SOL    HW219605   4.306   3.237   6.794
 6288SOL     OW19606   5.284   3.398   6.292
 6288SOL    HW119607   5.245   3.354   6.368
 6288SOL    HW219608   5.219   3.388   6.222
 6289SOL     OW19609   4.858   2.561   6.286
 6289SOL    HW119610   4.908   2.642   6.276
 6289SOL    HW219611   4.809   2.573   6.368
 6290SOL     OW19612   4.480   3.005   6.626
 6290SOL    HW119613   4.411   3.039   6.682
 6290SOL    HW219614   4.515   3.082   6.581
 6291SOL     OW19615   4.591   2.639   7.407
 6291SOL    HW119616   4.570   2.714   7.463
 6291SOL    HW219617   4.615   2.678   7.323
 6292SOL     OW19618   4.410   2.865   6.233
 6292SOL    HW119619   4.475   2.853   6.303
 6292SOL    HW219620   4.340   2.917   6.274
 6293SOL     OW19621   4.434   3.014   7.398
 6293SOL    HW119622   4.481   3.092   7.424
 6293SOL    HW219623   4.351   3.046   7.362
 6294SOL     OW19624   4.055   3.288   6.654
 6294SOL    HW119625   3.982   3.251   6.604
 6294SOL    HW219626   4.105   3.339   6.590
 6295SOL     OW19627   5.161   3.343   6.936
 6295SOL    HW119628   5.204   3.424   6.962
 6295SOL    HW219629   5.107   3.319   7.012
 6296SOL     OW19630   4.173   2.261   7.075
 6296SOL    HW119631   4.248   2.201   7.079
 6296SOL    HW219632   4.096   2.204   7.087
 6297SOL     OW19633   3.943   3.576   6.058
 6297SOL    HW119634   3.965   3.652   6.112
 6297SOL    HW219635   4.016   3.568   5.997
 6298SOL     OW19636   4.859   3.201   7.278
 6298SOL    HW119637   4.899   3.199   7.365
 6298SOL    HW219638   4.807   3.121   7.273
 6299SOL     OW19639   3.954   3.303   6.121
 6299SOL    HW119640   3.937   3.397   6.125
 6299SOL    HW219641   3.893   3.265   6.184
 6300SOL     OW19642   3.981   2.952   6.477
 6300SOL    HW119643   3.977   2.866   6.518
 6300SOL    HW219644   3.923   3.006   6.530
 6301SOL     OW19645   4.334   3.655   7.013
 6301SOL    HW119646   4.253   3.636   7.061
 6301SOL    HW219647   4.359   3.743   7.040
 6302SOL     OW19648   4.311   2.843   5.720
 6302SOL    HW119649   4.355   2.893   5.651
 6302SOL    HW219650   4.350   2.873   5.801
 6303SOL     OW19651   3.839   2.514   6.145
 6303SOL    HW119652   3.809   2.426   6.166
 6303SOL    HW219653   3.831   2.562   6.228
 6304SOL     OW19654   3.755   3.458   5.710
 6304SOL    HW119655   3.738   3.366   5.730
 6304SOL    HW219656   3.732   3.504   5.790
 6305SOL     OW19657   0.112   2.803   6.163
 6305SOL    HW119658   0.198   2.765   6.179
 6305SOL    HW219659   0.130   2.886   6.117
 6306SOL     OW19660   3.846   2.604   7.173
 6306SOL    HW119661   3.938   2.630   7.181
 6306SOL    HW219662   3.798   2.686   7.179
 6307SOL     OW19663   4.337   3.247   6.321
 6307SOL    HW119664   4.291   3.163   6.331
 6307SOL    HW219665   4.321   3.273   6.231
 6308SOL     OW19666   5.008   3.099   7.010
 6308SOL    HW119667   5.041   3.032   6.951
 6308SOL    HW219668   5.062   3.091   7.089
 6309SOL     OW19669   4.538   1.862   6.094
 6309SOL    HW119670   4.578   1.946   6.075
 6309SOL    HW219671   4.445   1.881   6.104
 6310SOL     OW19672   3.915   2.829   6.857
 6310SOL    HW119673   3.999   2.786   6.841
 6310SOL    HW219674   3.851   2.773   6.811
 6311SOL     OW19675   4.898   3.670   7.208
 6311SOL    HW119676   4.919   3.727   7.135
 6311SOL    HW219677   4.919   3.582   7.177
 6312SOL     OW19678   4.056   2.111   7.398
 6312SOL    HW119679   4.101   2.195   7.410
 6312SOL    HW219680   3.967   2.127   7.429
 6313SOL     OW19681   5.169   3.297   6.523
 6313SOL    HW119682   5.106   3.303   6.595
 6313SOL    HW219683   5.163   3.205   6.494
 6314SOL     OW19684   4.320   2.584   5.852
 6314SOL    HW119685   4.325   2.665   5.801
 6314SOL    HW219686   4.254   2.602   5.919
 6315SOL     OW19687   4.996   2.199   6.506
 6315SOL    HW119688   4.908   2.169   6.527
 6315SOL    HW219689   5.051   2.164   6.576
 6316SOL     OW19690   4.515   2.480   7.038
 6316SOL    HW119691   4.489   2.456   7.127
 6316SOL    HW219692   4.475   2.413   6.982
 6317SOL     OW19693   5.115   2.342   7.266
 6317SOL    HW119694   5.116   2.380   7.354
 6317SOL    HW219695   5.190   2.283   7.264
 6318SOL     OW19696   4.679   2.750   7.168
 6318SOL    HW119697   4.732   2.679   7.132
 6318SOL    HW219698   4.631   2.784   7.092
 6319SOL     OW19699   4.715   2.275   6.825
 6319SOL    HW119700   4.629   2.296   6.862
 6319SOL    HW219701   4.695   2.228   6.744
 6320SOL     OW19702   4.774   2.560   6.011
 6320SOL    HW119703   4.790   2.554   6.106
 6320SOL    HW219704   4.692   2.513   5.998
 6321SOL     OW19705   3.813   2.683   6.362
 6321SOL    HW119706   3.894   2.675   6.413
 6321SOL    HW219707   3.770   2.761   6.397
 6322SOL     OW19708   3.851   3.709   7.164
 6322SOL    HW119709   3.851   3.688   7.257
 6322SOL    HW219710   3.759   3.701   7.137
 6323SOL     OW19711   4.616   2.209   5.781
 6323SOL    HW119712   4.656   2.270   5.718
 6323SOL    HW219713   4.631   2.123   5.742
 6324SOL     OW19714   5.092   3.008   6.133
 6324SOL    HW119715   5.179   3.007   6.094
 6324SOL    HW219716   5.041   3.068   6.078
 6325SOL     OW19717   4.274   2.044   6.479
 6325SOL    HW119718   4.276   2.073   6.570
 6325SOL    HW219719   4.275   2.125   6.428
 6326SOL     OW19720   4.731   3.305   6.059
 6326SOL    HW119721   4.692   3.378   6.009
 6326SOL    HW219722   4.714   3.328   6.150
 6327SOL     OW19723   4.078   3.670   6.447
 6327SOL    HW119724   4.122   3.586   6.455
 6327SOL    HW219725   4.147   3.735   6.465
 6328SOL     OW19726   4.940   3.405   7.105
 6328SOL    HW119727   4.928   3.331   7.165
 6328SOL    HW219728   4.884   3.384   7.030
 6329SOL     OW19729   4.044   2.819   5.836
 6329SOL    HW119730   4.126   2.838   5.790
 6329SOL    HW219731   4.013   2.737   5.797
 6330SOL     OW19732   4.189   3.125   7.323
 6330SOL    HW119733   4.162   3.130   7.232
 6330SOL    HW219734   4.107   3.124   7.373
 6331SOL     OW19735   4.833   3.637   5.822
 6331SOL    HW119736   4.761   3.592   5.867
 6331SOL    HW219737   4.857   3.578   5.751
 6332SOL     OW19738   3.925   2.144   7.087
 6332SOL    HW119739   3.842   2.192   7.080
 6332SOL    HW219740   3.906   2.074   7.150
 6333SOL     OW19741   4.190   3.599   5.907
 6333SOL    HW119742   4.232   3.657   5.971
 6333SOL    HW219743   4.262   3.569   5.851
 6334SOL     OW19744   5.121   1.969   6.010
 6334SOL    HW119745   5.101   1.951   5.918
 6334SOL    HW219746   5.216   1.984   6.012
 6335SOL     OW19747   3.978   3.653   6.818
 6335SOL    HW119748   4.031   3.589   6.865
 6335SOL    HW219749   3.970   3.618   6.730
 6336SOL     OW19750   4.662   3.560   6.485
 6336SOL    HW119751   4.741   3.509   6.503
 6336SOL    HW219752   4.617   3.511   6.416
 6337SOL     OW19753   4.116   2.557   6.063
 6337SOL    HW119754   4.138   2.465   6.074
 6337SOL    HW219755   4.022   2.563   6.080
 6338SOL     OW19756   4.358   1.985   5.691
 6338SOL    HW119757   4.429   1.921   5.703
 6338SOL    HW219758   4.309   1.953   5.615
 6339SOL     OW19759   4.490   2.139   7.340
 6339SOL    HW119760   4.566   2.081   7.342
 6339SOL    HW219761   4.445   2.123   7.423
 6340SOL     OW19762   4.600   3.383   6.780
 6340SOL    HW119763   4.585   3.348   6.692
 6340SOL    HW219764   4.670   3.329   6.816
 6341SOL     OW19765   5.058   2.453   7.018
 6341SOL    HW119766   5.091   2.421   7.102
 6341SOL    HW219767   5.100   2.539   7.007
 6342SOL     OW19768   4.538   3.257   6.525
 6342SOL    HW119769   4.622   3.246   6.481
 6342SOL    HW219770   4.474   3.258   6.454
 6343SOL     OW19771   4.651   2.371   6.489
 6343SOL    HW119772   4.628   2.362   6.397
 6343SOL    HW219773   4.683   2.285   6.514
 6344SOL     OW19774   4.273   1.925   6.089
 6344SOL    HW119775   4.192   1.926   6.140
 6344SOL    HW219776   4.267   2.003   6.034
 6345SOL     OW19777   5.137   3.042   5.629
 6345SOL    HW119778   5.148   2.965   5.685
 6345SOL    HW219779   5.049   3.074   5.650
 6346SOL     OW19780   4.016   1.910   5.770
 6346SOL    HW119781   4.075   1.974   5.731
 6346SOL    HW219782   4.074   1.846   5.812
 6347SOL     OW19783   4.661   2.108   6.047
 6347SOL    HW119784   4.634   2.149   5.965
 6347SOL    HW219785   4.756   2.120   6.049
 6348SOL     OW19786   4.801   2.543   7.047
 6348SOL    HW119787   4.733   2.475   7.049
 6348SOL    HW219788   4.883   2.494   7.037
 6349SOL     OW19789   4.941   3.433   6.380
 6349SOL    HW119790   4.963   3.499   6.315
 6349SOL    HW219791   5.020   3.422   6.432
 6350SOL     OW19792   4.192   3.011   6.320
 6350SOL    HW119793   4.123   2.992   6.383
 6350SOL    HW219794   4.153   2.994   6.235
 6351SOL     OW19795   4.996   3.656   6.191
 6351SOL    HW119796   5.038   3.717   6.130
 6351SOL    HW219797   4.930   3.709   6.236
 6352SOL     OW19798   4.749   2.406   5.607
 6352SOL    HW119799   4.704   2.489   5.587
 6352SOL    HW219800   4.809   2.428   5.678
 6353SOL     OW19801   3.803   2.417   6.978
 6353SOL    HW119802   3.895   2.416   6.951
 6353SOL    HW219803   3.798   2.487   7.043
 6354SOL     OW19804   4.284   2.089   6.751
 6354SOL    HW119805   4.325   2.012   6.791
 6354SOL    HW219806   4.193   2.086   6.781
 6355SOL     OW19807   4.593   2.321   6.225
 6355SOL    HW119808   4.546   2.375   6.162
 6355SOL    HW219809   4.613   2.241   6.178
 6356SOL     OW19810   4.739   1.915   6.338
 6356SOL    HW119811   4.681   1.908   6.262
 6356SOL    HW219812   4.717   1.839   6.392
 6357SOL     OW19813   5.158   3.038   6.437
 6357SOL    HW119814   5.101   2.961   6.450
 6357SOL    HW219815   5.169   3.043   6.342
 6358SOL     OW19816   4.215   3.279   5.743
 6358SOL    HW119817   4.140   3.250   5.796
 6358SOL    HW219818   4.199   3.242   5.657
 6359SOL     OW19819   5.127   2.425   5.665
 6359SOL    HW119820   5.055   2.415   5.728
 6359SOL    HW219821   5.202   2.386   5.710
 6360SOL     OW19822   4.250   2.125   5.905
 6360SOL    HW119823   4.293   2.077   5.834
 6360SOL    HW219824   4.228   2.210   5.866
 6361SOL     OW19825   4.781   3.215   6.919
 6361SOL    HW119826   4.706   3.185   6.970
 6361SOL    HW219827   4.857   3.173   6.960
 6362SOL     OW19828   0.006   3.467   7.203
 6362SOL    HW119829   0.040   3.472   7.113
 6362SOL    HW219830   0.083   3.447   7.256
 6363SOL     OW19831   4.852   3.064   6.693
 6363SOL    HW119832   4.791   3.101   6.757
 6363SOL    HW219833   4.818   3.094   6.608
 6364SOL     OW19834   4.642   1.960   6.983
 6364SOL    HW119835   4.664   1.941   6.892
 6364SOL    HW219836   4.721   1.999   7.020
 6365SOL     OW19837   4.709   2.974   7.313
 6365SOL    HW119838   4.617   2.993   7.330
 6365SOL    HW219839   4.707   2.898   7.255
 6366SOL     OW19840   4.432   2.923   5.957
 6366SOL    HW119841   4.418   2.907   6.051
 6366SOL    HW219842   4.508   2.869   5.935
 6367SOL     OW19843   4.142   2.676   6.837
 6367SOL    HW119844   4.211   2.686   6.903
 6367SOL    HW219845   4.107   2.588   6.851
 6368SOL     OW19846   4.989   2.238   6.862
 6368SOL    HW119847   5.024   2.317   6.903
 6368SOL    HW219848   4.900   2.261   6.837
 6369SOL     OW19849   3.794   3.435   6.938
 6369SOL    HW119850   3.764   3.508   6.884
 6369SOL    HW219851   3.889   3.439   6.933
 6370SOL     OW19852   4.074   2.970   6.077
 6370SOL    HW119853   4.079   3.044   6.016
 6370SOL    HW219854   4.072   2.893   6.021
 6371SOL     OW19855   4.277   2.399   6.446
 6371SOL    HW119856   4.293   2.457   6.372
 6371SOL    HW219857   4.342   2.426   6.512
 6372SOL     OW19858   4.972   3.211   5.974
 6372SOL    HW119859   5.026   3.283   6.004
 6372SOL    HW219860   4.884   3.231   6.007
 6373SOL     OW19861   4.993   3.318   6.725
 6373SOL    HW119862   5.049   3.320   6.804
 6373SOL    HW219863   4.940   3.240   6.736
 6374SOL     OW19864   4.071   3.389   6.902
 6374SOL    HW119865   4.058   3.346   6.817
 6374SOL    HW219866   4.166   3.401   6.909
 6375SOL     OW19867   4.138   2.607   7.188
 6375SOL    HW119868   4.199   2.652   7.130
 6375SOL    HW219869   4.176   2.521   7.202
 6376SOL     OW19870   4.718   1.986   7.341
 6376SOL    HW119871   4.775   2.057   7.313
 6376SOL    HW219872   4.766   1.906   7.317
 6377SOL     OW19873   4.222   1.903   7.333
 6377SOL    HW119874   4.180   1.849   7.267
 6377SOL    HW219875   4.163   1.977   7.345
 6378SOL     OW19876   4.307   2.734   6.617
 6378SOL    HW119877   4.337   2.826   6.616
 6378SOL    HW219878   4.250   2.729   6.694
 6379SOL     OW19879   5.086   2.719   6.623
 6379SOL    HW119880   5.009   2.702   6.569
 6379SOL    HW219881   5.137   2.638   6.619
 6380SOL     OW19882   4.929   2.393   5.851
 6380SOL    HW119883   4.936   2.313   5.904
 6380SOL    HW219884   4.885   2.456   5.909
 6381SOL     OW19885   4.023   2.061   6.832
 6381SOL    HW119886   3.986   2.094   6.914
 6381SOL    HW219887   4.004   1.967   6.833
 6382SOL     OW19888   3.771   3.173   6.862
 6382SOL    HW119889   3.803   3.118   6.934
 6382SOL    HW219890   3.777   3.262   6.895
 6383SOL     OW19891   4.448   2.493   6.644
 6383SOL    HW119892   4.523   2.477   6.586
 6383SOL    HW219893   4.420   2.582   6.623
 6384SOL     OW19894   4.027   1.927   6.209
 6384SOL    HW119895   4.007   2.018   6.232
 6384SOL    HW219896   4.033   1.881   6.293
 6385SOL     OW19897   0.035   2.255   5.946
 6385SOL    HW119898   0.055   2.181   6.003
 6385SOL    HW219899   0.016   2.327   6.006
 6386SOL     OW19900   4.751   2.621   6.546
 6386SOL    HW119901   4.750   2.639   6.640
 6386SOL    HW219902   4.725   2.529   6.539
 6387SOL     OW19903   4.699   3.424   7.299
 6387SOL    HW119904   4.687   3.471   7.217
 6387SOL    HW219905   4.747   3.344   7.275
 6388SOL     OW19906   4.077   2.776   7.397
 6388SOL    HW119907   4.161   2.797   7.438
 6388SOL    HW219908   4.100   2.714   7.327
 6389SOL     OW19909   5.027   2.691   5.623
 6389SOL    HW119910   5.064   2.603   5.625
 6389SOL    HW219911   5.054   2.727   5.538
 6390SOL     OW19912   4.789   3.196   6.441
 6390SOL    HW119913   4.793   3.124   6.378
 6390SOL    HW219914   4.847   3.263   6.405
 6391SOL     OW19915   4.033   2.671   6.534
 6391SOL    HW119916   4.126   2.693   6.527
 6391SOL    HW219917   4.031   2.582   6.567
 6392SOL     OW19918   4.056   2.387   6.598
 6392SOL    HW119919   4.020   2.300   6.583
 6392SOL    HW219920   4.132   2.393   6.541
 6393SOL     OW19921   4.857   2.238   7.265
 6393SOL    HW119922   4.810   2.294   7.328
 6393SOL    HW219923   4.944   2.278   7.260
 6394SOL     OW19924   4.885   2.065   7.054
 6394SOL    HW119925   4.874   2.126   7.126
 6394SOL    HW219926   4.924   2.117   6.984
 6395SOL     OW19927   3.729   3.183   5.781
 6395SOL    HW119928   3.642   3.198   5.743
 6395SOL    HW219929   3.726   3.094   5.815
 6396SOL     OW19930   3.814   3.650   6.523
 6396SOL    HW119931   3.784   3.570   6.480
 6396SOL    HW219932   3.904   3.662   6.493
 6397SOL     OW19933   4.221   3.435   6.492
 6397SOL    HW119934   4.290   3.498   6.516
 6397SOL    HW219935   4.265   3.372   6.436
 6398SOL     OW19936   4.708   2.655   6.813
 6398SOL    HW119937   4.763   2.631   6.888
 6398SOL    HW219938   4.622   2.617   6.833
 6399SOL     OW19939   3.759   2.405   6.703
 6399SOL    HW119940   3.840   2.391   6.653
 6399SOL    HW219941   3.788   2.410   6.794
 6400SOL     OW19942   3.917   2.381   7.313
 6400SOL    HW119943   3.971   2.342   7.245
 6400SOL    HW219944   3.872   2.454   7.270
 6401SOL     OW19945   5.110   2.800   7.253
 6401SOL    HW119946   5.119   2.895   7.241
 6401SOL    HW219947   5.114   2.765   7.164
 6402SOL     OW19948   4.540   2.431   5.944
 6402SOL    HW119949   4.543   2.356   5.885
 6402SOL    HW219950   4.466   2.483   5.913
 6403SOL     OW19951   3.967   3.413   7.314
 6403SOL    HW119952   3.945   3.478   7.382
 6403SOL    HW219953   3.969   3.330   7.360
 6404SOL     OW19954   4.423   2.313   6.846
 6404SOL    HW119955   4.371   2.239   6.816
 6404SOL    HW219956   4.420   2.376   6.774
 6405SOL     OW19957   4.646   3.542   7.054
 6405SOL    HW119958   4.624   3.510   6.966
 6405SOL    HW219959   4.647   3.637   7.046
 6406SOL     OW19960   4.189   2.355   5.774
 6406SOL    HW119961   4.247   2.428   5.795
 6406SOL    HW219962   4.103   2.395   5.761
 6407SOL     OW19963   3.870   3.002   7.058
 6407SOL    HW119964   3.873   2.950   7.138
 6407SOL    HW219965   3.887   2.939   6.988
 6408SOL     OW19966   5.054   2.912   6.810
 6408SOL    HW119967   5.076   2.847   6.743
 6408SOL    HW219968   4.982   2.962   6.773
 6409SOL     OW19969   5.034   2.721   5.902
 6409SOL    HW119970   4.952   2.688   5.939
 6409SOL    HW219971   5.023   2.712   5.808
 6410SOL     OW19972   4.960   3.593   6.707
 6410SOL    HW119973   5.046   3.613   6.670
 6410SOL    HW219974   4.960   3.498   6.718
 6411SOL     OW19975   3.808   3.129   6.598
 6411SOL    HW119976   3.794   3.141   6.692
 6411SOL    HW219977   3.735   3.074   6.570
 6412SOL     OW19978   4.400   3.525   7.312
 6412SOL    HW119979   4.351   3.607   7.309
 6412SOL    HW219980   4.469   3.537   7.247
 6413SOL     OW19981   0.082   2.021   6.115
 6413SOL    HW119982   0.167   2.009   6.072
 6413SOL    HW219983   0.069   1.941   6.166
 6414SOL     OW19984   5.111   3.432   6.066
 6414SOL    HW119985   5.181   3.472   6.014
 6414SOL    HW219986   5.061   3.506   6.101
 6415SOL     OW19987   3.859   3.658   7.430
 6415SOL    HW119988   3.809   3.594   7.479
 6415SOL    HW219989   3.908   3.707   7.497
 6416SOL     OW19990   5.016   2.781   6.258
 6416SOL    HW119991   5.093   2.727   6.245
 6416SOL    HW219992   5.034   2.861   6.209
 6417SOL     OW19993   4.539   3.135   7.017
 6417SOL    HW119994   4.511   3.174   7.099
 6417SOL    HW219995   4.470   3.157   6.955
 6418SOL     OW19996   4.395   3.481   5.742
 6418SOL    HW119997   4.406   3.493   5.647
 6418SOL    HW219998   4.341   3.403   5.750
 6419SOL     OW19999   3.986   2.178   6.303
 6419SOL    HW120000   3.901   2.214   6.279
 6419SOL    HW220001   3.983   2.170   6.398
 6420SOL     OW20002   4.909   3.471   5.627
 6420SOL    HW120003   4.920   3.377   5.638
 6420SOL    HW220004   4.855   3.480   5.549
 6421SOL     OW20005   4.548   2.868   6.958
 6421SOL    HW120006   4.591   2.864   6.873
 6421SOL    HW220007   4.548   2.961   6.980
 6422SOL     OW20008   4.640   2.773   5.876
 6422SOL    HW120009   4.702   2.805   5.810
 6422SOL    HW220010   4.687   2.702   5.920
 6423SOL     OW20011   4.093   3.164   7.078
 6423SOL    HW120012   4.080   3.242   7.023
 6423SOL    HW220013   4.016   3.110   7.061
 6424SOL     OW20014   4.775   2.968   6.292
 6424SOL    HW120015   4.704   2.918   6.333
 6424SOL    HW220016   4.833   2.902   6.255
 6425SOL     OW20017   4.740   2.101   6.554
 6425SOL    HW120018   4.737   2.054   6.471
 6425SOL    HW220019   4.736   2.033   6.621
 6426SOL     OW20020   4.326   3.350   6.068
 6426SOL    HW120021   4.370   3.300   5.999
 6426SOL    HW220022   4.258   3.399   6.022
 6427SOL     OW20023   3.983   3.207   5.874
 6427SOL    HW120024   3.890   3.205   5.851
 6427SOL    HW220025   3.986   3.244   5.962
 6428SOL     OW20026   3.837   2.883   7.306
 6428SOL    HW120027   3.760   2.860   7.358
 6428SOL    HW220028   3.911   2.845   7.354
 6429SOL     OW20029   4.398   2.058   7.085
 6429SOL    HW120030   4.482   2.039   7.044
 6429SOL    HW220031   4.421   2.088   7.173
 6430SOL     OW20032   3.803   2.196   5.621
 6430SOL    HW120033   3.715   2.176   5.588
 6430SOL    HW220034   3.832   2.271   5.570
 6431SOL     OW20035   5.162   2.722   6.990
 6431SOL    HW120036   5.110   2.779   6.933
 6431SOL    HW220037   5.252   2.729   6.956
 6432SOL     OW20038   3.793   2.018   5.897
 6432SOL    HW120039   3.778   2.098   5.847
 6432SOL    HW220040   3.878   1.986   5.867
 6433SOL     OW20041   4.907   3.192   5.700
 6433SOL    HW120042   4.813   3.173   5.702
 6433SOL    HW220043   4.931   3.199   5.793
 6434SOL     OW20044   4.343   2.693   7.019
 6434SOL    HW120045   4.399   2.769   7.004
 6434SOL    HW220046   4.403   2.619   7.027
 6435SOL     OW20047   4.442   2.425   7.291
 6435SOL    HW120048   4.481   2.487   7.353
 6435SOL    HW220049   4.470   2.339   7.322
 6436SOL     OW20050   5.182   3.066   7.217
 6436SOL    HW120051   5.172   3.078   7.312
 6436SOL    HW220052   5.276   3.073   7.202
 6437SOL     OW20053   4.104   3.602   7.150
 6437SOL    HW120054   4.018   3.642   7.137
 6437SOL    HW220055   4.084   3.518   7.192
 6438SOL     OW20056   4.940   2.182   6.042
 6438SOL    HW120057   5.002   2.110   6.029
 6438SOL    HW220058   4.970   2.226   6.121
 6439SOL     OW20059   4.315   2.600   6.255
 6439SOL    HW120060   4.353   2.686   6.239
 6439SOL    HW220061   4.246   2.592   6.188
 6440SOL     OW20062   4.590   3.228   5.620
 6440SOL    HW120063   4.549   3.259   5.701
 6440SOL    HW220064   4.607   3.309   5.570
 6441SOL     OW20065   4.384   3.654   6.531
 6441SOL    HW120066   4.364   3.745   6.508
 6441SOL    HW220067   4.479   3.648   6.524
 6442SOL     OW20068   4.591   2.829   6.441
 6442SOL    HW120069   4.641   2.757   6.481
 6442SOL    HW220070   4.557   2.878   6.516
 6443SOL     OW20071   4.806   2.849   5.676
 6443SOL    HW120072   4.782   2.899   5.598
 6443SOL    HW220073   4.881   2.796   5.649
 6444SOL     OW20074   3.949   3.165   7.443
 6444SOL    HW120075   3.881   3.105   7.412
 6444SOL    HW220076   3.929   3.179   7.535
 6445SOL     OW20077   3.807   3.096   6.250
 6445SOL    HW120078   3.811   3.047   6.333
 6445SOL    HW220079   3.876   3.057   6.196
 6446SOL     OW20080   4.404   3.263   7.214
 6446SOL    HW120081   4.324   3.222   7.245
 6446SOL    HW220082   4.401   3.352   7.249
 6447SOL     OW20083   4.154   2.296   6.112
 6447SOL    HW120084   4.183   2.225   6.054
 6447SOL    HW220085   4.106   2.252   6.182
 6448SOL     OW20086   0.095   3.383   6.686
 6448SOL    HW120087   0.028   3.358   6.623
 6448SOL    HW220088   0.104   3.307   6.743
 6449SOL     OW20089   4.054   2.417   6.878
 6449SOL    HW120090   4.109   2.361   6.932
 6449SOL    HW220091   4.073   2.389   6.788
 6450SOL     OW20092   4.551   3.439   6.264
 6450SOL    HW120093   4.541   3.491   6.184
 6450SOL    HW220094   4.474   3.383   6.266
 6451SOL     OW20095   5.148   2.081   6.701
 6451SOL    HW120096   5.193   2.015   6.755
 6451SOL    HW220097   5.101   2.136   6.764
 6452SOL     OW20098   4.730   1.881   6.729
 6452SOL    HW120099   4.677   1.813   6.689
 6452SOL    HW220100   4.818   1.844   6.733
 6453SOL     OW20101   4.494   3.194   5.900
 6453SOL    HW120102   4.463   3.104   5.906
 6453SOL    HW220103   4.577   3.195   5.949
 6454SOL     OW20104   4.344   3.419   6.871
 6454SOL    HW120105   4.346   3.501   6.920
 6454SOL    HW220106   4.431   3.411   6.833
 6455SOL     OW20107   5.059   1.908   5.754
 6455SOL    HW120108   5.083   1.867   5.671
 6455SOL    HW220109   4.974   1.869   5.775
 6456SOL     OW20110   5.028   2.320   6.269
 6456SOL    HW120111   4.973   2.398   6.272
 6456SOL    HW220112   5.017   2.279   6.354
 6457SOL     OW20113   0.002   2.086   6.465
 6457SOL    HW120114   5.236   2.076   6.534
 6457SOL    HW220115   5.277   2.167   6.420
 6458SOL     OW20116   3.767   2.933   5.892
 6458SOL    HW120117   3.861   2.925   5.875
 6458SOL    HW220118   3.739   2.845   5.914
 6459SOL     OW20119   4.604   3.511   5.932
 6459SOL    HW120120   4.533   3.496   5.869
 6459SOL    HW220121   4.576   3.589   5.981
 6460SOL     OW20122   3.953   2.481   7.572
 6460SOL    HW120123   3.862   2.489   7.602
 6460SOL    HW220124   3.946   2.458   7.479
 6461SOL     OW20125   3.945   3.580   7.919
 6461SOL    HW120126   3.974   3.623   7.999
 6461SOL    HW220127   4.023   3.577   7.863
 6462SOL     OW20128   3.942   3.300   7.990
 6462SOL    HW120129   3.928   3.394   7.990
 6462SOL    HW220130   3.881   3.267   8.057
 6463SOL     OW20131   4.312   2.843   7.579
 6463SOL    HW120132   4.355   2.894   7.510
 6463SOL    HW220133   4.350   2.875   7.660
 6464SOL     OW20134   3.754   3.461   7.577
 6464SOL    HW120135   3.738   3.368   7.592
 6464SOL    HW220136   3.726   3.504   7.659
 6465SOL     OW20137   0.118   2.788   8.016
 6465SOL    HW120138   0.211   2.778   8.037
 6465SOL    HW220139   0.107   2.881   7.999
 6466SOL     OW20140   4.525   1.856   7.938
 6466SOL    HW120141   4.574   1.936   7.923
 6466SOL    HW220142   4.434   1.885   7.948
 6467SOL     OW20143   4.315   2.587   7.709
 6467SOL    HW120144   4.319   2.668   7.658
 6467SOL    HW220145   4.254   2.606   7.780
 6468SOL     OW20146   3.786   2.723   0.091
 6468SOL    HW120147   3.851   2.660   0.122
 6468SOL    HW220148   3.779   2.787   0.163
 6469SOL     OW20149   4.606   2.207   7.639
 6469SOL    HW120150   4.650   2.266   7.578
 6469SOL    HW220151   4.637   2.120   7.614
 6470SOL     OW20152   4.048   2.817   7.698
 6470SOL    HW120153   4.127   2.836   7.648
 6470SOL    HW220154   4.011   2.739   7.656
 6471SOL     OW20155   4.837   3.638   7.684
 6471SOL    HW120156   4.763   3.595   7.728
 6471SOL    HW220157   4.861   3.579   7.613
 6472SOL     OW20158   4.191   3.600   7.769
 6472SOL    HW120159   4.239   3.653   7.833
 6472SOL    HW220160   4.258   3.565   7.711
 6473SOL     OW20161   5.133   1.987   7.858
 6473SOL    HW120162   5.096   1.963   7.773
 6473SOL    HW220163   5.227   1.988   7.845
 6474SOL     OW20164   4.115   2.560   7.918
 6474SOL    HW120165   4.120   2.465   7.926
 6474SOL    HW220166   4.023   2.580   7.935
 6475SOL     OW20167   4.353   1.983   7.559
 6475SOL    HW120168   4.428   1.925   7.569
 6475SOL    HW220169   4.309   1.951   7.480
 6476SOL     OW20170   4.256   1.935   7.959
 6476SOL    HW120171   4.170   1.939   8.002
 6476SOL    HW220172   4.254   2.006   7.895
 6477SOL     OW20173   5.137   3.041   7.488
 6477SOL    HW120174   5.155   2.971   7.552
 6477SOL    HW220175   5.050   3.073   7.511
 6478SOL     OW20176   4.017   1.911   7.633
 6478SOL    HW120177   4.075   1.972   7.587
 6478SOL    HW220178   4.075   1.846   7.671
 6479SOL     OW20179   4.666   2.089   7.911
 6479SOL    HW120180   4.623   2.152   7.853
 6479SOL    HW220181   4.758   2.116   7.913
 6480SOL     OW20182   4.164   3.010   0.100
 6480SOL    HW120183   4.089   3.049   0.146
 6480SOL    HW220184   4.134   2.998   0.011
 6481SOL     OW20185   5.007   3.666   8.012
 6481SOL    HW120186   5.047   3.732   7.955
 6481SOL    HW220187   4.938   3.713   8.059
 6482SOL     OW20188   4.752   2.408   7.465
 6482SOL    HW120189   4.704   2.489   7.448
 6482SOL    HW220190   4.805   2.427   7.542
 6483SOL     OW20191   4.213   3.277   7.605
 6483SOL    HW120192   4.138   3.248   7.658
 6483SOL    HW220193   4.195   3.242   7.518
 6484SOL     OW20194   5.127   2.423   7.529
 6484SOL    HW120195   5.053   2.414   7.589
 6484SOL    HW220196   5.201   2.384   7.575
 6485SOL     OW20197   4.250   2.128   7.771
 6485SOL    HW120198   4.293   2.077   7.702
 6485SOL    HW220199   4.228   2.211   7.729
 6486SOL     OW20200   4.436   2.924   7.811
 6486SOL    HW120201   4.411   2.912   7.903
 6486SOL    HW220202   4.515   2.871   7.801
 6487SOL     OW20203   4.090   2.963   7.928
 6487SOL    HW120204   4.071   3.043   7.877
 6487SOL    HW220205   4.076   2.892   7.865
 6488SOL     OW20206   4.958   3.220   7.819
 6488SOL    HW120207   5.016   3.290   7.849
 6488SOL    HW220208   4.902   3.202   7.895
 6489SOL     OW20209   0.036   2.509   7.925
 6489SOL    HW120210   5.279   2.532   7.998
 6489SOL    HW220211   0.040   2.589   7.872
 6490SOL     OW20212   4.927   2.391   7.714
 6490SOL    HW120213   4.932   2.308   7.759
 6490SOL    HW220214   4.898   2.453   7.780
 6491SOL     OW20215   0.026   2.262   7.808
 6491SOL    HW120216   0.039   2.194   7.873
 6491SOL    HW220217   0.022   2.343   7.859
 6492SOL     OW20218   5.033   2.694   7.490
 6492SOL    HW120219   5.065   2.603   7.487
 6492SOL    HW220220   5.056   2.730   7.404
 6493SOL     OW20221   3.729   3.186   7.640
 6493SOL    HW120222   3.642   3.199   7.603
 6493SOL    HW220223   3.728   3.097   7.674
 6494SOL     OW20224   4.563   2.461   7.761
 6494SOL    HW120225   4.554   2.369   7.734
 6494SOL    HW220226   4.473   2.494   7.761
 6495SOL     OW20227   4.187   2.355   7.643
 6495SOL    HW120228   4.245   2.430   7.657
 6495SOL    HW220229   4.102   2.395   7.624
 6496SOL     OW20230   5.032   2.709   7.772
 6496SOL    HW120231   4.939   2.722   7.791
 6496SOL    HW220232   5.037   2.708   7.677
 6497SOL     OW20233   0.180   2.004   7.990
 6497SOL    HW120234   0.159   1.986   7.899
 6497SOL    HW220235   0.137   1.933   8.039
 6498SOL     OW20236   5.102   3.435   7.907
 6498SOL    HW120237   5.197   3.447   7.903
 6498SOL    HW220238   5.069   3.516   7.946
 6499SOL     OW20239   4.390   3.482   7.604
 6499SOL    HW120240   4.403   3.492   7.510
 6499SOL    HW220241   4.339   3.401   7.612
 6500SOL     OW20242   4.912   3.473   7.486
 6500SOL    HW120243   4.921   3.379   7.501
 6500SOL    HW220244   4.853   3.480   7.411
 6501SOL     OW20245   4.654   2.771   7.758
 6501SOL    HW120246   4.705   2.796   7.681
 6501SOL    HW220247   4.645   2.676   7.751
 6502SOL     OW20248   4.327   3.368   7.936
 6502SOL    HW120249   4.373   3.307   7.878
 6502SOL    HW220250   4.256   3.404   7.883
 6503SOL     OW20251   3.982   3.208   7.741
 6503SOL    HW120252   3.889   3.207   7.715
 6503SOL    HW220253   3.982   3.244   7.829
 6504SOL     OW20254   3.801   2.196   7.483
 6504SOL    HW120255   3.715   2.176   7.447
 6504SOL    HW220256   3.832   2.271   7.433
 6505SOL     OW20257   3.794   2.020   7.759
 6505SOL    HW120258   3.778   2.096   7.703
 6505SOL    HW220259   3.877   1.984   7.727
 6506SOL     OW20260   4.906   3.191   7.556
 6506SOL    HW120261   4.811   3.177   7.556
 6506SOL    HW220262   4.928   3.204   7.648
 6507SOL     OW20263   5.266   3.605   0.321
 6507SOL    HW120264   5.269   3.691   0.280
 6507SOL    HW220265   0.038   3.606   0.384
 6508SOL     OW20266   4.939   2.182   7.901
 6508SOL    HW120267   5.010   2.119   7.890
 6508SOL    HW220268   4.957   2.225   7.984
 6509SOL     OW20269   4.348   2.595   8.059
 6509SOL    HW120270   4.355   2.679   0.024
 6509SOL    HW220271   4.261   2.597   8.017
 6510SOL     OW20272   4.590   3.228   7.482
 6510SOL    HW120273   4.551   3.257   7.564
 6510SOL    HW220274   4.607   3.309   7.434
 6511SOL     OW20275   4.802   2.840   7.539
 6511SOL    HW120276   4.778   2.895   7.464
 6511SOL    HW220277   4.880   2.793   7.511
 6512SOL     OW20278   4.111   2.288   7.982
 6512SOL    HW120279   4.162   2.237   7.918
 6512SOL    HW220280   4.161   2.280   8.063
 6513SOL     OW20281   4.490   3.197   7.758
 6513SOL    HW120282   4.459   3.106   7.762
 6513SOL    HW220283   4.568   3.198   7.813
 6514SOL     OW20284   5.062   1.907   7.611
 6514SOL    HW120285   5.083   1.863   7.529
 6514SOL    HW220286   4.978   1.869   7.638
 6515SOL     OW20287   3.774   2.941   7.750
 6515SOL    HW120288   3.869   2.930   7.736
 6515SOL    HW220289   3.743   2.852   7.766
 6516SOL     OW20290   4.613   3.509   7.783
 6516SOL    HW120291   4.537   3.489   7.729
 6516SOL    HW220292   4.582   3.574   7.846
 6517SOL     OW20293   3.945   4.347   0.121
 6517SOL    HW120294   3.864   4.314   0.160
 6517SOL    HW220295   3.965   4.285   0.052
 6518SOL     OW20296   3.949   4.004   0.991
 6518SOL    HW120297   3.977   3.971   1.076
 6518SOL    HW220298   3.859   3.973   0.982
 6519SOL     OW20299   3.728   4.107   0.638
 6519SOL    HW120300   3.646   4.132   0.679
 6519SOL    HW220301   3.708   4.027   0.590
 6520SOL     OW20302   4.290   5.004   1.178
 6520SOL    HW120303   4.204   5.004   1.134
 6520SOL    HW220304   4.303   5.095   1.205
 6521SOL     OW20305   5.276   5.233   0.693
 6521SOL    HW120306   5.263   5.215   0.786
 6521SOL    HW220307   5.189   5.230   0.655
 6522SOL     OW20308   4.858   4.423   0.701
 6522SOL    HW120309   4.909   4.504   0.690
 6522SOL    HW220310   4.810   4.436   0.783
 6523SOL     OW20311   4.480   4.868   1.037
 6523SOL    HW120312   4.412   4.900   1.097
 6523SOL    HW220313   4.510   4.946   0.992
 6524SOL     OW20314   4.591   4.500   1.822
 6524SOL    HW120315   4.574   4.572   1.883
 6524SOL    HW220316   4.613   4.543   1.740
 6525SOL     OW20317   4.408   4.726   0.651
 6525SOL    HW120318   4.474   4.715   0.720
 6525SOL    HW220319   4.340   4.780   0.691
 6526SOL     OW20320   4.433   4.874   1.812
 6526SOL    HW120321   4.481   4.953   1.836
 6526SOL    HW220322   4.350   4.906   1.777
 6527SOL     OW20323   4.061   5.152   1.060
 6527SOL    HW120324   3.984   5.108   1.023
 6527SOL    HW220325   4.102   5.196   0.986
 6528SOL     OW20326   5.129   5.238   1.341
 6528SOL    HW120327   5.152   0.008   1.403
 6528SOL    HW220328   5.111   5.163   1.397
 6529SOL     OW20329   4.172   4.122   1.488
 6529SOL    HW120330   4.248   4.064   1.493
 6529SOL    HW220331   4.096   4.065   1.501
 6530SOL     OW20332   4.864   5.052   1.699
 6530SOL    HW120333   4.887   5.065   1.791
 6530SOL    HW220334   4.803   4.978   1.700
 6531SOL     OW20335   3.932   5.155   0.516
 6531SOL    HW120336   3.959   5.238   0.555
 6531SOL    HW220337   3.879   5.112   0.584
 6532SOL     OW20338   3.980   4.811   0.891
 6532SOL    HW120339   3.979   4.724   0.931
 6532SOL    HW220340   3.923   4.865   0.946
 6533SOL     OW20341   4.354   4.685   0.131
 6533SOL    HW120342   4.303   4.762   0.106
 6533SOL    HW220343   4.403   4.713   0.209
 6534SOL     OW20344   3.839   4.374   0.562
 6534SOL    HW120345   3.809   4.286   0.583
 6534SOL    HW220346   3.830   4.423   0.644
 6535SOL     OW20347   3.702   0.019   0.096
 6535SOL    HW120348   3.719   5.229   0.124
 6535SOL    HW220349   3.731   0.073   0.169
 6536SOL     OW20350   0.114   4.656   0.582
 6536SOL    HW120351   0.207   4.633   0.591
 6536SOL    HW220352   0.115   4.744   0.543
 6537SOL     OW20353   3.847   4.466   1.586
 6537SOL    HW120354   3.939   4.491   1.595
 6537SOL    HW220355   3.799   4.549   1.594
 6538SOL     OW20356   4.345   5.098   0.736
 6538SOL    HW120357   4.291   5.019   0.734
 6538SOL    HW220358   4.327   5.142   0.653
 6539SOL     OW20359   5.020   4.970   1.421
 6539SOL    HW120360   5.048   4.899   1.364
 6539SOL    HW220361   5.067   4.955   1.503
 6540SOL     OW20362   4.539   3.726   0.510
 6540SOL    HW120363   4.578   3.810   0.489
 6540SOL    HW220364   4.445   3.744   0.519
 6541SOL     OW20365   3.915   4.691   1.269
 6541SOL    HW120366   3.999   4.648   1.255
 6541SOL    HW220367   3.851   4.635   1.224
 6542SOL     OW20368   4.056   3.974   1.810
 6542SOL    HW120369   4.101   4.057   1.826
 6542SOL    HW220370   3.967   3.989   1.842
 6543SOL     OW20371   5.178   5.153   0.951
 6543SOL    HW120372   5.110   5.162   1.018
 6543SOL    HW220373   5.164   5.066   0.914
 6544SOL     OW20374   0.051   0.163   0.564
 6544SOL    HW120375   0.091   0.121   0.487
 6544SOL    HW220376   0.039   0.091   0.626
 6545SOL     OW20377   4.321   4.438   0.281
 6545SOL    HW120378   4.341   4.515   0.228
 6545SOL    HW220379   4.258   4.469   0.346
 6546SOL     OW20380   4.996   4.060   0.920
 6546SOL    HW120381   4.908   4.031   0.941
 6546SOL    HW220382   5.051   4.026   0.990
 6547SOL     OW20383   4.515   4.341   1.451
 6547SOL    HW120384   4.489   4.318   1.540
 6547SOL    HW220385   4.474   4.275   1.396
 6548SOL     OW20386   5.115   4.203   1.680
 6548SOL    HW120387   5.116   4.241   1.768
 6548SOL    HW220388   5.191   4.145   1.679
 6549SOL     OW20389   4.678   4.612   1.582
 6549SOL    HW120390   4.732   4.541   1.547
 6549SOL    HW220391   4.631   4.646   1.506
 6550SOL     OW20392   4.715   4.137   1.239
 6550SOL    HW120393   4.629   4.158   1.276
 6550SOL    HW220394   4.695   4.090   1.158
 6551SOL     OW20395   4.776   4.421   0.426
 6551SOL    HW120396   4.791   4.417   0.520
 6551SOL    HW220397   4.693   4.376   0.413
 6552SOL     OW20398   3.813   4.545   0.776
 6552SOL    HW120399   3.894   4.538   0.826
 6552SOL    HW220400   3.769   4.622   0.811
 6553SOL     OW20401   4.608   4.081   0.200
 6553SOL    HW120402   4.653   4.129   0.131
 6553SOL    HW220403   4.609   3.990   0.170
 6554SOL     OW20404   5.091   4.868   0.547
 6554SOL    HW120405   5.179   4.863   0.509
 6554SOL    HW220406   5.043   4.928   0.489
 6555SOL     OW20407   4.273   3.906   0.893
 6555SOL    HW120408   4.276   3.934   0.984
 6555SOL    HW220409   4.276   3.988   0.843
 6556SOL     OW20410   4.742   5.167   0.468
 6556SOL    HW120411   4.666   5.224   0.466
 6556SOL    HW220412   4.766   5.160   0.560
 6557SOL     OW20413   4.938   5.261   1.554
 6557SOL    HW120414   4.915   5.178   1.596
 6557SOL    HW220415   4.903   5.254   1.465
 6558SOL     OW20416   4.051   4.665   0.253
 6558SOL    HW120417   4.122   4.707   0.203
 6558SOL    HW220418   4.051   4.574   0.223
 6559SOL     OW20419   4.188   4.987   1.741
 6559SOL    HW120420   4.161   4.990   1.649
 6559SOL    HW220421   4.106   4.986   1.789
 6560SOL     OW20422   4.873   0.190   0.219
 6560SOL    HW120423   4.797   0.179   0.277
 6560SOL    HW220424   4.846   0.151   0.136
 6561SOL     OW20425   3.924   4.005   1.500
 6561SOL    HW120426   3.843   4.055   1.496
 6561SOL    HW220427   3.908   3.938   1.566
 6562SOL     OW20428   5.117   3.848   0.438
 6562SOL    HW120429   5.101   3.831   0.345
 6562SOL    HW220430   5.212   3.856   0.444
 6563SOL     OW20431   4.110   4.421   0.477
 6563SOL    HW120432   4.135   4.330   0.487
 6563SOL    HW220433   4.017   4.424   0.500
 6564SOL     OW20434   4.353   3.835   0.135
 6564SOL    HW120435   4.448   3.823   0.142
 6564SOL    HW220436   4.333   3.815   0.044
 6565SOL     OW20437   4.490   4.002   1.754
 6565SOL    HW120438   4.566   3.943   1.755
 6565SOL    HW220439   4.442   3.981   1.834
 6566SOL     OW20440   5.058   4.315   1.432
 6566SOL    HW120441   5.091   4.283   1.516
 6566SOL    HW220442   5.100   4.400   1.421
 6567SOL     OW20443   4.535   5.120   0.936
 6567SOL    HW120444   4.616   5.107   0.887
 6567SOL    HW220445   4.467   5.126   0.868
 6568SOL     OW20446   4.651   4.233   0.903
 6568SOL    HW120447   4.627   4.224   0.810
 6568SOL    HW220448   4.683   4.146   0.928
 6569SOL     OW20449   4.273   3.787   0.505
 6569SOL    HW120450   4.192   3.787   0.557
 6569SOL    HW220451   4.267   3.865   0.451
 6570SOL     OW20452   5.129   4.895   0.031
 6570SOL    HW120453   5.150   4.832   0.100
 6570SOL    HW220454   5.048   4.937   0.059
 6571SOL     OW20455   4.034   3.778   0.168
 6571SOL    HW120456   4.098   3.848   0.184
 6571SOL    HW220457   4.071   3.701   0.211
 6572SOL     OW20458   4.661   3.970   0.459
 6572SOL    HW120459   4.634   4.012   0.378
 6572SOL    HW220460   4.756   3.987   0.464
 6573SOL     OW20461   4.801   4.405   1.461
 6573SOL    HW120462   4.734   4.337   1.463
 6573SOL    HW220463   4.884   4.357   1.451
 6574SOL     OW20464   4.981   5.266   0.775
 6574SOL    HW120465   4.955   0.053   0.745
 6574SOL    HW220466   5.036   5.282   0.851
 6575SOL     OW20467   4.188   4.872   0.732
 6575SOL    HW120468   4.120   4.852   0.796
 6575SOL    HW220469   4.148   4.854   0.647
 6576SOL     OW20470   4.759   4.256   0.028
 6576SOL    HW120471   4.711   4.335   0.002
 6576SOL    HW220472   4.818   4.284   0.097
 6577SOL     OW20473   3.802   4.279   1.392
 6577SOL    HW120474   3.894   4.277   1.365
 6577SOL    HW220475   3.798   4.349   1.457
 6578SOL     OW20476   4.283   3.951   1.165
 6578SOL    HW120477   4.325   3.874   1.205
 6578SOL    HW220478   4.193   3.947   1.195
 6579SOL     OW20479   4.591   4.182   0.639
 6579SOL    HW120480   4.549   4.238   0.574
 6579SOL    HW220481   4.613   4.102   0.591
 6580SOL     OW20482   4.739   3.776   0.752
 6580SOL    HW120483   4.680   3.770   0.677
 6580SOL    HW220484   4.717   3.701   0.806
 6581SOL     OW20485   5.152   4.902   0.850
 6581SOL    HW120486   5.101   4.822   0.859
 6581SOL    HW220487   5.172   4.907   0.756
 6582SOL     OW20488   4.191   5.160   0.156
 6582SOL    HW120489   4.143   5.104   0.217
 6582SOL    HW220490   4.227   5.101   0.091
 6583SOL     OW20491   5.124   4.307   0.076
 6583SOL    HW120492   5.066   4.283   0.148
 6583SOL    HW220493   5.195   4.243   0.079
 6584SOL     OW20494   4.242   3.987   0.324
 6584SOL    HW120495   4.291   3.935   0.261
 6584SOL    HW220496   4.230   4.072   0.281
 6585SOL     OW20497   4.787   5.073   1.330
 6585SOL    HW120498   4.709   5.049   1.381
 6585SOL    HW220499   4.860   5.035   1.379
 6586SOL     OW20500   4.847   4.922   1.109
 6586SOL    HW120501   4.797   4.966   1.177
 6586SOL    HW220502   4.806   4.951   1.027
 6587SOL     OW20503   4.642   3.822   1.397
 6587SOL    HW120504   4.664   3.804   1.306
 6587SOL    HW220505   4.721   3.861   1.434
 6588SOL     OW20506   4.706   4.833   1.729
 6588SOL    HW120507   4.613   4.852   1.745
 6588SOL    HW220508   4.705   4.759   1.669
 6589SOL     OW20509   4.433   4.782   0.381
 6589SOL    HW120510   4.418   4.767   0.474
 6589SOL    HW220511   4.513   4.733   0.360
 6590SOL     OW20512   4.142   4.538   1.252
 6590SOL    HW120513   4.211   4.548   1.317
 6590SOL    HW220514   4.107   4.450   1.266
 6591SOL     OW20515   4.989   4.099   1.276
 6591SOL    HW120516   5.024   4.178   1.317
 6591SOL    HW220517   4.900   4.123   1.251
 6592SOL     OW20518   4.068   4.831   0.491
 6592SOL    HW120519   4.072   4.904   0.428
 6592SOL    HW220520   4.078   4.753   0.437
 6593SOL     OW20521   4.277   4.261   0.860
 6593SOL    HW120522   4.293   4.319   0.786
 6593SOL    HW220523   4.342   4.287   0.925
 6594SOL     OW20524   4.981   5.069   0.386
 6594SOL    HW120525   5.033   5.150   0.391
 6594SOL    HW220526   4.893   5.095   0.413
 6595SOL     OW20527   4.978   5.181   1.132
 6595SOL    HW120528   5.033   5.203   1.207
 6595SOL    HW220529   4.940   5.096   1.155
 6596SOL     OW20530   4.072   5.236   1.315
 6596SOL    HW120531   4.061   5.201   1.227
 6596SOL    HW220532   4.166   5.257   1.321
 6597SOL     OW20533   4.138   4.468   1.602
 6597SOL    HW120534   4.199   4.514   1.544
 6597SOL    HW220535   4.178   4.383   1.618
 6598SOL     OW20536   4.718   3.847   1.756
 6598SOL    HW120537   4.774   3.920   1.728
 6598SOL    HW220538   4.766   3.769   1.730
 6599SOL     OW20539   4.222   3.765   1.747
 6599SOL    HW120540   4.179   3.711   1.681
 6599SOL    HW220541   4.162   3.839   1.759
 6600SOL     OW20542   4.306   4.597   1.031
 6600SOL    HW120543   4.338   4.687   1.029
 6600SOL    HW220544   4.251   4.592   1.109
 6601SOL     OW20545   5.085   4.580   1.038
 6601SOL    HW120546   5.010   4.565   0.981
 6601SOL    HW220547   5.138   4.500   1.031
 6602SOL     OW20548   4.932   4.255   0.270
 6602SOL    HW120549   4.935   4.175   0.321
 6602SOL    HW220550   4.886   4.318   0.325
 6603SOL     OW20551   4.023   3.923   1.246
 6603SOL    HW120552   3.986   3.956   1.328
 6603SOL    HW220553   4.004   3.829   1.247
 6604SOL     OW20554   3.776   5.046   1.284
 6604SOL    HW120555   3.801   4.982   1.351
 6604SOL    HW220556   3.812   5.129   1.315
 6605SOL     OW20557   4.448   4.355   1.058
 6605SOL    HW120558   4.523   4.338   1.001
 6605SOL    HW220559   4.421   4.444   1.037
 6606SOL     OW20560   4.026   3.789   0.623
 6606SOL    HW120561   4.008   3.880   0.647
 6606SOL    HW220562   4.033   3.743   0.707
 6607SOL     OW20563   0.045   4.101   0.358
 6607SOL    HW120564   0.061   4.044   0.433
 6607SOL    HW220565   0.017   4.184   0.396
 6608SOL     OW20566   4.750   4.483   0.960
 6608SOL    HW120567   4.750   4.501   1.054
 6608SOL    HW220568   4.725   4.391   0.953
 6609SOL     OW20569   4.077   4.640   1.809
 6609SOL    HW120570   4.159   4.659   1.854
 6609SOL    HW220571   4.101   4.577   1.740
 6610SOL     OW20572   5.027   4.556   0.027
 6610SOL    HW120573   5.060   4.468   0.045
 6610SOL    HW220574   5.060   4.577   8.019
 6611SOL     OW20575   4.781   5.077   0.829
 6611SOL    HW120576   4.788   4.993   0.784
 6611SOL    HW220577   4.866   5.119   0.814
 6612SOL     OW20578   4.033   4.533   0.947
 6612SOL    HW120579   4.126   4.555   0.942
 6612SOL    HW220580   4.031   4.443   0.981
 6613SOL     OW20581   4.055   4.249   1.012
 6613SOL    HW120582   4.021   4.162   0.997
 6613SOL    HW220583   4.132   4.255   0.955
 6614SOL     OW20584   4.856   4.100   1.681
 6614SOL    HW120585   4.809   4.156   1.743
 6614SOL    HW220586   4.944   4.139   1.675
 6615SOL     OW20587   4.885   3.927   1.469
 6615SOL    HW120588   4.874   3.989   1.541
 6615SOL    HW220589   4.924   3.979   1.398
 6616SOL     OW20590   3.735   5.045   0.180
 6616SOL    HW120591   3.646   5.057   0.146
 6616SOL    HW220592   3.733   4.958   0.219
 6617SOL     OW20593   4.707   4.516   1.227
 6617SOL    HW120594   4.763   4.494   1.301
 6617SOL    HW220595   4.622   4.479   1.249
 6618SOL     OW20596   3.760   4.268   1.116
 6618SOL    HW120597   3.841   4.254   1.067
 6618SOL    HW220598   3.788   4.272   1.208
 6619SOL     OW20599   3.915   4.243   1.727
 6619SOL    HW120600   3.973   4.206   1.660
 6619SOL    HW220601   3.872   4.316   1.683
 6620SOL     OW20602   5.112   4.663   1.666
 6620SOL    HW120603   5.119   4.757   1.654
 6620SOL    HW220604   5.114   4.627   1.577
 6621SOL     OW20605   4.542   4.293   0.366
 6621SOL    HW120606   4.551   4.222   0.302
 6621SOL    HW220607   4.466   4.343   0.335
 6622SOL     OW20608   3.929   5.277   1.745
 6622SOL    HW120609   3.918   0.030   1.824
 6622SOL    HW220610   3.942   5.188   1.777
 6623SOL     OW20611   4.422   4.175   1.260
 6623SOL    HW120612   4.371   4.101   1.229
 6623SOL    HW220613   4.420   4.238   1.188
 6624SOL     OW20614   4.192   4.215   0.179
 6624SOL    HW120615   4.258   4.281   0.199
 6624SOL    HW220616   4.109   4.260   0.190
 6625SOL     OW20617   3.869   4.863   1.470
 6625SOL    HW120618   3.872   4.811   1.551
 6625SOL    HW220619   3.887   4.800   1.401
 6626SOL     OW20620   5.051   4.771   1.227
 6626SOL    HW120621   5.075   4.709   1.158
 6626SOL    HW220622   4.980   4.822   1.189
 6627SOL     OW20623   5.022   4.594   0.319
 6627SOL    HW120624   4.945   4.548   0.352
 6627SOL    HW220625   5.024   4.573   0.225
 6628SOL     OW20626   3.817   4.986   1.021
 6628SOL    HW120627   3.796   5.003   1.113
 6628SOL    HW220628   3.737   4.948   0.985
 6629SOL     OW20629   4.469   0.035   1.713
 6629SOL    HW120630   4.377   0.061   1.716
 6629SOL    HW220631   4.500   0.065   1.627
 6630SOL     OW20632   4.629   3.815   0.134
 6630SOL    HW120633   4.649   3.799   0.041
 6630SOL    HW220634   4.692   3.761   0.181
 6631SOL     OW20635   0.082   3.873   0.522
 6631SOL    HW120636   0.173   3.868   0.493
 6631SOL    HW220637   0.073   3.804   0.587
 6632SOL     OW20638   5.016   4.642   0.673
 6632SOL    HW120639   5.094   4.588   0.658
 6632SOL    HW220640   5.033   4.722   0.623
 6633SOL     OW20641   4.543   4.993   1.423
 6633SOL    HW120642   4.514   5.029   1.507
 6633SOL    HW220643   4.469   5.005   1.365
 6634SOL     OW20644   3.987   4.040   0.717
 6634SOL    HW120645   3.901   4.076   0.694
 6634SOL    HW220646   3.984   4.032   0.813
 6635SOL     OW20647   4.858   0.020   0.007
 6635SOL    HW120648   4.883   5.232   0.035
 6635SOL    HW220649   4.867   0.019   7.992
 6636SOL     OW20650   4.549   4.728   1.370
 6636SOL    HW120651   4.595   4.722   1.287
 6636SOL    HW220652   4.552   4.821   1.393
 6637SOL     OW20653   4.642   4.638   0.299
 6637SOL    HW120654   4.697   4.665   0.225
 6637SOL    HW220655   4.690   4.566   0.339
 6638SOL     OW20656   4.089   5.026   1.496
 6638SOL    HW120657   4.079   5.100   1.437
 6638SOL    HW220658   4.013   4.970   1.479
 6639SOL     OW20659   4.776   4.833   0.712
 6639SOL    HW120660   4.705   4.781   0.749
 6639SOL    HW220661   4.834   4.769   0.670
 6640SOL     OW20662   4.739   3.963   0.968
 6640SOL    HW120663   4.738   3.916   0.885
 6640SOL    HW220664   4.736   3.894   1.035
 6641SOL     OW20665   3.988   5.029   0.288
 6641SOL    HW120666   3.906   5.045   0.241
 6641SOL    HW220667   3.980   5.079   0.369
 6642SOL     OW20668   3.836   4.744   1.718
 6642SOL    HW120669   3.760   4.722   1.772
 6642SOL    HW220670   3.911   4.708   1.766
 6643SOL     OW20671   4.398   3.920   1.499
 6643SOL    HW120672   4.482   3.901   1.458
 6643SOL    HW220673   4.421   3.951   1.587
 6644SOL     OW20674   3.781   4.086   0.039
 6644SOL    HW120675   3.707   4.032   0.015
 6644SOL    HW220676   3.828   4.101   8.037
 6645SOL     OW20677   5.163   4.584   1.404
 6645SOL    HW120678   5.110   4.640   1.348
 6645SOL    HW220679   5.252   4.592   1.369
 6646SOL     OW20680   3.795   3.878   0.306
 6646SOL    HW120681   3.779   3.963   0.264
 6646SOL    HW220682   3.879   3.849   0.272
 6647SOL     OW20683   4.907   5.053   0.109
 6647SOL    HW120684   4.811   5.046   0.108
 6647SOL    HW220685   4.929   5.061   0.201
 6648SOL     OW20686   4.343   4.555   1.433
 6648SOL    HW120687   4.399   4.631   1.417
 6648SOL    HW220688   4.403   4.481   1.441
 6649SOL     OW20689   4.441   4.288   1.705
 6649SOL    HW120690   4.481   4.350   1.765
 6649SOL    HW220691   4.470   4.202   1.736
 6650SOL     OW20692   5.184   4.928   1.633
 6650SOL    HW120693   5.174   4.940   1.727
 6650SOL    HW220694   5.278   4.933   1.618
 6651SOL     OW20695   4.934   4.048   0.460
 6651SOL    HW120696   4.997   3.977   0.449
 6651SOL    HW220697   4.964   4.095   0.539
 6652SOL     OW20698   4.313   4.461   0.668
 6652SOL    HW120699   4.353   4.547   0.655
 6652SOL    HW220700   4.244   4.457   0.602
 6653SOL     OW20701   4.633   5.097   0.037
 6653SOL    HW120702   4.573   5.079   0.109
 6653SOL    HW220703   4.587   5.160   8.062
 6654SOL     OW20704   4.591   4.690   0.856
 6654SOL    HW120705   4.642   4.620   0.896
 6654SOL    HW220706   4.558   4.741   0.930
 6655SOL     OW20707   4.801   4.701   0.087
 6655SOL    HW120708   4.787   4.758   0.011
 6655SOL    HW220709   4.883   4.655   0.068
 6656SOL     OW20710   3.947   5.025   1.853
 6656SOL    HW120711   3.878   4.963   1.828
 6656SOL    HW220712   3.936   5.036   1.947
 6657SOL     OW20713   3.810   4.955   0.669
 6657SOL    HW120714   3.809   4.902   0.749
 6657SOL    HW220715   3.879   4.915   0.616
 6658SOL     OW20716   4.393   5.106   1.609
 6658SOL    HW120717   4.318   5.073   1.657
 6658SOL    HW220718   4.424   5.181   1.659
 6659SOL     OW20719   4.149   4.160   0.523
 6659SOL    HW120720   4.182   4.088   0.469
 6659SOL    HW220721   4.105   4.116   0.596
 6660SOL     OW20722   0.122   5.229   1.053
 6660SOL    HW120723   0.038   5.205   1.013
 6660SOL    HW220724   0.105   5.229   1.147
 6661SOL     OW20725   4.053   4.278   1.291
 6661SOL    HW120726   4.109   4.224   1.347
 6661SOL    HW220727   4.073   4.251   1.202
 6662SOL     OW20728   5.148   3.942   1.115
 6662SOL    HW120729   5.193   3.877   1.169
 6662SOL    HW220730   5.102   3.998   1.178
 6663SOL     OW20731   4.730   3.743   1.143
 6663SOL    HW120732   4.677   3.674   1.102
 6663SOL    HW220733   4.818   3.706   1.147
 6664SOL     OW20734   4.518   5.040   0.282
 6664SOL    HW120735   4.463   4.966   0.308
 6664SOL    HW220736   4.577   5.053   0.357
 6665SOL     OW20737   4.346   5.299   1.290
 6665SOL    HW120738   4.353   0.054   1.368
 6665SOL    HW220739   4.436   5.280   1.266
 6666SOL     OW20740   5.052   3.785   0.185
 6666SOL    HW120741   5.094   3.736   0.115
 6666SOL    HW220742   4.974   3.734   0.207
 6667SOL     OW20743   5.028   4.184   0.684
 6667SOL    HW120744   4.974   4.263   0.688
 6667SOL    HW220745   5.017   4.142   0.769
 6668SOL     OW20746   0.000   3.948   0.877
 6668SOL    HW120747   5.237   3.936   0.947
 6668SOL    HW220748   5.277   4.033   0.838
 6669SOL     OW20749   3.765   4.792   0.303
 6669SOL    HW120750   3.860   4.794   0.307
 6669SOL    HW220751   3.741   4.708   0.343
 6670SOL     OW20752   3.954   4.347   1.985
 6670SOL    HW120753   3.864   4.347   2.018
 6670SOL    HW220754   3.945   4.322   1.893
 6671SOL     OW20755   3.949   4.005   2.853
 6671SOL    HW120756   3.977   3.971   2.938
 6671SOL    HW220757   3.859   3.973   2.844
 6672SOL     OW20758   3.728   4.106   2.500
 6672SOL    HW120759   3.646   4.131   2.541
 6672SOL    HW220760   3.708   4.027   2.451
 6673SOL     OW20761   4.290   5.004   3.040
 6673SOL    HW120762   4.205   5.004   2.996
 6673SOL    HW220763   4.302   5.095   3.067
 6674SOL     OW20764   5.276   5.232   2.556
 6674SOL    HW120765   5.264   5.216   2.649
 6674SOL    HW220766   5.187   5.232   2.520
 6675SOL     OW20767   4.857   4.423   2.562
 6675SOL    HW120768   4.908   4.504   2.552
 6675SOL    HW220769   4.809   4.435   2.644
 6676SOL     OW20770   4.480   4.868   2.900
 6676SOL    HW120771   4.413   4.900   2.959
 6676SOL    HW220772   4.510   4.947   2.854
 6677SOL     OW20773   4.591   4.500   3.684
 6677SOL    HW120774   4.574   4.572   3.745
 6677SOL    HW220775   4.613   4.543   3.602
 6678SOL     OW20776   4.410   4.727   2.510
 6678SOL    HW120777   4.475   4.716   2.580
 6678SOL    HW220778   4.341   4.780   2.550
 6679SOL     OW20779   4.433   4.874   3.674
 6679SOL    HW120780   4.481   4.953   3.698
 6679SOL    HW220781   4.350   4.906   3.639
 6680SOL     OW20782   4.061   5.152   2.922
 6680SOL    HW120783   3.984   5.108   2.886
 6680SOL    HW220784   4.102   5.196   2.847
 6681SOL     OW20785   5.131   5.237   3.203
 6681SOL    HW120786   5.151   0.008   3.264
 6681SOL    HW220787   5.110   5.162   3.259
 6682SOL     OW20788   4.172   4.123   3.351
 6682SOL    HW120789   4.248   4.064   3.355
 6682SOL    HW220790   4.096   4.065   3.362
 6683SOL     OW20791   4.864   5.052   3.561
 6683SOL    HW120792   4.887   5.066   3.653
 6683SOL    HW220793   4.803   4.978   3.562
 6684SOL     OW20794   3.934   5.155   2.382
 6684SOL    HW120795   3.960   5.238   2.423
 6684SOL    HW220796   3.882   5.111   2.449
 6685SOL     OW20797   3.981   4.811   2.753
 6685SOL    HW120798   3.979   4.724   2.793
 6685SOL    HW220799   3.923   4.864   2.809
 6686SOL     OW20800   4.310   4.705   1.995
 6686SOL    HW120801   4.356   4.755   1.928
 6686SOL    HW220802   4.349   4.735   2.077
 6687SOL     OW20803   3.839   4.376   2.421
 6687SOL    HW120804   3.810   4.287   2.442
 6687SOL    HW220805   3.831   4.424   2.504
 6688SOL     OW20806   3.710   0.014   1.961
 6688SOL    HW120807   3.727   5.225   1.991
 6688SOL    HW220808   3.733   0.069   2.036
 6689SOL     OW20809   0.112   4.659   2.430
 6689SOL    HW120810   0.199   4.626   2.454
 6689SOL    HW220811   0.127   4.748   2.399
 6690SOL     OW20812   3.847   4.466   3.448
 6690SOL    HW120813   3.939   4.491   3.457
 6690SOL    HW220814   3.799   4.549   3.456
 6691SOL     OW20815   4.345   5.097   2.598
 6691SOL    HW120816   4.291   5.018   2.597
 6691SOL    HW220817   4.327   5.140   2.515
 6692SOL     OW20818   5.020   4.970   3.283
 6692SOL    HW120819   5.048   4.898   3.226
 6692SOL    HW220820   5.067   4.955   3.365
 6693SOL     OW20821   4.538   3.724   2.370
 6693SOL    HW120822   4.578   3.808   2.351
 6693SOL    HW220823   4.445   3.744   2.380
 6694SOL     OW20824   3.915   4.691   3.132
 6694SOL    HW120825   3.999   4.648   3.117
 6694SOL    HW220826   3.852   4.635   3.085
 6695SOL     OW20827   4.056   3.974   3.672
 6695SOL    HW120828   4.102   4.057   3.688
 6695SOL    HW220829   3.967   3.989   3.704
 6696SOL     OW20830   5.178   5.153   2.814
 6696SOL    HW120831   5.110   5.162   2.880
 6696SOL    HW220832   5.164   5.065   2.777
 6697SOL     OW20833   0.045   0.163   2.427
 6697SOL    HW120834   0.087   0.123   2.350
 6697SOL    HW220835   0.035   0.091   2.489
 6698SOL     OW20836   4.320   4.446   2.127
 6698SOL    HW120837   4.326   4.527   2.077
 6698SOL    HW220838   4.255   4.465   2.195
 6699SOL     OW20839   4.996   4.061   2.782
 6699SOL    HW120840   4.908   4.031   2.803
 6699SOL    HW220841   5.051   4.026   2.852
 6700SOL     OW20842   4.515   4.342   3.313
 6700SOL    HW120843   4.489   4.318   3.402
 6700SOL    HW220844   4.474   4.275   3.258
 6701SOL     OW20845   5.115   4.203   3.542
 6701SOL    HW120846   5.116   4.241   3.630
 6701SOL    HW220847   5.191   4.145   3.541
 6702SOL     OW20848   4.678   4.612   3.444
 6702SOL    HW120849   4.732   4.541   3.409
 6702SOL    HW220850   4.631   4.646   3.368
 6703SOL     OW20851   4.715   4.137   3.101
 6703SOL    HW120852   4.629   4.158   3.138
 6703SOL    HW220853   4.695   4.090   3.020
 6704SOL     OW20854   4.775   4.422   2.287
 6704SOL    HW120855   4.790   4.416   2.382
 6704SOL    HW220856   4.692   4.375   2.274
 6705SOL     OW20857   3.812   4.544   2.638
 6705SOL    HW120858   3.893   4.538   2.688
 6705SOL    HW220859   3.769   4.622   2.673
 6706SOL     OW20860   4.616   4.071   2.056
 6706SOL    HW120861   4.656   4.132   1.995
 6706SOL    HW220862   4.632   3.985   2.018
 6707SOL     OW20863   5.091   4.867   2.407
 6707SOL    HW120864   5.181   4.866   2.374
 6707SOL    HW220865   5.045   4.928   2.350
 6708SOL     OW20866   4.273   3.906   2.755
 6708SOL    HW120867   4.276   3.935   2.846
 6708SOL    HW220868   4.275   3.987   2.704
 6709SOL     OW20869   4.746   5.169   2.331
 6709SOL    HW120870   4.668   5.224   2.323
 6709SOL    HW220871   4.760   5.162   2.426
 6710SOL     OW20872   4.939   5.261   3.416
 6710SOL    HW120873   4.915   5.178   3.458
 6710SOL    HW220874   4.902   5.254   3.327
 6711SOL     OW20875   4.045   4.680   2.112
 6711SOL    HW120876   4.127   4.700   2.067
 6711SOL    HW220877   4.014   4.599   2.071
 6712SOL     OW20878   4.188   4.987   3.602
 6712SOL    HW120879   4.161   4.990   3.511
 6712SOL    HW220880   4.106   4.986   3.651
 6713SOL     OW20881   4.790   0.174   2.073
 6713SOL    HW120882   4.803   0.117   2.149
 6713SOL    HW220883   4.867   0.158   2.018
 6714SOL     OW20884   3.924   4.005   3.362
 6714SOL    HW120885   3.843   4.056   3.358
 6714SOL    HW220886   3.908   3.938   3.428
 6715SOL     OW20887   5.121   3.831   2.286
 6715SOL    HW120888   5.101   3.813   2.194
 6715SOL    HW220889   5.216   3.846   2.288
 6716SOL     OW20890   4.116   4.419   2.339
 6716SOL    HW120891   4.137   4.327   2.350
 6716SOL    HW220892   4.022   4.425   2.356
 6717SOL     OW20893   4.358   3.847   1.968
 6717SOL    HW120894   4.429   3.784   1.979
 6717SOL    HW220895   4.309   3.815   1.892
 6718SOL     OW20896   4.490   4.002   3.616
 6718SOL    HW120897   4.566   3.943   3.617
 6718SOL    HW220898   4.442   3.981   3.696
 6719SOL     OW20899   5.058   4.315   3.294
 6719SOL    HW120900   5.091   4.283   3.378
 6719SOL    HW220901   5.100   4.400   3.283
 6720SOL     OW20902   4.535   5.120   2.797
 6720SOL    HW120903   4.616   5.107   2.748
 6720SOL    HW220904   4.467   5.126   2.730
 6721SOL     OW20905   4.651   4.233   2.765
 6721SOL    HW120906   4.628   4.224   2.673
 6721SOL    HW220907   4.683   4.146   2.790
 6722SOL     OW20908   4.272   3.787   2.364
 6722SOL    HW120909   4.192   3.788   2.416
 6722SOL    HW220910   4.267   3.865   2.310
 6723SOL     OW20911   5.137   4.904   1.905
 6723SOL    HW120912   5.146   4.826   1.960
 6723SOL    HW220913   5.048   4.935   1.922
 6724SOL     OW20914   4.016   3.771   2.046
 6724SOL    HW120915   4.075   3.836   2.007
 6724SOL    HW220916   4.074   3.708   2.088
 6725SOL     OW20917   4.661   3.970   2.323
 6725SOL    HW120918   4.634   4.011   2.241
 6725SOL    HW220919   4.756   3.982   2.325
 6726SOL     OW20920   4.801   4.405   3.323
 6726SOL    HW120921   4.734   4.337   3.325
 6726SOL    HW220922   4.883   4.357   3.313
 6727SOL     OW20923   4.984   5.266   2.634
 6727SOL    HW120924   4.950   0.053   2.612
 6727SOL    HW220925   5.037   5.281   2.712
 6728SOL     OW20926   4.189   4.871   2.593
 6728SOL    HW120927   4.120   4.852   2.657
 6728SOL    HW220928   4.149   4.854   2.508
 6729SOL     OW20929   4.748   4.268   1.883
 6729SOL    HW120930   4.704   4.351   1.863
 6729SOL    HW220931   4.809   4.290   1.953
 6730SOL     OW20932   3.802   4.279   3.254
 6730SOL    HW120933   3.894   4.277   3.227
 6730SOL    HW220934   3.798   4.349   3.319
 6731SOL     OW20935   4.284   3.951   3.027
 6731SOL    HW120936   4.325   3.874   3.066
 6731SOL    HW220937   4.193   3.947   3.057
 6732SOL     OW20938   4.592   4.183   2.501
 6732SOL    HW120939   4.546   4.238   2.438
 6732SOL    HW220940   4.613   4.103   2.454
 6733SOL     OW20941   4.739   3.777   2.614
 6733SOL    HW120942   4.681   3.769   2.538
 6733SOL    HW220943   4.717   3.701   2.669
 6734SOL     OW20944   5.152   4.901   2.712
 6734SOL    HW120945   5.100   4.822   2.722
 6734SOL    HW220946   5.170   4.906   2.618
 6735SOL     OW20947   4.205   5.145   2.017
 6735SOL    HW120948   4.142   5.093   2.067
 6735SOL    HW220949   4.205   5.105   1.930
 6736SOL     OW20950   5.127   4.286   1.941
 6736SOL    HW120951   5.055   4.277   2.003
 6736SOL    HW220952   5.202   4.249   1.986
 6737SOL     OW20953   4.249   3.987   2.181
 6737SOL    HW120954   4.293   3.939   2.111
 6737SOL    HW220955   4.228   4.072   2.142
 6738SOL     OW20956   4.787   5.073   3.192
 6738SOL    HW120957   4.709   5.049   3.242
 6738SOL    HW220958   4.860   5.036   3.241
 6739SOL     OW20959   4.847   4.922   2.971
 6739SOL    HW120960   4.797   4.965   3.040
 6739SOL    HW220961   4.805   4.951   2.889
 6740SOL     OW20962   4.642   3.822   3.259
 6740SOL    HW120963   4.664   3.804   3.168
 6740SOL    HW220964   4.721   3.861   3.296
 6741SOL     OW20965   4.706   4.833   3.591
 6741SOL    HW120966   4.613   4.852   3.607
 6741SOL    HW220967   4.705   4.759   3.531
 6742SOL     OW20968   4.428   4.781   2.234
 6742SOL    HW120969   4.417   4.767   2.328
 6742SOL    HW220970   4.506   4.731   2.211
 6743SOL     OW20971   4.142   4.538   3.114
 6743SOL    HW120972   4.211   4.548   3.179
 6743SOL    HW220973   4.107   4.450   3.128
 6744SOL     OW20974   4.989   4.100   3.138
 6744SOL    HW120975   5.024   4.179   3.179
 6744SOL    HW220976   4.900   4.123   3.113
 6745SOL     OW20977   4.072   4.832   2.351
 6745SOL    HW120978   4.076   4.905   2.290
 6745SOL    HW220979   4.072   4.754   2.296
 6746SOL     OW20980   4.277   4.261   2.722
 6746SOL    HW120981   4.293   4.319   2.648
 6746SOL    HW220982   4.342   4.288   2.787
 6747SOL     OW20983   4.985   5.077   2.249
 6747SOL    HW120984   5.037   5.152   2.277
 6747SOL    HW220985   4.896   5.098   2.277
 6748SOL     OW20986   4.979   5.181   2.994
 6748SOL    HW120987   5.034   5.203   3.069
 6748SOL    HW220988   4.940   5.096   3.017
 6749SOL     OW20989   4.072   5.236   3.177
 6749SOL    HW120990   4.061   5.201   3.089
 6749SOL    HW220991   4.165   5.257   3.183
 6750SOL     OW20992   4.138   4.468   3.464
 6750SOL    HW120993   4.199   4.514   3.406
 6750SOL    HW220994   4.178   4.383   3.480
 6751SOL     OW20995   4.718   3.847   3.618
 6751SOL    HW120996   4.774   3.920   3.590
 6751SOL    HW220997   4.766   3.769   3.592
 6752SOL     OW20998   4.222   3.765   3.610
 6752SOL    HW120999   4.180   3.711   3.543
 6752SOL    HW221000   4.162   3.839   3.621
 6753SOL     OW21001   4.307   4.596   2.893
 6753SOL    HW121002   4.337   4.687   2.891
 6753SOL    HW221003   4.251   4.592   2.970
 6754SOL     OW21004   5.086   4.581   2.898
 6754SOL    HW121005   5.009   4.564   2.844
 6754SOL    HW221006   5.137   4.500   2.895
 6755SOL     OW21007   4.929   4.255   2.127
 6755SOL    HW121008   4.936   4.175   2.180
 6755SOL    HW221009   4.885   4.318   2.185
 6756SOL     OW21010   4.023   3.923   3.108
 6756SOL    HW121011   3.986   3.955   3.190
 6756SOL    HW221012   4.004   3.829   3.109
 6757SOL     OW21013   3.775   5.046   3.146
 6757SOL    HW121014   3.801   4.982   3.213
 6757SOL    HW221015   3.812   5.129   3.177
 6758SOL     OW21016   4.448   4.355   2.920
 6758SOL    HW121017   4.523   4.338   2.863
 6758SOL    HW221018   4.421   4.444   2.899
 6759SOL     OW21019   4.026   3.788   2.485
 6759SOL    HW121020   4.008   3.879   2.508
 6759SOL    HW221021   4.034   3.743   2.569
 6760SOL     OW21022   0.035   4.117   2.222
 6760SOL    HW121023   0.055   4.043   2.279
 6760SOL    HW221024   0.017   4.189   2.282
 6761SOL     OW21025   4.751   4.483   2.822
 6761SOL    HW121026   4.750   4.501   2.916
 6761SOL    HW221027   4.725   4.391   2.815
 6762SOL     OW21028   4.077   4.640   3.671
 6762SOL    HW121029   4.159   4.659   3.716
 6762SOL    HW221030   4.101   4.577   3.602
 6763SOL     OW21031   5.027   4.553   1.899
 6763SOL    HW121032   5.065   4.465   1.900
 6763SOL    HW221033   5.054   4.589   1.814
 6764SOL     OW21034   4.781   5.078   2.690
 6764SOL    HW121035   4.787   4.993   2.646
 6764SOL    HW221036   4.866   5.119   2.675
 6765SOL     OW21037   4.033   4.533   2.810
 6765SOL    HW121038   4.126   4.554   2.803
 6765SOL    HW221039   4.031   4.443   2.843
 6766SOL     OW21040   4.056   4.250   2.874
 6766SOL    HW121041   4.021   4.162   2.859
 6766SOL    HW221042   4.132   4.255   2.817
 6767SOL     OW21043   4.856   4.101   3.542
 6767SOL    HW121044   4.809   4.156   3.605
 6767SOL    HW221045   4.944   4.139   3.537
 6768SOL     OW21046   4.885   3.927   3.331
 6768SOL    HW121047   4.874   3.989   3.403
 6768SOL    HW221048   4.924   3.979   3.260
 6769SOL     OW21049   3.730   5.041   2.053
 6769SOL    HW121050   3.640   5.058   2.025
 6769SOL    HW221051   3.728   4.953   2.090
 6770SOL     OW21052   4.707   4.517   3.089
 6770SOL    HW121053   4.763   4.494   3.163
 6770SOL    HW221054   4.622   4.479   3.110
 6771SOL     OW21055   3.760   4.268   2.979
 6771SOL    HW121056   3.840   4.254   2.929
 6771SOL    HW221057   3.788   4.272   3.070
 6772SOL     OW21058   3.915   4.243   3.589
 6772SOL    HW121059   3.973   4.206   3.522
 6772SOL    HW221060   3.872   4.316   3.545
 6773SOL     OW21061   5.111   4.663   3.528
 6773SOL    HW121062   5.119   4.757   3.516
 6773SOL    HW221063   5.114   4.627   3.439
 6774SOL     OW21064   4.540   4.293   2.220
 6774SOL    HW121065   4.543   4.218   2.161
 6774SOL    HW221066   4.466   4.345   2.190
 6775SOL     OW21067   3.929   5.277   3.607
 6775SOL    HW121068   3.918   0.030   3.686
 6775SOL    HW221069   3.942   5.188   3.639
 6776SOL     OW21070   4.422   4.175   3.122
 6776SOL    HW121071   4.371   4.101   3.091
 6776SOL    HW221072   4.420   4.238   3.050
 6777SOL     OW21073   4.189   4.217   2.050
 6777SOL    HW121074   4.247   4.290   2.071
 6777SOL    HW221075   4.103   4.257   2.037
 6778SOL     OW21076   3.869   4.863   3.333
 6778SOL    HW121077   3.872   4.811   3.413
 6778SOL    HW221078   3.887   4.800   3.263
 6779SOL     OW21079   5.051   4.770   3.089
 6779SOL    HW121080   5.076   4.709   3.020
 6779SOL    HW221081   4.980   4.822   3.051
 6780SOL     OW21082   5.033   4.584   2.178
 6780SOL    HW121083   4.951   4.550   2.215
 6780SOL    HW221084   5.023   4.575   2.084
 6781SOL     OW21085   3.817   4.986   2.883
 6781SOL    HW121086   3.795   5.003   2.975
 6781SOL    HW221087   3.737   4.947   2.847
 6782SOL     OW21088   4.469   0.035   3.574
 6782SOL    HW121089   4.377   0.061   3.578
 6782SOL    HW221090   4.499   0.065   3.489
 6783SOL     OW21091   0.082   3.883   2.391
 6783SOL    HW121092   0.167   3.871   2.348
 6783SOL    HW221093   0.069   3.803   2.442
 6784SOL     OW21094   5.016   4.643   2.535
 6784SOL    HW121095   5.093   4.588   2.522
 6784SOL    HW221096   5.034   4.722   2.485
 6785SOL     OW21097   4.543   4.993   3.285
 6785SOL    HW121098   4.515   5.029   3.369
 6785SOL    HW221099   4.468   5.005   3.227
 6786SOL     OW21100   3.987   4.040   2.579
 6786SOL    HW121101   3.901   4.076   2.555
 6786SOL    HW221102   3.983   4.032   2.674
 6787SOL     OW21103   4.549   4.728   3.232
 6787SOL    HW121104   4.595   4.722   3.149
 6787SOL    HW221105   4.552   4.821   3.255
 6788SOL     OW21106   4.640   4.635   2.152
 6788SOL    HW121107   4.702   4.668   2.087
 6788SOL    HW221108   4.687   4.565   2.196
 6789SOL     OW21109   4.089   5.025   3.358
 6789SOL    HW121110   4.079   5.100   3.299
 6789SOL    HW221111   4.013   4.970   3.341
 6790SOL     OW21112   4.777   4.833   2.573
 6790SOL    HW121113   4.705   4.782   2.611
 6790SOL    HW221114   4.834   4.767   2.534
 6791SOL     OW21115   4.739   3.963   2.830
 6791SOL    HW121116   4.737   3.916   2.747
 6791SOL    HW221117   4.736   3.895   2.897
 6792SOL     OW21118   3.981   5.053   2.144
 6792SOL    HW121119   3.890   5.055   2.118
 6792SOL    HW221120   3.983   5.095   2.230
 6793SOL     OW21121   3.836   4.744   3.580
 6793SOL    HW121122   3.760   4.722   3.634
 6793SOL    HW221123   3.911   4.708   3.627
 6794SOL     OW21124   4.398   3.920   3.361
 6794SOL    HW121125   4.482   3.901   3.320
 6794SOL    HW221126   4.421   3.951   3.449
 6795SOL     OW21127   3.802   4.058   1.897
 6795SOL    HW121128   3.715   4.039   1.863
 6795SOL    HW221129   3.832   4.133   1.846
 6796SOL     OW21130   5.163   4.584   3.266
 6796SOL    HW121131   5.111   4.641   3.210
 6796SOL    HW221132   5.252   4.591   3.231
 6797SOL     OW21133   3.792   3.880   2.173
 6797SOL    HW121134   3.778   3.960   2.122
 6797SOL    HW221135   3.878   3.848   2.143
 6798SOL     OW21136   4.909   5.059   1.983
 6798SOL    HW121137   4.815   5.041   1.981
 6798SOL    HW221138   4.933   5.055   2.075
 6799SOL     OW21139   4.343   4.555   3.295
 6799SOL    HW121140   4.399   4.631   3.279
 6799SOL    HW221141   4.403   4.481   3.303
 6800SOL     OW21142   4.441   4.288   3.567
 6800SOL    HW121143   4.481   4.350   3.627
 6800SOL    HW221144   4.470   4.202   3.598
 6801SOL     OW21145   5.184   4.928   3.495
 6801SOL    HW121146   5.174   4.940   3.589
 6801SOL    HW221147   5.279   4.932   3.480
 6802SOL     OW21148   4.940   4.044   2.318
 6802SOL    HW121149   5.002   3.972   2.305
 6802SOL    HW221150   4.970   4.088   2.397
 6803SOL     OW21151   4.315   4.462   2.531
 6803SOL    HW121152   4.353   4.548   2.516
 6803SOL    HW221153   4.246   4.455   2.464
 6804SOL     OW21154   4.580   5.095   1.881
 6804SOL    HW121155   4.556   5.098   1.974
 6804SOL    HW221156   4.591   5.187   1.856
 6805SOL     OW21157   4.592   4.691   2.718
 6805SOL    HW121158   4.641   4.620   2.758
 6805SOL    HW221159   4.557   4.741   2.792
 6806SOL     OW21160   4.808   4.712   1.954
 6806SOL    HW121161   4.781   4.760   1.875
 6806SOL    HW221162   4.882   4.658   1.925
 6807SOL     OW21163   3.947   5.024   3.715
 6807SOL    HW121164   3.878   4.963   3.690
 6807SOL    HW221165   3.936   5.036   3.809
 6808SOL     OW21166   3.809   4.956   2.532
 6808SOL    HW121167   3.809   4.903   2.612
 6808SOL    HW221168   3.873   4.913   2.475
 6809SOL     OW21169   4.393   5.106   3.470
 6809SOL    HW121170   4.318   5.073   3.519
 6809SOL    HW221171   4.424   5.181   3.521
 6810SOL     OW21172   4.153   4.158   2.387
 6810SOL    HW121173   4.183   4.087   2.330
 6810SOL    HW221174   4.106   4.114   2.458
 6811SOL     OW21175   0.122   5.228   2.913
 6811SOL    HW121176   0.038   5.205   2.875
 6811SOL    HW221177   0.106   5.233   3.007
 6812SOL     OW21178   4.053   4.278   3.153
 6812SOL    HW121179   4.109   4.223   3.208
 6812SOL    HW221180   4.073   4.251   3.064
 6813SOL     OW21181   5.147   3.942   2.977
 6813SOL    HW121182   5.194   3.878   3.030
 6813SOL    HW221183   5.101   3.998   3.040
 6814SOL     OW21184   4.730   3.743   3.005
 6814SOL    HW121185   4.677   3.674   2.965
 6814SOL    HW221186   4.818   3.706   3.009
 6815SOL     OW21187   4.526   5.047   2.146
 6815SOL    HW121188   4.464   4.976   2.165
 6815SOL    HW221189   4.581   5.053   2.224
 6816SOL     OW21190   4.346   5.299   3.152
 6816SOL    HW121191   4.353   0.054   3.231
 6816SOL    HW221192   4.436   5.280   3.128
 6817SOL     OW21193   5.058   3.770   2.030
 6817SOL    HW121194   5.083   3.729   1.947
 6817SOL    HW221195   4.973   3.731   2.051
 6818SOL     OW21196   5.028   4.182   2.545
 6818SOL    HW121197   4.973   4.260   2.549
 6818SOL    HW221198   5.017   4.141   2.630
 6819SOL     OW21199   0.002   3.948   2.741
 6819SOL    HW121200   5.236   3.938   2.810
 6819SOL    HW221201   5.277   4.029   2.697
 6820SOL     OW21202   3.766   4.795   2.169
 6820SOL    HW121203   3.860   4.789   2.152
 6820SOL    HW221204   3.739   4.706   2.191
 6821SOL     OW21205   3.954   4.347   3.847
 6821SOL    HW121206   3.864   4.347   3.880
 6821SOL    HW221207   3.945   4.322   3.755
 6822SOL     OW21208   3.949   4.005   4.715
 6822SOL    HW121209   3.977   3.971   4.800
 6822SOL    HW221210   3.859   3.973   4.706
 6823SOL     OW21211   3.729   4.107   4.363
 6823SOL    HW121212   3.646   4.131   4.403
 6823SOL    HW221213   3.708   4.027   4.313
 6824SOL     OW21214   4.290   5.004   4.902
 6824SOL    HW121215   4.205   5.004   4.858
 6824SOL    HW221216   4.302   5.095   4.929
 6825SOL     OW21217   5.275   5.232   4.418
 6825SOL    HW121218   5.264   5.216   4.511
 6825SOL    HW221219   5.187   5.232   4.382
 6826SOL     OW21220   4.857   4.423   4.424
 6826SOL    HW121221   4.908   4.504   4.414
 6826SOL    HW221222   4.809   4.435   4.506
 6827SOL     OW21223   4.480   4.868   4.761
 6827SOL    HW121224   4.412   4.900   4.821
 6827SOL    HW221225   4.510   4.947   4.716
 6828SOL     OW21226   4.591   4.500   5.546
 6828SOL    HW121227   4.574   4.571   5.607
 6828SOL    HW221228   4.613   4.543   5.464
 6829SOL     OW21229   4.410   4.727   4.373
 6829SOL    HW121230   4.475   4.716   4.442
 6829SOL    HW221231   4.341   4.780   4.412
 6830SOL     OW21232   4.433   4.874   5.536
 6830SOL    HW121233   4.481   4.953   5.560
 6830SOL    HW221234   4.350   4.906   5.501
 6831SOL     OW21235   4.061   5.152   4.784
 6831SOL    HW121236   3.984   5.108   4.748
 6831SOL    HW221237   4.102   5.196   4.710
 6832SOL     OW21238   5.131   5.237   5.065
 6832SOL    HW121239   5.151   0.008   5.126
 6832SOL    HW221240   5.110   5.162   5.121
 6833SOL     OW21241   4.172   4.122   5.212
 6833SOL    HW121242   4.248   4.064   5.217
 6833SOL    HW221243   4.096   4.065   5.225
 6834SOL     OW21244   4.864   5.052   5.423
 6834SOL    HW121245   4.887   5.066   5.515
 6834SOL    HW221246   4.803   4.978   5.424
 6835SOL     OW21247   3.934   5.155   4.244
 6835SOL    HW121248   3.960   5.238   4.285
 6835SOL    HW221249   3.882   5.111   4.311
 6836SOL     OW21250   3.981   4.811   4.615
 6836SOL    HW121251   3.979   4.724   4.655
 6836SOL    HW221252   3.923   4.865   4.670
 6837SOL     OW21253   4.310   4.705   3.857
 6837SOL    HW121254   4.356   4.755   3.790
 6837SOL    HW221255   4.349   4.735   3.939
 6838SOL     OW21256   3.839   4.376   4.283
 6838SOL    HW121257   3.810   4.288   4.305
 6838SOL    HW221258   3.831   4.425   4.366
 6839SOL     OW21259   3.710   0.014   3.823
 6839SOL    HW121260   3.727   5.225   3.853
 6839SOL    HW221261   3.732   0.069   3.898
 6840SOL     OW21262   0.112   4.659   4.292
 6840SOL    HW121263   0.199   4.626   4.316
 6840SOL    HW221264   0.128   4.748   4.261
 6841SOL     OW21265   3.847   4.466   5.310
 6841SOL    HW121266   3.939   4.491   5.319
 6841SOL    HW221267   3.799   4.549   5.318
 6842SOL     OW21268   4.346   5.097   4.460
 6842SOL    HW121269   4.291   5.018   4.459
 6842SOL    HW221270   4.326   5.141   4.377
 6843SOL     OW21271   5.020   4.970   5.145
 6843SOL    HW121272   5.048   4.898   5.088
 6843SOL    HW221273   5.067   4.955   5.227
 6844SOL     OW21274   4.538   3.724   4.232
 6844SOL    HW121275   4.578   3.808   4.213
 6844SOL    HW221276   4.445   3.744   4.242
 6845SOL     OW21277   3.915   4.691   4.994
 6845SOL    HW121278   3.999   4.648   4.979
 6845SOL    HW221279   3.852   4.635   4.948
 6846SOL     OW21280   4.056   3.974   5.533
 6846SOL    HW121281   4.102   4.057   5.550
 6846SOL    HW221282   3.967   3.989   5.566
 6847SOL     OW21283   5.178   5.153   4.676
 6847SOL    HW121284   5.110   5.162   4.742
 6847SOL    HW221285   5.164   5.065   4.639
 6848SOL     OW21286   0.045   0.163   4.289
 6848SOL    HW121287   0.087   0.123   4.212
 6848SOL    HW221288   0.035   0.091   4.351
 6849SOL     OW21289   4.320   4.446   3.989
 6849SOL    HW121290   4.326   4.527   3.939
 6849SOL    HW221291   4.255   4.465   4.057
 6850SOL     OW21292   4.996   4.061   4.644
 6850SOL    HW121293   4.908   4.031   4.665
 6850SOL    HW221294   5.051   4.026   4.714
 6851SOL     OW21295   4.515   4.342   5.175
 6851SOL    HW121296   4.489   4.318   5.264
 6851SOL    HW221297   4.474   4.275   5.120
 6852SOL     OW21298   5.115   4.203   5.404
 6852SOL    HW121299   5.116   4.241   5.492
 6852SOL    HW221300   5.190   4.144   5.403
 6853SOL     OW21301   4.678   4.612   5.306
 6853SOL    HW121302   4.732   4.541   5.271
 6853SOL    HW221303   4.631   4.646   5.230
 6854SOL     OW21304   4.715   4.137   4.963
 6854SOL    HW121305   4.629   4.158   5.000
 6854SOL    HW221306   4.695   4.090   4.882
 6855SOL     OW21307   4.774   4.422   4.149
 6855SOL    HW121308   4.790   4.416   4.244
 6855SOL    HW221309   4.692   4.375   4.136
 6856SOL     OW21310   3.812   4.544   4.500
 6856SOL    HW121311   3.893   4.538   4.550
 6856SOL    HW221312   3.769   4.622   4.535
 6857SOL     OW21313   4.616   4.071   3.918
 6857SOL    HW121314   4.656   4.132   3.857
 6857SOL    HW221315   4.632   3.985   3.880
 6858SOL     OW21316   5.091   4.867   4.269
 6858SOL    HW121317   5.181   4.866   4.236
 6858SOL    HW221318   5.045   4.928   4.212
 6859SOL     OW21319   4.273   3.906   4.617
 6859SOL    HW121320   4.276   3.934   4.708
 6859SOL    HW221321   4.275   3.987   4.566
 6860SOL     OW21322   4.746   5.169   4.193
 6860SOL    HW121323   4.668   5.224   4.185
 6860SOL    HW221324   4.760   5.162   4.288
 6861SOL     OW21325   4.939   5.260   5.277
 6861SOL    HW121326   4.916   5.178   5.320
 6861SOL    HW221327   4.902   5.254   5.190
 6862SOL     OW21328   4.045   4.680   3.974
 6862SOL    HW121329   4.127   4.700   3.929
 6862SOL    HW221330   4.014   4.599   3.933
 6863SOL     OW21331   4.188   4.987   5.464
 6863SOL    HW121332   4.161   4.989   5.373
 6863SOL    HW221333   4.106   4.986   5.513
 6864SOL     OW21334   4.790   0.174   3.935
 6864SOL    HW121335   4.803   0.118   4.011
 6864SOL    HW221336   4.868   0.158   3.881
 6865SOL     OW21337   3.924   4.005   5.224
 6865SOL    HW121338   3.843   4.056   5.221
 6865SOL    HW221339   3.908   3.939   5.291
 6866SOL     OW21340   5.121   3.831   4.148
 6866SOL    HW121341   5.101   3.813   4.056
 6866SOL    HW221342   5.216   3.846   4.150
 6867SOL     OW21343   4.116   4.419   4.201
 6867SOL    HW121344   4.137   4.327   4.212
 6867SOL    HW221345   4.022   4.425   4.218
 6868SOL     OW21346   4.357   3.847   3.830
 6868SOL    HW121347   4.429   3.784   3.841
 6868SOL    HW221348   4.309   3.815   3.754
 6869SOL     OW21349   4.490   4.002   5.478
 6869SOL    HW121350   4.566   3.943   5.479
 6869SOL    HW221351   4.442   3.981   5.558
 6870SOL     OW21352   5.058   4.315   5.156
 6870SOL    HW121353   5.091   4.283   5.240
 6870SOL    HW221354   5.100   4.400   5.145
 6871SOL     OW21355   4.535   5.120   4.659
 6871SOL    HW121356   4.616   5.107   4.610
 6871SOL    HW221357   4.467   5.126   4.592
 6872SOL     OW21358   4.651   4.233   4.627
 6872SOL    HW121359   4.628   4.224   4.535
 6872SOL    HW221360   4.683   4.146   4.652
 6873SOL     OW21361   4.272   3.787   4.227
 6873SOL    HW121362   4.192   3.788   4.278
 6873SOL    HW221363   4.267   3.865   4.172
 6874SOL     OW21364   5.137   4.904   3.767
 6874SOL    HW121365   5.146   4.826   3.822
 6874SOL    HW221366   5.048   4.935   3.784
 6875SOL     OW21367   4.016   3.771   3.908
 6875SOL    HW121368   4.074   3.836   3.869
 6875SOL    HW221369   4.075   3.708   3.950
 6876SOL     OW21370   4.661   3.970   4.185
 6876SOL    HW121371   4.634   4.011   4.102
 6876SOL    HW221372   4.756   3.982   4.187
 6877SOL     OW21373   4.801   4.405   5.185
 6877SOL    HW121374   4.734   4.337   5.187
 6877SOL    HW221375   4.884   4.357   5.175
 6878SOL     OW21376   4.984   5.266   4.496
 6878SOL    HW121377   4.950   0.053   4.474
 6878SOL    HW221378   5.037   5.281   4.574
 6879SOL     OW21379   4.189   4.871   4.455
 6879SOL    HW121380   4.120   4.852   4.519
 6879SOL    HW221381   4.149   4.854   4.370
 6880SOL     OW21382   4.748   4.268   3.745
 6880SOL    HW121383   4.704   4.351   3.725
 6880SOL    HW221384   4.810   4.290   3.815
 6881SOL     OW21385   3.802   4.279   5.116
 6881SOL    HW121386   3.894   4.277   5.089
 6881SOL    HW221387   3.798   4.349   5.181
 6882SOL     OW21388   4.283   3.951   4.889
 6882SOL    HW121389   4.325   3.874   4.929
 6882SOL    HW221390   4.193   3.947   4.919
 6883SOL     OW21391   4.592   4.183   4.363
 6883SOL    HW121392   4.546   4.238   4.300
 6883SOL    HW221393   4.613   4.103   4.316
 6884SOL     OW21394   4.738   3.777   4.477
 6884SOL    HW121395   4.681   3.769   4.400
 6884SOL    HW221396   4.717   3.701   4.531
 6885SOL     OW21397   5.152   4.901   4.574
 6885SOL    HW121398   5.100   4.822   4.584
 6885SOL    HW221399   5.170   4.906   4.480
 6886SOL     OW21400   4.205   5.145   3.879
 6886SOL    HW121401   4.142   5.093   3.929
 6886SOL    HW221402   4.205   5.105   3.792
 6887SOL     OW21403   5.127   4.287   3.803
 6887SOL    HW121404   5.055   4.277   3.866
 6887SOL    HW221405   5.203   4.248   3.848
 6888SOL     OW21406   4.249   3.987   4.043
 6888SOL    HW121407   4.293   3.939   3.973
 6888SOL    HW221408   4.228   4.072   4.004
 6889SOL     OW21409   4.787   5.073   5.054
 6889SOL    HW121410   4.709   5.049   5.104
 6889SOL    HW221411   4.860   5.036   5.103
 6890SOL     OW21412   4.847   4.922   4.833
 6890SOL    HW121413   4.797   4.965   4.902
 6890SOL    HW221414   4.805   4.951   4.751
 6891SOL     OW21415   4.642   3.822   5.121
 6891SOL    HW121416   4.664   3.804   5.030
 6891SOL    HW221417   4.721   3.861   5.158
 6892SOL     OW21418   4.706   4.833   5.453
 6892SOL    HW121419   4.613   4.852   5.469
 6892SOL    HW221420   4.705   4.759   5.393
 6893SOL     OW21421   4.428   4.781   4.096
 6893SOL    HW121422   4.416   4.767   4.190
 6893SOL    HW221423   4.506   4.731   4.073
 6894SOL     OW21424   4.142   4.538   4.975
 6894SOL    HW121425   4.211   4.548   5.041
 6894SOL    HW221426   4.107   4.450   4.990
 6895SOL     OW21427   4.989   4.100   5.000
 6895SOL    HW121428   5.024   4.179   5.041
 6895SOL    HW221429   4.900   4.123   4.975
 6896SOL     OW21430   4.072   4.832   4.213
 6896SOL    HW121431   4.076   4.905   4.152
 6896SOL    HW221432   4.072   4.754   4.158
 6897SOL     OW21433   4.277   4.261   4.584
 6897SOL    HW121434   4.293   4.319   4.510
 6897SOL    HW221435   4.342   4.288   4.649
 6898SOL     OW21436   4.985   5.077   4.111
 6898SOL    HW121437   5.037   5.152   4.139
 6898SOL    HW221438   4.896   5.098   4.139
 6899SOL     OW21439   4.979   5.181   4.856
 6899SOL    HW121440   5.034   5.203   4.931
 6899SOL    HW221441   4.940   5.096   4.879
 6900SOL     OW21442   4.072   5.236   5.039
 6900SOL    HW121443   4.061   5.201   4.951
 6900SOL    HW221444   4.165   5.257   5.045
 6901SOL     OW21445   4.138   4.468   5.326
 6901SOL    HW121446   4.199   4.514   5.268
 6901SOL    HW221447   4.178   4.383   5.342
 6902SOL     OW21448   4.718   3.847   5.480
 6902SOL    HW121449   4.774   3.920   5.452
 6902SOL    HW221450   4.766   3.769   5.454
 6903SOL     OW21451   4.222   3.765   5.471
 6903SOL    HW121452   4.179   3.711   5.405
 6903SOL    HW221453   4.162   3.839   5.483
 6904SOL     OW21454   4.307   4.596   4.755
 6904SOL    HW121455   4.337   4.687   4.753
 6904SOL    HW221456   4.251   4.592   4.832
 6905SOL     OW21457   5.086   4.581   4.760
 6905SOL    HW121458   5.009   4.563   4.706
 6905SOL    HW221459   5.137   4.500   4.757
 6906SOL     OW21460   4.929   4.255   3.989
 6906SOL    HW121461   4.936   4.175   4.042
 6906SOL    HW221462   4.885   4.318   4.047
 6907SOL     OW21463   4.023   3.922   4.970
 6907SOL    HW121464   3.986   3.956   5.052
 6907SOL    HW221465   4.003   3.829   4.972
 6908SOL     OW21466   3.775   5.046   5.008
 6908SOL    HW121467   3.801   4.982   5.075
 6908SOL    HW221468   3.811   5.129   5.040
 6909SOL     OW21469   4.448   4.355   4.782
 6909SOL    HW121470   4.523   4.338   4.725
 6909SOL    HW221471   4.421   4.444   4.761
 6910SOL     OW21472   4.026   3.788   4.347
 6910SOL    HW121473   4.008   3.879   4.371
 6910SOL    HW221474   4.034   3.743   4.431
 6911SOL     OW21475   0.035   4.117   4.084
 6911SOL    HW121476   0.055   4.043   4.141
 6911SOL    HW221477   0.017   4.189   4.144
 6912SOL     OW21478   4.751   4.483   4.684
 6912SOL    HW121479   4.750   4.501   4.778
 6912SOL    HW221480   4.725   4.391   4.677
 6913SOL     OW21481   4.077   4.640   5.533
 6913SOL    HW121482   4.159   4.659   5.578
 6913SOL    HW221483   4.102   4.577   5.464
 6914SOL     OW21484   5.027   4.553   3.761
 6914SOL    HW121485   5.065   4.465   3.762
 6914SOL    HW221486   5.054   4.589   3.676
 6915SOL     OW21487   4.781   5.078   4.552
 6915SOL    HW121488   4.787   4.993   4.508
 6915SOL    HW221489   4.866   5.119   4.537
 6916SOL     OW21490   4.033   4.533   4.671
 6916SOL    HW121491   4.126   4.555   4.665
 6916SOL    HW221492   4.031   4.443   4.705
 6917SOL     OW21493   4.056   4.249   4.736
 6917SOL    HW121494   4.021   4.162   4.721
 6917SOL    HW221495   4.132   4.255   4.679
 6918SOL     OW21496   4.856   4.101   5.404
 6918SOL    HW121497   4.809   4.156   5.467
 6918SOL    HW221498   4.944   4.139   5.399
 6919SOL     OW21499   4.885   3.927   5.193
 6919SOL    HW121500   4.874   3.989   5.265
 6919SOL    HW221501   4.924   3.979   5.122
 6920SOL     OW21502   3.730   5.041   3.914
 6920SOL    HW121503   3.640   5.058   3.887
 6920SOL    HW221504   3.728   4.953   3.952
 6921SOL     OW21505   4.707   4.516   4.951
 6921SOL    HW121506   4.763   4.494   5.025
 6921SOL    HW221507   4.622   4.479   4.972
 6922SOL     OW21508   3.760   4.267   4.841
 6922SOL    HW121509   3.841   4.255   4.791
 6922SOL    HW221510   3.788   4.272   4.932
 6923SOL     OW21511   3.915   4.243   5.451
 6923SOL    HW121512   3.973   4.206   5.384
 6923SOL    HW221513   3.872   4.316   5.407
 6924SOL     OW21514   5.112   4.663   5.390
 6924SOL    HW121515   5.119   4.757   5.378
 6924SOL    HW221516   5.114   4.627   5.301
 6925SOL     OW21517   4.540   4.293   4.082
 6925SOL    HW121518   4.543   4.218   4.023
 6925SOL    HW221519   4.466   4.345   4.052
 6926SOL     OW21520   3.929   5.277   5.469
 6926SOL    HW121521   3.917   0.030   5.547
 6926SOL    HW221522   3.942   5.188   5.502
 6927SOL     OW21523   4.422   4.175   4.984
 6927SOL    HW121524   4.371   4.101   4.953
 6927SOL    HW221525   4.420   4.238   4.912
 6928SOL     OW21526   4.189   4.217   3.912
 6928SOL    HW121527   4.247   4.290   3.933
 6928SOL    HW221528   4.103   4.257   3.899
 6929SOL     OW21529   3.869   4.863   5.195
 6929SOL    HW121530   3.872   4.811   5.275
 6929SOL    HW221531   3.887   4.800   5.125
 6930SOL     OW21532   5.051   4.770   4.951
 6930SOL    HW121533   5.076   4.709   4.882
 6930SOL    HW221534   4.980   4.822   4.913
 6931SOL     OW21535   5.033   4.584   4.040
 6931SOL    HW121536   4.951   4.550   4.077
 6931SOL    HW221537   5.023   4.575   3.945
 6932SOL     OW21538   3.817   4.986   4.745
 6932SOL    HW121539   3.796   5.003   4.837
 6932SOL    HW221540   3.737   4.948   4.709
 6933SOL     OW21541   4.469   0.035   5.436
 6933SOL    HW121542   4.377   0.061   5.440
 6933SOL    HW221543   4.499   0.065   5.351
 6934SOL     OW21544   0.082   3.883   4.253
 6934SOL    HW121545   0.167   3.871   4.210
 6934SOL    HW221546   0.069   3.803   4.304
 6935SOL     OW21547   5.016   4.643   4.397
 6935SOL    HW121548   5.093   4.588   4.384
 6935SOL    HW221549   5.034   4.722   4.347
 6936SOL     OW21550   4.543   4.993   5.147
 6936SOL    HW121551   4.515   5.029   5.231
 6936SOL    HW221552   4.468   5.005   5.089
 6937SOL     OW21553   3.987   4.040   4.441
 6937SOL    HW121554   3.901   4.076   4.417
 6937SOL    HW221555   3.983   4.032   4.536
 6938SOL     OW21556   4.549   4.728   5.094
 6938SOL    HW121557   4.595   4.722   5.011
 6938SOL    HW221558   4.552   4.821   5.117
 6939SOL     OW21559   4.640   4.635   4.014
 6939SOL    HW121560   4.702   4.668   3.949
 6939SOL    HW221561   4.687   4.565   4.058
 6940SOL     OW21562   4.089   5.025   5.220
 6940SOL    HW121563   4.079   5.100   5.161
 6940SOL    HW221564   4.013   4.970   5.203
 6941SOL     OW21565   4.777   4.833   4.435
 6941SOL    HW121566   4.705   4.782   4.473
 6941SOL    HW221567   4.834   4.767   4.396
 6942SOL     OW21568   4.739   3.963   4.692
 6942SOL    HW121569   4.737   3.916   4.609
 6942SOL    HW221570   4.736   3.895   4.759
 6943SOL     OW21571   3.982   5.053   4.006
 6943SOL    HW121572   3.890   5.055   3.979
 6943SOL    HW221573   3.983   5.095   4.092
 6944SOL     OW21574   3.836   4.744   5.442
 6944SOL    HW121575   3.760   4.722   5.496
 6944SOL    HW221576   3.911   4.708   5.490
 6945SOL     OW21577   4.398   3.920   5.223
 6945SOL    HW121578   4.482   3.901   5.182
 6945SOL    HW221579   4.421   3.951   5.311
 6946SOL     OW21580   3.802   4.059   3.759
 6946SOL    HW121581   3.715   4.039   3.724
 6946SOL    HW221582   3.832   4.133   3.708
 6947SOL     OW21583   5.163   4.584   5.128
 6947SOL    HW121584   5.111   4.641   5.072
 6947SOL    HW221585   5.252   4.591   5.093
 6948SOL     OW21586   3.792   3.880   4.034
 6948SOL    HW121587   3.779   3.961   3.984
 6948SOL    HW221588   3.878   3.848   4.005
 6949SOL     OW21589   4.909   5.059   3.845
 6949SOL    HW121590   4.815   5.041   3.843
 6949SOL    HW221591   4.933   5.055   3.937
 6950SOL     OW21592   4.343   4.555   5.157
 6950SOL    HW121593   4.399   4.631   5.141
 6950SOL    HW221594   4.403   4.481   5.165
 6951SOL     OW21595   4.441   4.288   5.429
 6951SOL    HW121596   4.481   4.350   5.489
 6951SOL    HW221597   4.470   4.202   5.460
 6952SOL     OW21598   5.184   4.928   5.357
 6952SOL    HW121599   5.174   4.940   5.451
 6952SOL    HW221600   5.279   4.932   5.342
 6953SOL     OW21601   4.940   4.044   4.180
 6953SOL    HW121602   5.002   3.972   4.167
 6953SOL    HW221603   4.970   4.088   4.259
 6954SOL     OW21604   4.315   4.462   4.393
 6954SOL    HW121605   4.353   4.548   4.378
 6954SOL    HW221606   4.246   4.455   4.326
 6955SOL     OW21607   4.580   5.095   3.743
 6955SOL    HW121608   4.556   5.098   3.836
 6955SOL    HW221609   4.591   5.187   3.718
 6956SOL     OW21610   4.592   4.691   4.580
 6956SOL    HW121611   4.642   4.620   4.620
 6956SOL    HW221612   4.557   4.741   4.654
 6957SOL     OW21613   4.808   4.712   3.816
 6957SOL    HW121614   4.781   4.760   3.737
 6957SOL    HW221615   4.882   4.658   3.787
 6958SOL     OW21616   3.947   5.024   5.577
 6958SOL    HW121617   3.878   4.963   5.552
 6958SOL    HW221618   3.936   5.036   5.671
 6959SOL     OW21619   3.809   4.956   4.394
 6959SOL    HW121620   3.810   4.903   4.474
 6959SOL    HW221621   3.873   4.913   4.337
 6960SOL     OW21622   4.394   5.106   5.333
 6960SOL    HW121623   4.318   5.073   5.381
 6960SOL    HW221624   4.424   5.181   5.383
 6961SOL     OW21625   4.153   4.158   4.249
 6961SOL    HW121626   4.183   4.087   4.192
 6961SOL    HW221627   4.106   4.113   4.320
 6962SOL     OW21628   0.123   5.228   4.775
 6962SOL    HW121629   0.038   5.205   4.737
 6962SOL    HW221630   0.107   5.233   4.869
 6963SOL     OW21631   4.053   4.278   5.015
 6963SOL    HW121632   4.109   4.224   5.071
 6963SOL    HW221633   4.073   4.251   4.926
 6964SOL     OW21634   5.147   3.942   4.839
 6964SOL    HW121635   5.194   3.878   4.892
 6964SOL    HW221636   5.101   3.998   4.902
 6965SOL     OW21637   4.730   3.743   4.867
 6965SOL    HW121638   4.677   3.674   4.826
 6965SOL    HW221639   4.818   3.706   4.871
 6966SOL     OW21640   4.526   5.046   4.008
 6966SOL    HW121641   4.464   4.976   4.027
 6966SOL    HW221642   4.580   5.053   4.086
 6967SOL     OW21643   4.346   5.299   5.014
 6967SOL    HW121644   4.353   0.054   5.093
 6967SOL    HW221645   4.436   5.280   4.990
 6968SOL     OW21646   5.058   3.770   3.892
 6968SOL    HW121647   5.084   3.729   3.809
 6968SOL    HW221648   4.973   3.732   3.913
 6969SOL     OW21649   5.028   4.182   4.407
 6969SOL    HW121650   4.973   4.260   4.411
 6969SOL    HW221651   5.017   4.141   4.492
 6970SOL     OW21652   0.002   3.948   4.603
 6970SOL    HW121653   5.236   3.938   4.672
 6970SOL    HW221654   5.277   4.029   4.559
 6971SOL     OW21655   3.766   4.795   4.031
 6971SOL    HW121656   3.860   4.789   4.014
 6971SOL    HW221657   3.739   4.706   4.053
 6972SOL     OW21658   3.954   4.347   5.709
 6972SOL    HW121659   3.864   4.347   5.743
 6972SOL    HW221660   3.944   4.322   5.617
 6973SOL     OW21661   3.949   4.005   6.577
 6973SOL    HW121662   3.977   3.971   6.662
 6973SOL    HW221663   3.859   3.973   6.568
 6974SOL     OW21664   3.728   4.107   6.224
 6974SOL    HW121665   3.646   4.131   6.265
 6974SOL    HW221666   3.708   4.027   6.175
 6975SOL     OW21667   4.290   5.004   6.764
 6975SOL    HW121668   4.205   5.003   6.720
 6975SOL    HW221669   4.302   5.096   6.791
 6976SOL     OW21670   5.275   5.232   6.280
 6976SOL    HW121671   5.264   5.216   6.373
 6976SOL    HW221672   5.187   5.232   6.244
 6977SOL     OW21673   4.857   4.423   6.286
 6977SOL    HW121674   4.908   4.504   6.276
 6977SOL    HW221675   4.809   4.435   6.368
 6978SOL     OW21676   4.481   4.868   6.624
 6978SOL    HW121677   4.413   4.900   6.683
 6978SOL    HW221678   4.510   4.947   6.578
 6979SOL     OW21679   4.591   4.502   7.407
 6979SOL    HW121680   4.569   4.576   7.463
 6979SOL    HW221681   4.615   4.541   7.323
 6980SOL     OW21682   4.410   4.727   6.234
 6980SOL    HW121683   4.475   4.716   6.304
 6980SOL    HW221684   4.341   4.780   6.274
 6981SOL     OW21685   4.433   4.874   7.398
 6981SOL    HW121686   4.481   4.954   7.421
 6981SOL    HW221687   4.350   4.906   7.362
 6982SOL     OW21688   4.061   5.152   6.646
 6982SOL    HW121689   3.984   5.108   6.610
 6982SOL    HW221690   4.101   5.196   6.571
 6983SOL     OW21691   5.131   5.237   6.927
 6983SOL    HW121692   5.152   0.008   6.988
 6983SOL    HW221693   5.109   5.162   6.983
 6984SOL     OW21694   4.173   4.123   7.075
 6984SOL    HW121695   4.248   4.064   7.079
 6984SOL    HW221696   4.096   4.066   7.087
 6985SOL     OW21697   4.864   5.052   7.284
 6985SOL    HW121698   4.889   5.064   7.375
 6985SOL    HW221699   4.803   4.978   7.286
 6986SOL     OW21700   3.934   5.155   6.106
 6986SOL    HW121701   3.960   5.238   6.147
 6986SOL    HW221702   3.882   5.111   6.173
 6987SOL     OW21703   3.981   4.811   6.477
 6987SOL    HW121704   3.979   4.724   6.517
 6987SOL    HW221705   3.923   4.864   6.533
 6988SOL     OW21706   4.311   4.705   5.719
 6988SOL    HW121707   4.356   4.755   5.652
 6988SOL    HW221708   4.349   4.735   5.801
 6989SOL     OW21709   3.839   4.376   6.145
 6989SOL    HW121710   3.810   4.287   6.166
 6989SOL    HW221711   3.831   4.424   6.228
 6990SOL     OW21712   3.710   0.014   5.685
 6990SOL    HW121713   3.727   5.225   5.715
 6990SOL    HW221714   3.733   0.069   5.760
 6991SOL     OW21715   0.112   4.659   6.155
 6991SOL    HW121716   0.199   4.626   6.178
 6991SOL    HW221717   0.127   4.748   6.123
 6992SOL     OW21718   3.847   4.466   7.172
 6992SOL    HW121719   3.939   4.491   7.181
 6992SOL    HW221720   3.799   4.548   7.180
 6993SOL     OW21721   4.346   5.097   6.322
 6993SOL    HW121722   4.291   5.018   6.321
 6993SOL    HW221723   4.326   5.141   6.239
 6994SOL     OW21724   5.020   4.970   7.007
 6994SOL    HW121725   5.048   4.898   6.950
 6994SOL    HW221726   5.067   4.955   7.089
 6995SOL     OW21727   4.538   3.724   6.094
 6995SOL    HW121728   4.578   3.808   6.075
 6995SOL    HW221729   4.445   3.744   6.104
 6996SOL     OW21730   3.915   4.691   6.856
 6996SOL    HW121731   3.999   4.648   6.841
 6996SOL    HW221732   3.851   4.635   6.810
 6997SOL     OW21733   4.056   3.973   7.397
 6997SOL    HW121734   4.101   4.056   7.411
 6997SOL    HW221735   3.967   3.989   7.429
 6998SOL     OW21736   5.178   5.152   6.538
 6998SOL    HW121737   5.110   5.162   6.604
 6998SOL    HW221738   5.164   5.065   6.501
 6999SOL     OW21739   0.045   0.163   6.151
 6999SOL    HW121740   0.087   0.123   6.074
 6999SOL    HW221741   0.035   0.091   6.213
 7000SOL     OW21742   4.320   4.446   5.851
 7000SOL    HW121743   4.326   4.527   5.801
 7000SOL    HW221744   4.255   4.465   5.919
 7001SOL     OW21745   4.996   4.061   6.506
 7001SOL    HW121746   4.908   4.031   6.527
 7001SOL    HW221747   5.051   4.026   6.576
 7002SOL     OW21748   4.515   4.342   7.038
 7002SOL    HW121749   4.489   4.318   7.127
 7002SOL    HW221750   4.475   4.275   6.982
 7003SOL     OW21751   5.115   4.204   7.266
 7003SOL    HW121752   5.116   4.242   7.354
 7003SOL    HW221753   5.190   4.145   7.264
 7004SOL     OW21754   4.679   4.612   7.167
 7004SOL    HW121755   4.732   4.541   7.132
 7004SOL    HW221756   4.631   4.646   7.092
 7005SOL     OW21757   4.715   4.138   6.825
 7005SOL    HW121758   4.629   4.158   6.862
 7005SOL    HW221759   4.695   4.090   6.744
 7006SOL     OW21760   4.775   4.422   6.011
 7006SOL    HW121761   4.790   4.416   6.106
 7006SOL    HW221762   4.692   4.375   5.998
 7007SOL     OW21763   3.812   4.545   6.362
 7007SOL    HW121764   3.893   4.538   6.412
 7007SOL    HW221765   3.769   4.622   6.397
 7008SOL     OW21766   4.616   4.071   5.780
 7008SOL    HW121767   4.656   4.132   5.719
 7008SOL    HW221768   4.632   3.985   5.742
 7009SOL     OW21769   5.091   4.867   6.131
 7009SOL    HW121770   5.181   4.866   6.098
 7009SOL    HW221771   5.045   4.928   6.074
 7010SOL     OW21772   4.274   3.906   6.479
 7010SOL    HW121773   4.276   3.934   6.570
 7010SOL    HW221774   4.275   3.988   6.428
 7011SOL     OW21775   4.746   5.169   6.055
 7011SOL    HW121776   4.668   5.224   6.047
 7011SOL    HW221777   4.760   5.162   6.150
 7012SOL     OW21778   4.940   5.260   7.140
 7012SOL    HW121779   4.916   5.178   7.182
 7012SOL    HW221780   4.902   5.255   7.052
 7013SOL     OW21781   4.045   4.680   5.836
 7013SOL    HW121782   4.127   4.700   5.791
 7013SOL    HW221783   4.014   4.599   5.796
 7014SOL     OW21784   4.187   4.986   7.328
 7014SOL    HW121785   4.160   4.989   7.236
 7014SOL    HW221786   4.105   4.986   7.376
 7015SOL     OW21787   4.790   0.174   5.797
 7015SOL    HW121788   4.803   0.118   5.873
 7015SOL    HW221789   4.868   0.158   5.742
 7016SOL     OW21790   3.925   4.006   7.087
 7016SOL    HW121791   3.842   4.054   7.081
 7016SOL    HW221792   3.907   3.936   7.150
 7017SOL     OW21793   5.121   3.831   6.010
 7017SOL    HW121794   5.101   3.813   5.918
 7017SOL    HW221795   5.216   3.846   6.012
 7018SOL     OW21796   4.116   4.419   6.063
 7018SOL    HW121797   4.137   4.327   6.074
 7018SOL    HW221798   4.022   4.425   6.080
 7019SOL     OW21799   4.358   3.847   5.692
 7019SOL    HW121800   4.429   3.784   5.703
 7019SOL    HW221801   4.310   3.815   5.615
 7020SOL     OW21802   4.489   4.001   7.339
 7020SOL    HW121803   4.566   3.943   7.341
 7020SOL    HW221804   4.445   3.985   7.423
 7021SOL     OW21805   5.058   4.316   7.018
 7021SOL    HW121806   5.091   4.283   7.102
 7021SOL    HW221807   5.100   4.401   7.007
 7022SOL     OW21808   4.535   5.120   6.521
 7022SOL    HW121809   4.616   5.107   6.472
 7022SOL    HW221810   4.467   5.126   6.454
 7023SOL     OW21811   4.651   4.233   6.489
 7023SOL    HW121812   4.628   4.224   6.397
 7023SOL    HW221813   4.683   4.147   6.514
 7024SOL     OW21814   4.272   3.787   6.089
 7024SOL    HW121815   4.192   3.788   6.140
 7024SOL    HW221816   4.267   3.865   6.034
 7025SOL     OW21817   5.137   4.904   5.629
 7025SOL    HW121818   5.146   4.826   5.683
 7025SOL    HW221819   5.048   4.935   5.646
 7026SOL     OW21820   4.016   3.771   5.770
 7026SOL    HW121821   4.075   3.836   5.732
 7026SOL    HW221822   4.074   3.708   5.812
 7027SOL     OW21823   4.661   3.970   6.047
 7027SOL    HW121824   4.634   4.011   5.965
 7027SOL    HW221825   4.756   3.982   6.049
 7028SOL     OW21826   4.801   4.405   7.047
 7028SOL    HW121827   4.734   4.337   7.049
 7028SOL    HW221828   4.883   4.356   7.037
 7029SOL     OW21829   4.984   5.266   6.358
 7029SOL    HW121830   4.949   0.052   6.336
 7029SOL    HW221831   5.037   5.281   6.436
 7030SOL     OW21832   4.189   4.871   6.317
 7030SOL    HW121833   4.120   4.852   6.381
 7030SOL    HW221834   4.149   4.854   6.232
 7031SOL     OW21835   4.748   4.268   5.607
 7031SOL    HW121836   4.704   4.351   5.587
 7031SOL    HW221837   4.809   4.290   5.677
 7032SOL     OW21838   3.802   4.279   6.978
 7032SOL    HW121839   3.894   4.277   6.951
 7032SOL    HW221840   3.798   4.349   7.043
 7033SOL     OW21841   4.284   3.951   6.751
 7033SOL    HW121842   4.325   3.874   6.791
 7033SOL    HW221843   4.193   3.947   6.781
 7034SOL     OW21844   4.593   4.183   6.225
 7034SOL    HW121845   4.546   4.238   6.162
 7034SOL    HW221846   4.613   4.103   6.178
 7035SOL     OW21847   4.739   3.777   6.338
 7035SOL    HW121848   4.681   3.769   6.262
 7035SOL    HW221849   4.717   3.701   6.393
 7036SOL     OW21850   5.153   4.901   6.436
 7036SOL    HW121851   5.100   4.822   6.446
 7036SOL    HW221852   5.170   4.906   6.342
 7037SOL     OW21853   4.205   5.145   5.742
 7037SOL    HW121854   4.142   5.093   5.792
 7037SOL    HW221855   4.205   5.106   5.654
 7038SOL     OW21856   5.127   4.287   5.665
 7038SOL    HW121857   5.055   4.277   5.728
 7038SOL    HW221858   5.202   4.248   5.710
 7039SOL     OW21859   4.249   3.987   5.905
 7039SOL    HW121860   4.293   3.939   5.835
 7039SOL    HW221861   4.228   4.072   5.866
 7040SOL     OW21862   4.787   5.074   6.916
 7040SOL    HW121863   4.709   5.049   6.966
 7040SOL    HW221864   4.860   5.036   6.965
 7041SOL     OW21865   4.848   4.923   6.695
 7041SOL    HW121866   4.797   4.965   6.764
 7041SOL    HW221867   4.805   4.950   6.613
 7042SOL     OW21868   4.641   3.822   6.983
 7042SOL    HW121869   4.664   3.804   6.892
 7042SOL    HW221870   4.721   3.861   7.020
 7043SOL     OW21871   4.706   4.832   7.317
 7043SOL    HW121872   4.614   4.853   7.331
 7043SOL    HW221873   4.706   4.759   7.256
 7044SOL     OW21874   4.428   4.781   5.958
 7044SOL    HW121875   4.416   4.767   6.052
 7044SOL    HW221876   4.506   4.731   5.935
 7045SOL     OW21877   4.142   4.538   6.837
 7045SOL    HW121878   4.211   4.548   6.903
 7045SOL    HW221879   4.107   4.450   6.852
 7046SOL     OW21880   4.989   4.100   6.862
 7046SOL    HW121881   5.024   4.179   6.903
 7046SOL    HW221882   4.900   4.123   6.837
 7047SOL     OW21883   4.072   4.832   6.075
 7047SOL    HW121884   4.076   4.905   6.014
 7047SOL    HW221885   4.072   4.754   6.020
 7048SOL     OW21886   4.277   4.261   6.446
 7048SOL    HW121887   4.293   4.319   6.372
 7048SOL    HW221888   4.342   4.288   6.511
 7049SOL     OW21889   4.985   5.077   5.973
 7049SOL    HW121890   5.037   5.152   6.001
 7049SOL    HW221891   4.896   5.098   6.001
 7050SOL     OW21892   4.978   5.181   6.718
 7050SOL    HW121893   5.034   5.203   6.793
 7050SOL    HW221894   4.940   5.096   6.741
 7051SOL     OW21895   4.072   5.236   6.901
 7051SOL    HW121896   4.061   5.201   6.813
 7051SOL    HW221897   4.166   5.257   6.907
 7052SOL     OW21898   4.138   4.469   7.188
 7052SOL    HW121899   4.200   4.514   7.130
 7052SOL    HW221900   4.177   4.383   7.203
 7053SOL     OW21901   4.718   3.848   7.341
 7053SOL    HW121902   4.775   3.920   7.313
 7053SOL    HW221903   4.766   3.768   7.317
 7054SOL     OW21904   4.222   3.765   7.333
 7054SOL    HW121905   4.180   3.711   7.267
 7054SOL    HW221906   4.163   3.839   7.345
 7055SOL     OW21907   4.307   4.596   6.617
 7055SOL    HW121908   4.337   4.687   6.615
 7055SOL    HW221909   4.251   4.591   6.694
 7056SOL     OW21910   5.086   4.581   6.622
 7056SOL    HW121911   5.009   4.564   6.568
 7056SOL    HW221912   5.137   4.500   6.618
 7057SOL     OW21913   4.929   4.255   5.851
 7057SOL    HW121914   4.936   4.175   5.904
 7057SOL    HW221915   4.885   4.318   5.909
 7058SOL     OW21916   4.023   3.923   6.832
 7058SOL    HW121917   3.986   3.956   6.914
 7058SOL    HW221918   4.004   3.829   6.833
 7059SOL     OW21919   3.776   5.046   6.870
 7059SOL    HW121920   3.801   4.982   6.937
 7059SOL    HW221921   3.811   5.129   6.902
 7060SOL     OW21922   4.448   4.355   6.644
 7060SOL    HW121923   4.523   4.338   6.587
 7060SOL    HW221924   4.421   4.444   6.623
 7061SOL     OW21925   4.026   3.789   6.209
 7061SOL    HW121926   4.008   3.880   6.233
 7061SOL    HW221927   4.034   3.743   6.293
 7062SOL     OW21928   0.035   4.117   5.946
 7062SOL    HW121929   0.055   4.043   6.003
 7062SOL    HW221930   0.017   4.189   6.006
 7063SOL     OW21931   4.751   4.483   6.546
 7063SOL    HW121932   4.750   4.501   6.640
 7063SOL    HW221933   4.725   4.391   6.539
 7064SOL     OW21934   4.077   4.639   7.396
 7064SOL    HW121935   4.160   4.659   7.439
 7064SOL    HW221936   4.101   4.577   7.326
 7065SOL     OW21937   5.027   4.553   5.623
 7065SOL    HW121938   5.065   4.465   5.624
 7065SOL    HW221939   5.054   4.589   5.538
 7066SOL     OW21940   4.781   5.078   6.414
 7066SOL    HW121941   4.787   4.993   6.370
 7066SOL    HW221942   4.866   5.119   6.399
 7067SOL     OW21943   4.033   4.533   6.534
 7067SOL    HW121944   4.126   4.554   6.527
 7067SOL    HW221945   4.031   4.443   6.567
 7068SOL     OW21946   4.056   4.249   6.598
 7068SOL    HW121947   4.020   4.162   6.583
 7068SOL    HW221948   4.132   4.255   6.541
 7069SOL     OW21949   4.857   4.101   7.265
 7069SOL    HW121950   4.810   4.156   7.328
 7069SOL    HW221951   4.944   4.140   7.260
 7070SOL     OW21952   4.885   3.927   7.054
 7070SOL    HW121953   4.874   3.988   7.126
 7070SOL    HW221954   4.924   3.979   6.984
 7071SOL     OW21955   3.730   5.041   5.777
 7071SOL    HW121956   3.640   5.058   5.749
 7071SOL    HW221957   3.728   4.953   5.814
 7072SOL     OW21958   4.707   4.517   6.813
 7072SOL    HW121959   4.763   4.493   6.887
 7072SOL    HW221960   4.622   4.478   6.834
 7073SOL     OW21961   3.760   4.268   6.702
 7073SOL    HW121962   3.840   4.254   6.653
 7073SOL    HW221963   3.788   4.272   6.794
 7074SOL     OW21964   3.916   4.243   7.313
 7074SOL    HW121965   3.971   4.204   7.245
 7074SOL    HW221966   3.872   4.316   7.269
 7075SOL     OW21967   5.111   4.663   7.253
 7075SOL    HW121968   5.118   4.757   7.241
 7075SOL    HW221969   5.114   4.627   7.164
 7076SOL     OW21970   4.540   4.293   5.944
 7076SOL    HW121971   4.543   4.218   5.885
 7076SOL    HW221972   4.466   4.345   5.913
 7077SOL     OW21973   3.930   5.276   7.329
 7077SOL    HW121974   3.903   0.027   7.405
 7077SOL    HW221975   3.944   5.187   7.363
 7078SOL     OW21976   4.423   4.175   6.846
 7078SOL    HW121977   4.371   4.101   6.815
 7078SOL    HW221978   4.420   4.238   6.774
 7079SOL     OW21979   4.189   4.217   5.774
 7079SOL    HW121980   4.247   4.290   5.795
 7079SOL    HW221981   4.103   4.257   5.761
 7080SOL     OW21982   3.870   4.863   7.057
 7080SOL    HW121983   3.872   4.811   7.137
 7080SOL    HW221984   3.887   4.800   6.987
 7081SOL     OW21985   5.051   4.770   6.813
 7081SOL    HW121986   5.076   4.709   6.744
 7081SOL    HW221987   4.980   4.822   6.775
 7082SOL     OW21988   5.033   4.584   5.902
 7082SOL    HW121989   4.951   4.550   5.939
 7082SOL    HW221990   5.023   4.575   5.808
 7083SOL     OW21991   3.817   4.986   6.607
 7083SOL    HW121992   3.795   5.003   6.699
 7083SOL    HW221993   3.737   4.948   6.571
 7084SOL     OW21994   4.469   0.033   7.300
 7084SOL    HW121995   4.377   0.061   7.302
 7084SOL    HW221996   4.501   0.066   7.216
 7085SOL     OW21997   0.082   3.883   6.115
 7085SOL    HW121998   0.167   3.871   6.072
 7085SOL    HW221999   0.069   3.803   6.166
 7086SOL     OW22000   5.016   4.643   6.259
 7086SOL    HW122001   5.093   4.588   6.246
 7086SOL    HW222002   5.034   4.722   6.209
 7087SOL     OW22003   4.543   4.993   7.009
 7087SOL    HW122004   4.514   5.029   7.093
 7087SOL    HW222005   4.469   5.005   6.950
 7088SOL     OW22006   3.986   4.040   6.303
 7088SOL    HW122007   3.901   4.076   6.279
 7088SOL    HW222008   3.983   4.032   6.398
 7089SOL     OW22009   4.549   4.728   6.957
 7089SOL    HW122010   4.594   4.722   6.873
 7089SOL    HW222011   4.552   4.821   6.979
 7090SOL     OW22012   4.640   4.635   5.876
 7090SOL    HW122013   4.702   4.668   5.811
 7090SOL    HW222014   4.687   4.565   5.920
 7091SOL     OW22015   4.089   5.026   7.083
 7091SOL    HW122016   4.079   5.100   7.023
 7091SOL    HW222017   4.014   4.970   7.065
 7092SOL     OW22018   4.777   4.833   6.297
 7092SOL    HW122019   4.705   4.782   6.335
 7092SOL    HW222020   4.834   4.767   6.258
 7093SOL     OW22021   4.739   3.963   6.554
 7093SOL    HW122022   4.737   3.916   6.471
 7093SOL    HW222023   4.736   3.895   6.621
 7094SOL     OW22024   3.982   5.053   5.868
 7094SOL    HW122025   3.890   5.055   5.841
 7094SOL    HW222026   3.983   5.095   5.954
 7095SOL     OW22027   3.837   4.745   7.305
 7095SOL    HW122028   3.760   4.722   7.357
 7095SOL    HW222029   3.911   4.708   7.352
 7096SOL     OW22030   4.398   3.920   7.085
 7096SOL    HW122031   4.482   3.901   7.044
 7096SOL    HW222032   4.421   3.950   7.173
 7097SOL     OW22033   3.802   4.058   5.621
 7097SOL    HW122034   3.715   4.039   5.588
 7097SOL    HW222035   3.832   4.133   5.569
 7098SOL     OW22036   5.163   4.584   6.990
 7098SOL    HW122037   5.110   4.641   6.934
 7098SOL    HW222038   5.252   4.591   6.955
 7099SOL     OW22039   3.793   3.880   5.897
 7099SOL    HW122040   3.779   3.960   5.846
 7099SOL    HW222041   3.878   3.848   5.867
 7100SOL     OW22042   4.909   5.059   5.707
 7100SOL    HW122043   4.815   5.041   5.705
 7100SOL    HW222044   4.933   5.055   5.799
 7101SOL     OW22045   4.343   4.555   7.019
 7101SOL    HW122046   4.399   4.631   7.003
 7101SOL    HW222047   4.403   4.481   7.027
 7102SOL     OW22048   4.442   4.287   7.291
 7102SOL    HW122049   4.481   4.349   7.353
 7102SOL    HW222050   4.470   4.201   7.322
 7103SOL     OW22051   5.184   4.928   7.218
 7103SOL    HW122052   5.173   4.939   7.313
 7103SOL    HW222053   5.279   4.932   7.204
 7104SOL     OW22054   4.940   4.044   6.042
 7104SOL    HW122055   5.002   3.972   6.029
 7104SOL    HW222056   4.970   4.088   6.121
 7105SOL     OW22057   4.315   4.462   6.255
 7105SOL    HW122058   4.353   4.548   6.240
 7105SOL    HW222059   4.246   4.455   6.188
 7106SOL     OW22060   4.580   5.095   5.605
 7106SOL    HW122061   4.556   5.098   5.698
 7106SOL    HW222062   4.591   5.187   5.580
 7107SOL     OW22063   4.592   4.691   6.442
 7107SOL    HW122064   4.641   4.620   6.482
 7107SOL    HW222065   4.557   4.741   6.516
 7108SOL     OW22066   4.808   4.712   5.678
 7108SOL    HW122067   4.781   4.760   5.599
 7108SOL    HW222068   4.882   4.658   5.649
 7109SOL     OW22069   3.946   5.024   7.442
 7109SOL    HW122070   3.880   4.962   7.412
 7109SOL    HW222071   3.927   5.038   7.535
 7110SOL     OW22072   3.809   4.956   6.256
 7110SOL    HW122073   3.809   4.903   6.336
 7110SOL    HW222074   3.873   4.913   6.199
 7111SOL     OW22075   4.393   5.105   7.195
 7111SOL    HW122076   4.317   5.074   7.243
 7111SOL    HW222077   4.424   5.181   7.244
 7112SOL     OW22078   4.154   4.158   6.111
 7112SOL    HW122079   4.183   4.087   6.054
 7112SOL    HW222080   4.106   4.114   6.182
 7113SOL     OW22081   0.122   5.228   6.637
 7113SOL    HW122082   0.038   5.205   6.599
 7113SOL    HW222083   0.106   5.232   6.731
 7114SOL     OW22084   4.054   4.278   6.877
 7114SOL    HW122085   4.109   4.223   6.932
 7114SOL    HW222086   4.073   4.251   6.788
 7115SOL     OW22087   5.148   3.943   6.701
 7115SOL    HW122088   5.193   3.877   6.754
 7115SOL    HW222089   5.101   3.998   6.764
 7116SOL     OW22090   4.730   3.743   6.729
 7116SOL    HW122091   4.677   3.674   6.689
 7116SOL    HW222092   4.818   3.706   6.733
 7117SOL     OW22093   4.526   5.047   5.870
 7117SOL    HW122094   4.464   4.976   5.889
 7117SOL    HW222095   4.580   5.053   5.948
 7118SOL     OW22096   4.346   5.299   6.877
 7118SOL    HW122097   4.353   0.054   6.955
 7118SOL    HW222098   4.436   5.280   6.852
 7119SOL     OW22099   5.058   3.770   5.754
 7119SOL    HW122100   5.084   3.729   5.671
 7119SOL    HW222101   4.973   3.732   5.775
 7120SOL     OW22102   5.028   4.182   6.269
 7120SOL    HW122103   4.973   4.260   6.272
 7120SOL    HW222104   5.017   4.141   6.354
 7121SOL     OW22105   0.002   3.948   6.465
 7121SOL    HW122106   5.236   3.938   6.534
 7121SOL    HW222107   5.277   4.029   6.420
 7122SOL     OW22108   3.766   4.795   5.893
 7122SOL    HW122109   3.860   4.788   5.876
 7122SOL    HW222110   3.739   4.706   5.915
 7123SOL     OW22111   3.953   4.343   7.571
 7123SOL    HW122112   3.862   4.350   7.602
 7123SOL    HW222113   3.946   4.320   7.479
 7124SOL     OW22114   4.001   0.126   7.957
 7124SOL    HW122115   3.974   0.211   7.992
 7124SOL    HW222116   4.007   0.139   7.863
 7125SOL     OW22117   3.942   5.156   7.990
 7125SOL    HW122118   3.954   5.251   7.997
 7125SOL    HW222119   3.883   5.133   8.062
 7126SOL     OW22120   4.311   4.705   7.578
 7126SOL    HW122121   4.355   4.756   7.511
 7126SOL    HW222122   4.349   4.735   7.661
 7127SOL     OW22123   3.723   0.010   7.539
 7127SOL    HW122124   3.727   5.222   7.574
 7127SOL    HW222125   3.723   0.067   7.616
 7128SOL     OW22126   0.118   4.650   8.014
 7128SOL    HW122127   0.210   4.638   8.040
 7128SOL    HW222128   0.110   4.743   7.997
 7129SOL     OW22129   4.525   3.718   7.938
 7129SOL    HW122130   4.574   3.798   7.923
 7129SOL    HW222131   4.434   3.747   7.948
 7130SOL     OW22132   4.315   4.449   7.708
 7130SOL    HW122133   4.319   4.530   7.659
 7130SOL    HW222134   4.255   4.468   7.780
 7131SOL     OW22135   3.785   4.586   0.091
 7131SOL    HW122136   3.851   4.523   0.121
 7131SOL    HW222137   3.778   4.649   0.163
 7132SOL     OW22138   4.605   4.069   7.638
 7132SOL    HW122139   4.650   4.128   7.578
 7132SOL    HW222140   4.637   3.981   7.615
 7133SOL     OW22141   4.047   4.679   7.697
 7133SOL    HW122142   4.127   4.697   7.648
 7133SOL    HW222143   4.011   4.601   7.656
 7134SOL     OW22144   4.795   0.183   7.648
 7134SOL    HW122145   4.792   0.138   7.732
 7134SOL    HW222146   4.877   0.153   7.608
 7135SOL     OW22147   5.133   3.849   7.858
 7135SOL    HW122148   5.096   3.825   7.773
 7135SOL    HW222149   5.227   3.849   7.845
 7136SOL     OW22150   4.115   4.422   7.918
 7136SOL    HW122151   4.121   4.327   7.926
 7136SOL    HW222152   4.023   4.442   7.938
 7137SOL     OW22153   4.352   3.845   7.559
 7137SOL    HW122154   4.428   3.787   7.569
 7137SOL    HW222155   4.309   3.813   7.480
 7138SOL     OW22156   4.256   3.797   7.959
 7138SOL    HW122157   4.170   3.802   8.002
 7138SOL    HW222158   4.254   3.868   7.895
 7139SOL     OW22159   5.139   4.905   7.490
 7139SOL    HW122160   5.151   4.830   7.548
 7139SOL    HW222161   5.050   4.935   7.508
 7140SOL     OW22162   4.017   3.773   7.633
 7140SOL    HW122163   4.075   3.834   7.588
 7140SOL    HW222164   4.075   3.708   7.671
 7141SOL     OW22165   4.666   3.950   7.911
 7141SOL    HW122166   4.623   4.014   7.854
 7141SOL    HW222167   4.758   3.978   7.913
 7142SOL     OW22168   4.165   4.874   0.100
 7142SOL    HW122169   4.089   4.908   0.147
 7142SOL    HW222170   4.134   4.860   0.010
 7143SOL     OW22171   4.752   4.270   7.465
 7143SOL    HW122172   4.704   4.351   7.448
 7143SOL    HW222173   4.805   4.289   7.542
 7144SOL     OW22174   4.198   5.149   7.603
 7144SOL    HW122175   4.139   5.096   7.657
 7144SOL    HW222176   4.202   5.103   7.519
 7145SOL     OW22177   5.127   4.286   7.529
 7145SOL    HW122178   5.053   4.276   7.589
 7145SOL    HW222179   5.201   4.245   7.575
 7146SOL     OW22180   4.250   3.990   7.771
 7146SOL    HW122181   4.293   3.939   7.702
 7146SOL    HW222182   4.228   4.073   7.729
 7147SOL     OW22183   4.431   4.781   7.813
 7147SOL    HW122184   4.410   4.770   7.905
 7147SOL    HW222185   4.513   4.732   7.801
 7148SOL     OW22186   4.089   4.825   7.928
 7148SOL    HW122187   4.068   4.904   7.879
 7148SOL    HW222188   4.077   4.754   7.865
 7149SOL     OW22189   4.954   5.104   7.831
 7149SOL    HW122190   5.034   5.128   7.878
 7149SOL    HW222191   4.901   5.059   7.897
 7150SOL     OW22192   0.035   4.371   7.924
 7150SOL    HW122193   5.279   4.394   7.999
 7150SOL    HW222194   0.041   4.452   7.874
 7151SOL     OW22195   4.927   4.254   7.714
 7151SOL    HW122196   4.933   4.169   7.759
 7151SOL    HW222197   4.896   4.315   7.781
 7152SOL     OW22198   0.026   4.124   7.808
 7152SOL    HW122199   0.039   4.056   7.873
 7152SOL    HW222200   0.022   4.205   7.859
 7153SOL     OW22201   5.034   4.556   7.489
 7153SOL    HW122202   5.065   4.465   7.487
 7153SOL    HW222203   5.057   4.591   7.403
 7154SOL     OW22204   3.732   5.045   7.640
 7154SOL    HW122205   3.642   5.058   7.610
 7154SOL    HW222206   3.733   4.956   7.675
 7155SOL     OW22207   4.563   4.323   7.760
 7155SOL    HW122208   4.554   4.231   7.734
 7155SOL    HW222209   4.473   4.356   7.761
 7156SOL     OW22210   4.186   4.217   7.642
 7156SOL    HW122211   4.245   4.292   7.657
 7156SOL    HW222212   4.101   4.257   7.624
 7157SOL     OW22213   5.033   4.574   7.771
 7157SOL    HW122214   4.939   4.581   7.791
 7157SOL    HW222215   5.037   4.571   7.676
 7158SOL     OW22216   0.180   3.866   7.990
 7158SOL    HW122217   0.159   3.848   7.899
 7158SOL    HW222218   0.137   3.796   8.039
 7159SOL     OW22219   4.655   4.634   7.759
 7159SOL    HW122220   4.706   4.660   7.682
 7159SOL    HW222221   4.645   4.539   7.751
 7160SOL     OW22222   3.981   5.059   7.744
 7160SOL    HW122223   3.890   5.061   7.717
 7160SOL    HW222224   3.981   5.098   7.832
 7161SOL     OW22225   3.801   4.058   7.484
 7161SOL    HW122226   3.715   4.038   7.448
 7161SOL    HW222227   3.832   4.133   7.433
 7162SOL     OW22228   3.794   3.881   7.759
 7162SOL    HW122229   3.778   3.958   7.704
 7162SOL    HW222230   3.877   3.846   7.727
 7163SOL     OW22231   4.908   5.055   7.566
 7163SOL    HW122232   4.814   5.040   7.560
 7163SOL    HW222233   4.924   5.067   7.660
 7164SOL     OW22234   4.939   4.044   7.901
 7164SOL    HW122235   5.010   3.981   7.891
 7164SOL    HW222236   4.957   4.087   7.984
 7165SOL     OW22237   4.348   4.458   8.057
 7165SOL    HW122238   4.355   4.541   0.023
 7165SOL    HW222239   4.261   4.460   8.017
 7166SOL     OW22240   4.582   5.095   7.466
 7166SOL    HW122241   4.559   5.097   7.559
 7166SOL    HW222242   4.590   5.187   7.440
 7167SOL     OW22243   4.803   4.703   7.541
 7167SOL    HW122244   4.778   4.756   7.466
 7167SOL    HW222245   4.880   4.655   7.511
 7168SOL     OW22246   4.111   4.150   7.982
 7168SOL    HW122247   4.162   4.099   7.918
 7168SOL    HW222248   4.161   4.142   8.063
 7169SOL     OW22249   4.528   5.046   7.730
 7169SOL    HW122250   4.469   4.973   7.749
 7169SOL    HW222251   4.550   5.083   7.815
 7170SOL     OW22252   5.062   3.769   7.611
 7170SOL    HW122253   5.083   3.724   7.529
 7170SOL    HW222254   4.978   3.732   7.638
 7171SOL     OW22255   3.773   4.802   7.751
 7171SOL    HW122256   3.868   4.793   7.738
 7171SOL    HW222257   3.743   4.712   7.766
   5.30000   5.30000   8.08000
