2gCDOC_2PEG_l14
22233
    1LIG      O    1   2.169   2.094   0.037
    1LIG      C    2   2.129   2.157   0.188
    1LIG     C1    3   2.184   2.094   0.354
    1LIG     O1    4   2.134   2.148   0.506
    1LIG     C2    5   2.185   2.101   0.659
    1LIG     C3    6   2.124   2.161   0.823
    1LIG     O2    7   2.183   2.118   0.976
    1LIG     C4    8   2.124   2.149   1.131
    1LIG     C5    9   2.194   2.094   1.291
    1LIG     O3   10   2.146   2.144   1.442
    1LIG     C6   11   2.194   2.084   1.591
    1LIG     C7   12   2.143   2.145   1.755
    1LIG     O4   13   2.184   2.081   1.904
    1LIG     C8   14   2.133   2.135   2.054
    1LIG     C9   15   2.190   2.077   2.218
    1LIG     O5   16   2.140   2.134   2.368
    1LIG    C10   17   2.183   2.082   2.522
    1LIG    C11   18   2.128   2.150   2.682
    1LIG     O6   19   2.184   2.107   2.834
    1LIG    C12   20   2.126   2.143   2.987
    1LIG    C13   21   2.196   2.089   3.146
    1LIG     O7   22   2.147   2.140   3.295
    1LIG    C14   23   2.196   2.082   3.443
    1LIG    C15   24   2.145   2.143   3.605
    1LIG     O8   25   2.188   2.083   3.754
    1LIG    C16   26   2.137   2.137   3.904
    1LIG    C17   27   2.197   2.085   4.068
    1LIG     O9   28   2.144   2.138   4.217
    1LIG    C18   29   2.192   2.092   4.370
    1LIG    C19   30   2.130   2.154   4.530
    1LIG    O10   31   2.188   2.112   4.682
    1LIG    C20   32   2.127   2.143   4.834
    1LIG    C21   33   2.198   2.090   4.992
    1LIG    O11   34   2.150   2.140   5.142
    1LIG    C22   35   2.197   2.079   5.289
    1LIG    C23   36   2.149   2.141   5.452
    1LIG    O12   37   2.190   2.075   5.599
    1LIG    C24   38   2.150   2.133   5.750
    1LIG    C25   39   2.201   2.067   5.912
    1LIG    O13   40   2.150   2.120   6.062
    1LIG    C26   41   2.199   2.072   6.213
    1LIG    C27   42   2.143   2.135   6.373
    1LIG    O14   43   2.193   2.079   6.521
    1LIG    C28   44   2.149   2.132   6.671
    1LIG    C29   45   2.204   2.068   6.831
    1LIG    O15   46   2.156   2.120   6.980
    1LIG    C30   47   2.205   2.066   7.129
    1LIG    C31   48   2.151   2.128   7.291
    1LIG    O16   49   2.193   2.073   7.442
    1LIG    C32   50   2.149   2.135   7.591
    1LIG    C33   51   2.198   2.073   7.754
    1LIG    O17   52   2.154   2.132   7.904
    1LIG    C34   53   2.201   2.083   8.056
    1LIG    C35   54   2.143   2.147   8.217
    1LIG    O18   55   2.196   2.103   8.369
    1LIG    C36   56   2.141   2.153   8.517
    1LIG    C37   57   2.200   2.096   8.680
    1LIG    O19   58   2.153   2.153   8.829
    1LIG    C38   59   2.199   2.096   8.978
    1LIG    C39   60   2.143   2.155   9.141
    1LIG    O20   61   2.193   2.098   9.290
    1LIG    C40   62   2.142   2.146   9.442
    1LIG    C41   63   2.204   2.092   9.605
    1LIG    O21   64   2.149   2.143   9.755
    1LIG    C42   65   2.197   2.098   9.908
    1LIG    C43   66   2.136   2.161  10.067
    1LIG    O22   67   2.186   2.111  10.218
    1LIG    C44   68   2.134   2.161  10.367
    1LIG    C45   69   2.195   2.101  10.527
    1LIG    O23   70   2.149   2.155  10.677
    1LIG    C46   71   2.197   2.098  10.825
    1LIG    C47   72   2.141   2.156  10.989
    1LIG    O24   73   2.193   2.099  11.137
    1LIG    C48   74   2.142   2.146  11.290
    1LIG    C49   75   2.204   2.093  11.453
    1LIG    O25   76   2.149   2.144  11.602
    1LIG    C50   77   2.197   2.099  11.756
    1LIG    C51   78   2.135   2.162  11.915
    1LIG    O26   79   2.186   2.113  12.067
    1LIG    C52   80   2.132   2.163  12.216
    1LIG    C53   81   2.191   2.103  12.378
    1LIG    O27   82   2.143   2.158  12.528
    1LIG    C54   83   2.189   2.101  12.679
    1LIG    C55   84   2.130   2.162  12.842
    1LIG    O28   85   2.176   2.103  12.993
    1LIG    C56   86   2.128   2.157  13.146
    1LIG    C57   87   2.186   2.094  13.312
    1LIG    O29   88   2.142   2.151  13.466
    1LIG    C58   89   2.178   2.088  13.619
    1LIG    C59   90   2.156   2.167  13.785
    1LIG      H   91   2.021   2.158   0.193
    1LIG     H1   92   2.153   2.262   0.183
    1LIG     H2   93   2.292   2.105   0.353
    1LIG     H3   94   2.164   1.987   0.352
    1LIG     H4   95   2.292   2.119   0.662
    1LIG     H5   96   2.172   1.993   0.662
    1LIG     H6   97   2.017   2.141   0.825
    1LIG     H7   98   2.130   2.270   0.818
    1LIG     H8   99   2.020   2.119   1.132
    1LIG     H9  100   2.116   2.257   1.142
    1LIG    H10  101   2.301   2.117   1.285
    1LIG    H11  102   2.188   1.985   1.290
    1LIG    H12  103   2.303   2.089   1.591
    1LIG    H13  104   2.168   1.978   1.590
    1LIG    H14  105   2.034   2.148   1.751
    1LIG    H15  106   2.177   2.248   1.758
    1LIG    H16  107   2.026   2.120   2.058
    1LIG    H17  108   2.142   2.243   2.055
    1LIG    H18  109   2.298   2.089   2.216
    1LIG    H19  110   2.172   1.969   2.219
    1LIG    H20  111   2.292   2.086   2.526
    1LIG    H21  112   2.157   1.976   2.525
    1LIG    H22  113   2.019   2.138   2.685
    1LIG    H23  114   2.142   2.258   2.674
    1LIG    H24  115   2.021   2.116   2.989
    1LIG    H25  116   2.121   2.251   2.995
    1LIG    H26  117   2.303   2.112   3.139
    1LIG    H27  118   2.189   1.980   3.146
    1LIG    H28  119   2.305   2.087   3.443
    1LIG    H29  120   2.170   1.975   3.443
    1LIG    H30  121   2.036   2.145   3.602
    1LIG    H31  122   2.176   2.248   3.606
    1LIG    H32  123   2.031   2.118   3.909
    1LIG    H33  124   2.141   2.246   3.902
    1LIG    H34  125   2.306   2.102   4.066
    1LIG    H35  126   2.186   1.976   4.069
    1LIG    H36  127   2.300   2.109   4.373
    1LIG    H37  128   2.179   1.984   4.373
    1LIG    H38  129   2.023   2.134   4.531
    1LIG    H39  130   2.137   2.263   4.523
    1LIG    H40  131   2.024   2.112   4.834
    1LIG    H41  132   2.117   2.251   4.844
    1LIG    H42  133   2.305   2.113   4.985
    1LIG    H43  134   2.193   1.980   4.992
    1LIG    H44  135   2.307   2.082   5.289
    1LIG    H45  136   2.170   1.974   5.288
    1LIG    H46  137   2.040   2.147   5.450
    1LIG    H47  138   2.185   2.244   5.455
    1LIG    H48  139   2.041   2.134   5.756
    1LIG    H49  140   2.179   2.239   5.751
    1LIG    H50  141   2.310   2.077   5.913
    1LIG    H51  142   2.181   1.960   5.908
    1LIG    H52  143   2.308   2.087   6.215
    1LIG    H53  144   2.185   1.963   6.217
    1LIG    H54  145   2.034   2.130   6.372
    1LIG    H55  146   2.165   2.243   6.371
    1LIG    H56  147   2.040   2.129   6.675
    1LIG    H57  148   2.175   2.238   6.673
    1LIG    H58  149   2.313   2.079   6.830
    1LIG    H59  150   2.185   1.960   6.829
    1LIG    H60  151   2.315   2.074   7.130
    1LIG    H61  152   2.183   1.959   7.130
    1LIG    H62  153   2.042   2.122   7.284
    1LIG    H63  154   2.174   2.234   7.292
    1LIG    H64  155   2.040   2.135   7.593
    1LIG    H65  156   2.178   2.240   7.590
    1LIG    H66  157   2.307   2.076   7.751
    1LIG    H67  158   2.172   1.966   7.754
    1LIG    H68  159   2.310   2.094   8.059
    1LIG    H69  160   2.184   1.975   8.060
    1LIG    H70  161   2.036   2.127   8.219
    1LIG    H71  162   2.152   2.256   8.211
    1LIG    H72  163   2.032   2.137   8.518
    1LIG    H73  164   2.151   2.262   8.518
    1LIG    H74  165   2.309   2.109   8.676
    1LIG    H75  166   2.184   1.988   8.681
    1LIG    H76  167   2.307   2.104   8.982
    1LIG    H77  168   2.177   1.988   8.978
    1LIG    H78  169   2.034   2.145   9.139
    1LIG    H79  170   2.160   2.263   9.142
    1LIG    H80  171   2.037   2.119   9.448
    1LIG    H81  172   2.140   2.255   9.442
    1LIG    H82  173   2.312   2.110   9.604
    1LIG    H83  174   2.193   1.983   9.605
    1LIG    H84  175   2.305   2.114   9.911
    1LIG    H85  176   2.183   1.989   9.912
    1LIG    H86  177   2.028   2.147  10.066
    1LIG    H87  178   2.150   2.270  10.064
    1LIG    H88  179   2.026   2.146  10.369
    1LIG    H89  180   2.147   2.270  10.369
    1LIG    H90  181   2.304   2.113  10.522
    1LIG    H91  182   2.179   1.993  10.526
    1LIG    H92  183   2.306   2.108  10.828
    1LIG    H93  184   2.178   1.990  10.824
    1LIG    H94  185   2.033   2.145  10.988
    1LIG    H95  186   2.158   2.264  10.989
    1LIG    H96  187   2.037   2.117  11.295
    1LIG    H97  188   2.140   2.255  11.290
    1LIG    H98  189   2.312   2.111  11.451
    1LIG    H99  190   2.195   1.984  11.452
    1LIG   H100  191   2.305   2.117  11.759
    1LIG   H101  192   2.185   1.990  11.760
    1LIG   H102  193   2.028   2.145  11.913
    1LIG   H103  194   2.147   2.270  11.911
    1LIG   H104  195   2.024   2.148  12.216
    1LIG   H105  196   2.144   2.272  12.218
    1LIG   H106  197   2.299   2.116  12.374
    1LIG   H107  198   2.175   1.995  12.376
    1LIG   H108  199   2.297   2.111  12.682
    1LIG   H109  200   2.169   1.994  12.678
    1LIG   H110  201   2.022   2.155  12.838
    1LIG   H111  202   2.152   2.269  12.843
    1LIG   H112  203   2.020   2.147  13.149
    1LIG   H113  204   2.143   2.264  13.146
    1LIG   H114  205   2.295   2.100  13.308
    1LIG   H115  206   2.163   1.988  13.311
    1LIG   H116  207   2.285   2.070  13.617
    1LIG   H117  208   2.131   1.990  13.624
    1LIG   H118  209   2.063   2.220  13.784
    1LIG   H119  210   2.233   2.245  13.786
    2LIG      O  211   1.843   1.863   0.041
    2LIG      C  212   1.903   1.901   0.194
    2LIG     C1  213   1.839   1.849   0.360
    2LIG     O1  214   1.897   1.896   0.511
    2LIG     C2  215   1.842   1.848   0.664
    2LIG     C3  216   1.895   1.906   0.830
    2LIG     O2  217   1.848   1.847   0.980
    2LIG     C4  218   1.889   1.905   1.131
    2LIG     C5  219   1.837   1.841   1.294
    2LIG     O3  220   1.884   1.895   1.447
    2LIG     C6  221   1.834   1.842   1.598
    2LIG     C7  222   1.890   1.902   1.763
    2LIG     O4  223   1.841   1.847   1.913
    2LIG     C8  224   1.887   1.904   2.063
    2LIG     C9  225   1.832   1.845   2.227
    2LIG     O5  226   1.885   1.897   2.376
    2LIG    C10  227   1.832   1.848   2.527
    2LIG    C11  228   1.887   1.906   2.689
    2LIG     O6  229   1.839   1.848   2.838
    2LIG    C12  230   1.883   1.906   2.986
    2LIG    C13  231   1.830   1.843   3.148
    2LIG     O7  232   1.878   1.897   3.299
    2LIG    C14  233   1.830   1.843   3.450
    2LIG    C15  234   1.886   1.904   3.612
    2LIG     O8  235   1.838   1.849   3.762
    2LIG    C16  236   1.885   1.906   3.911
    2LIG    C17  237   1.831   1.848   4.074
    2LIG     O9  238   1.884   1.899   4.223
    2LIG    C18  239   1.830   1.851   4.373
    2LIG    C19  240   1.885   1.907   4.535
    2LIG    O10  241   1.836   1.850   4.682
    2LIG    C20  242   1.880   1.907   4.831
    2LIG    C21  243   1.827   1.845   4.992
    2LIG    O11  244   1.873   1.902   5.142
    2LIG    C22  245   1.829   1.849   5.293
    2LIG    C23  246   1.884   1.914   5.454
    2LIG    O12  247   1.835   1.864   5.605
    2LIG    C24  248   1.875   1.928   5.753
    2LIG    C25  249   1.823   1.866   5.915
    2LIG    O13  250   1.858   1.926   6.067
    2LIG    C26  251   1.811   1.866   6.215
    2LIG    C27  252   1.865   1.923   6.380
    2LIG    O14  253   1.812   1.873   6.529
    2LIG    C28  254   1.867   1.921   6.679
    2LIG    C29  255   1.799   1.878   6.843
    2LIG    O15  256   1.867   1.913   6.991
    2LIG    C30  257   1.829   1.855   7.142
    2LIG    C31  258   1.877   1.920   7.304
    2LIG    O16  259   1.827   1.865   7.453
    2LIG    C32  260   1.874   1.918   7.603
    2LIG    C33  261   1.810   1.862   7.763
    2LIG    O17  262   1.860   1.914   7.914
    2LIG    C34  263   1.803   1.871   8.064
    2LIG    C35  264   1.870   1.919   8.225
    2LIG    O18  265   1.821   1.865   8.374
    2LIG    C36  266   1.875   1.917   8.522
    2LIG    C37  267   1.820   1.855   8.683
    2LIG    O19  268   1.872   1.905   8.833
    2LIG    C38  269   1.832   1.847   8.984
    2LIG    C39  270   1.889   1.908   9.145
    2LIG    O20  271   1.842   1.855   9.295
    2LIG    C40  272   1.890   1.910   9.444
    2LIG    C41  273   1.835   1.852   9.607
    2LIG    O21  274   1.890   1.901   9.755
    2LIG    C42  275   1.834   1.856   9.905
    2LIG    C43  276   1.893   1.910  10.068
    2LIG    O22  277   1.843   1.854  10.216
    2LIG    C44  278   1.888   1.910  10.365
    2LIG    C45  279   1.831   1.848  10.526
    2LIG    O23  280   1.881   1.898  10.677
    2LIG    C46  281   1.839   1.842  10.828
    2LIG    C47  282   1.896   1.903  10.989
    2LIG    O24  283   1.852   1.846  11.139
    2LIG    C48  284   1.897   1.903  11.288
    2LIG    C49  285   1.841   1.843  11.451
    2LIG    O25  286   1.896   1.892  11.601
    2LIG    C50  287   1.837   1.850  11.751
    2LIG    C51  288   1.896   1.905  11.915
    2LIG    O26  289   1.847   1.849  12.064
    2LIG    C52  290   1.891   1.906  12.215
    2LIG    C53  291   1.834   1.845  12.378
    2LIG    O27  292   1.883   1.896  12.531
    2LIG    C54  293   1.841   1.841  12.685
    2LIG    C55  294   1.898   1.903  12.848
    2LIG    O28  295   1.856   1.847  13.000
    2LIG    C56  296   1.901   1.904  13.152
    2LIG    C57  297   1.846   1.845  13.318
    2LIG    O29  298   1.903   1.890  13.470
    2LIG    C58  299   1.839   1.857  13.623
    2LIG    C59  300   1.917   1.871  13.790
    2LIG      H  301   1.894   2.009   0.199
    2LIG     H1  302   2.009   1.878   0.193
    2LIG     H2  303   1.842   1.740   0.358
    2LIG     H3  304   1.733   1.876   0.359
    2LIG     H4  305   1.850   1.739   0.667
    2LIG     H5  306   1.736   1.874   0.666
    2LIG     H6  307   1.865   2.011   0.831
    2LIG     H7  308   2.004   1.906   0.829
    2LIG     H8  309   1.854   2.008   1.132
    2LIG     H9  310   1.998   1.909   1.133
    2LIG    H10  311   1.853   1.733   1.292
    2LIG    H11  312   1.729   1.855   1.290
    2LIG    H12  313   1.853   1.735   1.600
    2LIG    H13  314   1.725   1.853   1.601
    2LIG    H14  315   1.869   2.009   1.762
    2LIG    H15  316   1.999   1.894   1.761
    2LIG    H16  317   1.860   2.010   2.063
    2LIG    H17  318   1.996   1.899   2.066
    2LIG    H18  319   1.845   1.737   2.225
    2LIG    H19  320   1.724   1.862   2.226
    2LIG    H20  321   1.840   1.739   2.529
    2LIG    H21  322   1.725   1.872   2.529
    2LIG    H22  323   1.861   2.012   2.690
    2LIG    H23  324   1.996   1.901   2.688
    2LIG    H24  325   1.851   2.010   2.987
    2LIG    H25  326   1.992   1.907   2.987
    2LIG    H26  327   1.846   1.734   3.146
    2LIG    H27  328   1.722   1.857   3.144
    2LIG    H28  329   1.851   1.736   3.451
    2LIG    H29  330   1.721   1.852   3.453
    2LIG    H30  331   1.866   2.011   3.611
    2LIG    H31  332   1.996   1.895   3.610
    2LIG    H32  333   1.859   2.013   3.911
    2LIG    H33  334   1.995   1.901   3.913
    2LIG    H34  335   1.844   1.739   4.072
    2LIG    H35  336   1.722   1.864   4.074
    2LIG    H36  337   1.836   1.741   4.375
    2LIG    H37  338   1.724   1.877   4.375
    2LIG    H38  339   1.861   2.014   4.535
    2LIG    H39  340   1.995   1.902   4.533
    2LIG    H40  341   1.850   2.012   4.831
    2LIG    H41  342   1.990   1.905   4.832
    2LIG    H42  343   1.844   1.737   4.992
    2LIG    H43  344   1.718   1.858   4.987
    2LIG    H44  345   1.853   1.742   5.296
    2LIG    H45  346   1.720   1.854   5.298
    2LIG    H46  347   1.865   2.021   5.449
    2LIG    H47  348   1.993   1.904   5.452
    2LIG    H48  349   1.847   2.033   5.751
    2LIG    H49  350   1.985   1.925   5.757
    2LIG    H50  351   1.864   1.765   5.915
    2LIG    H51  352   1.714   1.855   5.910
    2LIG    H52  353   1.834   1.759   6.213
    2LIG    H53  354   1.701   1.871   6.217
    2LIG    H54  355   1.850   2.031   6.379
    2LIG    H55  356   1.974   1.908   6.380
    2LIG    H56  357   1.861   2.031   6.677
    2LIG    H57  358   1.974   1.897   6.682
    2LIG    H58  359   1.777   1.771   6.842
    2LIG    H59  360   1.700   1.924   6.845
    2LIG    H60  361   1.872   1.754   7.145
    2LIG    H61  362   1.720   1.842   7.146
    2LIG    H62  363   1.852   2.026   7.301
    2LIG    H63  364   1.986   1.914   7.305
    2LIG    H64  365   1.859   2.026   7.603
    2LIG    H65  366   1.983   1.903   7.608
    2LIG    H66  367   1.821   1.753   7.763
    2LIG    H67  368   1.702   1.880   7.759
    2LIG    H68  369   1.802   1.761   8.068
    2LIG    H69  370   1.698   1.902   8.067
    2LIG    H70  371   1.857   2.028   8.229
    2LIG    H71  372   1.978   1.902   8.219
    2LIG    H72  373   1.856   2.024   8.525
    2LIG    H73  374   1.984   1.907   8.520
    2LIG    H74  375   1.833   1.747   8.679
    2LIG    H75  376   1.712   1.871   8.682
    2LIG    H76  377   1.857   1.740   8.983
    2LIG    H77  378   1.723   1.851   8.992
    2LIG    H78  379   1.868   2.015   9.143
    2LIG    H79  380   1.999   1.900   9.142
    2LIG    H80  381   1.866   2.016   9.444
    2LIG    H81  382   2.000   1.902   9.445
    2LIG    H82  383   1.846   1.743   9.604
    2LIG    H83  384   1.727   1.869   9.607
    2LIG    H84  385   1.835   1.746   9.908
    2LIG    H85  386   1.730   1.889   9.906
    2LIG    H86  387   1.871   2.017  10.068
    2LIG    H87  388   2.002   1.902  10.065
    2LIG    H88  389   1.862   2.016  10.365
    2LIG    H89  390   1.997   1.906  10.368
    2LIG    H90  391   1.844   1.739  10.522
    2LIG    H91  392   1.722   1.862  10.523
    2LIG    H92  393   1.861   1.735  10.828
    2LIG    H93  394   1.730   1.848  10.835
    2LIG    H94  395   1.871   2.009  10.989
    2LIG    H95  396   2.006   1.898  10.985
    2LIG    H96  397   1.869   2.008  11.288
    2LIG    H97  398   2.006   1.898  11.291
    2LIG    H98  399   1.852   1.734  11.448
    2LIG    H99  400   1.733   1.861  11.451
    2LIG   H100  401   1.834   1.741  11.754
    2LIG   H101  402   1.735   1.887  11.750
    2LIG   H102  403   1.874   2.012  11.915
    2LIG   H103  404   2.005   1.897  11.912
    2LIG   H104  405   1.864   2.012  12.215
    2LIG   H105  406   2.000   1.903  12.218
    2LIG   H106  407   1.849   1.736  12.375
    2LIG   H107  408   1.725   1.858  12.376
    2LIG   H108  409   1.864   1.734  12.686
    2LIG   H109  410   1.733   1.848  12.692
    2LIG   H110  411   1.871   2.009  12.847
    2LIG   H111  412   2.008   1.901  12.842
    2LIG   H112  413   1.872   2.010  13.151
    2LIG   H113  414   2.010   1.902  13.154
    2LIG   H114  415   1.853   1.736  13.313
    2LIG   H115  416   1.738   1.866  13.319
    2LIG   H116  417   1.810   1.752  13.618
    2LIG   H117  418   1.746   1.915  13.629
    2LIG   H118  419   1.978   1.961  13.788
    2LIG   H119  420   1.988   1.787  13.790
    3MOL     C1  421   1.465   1.545   6.274
    3MOL     H1  422   1.442   1.440   6.258
    3MOL     O1  423   1.423   1.584   6.407
    3MOL     C2  424   1.447   1.722   6.443
    3MOL     H2  425   1.552   1.748   6.426
    3MOL     C3  426   1.420   1.737   6.595
    3MOL     H3  427   1.461   1.832   6.630
    3MOL     H4  428   1.472   1.656   6.647
    3MOL     O2  429   1.278   1.730   6.623
    3MOL     C4  430   1.248   1.737   6.763
    3MOL     C5  431   1.385   1.630   6.171
    3MOL     H5  432   1.280   1.598   6.175
    3MOL     O3  433   1.436   1.612   6.037
    3MOL     C6  434   1.403   1.486   5.974
    3MOL     C7  435   1.389   1.782   6.202
    3MOL     H6  436   1.489   1.820   6.179
    3MOL     O4  437   1.287   1.847   6.123
    3MOL     C8  438   1.337   1.943   6.030
    3MOL     C9  439   1.358   1.811   6.351
    3MOL     H7  440   1.252   1.787   6.369
    3MOL     O5  441   1.385   1.951   6.373
    3MOL    C10  442   1.297   2.018   6.465
    3MOL     H8  443   1.217   1.951   6.497
    3MOL     O6  444   1.375   2.058   6.581
    3MOL    C11  445   1.487   2.147   6.553
    3MOL     H9  446   1.552   2.101   6.477
    3MOL    C12  447   1.570   2.163   6.682
    3MOL    H10  448   1.670   2.198   6.656
    3MOL    H11  449   1.580   2.065   6.730
    3MOL     O7  450   1.505   2.255   6.772
    3MOL    C13  451   1.589   2.297   6.881
    3MOL    C14  452   1.236   2.144   6.398
    3MOL    H12  453   1.162   2.188   6.466
    3MOL     O8  454   1.174   2.109   6.272
    3MOL    C15  455   1.051   2.037   6.279
    3MOL    C16  456   1.345   2.250   6.369
    3MOL    H13  457   1.412   2.211   6.291
    3MOL     O9  458   1.281   2.373   6.328
    3MOL    C17  459   1.298   2.402   6.189
    3MOL    C18  460   1.430   2.279   6.495
    3MOL    H14  461   1.365   2.327   6.569
    3MOL    O10  462   1.537   2.366   6.455
    3MOL    C19  463   1.572   2.471   6.548
    3MOL    H15  464   1.498   2.477   6.628
    3MOL    O11  465   1.701   2.443   6.605
    3MOL    C20  466   1.807   2.425   6.509
    3MOL    H16  467   1.782   2.345   6.438
    3MOL    C21  468   1.932   2.382   6.588
    3MOL    H17  469   2.013   2.355   6.519
    3MOL    H18  470   1.906   2.294   6.647
    3MOL    O12  471   1.971   2.490   6.674
    3MOL    C22  472   2.082   2.460   6.759
    3MOL    C23  473   1.581   2.606   6.474
    3MOL    H19  474   1.605   2.684   6.546
    3MOL    O13  475   1.454   2.636   6.411
    3MOL    C24  476   1.349   2.668   6.504
    3MOL    C25  477   1.693   2.604   6.367
    3MOL    H20  478   1.667   2.534   6.287
    3MOL    O14  479   1.708   2.739   6.318
    3MOL    C26  480   1.667   2.758   6.182
    3MOL    C27  481   1.827   2.558   6.431
    3MOL    H21  482   1.863   2.635   6.501
    3MOL    O15  483   1.925   2.533   6.329
    3MOL    C28  484   2.000   2.649   6.286
    3MOL    H22  485   1.934   2.736   6.276
    3MOL    O16  486   2.102   2.677   6.384
    3MOL    C29  487   2.203   2.575   6.403
    3MOL    H23  488   2.157   2.483   6.439
    3MOL    C30  489   2.297   2.630   6.513
    3MOL    H24  490   2.362   2.551   6.552
    3MOL    H25  491   2.235   2.667   6.596
    3MOL    O17  492   2.374   2.737   6.457
    3MOL    C31  493   2.443   2.820   6.551
    3MOL    C32  494   2.064   2.622   6.149
    3MOL    H26  495   2.110   2.716   6.115
    3MOL    O18  496   1.959   2.579   6.060
    3MOL    C33  497   1.973   2.632   5.928
    3MOL    C34  498   2.174   2.514   6.156
    3MOL    H27  499   2.126   2.417   6.175
    3MOL    O19  500   2.246   2.516   6.031
    3MOL    C35  501   2.259   2.388   5.969
    3MOL    C36  502   2.275   2.546   6.268
    3MOL    H28  503   2.331   2.634   6.235
    3MOL    O20  504   2.362   2.431   6.281
    3MOL    C37  505   2.499   2.460   6.311
    3MOL    H29  506   2.517   2.569   6.308
    3MOL    O21  507   2.527   2.410   6.444
    3MOL    C38  508   2.504   2.269   6.463
    3MOL    H30  509   2.402   2.242   6.433
    3MOL    C39  510   2.517   2.240   6.615
    3MOL    H31  511   2.481   2.140   6.637
    3MOL    H32  512   2.454   2.311   6.670
    3MOL    O22  513   2.655   2.255   6.655
    3MOL    C40  514   2.679   2.225   6.794
    3MOL    C41  515   2.595   2.391   6.210
    3MOL    H33  516   2.697   2.427   6.229
    3MOL    O23  517   2.558   2.421   6.074
    3MOL    C42  518   2.576   2.558   6.031
    3MOL    C43  519   2.595   2.237   6.225
    3MOL    H34  520   2.503   2.197   6.181
    3MOL    O24  521   2.713   2.189   6.157
    3MOL    C44  522   2.689   2.102   6.045
    3MOL    C45  523   2.606   2.192   6.373
    3MOL    H35  524   2.707   2.216   6.405
    3MOL    O25  525   2.584   2.050   6.380
    3MOL    C46  526   2.672   1.981   6.474
    3MOL    H36  527   2.748   2.049   6.513
    3MOL    O26  528   2.593   1.933   6.584
    3MOL    C47  529   2.488   1.838   6.551
    3MOL    H37  530   2.419   1.883   6.479
    3MOL    C48  531   2.408   1.810   6.680
    3MOL    H38  532   2.314   1.761   6.655
    3MOL    H39  533   2.386   1.905   6.728
    3MOL    O27  534   2.487   1.728   6.768
    3MOL    C49  535   2.419   1.691   6.889
    3MOL    C50  536   2.744   1.862   6.405
    3MOL    H40  537   2.818   1.821   6.474
    3MOL    O28  538   2.809   1.906   6.284
    3MOL    C51  539   2.927   1.988   6.302
    3MOL    C52  540   2.645   1.749   6.370
    3MOL    H41  541   2.582   1.780   6.285
    3MOL    O29  542   2.723   1.631   6.338
    3MOL    C53  543   2.736   1.607   6.197
    3MOL    C54  544   2.553   1.712   6.488
    3MOL    H42  545   2.614   1.662   6.564
    3MOL    O30  546   2.449   1.625   6.437
    3MOL    C55  547   2.431   1.500   6.510
    3MOL    H43  548   2.518   1.482   6.574
    3MOL    O31  549   2.312   1.510   6.590
    3MOL    C56  550   2.189   1.532   6.516
    3MOL    H44  551   2.194   1.627   6.462
    3MOL    C57  552   2.074   1.537   6.617
    3MOL    H45  553   2.071   1.441   6.671
    3MOL    H46  554   1.978   1.552   6.567
    3MOL    O32  555   2.098   1.645   6.709
    3MOL    C58  556   2.012   1.639   6.823
    3MOL    C59  557   2.416   1.379   6.413
    3MOL    H47  558   2.407   1.289   6.474
    3MOL    O33  559   2.532   1.369   6.328
    3MOL    C60  560   2.650   1.321   6.394
    3MOL    C61  561   2.289   1.389   6.325
    3MOL    H48  562   2.299   1.470   6.252
    3MOL    O34  563   2.268   1.260   6.261
    3MOL    C62  564   2.314   1.249   6.126
    3MOL    C63  565   2.166   1.417   6.415
    3MOL    H49  566   2.144   1.326   6.473
    3MOL    O35  567   2.052   1.452   6.333
    3MOL    C64  568   1.969   1.340   6.297
    3MOL    H50  569   2.029   1.248   6.296
    3MOL    O36  570   1.862   1.329   6.394
    3MOL    C65  571   1.765   1.436   6.403
    3MOL    H51  572   1.812   1.532   6.426
    3MOL    C66  573   1.668   1.395   6.516
    3MOL    H52  574   1.643   1.289   6.505
    3MOL    H53  575   1.575   1.451   6.510
    3MOL    O37  576   1.728   1.419   6.643
    3MOL    C67  577   1.642   1.373   6.749
    3MOL    C68  578   1.909   1.356   6.155
    3MOL    H54  579   1.872   1.258   6.122
    3MOL    O38  580   2.013   1.404   6.067
    3MOL    C69  581   2.018   1.345   5.936
    3MOL    C70  582   1.793   1.459   6.151
    3MOL    H55  583   1.840   1.558   6.158
    3MOL    O39  584   1.720   1.441   6.029
    3MOL    C71  585   1.729   1.558   5.947
    3MOL    C72  586   1.692   1.446   6.267
    3MOL    H56  587   1.632   1.356   6.251
    3MOL    O40  588   1.609   1.566   6.263
    3MOL    H57  589   1.145   1.704   6.781
    3MOL    H58  590   1.314   1.671   6.820
    3MOL    H59  591   1.261   1.840   6.800
    3MOL    H60  592   1.687   1.394   6.847
    3MOL    H61  593   1.544   1.422   6.744
    3MOL    H62  594   1.628   1.264   6.742
    3MOL    H63  595   2.022   1.731   6.881
    3MOL    H64  596   1.908   1.627   6.790
    3MOL    H65  597   2.038   1.554   6.886
    3MOL    H66  598   2.484   1.627   6.951
    3MOL    H67  599   2.392   1.780   6.948
    3MOL    H68  600   2.327   1.635   6.866
    3MOL    H69  601   2.785   2.237   6.818
    3MOL    H70  602   2.621   2.293   6.858
    3MOL    H71  603   2.650   2.122   6.816
    3MOL    H72  604   2.485   2.907   6.499
    3MOL    H73  605   2.374   2.857   6.629
    3MOL    H74  606   2.525   2.765   6.599
    3MOL    H75  607   2.102   2.547   6.822
    3MOL    H76  608   2.059   2.374   6.823
    3MOL    H77  609   2.172   2.441   6.700
    3MOL    H78  610   1.529   2.351   6.955
    3MOL    H79  611   1.635   2.210   6.929
    3MOL    H80  612   1.669   2.363   6.846
    3MOL    H81  613   1.255   2.500   6.165
    3MOL    H82  614   1.404   2.403   6.164
    3MOL    H83  615   1.248   2.325   6.127
    3MOL    H84  616   1.011   2.023   6.178
    3MOL    H85  617   1.066   1.937   6.323
    3MOL    H86  618   0.977   2.091   6.339
    3MOL    H87  619   1.254   1.983   5.969
    3MOL    H88  620   1.384   2.027   6.083
    3MOL    H89  621   1.411   1.897   5.963
    3MOL    H90  622   1.435   1.489   5.869
    3MOL    H91  623   1.456   1.404   6.024
    3MOL    H92  624   1.295   1.468   5.979
    3MOL    H93  625   1.668   1.548   5.857
    3MOL    H94  626   1.695   1.645   6.003
    3MOL    H95  627   1.834   1.571   5.919
    3MOL    H96  628   2.088   1.402   5.874
    3MOL    H97  629   2.053   1.242   5.943
    3MOL    H98  630   1.919   1.348   5.888
    3MOL    H99  631   2.285   1.151   6.085
    3MOL   H100  632   2.268   1.327   6.064
    3MOL   H101  633   2.423   1.259   6.120
    3MOL   H102  634   2.727   1.299   6.319
    3MOL   H103  635   2.690   1.398   6.462
    3MOL   H104  636   2.630   1.230   6.451
    3MOL   H105  637   2.786   1.511   6.180
    3MOL   H106  638   2.637   1.603   6.151
    3MOL   H107  639   2.794   1.687   6.150
    3MOL   H108  640   2.972   2.010   6.205
    3MOL   H109  641   2.901   2.083   6.349
    3MOL   H110  642   3.000   1.936   6.365
    3MOL   H111  643   2.783   2.079   5.994
    3MOL   H112  644   2.645   2.007   6.079
    3MOL   H113  645   2.620   2.149   5.973
    3MOL   H114  646   2.566   2.564   5.922
    3MOL   H115  647   2.500   2.623   6.076
    3MOL   H116  648   2.675   2.595   6.060
    3MOL   H117  649   2.313   2.397   5.874
    3MOL   H118  650   2.313   2.318   6.034
    3MOL   H119  651   2.159   2.347   5.948
    3MOL   H120  652   1.892   2.599   5.863
    3MOL   H121  653   1.974   2.741   5.933
    3MOL   H122  654   2.069   2.600   5.885
    3MOL   H123  655   1.683   2.863   6.155
    3MOL   H124  656   1.727   2.696   6.115
    3MOL   H125  657   1.561   2.734   6.170
    3MOL   H126  658   1.258   2.697   6.450
    3MOL   H127  659   1.323   2.581   6.565
    3MOL   H128  660   1.379   2.751   6.569
    4MOL     C1  661   1.470   1.548   7.403
    4MOL     H1  662   1.445   1.443   7.385
    4MOL     O1  663   1.431   1.583   7.537
    4MOL     C2  664   1.453   1.721   7.575
    4MOL     H2  665   1.558   1.748   7.558
    4MOL     C3  666   1.427   1.730   7.727
    4MOL     H3  667   1.458   1.829   7.765
    4MOL     H4  668   1.488   1.654   7.775
    4MOL     O2  669   1.288   1.706   7.757
    4MOL     C4  670   1.251   1.733   7.893
    4MOL     C5  671   1.387   1.635   7.303
    4MOL     H5  672   1.283   1.600   7.306
    4MOL     O3  673   1.438   1.624   7.169
    4MOL     C6  674   1.408   1.501   7.104
    4MOL     C7  675   1.386   1.785   7.338
    4MOL     H6  676   1.482   1.829   7.310
    4MOL     O4  677   1.275   1.844   7.266
    4MOL     C8  678   1.309   1.934   7.160
    4MOL     C9  679   1.363   1.811   7.488
    4MOL     H7  680   1.258   1.791   7.510
    4MOL     O5  681   1.394   1.950   7.509
    4MOL    C10  682   1.305   2.019   7.599
    4MOL     H8  683   1.222   1.954   7.630
    4MOL     O6  684   1.381   2.058   7.715
    4MOL    C11  685   1.494   2.145   7.689
    4MOL     H9  686   1.561   2.098   7.616
    4MOL    C12  687   1.571   2.160   7.822
    4MOL    H10  688   1.667   2.209   7.804
    4MOL    H11  689   1.590   2.061   7.864
    4MOL     O7  690   1.490   2.238   7.912
    4MOL    C13  691   1.552   2.263   8.039
    4MOL    C14  692   1.246   2.145   7.529
    4MOL    H12  693   1.168   2.187   7.593
    4MOL     O8  694   1.190   2.111   7.400
    4MOL    C15  695   1.067   2.038   7.402
    4MOL    C16  696   1.354   2.253   7.505
    4MOL    H13  697   1.421   2.219   7.424
    4MOL     O9  698   1.288   2.377   7.470
    4MOL    C17  699   1.299   2.417   7.333
    4MOL    C18  700   1.438   2.278   7.631
    4MOL    H14  701   1.374   2.325   7.706
    4MOL    O10  702   1.547   2.365   7.595
    4MOL    C19  703   1.573   2.473   7.686
    4MOL    H15  704   1.494   2.480   7.762
    4MOL    O11  705   1.701   2.451   7.749
    4MOL    C20  706   1.810   2.432   7.656
    4MOL    H16  707   1.781   2.351   7.589
    4MOL    C21  708   1.936   2.386   7.731
    4MOL    H17  709   2.012   2.359   7.658
    4MOL    H18  710   1.912   2.297   7.791
    4MOL    O12  711   1.984   2.491   7.816
    4MOL    C22  712   2.095   2.451   7.898
    4MOL    C23  713   1.581   2.607   7.609
    4MOL    H19  714   1.599   2.689   7.680
    4MOL    O13  715   1.458   2.629   7.538
    4MOL    C24  716   1.346   2.667   7.620
    4MOL    C25  717   1.696   2.606   7.506
    4MOL    H20  718   1.672   2.534   7.426
    4MOL    O14  719   1.709   2.740   7.455
    4MOL    C26  720   1.655   2.757   7.323
    4MOL    C27  721   1.830   2.562   7.572
    4MOL    H21  722   1.866   2.641   7.638
    4MOL    O15  723   1.926   2.534   7.467
    4MOL    C28  724   1.996   2.652   7.418
    4MOL    H22  725   1.927   2.736   7.407
    4MOL    O16  726   2.099   2.686   7.512
    4MOL    C29  727   2.200   2.585   7.534
    4MOL    H23  728   2.155   2.494   7.573
    4MOL    C30  729   2.293   2.644   7.642
    4MOL    H24  730   2.361   2.567   7.680
    4MOL    H25  731   2.233   2.680   7.726
    4MOL    O17  732   2.367   2.752   7.582
    4MOL    C31  733   2.465   2.810   7.666
    4MOL    C32  734   2.060   2.625   7.280
    4MOL    H26  735   2.102   2.720   7.245
    4MOL    O18  736   1.955   2.579   7.192
    4MOL    C33  737   1.971   2.621   7.056
    4MOL    C34  738   2.172   2.520   7.287
    4MOL    H27  739   2.124   2.424   7.307
    4MOL    O19  740   2.243   2.521   7.161
    4MOL    C35  741   2.259   2.392   7.101
    4MOL    C36  742   2.272   2.552   7.400
    4MOL    H28  743   2.331   2.639   7.367
    4MOL    O20  744   2.356   2.436   7.418
    4MOL    C37  745   2.494   2.464   7.448
    4MOL    H29  746   2.514   2.572   7.441
    4MOL    O21  747   2.522   2.420   7.583
    4MOL    C38  748   2.507   2.279   7.609
    4MOL    H30  749   2.406   2.247   7.580
    4MOL    C39  750   2.524   2.256   7.761
    4MOL    H31  751   2.497   2.153   7.785
    4MOL    H32  752   2.456   2.323   7.815
    4MOL    O22  753   2.661   2.280   7.801
    4MOL    C40  754   2.688   2.245   7.937
    4MOL    C41  755   2.588   2.390   7.349
    4MOL    H33  756   2.689   2.427   7.364
    4MOL    O23  757   2.546   2.414   7.212
    4MOL    C42  758   2.585   2.541   7.159
    4MOL    C43  759   2.591   2.238   7.372
    4MOL    H34  760   2.499   2.192   7.335
    4MOL    O24  761   2.707   2.189   7.303
    4MOL    C44  762   2.679   2.108   7.188
    4MOL    C45  763   2.609   2.202   7.521
    4MOL    H35  764   2.711   2.229   7.550
    4MOL    O25  765   2.585   2.060   7.532
    4MOL    C46  766   2.675   1.987   7.618
    4MOL    H36  767   2.754   2.053   7.655
    4MOL    O26  768   2.598   1.934   7.728
    4MOL    C47  769   2.489   1.844   7.690
    4MOL    H37  770   2.425   1.893   7.616
    4MOL    C48  771   2.402   1.817   7.815
    4MOL    H38  772   2.312   1.763   7.786
    4MOL    H39  773   2.373   1.912   7.859
    4MOL    O27  774   2.476   1.742   7.914
    4MOL    C49  775   2.401   1.727   8.036
    4MOL    C50  776   2.740   1.868   7.540
    4MOL    H40  777   2.816   1.823   7.605
    4MOL    O28  778   2.802   1.914   7.419
    4MOL    C51  779   2.926   1.985   7.435
    4MOL    C52  780   2.639   1.757   7.503
    4MOL    H41  781   2.575   1.793   7.422
    4MOL    O29  782   2.714   1.640   7.464
    4MOL    C53  783   2.712   1.614   7.322
    4MOL    C54  784   2.551   1.718   7.624
    4MOL    H42  785   2.614   1.667   7.698
    4MOL    O30  786   2.447   1.631   7.574
    4MOL    C55  787   2.433   1.505   7.644
    4MOL    H43  788   2.522   1.487   7.706
    4MOL    O31  789   2.315   1.512   7.728
    4MOL    C56  790   2.190   1.533   7.657
    4MOL    H44  791   2.192   1.628   7.602
    4MOL    C57  792   2.076   1.536   7.760
    4MOL    H45  793   2.076   1.443   7.818
    4MOL    H46  794   1.979   1.546   7.710
    4MOL    O32  795   2.098   1.649   7.846
    4MOL    C58  796   2.018   1.644   7.965
    4MOL    C59  797   2.419   1.386   7.547
    4MOL    H47  798   2.415   1.293   7.606
    4MOL    O33  799   2.531   1.381   7.456
    4MOL    C60  800   2.654   1.330   7.511
    4MOL    C61  801   2.289   1.394   7.464
    4MOL    H48  802   2.296   1.479   7.394
    4MOL    O34  803   2.271   1.268   7.394
    4MOL    C62  804   2.321   1.263   7.259
    4MOL    C63  805   2.167   1.418   7.557
    4MOL    H49  806   2.145   1.326   7.614
    4MOL    O35  807   2.055   1.455   7.475
    4MOL    C64  808   1.972   1.344   7.439
    4MOL    H50  809   2.030   1.251   7.439
    4MOL    O36  810   1.864   1.334   7.533
    4MOL    C65  811   1.766   1.440   7.536
    4MOL    H51  812   1.814   1.536   7.558
    4MOL    C66  813   1.672   1.400   7.651
    4MOL    H52  814   1.653   1.292   7.647
    4MOL    H53  815   1.577   1.452   7.646
    4MOL    O37  816   1.738   1.435   7.774
    4MOL    C67  817   1.676   1.377   7.890
    4MOL    C68  818   1.917   1.362   7.296
    4MOL    H54  819   1.882   1.264   7.262
    4MOL    O38  820   2.027   1.410   7.215
    4MOL    C69  821   2.032   1.350   7.087
    4MOL    C70  822   1.801   1.464   7.284
    4MOL    H55  823   1.843   1.565   7.292
    4MOL    O39  824   1.734   1.441   7.158
    4MOL    C71  825   1.726   1.556   7.074
    4MOL    C72  826   1.696   1.449   7.397
    4MOL    H56  827   1.637   1.358   7.380
    4MOL    O40  828   1.613   1.568   7.390
    4MOL    H57  829   1.144   1.717   7.907
    4MOL    H58  830   1.306   1.667   7.961
    4MOL    H59  831   1.274   1.837   7.919
    4MOL    H60  832   1.732   1.405   7.979
    4MOL    H61  833   1.572   1.412   7.899
    4MOL    H62  834   1.676   1.267   7.881
    4MOL    H63  835   2.034   1.735   8.023
    4MOL    H64  836   1.912   1.635   7.938
    4MOL    H65  837   2.046   1.558   8.026
    4MOL    H66  838   2.456   1.665   8.108
    4MOL    H67  839   2.382   1.825   8.082
    4MOL    H68  840   2.305   1.679   8.016
    4MOL    H69  841   2.795   2.255   7.958
    4MOL    H70  842   2.631   2.310   8.005
    4MOL    H71  843   2.659   2.141   7.956
    4MOL    H72  844   2.524   2.883   7.610
    4MOL    H73  845   2.417   2.861   7.751
    4MOL    H74  846   2.533   2.733   7.705
    4MOL    H75  847   2.128   2.534   7.961
    4MOL    H76  848   2.066   2.367   7.963
    4MOL    H77  849   2.179   2.418   7.835
    4MOL    H78  850   1.488   2.326   8.101
    4MOL    H79  851   1.570   2.168   8.091
    4MOL    H80  852   1.646   2.316   8.023
    4MOL    H81  853   1.243   2.510   7.317
    4MOL    H82  854   1.404   2.434   7.307
    4MOL    H83  855   1.257   2.340   7.267
    4MOL    H84  856   1.030   2.025   7.299
    4MOL    H85  857   1.082   1.938   7.445
    4MOL    H86  858   0.992   2.092   7.461
    4MOL    H87  859   1.218   1.974   7.113
    4MOL    H88  860   1.364   2.020   7.201
    4MOL    H89  861   1.368   1.882   7.084
    4MOL    H90  862   1.432   1.507   6.997
    4MOL    H91  863   1.467   1.420   7.148
    4MOL    H92  864   1.301   1.476   7.114
    4MOL    H93  865   1.661   1.538   6.988
    4MOL    H94  866   1.682   1.639   7.130
    4MOL    H95  867   1.825   1.584   7.037
    4MOL    H96  868   2.117   1.388   7.029
    4MOL    H97  869   2.041   1.241   7.096
    4MOL    H98  870   1.939   1.374   7.036
    4MOL    H99  871   2.290   1.169   7.212
    4MOL   H100  872   2.282   1.346   7.200
    4MOL   H101  873   2.431   1.267   7.258
    4MOL   H102  874   2.728   1.319   7.431
    4MOL   H103  875   2.694   1.401   7.584
    4MOL   H104  876   2.638   1.233   7.559
    4MOL   H105  877   2.775   1.528   7.298
    4MOL   H106  878   2.609   1.594   7.289
    4MOL   H107  879   2.750   1.701   7.267
    4MOL   H108  880   2.970   2.005   7.336
    4MOL   H109  881   2.909   2.082   7.484
    4MOL   H110  882   2.997   1.926   7.493
    4MOL   H111  883   2.774   2.077   7.144
    4MOL   H112  884   2.623   2.018   7.217
    4MOL   H113  885   2.622   2.165   7.113
    4MOL   H114  886   2.561   2.546   7.052
    4MOL   H115  887   2.533   2.623   7.210
    4MOL   H116  888   2.693   2.555   7.171
    4MOL   H117  889   2.314   2.399   7.006
    4MOL   H118  890   2.316   2.325   7.167
    4MOL   H119  891   2.161   2.347   7.082
    4MOL   H120  892   1.885   2.588   6.996
    4MOL   H121  893   1.978   2.730   7.051
    4MOL   H122  894   2.062   2.579   7.014
    4MOL   H123  895   1.665   2.862   7.292
    4MOL   H124  896   1.709   2.694   7.252
    4MOL   H125  897   1.550   2.729   7.321
    4MOL   H126  898   1.259   2.684   7.555
    4MOL   H127  899   1.319   2.586   7.689
    4MOL   H128  900   1.368   2.758   7.676
    5SOL     OW  901   0.230   0.656   0.119
    5SOL    HW1  902   0.136   0.646   0.132
    5SOL    HW2  903   0.249   0.609   0.038
    6SOL     OW  904   0.224   0.289   0.983
    6SOL    HW1  905   0.247   0.250   1.067
    6SOL    HW2  906   0.129   0.278   0.976
    7SOL     OW  907   0.019   0.385   0.633
    7SOL    HW1  908   3.929   0.399   0.663
    7SOL    HW2  909   0.025   0.291   0.618
    8SOL     OW  910   0.581   1.289   1.191
    8SOL    HW1  911   0.494   1.291   1.150
    8SOL    HW2  912   0.594   1.378   1.223
    9SOL     OW  913   1.547   1.495   0.710
    9SOL    HW1  914   1.515   1.478   0.799
    9SOL    HW2  915   1.468   1.497   0.656
   10SOL     OW  916   1.133   0.698   0.697
   10SOL    HW1  917   1.180   0.780   0.686
   10SOL    HW2  918   1.085   0.709   0.779
   11SOL     OW  919   1.762   0.623   0.216
   11SOL    HW1  920   1.779   0.598   0.126
   11SOL    HW2  921   1.766   0.541   0.265
   12SOL     OW  922   0.753   1.139   1.042
   12SOL    HW1  923   0.690   1.175   1.104
   12SOL    HW2  924   0.789   1.216   0.997
   13SOL     OW  925   0.871   0.770   1.824
   13SOL    HW1  926   0.860   0.841   1.887
   13SOL    HW2  927   0.893   0.814   1.742
   14SOL     OW  928   0.685   1.002   0.647
   14SOL    HW1  929   0.750   0.990   0.715
   14SOL    HW2  930   0.616   1.054   0.688
   15SOL     OW  931   0.712   1.149   1.816
   15SOL    HW1  932   0.759   1.227   1.845
   15SOL    HW2  933   0.630   1.183   1.779
   16SOL     OW  934   0.351   1.401   1.078
   16SOL    HW1  935   0.270   1.381   1.033
   16SOL    HW2  936   0.399   1.459   1.019
   17SOL     OW  937   1.448   1.485   1.359
   17SOL    HW1  938   1.495   1.567   1.373
   17SOL    HW2  939   1.380   1.484   1.426
   18SOL     OW  940   0.457   0.408   1.495
   18SOL    HW1  941   0.539   0.358   1.494
   18SOL    HW2  942   0.388   0.342   1.499
   19SOL     OW  943   1.611   0.450   0.735
   19SOL    HW1  944   1.541   0.485   0.679
   19SOL    HW2  945   1.632   0.523   0.794
   20SOL     OW  946   0.224   1.710   0.472
   20SOL    HW1  947   0.242   1.790   0.522
   20SOL    HW2  948   0.287   1.711   0.401
   21SOL     OW  949   1.137   1.342   1.694
   21SOL    HW1  950   1.177   1.336   1.780
   21SOL    HW2  951   1.085   1.262   1.687
   22SOL     OW  952   0.245   1.446   0.543
   22SOL    HW1  953   0.223   1.538   0.528
   22SOL    HW2  954   0.171   1.412   0.593
   23SOL     OW  955   0.247   1.066   0.884
   23SOL    HW1  956   0.268   0.980   0.923
   23SOL    HW2  957   0.195   1.110   0.950
   24SOL     OW  958   0.611   1.792   1.427
   24SOL    HW1  959   0.528   1.774   1.472
   24SOL    HW2  960   0.633   1.882   1.454
   25SOL     OW  961   0.561   0.981   0.165
   25SOL    HW1  962   0.587   1.024   0.084
   25SOL    HW2  963   0.617   1.021   0.232
   26SOL     OW  964   1.581   0.140   1.456
   26SOL    HW1  965   1.611   0.213   1.401
   26SOL    HW2  966   1.548   0.182   1.536
   27SOL     OW  967   0.139   0.654   0.568
   27SOL    HW1  968   0.097   0.568   0.575
   27SOL    HW2  969   0.103   0.703   0.642
   28SOL     OW  970   0.025   1.598   0.137
   28SOL    HW1  971   0.027   1.503   0.147
   28SOL    HW2  972   3.972   1.629   0.211
   29SOL     OW  973   1.685   0.915   0.642
   29SOL    HW1  974   1.771   0.877   0.625
   29SOL    HW2  975   1.667   0.968   0.565
   30SOL     OW  976   1.649   1.106   0.430
   30SOL    HW1  977   1.738   1.106   0.393
   30SOL    HW2  978   1.654   1.166   0.504
   31SOL     OW  979   0.141   0.756   1.588
   31SOL    HW1  980   0.236   0.751   1.584
   31SOL    HW2  981   0.123   0.844   1.621
   32SOL     OW  982   0.613   1.387   0.737
   32SOL    HW1  983   0.566   1.303   0.745
   32SOL    HW2  984   0.598   1.413   0.646
   33SOL     OW  985   1.285   1.235   1.424
   33SOL    HW1  986   1.317   1.168   1.363
   33SOL    HW2  987   1.345   1.229   1.499
   34SOL     OW  988   0.823   0.003   0.521
   34SOL    HW1  989   0.867   0.084   0.493
   34SOL    HW2  990   0.730   0.025   0.519
   35SOL     OW  991   0.184   0.950   1.278
   35SOL    HW1  992   0.272   0.915   1.266
   35SOL    HW2  993   0.132   0.907   1.210
   36SOL     OW  994   1.529   0.998   0.205
   36SOL    HW1  995   1.462   0.939   0.240
   36SOL    HW2  996   1.572   1.034   0.283
   37SOL     OW  997   1.187   1.809   1.624
   37SOL    HW1  998   1.194   1.869   1.549
   37SOL    HW2  999   1.202   1.722   1.587
   38SOL     OW 1000   0.345   0.251   1.840
   38SOL    HW1 1001   0.387   0.334   1.821
   38SOL    HW2 1002   0.254   0.274   1.858
   39SOL     OW 1003   1.466   1.419   0.956
   39SOL    HW1 1004   1.397   1.434   1.021
   39SOL    HW2 1005   1.454   1.328   0.929
   40SOL     OW 1006   1.612   1.705   0.560
   40SOL    HW1 1007   1.587   1.675   0.473
   40SOL    HW2 1008   1.603   1.628   0.616
   41SOL     OW 1009   0.595   0.715   0.265
   41SOL    HW1 1010   0.596   0.799   0.219
   41SOL    HW2 1011   0.535   0.729   0.338
   42SOL     OW 1012   1.275   0.369   0.940
   42SOL    HW1 1013   1.187   0.330   0.947
   42SOL    HW2 1014   1.332   0.307   0.986
   43SOL     OW 1015   1.538   1.714   0.296
   43SOL    HW1 1016   1.618   1.661   0.305
   43SOL    HW2 1017   1.511   1.701   0.205
   44SOL     OW 1018   0.794   0.616   1.453
   44SOL    HW1 1019   0.765   0.590   1.541
   44SOL    HW2 1020   0.757   0.550   1.395
   45SOL     OW 1021   1.392   0.476   1.677
   45SOL    HW1 1022   1.398   0.521   1.761
   45SOL    HW2 1023   1.450   0.400   1.686
   46SOL     OW 1024   0.952   0.887   1.584
   46SOL    HW1 1025   1.007   0.818   1.547
   46SOL    HW2 1026   0.903   0.922   1.510
   47SOL     OW 1027   0.992   0.403   1.238
   47SOL    HW1 1028   0.907   0.423   1.276
   47SOL    HW2 1029   0.972   0.374   1.149
   48SOL     OW 1030   1.052   0.703   0.428
   48SOL    HW1 1031   1.069   0.694   0.522
   48SOL    HW2 1032   0.969   0.657   0.414
   49SOL     OW 1033   0.082   0.828   0.790
   49SOL    HW1 1034   0.154   0.795   0.843
   49SOL    HW2 1035   0.101   0.921   0.779
   50SOL     OW 1036   0.130   1.863   1.577
   50SOL    HW1 1037   0.138   1.828   1.666
   50SOL    HW2 1038   0.038   1.851   1.554
   51SOL     OW 1039   0.874   0.361   0.221
   51SOL    HW1 1040   0.911   0.419   0.154
   51SOL    HW2 1041   0.879   0.274   0.182
   52SOL     OW 1042   1.708   0.575   1.829
   52SOL    HW1 1043   1.670   0.648   1.781
   52SOL    HW2 1044   1.732   0.512   1.762
   53SOL     OW 1045   1.379   1.142   0.542
   53SOL    HW1 1046   1.458   1.130   0.489
   53SOL    HW2 1047   1.325   1.203   0.493
   54SOL     OW 1048   0.562   0.196   0.881
   54SOL    HW1 1049   0.566   0.219   0.974
   54SOL    HW2 1050   0.549   0.279   0.836
   55SOL     OW 1051   1.002   1.441   0.475
   55SOL    HW1 1052   0.971   1.516   0.424
   55SOL    HW2 1053   0.981   1.463   0.566
   56SOL     OW 1054   0.365   1.819   0.872
   56SOL    HW1 1055   0.428   1.747   0.880
   56SOL    HW2 1056   0.416   1.898   0.887
   57SOL     OW 1057   1.800   1.047   0.872
   57SOL    HW1 1058   1.745   1.039   0.794
   57SOL    HW2 1059   1.737   1.057   0.944
   58SOL     OW 1060   1.224   1.537   1.515
   58SOL    HW1 1061   1.210   1.465   1.576
   58SOL    HW2 1062   1.158   1.524   1.447
   59SOL     OW 1063   0.308   0.931   0.241
   59SOL    HW1 1064   0.399   0.945   0.215
   59SOL    HW2 1065   0.296   0.836   0.234
   60SOL     OW 1066   1.478   0.748   0.730
   60SOL    HW1 1067   1.474   0.706   0.816
   60SOL    HW2 1068   1.556   0.803   0.734
   61SOL     OW 1069   0.468   1.261   1.737
   61SOL    HW1 1070   0.442   1.269   1.645
   61SOL    HW2 1071   0.386   1.264   1.786
   62SOL     OW 1072   1.121   1.779   0.229
   62SOL    HW1 1073   1.058   1.732   0.284
   62SOL    HW2 1074   1.150   1.714   0.166
   63SOL     OW 1075   0.201   0.294   1.500
   63SOL    HW1 1076   0.107   0.314   1.499
   63SOL    HW2 1077   0.209   0.222   1.562
   64SOL     OW 1078   1.631   1.375   0.089
   64SOL    HW1 1079   1.596   1.455   0.049
   64SOL    HW2 1080   1.565   1.308   0.071
   65SOL     OW 1081   0.476   1.732   0.323
   65SOL    HW1 1082   0.517   1.791   0.386
   65SOL    HW2 1083   0.550   1.697   0.272
   66SOL     OW 1084   1.441   0.141   0.396
   66SOL    HW1 1085   1.395   0.057   0.395
   66SOL    HW2 1086   1.522   0.124   0.444
   67SOL     OW 1087   0.252   1.791   1.231
   67SOL    HW1 1088   0.298   1.725   1.284
   67SOL    HW2 1089   0.249   1.753   1.143
   68SOL     OW 1090   0.938   1.699   0.897
   68SOL    HW1 1091   1.016   1.648   0.920
   68SOL    HW2 1092   0.895   1.649   0.828
   69SOL     OW 1093   0.397   0.695   0.470
   69SOL    HW1 1094   0.421   0.603   0.484
   69SOL    HW2 1095   0.305   0.699   0.497
   70SOL     OW 1096   1.529   0.229   1.727
   70SOL    HW1 1097   1.525   0.254   1.819
   70SOL    HW2 1098   1.511   0.135   1.727
   71SOL     OW 1099   0.628   0.109   0.122
   71SOL    HW1 1100   0.724   0.108   0.126
   71SOL    HW2 1101   0.609   0.132   0.031
   72SOL     OW 1102   0.776   0.284   1.767
   72SOL    HW1 1103   0.850   0.223   1.769
   72SOL    HW2 1104   0.720   0.255   1.839
   73SOL     OW 1105   0.876   1.522   1.194
   73SOL    HW1 1106   0.860   1.485   1.107
   73SOL    HW2 1107   0.945   1.468   1.231
   74SOL     OW 1108   1.339   0.587   1.431
   74SOL    HW1 1109   1.370   0.558   1.517
   74SOL    HW2 1110   1.375   0.676   1.421
   75SOL     OW 1111   0.816   1.393   0.942
   75SOL    HW1 1112   0.901   1.381   0.899
   75SOL    HW2 1113   0.754   1.395   0.869
   76SOL     OW 1114   0.930   0.512   0.900
   76SOL    HW1 1115   0.905   0.504   0.808
   76SOL    HW2 1116   0.955   0.423   0.926
   77SOL     OW 1117   0.551   0.052   0.498
   77SOL    HW1 1118   0.476   0.058   0.558
   77SOL    HW2 1119   0.544   0.129   0.443
   78SOL     OW 1120   1.430   1.205   0.044
   78SOL    HW1 1121   1.449   1.124   0.092
   78SOL    HW2 1122   1.338   1.222   0.064
   79SOL     OW 1123   0.358   3.988   0.175
   79SOL    HW1 1124   0.322   0.073   0.148
   79SOL    HW2 1125   0.434   0.010   0.229
   80SOL     OW 1126   0.943   0.249   0.466
   80SOL    HW1 1127   0.911   0.288   0.384
   80SOL    HW2 1128   1.038   0.251   0.457
   81SOL     OW 1129   1.079   0.683   1.458
   81SOL    HW1 1130   1.010   0.618   1.465
   81SOL    HW2 1131   1.160   0.632   1.453
   82SOL     OW 1132   1.223   1.570   0.794
   82SOL    HW1 1133   1.236   1.639   0.729
   82SOL    HW2 1134   1.291   1.585   0.859
   83SOL     OW 1135   0.465   1.151   0.733
   83SOL    HW1 1136   0.395   1.126   0.793
   83SOL    HW2 1137   0.429   1.137   0.646
   84SOL     OW 1138   1.262   1.793   0.610
   84SOL    HW1 1139   1.312   1.855   0.557
   84SOL    HW2 1140   1.196   1.847   0.654
   85SOL     OW 1141   0.999   0.532   0.053
   85SOL    HW1 1142   0.999   0.531  13.857
   85SOL    HW2 1143   1.090   0.552   0.076
   86SOL     OW 1144   0.080   0.573   1.393
   86SOL    HW1 1145   0.170   0.555   1.363
   86SOL    HW2 1146   0.090   0.645   1.456
   87SOL     OW 1147   0.572   0.231   1.160
   87SOL    HW1 1148   0.594   0.138   1.168
   87SOL    HW2 1149   0.481   0.237   1.190
   88SOL     OW 1150   0.871   0.462   0.638
   88SOL    HW1 1151   0.824   0.515   0.574
   88SOL    HW2 1152   0.891   0.381   0.592
   89SOL     OW 1153   0.996   0.040   0.779
   89SOL    HW1 1154   0.954   0.068   0.698
   89SOL    HW2 1155   1.008   3.946   0.769
   90SOL     OW 1156   1.438   1.163   0.858
   90SOL    HW1 1157   1.369   1.097   0.856
   90SOL    HW2 1158   1.464   1.173   0.766
   91SOL     OW 1159   1.465   0.607   0.974
   91SOL    HW1 1160   1.410   0.528   0.979
   91SOL    HW2 1161   1.524   0.600   1.049
   92SOL     OW 1162   1.845   0.817   0.385
   92SOL    HW1 1163   1.899   0.762   0.442
   92SOL    HW2 1164   1.812   0.757   0.318
   93SOL     OW 1165   0.494   1.381   0.167
   93SOL    HW1 1166   0.422   1.351   0.222
   93SOL    HW2 1167   0.452   1.419   0.090
   94SOL     OW 1168   1.673   1.261   0.644
   94SOL    HW1 1169   1.767   1.261   0.661
   94SOL    HW2 1170   1.644   1.349   0.671
   95SOL     OW 1171   1.420   0.591   0.087
   95SOL    HW1 1172   1.351   0.577   0.152
   95SOL    HW2 1173   1.473   0.511   0.090
   96SOL     OW 1174   0.528   0.258   0.327
   96SOL    HW1 1175   0.566   0.210   0.254
   96SOL    HW2 1176   0.505   0.344   0.290
   97SOL     OW 1177   1.749   1.233   1.572
   97SOL    HW1 1178   1.836   1.192   1.567
   97SOL    HW2 1179   1.766   1.324   1.596
   98SOL     OW 1180   1.056   1.354   1.334
   98SOL    HW1 1181   0.980   1.322   1.384
   98SOL    HW2 1182   1.131   1.311   1.375
   99SOL     OW 1183   1.608   1.614   1.664
   99SOL    HW1 1184   1.589   1.645   1.576
   99SOL    HW2 1185   1.688   1.563   1.656
  100SOL     OW 1186   1.132   1.208   1.104
  100SOL    HW1 1187   1.071   1.243   1.168
  100SOL    HW2 1188   1.100   1.239   1.020
  101SOL     OW 1189   1.624   1.096   1.076
  101SOL    HW1 1190   1.619   1.158   1.148
  101SOL    HW2 1191   1.548   1.115   1.021
  102SOL     OW 1192   0.913   0.115   1.401
  102SOL    HW1 1193   0.932   0.088   1.311
  102SOL    HW2 1194   0.993   0.157   1.432
  103SOL     OW 1195   0.984   1.115   1.723
  103SOL    HW1 1196   0.893   1.131   1.746
  103SOL    HW2 1197   0.982   1.037   1.668
  104SOL     OW 1198   0.716   1.061   0.377
  104SOL    HW1 1199   0.701   1.042   0.469
  104SOL    HW2 1200   0.789   1.005   0.353
  105SOL     OW 1201   0.423   0.817   1.252
  105SOL    HW1 1202   0.491   0.823   1.319
  105SOL    HW2 1203   0.388   0.728   1.262
  106SOL     OW 1204   1.266   0.375   1.277
  106SOL    HW1 1205   1.300   0.453   1.321
  106SOL    HW2 1206   1.178   0.400   1.247
  107SOL     OW 1207   0.065   1.580   1.346
  107SOL    HW1 1208   0.070   1.634   1.267
  107SOL    HW2 1209   0.156   1.567   1.373
  108SOL     OW 1210   0.364   1.103   0.481
  108SOL    HW1 1211   0.354   1.180   0.424
  108SOL    HW2 1212   0.380   1.031   0.420
  109SOL     OW 1213   0.555   0.533   0.858
  109SOL    HW1 1214   0.568   0.592   0.784
  109SOL    HW2 1215   0.620   0.560   0.922
  110SOL     OW 1216   1.245   1.342   0.398
  110SOL    HW1 1217   1.298   1.417   0.422
  110SOL    HW2 1218   1.157   1.363   0.429
  111SOL     OW 1219   1.279   1.460   1.147
  111SOL    HW1 1220   1.336   1.461   1.224
  111SOL    HW2 1221   1.225   1.382   1.158
  112SOL     OW 1222   1.579   0.637   0.490
  112SOL    HW1 1223   1.535   0.693   0.554
  112SOL    HW2 1224   1.613   0.697   0.424
  113SOL     OW 1225   0.345   1.527   1.318
  113SOL    HW1 1226   0.335   1.476   1.238
  113SOL    HW2 1227   0.440   1.542   1.326
  114SOL     OW 1228   0.417   0.737   1.601
  114SOL    HW1 1229   0.480   0.783   1.544
  114SOL    HW2 1230   0.454   0.650   1.614
  115SOL     OW 1231   1.604   0.780   1.685
  115SOL    HW1 1232   1.518   0.822   1.678
  115SOL    HW2 1233   1.656   0.821   1.616
  116SOL     OW 1234   1.011   0.134   1.779
  116SOL    HW1 1235   1.064   0.205   1.743
  116SOL    HW2 1236   1.001   0.073   1.705
  117SOL     OW 1237   0.483   0.037   1.765
  117SOL    HW1 1238   0.490   0.047   1.670
  117SOL    HW2 1239   0.421   0.105   1.791
  118SOL     OW 1240   0.584   0.875   1.031
  118SOL    HW1 1241   0.617   0.965   1.034
  118SOL    HW2 1242   0.529   0.867   1.109
  119SOL     OW 1243   1.353   0.858   1.027
  119SOL    HW1 1244   1.269   0.846   0.983
  119SOL    HW2 1245   1.397   0.774   1.019
  120SOL     OW 1246   1.217   0.550   0.267
  120SOL    HW1 1247   1.224   0.470   0.320
  120SOL    HW2 1248   1.160   0.607   0.319
  121SOL     OW 1249   0.311   0.212   1.240
  121SOL    HW1 1250   0.268   0.248   1.318
  121SOL    HW2 1251   0.296   0.118   1.246
  122SOL     OW 1252   0.062   1.306   1.280
  122SOL    HW1 1253   0.091   1.264   1.361
  122SOL    HW2 1254   0.052   1.398   1.304
  123SOL     OW 1255   0.725   0.634   1.053
  123SOL    HW1 1256   0.799   0.619   0.994
  123SOL    HW2 1257   0.695   0.722   1.031
  124SOL     OW 1258   1.737   0.960   1.854
  124SOL    HW1 1259   1.691   0.895   1.800
  124SOL    HW2 1260   1.678   0.975   1.928
  125SOL     OW 1261   0.332   0.057   0.657
  125SOL    HW1 1262   0.307   0.149   0.663
  125SOL    HW2 1263   0.282   0.013   0.726
  126SOL     OW 1264   1.576   0.390   0.391
  126SOL    HW1 1265   1.549   0.329   0.459
  126SOL    HW2 1266   1.568   0.477   0.431
  127SOL     OW 1267   1.029   0.759   0.959
  127SOL    HW1 1268   1.022   0.776   1.053
  127SOL    HW2 1269   1.002   0.668   0.949
  128SOL     OW 1270   0.982   1.567   1.719
  128SOL    HW1 1271   0.966   1.610   1.635
  128SOL    HW2 1272   1.024   1.484   1.696
  129SOL     OW 1273   1.852   1.489   1.604
  129SOL    HW1 1274   1.881   1.521   1.519
  129SOL    HW2 1275   1.925   1.507   1.663
  130SOL     OW 1276   0.353   0.922   1.798
  130SOL    HW1 1277   0.431   0.942   1.851
  130SOL    HW2 1278   0.382   0.854   1.737
  131SOL     OW 1279   1.537   0.268   0.146
  131SOL    HW1 1280   1.468   0.201   0.146
  131SOL    HW2 1281   1.537   0.302   0.235
  132SOL     OW 1282   1.288   0.832   0.056
  132SOL    HW1 1283   1.336   0.749   0.061
  132SOL    HW2 1284   1.307   0.864  13.868
  133SOL     OW 1285   1.066   1.337   0.855
  133SOL    HW1 1286   1.070   1.265   0.792
  133SOL    HW2 1287   1.127   1.402   0.820
  134SOL     OW 1288   0.313   0.803   0.950
  134SOL    HW1 1289   0.408   0.819   0.945
  134SOL    HW2 1290   0.306   0.713   0.982
  135SOL     OW 1291   0.339   0.529   1.015
  135SOL    HW1 1292   0.297   0.444   0.997
  135SOL    HW2 1293   0.414   0.532   0.956
  136SOL     OW 1294   1.133   0.380   1.697
  136SOL    HW1 1295   1.085   0.435   1.759
  136SOL    HW2 1296   1.220   0.420   1.692
  137SOL     OW 1297   1.151   0.225   1.482
  137SOL    HW1 1298   1.142   0.280   1.560
  137SOL    HW2 1299   1.177   0.287   1.413
  138SOL     OW 1300   0.014   1.325   0.192
  138SOL    HW1 1301   3.919   1.338   0.184
  138SOL    HW2 1302   0.023   1.233   0.215
  139SOL     OW 1303   0.078   1.800   0.888
  139SOL    HW1 1304   0.083   1.704   0.892
  139SOL    HW2 1305   0.169   1.829   0.892
  140SOL     OW 1306   0.501   1.571   0.910
  140SOL    HW1 1307   0.570   1.632   0.936
  140SOL    HW2 1308   0.544   1.508   0.852
  141SOL     OW 1309   0.978   0.789   1.224
  141SOL    HW1 1310   1.034   0.769   1.299
  141SOL    HW2 1311   0.893   0.750   1.247
  142SOL     OW 1312   0.035   0.575   1.112
  142SOL    HW1 1313   0.095   0.520   1.062
  142SOL    HW2 1314   0.061   0.561   1.203
  143SOL     OW 1315   0.211   0.516   1.722
  143SOL    HW1 1316   0.257   0.476   1.648
  143SOL    HW2 1317   0.164   0.590   1.684
  144SOL     OW 1318   1.379   0.937   1.657
  144SOL    HW1 1319   1.400   1.030   1.654
  144SOL    HW2 1320   1.375   0.910   1.565
  145SOL     OW 1321   0.815   0.581   0.374
  145SOL    HW1 1322   0.826   0.503   0.319
  145SOL    HW2 1323   0.741   0.627   0.335
  146SOL     OW 1324   1.640   0.602   1.183
  146SOL    HW1 1325   1.631   0.542   1.257
  146SOL    HW2 1326   1.728   0.585   1.149
  147SOL     OW 1327   0.300   1.544   1.725
  147SOL    HW1 1328   0.252   1.613   1.770
  147SOL    HW2 1329   0.269   1.463   1.765
  148SOL     OW 1330   0.710   0.454   1.256
  148SOL    HW1 1331   0.660   0.376   1.231
  148SOL    HW2 1332   0.700   0.513   1.181
  149SOL     OW 1333   0.926   1.679   1.469
  149SOL    HW1 1334   0.900   1.642   1.385
  149SOL    HW2 1335   0.919   1.774   1.456
  150SOL     OW 1336   0.429   0.491   0.228
  150SOL    HW1 1337   0.504   0.551   0.239
  150SOL    HW2 1338   0.357   0.548   0.202
  151SOL     OW 1339   0.156   1.135   1.475
  151SOL    HW1 1340   0.157   1.084   1.556
  151SOL    HW2 1341   0.171   1.070   1.406
  152SOL     OW 1342   1.323   1.045   1.222
  152SOL    HW1 1343   1.346   0.982   1.154
  152SOL    HW2 1344   1.255   1.100   1.182
  153SOL     OW 1345   1.314   0.858   0.327
  153SOL    HW1 1346   1.240   0.824   0.378
  153SOL    HW2 1347   1.290   0.844   0.236
  154SOL     OW 1348   1.244   1.735   1.108
  154SOL    HW1 1349   1.328   1.756   1.067
  154SOL    HW2 1350   1.249   1.642   1.128
  155SOL     OW 1351   0.078   1.216   1.027
  155SOL    HW1 1352   0.084   1.242   1.119
  155SOL    HW2 1353   3.985   1.226   1.006
  156SOL     OW 1354   0.679   1.668   1.734
  156SOL    HW1 1355   0.620   1.743   1.726
  156SOL    HW2 1356   0.746   1.682   1.667
  157SOL     OW 1357   0.902   0.104   0.135
  157SOL    HW1 1358   0.941   0.091   0.048
  157SOL    HW2 1359   0.910   0.019   0.178
  158SOL     OW 1360   1.701   0.124   0.495
  158SOL    HW1 1361   1.782   0.134   0.445
  158SOL    HW2 1362   1.693   0.030   0.509
  159SOL     OW 1363   1.369   1.572   0.473
  159SOL    HW1 1364   1.418   1.613   0.402
  159SOL    HW2 1365   1.329   1.645   0.520
  160SOL     OW 1366   0.175   1.763   1.830
  160SOL    HW1 1367   0.118   1.713   1.888
  160SOL    HW2 1368   0.215   1.829   1.887
  161SOL     OW 1369   1.276   0.928   0.672
  161SOL    HW1 1370   1.350   0.868   0.683
  161SOL    HW2 1371   1.311   0.999   0.618
  162SOL     OW 1372   0.810   1.274   1.428
  162SOL    HW1 1373   0.781   1.315   1.509
  162SOL    HW2 1374   0.738   1.291   1.366
  163SOL     OW 1375   0.673   1.586   0.187
  163SOL    HW1 1376   0.664   1.617   0.097
  163SOL    HW2 1377   0.628   1.501   0.188
  164SOL     OW 1378   1.582   1.712   1.410
  164SOL    HW1 1379   1.638   1.704   1.333
  164SOL    HW2 1380   1.570   1.806   1.421
  165SOL     OW 1381   1.839   0.177   0.966
  165SOL    HW1 1382   1.872   0.111   0.906
  165SOL    HW2 1383   1.750   0.196   0.935
  166SOL     OW 1384   0.273   0.321   0.715
  166SOL    HW1 1385   0.187   0.356   0.690
  166SOL    HW2 1386   0.267   0.305   0.809
  167SOL     OW 1387   1.216   1.601   0.033
  167SOL    HW1 1388   1.206   1.510   0.060
  167SOL    HW2 1389   1.177   1.605  13.846
  168SOL     OW 1390   0.823   1.005   1.374
  168SOL    HW1 1391   0.867   1.000   1.289
  168SOL    HW2 1392   0.822   1.099   1.394
  169SOL     OW 1393   0.921   0.911   0.287
  169SOL    HW1 1394   0.991   0.951   0.236
  169SOL    HW2 1395   0.964   0.841   0.336
  170SOL     OW 1396   1.483   1.643   0.048
  170SOL    HW1 1397   1.389   1.625   0.040
  170SOL    HW2 1398   1.513   1.649  13.857
  171SOL     OW 1399   0.374   1.303   1.491
  171SOL    HW1 1400   0.358   1.383   1.441
  171SOL    HW2 1401   0.297   1.248   1.474
  172SOL     OW 1402   1.610   1.279   1.278
  172SOL    HW1 1403   1.674   1.272   1.350
  172SOL    HW2 1404   1.547   1.343   1.309
  173SOL     OW 1405   1.056   1.109   0.708
  173SOL    HW1 1406   0.984   1.057   0.746
  173SOL    HW2 1407   1.120   1.044   0.680
  174SOL     OW 1408   1.015   0.249   0.969
  174SOL    HW1 1409   1.004   0.199   0.888
  174SOL    HW2 1410   1.010   0.184   1.039
  175SOL     OW 1411   0.607   1.487   0.483
  175SOL    HW1 1412   0.652   1.437   0.414
  175SOL    HW2 1413   0.536   1.532   0.438
  176SOL     OW 1414   1.720   0.394   1.372
  176SOL    HW1 1415   1.793   0.456   1.376
  176SOL    HW2 1416   1.754   0.322   1.318
  177SOL     OW 1417   0.266   1.315   0.310
  177SOL    HW1 1418   0.187   1.342   0.262
  177SOL    HW2 1419   0.263   1.365   0.391
  178SOL     OW 1420   0.108   0.999   1.718
  178SOL    HW1 1421   0.048   0.991   1.792
  178SOL    HW2 1422   0.194   0.981   1.754
  179SOL     OW 1423   0.694   0.253   1.501
  179SOL    HW1 1424   0.762   0.200   1.460
  179SOL    HW2 1425   0.723   0.262   1.592
  180SOL     OW 1426   0.068   0.365   0.037
  180SOL    HW1 1427   3.978   0.372   0.067
  180SOL    HW2 1428   0.063   0.383  13.843
  181SOL     OW 1429   1.427   0.857   1.398
  181SOL    HW1 1430   1.378   0.919   1.344
  181SOL    HW2 1431   1.516   0.859   1.364
  182SOL     OW 1432   0.051   0.201   0.320
  182SOL    HW1 1433   0.076   0.275   0.265
  182SOL    HW2 1434   0.134   0.158   0.342
  183SOL     OW 1435   1.186   1.347   0.122
  183SOL    HW1 1436   1.092   1.335   0.110
  183SOL    HW2 1437   1.201   1.332   0.215
  184SOL     OW 1438   0.621   0.829   1.437
  184SOL    HW1 1439   0.677   0.904   1.421
  184SOL    HW2 1440   0.681   0.755   1.445
  185SOL     OW 1441   1.492   1.783   0.983
  185SOL    HW1 1442   1.513   1.852   0.921
  185SOL    HW2 1443   1.575   1.738   0.998
  186SOL     OW 1444   0.718   0.562   1.707
  186SOL    HW1 1445   0.762   0.623   1.765
  186SOL    HW2 1446   0.744   0.475   1.739
  187SOL     OW 1447   1.472   1.198   1.631
  187SOL    HW1 1448   1.460   1.211   1.725
  187SOL    HW2 1449   1.566   1.212   1.616
  188SOL     OW 1450   0.378   1.743   1.557
  188SOL    HW1 1451   0.291   1.781   1.544
  188SOL    HW2 1452   0.362   1.661   1.603
  189SOL     OW 1453   1.667   0.881   1.255
  189SOL    HW1 1454   1.662   0.795   1.212
  189SOL    HW2 1455   1.657   0.944   1.184
  190SOL     OW 1456   1.231   0.335   0.435
  190SOL    HW1 1457   1.294   0.262   0.431
  190SOL    HW2 1458   1.247   0.376   0.520
  191SOL     OW 1459   0.589   0.737   0.672
  191SOL    HW1 1460   0.626   0.824   0.655
  191SOL    HW2 1461   0.522   0.727   0.604
  192SOL     OW 1462   1.751   0.384   1.643
  192SOL    HW1 1463   1.733   0.389   1.549
  192SOL    HW2 1464   1.694   0.313   1.674
  193SOL     OW 1465   1.745   0.933   1.512
  193SOL    HW1 1466   1.736   1.028   1.525
  193SOL    HW2 1467   1.729   0.920   1.418
  194SOL     OW 1468   0.907   1.399   0.065
  194SOL    HW1 1469   0.841   1.379   0.131
  194SOL    HW2 1470   0.859   1.400  13.882
  195SOL     OW 1471   0.663   1.788   0.942
  195SOL    HW1 1472   0.643   1.879   0.920
  195SOL    HW2 1473   0.758   1.782   0.935
  196SOL     OW 1474   0.868   0.968   0.853
  196SOL    HW1 1475   0.919   0.896   0.892
  196SOL    HW2 1476   0.832   1.014   0.928
  197SOL     OW 1477   1.098   1.014   0.111
  197SOL    HW1 1478   1.087   1.058   0.027
  197SOL    HW2 1479   1.171   0.954   0.097
  198SOL     OW 1480   1.858   1.516   0.835
  198SOL    HW1 1481   1.779   1.556   0.798
  198SOL    HW2 1482   1.843   1.517   0.930
  199SOL     OW 1483   0.226   1.303   1.856
  199SOL    HW1 1484   0.154   1.247   1.829
  199SOL    HW2 1485   0.213   1.317   1.950
  200SOL     OW 1486   0.112   1.282   0.729
  200SOL    HW1 1487   0.129   1.232   0.809
  200SOL    HW2 1488   0.103   1.215   0.661
  201SOL     OW 1489   0.682   1.405   1.629
  201SOL    HW1 1490   0.602   1.362   1.660
  201SOL    HW2 1491   0.677   1.493   1.667
  202SOL     OW 1492   1.811   0.183   1.238
  202SOL    HW1 1493   1.814   0.089   1.253
  202SOL    HW2 1494   1.826   0.193   1.144
  203SOL     OW 1495   0.442   0.437   0.532
  203SOL    HW1 1496   0.470   0.362   0.479
  203SOL    HW2 1497   0.389   0.397   0.602
  204SOL     OW 1498   1.700   1.500   1.100
  204SOL    HW1 1499   1.621   1.472   1.052
  204SOL    HW2 1500   1.715   1.430   1.163
  205SOL     OW 1501   0.333   0.558   1.293
  205SOL    HW1 1502   0.389   0.501   1.346
  205SOL    HW2 1503   0.348   0.529   1.203
  206SOL     OW 1504   0.829   1.578   0.676
  206SOL    HW1 1505   0.813   1.640   0.604
  206SOL    HW2 1506   0.753   1.520   0.674
  207SOL     OW 1507   1.460   0.254   1.110
  207SOL    HW1 1508   1.478   0.167   1.146
  207SOL    HW2 1509   1.405   0.296   1.176
  208SOL     OW 1510   1.004   0.028   1.146
  208SOL    HW1 1511   0.923   3.991   1.110
  208SOL    HW2 1512   1.062   3.953   1.155
  209SOL     OW 1513   0.778   1.324   0.320
  209SOL    HW1 1514   0.747   1.235   0.336
  209SOL    HW2 1515   0.859   1.330   0.370
  210SOL     OW 1516   0.620   1.556   1.286
  210SOL    HW1 1517   0.622   1.638   1.335
  210SOL    HW2 1518   0.708   1.549   1.249
  211SOL     OW 1519   1.321   0.069   0.129
  211SOL    HW1 1520   1.338   3.982   0.093
  211SOL    HW2 1521   1.255   0.055   0.197
  212SOL     OW 1522   1.281   0.455   0.683
  212SOL    HW1 1523   1.234   0.539   0.678
  212SOL    HW2 1524   1.284   0.436   0.777
  213SOL     OW 1525   1.588   0.210   0.868
  213SOL    HW1 1526   1.539   0.234   0.946
  213SOL    HW2 1527   1.588   0.289   0.814
  214SOL     OW 1528   0.044   1.031   0.256
  214SOL    HW1 1529   0.137   1.012   0.251
  214SOL    HW2 1530   0.007   0.957   0.305
  215SOL     OW 1531   0.894   1.655   0.343
  215SOL    HW1 1532   0.819   1.626   0.292
  215SOL    HW2 1533   0.862   1.728   0.395
  216SOL     OW 1534   0.233   0.628   1.979
  216SOL    HW1 1535   0.139   0.632   2.001
  216SOL    HW2 1536   0.235   0.598   1.888
  217SOL     OW 1537   0.224   0.289   2.845
  217SOL    HW1 1538   0.246   0.250   2.929
  217SOL    HW2 1539   0.129   0.278   2.838
  218SOL     OW 1540   0.019   0.385   2.498
  218SOL    HW1 1541   3.928   0.399   2.526
  218SOL    HW2 1542   0.025   0.291   2.483
  219SOL     OW 1543   0.581   1.289   3.053
  219SOL    HW1 1544   0.494   1.291   3.012
  219SOL    HW2 1545   0.594   1.378   3.085
  220SOL     OW 1546   1.550   1.502   2.571
  220SOL    HW1 1547   1.518   1.482   2.658
  220SOL    HW2 1548   1.472   1.500   2.516
  221SOL     OW 1549   1.133   0.698   2.559
  221SOL    HW1 1550   1.180   0.781   2.547
  221SOL    HW2 1551   1.085   0.710   2.641
  222SOL     OW 1552   1.767   0.619   2.087
  222SOL    HW1 1553   1.745   0.611   1.994
  222SOL    HW2 1554   1.752   0.531   2.122
  223SOL     OW 1555   0.754   1.139   2.904
  223SOL    HW1 1556   0.690   1.175   2.966
  223SOL    HW2 1557   0.789   1.216   2.859
  224SOL     OW 1558   0.871   0.770   3.686
  224SOL    HW1 1559   0.860   0.841   3.749
  224SOL    HW2 1560   0.893   0.814   3.604
  225SOL     OW 1561   0.685   1.002   2.507
  225SOL    HW1 1562   0.751   0.991   2.576
  225SOL    HW2 1563   0.616   1.054   2.549
  226SOL     OW 1564   0.712   1.149   3.678
  226SOL    HW1 1565   0.759   1.227   3.707
  226SOL    HW2 1566   0.630   1.183   3.641
  227SOL     OW 1567   0.351   1.401   2.941
  227SOL    HW1 1568   0.270   1.380   2.894
  227SOL    HW2 1569   0.399   1.459   2.881
  228SOL     OW 1570   1.449   1.485   3.221
  228SOL    HW1 1571   1.495   1.568   3.234
  228SOL    HW2 1572   1.380   1.485   3.288
  229SOL     OW 1573   0.457   0.408   3.357
  229SOL    HW1 1574   0.539   0.358   3.356
  229SOL    HW2 1575   0.388   0.341   3.361
  230SOL     OW 1576   1.612   0.451   2.597
  230SOL    HW1 1577   1.542   0.482   2.539
  230SOL    HW2 1578   1.630   0.524   2.656
  231SOL     OW 1579   0.220   1.719   2.319
  231SOL    HW1 1580   0.240   1.793   2.377
  231SOL    HW2 1581   0.297   1.711   2.263
  232SOL     OW 1582   1.137   1.342   3.556
  232SOL    HW1 1583   1.178   1.336   3.642
  232SOL    HW2 1584   1.085   1.262   3.549
  233SOL     OW 1585   0.250   1.450   2.402
  233SOL    HW1 1586   0.215   1.538   2.387
  233SOL    HW2 1587   0.183   1.406   2.453
  234SOL     OW 1588   0.248   1.066   2.746
  234SOL    HW1 1589   0.267   0.981   2.786
  234SOL    HW2 1590   0.195   1.111   2.812
  235SOL     OW 1591   0.611   1.792   3.289
  235SOL    HW1 1592   0.528   1.774   3.334
  235SOL    HW2 1593   0.633   1.882   3.315
  236SOL     OW 1594   0.577   0.986   2.001
  236SOL    HW1 1595   0.625   1.030   1.931
  236SOL    HW2 1596   0.618   1.016   2.082
  237SOL     OW 1597   1.581   0.140   3.318
  237SOL    HW1 1598   1.611   0.213   3.263
  237SOL    HW2 1599   1.548   0.182   3.398
  238SOL     OW 1600   0.140   0.652   2.431
  238SOL    HW1 1601   0.098   0.566   2.436
  238SOL    HW2 1602   0.102   0.702   2.504
  239SOL     OW 1603   0.044   1.589   2.000
  239SOL    HW1 1604   0.037   1.497   2.026
  239SOL    HW2 1605   3.961   1.628   2.027
  240SOL     OW 1606   1.685   0.914   2.502
  240SOL    HW1 1607   1.772   0.877   2.486
  240SOL    HW2 1608   1.667   0.969   2.425
  241SOL     OW 1609   1.649   1.106   2.291
  241SOL    HW1 1610   1.735   1.108   2.251
  241SOL    HW2 1611   1.655   1.167   2.365
  242SOL     OW 1612   0.141   0.756   3.451
  242SOL    HW1 1613   0.236   0.751   3.446
  242SOL    HW2 1614   0.123   0.844   3.483
  243SOL     OW 1615   0.613   1.387   2.598
  243SOL    HW1 1616   0.567   1.303   2.607
  243SOL    HW2 1617   0.598   1.413   2.507
  244SOL     OW 1618   1.285   1.235   3.286
  244SOL    HW1 1619   1.317   1.168   3.225
  244SOL    HW2 1620   1.345   1.230   3.361
  245SOL     OW 1621   0.820   0.004   2.378
  245SOL    HW1 1622   0.865   0.084   2.354
  245SOL    HW2 1623   0.727   0.027   2.378
  246SOL     OW 1624   0.184   0.950   3.140
  246SOL    HW1 1625   0.272   0.915   3.128
  246SOL    HW2 1626   0.132   0.908   3.072
  247SOL     OW 1627   1.532   0.996   2.062
  247SOL    HW1 1628   1.462   0.939   2.095
  247SOL    HW2 1629   1.574   1.030   2.141
  248SOL     OW 1630   1.187   1.809   3.486
  248SOL    HW1 1631   1.194   1.869   3.411
  248SOL    HW2 1632   1.202   1.722   3.449
  249SOL     OW 1633   0.345   0.251   3.702
  249SOL    HW1 1634   0.388   0.335   3.683
  249SOL    HW2 1635   0.253   0.274   3.719
  250SOL     OW 1636   1.467   1.420   2.816
  250SOL    HW1 1637   1.398   1.435   2.881
  250SOL    HW2 1638   1.455   1.328   2.790
  251SOL     OW 1639   1.598   1.714   2.407
  251SOL    HW1 1640   1.594   1.670   2.322
  251SOL    HW2 1641   1.596   1.642   2.471
  252SOL     OW 1642   0.595   0.717   2.128
  252SOL    HW1 1643   0.601   0.801   2.083
  252SOL    HW2 1644   0.533   0.731   2.199
  253SOL     OW 1645   1.274   0.369   2.803
  253SOL    HW1 1646   1.187   0.330   2.810
  253SOL    HW2 1647   1.332   0.307   2.848
  254SOL     OW 1648   1.567   1.648   2.150
  254SOL    HW1 1649   1.646   1.698   2.130
  254SOL    HW2 1650   1.527   1.631   2.064
  255SOL     OW 1651   0.794   0.616   3.315
  255SOL    HW1 1652   0.765   0.590   3.403
  255SOL    HW2 1653   0.756   0.550   3.257
  256SOL     OW 1654   1.392   0.476   3.539
  256SOL    HW1 1655   1.398   0.521   3.623
  256SOL    HW2 1656   1.450   0.400   3.548
  257SOL     OW 1657   0.952   0.887   3.446
  257SOL    HW1 1658   1.007   0.818   3.409
  257SOL    HW2 1659   0.903   0.922   3.372
  258SOL     OW 1660   0.992   0.403   3.100
  258SOL    HW1 1661   0.907   0.423   3.138
  258SOL    HW2 1662   0.972   0.374   3.011
  259SOL     OW 1663   1.052   0.700   2.287
  259SOL    HW1 1664   1.069   0.692   2.381
  259SOL    HW2 1665   0.970   0.653   2.274
  260SOL     OW 1666   0.081   0.829   2.652
  260SOL    HW1 1667   0.154   0.795   2.705
  260SOL    HW2 1668   0.102   0.921   2.639
  261SOL     OW 1669   0.130   1.863   3.439
  261SOL    HW1 1670   0.138   1.828   3.528
  261SOL    HW2 1671   0.038   1.851   3.416
  262SOL     OW 1672   0.894   0.352   2.060
  262SOL    HW1 1673   0.936   0.412   1.998
  262SOL    HW2 1674   0.893   0.268   2.015
  263SOL     OW 1675   1.708   0.575   3.691
  263SOL    HW1 1676   1.670   0.648   3.643
  263SOL    HW2 1677   1.732   0.512   3.624
  264SOL     OW 1678   1.378   1.141   2.401
  264SOL    HW1 1679   1.459   1.132   2.351
  264SOL    HW2 1680   1.325   1.202   2.351
  265SOL     OW 1681   0.561   0.195   2.742
  265SOL    HW1 1682   0.566   0.219   2.835
  265SOL    HW2 1683   0.547   0.278   2.697
  266SOL     OW 1684   0.999   1.441   2.331
  266SOL    HW1 1685   0.968   1.517   2.282
  266SOL    HW2 1686   0.983   1.463   2.423
  267SOL     OW 1687   0.365   1.820   2.732
  267SOL    HW1 1688   0.428   1.748   2.741
  267SOL    HW2 1689   0.416   1.899   2.748
  268SOL     OW 1690   1.800   1.048   2.734
  268SOL    HW1 1691   1.746   1.041   2.655
  268SOL    HW2 1692   1.737   1.057   2.805
  269SOL     OW 1693   1.224   1.537   3.377
  269SOL    HW1 1694   1.210   1.465   3.438
  269SOL    HW2 1695   1.159   1.524   3.309
  270SOL     OW 1696   0.310   0.954   2.104
  270SOL    HW1 1697   0.394   0.976   2.063
  270SOL    HW2 1698   0.298   0.861   2.084
  271SOL     OW 1699   1.479   0.747   2.591
  271SOL    HW1 1700   1.475   0.706   2.678
  271SOL    HW2 1701   1.557   0.802   2.594
  272SOL     OW 1702   0.468   1.261   3.599
  272SOL    HW1 1703   0.442   1.269   3.507
  272SOL    HW2 1704   0.386   1.264   3.648
  273SOL     OW 1705   1.122   1.777   2.091
  273SOL    HW1 1706   1.048   1.737   2.137
  273SOL    HW2 1707   1.145   1.714   2.023
  274SOL     OW 1708   0.201   0.294   3.362
  274SOL    HW1 1709   0.107   0.314   3.361
  274SOL    HW2 1710   0.209   0.222   3.424
  275SOL     OW 1711   1.627   1.382   1.946
  275SOL    HW1 1712   1.581   1.464   1.930
  275SOL    HW2 1713   1.561   1.314   1.929
  276SOL     OW 1714   0.466   1.739   2.178
  276SOL    HW1 1715   0.509   1.796   2.242
  276SOL    HW2 1716   0.538   1.703   2.126
  277SOL     OW 1717   1.441   0.166   2.267
  277SOL    HW1 1718   1.394   0.099   2.218
  277SOL    HW2 1719   1.512   0.119   2.312
  278SOL     OW 1720   0.252   1.791   3.093
  278SOL    HW1 1721   0.298   1.725   3.146
  278SOL    HW2 1722   0.249   1.753   3.005
  279SOL     OW 1723   0.938   1.699   2.760
  279SOL    HW1 1724   1.017   1.649   2.780
  279SOL    HW2 1725   0.895   1.649   2.690
  280SOL     OW 1726   0.397   0.694   2.333
  280SOL    HW1 1727   0.423   0.603   2.348
  280SOL    HW2 1728   0.305   0.698   2.358
  281SOL     OW 1729   1.529   0.229   3.589
  281SOL    HW1 1730   1.525   0.254   3.681
  281SOL    HW2 1731   1.511   0.135   3.589
  282SOL     OW 1732   0.645   0.130   1.965
  282SOL    HW1 1733   0.668   0.046   2.005
  282SOL    HW2 1734   0.584   0.107   1.895
  283SOL     OW 1735   0.776   0.284   3.629
  283SOL    HW1 1736   0.850   0.223   3.631
  283SOL    HW2 1737   0.720   0.255   3.701
  284SOL     OW 1738   0.876   1.522   3.056
  284SOL    HW1 1739   0.860   1.485   2.969
  284SOL    HW2 1740   0.945   1.468   3.093
  285SOL     OW 1741   1.340   0.587   3.293
  285SOL    HW1 1742   1.370   0.558   3.379
  285SOL    HW2 1743   1.375   0.676   3.283
  286SOL     OW 1744   0.816   1.393   2.804
  286SOL    HW1 1745   0.901   1.381   2.762
  286SOL    HW2 1746   0.754   1.395   2.731
  287SOL     OW 1747   0.930   0.512   2.762
  287SOL    HW1 1748   0.906   0.504   2.670
  287SOL    HW2 1749   0.956   0.423   2.788
  288SOL     OW 1750   0.546   0.056   2.349
  288SOL    HW1 1751   0.473   0.063   2.410
  288SOL    HW2 1752   0.548   0.140   2.304
  289SOL     OW 1753   1.428   1.198   1.903
  289SOL    HW1 1754   1.458   1.123   1.953
  289SOL    HW2 1755   1.342   1.220   1.940
  290SOL     OW 1756   0.346   0.036   2.060
  290SOL    HW1 1757   0.360   0.086   1.980
  290SOL    HW2 1758   0.431   0.037   2.104
  291SOL     OW 1759   0.942   0.249   2.323
  291SOL    HW1 1760   0.916   0.290   2.240
  291SOL    HW2 1761   1.038   0.254   2.322
  292SOL     OW 1762   1.079   0.683   3.320
  292SOL    HW1 1763   1.010   0.618   3.327
  292SOL    HW2 1764   1.160   0.632   3.315
  293SOL     OW 1765   1.222   1.570   2.656
  293SOL    HW1 1766   1.236   1.637   2.589
  293SOL    HW2 1767   1.291   1.585   2.720
  294SOL     OW 1768   0.466   1.151   2.597
  294SOL    HW1 1769   0.395   1.126   2.656
  294SOL    HW2 1770   0.432   1.135   2.510
  295SOL     OW 1771   1.263   1.791   2.473
  295SOL    HW1 1772   1.311   1.852   2.418
  295SOL    HW2 1773   1.197   1.845   2.517
  296SOL     OW 1774   1.022   0.543   1.891
  296SOL    HW1 1775   0.979   0.626   1.871
  296SOL    HW2 1776   1.086   0.564   1.959
  297SOL     OW 1777   0.081   0.573   3.255
  297SOL    HW1 1778   0.170   0.555   3.225
  297SOL    HW2 1779   0.090   0.645   3.318
  298SOL     OW 1780   0.572   0.231   3.021
  298SOL    HW1 1781   0.594   0.138   3.030
  298SOL    HW2 1782   0.481   0.237   3.051
  299SOL     OW 1783   0.871   0.461   2.500
  299SOL    HW1 1784   0.820   0.514   2.439
  299SOL    HW2 1785   0.891   0.381   2.453
  300SOL     OW 1786   0.996   0.039   2.643
  300SOL    HW1 1787   0.960   0.069   2.559
  300SOL    HW2 1788   1.007   3.945   2.632
  301SOL     OW 1789   1.439   1.163   2.720
  301SOL    HW1 1790   1.369   1.098   2.717
  301SOL    HW2 1791   1.467   1.173   2.629
  302SOL     OW 1792   1.465   0.607   2.836
  302SOL    HW1 1793   1.411   0.528   2.841
  302SOL    HW2 1794   1.524   0.600   2.911
  303SOL     OW 1795   1.844   0.818   2.249
  303SOL    HW1 1796   1.901   0.766   2.306
  303SOL    HW2 1797   1.815   0.757   2.181
  304SOL     OW 1798   0.487   1.421   2.021
  304SOL    HW1 1799   0.412   1.390   2.071
  304SOL    HW2 1800   0.472   1.388   1.933
  305SOL     OW 1801   1.671   1.260   2.510
  305SOL    HW1 1802   1.766   1.260   2.522
  305SOL    HW2 1803   1.645   1.350   2.532
  306SOL     OW 1804   1.395   0.576   1.931
  306SOL    HW1 1805   1.332   0.556   2.000
  306SOL    HW2 1806   1.480   0.557   1.970
  307SOL     OW 1807   0.557   0.271   2.180
  307SOL    HW1 1808   0.605   0.231   2.107
  307SOL    HW2 1809   0.528   0.355   2.146
  308SOL     OW 1810   1.749   1.233   3.434
  308SOL    HW1 1811   1.836   1.193   3.429
  308SOL    HW2 1812   1.766   1.324   3.459
  309SOL     OW 1813   1.056   1.354   3.196
  309SOL    HW1 1814   0.981   1.322   3.246
  309SOL    HW2 1815   1.131   1.311   3.237
  310SOL     OW 1816   1.607   1.614   3.526
  310SOL    HW1 1817   1.589   1.646   3.437
  310SOL    HW2 1818   1.688   1.564   3.518
  311SOL     OW 1819   1.132   1.207   2.966
  311SOL    HW1 1820   1.071   1.243   3.030
  311SOL    HW2 1821   1.100   1.239   2.882
  312SOL     OW 1822   1.625   1.096   2.937
  312SOL    HW1 1823   1.618   1.158   3.010
  312SOL    HW2 1824   1.548   1.115   2.883
  313SOL     OW 1825   0.913   0.115   3.263
  313SOL    HW1 1826   0.932   0.088   3.173
  313SOL    HW2 1827   0.993   0.157   3.294
  314SOL     OW 1828   0.984   1.115   3.585
  314SOL    HW1 1829   0.893   1.131   3.608
  314SOL    HW2 1830   0.982   1.037   3.530
  315SOL     OW 1831   0.708   1.062   2.232
  315SOL    HW1 1832   0.694   1.045   2.326
  315SOL    HW2 1833   0.784   1.008   2.209
  316SOL     OW 1834   0.422   0.817   3.115
  316SOL    HW1 1835   0.491   0.823   3.181
  316SOL    HW2 1836   0.388   0.728   3.124
  317SOL     OW 1837   1.266   0.375   3.139
  317SOL    HW1 1838   1.300   0.453   3.183
  317SOL    HW2 1839   1.178   0.400   3.109
  318SOL     OW 1840   0.065   1.580   3.208
  318SOL    HW1 1841   0.071   1.635   3.130
  318SOL    HW2 1842   0.156   1.567   3.235
  319SOL     OW 1843   0.371   1.103   2.344
  319SOL    HW1 1844   0.365   1.182   2.290
  319SOL    HW2 1845   0.370   1.031   2.282
  320SOL     OW 1846   0.554   0.534   2.720
  320SOL    HW1 1847   0.568   0.593   2.646
  320SOL    HW2 1848   0.620   0.561   2.784
  321SOL     OW 1849   1.241   1.341   2.249
  321SOL    HW1 1850   1.296   1.414   2.279
  321SOL    HW2 1851   1.154   1.361   2.283
  322SOL     OW 1852   1.280   1.460   3.008
  322SOL    HW1 1853   1.337   1.461   3.086
  322SOL    HW2 1854   1.226   1.382   3.019
  323SOL     OW 1855   1.575   0.634   2.348
  323SOL    HW1 1856   1.532   0.690   2.414
  323SOL    HW2 1857   1.623   0.695   2.293
  324SOL     OW 1858   0.345   1.527   3.180
  324SOL    HW1 1859   0.335   1.476   3.100
  324SOL    HW2 1860   0.440   1.542   3.188
  325SOL     OW 1861   0.417   0.737   3.463
  325SOL    HW1 1862   0.480   0.783   3.406
  325SOL    HW2 1863   0.455   0.650   3.476
  326SOL     OW 1864   1.604   0.780   3.547
  326SOL    HW1 1865   1.518   0.822   3.540
  326SOL    HW2 1866   1.656   0.821   3.478
  327SOL     OW 1867   1.011   0.134   3.641
  327SOL    HW1 1868   1.064   0.205   3.606
  327SOL    HW2 1869   1.001   0.073   3.567
  328SOL     OW 1870   0.483   0.037   3.627
  328SOL    HW1 1871   0.490   0.047   3.532
  328SOL    HW2 1872   0.421   0.105   3.653
  329SOL     OW 1873   0.585   0.875   2.893
  329SOL    HW1 1874   0.617   0.965   2.896
  329SOL    HW2 1875   0.529   0.867   2.971
  330SOL     OW 1876   1.353   0.858   2.889
  330SOL    HW1 1877   1.269   0.846   2.845
  330SOL    HW2 1878   1.397   0.773   2.881
  331SOL     OW 1879   1.200   0.537   2.120
  331SOL    HW1 1880   1.209   0.458   2.173
  331SOL    HW2 1881   1.157   0.600   2.178
  332SOL     OW 1882   0.311   0.212   3.102
  332SOL    HW1 1883   0.268   0.248   3.180
  332SOL    HW2 1884   0.296   0.118   3.108
  333SOL     OW 1885   0.062   1.306   3.142
  333SOL    HW1 1886   0.091   1.264   3.223
  333SOL    HW2 1887   0.052   1.398   3.165
  334SOL     OW 1888   0.724   0.634   2.915
  334SOL    HW1 1889   0.799   0.619   2.857
  334SOL    HW2 1890   0.695   0.722   2.894
  335SOL     OW 1891   1.737   0.959   3.716
  335SOL    HW1 1892   1.691   0.895   3.662
  335SOL    HW2 1893   1.678   0.975   3.790
  336SOL     OW 1894   0.330   0.055   2.517
  336SOL    HW1 1895   0.301   0.146   2.517
  336SOL    HW2 1896   0.293   0.017   2.597
  337SOL     OW 1897   1.607   0.392   2.242
  337SOL    HW1 1898   1.567   0.324   2.297
  337SOL    HW2 1899   1.587   0.474   2.288
  338SOL     OW 1900   1.030   0.759   2.821
  338SOL    HW1 1901   1.023   0.776   2.915
  338SOL    HW2 1902   1.002   0.668   2.811
  339SOL     OW 1903   0.982   1.567   3.581
  339SOL    HW1 1904   0.966   1.610   3.497
  339SOL    HW2 1905   1.024   1.484   3.558
  340SOL     OW 1906   1.852   1.490   3.467
  340SOL    HW1 1907   1.882   1.521   3.382
  340SOL    HW2 1908   1.925   1.508   3.526
  341SOL     OW 1909   0.353   0.922   3.660
  341SOL    HW1 1910   0.431   0.942   3.713
  341SOL    HW2 1911   0.382   0.854   3.599
  342SOL     OW 1912   1.504   0.275   1.997
  342SOL    HW1 1913   1.431   0.215   2.009
  342SOL    HW2 1914   1.518   0.314   2.083
  343SOL     OW 1915   1.288   0.827   1.891
  343SOL    HW1 1916   1.331   0.741   1.894
  343SOL    HW2 1917   1.320   0.866   1.809
  344SOL     OW 1918   1.066   1.337   2.717
  344SOL    HW1 1919   1.070   1.265   2.655
  344SOL    HW2 1920   1.127   1.403   2.682
  345SOL     OW 1921   0.313   0.803   2.812
  345SOL    HW1 1922   0.407   0.819   2.806
  345SOL    HW2 1923   0.306   0.713   2.844
  346SOL     OW 1924   0.338   0.528   2.877
  346SOL    HW1 1925   0.297   0.444   2.859
  346SOL    HW2 1926   0.413   0.532   2.818
  347SOL     OW 1927   1.133   0.380   3.559
  347SOL    HW1 1928   1.085   0.435   3.621
  347SOL    HW2 1929   1.220   0.420   3.554
  348SOL     OW 1930   1.151   0.225   3.344
  348SOL    HW1 1931   1.142   0.280   3.422
  348SOL    HW2 1932   1.176   0.287   3.275
  349SOL     OW 1933   0.000   1.317   2.044
  349SOL    HW1 1934   3.906   1.333   2.048
  349SOL    HW2 1935   0.009   1.223   2.063
  350SOL     OW 1936   0.078   1.800   2.750
  350SOL    HW1 1937   0.083   1.704   2.754
  350SOL    HW2 1938   0.169   1.829   2.754
  351SOL     OW 1939   0.500   1.571   2.772
  351SOL    HW1 1940   0.570   1.632   2.798
  351SOL    HW2 1941   0.543   1.508   2.715
  352SOL     OW 1942   0.978   0.789   3.086
  352SOL    HW1 1943   1.034   0.769   3.161
  352SOL    HW2 1944   0.893   0.751   3.109
  353SOL     OW 1945   0.035   0.574   2.974
  353SOL    HW1 1946   0.097   0.522   2.924
  353SOL    HW2 1947   0.061   0.560   3.065
  354SOL     OW 1948   0.211   0.516   3.584
  354SOL    HW1 1949   0.257   0.477   3.510
  354SOL    HW2 1950   0.164   0.591   3.546
  355SOL     OW 1951   1.379   0.936   3.519
  355SOL    HW1 1952   1.400   1.030   3.516
  355SOL    HW2 1953   1.375   0.910   3.427
  356SOL     OW 1954   0.818   0.572   2.224
  356SOL    HW1 1955   0.824   0.496   2.167
  356SOL    HW2 1956   0.743   0.621   2.191
  357SOL     OW 1957   1.640   0.602   3.045
  357SOL    HW1 1958   1.631   0.542   3.119
  357SOL    HW2 1959   1.728   0.585   3.011
  358SOL     OW 1960   0.300   1.544   3.587
  358SOL    HW1 1961   0.252   1.613   3.632
  358SOL    HW2 1962   0.269   1.463   3.627
  359SOL     OW 1963   0.710   0.454   3.118
  359SOL    HW1 1964   0.660   0.376   3.093
  359SOL    HW2 1965   0.700   0.513   3.043
  360SOL     OW 1966   0.926   1.679   3.331
  360SOL    HW1 1967   0.900   1.642   3.247
  360SOL    HW2 1968   0.919   1.774   3.318
  361SOL     OW 1969   0.454   0.492   2.059
  361SOL    HW1 1970   0.518   0.561   2.076
  361SOL    HW2 1971   0.374   0.539   2.035
  362SOL     OW 1972   0.156   1.135   3.336
  362SOL    HW1 1973   0.157   1.084   3.418
  362SOL    HW2 1974   0.171   1.070   3.268
  363SOL     OW 1975   1.323   1.045   3.084
  363SOL    HW1 1976   1.346   0.982   3.016
  363SOL    HW2 1977   1.255   1.100   3.044
  364SOL     OW 1978   1.314   0.856   2.167
  364SOL    HW1 1979   1.239   0.827   2.219
  364SOL    HW2 1980   1.287   0.843   2.076
  365SOL     OW 1981   1.244   1.735   2.971
  365SOL    HW1 1982   1.328   1.756   2.929
  365SOL    HW2 1983   1.249   1.642   2.990
  366SOL     OW 1984   0.077   1.217   2.889
  366SOL    HW1 1985   0.084   1.243   2.981
  366SOL    HW2 1986   3.985   1.227   2.868
  367SOL     OW 1987   0.680   1.668   3.596
  367SOL    HW1 1988   0.621   1.743   3.588
  367SOL    HW2 1989   0.746   1.682   3.529
  368SOL     OW 1990   1.714   0.124   2.350
  368SOL    HW1 1991   1.792   0.134   2.296
  368SOL    HW2 1992   1.705   0.030   2.362
  369SOL     OW 1993   1.369   1.560   2.339
  369SOL    HW1 1994   1.429   1.591   2.271
  369SOL    HW2 1995   1.332   1.640   2.377
  370SOL     OW 1996   0.175   1.763   3.692
  370SOL    HW1 1997   0.118   1.713   3.750
  370SOL    HW2 1998   0.216   1.828   3.749
  371SOL     OW 1999   1.277   0.928   2.533
  371SOL    HW1 2000   1.351   0.868   2.544
  371SOL    HW2 2001   1.312   0.999   2.480
  372SOL     OW 2002   0.810   1.274   3.290
  372SOL    HW1 2003   0.781   1.315   3.372
  372SOL    HW2 2004   0.739   1.291   3.228
  373SOL     OW 2005   0.670   1.622   2.017
  373SOL    HW1 2006   0.681   1.634   1.923
  373SOL    HW2 2007   0.615   1.545   2.025
  374SOL     OW 2008   1.581   1.712   3.271
  374SOL    HW1 2009   1.640   1.704   3.196
  374SOL    HW2 2010   1.568   1.807   3.281
  375SOL     OW 2011   1.839   0.178   2.828
  375SOL    HW1 2012   1.872   0.111   2.768
  375SOL    HW2 2013   1.751   0.197   2.797
  376SOL     OW 2014   0.275   0.322   2.576
  376SOL    HW1 2015   0.189   0.357   2.550
  376SOL    HW2 2016   0.266   0.306   2.670
  377SOL     OW 2017   1.204   1.603   1.893
  377SOL    HW1 2018   1.194   1.512   1.920
  377SOL    HW2 2019   1.138   1.615   1.825
  378SOL     OW 2020   0.823   1.005   3.235
  378SOL    HW1 2021   0.867   1.000   3.150
  378SOL    HW2 2022   0.822   1.099   3.256
  379SOL     OW 2023   0.915   0.910   2.152
  379SOL    HW1 2024   0.976   0.943   2.086
  379SOL    HW2 2025   0.964   0.842   2.198
  380SOL     OW 2026   1.480   1.622   1.900
  380SOL    HW1 2027   1.386   1.617   1.882
  380SOL    HW2 2028   1.520   1.626   1.813
  381SOL     OW 2029   0.374   1.303   3.353
  381SOL    HW1 2030   0.358   1.383   3.303
  381SOL    HW2 2031   0.297   1.248   3.336
  382SOL     OW 2032   1.610   1.279   3.140
  382SOL    HW1 2033   1.674   1.273   3.211
  382SOL    HW2 2034   1.547   1.344   3.171
  383SOL     OW 2035   1.056   1.109   2.570
  383SOL    HW1 2036   0.984   1.058   2.608
  383SOL    HW2 2037   1.120   1.043   2.541
  384SOL     OW 2038   1.014   0.249   2.832
  384SOL    HW1 2039   1.005   0.199   2.751
  384SOL    HW2 2040   1.010   0.184   2.901
  385SOL     OW 2041   0.606   1.488   2.344
  385SOL    HW1 2042   0.652   1.439   2.276
  385SOL    HW2 2043   0.531   1.527   2.298
  386SOL     OW 2044   1.720   0.394   3.234
  386SOL    HW1 2045   1.793   0.456   3.238
  386SOL    HW2 2046   1.754   0.322   3.180
  387SOL     OW 2047   0.254   1.341   2.155
  387SOL    HW1 2048   0.160   1.348   2.136
  387SOL    HW2 2049   0.264   1.380   2.242
  388SOL     OW 2050   0.107   0.999   3.580
  388SOL    HW1 2051   0.048   0.992   3.654
  388SOL    HW2 2052   0.194   0.980   3.617
  389SOL     OW 2053   0.694   0.253   3.363
  389SOL    HW1 2054   0.762   0.200   3.322
  389SOL    HW2 2055   0.723   0.262   3.454
  390SOL     OW 2056   0.088   0.321   1.889
  390SOL    HW1 2057   3.993   0.319   1.881
  390SOL    HW2 2058   0.113   0.404   1.847
  391SOL     OW 2059   1.427   0.857   3.260
  391SOL    HW1 2060   1.378   0.919   3.206
  391SOL    HW2 2061   1.516   0.859   3.225
  392SOL     OW 2062   0.037   0.169   2.146
  392SOL    HW1 2063   0.037   0.231   2.074
  392SOL    HW2 2064   0.113   0.193   2.199
  393SOL     OW 2065   1.177   1.338   1.979
  393SOL    HW1 2066   1.087   1.306   1.980
  393SOL    HW2 2067   1.204   1.336   2.070
  394SOL     OW 2068   0.621   0.829   3.299
  394SOL    HW1 2069   0.677   0.904   3.283
  394SOL    HW2 2070   0.681   0.755   3.307
  395SOL     OW 2071   1.492   1.783   2.845
  395SOL    HW1 2072   1.512   1.853   2.783
  395SOL    HW2 2073   1.576   1.739   2.860
  396SOL     OW 2074   0.717   0.562   3.569
  396SOL    HW1 2075   0.762   0.624   3.627
  396SOL    HW2 2076   0.744   0.476   3.601
  397SOL     OW 2077   1.472   1.198   3.493
  397SOL    HW1 2078   1.460   1.211   3.587
  397SOL    HW2 2079   1.565   1.212   3.478
  398SOL     OW 2080   0.378   1.743   3.419
  398SOL    HW1 2081   0.291   1.781   3.406
  398SOL    HW2 2082   0.362   1.661   3.465
  399SOL     OW 2083   1.667   0.881   3.117
  399SOL    HW1 2084   1.662   0.795   3.074
  399SOL    HW2 2085   1.657   0.944   3.046
  400SOL     OW 2086   1.223   0.336   2.304
  400SOL    HW1 2087   1.291   0.269   2.297
  400SOL    HW2 2088   1.242   0.381   2.387
  401SOL     OW 2089   0.590   0.738   2.533
  401SOL    HW1 2090   0.628   0.824   2.517
  401SOL    HW2 2091   0.523   0.728   2.466
  402SOL     OW 2092   1.751   0.383   3.505
  402SOL    HW1 2093   1.733   0.389   3.411
  402SOL    HW2 2094   1.694   0.313   3.536
  403SOL     OW 2095   1.745   0.933   3.374
  403SOL    HW1 2096   1.736   1.028   3.387
  403SOL    HW2 2097   1.729   0.920   3.280
  404SOL     OW 2098   0.862   1.366   1.900
  404SOL    HW1 2099   0.825   1.393   1.984
  404SOL    HW2 2100   0.879   1.448   1.853
  405SOL     OW 2101   0.663   1.788   2.804
  405SOL    HW1 2102   0.643   1.879   2.782
  405SOL    HW2 2103   0.758   1.782   2.797
  406SOL     OW 2104   0.869   0.968   2.715
  406SOL    HW1 2105   0.919   0.896   2.754
  406SOL    HW2 2106   0.832   1.015   2.790
  407SOL     OW 2107   1.078   0.989   1.951
  407SOL    HW1 2108   1.056   1.040   1.873
  407SOL    HW2 2109   1.152   0.935   1.924
  408SOL     OW 2110   1.858   1.521   2.697
  408SOL    HW1 2111   1.775   1.553   2.661
  408SOL    HW2 2112   1.844   1.519   2.791
  409SOL     OW 2113   0.226   1.303   3.718
  409SOL    HW1 2114   0.154   1.248   3.691
  409SOL    HW2 2115   0.213   1.317   3.812
  410SOL     OW 2116   0.122   1.280   2.583
  410SOL    HW1 2117   0.134   1.229   2.663
  410SOL    HW2 2118   0.106   1.215   2.515
  411SOL     OW 2119   0.682   1.405   3.491
  411SOL    HW1 2120   0.602   1.362   3.522
  411SOL    HW2 2121   0.677   1.493   3.529
  412SOL     OW 2122   1.811   0.183   3.100
  412SOL    HW1 2123   1.814   0.089   3.116
  412SOL    HW2 2124   1.826   0.193   3.006
  413SOL     OW 2125   0.444   0.438   2.393
  413SOL    HW1 2126   0.461   0.362   2.337
  413SOL    HW2 2127   0.389   0.404   2.463
  414SOL     OW 2128   1.700   1.500   2.962
  414SOL    HW1 2129   1.621   1.473   2.914
  414SOL    HW2 2130   1.715   1.430   3.025
  415SOL     OW 2131   0.333   0.557   3.155
  415SOL    HW1 2132   0.389   0.501   3.208
  415SOL    HW2 2133   0.348   0.528   3.065
  416SOL     OW 2134   0.828   1.579   2.539
  416SOL    HW1 2135   0.813   1.640   2.466
  416SOL    HW2 2136   0.753   1.520   2.537
  417SOL     OW 2137   1.461   0.254   2.972
  417SOL    HW1 2138   1.478   0.167   3.009
  417SOL    HW2 2139   1.405   0.297   3.038
  418SOL     OW 2140   1.003   0.028   3.008
  418SOL    HW1 2141   0.923   3.991   2.972
  418SOL    HW2 2142   1.063   3.953   3.017
  419SOL     OW 2143   0.773   1.333   2.179
  419SOL    HW1 2144   0.744   1.242   2.186
  419SOL    HW2 2145   0.854   1.337   2.230
  420SOL     OW 2146   0.620   1.557   3.148
  420SOL    HW1 2147   0.622   1.639   3.197
  420SOL    HW2 2148   0.708   1.549   3.111
  421SOL     OW 2149   1.311   0.074   2.027
  421SOL    HW1 2150   1.323   3.994   1.975
  421SOL    HW2 2151   1.225   0.062   2.069
  422SOL     OW 2152   1.281   0.457   2.547
  422SOL    HW1 2153   1.235   0.540   2.542
  422SOL    HW2 2154   1.284   0.437   2.641
  423SOL     OW 2155   1.588   0.210   2.730
  423SOL    HW1 2156   1.539   0.234   2.808
  423SOL    HW2 2157   1.588   0.289   2.676
  424SOL     OW 2158   0.047   1.048   2.103
  424SOL    HW1 2159   0.141   1.032   2.094
  424SOL    HW2 2160   0.011   0.965   2.132
  425SOL     OW 2161   0.887   1.656   2.202
  425SOL    HW1 2162   0.813   1.640   2.143
  425SOL    HW2 2163   0.859   1.730   2.256
  426SOL     OW 2164   0.232   0.628   3.841
  426SOL    HW1 2165   0.139   0.632   3.863
  426SOL    HW2 2166   0.235   0.598   3.750
  427SOL     OW 2167   0.224   0.289   4.707
  427SOL    HW1 2168   0.246   0.250   4.791
  427SOL    HW2 2169   0.129   0.278   4.700
  428SOL     OW 2170   0.019   0.385   4.360
  428SOL    HW1 2171   3.928   0.399   4.387
  428SOL    HW2 2172   0.025   0.290   4.345
  429SOL     OW 2173   0.581   1.289   4.915
  429SOL    HW1 2174   0.494   1.291   4.874
  429SOL    HW2 2175   0.594   1.378   4.947
  430SOL     OW 2176   1.548   1.501   4.432
  430SOL    HW1 2177   1.518   1.481   4.521
  430SOL    HW2 2178   1.469   1.498   4.378
  431SOL     OW 2179   1.133   0.698   4.421
  431SOL    HW1 2180   1.180   0.780   4.409
  431SOL    HW2 2181   1.085   0.711   4.503
  432SOL     OW 2182   1.767   0.619   3.949
  432SOL    HW1 2183   1.745   0.611   3.856
  432SOL    HW2 2184   1.752   0.531   3.984
  433SOL     OW 2185   0.753   1.139   4.766
  433SOL    HW1 2186   0.690   1.175   4.828
  433SOL    HW2 2187   0.789   1.216   4.721
  434SOL     OW 2188   0.871   0.770   5.548
  434SOL    HW1 2189   0.858   0.842   5.610
  434SOL    HW2 2190   0.893   0.813   5.465
  435SOL     OW 2191   0.685   1.002   4.369
  435SOL    HW1 2192   0.751   0.991   4.438
  435SOL    HW2 2193   0.616   1.054   4.411
  436SOL     OW 2194   0.712   1.150   5.541
  436SOL    HW1 2195   0.760   1.228   5.569
  436SOL    HW2 2196   0.631   1.184   5.503
  437SOL     OW 2197   0.351   1.401   4.803
  437SOL    HW1 2198   0.270   1.381   4.756
  437SOL    HW2 2199   0.399   1.459   4.743
  438SOL     OW 2200   1.449   1.486   5.083
  438SOL    HW1 2201   1.496   1.568   5.094
  438SOL    HW2 2202   1.381   1.488   5.150
  439SOL     OW 2203   0.457   0.408   5.220
  439SOL    HW1 2204   0.539   0.358   5.218
  439SOL    HW2 2205   0.388   0.342   5.223
  440SOL     OW 2206   1.612   0.451   4.459
  440SOL    HW1 2207   1.542   0.482   4.401
  440SOL    HW2 2208   1.630   0.524   4.517
  441SOL     OW 2209   0.220   1.719   4.181
  441SOL    HW1 2210   0.240   1.793   4.239
  441SOL    HW2 2211   0.297   1.711   4.125
  442SOL     OW 2212   1.136   1.342   5.415
  442SOL    HW1 2213   1.179   1.335   5.501
  442SOL    HW2 2214   1.084   1.261   5.409
  443SOL     OW 2215   0.250   1.450   4.264
  443SOL    HW1 2216   0.215   1.538   4.249
  443SOL    HW2 2217   0.183   1.406   4.315
  444SOL     OW 2218   0.248   1.066   4.608
  444SOL    HW1 2219   0.267   0.981   4.647
  444SOL    HW2 2220   0.195   1.111   4.674
  445SOL     OW 2221   0.610   1.792   5.150
  445SOL    HW1 2222   0.528   1.774   5.196
  445SOL    HW2 2223   0.633   1.881   5.177
  446SOL     OW 2224   0.577   0.986   3.863
  446SOL    HW1 2225   0.625   1.030   3.793
  446SOL    HW2 2226   0.618   1.016   3.944
  447SOL     OW 2227   1.581   0.140   5.180
  447SOL    HW1 2228   1.611   0.213   5.125
  447SOL    HW2 2229   1.548   0.182   5.259
  448SOL     OW 2230   0.141   0.652   4.294
  448SOL    HW1 2231   0.098   0.566   4.298
  448SOL    HW2 2232   0.102   0.702   4.366
  449SOL     OW 2233   0.044   1.589   3.862
  449SOL    HW1 2234   0.037   1.497   3.888
  449SOL    HW2 2235   3.961   1.628   3.889
  450SOL     OW 2236   1.685   0.914   4.364
  450SOL    HW1 2237   1.772   0.877   4.348
  450SOL    HW2 2238   1.667   0.969   4.287
  451SOL     OW 2239   1.649   1.106   4.153
  451SOL    HW1 2240   1.735   1.108   4.113
  451SOL    HW2 2241   1.655   1.167   4.227
  452SOL     OW 2242   0.141   0.756   5.313
  452SOL    HW1 2243   0.236   0.751   5.308
  452SOL    HW2 2244   0.123   0.844   5.345
  453SOL     OW 2245   0.613   1.387   4.460
  453SOL    HW1 2246   0.567   1.303   4.469
  453SOL    HW2 2247   0.598   1.413   4.369
  454SOL     OW 2248   1.285   1.234   5.149
  454SOL    HW1 2249   1.317   1.168   5.087
  454SOL    HW2 2250   1.345   1.230   5.223
  455SOL     OW 2251   0.820   0.004   4.240
  455SOL    HW1 2252   0.865   0.084   4.216
  455SOL    HW2 2253   0.727   0.027   4.240
  456SOL     OW 2254   0.184   0.950   5.002
  456SOL    HW1 2255   0.272   0.915   4.990
  456SOL    HW2 2256   0.132   0.909   4.934
  457SOL     OW 2257   1.532   0.996   3.924
  457SOL    HW1 2258   1.462   0.939   3.958
  457SOL    HW2 2259   1.574   1.030   4.003
  458SOL     OW 2260   1.181   1.807   5.346
  458SOL    HW1 2261   1.194   1.868   5.274
  458SOL    HW2 2262   1.202   1.721   5.309
  459SOL     OW 2263   0.345   0.251   5.564
  459SOL    HW1 2264   0.387   0.334   5.545
  459SOL    HW2 2265   0.254   0.274   5.582
  460SOL     OW 2266   1.467   1.419   4.679
  460SOL    HW1 2267   1.398   1.435   4.744
  460SOL    HW2 2268   1.455   1.328   4.653
  461SOL     OW 2269   1.593   1.713   4.269
  461SOL    HW1 2270   1.592   1.669   4.184
  461SOL    HW2 2271   1.592   1.642   4.333
  462SOL     OW 2272   0.596   0.717   3.990
  462SOL    HW1 2273   0.601   0.801   3.945
  462SOL    HW2 2274   0.533   0.731   4.061
  463SOL     OW 2275   1.274   0.369   4.665
  463SOL    HW1 2276   1.187   0.330   4.672
  463SOL    HW2 2277   1.332   0.307   4.711
  464SOL     OW 2278   1.567   1.645   4.012
  464SOL    HW1 2279   1.643   1.700   3.993
  464SOL    HW2 2280   1.528   1.628   3.926
  465SOL     OW 2281   0.794   0.616   5.177
  465SOL    HW1 2282   0.765   0.590   5.265
  465SOL    HW2 2283   0.756   0.550   5.119
  466SOL     OW 2284   1.392   0.476   5.401
  466SOL    HW1 2285   1.399   0.521   5.485
  466SOL    HW2 2286   1.450   0.400   5.410
  467SOL     OW 2287   0.952   0.887   5.308
  467SOL    HW1 2288   1.007   0.818   5.271
  467SOL    HW2 2289   0.904   0.922   5.233
  468SOL     OW 2290   0.992   0.403   4.962
  468SOL    HW1 2291   0.907   0.423   5.000
  468SOL    HW2 2292   0.972   0.374   4.873
  469SOL     OW 2293   1.052   0.700   4.149
  469SOL    HW1 2294   1.069   0.692   4.243
  469SOL    HW2 2295   0.970   0.653   4.136
  470SOL     OW 2296   0.081   0.829   4.514
  470SOL    HW1 2297   0.154   0.795   4.567
  470SOL    HW2 2298   0.102   0.921   4.500
  471SOL     OW 2299   0.130   1.863   5.301
  471SOL    HW1 2300   0.138   1.828   5.390
  471SOL    HW2 2301   0.037   1.851   5.279
  472SOL     OW 2302   0.894   0.352   3.922
  472SOL    HW1 2303   0.936   0.412   3.860
  472SOL    HW2 2304   0.893   0.268   3.877
  473SOL     OW 2305   1.707   0.575   5.552
  473SOL    HW1 2306   1.669   0.648   5.503
  473SOL    HW2 2307   1.732   0.512   5.485
  474SOL     OW 2308   1.378   1.141   4.263
  474SOL    HW1 2309   1.459   1.132   4.213
  474SOL    HW2 2310   1.325   1.202   4.212
  475SOL     OW 2311   0.561   0.195   4.604
  475SOL    HW1 2312   0.566   0.219   4.697
  475SOL    HW2 2313   0.547   0.278   4.559
  476SOL     OW 2314   0.998   1.441   4.193
  476SOL    HW1 2315   0.967   1.517   4.144
  476SOL    HW2 2316   0.984   1.463   4.285
  477SOL     OW 2317   0.365   1.820   4.594
  477SOL    HW1 2318   0.428   1.748   4.603
  477SOL    HW2 2319   0.416   1.899   4.610
  478SOL     OW 2320   1.800   1.047   4.596
  478SOL    HW1 2321   1.746   1.042   4.517
  478SOL    HW2 2322   1.737   1.057   4.668
  479SOL     OW 2323   1.225   1.537   5.237
  479SOL    HW1 2324   1.211   1.465   5.299
  479SOL    HW2 2325   1.158   1.524   5.170
  480SOL     OW 2326   0.310   0.954   3.966
  480SOL    HW1 2327   0.394   0.976   3.925
  480SOL    HW2 2328   0.298   0.861   3.946
  481SOL     OW 2329   1.479   0.747   4.453
  481SOL    HW1 2330   1.475   0.706   4.540
  481SOL    HW2 2331   1.557   0.802   4.456
  482SOL     OW 2332   0.468   1.260   5.461
  482SOL    HW1 2333   0.442   1.268   5.370
  482SOL    HW2 2334   0.386   1.263   5.510
  483SOL     OW 2335   1.122   1.777   3.953
  483SOL    HW1 2336   1.048   1.738   3.999
  483SOL    HW2 2337   1.145   1.714   3.885
  484SOL     OW 2338   0.201   0.294   5.224
  484SOL    HW1 2339   0.107   0.314   5.223
  484SOL    HW2 2340   0.209   0.222   5.286
  485SOL     OW 2341   1.627   1.381   3.808
  485SOL    HW1 2342   1.582   1.464   3.792
  485SOL    HW2 2343   1.561   1.314   3.791
  486SOL     OW 2344   0.466   1.739   4.040
  486SOL    HW1 2345   0.509   1.795   4.104
  486SOL    HW2 2346   0.538   1.703   3.988
  487SOL     OW 2347   1.441   0.166   4.129
  487SOL    HW1 2348   1.394   0.099   4.080
  487SOL    HW2 2349   1.512   0.119   4.173
  488SOL     OW 2350   0.252   1.791   4.955
  488SOL    HW1 2351   0.298   1.726   5.008
  488SOL    HW2 2352   0.250   1.753   4.867
  489SOL     OW 2353   0.938   1.699   4.622
  489SOL    HW1 2354   1.017   1.649   4.642
  489SOL    HW2 2355   0.896   1.649   4.552
  490SOL     OW 2356   0.397   0.694   4.195
  490SOL    HW1 2357   0.423   0.603   4.210
  490SOL    HW2 2358   0.305   0.698   4.220
  491SOL     OW 2359   1.529   0.229   5.451
  491SOL    HW1 2360   1.525   0.254   5.543
  491SOL    HW2 2361   1.511   0.135   5.450
  492SOL     OW 2362   0.645   0.130   3.827
  492SOL    HW1 2363   0.668   0.046   3.867
  492SOL    HW2 2364   0.584   0.107   3.757
  493SOL     OW 2365   0.777   0.284   5.491
  493SOL    HW1 2366   0.850   0.223   5.493
  493SOL    HW2 2367   0.720   0.255   5.563
  494SOL     OW 2368   0.875   1.522   4.918
  494SOL    HW1 2369   0.860   1.485   4.831
  494SOL    HW2 2370   0.945   1.468   4.955
  495SOL     OW 2371   1.339   0.587   5.155
  495SOL    HW1 2372   1.370   0.558   5.240
  495SOL    HW2 2373   1.375   0.676   5.145
  496SOL     OW 2374   0.816   1.392   4.666
  496SOL    HW1 2375   0.901   1.381   4.623
  496SOL    HW2 2376   0.754   1.395   4.593
  497SOL     OW 2377   0.930   0.512   4.624
  497SOL    HW1 2378   0.906   0.504   4.532
  497SOL    HW2 2379   0.956   0.423   4.650
  498SOL     OW 2380   0.546   0.056   4.211
  498SOL    HW1 2381   0.473   0.063   4.272
  498SOL    HW2 2382   0.548   0.140   4.166
  499SOL     OW 2383   1.428   1.198   3.765
  499SOL    HW1 2384   1.458   1.123   3.816
  499SOL    HW2 2385   1.342   1.220   3.802
  500SOL     OW 2386   0.346   0.036   3.922
  500SOL    HW1 2387   0.360   0.086   3.842
  500SOL    HW2 2388   0.431   0.037   3.966
  501SOL     OW 2389   0.942   0.249   4.185
  501SOL    HW1 2390   0.916   0.290   4.102
  501SOL    HW2 2391   1.038   0.254   4.184
  502SOL     OW 2392   1.079   0.683   5.183
  502SOL    HW1 2393   1.010   0.618   5.189
  502SOL    HW2 2394   1.160   0.633   5.177
  503SOL     OW 2395   1.222   1.570   4.518
  503SOL    HW1 2396   1.236   1.637   4.451
  503SOL    HW2 2397   1.291   1.586   4.582
  504SOL     OW 2398   0.466   1.151   4.459
  504SOL    HW1 2399   0.395   1.126   4.518
  504SOL    HW2 2400   0.431   1.135   4.372
  505SOL     OW 2401   1.262   1.791   4.335
  505SOL    HW1 2402   1.311   1.851   4.280
  505SOL    HW2 2403   1.197   1.845   4.379
  506SOL     OW 2404   1.022   0.542   3.753
  506SOL    HW1 2405   0.979   0.626   3.733
  506SOL    HW2 2406   1.086   0.564   3.821
  507SOL     OW 2407   0.081   0.573   5.117
  507SOL    HW1 2408   0.170   0.555   5.087
  507SOL    HW2 2409   0.090   0.645   5.180
  508SOL     OW 2410   0.572   0.231   4.883
  508SOL    HW1 2411   0.594   0.138   4.892
  508SOL    HW2 2412   0.481   0.237   4.913
  509SOL     OW 2413   0.871   0.461   4.362
  509SOL    HW1 2414   0.820   0.514   4.301
  509SOL    HW2 2415   0.891   0.381   4.315
  510SOL     OW 2416   0.996   0.039   4.505
  510SOL    HW1 2417   0.960   0.069   4.421
  510SOL    HW2 2418   1.007   3.945   4.494
  511SOL     OW 2419   1.439   1.163   4.583
  511SOL    HW1 2420   1.369   1.098   4.578
  511SOL    HW2 2421   1.468   1.173   4.492
  512SOL     OW 2422   1.465   0.607   4.698
  512SOL    HW1 2423   1.411   0.528   4.703
  512SOL    HW2 2424   1.524   0.600   4.773
  513SOL     OW 2425   1.845   0.818   4.111
  513SOL    HW1 2426   1.901   0.766   4.168
  513SOL    HW2 2427   1.815   0.757   4.043
  514SOL     OW 2428   0.487   1.421   3.883
  514SOL    HW1 2429   0.412   1.390   3.933
  514SOL    HW2 2430   0.472   1.388   3.795
  515SOL     OW 2431   1.672   1.260   4.372
  515SOL    HW1 2432   1.767   1.260   4.385
  515SOL    HW2 2433   1.645   1.349   4.395
  516SOL     OW 2434   1.395   0.576   3.793
  516SOL    HW1 2435   1.332   0.556   3.862
  516SOL    HW2 2436   1.480   0.557   3.832
  517SOL     OW 2437   0.557   0.271   4.042
  517SOL    HW1 2438   0.605   0.231   3.969
  517SOL    HW2 2439   0.528   0.355   4.008
  518SOL     OW 2440   1.748   1.234   5.295
  518SOL    HW1 2441   1.836   1.195   5.290
  518SOL    HW2 2442   1.764   1.324   5.322
  519SOL     OW 2443   1.056   1.353   5.057
  519SOL    HW1 2444   0.981   1.322   5.108
  519SOL    HW2 2445   1.131   1.311   5.099
  520SOL     OW 2446   1.604   1.617   5.386
  520SOL    HW1 2447   1.589   1.648   5.296
  520SOL    HW2 2448   1.686   1.568   5.380
  521SOL     OW 2449   1.132   1.207   4.828
  521SOL    HW1 2450   1.071   1.243   4.892
  521SOL    HW2 2451   1.100   1.239   4.744
  522SOL     OW 2452   1.625   1.096   4.800
  522SOL    HW1 2453   1.618   1.158   4.872
  522SOL    HW2 2454   1.549   1.115   4.745
  523SOL     OW 2455   0.913   0.115   5.125
  523SOL    HW1 2456   0.932   0.088   5.035
  523SOL    HW2 2457   0.993   0.157   5.156
  524SOL     OW 2458   0.984   1.114   5.448
  524SOL    HW1 2459   0.892   1.131   5.470
  524SOL    HW2 2460   0.982   1.037   5.392
  525SOL     OW 2461   0.708   1.061   4.094
  525SOL    HW1 2462   0.694   1.044   4.188
  525SOL    HW2 2463   0.784   1.008   4.071
  526SOL     OW 2464   0.422   0.817   4.977
  526SOL    HW1 2465   0.491   0.823   5.043
  526SOL    HW2 2466   0.388   0.728   4.986
  527SOL     OW 2467   1.266   0.375   5.001
  527SOL    HW1 2468   1.300   0.453   5.045
  527SOL    HW2 2469   1.178   0.400   4.971
  528SOL     OW 2470   0.065   1.580   5.070
  528SOL    HW1 2471   0.071   1.635   4.992
  528SOL    HW2 2472   0.156   1.567   5.097
  529SOL     OW 2473   0.371   1.103   4.206
  529SOL    HW1 2474   0.365   1.182   4.152
  529SOL    HW2 2475   0.370   1.031   4.144
  530SOL     OW 2476   0.554   0.534   4.582
  530SOL    HW1 2477   0.568   0.593   4.508
  530SOL    HW2 2478   0.620   0.561   4.646
  531SOL     OW 2479   1.240   1.339   4.111
  531SOL    HW1 2480   1.294   1.413   4.141
  531SOL    HW2 2481   1.153   1.359   4.145
  532SOL     OW 2482   1.280   1.460   4.871
  532SOL    HW1 2483   1.337   1.461   4.948
  532SOL    HW2 2484   1.226   1.382   4.883
  533SOL     OW 2485   1.575   0.634   4.210
  533SOL    HW1 2486   1.532   0.690   4.276
  533SOL    HW2 2487   1.623   0.695   4.154
  534SOL     OW 2488   0.345   1.527   5.042
  534SOL    HW1 2489   0.336   1.476   4.962
  534SOL    HW2 2490   0.440   1.542   5.050
  535SOL     OW 2491   0.417   0.737   5.325
  535SOL    HW1 2492   0.480   0.783   5.268
  535SOL    HW2 2493   0.455   0.650   5.337
  536SOL     OW 2494   1.602   0.779   5.407
  536SOL    HW1 2495   1.517   0.822   5.400
  536SOL    HW2 2496   1.656   0.820   5.339
  537SOL     OW 2497   1.011   0.133   5.503
  537SOL    HW1 2498   1.064   0.205   5.468
  537SOL    HW2 2499   1.001   0.073   5.429
  538SOL     OW 2500   0.483   0.037   5.489
  538SOL    HW1 2501   0.490   0.047   5.394
  538SOL    HW2 2502   0.421   0.105   5.516
  539SOL     OW 2503   0.585   0.875   4.755
  539SOL    HW1 2504   0.617   0.965   4.757
  539SOL    HW2 2505   0.529   0.867   4.833
  540SOL     OW 2506   1.353   0.858   4.751
  540SOL    HW1 2507   1.269   0.846   4.707
  540SOL    HW2 2508   1.397   0.773   4.743
  541SOL     OW 2509   1.200   0.537   3.982
  541SOL    HW1 2510   1.209   0.458   4.035
  541SOL    HW2 2511   1.157   0.600   4.040
  542SOL     OW 2512   0.311   0.212   4.964
  542SOL    HW1 2513   0.268   0.249   5.041
  542SOL    HW2 2514   0.296   0.118   4.970
  543SOL     OW 2515   0.061   1.306   5.004
  543SOL    HW1 2516   0.091   1.264   5.085
  543SOL    HW2 2517   0.052   1.398   5.027
  544SOL     OW 2518   0.725   0.634   4.777
  544SOL    HW1 2519   0.799   0.619   4.719
  544SOL    HW2 2520   0.695   0.722   4.756
  545SOL     OW 2521   1.739   0.957   5.574
  545SOL    HW1 2522   1.690   0.893   5.523
  545SOL    HW2 2523   1.683   0.976   5.649
  546SOL     OW 2524   0.330   0.055   4.379
  546SOL    HW1 2525   0.301   0.146   4.379
  546SOL    HW2 2526   0.293   0.017   4.459
  547SOL     OW 2527   1.607   0.392   4.104
  547SOL    HW1 2528   1.567   0.324   4.159
  547SOL    HW2 2529   1.587   0.474   4.150
  548SOL     OW 2530   1.030   0.759   4.683
  548SOL    HW1 2531   1.023   0.776   4.777
  548SOL    HW2 2532   1.002   0.668   4.673
  549SOL     OW 2533   0.979   1.565   5.442
  549SOL    HW1 2534   0.966   1.610   5.359
  549SOL    HW2 2535   1.025   1.484   5.418
  550SOL     OW 2536   1.851   1.493   5.329
  550SOL    HW1 2537   1.882   1.523   5.243
  550SOL    HW2 2538   1.924   1.511   5.388
  551SOL     OW 2539   0.353   0.922   5.523
  551SOL    HW1 2540   0.431   0.942   5.574
  551SOL    HW2 2541   0.382   0.854   5.461
  552SOL     OW 2542   1.504   0.275   3.859
  552SOL    HW1 2543   1.431   0.215   3.871
  552SOL    HW2 2544   1.518   0.314   3.945
  553SOL     OW 2545   1.288   0.827   3.752
  553SOL    HW1 2546   1.331   0.741   3.756
  553SOL    HW2 2547   1.320   0.866   3.671
  554SOL     OW 2548   1.067   1.337   4.579
  554SOL    HW1 2549   1.071   1.265   4.517
  554SOL    HW2 2550   1.127   1.403   4.544
  555SOL     OW 2551   0.313   0.803   4.674
  555SOL    HW1 2552   0.407   0.819   4.668
  555SOL    HW2 2553   0.306   0.713   4.706
  556SOL     OW 2554   0.338   0.528   4.739
  556SOL    HW1 2555   0.297   0.444   4.721
  556SOL    HW2 2556   0.413   0.532   4.680
  557SOL     OW 2557   1.133   0.380   5.422
  557SOL    HW1 2558   1.085   0.435   5.483
  557SOL    HW2 2559   1.220   0.420   5.416
  558SOL     OW 2560   1.151   0.225   5.206
  558SOL    HW1 2561   1.142   0.280   5.284
  558SOL    HW2 2562   1.176   0.286   5.137
  559SOL     OW 2563   0.000   1.317   3.906
  559SOL    HW1 2564   3.906   1.333   3.910
  559SOL    HW2 2565   0.009   1.223   3.925
  560SOL     OW 2566   0.078   1.800   4.612
  560SOL    HW1 2567   0.083   1.705   4.616
  560SOL    HW2 2568   0.169   1.829   4.617
  561SOL     OW 2569   0.500   1.571   4.635
  561SOL    HW1 2570   0.570   1.632   4.660
  561SOL    HW2 2571   0.543   1.508   4.577
  562SOL     OW 2572   0.978   0.789   4.948
  562SOL    HW1 2573   1.035   0.769   5.023
  562SOL    HW2 2574   0.893   0.750   4.971
  563SOL     OW 2575   0.035   0.573   4.836
  563SOL    HW1 2576   0.097   0.522   4.786
  563SOL    HW2 2577   0.061   0.560   4.927
  564SOL     OW 2578   0.211   0.516   5.446
  564SOL    HW1 2579   0.257   0.477   5.372
  564SOL    HW2 2580   0.164   0.590   5.408
  565SOL     OW 2581   1.378   0.937   5.382
  565SOL    HW1 2582   1.401   1.030   5.378
  565SOL    HW2 2583   1.374   0.910   5.290
  566SOL     OW 2584   0.818   0.572   4.086
  566SOL    HW1 2585   0.824   0.496   4.029
  566SOL    HW2 2586   0.743   0.621   4.053
  567SOL     OW 2587   1.640   0.602   4.907
  567SOL    HW1 2588   1.631   0.541   4.981
  567SOL    HW2 2589   1.728   0.585   4.873
  568SOL     OW 2590   0.300   1.544   5.449
  568SOL    HW1 2591   0.252   1.614   5.494
  568SOL    HW2 2592   0.269   1.463   5.489
  569SOL     OW 2593   0.710   0.454   4.980
  569SOL    HW1 2594   0.660   0.376   4.955
  569SOL    HW2 2595   0.700   0.513   4.906
  570SOL     OW 2596   0.924   1.678   5.193
  570SOL    HW1 2597   0.899   1.643   5.107
  570SOL    HW2 2598   0.920   1.773   5.181
  571SOL     OW 2599   0.454   0.492   3.921
  571SOL    HW1 2600   0.518   0.561   3.939
  571SOL    HW2 2601   0.374   0.539   3.897
  572SOL     OW 2602   0.156   1.135   5.199
  572SOL    HW1 2603   0.157   1.084   5.280
  572SOL    HW2 2604   0.171   1.070   5.130
  573SOL     OW 2605   1.323   1.045   4.946
  573SOL    HW1 2606   1.346   0.982   4.878
  573SOL    HW2 2607   1.255   1.099   4.906
  574SOL     OW 2608   1.314   0.856   4.029
  574SOL    HW1 2609   1.239   0.827   4.080
  574SOL    HW2 2610   1.287   0.843   3.938
  575SOL     OW 2611   1.244   1.735   4.832
  575SOL    HW1 2612   1.327   1.756   4.790
  575SOL    HW2 2613   1.250   1.641   4.852
  576SOL     OW 2614   0.077   1.217   4.751
  576SOL    HW1 2615   0.084   1.242   4.843
  576SOL    HW2 2616   3.985   1.226   4.730
  577SOL     OW 2617   0.679   1.667   5.458
  577SOL    HW1 2618   0.621   1.743   5.450
  577SOL    HW2 2619   0.747   1.682   5.392
  578SOL     OW 2620   1.714   0.124   4.212
  578SOL    HW1 2621   1.792   0.134   4.158
  578SOL    HW2 2622   1.705   0.030   4.224
  579SOL     OW 2623   1.366   1.559   4.199
  579SOL    HW1 2624   1.427   1.590   4.133
  579SOL    HW2 2625   1.331   1.640   4.238
  580SOL     OW 2626   0.175   1.763   5.554
  580SOL    HW1 2627   0.118   1.713   5.612
  580SOL    HW2 2628   0.216   1.828   5.611
  581SOL     OW 2629   1.277   0.928   4.395
  581SOL    HW1 2630   1.351   0.868   4.406
  581SOL    HW2 2631   1.312   0.999   4.342
  582SOL     OW 2632   0.810   1.274   5.152
  582SOL    HW1 2633   0.781   1.315   5.234
  582SOL    HW2 2634   0.739   1.292   5.090
  583SOL     OW 2635   0.670   1.622   3.879
  583SOL    HW1 2636   0.681   1.635   3.785
  583SOL    HW2 2637   0.615   1.545   3.887
  584SOL     OW 2638   1.583   1.714   5.128
  584SOL    HW1 2639   1.645   1.706   5.055
  584SOL    HW2 2640   1.569   1.808   5.138
  585SOL     OW 2641   1.839   0.178   4.690
  585SOL    HW1 2642   1.872   0.111   4.630
  585SOL    HW2 2643   1.751   0.197   4.659
  586SOL     OW 2644   0.275   0.322   4.438
  586SOL    HW1 2645   0.189   0.357   4.412
  586SOL    HW2 2646   0.266   0.306   4.532
  587SOL     OW 2647   1.204   1.604   3.755
  587SOL    HW1 2648   1.195   1.512   3.782
  587SOL    HW2 2649   1.138   1.615   3.687
  588SOL     OW 2650   0.823   1.005   5.097
  588SOL    HW1 2651   0.867   1.000   5.012
  588SOL    HW2 2652   0.822   1.099   5.118
  589SOL     OW 2653   0.915   0.910   4.014
  589SOL    HW1 2654   0.976   0.943   3.948
  589SOL    HW2 2655   0.964   0.842   4.060
  590SOL     OW 2656   1.480   1.622   3.761
  590SOL    HW1 2657   1.386   1.617   3.744
  590SOL    HW2 2658   1.520   1.627   3.675
  591SOL     OW 2659   0.374   1.303   5.216
  591SOL    HW1 2660   0.359   1.383   5.165
  591SOL    HW2 2661   0.297   1.248   5.198
  592SOL     OW 2662   1.610   1.279   5.003
  592SOL    HW1 2663   1.674   1.273   5.074
  592SOL    HW2 2664   1.547   1.344   5.033
  593SOL     OW 2665   1.056   1.109   4.432
  593SOL    HW1 2666   0.984   1.058   4.470
  593SOL    HW2 2667   1.120   1.044   4.403
  594SOL     OW 2668   1.014   0.249   4.694
  594SOL    HW1 2669   1.004   0.199   4.613
  594SOL    HW2 2670   1.010   0.184   4.764
  595SOL     OW 2671   0.606   1.488   4.206
  595SOL    HW1 2672   0.652   1.438   4.138
  595SOL    HW2 2673   0.532   1.528   4.160
  596SOL     OW 2674   1.721   0.394   5.096
  596SOL    HW1 2675   1.793   0.456   5.100
  596SOL    HW2 2676   1.754   0.322   5.042
  597SOL     OW 2677   0.254   1.341   4.017
  597SOL    HW1 2678   0.160   1.348   3.998
  597SOL    HW2 2679   0.264   1.380   4.104
  598SOL     OW 2680   0.108   0.999   5.442
  598SOL    HW1 2681   0.048   0.992   5.516
  598SOL    HW2 2682   0.194   0.980   5.479
  599SOL     OW 2683   0.694   0.253   5.225
  599SOL    HW1 2684   0.762   0.200   5.184
  599SOL    HW2 2685   0.723   0.262   5.316
  600SOL     OW 2686   0.088   0.321   3.750
  600SOL    HW1 2687   3.993   0.319   3.743
  600SOL    HW2 2688   0.113   0.404   3.709
  601SOL     OW 2689   1.427   0.857   5.123
  601SOL    HW1 2690   1.378   0.919   5.068
  601SOL    HW2 2691   1.516   0.859   5.088
  602SOL     OW 2692   0.037   0.169   4.008
  602SOL    HW1 2693   0.036   0.231   3.936
  602SOL    HW2 2694   0.113   0.193   4.061
  603SOL     OW 2695   1.177   1.337   3.840
  603SOL    HW1 2696   1.087   1.307   3.842
  603SOL    HW2 2697   1.204   1.336   3.932
  604SOL     OW 2698   0.621   0.829   5.161
  604SOL    HW1 2699   0.677   0.904   5.145
  604SOL    HW2 2700   0.681   0.755   5.169
  605SOL     OW 2701   1.492   1.782   4.706
  605SOL    HW1 2702   1.513   1.853   4.645
  605SOL    HW2 2703   1.575   1.737   4.720
  606SOL     OW 2704   0.718   0.562   5.431
  606SOL    HW1 2705   0.762   0.623   5.489
  606SOL    HW2 2706   0.744   0.475   5.462
  607SOL     OW 2707   1.473   1.197   5.356
  607SOL    HW1 2708   1.464   1.216   5.450
  607SOL    HW2 2709   1.566   1.212   5.338
  608SOL     OW 2710   0.378   1.743   5.280
  608SOL    HW1 2711   0.291   1.781   5.268
  608SOL    HW2 2712   0.362   1.661   5.327
  609SOL     OW 2713   1.666   0.881   4.979
  609SOL    HW1 2714   1.662   0.796   4.936
  609SOL    HW2 2715   1.657   0.944   4.908
  610SOL     OW 2716   1.223   0.336   4.166
  610SOL    HW1 2717   1.291   0.269   4.159
  610SOL    HW2 2718   1.242   0.381   4.249
  611SOL     OW 2719   0.590   0.738   4.395
  611SOL    HW1 2720   0.628   0.824   4.379
  611SOL    HW2 2721   0.523   0.728   4.328
  612SOL     OW 2722   1.751   0.383   5.367
  612SOL    HW1 2723   1.733   0.389   5.273
  612SOL    HW2 2724   1.694   0.313   5.398
  613SOL     OW 2725   1.747   0.933   5.236
  613SOL    HW1 2726   1.736   1.027   5.250
  613SOL    HW2 2727   1.730   0.921   5.143
  614SOL     OW 2728   0.863   1.366   3.762
  614SOL    HW1 2729   0.825   1.393   3.845
  614SOL    HW2 2730   0.879   1.448   3.715
  615SOL     OW 2731   0.663   1.788   4.666
  615SOL    HW1 2732   0.643   1.879   4.644
  615SOL    HW2 2733   0.758   1.782   4.659
  616SOL     OW 2734   0.869   0.968   4.577
  616SOL    HW1 2735   0.919   0.896   4.616
  616SOL    HW2 2736   0.832   1.015   4.652
  617SOL     OW 2737   1.078   0.989   3.813
  617SOL    HW1 2738   1.056   1.040   3.735
  617SOL    HW2 2739   1.152   0.935   3.786
  618SOL     OW 2740   1.857   1.519   4.556
  618SOL    HW1 2741   1.777   1.559   4.522
  618SOL    HW2 2742   1.845   1.517   4.651
  619SOL     OW 2743   0.226   1.303   5.580
  619SOL    HW1 2744   0.153   1.248   5.553
  619SOL    HW2 2745   0.212   1.317   5.674
  620SOL     OW 2746   0.121   1.280   4.445
  620SOL    HW1 2747   0.135   1.229   4.525
  620SOL    HW2 2748   0.106   1.215   4.377
  621SOL     OW 2749   0.683   1.404   5.356
  621SOL    HW1 2750   0.602   1.363   5.385
  621SOL    HW2 2751   0.678   1.493   5.390
  622SOL     OW 2752   1.811   0.183   4.962
  622SOL    HW1 2753   1.814   0.089   4.978
  622SOL    HW2 2754   1.826   0.193   4.868
  623SOL     OW 2755   0.444   0.438   4.255
  623SOL    HW1 2756   0.461   0.362   4.199
  623SOL    HW2 2757   0.389   0.403   4.325
  624SOL     OW 2758   1.700   1.501   4.823
  624SOL    HW1 2759   1.622   1.473   4.776
  624SOL    HW2 2760   1.716   1.431   4.887
  625SOL     OW 2761   0.333   0.557   5.017
  625SOL    HW1 2762   0.389   0.501   5.070
  625SOL    HW2 2763   0.348   0.529   4.927
  626SOL     OW 2764   0.828   1.579   4.401
  626SOL    HW1 2765   0.814   1.640   4.328
  626SOL    HW2 2766   0.753   1.520   4.399
  627SOL     OW 2767   1.461   0.254   4.834
  627SOL    HW1 2768   1.478   0.167   4.871
  627SOL    HW2 2769   1.405   0.296   4.900
  628SOL     OW 2770   1.003   0.028   4.870
  628SOL    HW1 2771   0.923   3.991   4.834
  628SOL    HW2 2772   1.063   3.953   4.879
  629SOL     OW 2773   0.773   1.333   4.041
  629SOL    HW1 2774   0.744   1.242   4.048
  629SOL    HW2 2775   0.854   1.337   4.092
  630SOL     OW 2776   0.620   1.556   5.010
  630SOL    HW1 2777   0.622   1.639   5.059
  630SOL    HW2 2778   0.708   1.549   4.973
  631SOL     OW 2779   1.311   0.074   3.889
  631SOL    HW1 2780   1.323   3.994   3.837
  631SOL    HW2 2781   1.225   0.062   3.931
  632SOL     OW 2782   1.281   0.457   4.409
  632SOL    HW1 2783   1.235   0.540   4.404
  632SOL    HW2 2784   1.284   0.437   4.503
  633SOL     OW 2785   1.588   0.210   4.592
  633SOL    HW1 2786   1.539   0.234   4.670
  633SOL    HW2 2787   1.588   0.289   4.538
  634SOL     OW 2788   0.047   1.049   3.965
  634SOL    HW1 2789   0.141   1.032   3.956
  634SOL    HW2 2790   0.011   0.965   3.995
  635SOL     OW 2791   0.887   1.656   4.064
  635SOL    HW1 2792   0.813   1.640   4.005
  635SOL    HW2 2793   0.859   1.730   4.118
  636SOL     OW 2794   0.233   0.628   5.703
  636SOL    HW1 2795   0.139   0.632   5.724
  636SOL    HW2 2796   0.235   0.598   5.612
  637SOL     OW 2797   0.224   0.289   6.569
  637SOL    HW1 2798   0.246   0.250   6.653
  637SOL    HW2 2799   0.129   0.278   6.562
  638SOL     OW 2800   0.019   0.385   6.222
  638SOL    HW1 2801   3.928   0.398   6.250
  638SOL    HW2 2802   0.025   0.290   6.207
  639SOL     OW 2803   0.580   1.289   6.777
  639SOL    HW1 2804   0.493   1.292   6.736
  639SOL    HW2 2805   0.594   1.378   6.809
  640SOL     OW 2806   1.132   0.697   6.283
  640SOL    HW1 2807   1.180   0.779   6.269
  640SOL    HW2 2808   1.086   0.711   6.365
  641SOL     OW 2809   1.769   0.614   5.808
  641SOL    HW1 2810   1.745   0.610   5.716
  641SOL    HW2 2811   1.754   0.526   5.841
  642SOL     OW 2812   0.751   1.139   6.626
  642SOL    HW1 2813   0.688   1.174   6.690
  642SOL    HW2 2814   0.787   1.216   6.583
  643SOL     OW 2815   0.870   0.770   7.409
  643SOL    HW1 2816   0.863   0.842   7.472
  643SOL    HW2 2817   0.893   0.813   7.326
  644SOL     OW 2818   0.685   1.002   6.232
  644SOL    HW1 2819   0.751   0.991   6.300
  644SOL    HW2 2820   0.616   1.054   6.273
  645SOL     OW 2821   0.710   1.149   7.402
  645SOL    HW1 2822   0.758   1.226   7.431
  645SOL    HW2 2823   0.629   1.184   7.364
  646SOL     OW 2824   0.351   1.401   6.665
  646SOL    HW1 2825   0.270   1.381   6.618
  646SOL    HW2 2826   0.399   1.459   6.605
  647SOL     OW 2827   0.457   0.408   7.082
  647SOL    HW1 2828   0.539   0.358   7.080
  647SOL    HW2 2829   0.388   0.341   7.084
  648SOL     OW 2830   1.612   0.451   6.321
  648SOL    HW1 2831   1.542   0.482   6.264
  648SOL    HW2 2832   1.629   0.524   6.380
  649SOL     OW 2833   0.220   1.719   6.043
  649SOL    HW1 2834   0.239   1.793   6.101
  649SOL    HW2 2835   0.298   1.711   5.988
  650SOL     OW 2836   1.136   1.335   7.287
  650SOL    HW1 2837   1.181   1.325   7.372
  650SOL    HW2 2838   1.082   1.257   7.280
  651SOL     OW 2839   0.249   1.450   6.126
  651SOL    HW1 2840   0.215   1.538   6.111
  651SOL    HW2 2841   0.181   1.406   6.177
  652SOL     OW 2842   0.247   1.066   6.470
  652SOL    HW1 2843   0.267   0.981   6.509
  652SOL    HW2 2844   0.195   1.111   6.536
  653SOL     OW 2845   0.609   1.793   7.013
  653SOL    HW1 2846   0.527   1.773   7.058
  653SOL    HW2 2847   0.629   1.883   7.039
  654SOL     OW 2848   0.577   0.986   5.725
  654SOL    HW1 2849   0.625   1.031   5.655
  654SOL    HW2 2850   0.618   1.016   5.806
  655SOL     OW 2851   1.581   0.140   7.042
  655SOL    HW1 2852   1.611   0.213   6.987
  655SOL    HW2 2853   1.548   0.182   7.121
  656SOL     OW 2854   0.141   0.652   6.156
  656SOL    HW1 2855   0.098   0.566   6.160
  656SOL    HW2 2856   0.102   0.702   6.228
  657SOL     OW 2857   0.044   1.590   5.725
  657SOL    HW1 2858   0.037   1.498   5.750
  657SOL    HW2 2859   3.960   1.628   5.751
  658SOL     OW 2860   1.685   0.919   6.216
  658SOL    HW1 2861   1.771   0.878   6.208
  658SOL    HW2 2862   1.673   0.968   6.135
  659SOL     OW 2863   1.652   1.116   6.008
  659SOL    HW1 2864   1.731   1.102   5.957
  659SOL    HW2 2865   1.665   1.200   6.053
  660SOL     OW 2866   0.141   0.756   7.175
  660SOL    HW1 2867   0.236   0.751   7.170
  660SOL    HW2 2868   0.123   0.844   7.207
  661SOL     OW 2869   0.613   1.388   6.323
  661SOL    HW1 2870   0.567   1.304   6.331
  661SOL    HW2 2871   0.599   1.414   6.232
  662SOL     OW 2872   1.288   1.238   7.000
  662SOL    HW1 2873   1.317   1.165   6.944
  662SOL    HW2 2874   1.336   1.225   7.082
  663SOL     OW 2875   0.820   0.003   6.102
  663SOL    HW1 2876   0.865   0.084   6.078
  663SOL    HW2 2877   0.727   0.027   6.102
  664SOL     OW 2878   0.184   0.950   6.864
  664SOL    HW1 2879   0.272   0.915   6.852
  664SOL    HW2 2880   0.132   0.908   6.795
  665SOL     OW 2881   1.529   0.996   5.782
  665SOL    HW1 2882   1.461   0.940   5.817
  665SOL    HW2 2883   1.576   1.029   5.859
  666SOL     OW 2884   0.345   0.251   7.426
  666SOL    HW1 2885   0.388   0.334   7.407
  666SOL    HW2 2886   0.254   0.274   7.444
  667SOL     OW 2887   0.595   0.717   5.852
  667SOL    HW1 2888   0.600   0.801   5.807
  667SOL    HW2 2889   0.533   0.731   5.923
  668SOL     OW 2890   1.274   0.368   6.527
  668SOL    HW1 2891   1.187   0.330   6.534
  668SOL    HW2 2892   1.332   0.307   6.572
  669SOL     OW 2893   0.794   0.616   7.039
  669SOL    HW1 2894   0.765   0.590   7.127
  669SOL    HW2 2895   0.756   0.550   6.981
  670SOL     OW 2896   1.392   0.476   7.263
  670SOL    HW1 2897   1.398   0.521   7.347
  670SOL    HW2 2898   1.450   0.400   7.272
  671SOL     OW 2899   0.951   0.886   7.169
  671SOL    HW1 2900   1.007   0.818   7.132
  671SOL    HW2 2901   0.904   0.922   7.094
  672SOL     OW 2902   0.992   0.402   6.824
  672SOL    HW1 2903   0.907   0.424   6.863
  672SOL    HW2 2904   0.972   0.374   6.735
  673SOL     OW 2905   1.053   0.699   6.011
  673SOL    HW1 2906   1.069   0.692   6.105
  673SOL    HW2 2907   0.970   0.653   5.998
  674SOL     OW 2908   0.081   0.829   6.376
  674SOL    HW1 2909   0.154   0.795   6.429
  674SOL    HW2 2910   0.102   0.921   6.362
  675SOL     OW 2911   0.130   1.863   7.163
  675SOL    HW1 2912   0.138   1.828   7.252
  675SOL    HW2 2913   0.037   1.851   7.140
  676SOL     OW 2914   0.894   0.352   5.784
  676SOL    HW1 2915   0.936   0.412   5.722
  676SOL    HW2 2916   0.892   0.268   5.739
  677SOL     OW 2917   1.708   0.575   7.414
  677SOL    HW1 2918   1.670   0.648   7.366
  677SOL    HW2 2919   1.733   0.512   7.347
  678SOL     OW 2920   1.388   1.148   6.139
  678SOL    HW1 2921   1.461   1.129   6.080
  678SOL    HW2 2922   1.322   1.189   6.083
  679SOL     OW 2923   0.561   0.195   6.466
  679SOL    HW1 2924   0.566   0.219   6.559
  679SOL    HW2 2925   0.547   0.278   6.421
  680SOL     OW 2926   1.008   1.439   6.048
  680SOL    HW1 2927   0.975   1.515   6.001
  680SOL    HW2 2928   0.989   1.458   6.140
  681SOL     OW 2929   0.366   1.820   6.456
  681SOL    HW1 2930   0.428   1.748   6.465
  681SOL    HW2 2931   0.417   1.899   6.472
  682SOL     OW 2932   1.757   0.999   6.472
  682SOL    HW1 2933   1.716   1.000   6.386
  682SOL    HW2 2934   1.739   1.086   6.508
  683SOL     OW 2935   0.310   0.954   5.828
  683SOL    HW1 2936   0.394   0.976   5.787
  683SOL    HW2 2937   0.298   0.861   5.808
  684SOL     OW 2938   1.480   0.747   6.317
  684SOL    HW1 2939   1.474   0.706   6.403
  684SOL    HW2 2940   1.556   0.805   6.323
  685SOL     OW 2941   0.467   1.261   7.324
  685SOL    HW1 2942   0.442   1.269   7.232
  685SOL    HW2 2943   0.384   1.265   7.372
  686SOL     OW 2944   1.119   1.787   5.808
  686SOL    HW1 2945   1.051   1.741   5.858
  686SOL    HW2 2946   1.148   1.723   5.743
  687SOL     OW 2947   0.201   0.293   7.085
  687SOL    HW1 2948   0.107   0.314   7.085
  687SOL    HW2 2949   0.209   0.222   7.148
  688SOL     OW 2950   1.652   1.399   5.660
  688SOL    HW1 2951   1.595   1.476   5.656
  688SOL    HW2 2952   1.592   1.324   5.653
  689SOL     OW 2953   0.467   1.738   5.903
  689SOL    HW1 2954   0.509   1.796   5.966
  689SOL    HW2 2955   0.538   1.704   5.850
  690SOL     OW 2956   1.441   0.166   5.992
  690SOL    HW1 2957   1.395   0.100   5.940
  690SOL    HW2 2958   1.512   0.118   6.034
  691SOL     OW 2959   0.252   1.790   6.817
  691SOL    HW1 2960   0.298   1.725   6.870
  691SOL    HW2 2961   0.250   1.752   6.729
  692SOL     OW 2962   0.932   1.713   6.494
  692SOL    HW1 2963   1.008   1.661   6.519
  692SOL    HW2 2964   0.898   1.670   6.415
  693SOL     OW 2965   0.398   0.694   6.057
  693SOL    HW1 2966   0.423   0.603   6.072
  693SOL    HW2 2967   0.305   0.698   6.082
  694SOL     OW 2968   1.530   0.229   7.313
  694SOL    HW1 2969   1.525   0.254   7.405
  694SOL    HW2 2970   1.511   0.135   7.313
  695SOL     OW 2971   0.645   0.130   5.689
  695SOL    HW1 2972   0.668   0.046   5.729
  695SOL    HW2 2973   0.584   0.107   5.619
  696SOL     OW 2974   0.777   0.283   7.353
  696SOL    HW1 2975   0.850   0.222   7.356
  696SOL    HW2 2976   0.720   0.256   7.425
  697SOL     OW 2977   0.878   1.522   6.781
  697SOL    HW1 2978   0.861   1.485   6.694
  697SOL    HW2 2979   0.946   1.466   6.818
  698SOL     OW 2980   1.339   0.586   7.016
  698SOL    HW1 2981   1.370   0.558   7.102
  698SOL    HW2 2982   1.374   0.675   7.005
  699SOL     OW 2983   0.816   1.393   6.527
  699SOL    HW1 2984   0.901   1.384   6.483
  699SOL    HW2 2985   0.752   1.397   6.456
  700SOL     OW 2986   0.930   0.512   6.486
  700SOL    HW1 2987   0.906   0.504   6.394
  700SOL    HW2 2988   0.956   0.423   6.512
  701SOL     OW 2989   0.546   0.056   6.073
  701SOL    HW1 2990   0.473   0.063   6.134
  701SOL    HW2 2991   0.548   0.140   6.028
  702SOL     OW 2992   1.436   1.208   5.630
  702SOL    HW1 2993   1.465   1.129   5.676
  702SOL    HW2 2994   1.347   1.223   5.661
  703SOL     OW 2995   0.346   0.037   5.784
  703SOL    HW1 2996   0.359   0.086   5.703
  703SOL    HW2 2997   0.431   0.037   5.827
  704SOL     OW 2998   0.942   0.249   6.046
  704SOL    HW1 2999   0.916   0.289   5.964
  704SOL    HW2 3000   1.038   0.254   6.046
  705SOL     OW 3001   1.080   0.683   7.044
  705SOL    HW1 3002   1.010   0.618   7.051
  705SOL    HW2 3003   1.160   0.632   7.039
  706SOL     OW 3004   0.466   1.151   6.321
  706SOL    HW1 3005   0.395   1.126   6.380
  706SOL    HW2 3006   0.431   1.135   6.233
  707SOL     OW 3007   1.022   0.543   5.615
  707SOL    HW1 3008   0.979   0.626   5.595
  707SOL    HW2 3009   1.086   0.565   5.682
  708SOL     OW 3010   0.081   0.573   6.979
  708SOL    HW1 3011   0.170   0.555   6.949
  708SOL    HW2 3012   0.090   0.645   7.042
  709SOL     OW 3013   0.572   0.231   6.745
  709SOL    HW1 3014   0.594   0.138   6.754
  709SOL    HW2 3015   0.481   0.237   6.775
  710SOL     OW 3016   0.871   0.461   6.224
  710SOL    HW1 3017   0.820   0.514   6.163
  710SOL    HW2 3018   0.891   0.381   6.176
  711SOL     OW 3019   0.997   0.039   6.367
  711SOL    HW1 3020   0.960   0.069   6.284
  711SOL    HW2 3021   1.008   3.945   6.356
  712SOL     OW 3022   1.451   1.153   6.416
  712SOL    HW1 3023   1.386   1.096   6.457
  712SOL    HW2 3024   1.424   1.159   6.324
  713SOL     OW 3025   1.465   0.606   6.560
  713SOL    HW1 3026   1.411   0.527   6.566
  713SOL    HW2 3027   1.525   0.599   6.635
  714SOL     OW 3028   1.834   0.806   5.980
  714SOL    HW1 3029   1.896   0.758   6.034
  714SOL    HW2 3030   1.811   0.746   5.910
  715SOL     OW 3031   0.487   1.420   5.744
  715SOL    HW1 3032   0.412   1.389   5.795
  715SOL    HW2 3033   0.470   1.388   5.655
  716SOL     OW 3034   1.395   0.576   5.655
  716SOL    HW1 3035   1.333   0.556   5.725
  716SOL    HW2 3036   1.481   0.556   5.694
  717SOL     OW 3037   0.557   0.271   5.904
  717SOL    HW1 3038   0.605   0.231   5.831
  717SOL    HW2 3039   0.528   0.355   5.870
  718SOL     OW 3040   1.049   1.342   6.911
  718SOL    HW1 3041   0.976   1.318   6.968
  718SOL    HW2 3042   1.127   1.315   6.959
  719SOL     OW 3043   1.124   1.197   6.690
  719SOL    HW1 3044   1.077   1.240   6.761
  719SOL    HW2 3045   1.084   1.230   6.610
  720SOL     OW 3046   0.913   0.114   6.988
  720SOL    HW1 3047   0.932   0.089   6.897
  720SOL    HW2 3048   0.993   0.157   7.018
  721SOL     OW 3049   0.981   1.112   7.312
  721SOL    HW1 3050   0.889   1.129   7.332
  721SOL    HW2 3051   0.979   1.035   7.255
  722SOL     OW 3052   0.708   1.061   5.957
  722SOL    HW1 3053   0.694   1.044   6.050
  722SOL    HW2 3054   0.784   1.008   5.934
  723SOL     OW 3055   0.422   0.817   6.839
  723SOL    HW1 3056   0.491   0.823   6.905
  723SOL    HW2 3057   0.388   0.728   6.848
  724SOL     OW 3058   1.266   0.374   6.862
  724SOL    HW1 3059   1.300   0.452   6.907
  724SOL    HW2 3060   1.178   0.400   6.833
  725SOL     OW 3061   0.065   1.580   6.932
  725SOL    HW1 3062   0.071   1.636   6.854
  725SOL    HW2 3063   0.156   1.567   6.959
  726SOL     OW 3064   0.370   1.103   6.068
  726SOL    HW1 3065   0.365   1.182   6.015
  726SOL    HW2 3066   0.369   1.031   6.005
  727SOL     OW 3067   0.554   0.534   6.443
  727SOL    HW1 3068   0.568   0.593   6.369
  727SOL    HW2 3069   0.620   0.561   6.508
  728SOL     OW 3070   1.290   1.419   6.735
  728SOL    HW1 3071   1.293   1.418   6.830
  728SOL    HW2 3072   1.242   1.340   6.711
  729SOL     OW 3073   1.573   0.635   6.072
  729SOL    HW1 3074   1.534   0.690   6.140
  729SOL    HW2 3075   1.629   0.694   6.022
  730SOL     OW 3076   0.346   1.527   6.904
  730SOL    HW1 3077   0.336   1.477   6.824
  730SOL    HW2 3078   0.440   1.542   6.912
  731SOL     OW 3079   0.417   0.737   7.186
  731SOL    HW1 3080   0.480   0.783   7.130
  731SOL    HW2 3081   0.455   0.651   7.200
  732SOL     OW 3082   1.601   0.778   7.271
  732SOL    HW1 3083   1.512   0.815   7.266
  732SOL    HW2 3084   1.650   0.825   7.203
  733SOL     OW 3085   1.012   0.133   7.365
  733SOL    HW1 3086   1.064   0.205   7.330
  733SOL    HW2 3087   1.000   0.074   7.290
  734SOL     OW 3088   0.483   0.037   7.351
  734SOL    HW1 3089   0.490   0.047   7.256
  734SOL    HW2 3090   0.421   0.104   7.378
  735SOL     OW 3091   0.585   0.875   6.617
  735SOL    HW1 3092   0.618   0.965   6.620
  735SOL    HW2 3093   0.529   0.868   6.695
  736SOL     OW 3094   1.354   0.857   6.612
  736SOL    HW1 3095   1.268   0.844   6.572
  736SOL    HW2 3096   1.397   0.772   6.604
  737SOL     OW 3097   1.201   0.537   5.845
  737SOL    HW1 3098   1.210   0.458   5.897
  737SOL    HW2 3099   1.156   0.599   5.902
  738SOL     OW 3100   0.311   0.212   6.826
  738SOL    HW1 3101   0.268   0.248   6.904
  738SOL    HW2 3102   0.296   0.118   6.832
  739SOL     OW 3103   0.059   1.306   6.867
  739SOL    HW1 3104   0.090   1.264   6.947
  739SOL    HW2 3105   0.052   1.399   6.889
  740SOL     OW 3106   0.724   0.633   6.639
  740SOL    HW1 3107   0.799   0.619   6.581
  740SOL    HW2 3108   0.695   0.722   6.618
  741SOL     OW 3109   1.732   0.958   7.441
  741SOL    HW1 3110   1.686   0.895   7.386
  741SOL    HW2 3111   1.668   0.982   7.508
  742SOL     OW 3112   0.330   0.055   6.241
  742SOL    HW1 3113   0.302   0.146   6.241
  742SOL    HW2 3114   0.293   0.017   6.320
  743SOL     OW 3115   1.606   0.392   5.967
  743SOL    HW1 3116   1.566   0.324   6.022
  743SOL    HW2 3117   1.586   0.474   6.011
  744SOL     OW 3118   1.030   0.759   6.544
  744SOL    HW1 3119   1.023   0.776   6.638
  744SOL    HW2 3120   1.002   0.668   6.534
  745SOL     OW 3121   0.979   1.557   7.283
  745SOL    HW1 3122   0.967   1.602   7.200
  745SOL    HW2 3123   1.030   1.479   7.262
  746SOL     OW 3124   0.353   0.921   7.385
  746SOL    HW1 3125   0.431   0.942   7.436
  746SOL    HW2 3126   0.382   0.854   7.323
  747SOL     OW 3127   1.504   0.275   5.721
  747SOL    HW1 3128   1.431   0.215   5.733
  747SOL    HW2 3129   1.518   0.314   5.807
  748SOL     OW 3130   1.289   0.827   5.616
  748SOL    HW1 3131   1.331   0.741   5.619
  748SOL    HW2 3132   1.321   0.866   5.535
  749SOL     OW 3133   1.065   1.334   6.435
  749SOL    HW1 3134   1.063   1.258   6.376
  749SOL    HW2 3135   1.152   1.372   6.423
  750SOL     OW 3136   0.313   0.803   6.536
  750SOL    HW1 3137   0.407   0.820   6.531
  750SOL    HW2 3138   0.307   0.713   6.568
  751SOL     OW 3139   0.338   0.528   6.601
  751SOL    HW1 3140   0.297   0.444   6.583
  751SOL    HW2 3141   0.413   0.532   6.542
  752SOL     OW 3142   1.133   0.380   7.284
  752SOL    HW1 3143   1.085   0.435   7.345
  752SOL    HW2 3144   1.220   0.420   7.278
  753SOL     OW 3145   1.151   0.225   7.068
  753SOL    HW1 3146   1.142   0.280   7.146
  753SOL    HW2 3147   1.176   0.287   6.999
  754SOL     OW 3148   0.000   1.317   5.768
  754SOL    HW1 3149   3.906   1.333   5.772
  754SOL    HW2 3150   0.009   1.224   5.787
  755SOL     OW 3151   0.078   1.800   6.474
  755SOL    HW1 3152   0.083   1.704   6.478
  755SOL    HW2 3153   0.169   1.829   6.479
  756SOL     OW 3154   0.500   1.571   6.497
  756SOL    HW1 3155   0.570   1.632   6.523
  756SOL    HW2 3156   0.543   1.509   6.439
  757SOL     OW 3157   0.979   0.787   6.809
  757SOL    HW1 3158   1.035   0.768   6.884
  757SOL    HW2 3159   0.893   0.752   6.834
  758SOL     OW 3160   0.035   0.573   6.699
  758SOL    HW1 3161   0.097   0.522   6.648
  758SOL    HW2 3162   0.061   0.560   6.790
  759SOL     OW 3163   0.211   0.516   7.308
  759SOL    HW1 3164   0.258   0.477   7.234
  759SOL    HW2 3165   0.165   0.591   7.270
  760SOL     OW 3166   1.371   0.925   7.241
  760SOL    HW1 3167   1.394   1.018   7.240
  760SOL    HW2 3168   1.370   0.899   7.149
  761SOL     OW 3169   0.819   0.573   5.948
  761SOL    HW1 3170   0.825   0.496   5.890
  761SOL    HW2 3171   0.744   0.622   5.915
  762SOL     OW 3172   1.640   0.602   6.772
  762SOL    HW1 3173   1.631   0.540   6.844
  762SOL    HW2 3174   1.727   0.583   6.736
  763SOL     OW 3175   0.299   1.544   7.310
  763SOL    HW1 3176   0.252   1.613   7.356
  763SOL    HW2 3177   0.269   1.463   7.352
  764SOL     OW 3178   0.710   0.454   6.842
  764SOL    HW1 3179   0.659   0.376   6.817
  764SOL    HW2 3180   0.700   0.513   6.768
  765SOL     OW 3181   0.925   1.685   7.048
  765SOL    HW1 3182   0.906   1.646   6.963
  765SOL    HW2 3183   0.916   1.780   7.033
  766SOL     OW 3184   0.454   0.492   5.784
  766SOL    HW1 3185   0.518   0.561   5.801
  766SOL    HW2 3186   0.374   0.539   5.759
  767SOL     OW 3187   0.155   1.134   7.060
  767SOL    HW1 3188   0.157   1.084   7.142
  767SOL    HW2 3189   0.170   1.070   6.991
  768SOL     OW 3190   1.325   1.043   6.807
  768SOL    HW1 3191   1.350   0.982   6.738
  768SOL    HW2 3192   1.254   1.095   6.768
  769SOL     OW 3193   1.309   0.864   5.892
  769SOL    HW1 3194   1.239   0.825   5.944
  769SOL    HW2 3195   1.285   0.847   5.801
  770SOL     OW 3196   0.078   1.217   6.614
  770SOL    HW1 3197   0.083   1.243   6.706
  770SOL    HW2 3198   3.985   1.226   6.592
  771SOL     OW 3199   0.681   1.667   7.323
  771SOL    HW1 3200   0.623   1.742   7.309
  771SOL    HW2 3201   0.749   1.677   7.256
  772SOL     OW 3202   1.714   0.124   6.073
  772SOL    HW1 3203   1.792   0.134   6.020
  772SOL    HW2 3204   1.705   0.030   6.086
  773SOL     OW 3205   0.175   1.764   7.416
  773SOL    HW1 3206   0.118   1.713   7.474
  773SOL    HW2 3207   0.217   1.828   7.473
  774SOL     OW 3208   1.278   0.924   6.252
  774SOL    HW1 3209   1.351   0.864   6.269
  774SOL    HW2 3210   1.318   0.998   6.207
  775SOL     OW 3211   0.807   1.271   7.017
  775SOL    HW1 3212   0.779   1.314   7.098
  775SOL    HW2 3213   0.737   1.291   6.954
  776SOL     OW 3214   0.670   1.620   5.740
  776SOL    HW1 3215   0.680   1.634   5.646
  776SOL    HW2 3216   0.613   1.543   5.747
  777SOL     OW 3217   1.839   0.177   6.552
  777SOL    HW1 3218   1.871   0.111   6.491
  777SOL    HW2 3219   1.750   0.197   6.522
  778SOL     OW 3220   0.275   0.322   6.300
  778SOL    HW1 3221   0.189   0.357   6.274
  778SOL    HW2 3222   0.266   0.306   6.394
  779SOL     OW 3223   1.204   1.606   5.617
  779SOL    HW1 3224   1.193   1.513   5.639
  779SOL    HW2 3225   1.140   1.622   5.548
  780SOL     OW 3226   0.824   1.005   6.958
  780SOL    HW1 3227   0.869   1.002   6.874
  780SOL    HW2 3228   0.822   1.098   6.981
  781SOL     OW 3229   0.916   0.911   5.877
  781SOL    HW1 3230   0.978   0.943   5.810
  781SOL    HW2 3231   0.965   0.842   5.922
  782SOL     OW 3232   1.484   1.619   5.629
  782SOL    HW1 3233   1.389   1.618   5.614
  782SOL    HW2 3234   1.522   1.627   5.541
  783SOL     OW 3235   0.373   1.302   7.078
  783SOL    HW1 3236   0.359   1.383   7.028
  783SOL    HW2 3237   0.296   1.249   7.059
  784SOL     OW 3238   1.059   1.104   6.294
  784SOL    HW1 3239   0.985   1.056   6.332
  784SOL    HW2 3240   1.121   1.035   6.268
  785SOL     OW 3241   1.014   0.249   6.556
  785SOL    HW1 3242   1.004   0.199   6.475
  785SOL    HW2 3243   1.010   0.184   6.625
  786SOL     OW 3244   0.606   1.488   6.068
  786SOL    HW1 3245   0.652   1.439   6.000
  786SOL    HW2 3246   0.533   1.529   6.022
  787SOL     OW 3247   1.721   0.394   6.958
  787SOL    HW1 3248   1.793   0.456   6.962
  787SOL    HW2 3249   1.754   0.322   6.904
  788SOL     OW 3250   0.254   1.341   5.879
  788SOL    HW1 3251   0.160   1.348   5.860
  788SOL    HW2 3252   0.264   1.380   5.966
  789SOL     OW 3253   0.108   0.999   7.304
  789SOL    HW1 3254   0.048   0.992   7.378
  789SOL    HW2 3255   0.194   0.980   7.341
  790SOL     OW 3256   0.694   0.253   7.087
  790SOL    HW1 3257   0.762   0.199   7.046
  790SOL    HW2 3258   0.723   0.262   7.178
  791SOL     OW 3259   0.088   0.321   5.613
  791SOL    HW1 3260   3.993   0.319   5.605
  791SOL    HW2 3261   0.113   0.404   5.571
  792SOL     OW 3262   1.425   0.853   6.982
  792SOL    HW1 3263   1.378   0.915   6.927
  792SOL    HW2 3264   1.517   0.860   6.955
  793SOL     OW 3265   0.037   0.169   5.871
  793SOL    HW1 3266   0.037   0.231   5.798
  793SOL    HW2 3267   0.113   0.193   5.923
  794SOL     OW 3268   1.167   1.338   5.700
  794SOL    HW1 3269   1.075   1.314   5.688
  794SOL    HW2 3270   1.176   1.350   5.795
  795SOL     OW 3271   0.621   0.829   7.022
  795SOL    HW1 3272   0.677   0.905   7.006
  795SOL    HW2 3273   0.682   0.755   7.031
  796SOL     OW 3274   0.717   0.562   7.293
  796SOL    HW1 3275   0.761   0.625   7.350
  796SOL    HW2 3276   0.745   0.476   7.325
  797SOL     OW 3277   1.461   1.182   7.218
  797SOL    HW1 3278   1.448   1.195   7.312
  797SOL    HW2 3279   1.553   1.206   7.203
  798SOL     OW 3280   0.378   1.743   7.143
  798SOL    HW1 3281   0.291   1.780   7.130
  798SOL    HW2 3282   0.362   1.661   7.189
  799SOL     OW 3283   1.670   0.875   6.836
  799SOL    HW1 3284   1.662   0.783   6.808
  799SOL    HW2 3285   1.674   0.924   6.754
  800SOL     OW 3286   1.223   0.336   6.028
  800SOL    HW1 3287   1.291   0.268   6.022
  800SOL    HW2 3288   1.242   0.381   6.111
  801SOL     OW 3289   0.590   0.738   6.257
  801SOL    HW1 3290   0.628   0.824   6.241
  801SOL    HW2 3291   0.523   0.728   6.190
  802SOL     OW 3292   1.751   0.382   7.229
  802SOL    HW1 3293   1.733   0.389   7.135
  802SOL    HW2 3294   1.693   0.313   7.260
  803SOL     OW 3295   1.728   0.940   7.098
  803SOL    HW1 3296   1.807   0.993   7.115
  803SOL    HW2 3297   1.727   0.929   7.003
  804SOL     OW 3298   0.871   1.366   5.627
  804SOL    HW1 3299   0.826   1.394   5.707
  804SOL    HW2 3300   0.881   1.446   5.576
  805SOL     OW 3301   0.662   1.789   6.529
  805SOL    HW1 3302   0.645   1.880   6.505
  805SOL    HW2 3303   0.757   1.779   6.520
  806SOL     OW 3304   0.869   0.969   6.439
  806SOL    HW1 3305   0.919   0.897   6.479
  806SOL    HW2 3306   0.831   1.015   6.514
  807SOL     OW 3307   1.080   0.990   5.676
  807SOL    HW1 3308   1.057   1.040   5.598
  807SOL    HW2 3309   1.153   0.935   5.649
  808SOL     OW 3310   0.226   1.304   7.442
  808SOL    HW1 3311   0.153   1.248   7.416
  808SOL    HW2 3312   0.213   1.317   7.536
  809SOL     OW 3313   0.120   1.279   6.308
  809SOL    HW1 3314   0.135   1.228   6.387
  809SOL    HW2 3315   0.106   1.214   6.239
  810SOL     OW 3316   0.678   1.406   7.214
  810SOL    HW1 3317   0.599   1.364   7.247
  810SOL    HW2 3318   0.678   1.493   7.256
  811SOL     OW 3319   1.812   0.183   6.825
  811SOL    HW1 3320   1.814   0.088   6.839
  811SOL    HW2 3321   1.826   0.193   6.731
  812SOL     OW 3322   0.444   0.437   6.117
  812SOL    HW1 3323   0.461   0.362   6.061
  812SOL    HW2 3324   0.389   0.403   6.188
  813SOL     OW 3325   0.333   0.557   6.879
  813SOL    HW1 3326   0.389   0.501   6.932
  813SOL    HW2 3327   0.348   0.529   6.789
  814SOL     OW 3328   0.834   1.583   6.263
  814SOL    HW1 3329   0.819   1.643   6.190
  814SOL    HW2 3330   0.759   1.524   6.261
  815SOL     OW 3331   1.461   0.254   6.697
  815SOL    HW1 3332   1.478   0.167   6.733
  815SOL    HW2 3333   1.405   0.297   6.761
  816SOL     OW 3334   1.003   0.028   6.732
  816SOL    HW1 3335   0.923   3.991   6.695
  816SOL    HW2 3336   1.063   3.954   6.741
  817SOL     OW 3337   0.772   1.333   5.904
  817SOL    HW1 3338   0.745   1.242   5.912
  817SOL    HW2 3339   0.855   1.337   5.952
  818SOL     OW 3340   0.621   1.557   6.871
  818SOL    HW1 3341   0.623   1.639   6.921
  818SOL    HW2 3342   0.710   1.549   6.835
  819SOL     OW 3343   1.311   0.074   5.752
  819SOL    HW1 3344   1.323   3.995   5.699
  819SOL    HW2 3345   1.225   0.062   5.793
  820SOL     OW 3346   1.282   0.457   6.271
  820SOL    HW1 3347   1.234   0.540   6.266
  820SOL    HW2 3348   1.285   0.437   6.365
  821SOL     OW 3349   1.588   0.210   6.454
  821SOL    HW1 3350   1.539   0.235   6.532
  821SOL    HW2 3351   1.588   0.289   6.400
  822SOL     OW 3352   0.047   1.049   5.827
  822SOL    HW1 3353   0.141   1.033   5.818
  822SOL    HW2 3354   0.011   0.965   5.857
  823SOL     OW 3355   0.889   1.649   5.919
  823SOL    HW1 3356   0.816   1.632   5.860
  823SOL    HW2 3357   0.859   1.721   5.975
  824SOL     OW 3358   0.232   0.627   7.565
  824SOL    HW1 3359   0.139   0.632   7.586
  824SOL    HW2 3360   0.235   0.598   7.474
  825SOL     OW 3361   0.224   0.289   8.431
  825SOL    HW1 3362   0.246   0.250   8.515
  825SOL    HW2 3363   0.129   0.278   8.424
  826SOL     OW 3364   0.019   0.385   8.084
  826SOL    HW1 3365   3.928   0.398   8.112
  826SOL    HW2 3366   0.026   0.291   8.069
  827SOL     OW 3367   0.581   1.289   8.639
  827SOL    HW1 3368   0.494   1.291   8.598
  827SOL    HW2 3369   0.594   1.379   8.671
  828SOL     OW 3370   1.556   1.493   8.175
  828SOL    HW1 3371   1.528   1.474   8.265
  828SOL    HW2 3372   1.474   1.506   8.128
  829SOL     OW 3373   1.133   0.698   8.145
  829SOL    HW1 3374   1.181   0.780   8.133
  829SOL    HW2 3375   1.085   0.710   8.227
  830SOL     OW 3376   1.767   0.616   7.672
  830SOL    HW1 3377   1.745   0.610   7.579
  830SOL    HW2 3378   1.751   0.528   7.706
  831SOL     OW 3379   0.754   1.139   8.491
  831SOL    HW1 3380   0.690   1.175   8.552
  831SOL    HW2 3381   0.789   1.216   8.445
  832SOL     OW 3382   0.871   0.770   9.272
  832SOL    HW1 3383   0.860   0.841   9.334
  832SOL    HW2 3384   0.893   0.814   9.189
  833SOL     OW 3385   0.685   1.002   8.094
  833SOL    HW1 3386   0.751   0.991   8.162
  833SOL    HW2 3387   0.616   1.054   8.135
  834SOL     OW 3388   0.712   1.149   9.264
  834SOL    HW1 3389   0.759   1.227   9.293
  834SOL    HW2 3390   0.630   1.183   9.227
  835SOL     OW 3391   0.351   1.401   8.527
  835SOL    HW1 3392   0.270   1.381   8.480
  835SOL    HW2 3393   0.399   1.459   8.467
  836SOL     OW 3394   1.449   1.488   8.807
  836SOL    HW1 3395   1.495   1.571   8.813
  836SOL    HW2 3396   1.383   1.491   8.875
  837SOL     OW 3397   0.457   0.408   8.944
  837SOL    HW1 3398   0.539   0.358   8.942
  837SOL    HW2 3399   0.388   0.341   8.947
  838SOL     OW 3400   1.612   0.451   8.183
  838SOL    HW1 3401   1.542   0.482   8.125
  838SOL    HW2 3402   1.628   0.524   8.242
  839SOL     OW 3403   0.220   1.718   7.906
  839SOL    HW1 3404   0.240   1.793   7.963
  839SOL    HW2 3405   0.297   1.710   7.849
  840SOL     OW 3406   1.137   1.342   9.142
  840SOL    HW1 3407   1.178   1.336   9.228
  840SOL    HW2 3408   1.085   1.262   9.134
  841SOL     OW 3409   0.249   1.450   7.988
  841SOL    HW1 3410   0.215   1.539   7.973
  841SOL    HW2 3411   0.180   1.407   8.038
  842SOL     OW 3412   0.247   1.066   8.332
  842SOL    HW1 3413   0.267   0.981   8.371
  842SOL    HW2 3414   0.194   1.111   8.398
  843SOL     OW 3415   0.611   1.792   8.875
  843SOL    HW1 3416   0.528   1.774   8.920
  843SOL    HW2 3417   0.633   1.881   8.901
  844SOL     OW 3418   0.576   0.986   7.586
  844SOL    HW1 3419   0.625   1.030   7.517
  844SOL    HW2 3420   0.618   1.015   7.667
  845SOL     OW 3421   1.581   0.140   8.904
  845SOL    HW1 3422   1.611   0.213   8.849
  845SOL    HW2 3423   1.548   0.182   8.984
  846SOL     OW 3424   0.140   0.651   8.017
  846SOL    HW1 3425   0.098   0.566   8.022
  846SOL    HW2 3426   0.102   0.701   8.090
  847SOL     OW 3427   0.044   1.590   7.586
  847SOL    HW1 3428   0.037   1.498   7.611
  847SOL    HW2 3429   3.961   1.629   7.613
  848SOL     OW 3430   1.687   0.911   8.074
  848SOL    HW1 3431   1.774   0.873   8.088
  848SOL    HW2 3432   1.701   0.982   8.011
  849SOL     OW 3433   0.141   0.756   9.037
  849SOL    HW1 3434   0.236   0.751   9.032
  849SOL    HW2 3435   0.123   0.844   9.069
  850SOL     OW 3436   0.612   1.386   8.185
  850SOL    HW1 3437   0.567   1.303   8.194
  850SOL    HW2 3438   0.597   1.413   8.095
  851SOL     OW 3439   1.285   1.235   8.872
  851SOL    HW1 3440   1.316   1.169   8.811
  851SOL    HW2 3441   1.345   1.230   8.946
  852SOL     OW 3442   0.820   0.004   7.964
  852SOL    HW1 3443   0.865   0.085   7.940
  852SOL    HW2 3444   0.727   0.027   7.964
  853SOL     OW 3445   0.184   0.950   8.726
  853SOL    HW1 3446   0.272   0.915   8.714
  853SOL    HW2 3447   0.132   0.908   8.658
  854SOL     OW 3448   1.532   0.999   7.647
  854SOL    HW1 3449   1.460   0.947   7.683
  854SOL    HW2 3450   1.601   0.993   7.713
  855SOL     OW 3451   1.187   1.810   9.072
  855SOL    HW1 3452   1.193   1.869   8.998
  855SOL    HW2 3453   1.202   1.723   9.035
  856SOL     OW 3454   0.345   0.251   9.288
  856SOL    HW1 3455   0.388   0.334   9.269
  856SOL    HW2 3456   0.254   0.274   9.305
  857SOL     OW 3457   1.467   1.417   8.414
  857SOL    HW1 3458   1.398   1.434   8.478
  857SOL    HW2 3459   1.453   1.326   8.387
  858SOL     OW 3460   1.580   1.686   7.991
  858SOL    HW1 3461   1.647   1.663   7.927
  858SOL    HW2 3462   1.598   1.629   8.066
  859SOL     OW 3463   0.596   0.717   7.714
  859SOL    HW1 3464   0.601   0.801   7.668
  859SOL    HW2 3465   0.533   0.732   7.785
  860SOL     OW 3466   1.274   0.369   8.389
  860SOL    HW1 3467   1.187   0.330   8.396
  860SOL    HW2 3468   1.332   0.307   8.435
  861SOL     OW 3469   0.794   0.616   8.901
  861SOL    HW1 3470   0.765   0.590   8.989
  861SOL    HW2 3471   0.756   0.550   8.843
  862SOL     OW 3472   1.392   0.476   9.125
  862SOL    HW1 3473   1.398   0.521   9.209
  862SOL    HW2 3474   1.450   0.400   9.134
  863SOL     OW 3475   0.952   0.887   9.032
  863SOL    HW1 3476   1.007   0.818   8.995
  863SOL    HW2 3477   0.903   0.922   8.958
  864SOL     OW 3478   0.992   0.403   8.686
  864SOL    HW1 3479   0.907   0.423   8.724
  864SOL    HW2 3480   0.972   0.374   8.597
  865SOL     OW 3481   1.052   0.699   7.874
  865SOL    HW1 3482   1.069   0.692   7.968
  865SOL    HW2 3483   0.970   0.653   7.860
  866SOL     OW 3484   0.081   0.828   8.238
  866SOL    HW1 3485   0.154   0.795   8.291
  866SOL    HW2 3486   0.102   0.921   8.224
  867SOL     OW 3487   0.130   1.863   9.025
  867SOL    HW1 3488   0.138   1.828   9.114
  867SOL    HW2 3489   0.038   1.851   9.003
  868SOL     OW 3490   0.894   0.352   7.646
  868SOL    HW1 3491   0.936   0.412   7.585
  868SOL    HW2 3492   0.893   0.268   7.601
  869SOL     OW 3493   1.708   0.575   9.277
  869SOL    HW1 3494   1.670   0.649   9.229
  869SOL    HW2 3495   1.732   0.512   9.210
  870SOL     OW 3496   1.370   1.144   7.987
  870SOL    HW1 3497   1.449   1.136   7.934
  870SOL    HW2 3498   1.317   1.209   7.942
  871SOL     OW 3499   0.561   0.195   8.329
  871SOL    HW1 3500   0.566   0.219   8.421
  871SOL    HW2 3501   0.547   0.278   8.283
  872SOL     OW 3502   1.009   1.443   7.925
  872SOL    HW1 3503   0.966   1.512   7.875
  872SOL    HW2 3504   0.979   1.458   8.015
  873SOL     OW 3505   0.365   1.820   8.319
  873SOL    HW1 3506   0.428   1.749   8.327
  873SOL    HW2 3507   0.415   1.899   8.334
  874SOL     OW 3508   1.799   1.035   8.328
  874SOL    HW1 3509   1.752   1.074   8.254
  874SOL    HW2 3510   1.739   1.046   8.402
  875SOL     OW 3511   1.225   1.538   8.963
  875SOL    HW1 3512   1.211   1.466   9.024
  875SOL    HW2 3513   1.159   1.524   8.894
  876SOL     OW 3514   0.311   0.954   7.690
  876SOL    HW1 3515   0.394   0.976   7.649
  876SOL    HW2 3516   0.298   0.861   7.669
  877SOL     OW 3517   1.479   0.747   8.178
  877SOL    HW1 3518   1.476   0.707   8.264
  877SOL    HW2 3519   1.556   0.804   8.180
  878SOL     OW 3520   0.468   1.261   9.185
  878SOL    HW1 3521   0.442   1.269   9.094
  878SOL    HW2 3522   0.386   1.264   9.234
  879SOL     OW 3523   1.020   1.807   7.649
  879SOL    HW1 3524   0.985   1.755   7.722
  879SOL    HW2 3525   1.068   1.744   7.596
  880SOL     OW 3526   0.201   0.294   8.948
  880SOL    HW1 3527   0.107   0.314   8.947
  880SOL    HW2 3528   0.209   0.222   9.010
  881SOL     OW 3529   0.466   1.738   7.765
  881SOL    HW1 3530   0.510   1.795   7.828
  881SOL    HW2 3531   0.537   1.703   7.712
  882SOL     OW 3532   1.441   0.166   7.854
  882SOL    HW1 3533   1.394   0.100   7.804
  882SOL    HW2 3534   1.512   0.119   7.897
  883SOL     OW 3535   0.251   1.791   8.679
  883SOL    HW1 3536   0.298   1.725   8.732
  883SOL    HW2 3537   0.250   1.754   8.591
  884SOL     OW 3538   0.935   1.696   8.345
  884SOL    HW1 3539   1.006   1.640   8.376
  884SOL    HW2 3540   0.895   1.647   8.274
  885SOL     OW 3541   0.397   0.694   7.919
  885SOL    HW1 3542   0.423   0.603   7.934
  885SOL    HW2 3543   0.305   0.698   7.944
  886SOL     OW 3544   1.529   0.229   9.175
  886SOL    HW1 3545   1.525   0.254   9.267
  886SOL    HW2 3546   1.511   0.135   9.175
  887SOL     OW 3547   0.645   0.130   7.551
  887SOL    HW1 3548   0.668   0.046   7.591
  887SOL    HW2 3549   0.584   0.107   7.481
  888SOL     OW 3550   0.776   0.284   9.215
  888SOL    HW1 3551   0.850   0.223   9.217
  888SOL    HW2 3552   0.720   0.255   9.287
  889SOL     OW 3553   0.876   1.522   8.641
  889SOL    HW1 3554   0.859   1.483   8.555
  889SOL    HW2 3555   0.945   1.467   8.679
  890SOL     OW 3556   1.339   0.587   8.879
  890SOL    HW1 3557   1.370   0.559   8.965
  890SOL    HW2 3558   1.375   0.676   8.869
  891SOL     OW 3559   0.817   1.392   8.389
  891SOL    HW1 3560   0.901   1.380   8.345
  891SOL    HW2 3561   0.753   1.395   8.318
  892SOL     OW 3562   0.930   0.512   8.348
  892SOL    HW1 3563   0.906   0.504   8.256
  892SOL    HW2 3564   0.956   0.423   8.374
  893SOL     OW 3565   0.546   0.056   7.935
  893SOL    HW1 3566   0.473   0.063   7.996
  893SOL    HW2 3567   0.548   0.140   7.890
  894SOL     OW 3568   1.429   1.198   7.482
  894SOL    HW1 3569   1.461   1.131   7.542
  894SOL    HW2 3570   1.348   1.230   7.523
  895SOL     OW 3571   0.346   0.037   7.646
  895SOL    HW1 3572   0.359   0.087   7.566
  895SOL    HW2 3573   0.431   0.037   7.689
  896SOL     OW 3574   0.942   0.249   7.908
  896SOL    HW1 3575   0.916   0.290   7.826
  896SOL    HW2 3576   1.038   0.254   7.908
  897SOL     OW 3577   1.079   0.683   8.906
  897SOL    HW1 3578   1.010   0.618   8.913
  897SOL    HW2 3579   1.160   0.633   8.901
  898SOL     OW 3580   1.238   1.561   8.241
  898SOL    HW1 3581   1.236   1.650   8.203
  898SOL    HW2 3582   1.295   1.570   8.317
  899SOL     OW 3583   0.466   1.150   8.183
  899SOL    HW1 3584   0.395   1.125   8.242
  899SOL    HW2 3585   0.431   1.135   8.096
  900SOL     OW 3586   1.022   0.543   7.477
  900SOL    HW1 3587   0.978   0.626   7.457
  900SOL    HW2 3588   1.086   0.565   7.544
  901SOL     OW 3589   0.081   0.573   8.841
  901SOL    HW1 3590   0.170   0.555   8.811
  901SOL    HW2 3591   0.090   0.645   8.904
  902SOL     OW 3592   0.572   0.231   8.607
  902SOL    HW1 3593   0.594   0.138   8.616
  902SOL    HW2 3594   0.481   0.237   8.637
  903SOL     OW 3595   0.871   0.461   8.086
  903SOL    HW1 3596   0.820   0.514   8.024
  903SOL    HW2 3597   0.891   0.381   8.039
  904SOL     OW 3598   0.996   0.039   8.229
  904SOL    HW1 3599   0.960   0.069   8.145
  904SOL    HW2 3600   1.007   3.945   8.218
  905SOL     OW 3601   1.435   1.162   8.321
  905SOL    HW1 3602   1.367   1.101   8.293
  905SOL    HW2 3603   1.493   1.169   8.245
  906SOL     OW 3604   1.465   0.606   8.422
  906SOL    HW1 3605   1.410   0.528   8.427
  906SOL    HW2 3606   1.524   0.600   8.497
  907SOL     OW 3607   1.845   0.816   7.830
  907SOL    HW1 3608   1.900   0.765   7.890
  907SOL    HW2 3609   1.817   0.753   7.764
  908SOL     OW 3610   0.487   1.421   7.607
  908SOL    HW1 3611   0.411   1.390   7.657
  908SOL    HW2 3612   0.474   1.387   7.519
  909SOL     OW 3613   1.663   1.233   8.165
  909SOL    HW1 3614   1.755   1.235   8.139
  909SOL    HW2 3615   1.635   1.325   8.161
  910SOL     OW 3616   1.396   0.575   7.517
  910SOL    HW1 3617   1.332   0.555   7.587
  910SOL    HW2 3618   1.481   0.556   7.557
  911SOL     OW 3619   0.557   0.270   7.766
  911SOL    HW1 3620   0.605   0.231   7.693
  911SOL    HW2 3621   0.528   0.355   7.733
  912SOL     OW 3622   1.750   1.236   9.018
  912SOL    HW1 3623   1.837   1.197   9.013
  912SOL    HW2 3624   1.765   1.326   9.047
  913SOL     OW 3625   1.055   1.354   8.783
  913SOL    HW1 3626   0.980   1.322   8.833
  913SOL    HW2 3627   1.131   1.311   8.823
  914SOL     OW 3628   1.604   1.623   9.104
  914SOL    HW1 3629   1.588   1.650   9.014
  914SOL    HW2 3630   1.687   1.575   9.100
  915SOL     OW 3631   1.132   1.209   8.553
  915SOL    HW1 3632   1.070   1.243   8.616
  915SOL    HW2 3633   1.099   1.238   8.468
  916SOL     OW 3634   1.625   1.096   8.527
  916SOL    HW1 3635   1.619   1.160   8.598
  916SOL    HW2 3636   1.548   1.114   8.473
  917SOL     OW 3637   0.913   0.115   8.849
  917SOL    HW1 3638   0.932   0.088   8.759
  917SOL    HW2 3639   0.993   0.157   8.880
  918SOL     OW 3640   0.984   1.115   9.171
  918SOL    HW1 3641   0.893   1.131   9.194
  918SOL    HW2 3642   0.982   1.037   9.116
  919SOL     OW 3643   0.707   1.060   7.819
  919SOL    HW1 3644   0.694   1.044   7.912
  919SOL    HW2 3645   0.783   1.007   7.796
  920SOL     OW 3646   0.422   0.817   8.701
  920SOL    HW1 3647   0.491   0.823   8.767
  920SOL    HW2 3648   0.388   0.728   8.710
  921SOL     OW 3649   1.266   0.375   8.725
  921SOL    HW1 3650   1.300   0.453   8.769
  921SOL    HW2 3651   1.178   0.400   8.695
  922SOL     OW 3652   0.065   1.580   8.794
  922SOL    HW1 3653   0.071   1.635   8.716
  922SOL    HW2 3654   0.156   1.567   8.821
  923SOL     OW 3655   0.369   1.103   7.931
  923SOL    HW1 3656   0.367   1.182   7.877
  923SOL    HW2 3657   0.369   1.031   7.867
  924SOL     OW 3658   0.554   0.534   8.306
  924SOL    HW1 3659   0.568   0.593   8.232
  924SOL    HW2 3660   0.620   0.561   8.370
  925SOL     OW 3661   1.251   1.354   7.839
  925SOL    HW1 3662   1.291   1.440   7.830
  925SOL    HW2 3663   1.164   1.373   7.874
  926SOL     OW 3664   1.277   1.461   8.598
  926SOL    HW1 3665   1.334   1.461   8.675
  926SOL    HW2 3666   1.224   1.382   8.607
  927SOL     OW 3667   1.575   0.634   7.935
  927SOL    HW1 3668   1.535   0.690   8.001
  927SOL    HW2 3669   1.629   0.694   7.882
  928SOL     OW 3670   0.345   1.527   8.766
  928SOL    HW1 3671   0.336   1.477   8.686
  928SOL    HW2 3672   0.440   1.542   8.774
  929SOL     OW 3673   0.417   0.737   9.049
  929SOL    HW1 3674   0.480   0.783   8.992
  929SOL    HW2 3675   0.455   0.650   9.062
  930SOL     OW 3676   1.604   0.780   9.133
  930SOL    HW1 3677   1.518   0.822   9.126
  930SOL    HW2 3678   1.656   0.821   9.064
  931SOL     OW 3679   1.011   0.134   9.227
  931SOL    HW1 3680   1.064   0.205   9.192
  931SOL    HW2 3681   1.001   0.073   9.153
  932SOL     OW 3682   0.483   0.037   9.213
  932SOL    HW1 3683   0.491   0.047   9.118
  932SOL    HW2 3684   0.421   0.105   9.239
  933SOL     OW 3685   0.585   0.875   8.480
  933SOL    HW1 3686   0.617   0.965   8.482
  933SOL    HW2 3687   0.529   0.867   8.557
  934SOL     OW 3688   1.354   0.856   8.477
  934SOL    HW1 3689   1.270   0.847   8.431
  934SOL    HW2 3690   1.396   0.771   8.467
  935SOL     OW 3691   1.201   0.537   7.706
  935SOL    HW1 3692   1.210   0.458   7.760
  935SOL    HW2 3693   1.157   0.600   7.764
  936SOL     OW 3694   0.311   0.212   8.688
  936SOL    HW1 3695   0.268   0.248   8.766
  936SOL    HW2 3696   0.296   0.118   8.694
  937SOL     OW 3697   0.060   1.306   8.729
  937SOL    HW1 3698   0.091   1.264   8.809
  937SOL    HW2 3699   0.052   1.398   8.751
  938SOL     OW 3700   0.725   0.634   8.501
  938SOL    HW1 3701   0.799   0.619   8.443
  938SOL    HW2 3702   0.695   0.722   8.480
  939SOL     OW 3703   1.737   0.959   9.303
  939SOL    HW1 3704   1.691   0.895   9.248
  939SOL    HW2 3705   1.677   0.975   9.376
  940SOL     OW 3706   0.330   0.055   8.103
  940SOL    HW1 3707   0.301   0.146   8.103
  940SOL    HW2 3708   0.294   0.017   8.183
  941SOL     OW 3709   1.607   0.392   7.829
  941SOL    HW1 3710   1.566   0.324   7.883
  941SOL    HW2 3711   1.587   0.474   7.873
  942SOL     OW 3712   1.029   0.759   8.407
  942SOL    HW1 3713   1.023   0.776   8.501
  942SOL    HW2 3714   1.002   0.668   8.397
  943SOL     OW 3715   0.982   1.567   9.167
  943SOL    HW1 3716   0.967   1.610   9.083
  943SOL    HW2 3717   1.025   1.484   9.144
  944SOL     OW 3718   1.848   1.495   9.058
  944SOL    HW1 3719   1.879   1.516   8.970
  944SOL    HW2 3720   1.921   1.517   9.116
  945SOL     OW 3721   0.353   0.922   9.246
  945SOL    HW1 3722   0.431   0.942   9.298
  945SOL    HW2 3723   0.382   0.854   9.185
  946SOL     OW 3724   1.505   0.274   7.583
  946SOL    HW1 3725   1.431   0.215   7.595
  946SOL    HW2 3726   1.518   0.314   7.669
  947SOL     OW 3727   1.289   0.825   7.480
  947SOL    HW1 3728   1.331   0.739   7.483
  947SOL    HW2 3729   1.317   0.863   7.397
  948SOL     OW 3730   1.067   1.338   8.300
  948SOL    HW1 3731   1.069   1.263   8.240
  948SOL    HW2 3732   1.131   1.399   8.264
  949SOL     OW 3733   0.313   0.803   8.398
  949SOL    HW1 3734   0.407   0.819   8.392
  949SOL    HW2 3735   0.306   0.713   8.430
  950SOL     OW 3736   0.338   0.528   8.463
  950SOL    HW1 3737   0.297   0.444   8.445
  950SOL    HW2 3738   0.413   0.532   8.404
  951SOL     OW 3739   1.133   0.380   9.145
  951SOL    HW1 3740   1.085   0.435   9.207
  951SOL    HW2 3741   1.220   0.420   9.140
  952SOL     OW 3742   1.151   0.225   8.930
  952SOL    HW1 3743   1.142   0.280   9.008
  952SOL    HW2 3744   1.176   0.287   8.861
  953SOL     OW 3745   0.000   1.317   7.631
  953SOL    HW1 3746   3.906   1.334   7.634
  953SOL    HW2 3747   0.009   1.224   7.649
  954SOL     OW 3748   0.078   1.800   8.337
  954SOL    HW1 3749   0.084   1.705   8.339
  954SOL    HW2 3750   0.169   1.830   8.341
  955SOL     OW 3751   0.501   1.571   8.359
  955SOL    HW1 3752   0.570   1.632   8.384
  955SOL    HW2 3753   0.543   1.509   8.301
  956SOL     OW 3754   0.978   0.789   8.672
  956SOL    HW1 3755   1.035   0.769   8.747
  956SOL    HW2 3756   0.893   0.750   8.695
  957SOL     OW 3757   0.035   0.574   8.560
  957SOL    HW1 3758   0.097   0.522   8.509
  957SOL    HW2 3759   0.061   0.560   8.651
  958SOL     OW 3760   0.211   0.516   9.170
  958SOL    HW1 3761   0.258   0.477   9.096
  958SOL    HW2 3762   0.164   0.591   9.132
  959SOL     OW 3763   1.379   0.937   9.105
  959SOL    HW1 3764   1.400   1.030   9.102
  959SOL    HW2 3765   1.375   0.910   9.013
  960SOL     OW 3766   0.818   0.572   7.811
  960SOL    HW1 3767   0.824   0.496   7.753
  960SOL    HW2 3768   0.744   0.622   7.777
  961SOL     OW 3769   1.640   0.602   8.631
  961SOL    HW1 3770   1.631   0.541   8.705
  961SOL    HW2 3771   1.728   0.584   8.597
  962SOL     OW 3772   0.300   1.544   9.173
  962SOL    HW1 3773   0.252   1.613   9.218
  962SOL    HW2 3774   0.269   1.463   9.214
  963SOL     OW 3775   0.710   0.454   8.704
  963SOL    HW1 3776   0.660   0.376   8.679
  963SOL    HW2 3777   0.700   0.513   8.630
  964SOL     OW 3778   0.926   1.680   8.917
  964SOL    HW1 3779   0.900   1.642   8.833
  964SOL    HW2 3780   0.920   1.774   8.905
  965SOL     OW 3781   0.454   0.492   7.646
  965SOL    HW1 3782   0.518   0.561   7.663
  965SOL    HW2 3783   0.374   0.539   7.622
  966SOL     OW 3784   0.156   1.135   8.922
  966SOL    HW1 3785   0.157   1.084   9.004
  966SOL    HW2 3786   0.171   1.070   8.854
  967SOL     OW 3787   1.323   1.045   8.670
  967SOL    HW1 3788   1.347   0.982   8.602
  967SOL    HW2 3789   1.256   1.100   8.630
  968SOL     OW 3790   1.316   0.860   7.754
  968SOL    HW1 3791   1.242   0.829   7.806
  968SOL    HW2 3792   1.290   0.846   7.663
  969SOL     OW 3793   1.243   1.734   8.553
  969SOL    HW1 3794   1.327   1.755   8.513
  969SOL    HW2 3795   1.250   1.642   8.577
  970SOL     OW 3796   0.077   1.216   8.476
  970SOL    HW1 3797   0.083   1.242   8.568
  970SOL    HW2 3798   3.985   1.226   8.454
  971SOL     OW 3799   0.680   1.668   9.182
  971SOL    HW1 3800   0.621   1.743   9.174
  971SOL    HW2 3801   0.746   1.682   9.115
  972SOL     OW 3802   1.714   0.124   7.936
  972SOL    HW1 3803   1.792   0.134   7.882
  972SOL    HW2 3804   1.705   0.030   7.949
  973SOL     OW 3805   0.175   1.763   9.278
  973SOL    HW1 3806   0.118   1.712   9.336
  973SOL    HW2 3807   0.216   1.828   9.335
  974SOL     OW 3808   1.277   0.928   8.121
  974SOL    HW1 3809   1.351   0.868   8.130
  974SOL    HW2 3810   1.310   1.000   8.068
  975SOL     OW 3811   0.809   1.274   8.876
  975SOL    HW1 3812   0.781   1.315   8.958
  975SOL    HW2 3813   0.738   1.291   8.814
  976SOL     OW 3814   0.668   1.623   7.605
  976SOL    HW1 3815   0.683   1.635   7.511
  976SOL    HW2 3816   0.614   1.545   7.611
  977SOL     OW 3817   1.580   1.719   8.840
  977SOL    HW1 3818   1.648   1.713   8.773
  977SOL    HW2 3819   1.566   1.813   8.852
  978SOL     OW 3820   1.839   0.178   8.414
  978SOL    HW1 3821   1.872   0.111   8.354
  978SOL    HW2 3822   1.751   0.197   8.383
  979SOL     OW 3823   0.275   0.322   8.162
  979SOL    HW1 3824   0.189   0.357   8.136
  979SOL    HW2 3825   0.266   0.306   8.256
  980SOL     OW 3826   1.113   1.590   7.516
  980SOL    HW1 3827   1.172   1.514   7.520
  980SOL    HW2 3828   1.072   1.583   7.430
  981SOL     OW 3829   0.823   1.005   8.822
  981SOL    HW1 3830   0.867   1.000   8.737
  981SOL    HW2 3831   0.822   1.099   8.842
  982SOL     OW 3832   0.915   0.910   7.741
  982SOL    HW1 3833   0.975   0.942   7.673
  982SOL    HW2 3834   0.964   0.841   7.786
  983SOL     OW 3835   0.374   1.303   8.940
  983SOL    HW1 3836   0.359   1.383   8.889
  983SOL    HW2 3837   0.297   1.248   8.922
  984SOL     OW 3838   1.608   1.281   8.728
  984SOL    HW1 3839   1.669   1.269   8.800
  984SOL    HW2 3840   1.546   1.347   8.758
  985SOL     OW 3841   1.055   1.109   8.157
  985SOL    HW1 3842   0.984   1.057   8.194
  985SOL    HW2 3843   1.119   1.044   8.128
  986SOL     OW 3844   1.014   0.249   8.418
  986SOL    HW1 3845   1.004   0.199   8.337
  986SOL    HW2 3846   1.010   0.184   8.487
  987SOL     OW 3847   0.603   1.485   7.932
  987SOL    HW1 3848   0.652   1.438   7.864
  987SOL    HW2 3849   0.532   1.528   7.884
  988SOL     OW 3850   1.721   0.394   8.820
  988SOL    HW1 3851   1.793   0.456   8.824
  988SOL    HW2 3852   1.754   0.322   8.766
  989SOL     OW 3853   0.254   1.341   7.741
  989SOL    HW1 3854   0.160   1.348   7.722
  989SOL    HW2 3855   0.264   1.380   7.828
  990SOL     OW 3856   0.108   0.999   9.166
  990SOL    HW1 3857   0.048   0.991   9.240
  990SOL    HW2 3858   0.194   0.981   9.202
  991SOL     OW 3859   0.694   0.253   8.949
  991SOL    HW1 3860   0.762   0.200   8.908
  991SOL    HW2 3861   0.723   0.262   9.040
  992SOL     OW 3862   0.088   0.321   7.474
  992SOL    HW1 3863   3.993   0.319   7.467
  992SOL    HW2 3864   0.114   0.404   7.433
  993SOL     OW 3865   1.427   0.857   8.846
  993SOL    HW1 3866   1.378   0.918   8.791
  993SOL    HW2 3867   1.516   0.859   8.811
  994SOL     OW 3868   0.037   0.168   7.732
  994SOL    HW1 3869   0.037   0.231   7.660
  994SOL    HW2 3870   0.113   0.192   7.785
  995SOL     OW 3871   1.188   1.315   7.567
  995SOL    HW1 3872   1.094   1.298   7.567
  995SOL    HW2 3873   1.210   1.324   7.660
  996SOL     OW 3874   0.621   0.829   8.885
  996SOL    HW1 3875   0.677   0.904   8.869
  996SOL    HW2 3876   0.681   0.755   8.893
  997SOL     OW 3877   1.491   1.779   8.424
  997SOL    HW1 3878   1.515   1.854   8.370
  997SOL    HW2 3879   1.574   1.734   8.440
  998SOL     OW 3880   0.717   0.562   9.155
  998SOL    HW1 3881   0.762   0.624   9.213
  998SOL    HW2 3882   0.744   0.476   9.187
  999SOL     OW 3883   1.472   1.198   9.079
  999SOL    HW1 3884   1.461   1.211   9.173
  999SOL    HW2 3885   1.566   1.213   9.064
 1000SOL     OW 3886   0.378   1.743   9.005
 1000SOL    HW1 3887   0.291   1.781   8.992
 1000SOL    HW2 3888   0.362   1.661   9.051
 1001SOL     OW 3889   1.667   0.881   8.704
 1001SOL    HW1 3890   1.662   0.796   8.660
 1001SOL    HW2 3891   1.657   0.945   8.633
 1002SOL     OW 3892   1.223   0.336   7.891
 1002SOL    HW1 3893   1.290   0.269   7.884
 1002SOL    HW2 3894   1.242   0.381   7.973
 1003SOL     OW 3895   0.590   0.738   8.119
 1003SOL    HW1 3896   0.628   0.824   8.103
 1003SOL    HW2 3897   0.523   0.728   8.052
 1004SOL     OW 3898   1.751   0.383   9.091
 1004SOL    HW1 3899   1.733   0.389   8.997
 1004SOL    HW2 3900   1.694   0.313   9.122
 1005SOL     OW 3901   1.746   0.934   8.960
 1005SOL    HW1 3902   1.738   1.028   8.973
 1005SOL    HW2 3903   1.729   0.920   8.866
 1006SOL     OW 3904   0.858   1.366   7.484
 1006SOL    HW1 3905   0.827   1.400   7.567
 1006SOL    HW2 3906   0.882   1.444   7.433
 1007SOL     OW 3907   0.663   1.788   8.390
 1007SOL    HW1 3908   0.642   1.879   8.368
 1007SOL    HW2 3909   0.758   1.782   8.381
 1008SOL     OW 3910   0.868   0.968   8.302
 1008SOL    HW1 3911   0.919   0.896   8.340
 1008SOL    HW2 3912   0.832   1.014   8.377
 1009SOL     OW 3913   1.075   0.984   7.538
 1009SOL    HW1 3914   1.055   1.038   7.461
 1009SOL    HW2 3915   1.152   0.933   7.512
 1010SOL     OW 3916   1.860   1.530   8.279
 1010SOL    HW1 3917   1.771   1.551   8.252
 1010SOL    HW2 3918   1.854   1.512   8.373
 1011SOL     OW 3919   0.226   1.304   9.304
 1011SOL    HW1 3920   0.154   1.247   9.277
 1011SOL    HW2 3921   0.212   1.317   9.398
 1012SOL     OW 3922   0.119   1.279   8.170
 1012SOL    HW1 3923   0.136   1.227   8.249
 1012SOL    HW2 3924   0.105   1.214   8.101
 1013SOL     OW 3925   0.682   1.405   9.077
 1013SOL    HW1 3926   0.602   1.362   9.108
 1013SOL    HW2 3927   0.677   1.493   9.115
 1014SOL     OW 3928   1.811   0.183   8.686
 1014SOL    HW1 3929   1.814   0.089   8.702
 1014SOL    HW2 3930   1.826   0.193   8.592
 1015SOL     OW 3931   0.444   0.438   7.979
 1015SOL    HW1 3932   0.461   0.362   7.923
 1015SOL    HW2 3933   0.389   0.403   8.049
 1016SOL     OW 3934   1.700   1.503   8.553
 1016SOL    HW1 3935   1.621   1.477   8.505
 1016SOL    HW2 3936   1.717   1.429   8.612
 1017SOL     OW 3937   0.333   0.557   8.741
 1017SOL    HW1 3938   0.389   0.501   8.794
 1017SOL    HW2 3939   0.348   0.529   8.651
 1018SOL     OW 3940   0.830   1.576   8.123
 1018SOL    HW1 3941   0.820   1.633   8.047
 1018SOL    HW2 3942   0.753   1.520   8.121
 1019SOL     OW 3943   1.461   0.254   8.558
 1019SOL    HW1 3944   1.478   0.167   8.595
 1019SOL    HW2 3945   1.405   0.296   8.624
 1020SOL     OW 3946   1.003   0.028   8.594
 1020SOL    HW1 3947   0.923   3.991   8.558
 1020SOL    HW2 3948   1.063   3.953   8.603
 1021SOL     OW 3949   0.770   1.332   7.768
 1021SOL    HW1 3950   0.740   1.241   7.772
 1021SOL    HW2 3951   0.855   1.331   7.812
 1022SOL     OW 3952   0.621   1.556   8.734
 1022SOL    HW1 3953   0.622   1.638   8.783
 1022SOL    HW2 3954   0.708   1.549   8.696
 1023SOL     OW 3955   1.311   0.073   7.614
 1023SOL    HW1 3956   1.321   3.995   7.560
 1023SOL    HW2 3957   1.226   0.063   7.656
 1024SOL     OW 3958   1.281   0.456   8.133
 1024SOL    HW1 3959   1.235   0.540   8.128
 1024SOL    HW2 3960   1.284   0.437   8.227
 1025SOL     OW 3961   1.588   0.210   8.316
 1025SOL    HW1 3962   1.539   0.234   8.394
 1025SOL    HW2 3963   1.588   0.289   8.262
 1026SOL     OW 3964   0.047   1.049   7.688
 1026SOL    HW1 3965   0.141   1.033   7.679
 1026SOL    HW2 3966   0.012   0.966   7.720
 1027SOL     OW 3967   0.865   1.643   7.812
 1027SOL    HW1 3968   0.801   1.632   7.741
 1027SOL    HW2 3969   0.840   1.725   7.855
 1028SOL     OW 3970   0.232   0.628   9.427
 1028SOL    HW1 3971   0.139   0.632   9.448
 1028SOL    HW2 3972   0.235   0.598   9.336
 1029SOL     OW 3973   0.224   0.289  10.293
 1029SOL    HW1 3974   0.246   0.250  10.377
 1029SOL    HW2 3975   0.129   0.278  10.286
 1030SOL     OW 3976   0.019   0.385   9.946
 1030SOL    HW1 3977   3.928   0.399   9.974
 1030SOL    HW2 3978   0.025   0.291   9.931
 1031SOL     OW 3979   0.581   1.289  10.501
 1031SOL    HW1 3980   0.494   1.291  10.460
 1031SOL    HW2 3981   0.594   1.378  10.533
 1032SOL     OW 3982   1.543   1.496  10.019
 1032SOL    HW1 3983   1.515   1.476  10.108
 1032SOL    HW2 3984   1.463   1.490   9.967
 1033SOL     OW 3985   1.133   0.698  10.007
 1033SOL    HW1 3986   1.180   0.780   9.995
 1033SOL    HW2 3987   1.085   0.711  10.089
 1034SOL     OW 3988   1.767   0.619   9.535
 1034SOL    HW1 3989   1.745   0.611   9.442
 1034SOL    HW2 3990   1.752   0.531   9.570
 1035SOL     OW 3991   0.753   1.139  10.352
 1035SOL    HW1 3992   0.690   1.175  10.414
 1035SOL    HW2 3993   0.789   1.216  10.307
 1036SOL     OW 3994   0.871   0.770  11.134
 1036SOL    HW1 3995   0.861   0.841  11.197
 1036SOL    HW2 3996   0.893   0.814  11.051
 1037SOL     OW 3997   0.685   1.002   9.956
 1037SOL    HW1 3998   0.751   0.991  10.024
 1037SOL    HW2 3999   0.616   1.054   9.997
 1038SOL     OW 4000   0.711   1.149  11.126
 1038SOL    HW1 4001   0.759   1.227  11.155
 1038SOL    HW2 4002   0.630   1.183  11.088
 1039SOL     OW 4003   0.351   1.401  10.389
 1039SOL    HW1 4004   0.270   1.380  10.342
 1039SOL    HW2 4005   0.399   1.459  10.329
 1040SOL     OW 4006   1.450   1.487  10.669
 1040SOL    HW1 4007   1.495   1.571  10.673
 1040SOL    HW2 4008   1.384   1.492  10.737
 1041SOL     OW 4009   0.457   0.408  10.806
 1041SOL    HW1 4010   0.539   0.358  10.804
 1041SOL    HW2 4011   0.388   0.341  10.808
 1042SOL     OW 4012   1.612   0.451  10.045
 1042SOL    HW1 4013   1.542   0.482   9.987
 1042SOL    HW2 4014   1.630   0.524  10.104
 1043SOL     OW 4015   0.220   1.719   9.767
 1043SOL    HW1 4016   0.240   1.793   9.825
 1043SOL    HW2 4017   0.297   1.711   9.711
 1044SOL     OW 4018   1.137   1.342  11.004
 1044SOL    HW1 4019   1.178   1.336  11.090
 1044SOL    HW2 4020   1.085   1.262  10.996
 1045SOL     OW 4021   0.250   1.450   9.850
 1045SOL    HW1 4022   0.215   1.538   9.835
 1045SOL    HW2 4023   0.182   1.406   9.901
 1046SOL     OW 4024   0.247   1.066  10.194
 1046SOL    HW1 4025   0.267   0.981  10.233
 1046SOL    HW2 4026   0.195   1.111  10.260
 1047SOL     OW 4027   0.610   1.792  10.737
 1047SOL    HW1 4028   0.528   1.774  10.782
 1047SOL    HW2 4029   0.633   1.882  10.763
 1048SOL     OW 4030   0.577   0.986   9.449
 1048SOL    HW1 4031   0.625   1.030   9.379
 1048SOL    HW2 4032   0.618   1.016   9.530
 1049SOL     OW 4033   1.581   0.140  10.766
 1049SOL    HW1 4034   1.611   0.213  10.711
 1049SOL    HW2 4035   1.548   0.182  10.846
 1050SOL     OW 4036   0.140   0.652   9.879
 1050SOL    HW1 4037   0.098   0.566   9.884
 1050SOL    HW2 4038   0.102   0.701   9.952
 1051SOL     OW 4039   0.044   1.590   9.448
 1051SOL    HW1 4040   0.037   1.497   9.473
 1051SOL    HW2 4041   3.961   1.628   9.475
 1052SOL     OW 4042   1.685   0.913   9.950
 1052SOL    HW1 4043   1.772   0.877   9.934
 1052SOL    HW2 4044   1.667   0.968   9.873
 1053SOL     OW 4045   1.649   1.106   9.739
 1053SOL    HW1 4046   1.735   1.108   9.699
 1053SOL    HW2 4047   1.655   1.166   9.813
 1054SOL     OW 4048   0.141   0.756  10.899
 1054SOL    HW1 4049   0.236   0.751  10.894
 1054SOL    HW2 4050   0.123   0.844  10.931
 1055SOL     OW 4051   0.613   1.387  10.046
 1055SOL    HW1 4052   0.567   1.303  10.055
 1055SOL    HW2 4053   0.598   1.413   9.956
 1056SOL     OW 4054   1.284   1.234  10.734
 1056SOL    HW1 4055   1.317   1.168  10.673
 1056SOL    HW2 4056   1.344   1.230  10.809
 1057SOL     OW 4057   0.820   0.004   9.826
 1057SOL    HW1 4058   0.865   0.084   9.802
 1057SOL    HW2 4059   0.727   0.027   9.826
 1058SOL     OW 4060   0.184   0.950  10.588
 1058SOL    HW1 4061   0.272   0.915  10.576
 1058SOL    HW2 4062   0.132   0.908  10.520
 1059SOL     OW 4063   1.531   0.996   9.510
 1059SOL    HW1 4064   1.462   0.939   9.543
 1059SOL    HW2 4065   1.574   1.030   9.589
 1060SOL     OW 4066   1.186   1.809  10.934
 1060SOL    HW1 4067   1.194   1.869  10.859
 1060SOL    HW2 4068   1.202   1.722  10.897
 1061SOL     OW 4069   0.345   0.251  11.150
 1061SOL    HW1 4070   0.388   0.334  11.131
 1061SOL    HW2 4071   0.254   0.274  11.167
 1062SOL     OW 4072   1.468   1.420  10.268
 1062SOL    HW1 4073   1.399   1.435  10.332
 1062SOL    HW2 4074   1.457   1.328  10.242
 1063SOL     OW 4075   1.580   1.715   9.867
 1063SOL    HW1 4076   1.584   1.673   9.781
 1063SOL    HW2 4077   1.581   1.643   9.929
 1064SOL     OW 4078   0.596   0.717   9.576
 1064SOL    HW1 4079   0.601   0.801   9.531
 1064SOL    HW2 4080   0.533   0.731   9.647
 1065SOL     OW 4081   1.274   0.369  10.251
 1065SOL    HW1 4082   1.187   0.330  10.258
 1065SOL    HW2 4083   1.332   0.307  10.297
 1066SOL     OW 4084   1.565   1.648   9.605
 1066SOL    HW1 4085   1.643   1.701   9.588
 1066SOL    HW2 4086   1.530   1.629   9.518
 1067SOL     OW 4087   0.794   0.616  10.763
 1067SOL    HW1 4088   0.765   0.590  10.851
 1067SOL    HW2 4089   0.756   0.550  10.705
 1068SOL     OW 4090   1.392   0.476  10.987
 1068SOL    HW1 4091   1.398   0.521  11.071
 1068SOL    HW2 4092   1.450   0.400  10.996
 1069SOL     OW 4093   0.952   0.887  10.894
 1069SOL    HW1 4094   1.007   0.818  10.857
 1069SOL    HW2 4095   0.904   0.922  10.820
 1070SOL     OW 4096   0.992   0.403  10.548
 1070SOL    HW1 4097   0.907   0.423  10.586
 1070SOL    HW2 4098   0.972   0.374  10.459
 1071SOL     OW 4099   1.052   0.700   9.735
 1071SOL    HW1 4100   1.069   0.692   9.829
 1071SOL    HW2 4101   0.970   0.653   9.722
 1072SOL     OW 4102   0.081   0.829  10.100
 1072SOL    HW1 4103   0.154   0.795  10.153
 1072SOL    HW2 4104   0.102   0.921  10.086
 1073SOL     OW 4105   0.130   1.863  10.887
 1073SOL    HW1 4106   0.138   1.828  10.976
 1073SOL    HW2 4107   0.038   1.851  10.865
 1074SOL     OW 4108   0.894   0.352   9.508
 1074SOL    HW1 4109   0.936   0.412   9.446
 1074SOL    HW2 4110   0.893   0.268   9.463
 1075SOL     OW 4111   1.708   0.575  11.139
 1075SOL    HW1 4112   1.670   0.648  11.091
 1075SOL    HW2 4113   1.732   0.512  11.072
 1076SOL     OW 4114   1.378   1.141   9.850
 1076SOL    HW1 4115   1.459   1.132   9.799
 1076SOL    HW2 4116   1.324   1.201   9.798
 1077SOL     OW 4117   0.561   0.195  10.191
 1077SOL    HW1 4118   0.566   0.219  10.283
 1077SOL    HW2 4119   0.547   0.278  10.145
 1078SOL     OW 4120   0.998   1.440   9.779
 1078SOL    HW1 4121   0.967   1.517   9.730
 1078SOL    HW2 4122   0.984   1.463   9.871
 1079SOL     OW 4123   0.365   1.820  10.180
 1079SOL    HW1 4124   0.428   1.748  10.189
 1079SOL    HW2 4125   0.416   1.899  10.196
 1080SOL     OW 4126   1.801   1.047  10.182
 1080SOL    HW1 4127   1.747   1.043  10.104
 1080SOL    HW2 4128   1.738   1.057  10.254
 1081SOL     OW 4129   1.225   1.538  10.824
 1081SOL    HW1 4130   1.212   1.466  10.886
 1081SOL    HW2 4131   1.160   1.524  10.756
 1082SOL     OW 4132   0.310   0.954   9.552
 1082SOL    HW1 4133   0.394   0.976   9.511
 1082SOL    HW2 4134   0.298   0.861   9.532
 1083SOL     OW 4135   1.478   0.747  10.039
 1083SOL    HW1 4136   1.475   0.706  10.126
 1083SOL    HW2 4137   1.557   0.802  10.042
 1084SOL     OW 4138   0.468   1.261  11.047
 1084SOL    HW1 4139   0.442   1.269  10.956
 1084SOL    HW2 4140   0.386   1.264  11.096
 1085SOL     OW 4141   1.122   1.778   9.539
 1085SOL    HW1 4142   1.049   1.738   9.585
 1085SOL    HW2 4143   1.145   1.715   9.471
 1086SOL     OW 4144   0.201   0.294  10.810
 1086SOL    HW1 4145   0.107   0.314  10.809
 1086SOL    HW2 4146   0.209   0.222  10.872
 1087SOL     OW 4147   1.626   1.381   9.398
 1087SOL    HW1 4148   1.584   1.464   9.377
 1087SOL    HW2 4149   1.560   1.315   9.379
 1088SOL     OW 4150   0.466   1.739   9.626
 1088SOL    HW1 4151   0.509   1.795   9.690
 1088SOL    HW2 4152   0.537   1.703   9.573
 1089SOL     OW 4153   1.441   0.166   9.715
 1089SOL    HW1 4154   1.394   0.099   9.666
 1089SOL    HW2 4155   1.512   0.119   9.759
 1090SOL     OW 4156   0.252   1.791  10.541
 1090SOL    HW1 4157   0.298   1.725  10.594
 1090SOL    HW2 4158   0.250   1.753  10.453
 1091SOL     OW 4159   0.938   1.699  10.208
 1091SOL    HW1 4160   1.017   1.649  10.229
 1091SOL    HW2 4161   0.895   1.649  10.138
 1092SOL     OW 4162   0.397   0.694   9.781
 1092SOL    HW1 4163   0.423   0.604   9.796
 1092SOL    HW2 4164   0.305   0.698   9.806
 1093SOL     OW 4165   1.529   0.229  11.037
 1093SOL    HW1 4166   1.525   0.254  11.129
 1093SOL    HW2 4167   1.511   0.135  11.037
 1094SOL     OW 4168   0.645   0.130   9.413
 1094SOL    HW1 4169   0.668   0.046   9.453
 1094SOL    HW2 4170   0.584   0.107   9.343
 1095SOL     OW 4171   0.776   0.284  11.077
 1095SOL    HW1 4172   0.850   0.223  11.079
 1095SOL    HW2 4173   0.720   0.255  11.149
 1096SOL     OW 4174   0.876   1.522  10.504
 1096SOL    HW1 4175   0.860   1.485  10.417
 1096SOL    HW2 4176   0.945   1.468  10.541
 1097SOL     OW 4177   1.339   0.587  10.741
 1097SOL    HW1 4178   1.370   0.558  10.827
 1097SOL    HW2 4179   1.375   0.676  10.731
 1098SOL     OW 4180   0.816   1.392  10.252
 1098SOL    HW1 4181   0.901   1.381  10.209
 1098SOL    HW2 4182   0.754   1.395  10.179
 1099SOL     OW 4183   0.930   0.512  10.210
 1099SOL    HW1 4184   0.906   0.504  10.118
 1099SOL    HW2 4185   0.956   0.423  10.236
 1100SOL     OW 4186   0.546   0.056   9.797
 1100SOL    HW1 4187   0.472   0.063   9.858
 1100SOL    HW2 4188   0.548   0.140   9.751
 1101SOL     OW 4189   1.428   1.198   9.351
 1101SOL    HW1 4190   1.458   1.123   9.401
 1101SOL    HW2 4191   1.342   1.220   9.388
 1102SOL     OW 4192   0.346   0.037   9.508
 1102SOL    HW1 4193   0.360   0.086   9.428
 1102SOL    HW2 4194   0.431   0.037   9.552
 1103SOL     OW 4195   0.942   0.249   9.771
 1103SOL    HW1 4196   0.916   0.290   9.688
 1103SOL    HW2 4197   1.038   0.254   9.770
 1104SOL     OW 4198   1.079   0.684  10.768
 1104SOL    HW1 4199   1.010   0.618  10.775
 1104SOL    HW2 4200   1.160   0.633  10.763
 1105SOL     OW 4201   1.223   1.570  10.103
 1105SOL    HW1 4202   1.235   1.637  10.037
 1105SOL    HW2 4203   1.291   1.587  10.168
 1106SOL     OW 4204   0.466   1.151  10.045
 1106SOL    HW1 4205   0.395   1.126  10.104
 1106SOL    HW2 4206   0.431   1.135   9.958
 1107SOL     OW 4207   1.260   1.790   9.922
 1107SOL    HW1 4208   1.311   1.850   9.868
 1107SOL    HW2 4209   1.195   1.846   9.965
 1108SOL     OW 4210   1.022   0.543   9.339
 1108SOL    HW1 4211   0.979   0.626   9.319
 1108SOL    HW2 4212   1.086   0.564   9.407
 1109SOL     OW 4213   0.081   0.573  10.703
 1109SOL    HW1 4214   0.170   0.555  10.673
 1109SOL    HW2 4215   0.090   0.645  10.766
 1110SOL     OW 4216   0.572   0.231  10.469
 1110SOL    HW1 4217   0.594   0.138  10.478
 1110SOL    HW2 4218   0.481   0.237  10.499
 1111SOL     OW 4219   0.871   0.461   9.948
 1111SOL    HW1 4220   0.820   0.514   9.887
 1111SOL    HW2 4221   0.891   0.381   9.901
 1112SOL     OW 4222   0.996   0.039  10.091
 1112SOL    HW1 4223   0.960   0.069  10.007
 1112SOL    HW2 4224   1.007   3.945  10.080
 1113SOL     OW 4225   1.439   1.164  10.169
 1113SOL    HW1 4226   1.369   1.099  10.165
 1113SOL    HW2 4227   1.468   1.173  10.078
 1114SOL     OW 4228   1.465   0.607  10.284
 1114SOL    HW1 4229   1.410   0.528  10.289
 1114SOL    HW2 4230   1.524   0.600  10.359
 1115SOL     OW 4231   1.845   0.818   9.696
 1115SOL    HW1 4232   1.901   0.766   9.754
 1115SOL    HW2 4233   1.816   0.757   9.629
 1116SOL     OW 4234   0.487   1.421   9.469
 1116SOL    HW1 4235   0.412   1.390   9.519
 1116SOL    HW2 4236   0.473   1.388   9.381
 1117SOL     OW 4237   1.672   1.258   9.959
 1117SOL    HW1 4238   1.767   1.259   9.971
 1117SOL    HW2 4239   1.645   1.347   9.982
 1118SOL     OW 4240   1.395   0.576   9.379
 1118SOL    HW1 4241   1.332   0.556   9.448
 1118SOL    HW2 4242   1.480   0.557   9.418
 1119SOL     OW 4243   0.557   0.271   9.628
 1119SOL    HW1 4244   0.605   0.231   9.555
 1119SOL    HW2 4245   0.528   0.355   9.594
 1120SOL     OW 4246   1.749   1.236  10.880
 1120SOL    HW1 4247   1.837   1.198  10.875
 1120SOL    HW2 4248   1.765   1.326  10.910
 1121SOL     OW 4249   1.056   1.354  10.644
 1121SOL    HW1 4250   0.981   1.322  10.694
 1121SOL    HW2 4251   1.131   1.311  10.685
 1122SOL     OW 4252   1.604   1.625  10.964
 1122SOL    HW1 4253   1.587   1.651  10.874
 1122SOL    HW2 4254   1.687   1.578  10.961
 1123SOL     OW 4255   1.132   1.207  10.414
 1123SOL    HW1 4256   1.071   1.243  10.478
 1123SOL    HW2 4257   1.100   1.239  10.330
 1124SOL     OW 4258   1.625   1.096  10.386
 1124SOL    HW1 4259   1.620   1.159  10.458
 1124SOL    HW2 4260   1.549   1.115  10.332
 1125SOL     OW 4261   0.913   0.115  10.711
 1125SOL    HW1 4262   0.932   0.089  10.621
 1125SOL    HW2 4263   0.993   0.157  10.742
 1126SOL     OW 4264   0.984   1.115  11.033
 1126SOL    HW1 4265   0.893   1.131  11.056
 1126SOL    HW2 4266   0.982   1.037  10.978
 1127SOL     OW 4267   0.708   1.061   9.681
 1127SOL    HW1 4268   0.694   1.044   9.774
 1127SOL    HW2 4269   0.784   1.008   9.657
 1128SOL     OW 4270   0.422   0.817  10.563
 1128SOL    HW1 4271   0.491   0.823  10.629
 1128SOL    HW2 4272   0.388   0.728  10.572
 1129SOL     OW 4273   1.266   0.375  10.587
 1129SOL    HW1 4274   1.300   0.453  10.631
 1129SOL    HW2 4275   1.178   0.400  10.557
 1130SOL     OW 4276   0.065   1.580  10.656
 1130SOL    HW1 4277   0.071   1.635  10.578
 1130SOL    HW2 4278   0.156   1.567  10.683
 1131SOL     OW 4279   0.370   1.103   9.792
 1131SOL    HW1 4280   0.365   1.182   9.738
 1131SOL    HW2 4281   0.370   1.031   9.730
 1132SOL     OW 4282   0.554   0.534  10.168
 1132SOL    HW1 4283   0.568   0.593  10.094
 1132SOL    HW2 4284   0.620   0.561  10.232
 1133SOL     OW 4285   1.239   1.337   9.697
 1133SOL    HW1 4286   1.292   1.411   9.725
 1133SOL    HW2 4287   1.151   1.357   9.730
 1134SOL     OW 4288   1.279   1.460  10.458
 1134SOL    HW1 4289   1.336   1.461  10.535
 1134SOL    HW2 4290   1.225   1.382  10.468
 1135SOL     OW 4291   1.575   0.634   9.796
 1135SOL    HW1 4292   1.532   0.690   9.862
 1135SOL    HW2 4293   1.623   0.695   9.740
 1136SOL     OW 4294   0.345   1.527  10.628
 1136SOL    HW1 4295   0.335   1.477  10.548
 1136SOL    HW2 4296   0.440   1.542  10.636
 1137SOL     OW 4297   0.417   0.737  10.911
 1137SOL    HW1 4298   0.480   0.783  10.854
 1137SOL    HW2 4299   0.455   0.650  10.924
 1138SOL     OW 4300   1.604   0.780  10.995
 1138SOL    HW1 4301   1.518   0.822  10.988
 1138SOL    HW2 4302   1.656   0.821  10.926
 1139SOL     OW 4303   1.011   0.134  11.089
 1139SOL    HW1 4304   1.064   0.205  11.054
 1139SOL    HW2 4305   1.001   0.073  11.015
 1140SOL     OW 4306   0.483   0.036  11.075
 1140SOL    HW1 4307   0.490   0.047  10.980
 1140SOL    HW2 4308   0.421   0.105  11.101
 1141SOL     OW 4309   0.585   0.875  10.341
 1141SOL    HW1 4310   0.617   0.965  10.344
 1141SOL    HW2 4311   0.529   0.867  10.419
 1142SOL     OW 4312   1.353   0.858  10.337
 1142SOL    HW1 4313   1.269   0.846  10.293
 1142SOL    HW2 4314   1.397   0.773  10.329
 1143SOL     OW 4315   1.200   0.537   9.568
 1143SOL    HW1 4316   1.209   0.458   9.621
 1143SOL    HW2 4317   1.157   0.600   9.626
 1144SOL     OW 4318   0.311   0.212  10.550
 1144SOL    HW1 4319   0.268   0.248  10.628
 1144SOL    HW2 4320   0.296   0.118  10.556
 1145SOL     OW 4321   0.061   1.306  10.590
 1145SOL    HW1 4322   0.091   1.264  10.671
 1145SOL    HW2 4323   0.052   1.398  10.613
 1146SOL     OW 4324   0.724   0.634  10.363
 1146SOL    HW1 4325   0.799   0.619  10.305
 1146SOL    HW2 4326   0.695   0.722  10.342
 1147SOL     OW 4327   1.737   0.959  11.164
 1147SOL    HW1 4328   1.691   0.895  11.110
 1147SOL    HW2 4329   1.678   0.975  11.238
 1148SOL     OW 4330   0.330   0.055   9.965
 1148SOL    HW1 4331   0.301   0.146   9.965
 1148SOL    HW2 4332   0.293   0.017  10.045
 1149SOL     OW 4333   1.607   0.392   9.690
 1149SOL    HW1 4334   1.567   0.324   9.745
 1149SOL    HW2 4335   1.587   0.474   9.736
 1150SOL     OW 4336   1.029   0.759  10.269
 1150SOL    HW1 4337   1.023   0.776  10.363
 1150SOL    HW2 4338   1.002   0.668  10.259
 1151SOL     OW 4339   0.982   1.567  11.029
 1151SOL    HW1 4340   0.967   1.610  10.945
 1151SOL    HW2 4341   1.025   1.484  11.006
 1152SOL     OW 4342   1.849   1.496  10.918
 1152SOL    HW1 4343   1.878   1.516  10.829
 1152SOL    HW2 4344   1.924   1.517  10.973
 1153SOL     OW 4345   0.353   0.922  11.108
 1153SOL    HW1 4346   0.431   0.942  11.160
 1153SOL    HW2 4347   0.382   0.854  11.047
 1154SOL     OW 4348   1.505   0.275   9.445
 1154SOL    HW1 4349   1.431   0.215   9.457
 1154SOL    HW2 4350   1.518   0.314   9.531
 1155SOL     OW 4351   1.288   0.827   9.338
 1155SOL    HW1 4352   1.331   0.741   9.342
 1155SOL    HW2 4353   1.320   0.866   9.257
 1156SOL     OW 4354   1.066   1.337  10.165
 1156SOL    HW1 4355   1.070   1.265  10.103
 1156SOL    HW2 4356   1.127   1.403  10.130
 1157SOL     OW 4357   0.313   0.803  10.260
 1157SOL    HW1 4358   0.407   0.819  10.254
 1157SOL    HW2 4359   0.306   0.713  10.292
 1158SOL     OW 4360   0.338   0.528  10.325
 1158SOL    HW1 4361   0.297   0.444  10.307
 1158SOL    HW2 4362   0.413   0.532  10.266
 1159SOL     OW 4363   1.133   0.380  11.008
 1159SOL    HW1 4364   1.085   0.435  11.069
 1159SOL    HW2 4365   1.220   0.420  11.002
 1160SOL     OW 4366   1.151   0.225  10.792
 1160SOL    HW1 4367   1.142   0.280  10.870
 1160SOL    HW2 4368   1.176   0.287  10.723
 1161SOL     OW 4369   0.000   1.317   9.492
 1161SOL    HW1 4370   3.906   1.333   9.496
 1161SOL    HW2 4371   0.009   1.224   9.511
 1162SOL     OW 4372   0.078   1.800  10.199
 1162SOL    HW1 4373   0.083   1.705  10.202
 1162SOL    HW2 4374   0.169   1.829  10.202
 1163SOL     OW 4375   0.500   1.571  10.220
 1163SOL    HW1 4376   0.570   1.632  10.246
 1163SOL    HW2 4377   0.543   1.508  10.162
 1164SOL     OW 4378   0.978   0.789  10.534
 1164SOL    HW1 4379   1.035   0.769  10.609
 1164SOL    HW2 4380   0.893   0.751  10.557
 1165SOL     OW 4381   0.035   0.574  10.422
 1165SOL    HW1 4382   0.097   0.522  10.372
 1165SOL    HW2 4383   0.061   0.560  10.513
 1166SOL     OW 4384   0.211   0.516  11.032
 1166SOL    HW1 4385   0.258   0.477  10.958
 1166SOL    HW2 4386   0.164   0.591  10.994
 1167SOL     OW 4387   1.379   0.937  10.967
 1167SOL    HW1 4388   1.400   1.030  10.964
 1167SOL    HW2 4389   1.375   0.910  10.875
 1168SOL     OW 4390   0.818   0.572   9.672
 1168SOL    HW1 4391   0.825   0.496   9.615
 1168SOL    HW2 4392   0.743   0.621   9.639
 1169SOL     OW 4393   1.640   0.602  10.493
 1169SOL    HW1 4394   1.631   0.541  10.567
 1169SOL    HW2 4395   1.728   0.584  10.459
 1170SOL     OW 4396   0.300   1.544  11.035
 1170SOL    HW1 4397   0.252   1.613  11.080
 1170SOL    HW2 4398   0.269   1.463  11.076
 1171SOL     OW 4399   0.710   0.454  10.566
 1171SOL    HW1 4400   0.660   0.376  10.541
 1171SOL    HW2 4401   0.700   0.513  10.491
 1172SOL     OW 4402   0.925   1.679  10.780
 1172SOL    HW1 4403   0.900   1.642  10.695
 1172SOL    HW2 4404   0.919   1.774  10.766
 1173SOL     OW 4405   0.453   0.492   9.508
 1173SOL    HW1 4406   0.518   0.561   9.525
 1173SOL    HW2 4407   0.374   0.539   9.483
 1174SOL     OW 4408   0.156   1.135  10.784
 1174SOL    HW1 4409   0.157   1.084  10.866
 1174SOL    HW2 4410   0.171   1.070  10.716
 1175SOL     OW 4411   1.323   1.045  10.532
 1175SOL    HW1 4412   1.346   0.982  10.464
 1175SOL    HW2 4413   1.255   1.100  10.492
 1176SOL     OW 4414   1.314   0.856   9.615
 1176SOL    HW1 4415   1.239   0.827   9.666
 1176SOL    HW2 4416   1.287   0.843   9.524
 1177SOL     OW 4417   1.243   1.735  10.419
 1177SOL    HW1 4418   1.326   1.756  10.377
 1177SOL    HW2 4419   1.249   1.642  10.438
 1178SOL     OW 4420   0.077   1.217  10.337
 1178SOL    HW1 4421   0.084   1.243  10.429
 1178SOL    HW2 4422   3.985   1.227  10.316
 1179SOL     OW 4423   0.680   1.668  11.044
 1179SOL    HW1 4424   0.621   1.743  11.036
 1179SOL    HW2 4425   0.746   1.681  10.977
 1180SOL     OW 4426   1.714   0.124   9.798
 1180SOL    HW1 4427   1.792   0.134   9.744
 1180SOL    HW2 4428   1.705   0.030   9.811
 1181SOL     OW 4429   1.362   1.558   9.783
 1181SOL    HW1 4430   1.426   1.588   9.718
 1181SOL    HW2 4431   1.329   1.638   9.823
 1182SOL     OW 4432   0.175   1.763  11.140
 1182SOL    HW1 4433   0.118   1.712  11.198
 1182SOL    HW2 4434   0.216   1.828  11.197
 1183SOL     OW 4435   1.277   0.928   9.981
 1183SOL    HW1 4436   1.351   0.868   9.992
 1183SOL    HW2 4437   1.312   0.999   9.928
 1184SOL     OW 4438   0.810   1.274  10.738
 1184SOL    HW1 4439   0.781   1.315  10.820
 1184SOL    HW2 4440   0.739   1.291  10.676
 1185SOL     OW 4441   0.670   1.622   9.465
 1185SOL    HW1 4442   0.681   1.635   9.371
 1185SOL    HW2 4443   0.615   1.545   9.473
 1186SOL     OW 4444   1.579   1.721  10.695
 1186SOL    HW1 4445   1.646   1.717  10.627
 1186SOL    HW2 4446   1.564   1.814  10.710
 1187SOL     OW 4447   1.839   0.177  10.276
 1187SOL    HW1 4448   1.872   0.111  10.216
 1187SOL    HW2 4449   1.751   0.197  10.245
 1188SOL     OW 4450   0.275   0.322  10.024
 1188SOL    HW1 4451   0.189   0.357   9.998
 1188SOL    HW2 4452   0.266   0.306  10.118
 1189SOL     OW 4453   1.207   1.604   9.341
 1189SOL    HW1 4454   1.196   1.513   9.368
 1189SOL    HW2 4455   1.141   1.616   9.273
 1190SOL     OW 4456   0.823   1.005  10.683
 1190SOL    HW1 4457   0.867   1.000  10.598
 1190SOL    HW2 4458   0.822   1.099  10.704
 1191SOL     OW 4459   0.915   0.910   9.600
 1191SOL    HW1 4460   0.976   0.943   9.534
 1191SOL    HW2 4461   0.964   0.842   9.646
 1192SOL     OW 4462   1.485   1.623   9.348
 1192SOL    HW1 4463   1.391   1.618   9.331
 1192SOL    HW2 4464   1.524   1.631   9.261
 1193SOL     OW 4465   0.374   1.303  10.802
 1193SOL    HW1 4466   0.359   1.383  10.751
 1193SOL    HW2 4467   0.297   1.248  10.784
 1194SOL     OW 4468   1.608   1.280  10.588
 1194SOL    HW1 4469   1.670   1.269  10.660
 1194SOL    HW2 4470   1.546   1.346  10.619
 1195SOL     OW 4471   1.056   1.109  10.018
 1195SOL    HW1 4472   0.984   1.058  10.056
 1195SOL    HW2 4473   1.120   1.044   9.989
 1196SOL     OW 4474   1.014   0.249  10.280
 1196SOL    HW1 4475   1.004   0.199  10.199
 1196SOL    HW2 4476   1.010   0.184  10.349
 1197SOL     OW 4477   0.606   1.488   9.792
 1197SOL    HW1 4478   0.652   1.438   9.724
 1197SOL    HW2 4479   0.532   1.528   9.746
 1198SOL     OW 4480   1.720   0.394  10.682
 1198SOL    HW1 4481   1.793   0.456  10.686
 1198SOL    HW2 4482   1.754   0.322  10.628
 1199SOL     OW 4483   0.254   1.341   9.603
 1199SOL    HW1 4484   0.160   1.348   9.584
 1199SOL    HW2 4485   0.264   1.380   9.690
 1200SOL     OW 4486   0.108   0.999  11.028
 1200SOL    HW1 4487   0.048   0.991  11.102
 1200SOL    HW2 4488   0.194   0.981  11.065
 1201SOL     OW 4489   0.694   0.253  10.811
 1201SOL    HW1 4490   0.762   0.200  10.770
 1201SOL    HW2 4491   0.723   0.262  10.902
 1202SOL     OW 4492   0.088   0.321   9.337
 1202SOL    HW1 4493   3.993   0.319   9.329
 1202SOL    HW2 4494   0.113   0.404   9.295
 1203SOL     OW 4495   1.427   0.857  10.708
 1203SOL    HW1 4496   1.378   0.919  10.654
 1203SOL    HW2 4497   1.516   0.859  10.673
 1204SOL     OW 4498   0.037   0.169   9.594
 1204SOL    HW1 4499   0.037   0.231   9.522
 1204SOL    HW2 4500   0.113   0.193   9.647
 1205SOL     OW 4501   1.177   1.337   9.426
 1205SOL    HW1 4502   1.087   1.307   9.427
 1205SOL    HW2 4503   1.204   1.335   9.518
 1206SOL     OW 4504   0.621   0.829  10.747
 1206SOL    HW1 4505   0.677   0.904  10.731
 1206SOL    HW2 4506   0.681   0.755  10.755
 1207SOL     OW 4507   1.489   1.782  10.291
 1207SOL    HW1 4508   1.513   1.851  10.229
 1207SOL    HW2 4509   1.569   1.730  10.301
 1208SOL     OW 4510   0.717   0.562  11.017
 1208SOL    HW1 4511   0.762   0.624  11.074
 1208SOL    HW2 4512   0.744   0.476  11.049
 1209SOL     OW 4513   1.472   1.198  10.941
 1209SOL    HW1 4514   1.461   1.212  11.035
 1209SOL    HW2 4515   1.565   1.213  10.926
 1210SOL     OW 4516   0.378   1.743  10.867
 1210SOL    HW1 4517   0.291   1.781  10.854
 1210SOL    HW2 4518   0.362   1.661  10.913
 1211SOL     OW 4519   1.666   0.881  10.565
 1211SOL    HW1 4520   1.662   0.796  10.522
 1211SOL    HW2 4521   1.657   0.944  10.495
 1212SOL     OW 4522   1.223   0.336   9.752
 1212SOL    HW1 4523   1.291   0.269   9.745
 1212SOL    HW2 4524   1.242   0.381   9.835
 1213SOL     OW 4525   0.590   0.738   9.981
 1213SOL    HW1 4526   0.628   0.824   9.965
 1213SOL    HW2 4527   0.523   0.728   9.914
 1214SOL     OW 4528   1.751   0.383  10.953
 1214SOL    HW1 4529   1.733   0.389  10.859
 1214SOL    HW2 4530   1.694   0.313  10.984
 1215SOL     OW 4531   1.746   0.934  10.822
 1215SOL    HW1 4532   1.737   1.028  10.835
 1215SOL    HW2 4533   1.730   0.920  10.728
 1216SOL     OW 4534   0.863   1.366   9.348
 1216SOL    HW1 4535   0.825   1.394   9.431
 1216SOL    HW2 4536   0.879   1.447   9.301
 1217SOL     OW 4537   0.663   1.788  10.252
 1217SOL    HW1 4538   0.643   1.879  10.230
 1217SOL    HW2 4539   0.758   1.782  10.245
 1218SOL     OW 4540   0.869   0.968  10.163
 1218SOL    HW1 4541   0.919   0.896  10.202
 1218SOL    HW2 4542   0.832   1.015  10.238
 1219SOL     OW 4543   1.077   0.988   9.399
 1219SOL    HW1 4544   1.056   1.040   9.321
 1219SOL    HW2 4545   1.152   0.934   9.372
 1220SOL     OW 4546   1.860   1.514  10.137
 1220SOL    HW1 4547   1.789   1.575  10.114
 1220SOL    HW2 4548   1.850   1.501  10.231
 1221SOL     OW 4549   0.226   1.304  11.166
 1221SOL    HW1 4550   0.154   1.247  11.139
 1221SOL    HW2 4551   0.213   1.317  11.260
 1222SOL     OW 4552   0.121   1.280  10.031
 1222SOL    HW1 4553   0.135   1.228  10.111
 1222SOL    HW2 4554   0.106   1.215   9.963
 1223SOL     OW 4555   0.681   1.405  10.939
 1223SOL    HW1 4556   0.602   1.362  10.970
 1223SOL    HW2 4557   0.677   1.493  10.977
 1224SOL     OW 4558   1.811   0.183  10.548
 1224SOL    HW1 4559   1.814   0.089  10.564
 1224SOL    HW2 4560   1.826   0.193  10.454
 1225SOL     OW 4561   0.444   0.438   9.841
 1225SOL    HW1 4562   0.461   0.362   9.785
 1225SOL    HW2 4563   0.389   0.403   9.911
 1226SOL     OW 4564   1.701   1.504  10.412
 1226SOL    HW1 4565   1.623   1.478  10.362
 1226SOL    HW2 4566   1.716   1.431  10.472
 1227SOL     OW 4567   0.333   0.557  10.603
 1227SOL    HW1 4568   0.389   0.501  10.656
 1227SOL    HW2 4569   0.348   0.528  10.513
 1228SOL     OW 4570   0.828   1.580   9.987
 1228SOL    HW1 4571   0.814   1.640   9.914
 1228SOL    HW2 4572   0.753   1.520   9.985
 1229SOL     OW 4573   1.461   0.254  10.420
 1229SOL    HW1 4574   1.478   0.167  10.457
 1229SOL    HW2 4575   1.405   0.297  10.486
 1230SOL     OW 4576   1.003   0.028  10.456
 1230SOL    HW1 4577   0.923   3.991  10.420
 1230SOL    HW2 4578   1.063   3.953  10.465
 1231SOL     OW 4579   0.772   1.333   9.627
 1231SOL    HW1 4580   0.744   1.242   9.634
 1231SOL    HW2 4581   0.854   1.337   9.678
 1232SOL     OW 4582   0.620   1.557  10.596
 1232SOL    HW1 4583   0.622   1.639  10.645
 1232SOL    HW2 4584   0.708   1.549  10.559
 1233SOL     OW 4585   1.311   0.074   9.475
 1233SOL    HW1 4586   1.322   3.994   9.423
 1233SOL    HW2 4587   1.225   0.062   9.517
 1234SOL     OW 4588   1.281   0.457   9.995
 1234SOL    HW1 4589   1.235   0.540   9.990
 1234SOL    HW2 4590   1.284   0.437  10.089
 1235SOL     OW 4591   1.588   0.210  10.178
 1235SOL    HW1 4592   1.539   0.234  10.256
 1235SOL    HW2 4593   1.588   0.289  10.124
 1236SOL     OW 4594   0.047   1.049   9.551
 1236SOL    HW1 4595   0.141   1.032   9.542
 1236SOL    HW2 4596   0.011   0.965   9.581
 1237SOL     OW 4597   0.887   1.656   9.650
 1237SOL    HW1 4598   0.813   1.640   9.592
 1237SOL    HW2 4599   0.859   1.730   9.704
 1238SOL     OW 4600   0.232   0.628  11.289
 1238SOL    HW1 4601   0.139   0.632  11.311
 1238SOL    HW2 4602   0.235   0.598  11.198
 1239SOL     OW 4603   0.224   0.289  12.155
 1239SOL    HW1 4604   0.246   0.250  12.239
 1239SOL    HW2 4605   0.129   0.278  12.148
 1240SOL     OW 4606   0.019   0.385  11.808
 1240SOL    HW1 4607   3.928   0.398  11.836
 1240SOL    HW2 4608   0.025   0.291  11.793
 1241SOL     OW 4609   0.581   1.289  12.363
 1241SOL    HW1 4610   0.494   1.291  12.322
 1241SOL    HW2 4611   0.594   1.378  12.395
 1242SOL     OW 4612   1.542   1.493  11.879
 1242SOL    HW1 4613   1.515   1.474  11.969
 1242SOL    HW2 4614   1.461   1.489  11.828
 1243SOL     OW 4615   1.133   0.699  11.869
 1243SOL    HW1 4616   1.180   0.780  11.857
 1243SOL    HW2 4617   1.085   0.711  11.951
 1244SOL     OW 4618   1.768   0.618  11.396
 1244SOL    HW1 4619   1.745   0.611  11.304
 1244SOL    HW2 4620   1.752   0.531  11.432
 1245SOL     OW 4621   0.753   1.139  12.214
 1245SOL    HW1 4622   0.690   1.175  12.276
 1245SOL    HW2 4623   0.789   1.216  12.169
 1246SOL     OW 4624   0.871   0.770  12.995
 1246SOL    HW1 4625   0.860   0.843  13.057
 1246SOL    HW2 4626   0.893   0.813  12.912
 1247SOL     OW 4627   0.685   1.002  11.818
 1247SOL    HW1 4628   0.751   0.991  11.886
 1247SOL    HW2 4629   0.616   1.054  11.859
 1248SOL     OW 4630   0.711   1.149  12.988
 1248SOL    HW1 4631   0.759   1.227  13.016
 1248SOL    HW2 4632   0.630   1.183  12.950
 1249SOL     OW 4633   0.351   1.401  12.251
 1249SOL    HW1 4634   0.270   1.380  12.204
 1249SOL    HW2 4635   0.399   1.459  12.191
 1250SOL     OW 4636   1.450   1.487  12.530
 1250SOL    HW1 4637   1.495   1.572  12.533
 1250SOL    HW2 4638   1.384   1.493  12.599
 1251SOL     OW 4639   0.457   0.408  12.668
 1251SOL    HW1 4640   0.539   0.358  12.667
 1251SOL    HW2 4641   0.388   0.342  12.671
 1252SOL     OW 4642   1.612   0.451  11.907
 1252SOL    HW1 4643   1.542   0.483  11.849
 1252SOL    HW2 4644   1.630   0.525  11.965
 1253SOL     OW 4645   0.220   1.719  11.629
 1253SOL    HW1 4646   0.240   1.793  11.687
 1253SOL    HW2 4647   0.297   1.711  11.573
 1254SOL     OW 4648   1.137   1.342  12.866
 1254SOL    HW1 4649   1.177   1.336  12.952
 1254SOL    HW2 4650   1.085   1.262  12.858
 1255SOL     OW 4651   0.250   1.450  11.712
 1255SOL    HW1 4652   0.215   1.538  11.697
 1255SOL    HW2 4653   0.182   1.406  11.763
 1256SOL     OW 4654   0.247   1.066  12.056
 1256SOL    HW1 4655   0.267   0.981  12.095
 1256SOL    HW2 4656   0.195   1.111  12.122
 1257SOL     OW 4657   0.610   1.792  12.599
 1257SOL    HW1 4658   0.528   1.774  12.644
 1257SOL    HW2 4659   0.633   1.882  12.625
 1258SOL     OW 4660   0.577   0.986  11.311
 1258SOL    HW1 4661   0.625   1.030  11.241
 1258SOL    HW2 4662   0.618   1.016  11.392
 1259SOL     OW 4663   1.581   0.140  12.627
 1259SOL    HW1 4664   1.611   0.213  12.573
 1259SOL    HW2 4665   1.548   0.182  12.707
 1260SOL     OW 4666   0.140   0.652  11.742
 1260SOL    HW1 4667   0.098   0.566  11.746
 1260SOL    HW2 4668   0.102   0.701  11.814
 1261SOL     OW 4669   0.044   1.590  11.310
 1261SOL    HW1 4670   0.037   1.497  11.335
 1261SOL    HW2 4671   3.961   1.628  11.337
 1262SOL     OW 4672   1.684   0.913  11.811
 1262SOL    HW1 4673   1.771   0.877  11.795
 1262SOL    HW2 4674   1.666   0.968  11.735
 1263SOL     OW 4675   1.648   1.105  11.601
 1263SOL    HW1 4676   1.734   1.108  11.560
 1263SOL    HW2 4677   1.655   1.166  11.675
 1264SOL     OW 4678   0.141   0.756  12.761
 1264SOL    HW1 4679   0.236   0.751  12.756
 1264SOL    HW2 4680   0.123   0.844  12.793
 1265SOL     OW 4681   0.613   1.387  11.908
 1265SOL    HW1 4682   0.567   1.303  11.917
 1265SOL    HW2 4683   0.597   1.413  11.817
 1266SOL     OW 4684   1.284   1.234  12.597
 1266SOL    HW1 4685   1.317   1.168  12.535
 1266SOL    HW2 4686   1.344   1.230  12.671
 1267SOL     OW 4687   0.820   0.004  11.688
 1267SOL    HW1 4688   0.865   0.084  11.664
 1267SOL    HW2 4689   0.727   0.027  11.688
 1268SOL     OW 4690   0.184   0.950  12.450
 1268SOL    HW1 4691   0.272   0.915  12.438
 1268SOL    HW2 4692   0.132   0.908  12.381
 1269SOL     OW 4693   1.531   0.996  11.372
 1269SOL    HW1 4694   1.462   0.939  11.405
 1269SOL    HW2 4695   1.574   1.030  11.450
 1270SOL     OW 4696   1.186   1.809  12.796
 1270SOL    HW1 4697   1.194   1.869  12.722
 1270SOL    HW2 4698   1.202   1.722  12.759
 1271SOL     OW 4699   0.344   0.252  13.009
 1271SOL    HW1 4700   0.387   0.335  12.990
 1271SOL    HW2 4701   0.253   0.275  13.029
 1272SOL     OW 4702   1.468   1.420  12.130
 1272SOL    HW1 4703   1.398   1.435  12.194
 1272SOL    HW2 4704   1.457   1.328  12.104
 1273SOL     OW 4705   1.572   1.721  11.737
 1273SOL    HW1 4706   1.581   1.686  11.649
 1273SOL    HW2 4707   1.577   1.644  11.794
 1274SOL     OW 4708   0.596   0.717  11.438
 1274SOL    HW1 4709   0.601   0.801  11.393
 1274SOL    HW2 4710   0.533   0.731  11.509
 1275SOL     OW 4711   1.274   0.369  12.113
 1275SOL    HW1 4712   1.187   0.330  12.120
 1275SOL    HW2 4713   1.332   0.307  12.159
 1276SOL     OW 4714   1.570   1.651  11.471
 1276SOL    HW1 4715   1.665   1.653  11.456
 1276SOL    HW2 4716   1.532   1.641  11.384
 1277SOL     OW 4717   0.794   0.616  12.625
 1277SOL    HW1 4718   0.765   0.590  12.713
 1277SOL    HW2 4719   0.756   0.550  12.567
 1278SOL     OW 4720   1.392   0.476  12.850
 1278SOL    HW1 4721   1.399   0.521  12.934
 1278SOL    HW2 4722   1.450   0.400  12.859
 1279SOL     OW 4723   0.952   0.887  12.756
 1279SOL    HW1 4724   1.007   0.818  12.719
 1279SOL    HW2 4725   0.904   0.922  12.681
 1280SOL     OW 4726   0.992   0.403  12.410
 1280SOL    HW1 4727   0.907   0.423  12.448
 1280SOL    HW2 4728   0.972   0.374  12.321
 1281SOL     OW 4729   1.052   0.700  11.597
 1281SOL    HW1 4730   1.069   0.693  11.691
 1281SOL    HW2 4731   0.970   0.653  11.584
 1282SOL     OW 4732   0.081   0.829  11.962
 1282SOL    HW1 4733   0.154   0.795  12.015
 1282SOL    HW2 4734   0.102   0.921  11.948
 1283SOL     OW 4735   0.130   1.863  12.749
 1283SOL    HW1 4736   0.137   1.828  12.838
 1283SOL    HW2 4737   0.038   1.851  12.727
 1284SOL     OW 4738   0.894   0.352  11.370
 1284SOL    HW1 4739   0.936   0.412  11.308
 1284SOL    HW2 4740   0.893   0.268  11.325
 1285SOL     OW 4741   1.708   0.576  13.000
 1285SOL    HW1 4742   1.670   0.649  12.951
 1285SOL    HW2 4743   1.732   0.512  12.933
 1286SOL     OW 4744   1.378   1.141  11.711
 1286SOL    HW1 4745   1.459   1.132  11.661
 1286SOL    HW2 4746   1.325   1.202  11.660
 1287SOL     OW 4747   0.561   0.195  12.053
 1287SOL    HW1 4748   0.566   0.219  12.145
 1287SOL    HW2 4749   0.547   0.278  12.007
 1288SOL     OW 4750   0.998   1.440  11.641
 1288SOL    HW1 4751   0.967   1.516  11.592
 1288SOL    HW2 4752   0.985   1.463  11.733
 1289SOL     OW 4753   0.365   1.820  12.042
 1289SOL    HW1 4754   0.428   1.748  12.051
 1289SOL    HW2 4755   0.416   1.899  12.058
 1290SOL     OW 4756   1.801   1.047  12.045
 1290SOL    HW1 4757   1.747   1.045  11.966
 1290SOL    HW2 4758   1.738   1.056  12.116
 1291SOL     OW 4759   1.226   1.538  12.686
 1291SOL    HW1 4760   1.212   1.466  12.748
 1291SOL    HW2 4761   1.161   1.524  12.618
 1292SOL     OW 4762   0.311   0.954  11.414
 1292SOL    HW1 4763   0.394   0.976  11.373
 1292SOL    HW2 4764   0.298   0.861  11.394
 1293SOL     OW 4765   1.478   0.747  11.901
 1293SOL    HW1 4766   1.475   0.706  11.988
 1293SOL    HW2 4767   1.556   0.802  11.903
 1294SOL     OW 4768   0.468   1.260  12.909
 1294SOL    HW1 4769   0.442   1.269  12.817
 1294SOL    HW2 4770   0.386   1.264  12.958
 1295SOL     OW 4771   1.122   1.778  11.401
 1295SOL    HW1 4772   1.048   1.737  11.447
 1295SOL    HW2 4773   1.145   1.715  11.333
 1296SOL     OW 4774   0.201   0.294  12.672
 1296SOL    HW1 4775   0.107   0.314  12.671
 1296SOL    HW2 4776   0.209   0.222  12.734
 1297SOL     OW 4777   1.631   1.383  11.259
 1297SOL    HW1 4778   1.586   1.466  11.241
 1297SOL    HW2 4779   1.565   1.316  11.242
 1298SOL     OW 4780   0.466   1.739  11.488
 1298SOL    HW1 4781   0.509   1.795  11.552
 1298SOL    HW2 4782   0.537   1.703  11.435
 1299SOL     OW 4783   1.441   0.166  11.578
 1299SOL    HW1 4784   1.394   0.099  11.528
 1299SOL    HW2 4785   1.512   0.119  11.621
 1300SOL     OW 4786   0.252   1.791  12.403
 1300SOL    HW1 4787   0.298   1.726  12.456
 1300SOL    HW2 4788   0.250   1.753  12.315
 1301SOL     OW 4789   0.938   1.699  12.070
 1301SOL    HW1 4790   1.017   1.649  12.090
 1301SOL    HW2 4791   0.895   1.649  12.000
 1302SOL     OW 4792   0.397   0.694  11.643
 1302SOL    HW1 4793   0.423   0.604  11.658
 1302SOL    HW2 4794   0.305   0.698  11.668
 1303SOL     OW 4795   1.529   0.229  12.898
 1303SOL    HW1 4796   1.526   0.254  12.990
 1303SOL    HW2 4797   1.512   0.135  12.898
 1304SOL     OW 4798   0.645   0.130  11.275
 1304SOL    HW1 4799   0.668   0.046  11.315
 1304SOL    HW2 4800   0.584   0.107  11.205
 1305SOL     OW 4801   0.776   0.284  12.939
 1305SOL    HW1 4802   0.850   0.224  12.941
 1305SOL    HW2 4803   0.720   0.255  13.011
 1306SOL     OW 4804   0.875   1.522  12.366
 1306SOL    HW1 4805   0.860   1.485  12.279
 1306SOL    HW2 4806   0.946   1.468  12.403
 1307SOL     OW 4807   1.339   0.587  12.603
 1307SOL    HW1 4808   1.370   0.559  12.689
 1307SOL    HW2 4809   1.375   0.676  12.593
 1308SOL     OW 4810   0.816   1.392  12.114
 1308SOL    HW1 4811   0.901   1.381  12.072
 1308SOL    HW2 4812   0.754   1.395  12.041
 1309SOL     OW 4813   0.930   0.512  12.072
 1309SOL    HW1 4814   0.906   0.504  11.980
 1309SOL    HW2 4815   0.956   0.423  12.098
 1310SOL     OW 4816   0.546   0.056  11.659
 1310SOL    HW1 4817   0.472   0.063  11.720
 1310SOL    HW2 4818   0.548   0.140  11.613
 1311SOL     OW 4819   1.430   1.200  11.213
 1311SOL    HW1 4820   1.459   1.124  11.264
 1311SOL    HW2 4821   1.344   1.221  11.250
 1312SOL     OW 4822   0.346   0.036  11.370
 1312SOL    HW1 4823   0.360   0.086  11.290
 1312SOL    HW2 4824   0.431   0.037  11.414
 1313SOL     OW 4825   0.942   0.249  11.633
 1313SOL    HW1 4826   0.916   0.290  11.550
 1313SOL    HW2 4827   1.038   0.254  11.632
 1314SOL     OW 4828   1.079   0.683  12.630
 1314SOL    HW1 4829   1.010   0.618  12.637
 1314SOL    HW2 4830   1.160   0.633  12.625
 1315SOL     OW 4831   1.223   1.570  11.965
 1315SOL    HW1 4832   1.235   1.638  11.899
 1315SOL    HW2 4833   1.291   1.588  12.030
 1316SOL     OW 4834   0.466   1.151  11.907
 1316SOL    HW1 4835   0.395   1.126  11.966
 1316SOL    HW2 4836   0.431   1.135  11.820
 1317SOL     OW 4837   1.259   1.790  11.784
 1317SOL    HW1 4838   1.312   1.849  11.730
 1317SOL    HW2 4839   1.195   1.847  11.826
 1318SOL     OW 4840   1.022   0.542  11.201
 1318SOL    HW1 4841   0.979   0.626  11.181
 1318SOL    HW2 4842   1.086   0.564  11.269
 1319SOL     OW 4843   0.081   0.573  12.565
 1319SOL    HW1 4844   0.170   0.555  12.535
 1319SOL    HW2 4845   0.090   0.645  12.628
 1320SOL     OW 4846   0.572   0.231  12.331
 1320SOL    HW1 4847   0.594   0.138  12.340
 1320SOL    HW2 4848   0.481   0.237  12.361
 1321SOL     OW 4849   0.871   0.461  11.810
 1321SOL    HW1 4850   0.820   0.514  11.748
 1321SOL    HW2 4851   0.891   0.381  11.763
 1322SOL     OW 4852   0.996   0.039  11.953
 1322SOL    HW1 4853   0.960   0.069  11.869
 1322SOL    HW2 4854   1.007   3.945  11.942
 1323SOL     OW 4855   1.439   1.164  12.031
 1323SOL    HW1 4856   1.369   1.099  12.026
 1323SOL    HW2 4857   1.469   1.174  11.941
 1324SOL     OW 4858   1.465   0.607  12.146
 1324SOL    HW1 4859   1.411   0.528  12.151
 1324SOL    HW2 4860   1.524   0.600  12.221
 1325SOL     OW 4861   1.845   0.817  11.559
 1325SOL    HW1 4862   1.902   0.765  11.616
 1325SOL    HW2 4863   1.816   0.756  11.491
 1326SOL     OW 4864   0.487   1.421  11.331
 1326SOL    HW1 4865   0.412   1.390  11.381
 1326SOL    HW2 4866   0.473   1.388  11.243
 1327SOL     OW 4867   1.672   1.256  11.822
 1327SOL    HW1 4868   1.767   1.258  11.833
 1327SOL    HW2 4869   1.644   1.345  11.844
 1328SOL     OW 4870   1.395   0.576  11.241
 1328SOL    HW1 4871   1.332   0.556  11.310
 1328SOL    HW2 4872   1.481   0.557  11.280
 1329SOL     OW 4873   0.557   0.271  11.490
 1329SOL    HW1 4874   0.605   0.231  11.417
 1329SOL    HW2 4875   0.528   0.355  11.456
 1330SOL     OW 4876   1.750   1.237  12.743
 1330SOL    HW1 4877   1.837   1.198  12.737
 1330SOL    HW2 4878   1.765   1.327  12.771
 1331SOL     OW 4879   1.056   1.353  12.506
 1331SOL    HW1 4880   0.981   1.322  12.556
 1331SOL    HW2 4881   1.131   1.311  12.547
 1332SOL     OW 4882   1.604   1.626  12.826
 1332SOL    HW1 4883   1.586   1.652  12.736
 1332SOL    HW2 4884   1.687   1.579  12.821
 1333SOL     OW 4885   1.132   1.207  12.276
 1333SOL    HW1 4886   1.070   1.243  12.340
 1333SOL    HW2 4887   1.100   1.239  12.192
 1334SOL     OW 4888   1.625   1.095  12.248
 1334SOL    HW1 4889   1.620   1.158  12.319
 1334SOL    HW2 4890   1.549   1.115  12.193
 1335SOL     OW 4891   0.912   0.115  12.573
 1335SOL    HW1 4892   0.932   0.089  12.483
 1335SOL    HW2 4893   0.993   0.157  12.604
 1336SOL     OW 4894   0.984   1.115  12.896
 1336SOL    HW1 4895   0.893   1.132  12.917
 1336SOL    HW2 4896   0.982   1.037  12.840
 1337SOL     OW 4897   0.708   1.061  11.543
 1337SOL    HW1 4898   0.694   1.044  11.636
 1337SOL    HW2 4899   0.784   1.008  11.519
 1338SOL     OW 4900   0.422   0.817  12.425
 1338SOL    HW1 4901   0.491   0.823  12.491
 1338SOL    HW2 4902   0.388   0.728  12.434
 1339SOL     OW 4903   1.266   0.375  12.449
 1339SOL    HW1 4904   1.300   0.452  12.493
 1339SOL    HW2 4905   1.178   0.400  12.419
 1340SOL     OW 4906   0.065   1.580  12.518
 1340SOL    HW1 4907   0.071   1.635  12.440
 1340SOL    HW2 4908   0.156   1.567  12.545
 1341SOL     OW 4909   0.370   1.103  11.655
 1341SOL    HW1 4910   0.365   1.182  11.600
 1341SOL    HW2 4911   0.370   1.031  11.592
 1342SOL     OW 4912   0.554   0.534  12.030
 1342SOL    HW1 4913   0.568   0.593  11.956
 1342SOL    HW2 4914   0.620   0.561  12.094
 1343SOL     OW 4915   1.239   1.338  11.559
 1343SOL    HW1 4916   1.293   1.412  11.586
 1343SOL    HW2 4917   1.152   1.357  11.592
 1344SOL     OW 4918   1.279   1.460  12.320
 1344SOL    HW1 4919   1.336   1.460  12.397
 1344SOL    HW2 4920   1.225   1.382  12.331
 1345SOL     OW 4921   1.575   0.634  11.658
 1345SOL    HW1 4922   1.533   0.690  11.724
 1345SOL    HW2 4923   1.623   0.695  11.602
 1346SOL     OW 4924   0.345   1.527  12.490
 1346SOL    HW1 4925   0.336   1.477  12.410
 1346SOL    HW2 4926   0.440   1.542  12.498
 1347SOL     OW 4927   0.417   0.738  12.773
 1347SOL    HW1 4928   0.480   0.783  12.717
 1347SOL    HW2 4929   0.455   0.651  12.786
 1348SOL     OW 4930   1.604   0.780  12.857
 1348SOL    HW1 4931   1.518   0.822  12.849
 1348SOL    HW2 4932   1.656   0.821  12.788
 1349SOL     OW 4933   1.010   0.135  12.951
 1349SOL    HW1 4934   1.064   0.206  12.916
 1349SOL    HW2 4935   1.002   0.073  12.878
 1350SOL     OW 4936   0.482   0.036  12.938
 1350SOL    HW1 4937   0.491   0.046  12.843
 1350SOL    HW2 4938   0.420   0.105  12.963
 1351SOL     OW 4939   0.585   0.875  12.203
 1351SOL    HW1 4940   0.617   0.965  12.205
 1351SOL    HW2 4941   0.529   0.868  12.281
 1352SOL     OW 4942   1.353   0.858  12.199
 1352SOL    HW1 4943   1.269   0.846  12.154
 1352SOL    HW2 4944   1.397   0.773  12.191
 1353SOL     OW 4945   1.200   0.537  11.430
 1353SOL    HW1 4946   1.209   0.458  11.483
 1353SOL    HW2 4947   1.157   0.600  11.488
 1354SOL     OW 4948   0.311   0.212  12.412
 1354SOL    HW1 4949   0.268   0.248  12.489
 1354SOL    HW2 4950   0.296   0.118  12.418
 1355SOL     OW 4951   0.061   1.306  12.452
 1355SOL    HW1 4952   0.091   1.264  12.533
 1355SOL    HW2 4953   0.052   1.398  12.475
 1356SOL     OW 4954   0.725   0.634  12.225
 1356SOL    HW1 4955   0.799   0.619  12.167
 1356SOL    HW2 4956   0.695   0.722  12.204
 1357SOL     OW 4957   1.737   0.958  13.027
 1357SOL    HW1 4958   1.691   0.895  12.972
 1357SOL    HW2 4959   1.677   0.974  13.100
 1358SOL     OW 4960   0.330   0.055  11.827
 1358SOL    HW1 4961   0.301   0.146  11.827
 1358SOL    HW2 4962   0.293   0.017  11.907
 1359SOL     OW 4963   1.607   0.392  11.552
 1359SOL    HW1 4964   1.567   0.324  11.607
 1359SOL    HW2 4965   1.587   0.474  11.597
 1360SOL     OW 4966   1.029   0.759  12.131
 1360SOL    HW1 4967   1.023   0.776  12.225
 1360SOL    HW2 4968   1.002   0.668  12.121
 1361SOL     OW 4969   0.982   1.566  12.891
 1361SOL    HW1 4970   0.966   1.610  12.808
 1361SOL    HW2 4971   1.025   1.484  12.868
 1362SOL     OW 4972   1.849   1.497  12.778
 1362SOL    HW1 4973   1.878   1.516  12.688
 1362SOL    HW2 4974   1.925   1.519  12.832
 1363SOL     OW 4975   0.353   0.921  12.972
 1363SOL    HW1 4976   0.431   0.942  13.023
 1363SOL    HW2 4977   0.382   0.854  12.910
 1364SOL     OW 4978   1.505   0.274  11.307
 1364SOL    HW1 4979   1.431   0.215  11.319
 1364SOL    HW2 4980   1.518   0.314  11.393
 1365SOL     OW 4981   1.288   0.827  11.200
 1365SOL    HW1 4982   1.331   0.741  11.204
 1365SOL    HW2 4983   1.320   0.866  11.119
 1366SOL     OW 4984   1.067   1.337  12.027
 1366SOL    HW1 4985   1.071   1.265  11.965
 1366SOL    HW2 4986   1.127   1.403  11.992
 1367SOL     OW 4987   0.313   0.803  12.122
 1367SOL    HW1 4988   0.407   0.819  12.116
 1367SOL    HW2 4989   0.306   0.713  12.154
 1368SOL     OW 4990   0.338   0.528  12.187
 1368SOL    HW1 4991   0.297   0.444  12.169
 1368SOL    HW2 4992   0.413   0.532  12.128
 1369SOL     OW 4993   1.133   0.380  12.870
 1369SOL    HW1 4994   1.085   0.435  12.931
 1369SOL    HW2 4995   1.220   0.420  12.865
 1370SOL     OW 4996   1.151   0.225  12.654
 1370SOL    HW1 4997   1.142   0.280  12.732
 1370SOL    HW2 4998   1.176   0.286  12.585
 1371SOL     OW 4999   0.000   1.317  11.354
 1371SOL    HW1 5000   3.906   1.333  11.358
 1371SOL    HW2 5001   0.009   1.224  11.373
 1372SOL     OW 5002   0.078   1.800  12.060
 1372SOL    HW1 5003   0.083   1.705  12.064
 1372SOL    HW2 5004   0.169   1.830  12.064
 1373SOL     OW 5005   0.500   1.571  12.083
 1373SOL    HW1 5006   0.570   1.632  12.108
 1373SOL    HW2 5007   0.543   1.508  12.024
 1374SOL     OW 5008   0.978   0.789  12.396
 1374SOL    HW1 5009   1.035   0.769  12.471
 1374SOL    HW2 5010   0.894   0.750  12.419
 1375SOL     OW 5011   0.035   0.574  12.284
 1375SOL    HW1 5012   0.097   0.522  12.233
 1375SOL    HW2 5013   0.061   0.560  12.375
 1376SOL     OW 5014   0.211   0.516  12.894
 1376SOL    HW1 5015   0.258   0.477  12.820
 1376SOL    HW2 5016   0.164   0.590  12.856
 1377SOL     OW 5017   1.378   0.937  12.829
 1377SOL    HW1 5018   1.400   1.030  12.826
 1377SOL    HW2 5019   1.375   0.910  12.737
 1378SOL     OW 5020   0.818   0.572  11.534
 1378SOL    HW1 5021   0.825   0.496  11.477
 1378SOL    HW2 5022   0.743   0.621  11.501
 1379SOL     OW 5023   1.640   0.602  12.355
 1379SOL    HW1 5024   1.631   0.541  12.429
 1379SOL    HW2 5025   1.728   0.584  12.321
 1380SOL     OW 5026   0.300   1.545  12.897
 1380SOL    HW1 5027   0.251   1.614  12.942
 1380SOL    HW2 5028   0.269   1.463  12.938
 1381SOL     OW 5029   0.710   0.454  12.428
 1381SOL    HW1 5030   0.660   0.376  12.403
 1381SOL    HW2 5031   0.700   0.513  12.354
 1382SOL     OW 5032   0.925   1.679  12.642
 1382SOL    HW1 5033   0.900   1.642  12.557
 1382SOL    HW2 5034   0.919   1.774  12.629
 1383SOL     OW 5035   0.453   0.492  11.370
 1383SOL    HW1 5036   0.518   0.561  11.387
 1383SOL    HW2 5037   0.374   0.539  11.345
 1384SOL     OW 5038   0.156   1.135  12.646
 1384SOL    HW1 5039   0.157   1.084  12.728
 1384SOL    HW2 5040   0.170   1.070  12.578
 1385SOL     OW 5041   1.323   1.045  12.394
 1385SOL    HW1 5042   1.346   0.982  12.326
 1385SOL    HW2 5043   1.255   1.100  12.354
 1386SOL     OW 5044   1.314   0.856  11.476
 1386SOL    HW1 5045   1.239   0.827  11.528
 1386SOL    HW2 5046   1.287   0.843  11.386
 1387SOL     OW 5047   1.243   1.735  12.281
 1387SOL    HW1 5048   1.326   1.756  12.239
 1387SOL    HW2 5049   1.249   1.642  12.300
 1388SOL     OW 5050   0.077   1.217  12.199
 1388SOL    HW1 5051   0.084   1.243  12.291
 1388SOL    HW2 5052   3.985   1.227  12.178
 1389SOL     OW 5053   0.680   1.668  12.906
 1389SOL    HW1 5054   0.621   1.743  12.898
 1389SOL    HW2 5055   0.746   1.682  12.839
 1390SOL     OW 5056   1.714   0.124  11.660
 1390SOL    HW1 5057   1.792   0.134  11.606
 1390SOL    HW2 5058   1.705   0.030  11.672
 1391SOL     OW 5059   1.363   1.559  11.643
 1391SOL    HW1 5060   1.428   1.590  11.581
 1391SOL    HW2 5061   1.330   1.638  11.685
 1392SOL     OW 5062   0.174   1.763  13.002
 1392SOL    HW1 5063   0.118   1.712  13.060
 1392SOL    HW2 5064   0.217   1.827  13.060
 1393SOL     OW 5065   1.277   0.928  11.843
 1393SOL    HW1 5066   1.351   0.868  11.854
 1393SOL    HW2 5067   1.312   0.999  11.790
 1394SOL     OW 5068   0.810   1.274  12.600
 1394SOL    HW1 5069   0.781   1.315  12.682
 1394SOL    HW2 5070   0.739   1.291  12.538
 1395SOL     OW 5071   0.670   1.623  11.327
 1395SOL    HW1 5072   0.681   1.635  11.233
 1395SOL    HW2 5073   0.615   1.545  11.335
 1396SOL     OW 5074   1.578   1.722  12.555
 1396SOL    HW1 5075   1.646   1.720  12.488
 1396SOL    HW2 5076   1.563   1.815  12.572
 1397SOL     OW 5077   1.839   0.177  12.138
 1397SOL    HW1 5078   1.872   0.111  12.078
 1397SOL    HW2 5079   1.751   0.197  12.107
 1398SOL     OW 5080   0.275   0.322  11.886
 1398SOL    HW1 5081   0.189   0.357  11.860
 1398SOL    HW2 5082   0.266   0.306  11.980
 1399SOL     OW 5083   1.207   1.604  11.204
 1399SOL    HW1 5084   1.197   1.512  11.231
 1399SOL    HW2 5085   1.141   1.616  11.135
 1400SOL     OW 5086   0.823   1.005  12.545
 1400SOL    HW1 5087   0.867   1.000  12.460
 1400SOL    HW2 5088   0.822   1.099  12.566
 1401SOL     OW 5089   0.915   0.910  11.462
 1401SOL    HW1 5090   0.976   0.943  11.396
 1401SOL    HW2 5091   0.964   0.842  11.508
 1402SOL     OW 5092   1.486   1.625  11.212
 1402SOL    HW1 5093   1.392   1.618  11.196
 1402SOL    HW2 5094   1.525   1.632  11.125
 1403SOL     OW 5095   0.374   1.303  12.664
 1403SOL    HW1 5096   0.359   1.383  12.613
 1403SOL    HW2 5097   0.297   1.248  12.646
 1404SOL     OW 5098   1.607   1.280  12.449
 1404SOL    HW1 5099   1.670   1.269  12.520
 1404SOL    HW2 5100   1.546   1.346  12.481
 1405SOL     OW 5101   1.056   1.109  11.880
 1405SOL    HW1 5102   0.984   1.058  11.918
 1405SOL    HW2 5103   1.120   1.044  11.851
 1406SOL     OW 5104   1.014   0.249  12.142
 1406SOL    HW1 5105   1.004   0.199  12.061
 1406SOL    HW2 5106   1.010   0.184  12.212
 1407SOL     OW 5107   0.606   1.488  11.654
 1407SOL    HW1 5108   0.652   1.438  11.586
 1407SOL    HW2 5109   0.532   1.528  11.608
 1408SOL     OW 5110   1.720   0.394  12.544
 1408SOL    HW1 5111   1.793   0.456  12.548
 1408SOL    HW2 5112   1.754   0.322  12.490
 1409SOL     OW 5113   0.254   1.341  11.465
 1409SOL    HW1 5114   0.160   1.348  11.446
 1409SOL    HW2 5115   0.264   1.380  11.552
 1410SOL     OW 5116   0.108   0.999  12.890
 1410SOL    HW1 5117   0.048   0.992  12.964
 1410SOL    HW2 5118   0.194   0.980  12.927
 1411SOL     OW 5119   0.694   0.253  12.673
 1411SOL    HW1 5120   0.762   0.200  12.632
 1411SOL    HW2 5121   0.722   0.262  12.764
 1412SOL     OW 5122   0.088   0.321  11.198
 1412SOL    HW1 5123   3.993   0.319  11.191
 1412SOL    HW2 5124   0.113   0.404  11.157
 1413SOL     OW 5125   1.427   0.857  12.570
 1413SOL    HW1 5126   1.378   0.918  12.516
 1413SOL    HW2 5127   1.516   0.859  12.535
 1414SOL     OW 5128   0.037   0.169  11.456
 1414SOL    HW1 5129   0.036   0.231  11.384
 1414SOL    HW2 5130   0.113   0.193  11.509
 1415SOL     OW 5131   1.177   1.337  11.288
 1415SOL    HW1 5132   1.087   1.307  11.289
 1415SOL    HW2 5133   1.204   1.336  11.380
 1416SOL     OW 5134   0.621   0.829  12.609
 1416SOL    HW1 5135   0.677   0.904  12.593
 1416SOL    HW2 5136   0.681   0.755  12.617
 1417SOL     OW 5137   1.488   1.781  12.153
 1417SOL    HW1 5138   1.513   1.849  12.090
 1417SOL    HW2 5139   1.567   1.728  12.163
 1418SOL     OW 5140   0.717   0.562  12.879
 1418SOL    HW1 5141   0.762   0.624  12.937
 1418SOL    HW2 5142   0.744   0.476  12.911
 1419SOL     OW 5143   1.472   1.197  12.803
 1419SOL    HW1 5144   1.461   1.212  12.897
 1419SOL    HW2 5145   1.565   1.213  12.787
 1420SOL     OW 5146   0.378   1.743  12.729
 1420SOL    HW1 5147   0.291   1.781  12.716
 1420SOL    HW2 5148   0.362   1.661  12.775
 1421SOL     OW 5149   1.666   0.881  12.428
 1421SOL    HW1 5150   1.662   0.796  12.384
 1421SOL    HW2 5151   1.657   0.945  12.357
 1422SOL     OW 5152   1.223   0.336  11.614
 1422SOL    HW1 5153   1.290   0.269  11.607
 1422SOL    HW2 5154   1.242   0.381  11.697
 1423SOL     OW 5155   0.590   0.738  11.843
 1423SOL    HW1 5156   0.628   0.824  11.827
 1423SOL    HW2 5157   0.523   0.728  11.776
 1424SOL     OW 5158   1.751   0.384  12.815
 1424SOL    HW1 5159   1.733   0.389  12.721
 1424SOL    HW2 5160   1.694   0.313  12.846
 1425SOL     OW 5161   1.747   0.934  12.684
 1425SOL    HW1 5162   1.737   1.028  12.697
 1425SOL    HW2 5163   1.730   0.920  12.590
 1426SOL     OW 5164   0.862   1.366  11.210
 1426SOL    HW1 5165   0.825   1.394  11.293
 1426SOL    HW2 5166   0.879   1.447  11.163
 1427SOL     OW 5167   0.663   1.788  12.114
 1427SOL    HW1 5168   0.643   1.879  12.092
 1427SOL    HW2 5169   0.758   1.782  12.107
 1428SOL     OW 5170   0.868   0.968  12.025
 1428SOL    HW1 5171   0.919   0.896  12.064
 1428SOL    HW2 5172   0.832   1.015  12.100
 1429SOL     OW 5173   1.077   0.988  11.261
 1429SOL    HW1 5174   1.056   1.040  11.183
 1429SOL    HW2 5175   1.152   0.934  11.234
 1430SOL     OW 5176   1.859   1.512  12.000
 1430SOL    HW1 5177   1.798   1.582  11.979
 1430SOL    HW2 5178   1.847   1.498  12.094
 1431SOL     OW 5179   0.226   1.304  13.028
 1431SOL    HW1 5180   0.153   1.248  13.001
 1431SOL    HW2 5181   0.213   1.317  13.122
 1432SOL     OW 5182   0.121   1.280  11.893
 1432SOL    HW1 5183   0.135   1.228  11.973
 1432SOL    HW2 5184   0.106   1.215  11.825
 1433SOL     OW 5185   0.682   1.405  12.802
 1433SOL    HW1 5186   0.601   1.362  12.832
 1433SOL    HW2 5187   0.677   1.493  12.839
 1434SOL     OW 5188   1.811   0.183  12.410
 1434SOL    HW1 5189   1.814   0.089  12.425
 1434SOL    HW2 5190   1.826   0.193  12.316
 1435SOL     OW 5191   0.444   0.438  11.703
 1435SOL    HW1 5192   0.461   0.362  11.647
 1435SOL    HW2 5193   0.389   0.403  11.773
 1436SOL     OW 5194   1.701   1.504  12.273
 1436SOL    HW1 5195   1.623   1.478  12.223
 1436SOL    HW2 5196   1.716   1.431  12.333
 1437SOL     OW 5197   0.333   0.557  12.465
 1437SOL    HW1 5198   0.389   0.501  12.518
 1437SOL    HW2 5199   0.348   0.529  12.375
 1438SOL     OW 5200   0.828   1.580  11.849
 1438SOL    HW1 5201   0.814   1.640  11.776
 1438SOL    HW2 5202   0.753   1.520  11.847
 1439SOL     OW 5203   1.461   0.254  12.282
 1439SOL    HW1 5204   1.478   0.167  12.319
 1439SOL    HW2 5205   1.405   0.297  12.348
 1440SOL     OW 5206   1.003   0.028  12.318
 1440SOL    HW1 5207   0.923   3.990  12.282
 1440SOL    HW2 5208   1.063   3.954  12.327
 1441SOL     OW 5209   0.772   1.333  11.489
 1441SOL    HW1 5210   0.745   1.242  11.496
 1441SOL    HW2 5211   0.854   1.338  11.540
 1442SOL     OW 5212   0.620   1.556  12.458
 1442SOL    HW1 5213   0.622   1.639  12.507
 1442SOL    HW2 5214   0.708   1.549  12.421
 1443SOL     OW 5215   1.311   0.074  11.337
 1443SOL    HW1 5216   1.323   3.994  11.285
 1443SOL    HW2 5217   1.226   0.062  11.379
 1444SOL     OW 5218   1.281   0.457  11.857
 1444SOL    HW1 5219   1.235   0.540  11.852
 1444SOL    HW2 5220   1.284   0.437  11.951
 1445SOL     OW 5221   1.588   0.210  12.040
 1445SOL    HW1 5222   1.539   0.234  12.118
 1445SOL    HW2 5223   1.588   0.289  11.986
 1446SOL     OW 5224   0.047   1.049  11.413
 1446SOL    HW1 5225   0.141   1.032  11.404
 1446SOL    HW2 5226   0.011   0.965  11.443
 1447SOL     OW 5227   0.887   1.656  11.512
 1447SOL    HW1 5228   0.813   1.640  11.454
 1447SOL    HW2 5229   0.859   1.730  11.566
 1448SOL     OW 5230   0.231   0.628  13.151
 1448SOL    HW1 5231   0.138   0.631  13.172
 1448SOL    HW2 5232   0.234   0.598  13.060
 1449SOL     OW 5233   0.283   0.253   0.144
 1449SOL    HW1 5234   0.334   0.319   0.190
 1449SOL    HW2 5235   0.206   0.300   0.112
 1450SOL     OW 5236   0.018   0.381  13.667
 1450SOL    HW1 5237   3.927   0.403  13.647
 1450SOL    HW2 5238   0.028   0.290  13.640
 1451SOL     OW 5239   1.512   1.473  13.721
 1451SOL    HW1 5240   1.457   1.414  13.772
 1451SOL    HW2 5241   1.461   1.491  13.642
 1452SOL     OW 5242   1.131   0.699  13.732
 1452SOL    HW1 5243   1.184   0.775  13.708
 1452SOL    HW2 5244   1.076   0.730  13.804
 1453SOL     OW 5245   1.770   0.616  13.257
 1453SOL    HW1 5246   1.746   0.611  13.164
 1453SOL    HW2 5247   1.755   0.528  13.290
 1454SOL     OW 5248   0.687   1.011  13.671
 1454SOL    HW1 5249   0.740   0.990  13.748
 1454SOL    HW2 5250   0.613   1.062  13.705
 1455SOL     OW 5251   1.616   0.455  13.759
 1455SOL    HW1 5252   1.533   0.475  13.717
 1455SOL    HW2 5253   1.646   0.538  13.796
 1456SOL     OW 5254   0.218   1.714  13.485
 1456SOL    HW1 5255   0.236   1.788  13.543
 1456SOL    HW2 5256   0.296   1.707  13.431
 1457SOL     OW 5257   0.249   1.445  13.571
 1457SOL    HW1 5258   0.219   1.536  13.561
 1457SOL    HW2 5259   0.185   1.406  13.631
 1458SOL     OW 5260   0.256   1.075   0.018
 1458SOL    HW1 5261   0.274   1.034   0.103
 1458SOL    HW2 5262   0.215   1.159   0.040
 1459SOL     OW 5263   0.576   0.986  13.171
 1459SOL    HW1 5264   0.625   1.030  13.101
 1459SOL    HW2 5265   0.618   1.016  13.252
 1460SOL     OW 5266   0.147   0.652  13.609
 1460SOL    HW1 5267   0.088   0.577  13.601
 1460SOL    HW2 5268   0.101   0.712  13.668
 1461SOL     OW 5269   0.044   1.591  13.172
 1461SOL    HW1 5270   0.037   1.498  13.198
 1461SOL    HW2 5271   3.962   1.630  13.203
 1462SOL     OW 5272   1.684   0.912  13.665
 1462SOL    HW1 5273   1.771   0.880  13.645
 1462SOL    HW2 5274   1.662   0.970  13.592
 1463SOL     OW 5275   1.648   1.102  13.457
 1463SOL    HW1 5276   1.734   1.104  13.415
 1463SOL    HW2 5277   1.656   1.163  13.531
 1464SOL     OW 5278   0.612   1.387  13.761
 1464SOL    HW1 5279   0.562   1.307  13.778
 1464SOL    HW2 5280   0.582   1.416  13.675
 1465SOL     OW 5281   0.821   0.004  13.549
 1465SOL    HW1 5282   0.865   0.085  13.524
 1465SOL    HW2 5283   0.728   0.025  13.546
 1466SOL     OW 5284   1.530   0.994  13.233
 1466SOL    HW1 5285   1.461   0.937  13.266
 1466SOL    HW2 5286   1.572   1.030  13.311
 1467SOL     OW 5287   1.575   1.724  13.607
 1467SOL    HW1 5288   1.580   1.701  13.514
 1467SOL    HW2 5289   1.587   1.641  13.653
 1468SOL     OW 5290   0.594   0.718  13.297
 1468SOL    HW1 5291   0.599   0.802  13.252
 1468SOL    HW2 5292   0.532   0.733  13.368
 1469SOL     OW 5293   1.242   0.339   0.054
 1469SOL    HW1 5294   1.151   0.328   0.082
 1469SOL    HW2 5295   1.293   0.293   0.121
 1470SOL     OW 5296   1.572   1.660  13.336
 1470SOL    HW1 5297   1.667   1.652  13.321
 1470SOL    HW2 5298   1.533   1.649  13.249
 1471SOL     OW 5299   1.050   0.697  13.459
 1471SOL    HW1 5300   1.064   0.684  13.553
 1471SOL    HW2 5301   0.968   0.651  13.441
 1472SOL     OW 5302   0.079   0.841  13.806
 1472SOL    HW1 5303   0.158   0.820  13.856
 1472SOL    HW2 5304   0.077   0.936  13.803
 1473SOL     OW 5305   0.894   0.352  13.231
 1473SOL    HW1 5306   0.936   0.412  13.169
 1473SOL    HW2 5307   0.894   0.267  13.186
 1474SOL     OW 5308   1.365   1.135  13.553
 1474SOL    HW1 5309   1.454   1.135  13.518
 1474SOL    HW2 5310   1.320   1.204  13.504
 1475SOL     OW 5311   0.997   1.438  13.501
 1475SOL    HW1 5312   0.968   1.515  13.453
 1475SOL    HW2 5313   0.968   1.454  13.591
 1476SOL     OW 5314   0.407   1.800  13.858
 1476SOL    HW1 5315   0.415   1.705  13.867
 1476SOL    HW2 5316   0.487   1.835  13.897
 1477SOL     OW 5317   1.790   1.045  13.899
 1477SOL    HW1 5318   1.732   1.047  13.822
 1477SOL    HW2 5319   1.730   1.040   0.074
 1478SOL     OW 5320   0.311   0.954  13.276
 1478SOL    HW1 5321   0.394   0.977  13.235
 1478SOL    HW2 5322   0.298   0.862  13.255
 1479SOL     OW 5323   1.490   0.733  13.752
 1479SOL    HW1 5324   1.480   0.695  13.839
 1479SOL    HW2 5325   1.561   0.798  13.763
 1480SOL     OW 5326   1.122   1.777  13.263
 1480SOL    HW1 5327   1.048   1.738  13.309
 1480SOL    HW2 5328   1.145   1.714  13.195
 1481SOL     OW 5329   1.630   1.384  13.123
 1481SOL    HW1 5330   1.586   1.466  13.103
 1481SOL    HW2 5331   1.565   1.316  13.104
 1482SOL     OW 5332   0.466   1.739  13.349
 1482SOL    HW1 5333   0.508   1.794  13.415
 1482SOL    HW2 5334   0.539   1.704  13.297
 1483SOL     OW 5335   1.429   0.158  13.446
 1483SOL    HW1 5336   1.393   0.108  13.373
 1483SOL    HW2 5337   1.520   0.131  13.451
 1484SOL     OW 5338   0.920   1.688   0.011
 1484SOL    HW1 5339   0.948   1.621   0.073
 1484SOL    HW2 5340   0.883   1.640  13.837
 1485SOL     OW 5341   0.398   0.697  13.502
 1485SOL    HW1 5342   0.425   0.606  13.516
 1485SOL    HW2 5343   0.307   0.699  13.531
 1486SOL     OW 5344   0.645   0.131  13.137
 1486SOL    HW1 5345   0.669   0.047  13.176
 1486SOL    HW2 5346   0.584   0.108  13.067
 1487SOL     OW 5347   0.551   0.055  13.522
 1487SOL    HW1 5348   0.473   0.059  13.578
 1487SOL    HW2 5349   0.550   0.138  13.474
 1488SOL     OW 5350   1.430   1.200  13.076
 1488SOL    HW1 5351   1.459   1.123  13.125
 1488SOL    HW2 5352   1.344   1.221  13.111
 1489SOL     OW 5353   0.344   0.051  13.235
 1489SOL    HW1 5354   0.359   0.092  13.149
 1489SOL    HW2 5355   0.432   0.032  13.267
 1490SOL     OW 5356   0.942   0.248  13.493
 1490SOL    HW1 5357   0.915   0.290  13.411
 1490SOL    HW2 5358   1.037   0.255  13.493
 1491SOL     OW 5359   0.470   1.144  13.767
 1491SOL    HW1 5360   0.398   1.122  13.825
 1491SOL    HW2 5361   0.433   1.134  13.679
 1492SOL     OW 5362   1.261   1.793  13.635
 1492SOL    HW1 5363   1.308   1.860  13.585
 1492SOL    HW2 5364   1.194   1.841  13.683
 1493SOL     OW 5365   1.022   0.543  13.063
 1493SOL    HW1 5366   0.979   0.626  13.043
 1493SOL    HW2 5367   1.086   0.564  13.130
 1494SOL     OW 5368   0.899   0.474  13.669
 1494SOL    HW1 5369   0.827   0.518  13.623
 1494SOL    HW2 5370   0.905   0.388  13.627
 1495SOL     OW 5371   1.001   0.038  13.794
 1495SOL    HW1 5372   0.970   0.064  13.708
 1495SOL    HW2 5373   1.024   3.946  13.785
 1496SOL     OW 5374   1.846   0.818  13.417
 1496SOL    HW1 5375   1.904   0.766  13.473
 1496SOL    HW2 5376   1.816   0.756  13.350
 1497SOL     OW 5377   0.487   1.421  13.194
 1497SOL    HW1 5378   0.411   1.390  13.243
 1497SOL    HW2 5379   0.472   1.389  13.105
 1498SOL     OW 5380   1.680   1.257  13.668
 1498SOL    HW1 5381   1.773   1.264  13.691
 1498SOL    HW2 5382   1.641   1.337  13.701
 1499SOL     OW 5383   1.395   0.576  13.104
 1499SOL    HW1 5384   1.332   0.556  13.174
 1499SOL    HW2 5385   1.481   0.555  13.142
 1500SOL     OW 5386   0.558   0.272  13.352
 1500SOL    HW1 5387   0.604   0.229  13.280
 1500SOL    HW2 5388   0.528   0.355  13.316
 1501SOL     OW 5389   0.708   1.063  13.400
 1501SOL    HW1 5390   0.694   1.048  13.493
 1501SOL    HW2 5391   0.785   1.010  13.378
 1502SOL     OW 5392   0.373   1.103  13.515
 1502SOL    HW1 5393   0.366   1.184  13.464
 1502SOL    HW2 5394   0.370   1.033  13.450
 1503SOL     OW 5395   0.566   0.540  13.863
 1503SOL    HW1 5396   0.579   0.608  13.797
 1503SOL    HW2 5397   0.625   0.565   0.034
 1504SOL     OW 5398   1.239   1.344  13.417
 1504SOL    HW1 5399   1.293   1.419  13.444
 1504SOL    HW2 5400   1.152   1.363  13.451
 1505SOL     OW 5401   1.584   0.633  13.513
 1505SOL    HW1 5402   1.544   0.684  13.584
 1505SOL    HW2 5403   1.626   0.699  13.457
 1506SOL     OW 5404   1.201   0.533  13.294
 1506SOL    HW1 5405   1.208   0.454  13.347
 1506SOL    HW2 5406   1.157   0.596  13.351
 1507SOL     OW 5407   0.334   0.049  13.680
 1507SOL    HW1 5408   0.311   0.141  13.690
 1507SOL    HW2 5409   0.274   0.002  13.739
 1508SOL     OW 5410   1.590   0.391  13.407
 1508SOL    HW1 5411   1.569   0.326  13.474
 1508SOL    HW2 5412   1.580   0.475  13.451
 1509SOL     OW 5413   1.504   0.279  13.166
 1509SOL    HW1 5414   1.432   0.218  13.181
 1509SOL    HW2 5415   1.519   0.319  13.252
 1510SOL     OW 5416   1.288   0.826  13.062
 1510SOL    HW1 5417   1.331   0.741  13.066
 1510SOL    HW2 5418   1.320   0.866  12.981
 1511SOL     OW 5419   0.000   1.318  13.215
 1511SOL    HW1 5420   3.906   1.334  13.219
 1511SOL    HW2 5421   0.009   1.224  13.232
 1512SOL     OW 5422   0.818   0.575  13.388
 1512SOL    HW1 5423   0.822   0.496  13.333
 1512SOL    HW2 5424   0.741   0.622  13.356
 1513SOL     OW 5425   0.452   0.492  13.232
 1513SOL    HW1 5426   0.517   0.561  13.248
 1513SOL    HW2 5427   0.372   0.539  13.208
 1514SOL     OW 5428   1.315   0.851  13.337
 1514SOL    HW1 5429   1.238   0.827  13.388
 1514SOL    HW2 5430   1.288   0.840  13.246
 1515SOL     OW 5431   1.695   0.118  13.460
 1515SOL    HW1 5432   1.787   0.131  13.439
 1515SOL    HW2 5433   1.695   0.050  13.528
 1516SOL     OW 5434   1.366   1.564  13.505
 1516SOL    HW1 5435   1.426   1.600  13.440
 1516SOL    HW2 5436   1.327   1.641  13.547
 1517SOL     OW 5437   1.289   0.913  13.684
 1517SOL    HW1 5438   1.366   0.859  13.671
 1517SOL    HW2 5439   1.311   0.997  13.642
 1518SOL     OW 5440   0.670   1.622  13.189
 1518SOL    HW1 5441   0.681   1.634  13.095
 1518SOL    HW2 5442   0.615   1.545  13.197
 1519SOL     OW 5443   1.826   0.174   0.065
 1519SOL    HW1 5444   1.865   0.087   0.055
 1519SOL    HW2 5445   1.734   0.161   0.040
 1520SOL     OW 5446   0.286   0.309  13.737
 1520SOL    HW1 5447   0.206   0.354  13.711
 1520SOL    HW2 5448   0.292   0.323  13.831
 1521SOL     OW 5449   1.207   1.604  13.066
 1521SOL    HW1 5450   1.197   1.512  13.092
 1521SOL    HW2 5451   1.142   1.617  12.997
 1522SOL     OW 5452   0.918   0.913  13.329
 1522SOL    HW1 5453   0.978   0.943  13.260
 1522SOL    HW2 5454   0.964   0.839  13.370
 1523SOL     OW 5455   1.487   1.625  13.075
 1523SOL    HW1 5456   1.393   1.618  13.059
 1523SOL    HW2 5457   1.526   1.633  12.988
 1524SOL     OW 5458   1.050   1.091  13.755
 1524SOL    HW1 5459   0.963   1.053  13.741
 1524SOL    HW2 5460   1.104   1.053  13.686
 1525SOL     OW 5461   0.602   1.493  13.506
 1525SOL    HW1 5462   0.647   1.441  13.439
 1525SOL    HW2 5463   0.527   1.531  13.459
 1526SOL     OW 5464   0.253   1.340  13.325
 1526SOL    HW1 5465   0.159   1.348  13.306
 1526SOL    HW2 5466   0.263   1.379  13.412
 1527SOL     OW 5467   0.088   0.322  13.061
 1527SOL    HW1 5468   3.992   0.320  13.052
 1527SOL    HW2 5469   0.113   0.404  13.019
 1528SOL     OW 5470   0.043   0.170  13.306
 1528SOL    HW1 5471   0.044   0.233  13.234
 1528SOL    HW2 5472   0.120   0.191  13.359
 1529SOL     OW 5473   1.177   1.337  13.148
 1529SOL    HW1 5474   1.086   1.308  13.149
 1529SOL    HW2 5475   1.204   1.337  13.240
 1530SOL     OW 5476   1.221   0.331  13.482
 1530SOL    HW1 5477   1.290   0.265  13.472
 1530SOL    HW2 5478   1.247   0.381  13.559
 1531SOL     OW 5479   0.594   0.750  13.692
 1531SOL    HW1 5480   0.628   0.838  13.673
 1531SOL    HW2 5481   0.524   0.737  13.627
 1532SOL     OW 5482   0.863   1.366  13.071
 1532SOL    HW1 5483   0.825   1.393  13.155
 1532SOL    HW2 5484   0.879   1.447  13.024
 1533SOL     OW 5485   0.659   1.855   0.060
 1533SOL    HW1 5486   0.677   1.947   0.045
 1533SOL    HW2 5487   0.745   1.815   0.074
 1534SOL     OW 5488   0.827   0.965  13.897
 1534SOL    HW1 5489   0.854   0.883   0.037
 1534SOL    HW2 5490   0.855   1.032   0.059
 1535SOL     OW 5491   1.076   0.987  13.123
 1535SOL    HW1 5492   1.055   1.039  13.046
 1535SOL    HW2 5493   1.151   0.933  13.096
 1536SOL     OW 5494   0.115   1.275  13.758
 1536SOL    HW1 5495   0.052   1.234  13.817
 1536SOL    HW2 5496   0.121   1.215  13.683
 1537SOL     OW 5497   0.450   0.440  13.557
 1537SOL    HW1 5498   0.473   0.366  13.501
 1537SOL    HW2 5499   0.404   0.401  13.631
 1538SOL     OW 5500   1.704   1.505   0.318
 1538SOL    HW1 5501   1.669   1.453   0.247
 1538SOL    HW2 5502   1.766   1.447   0.362
 1539SOL     OW 5503   0.821   1.552  13.705
 1539SOL    HW1 5504   0.793   1.608  13.633
 1539SOL    HW2 5505   0.745   1.495  13.721
 1540SOL     OW 5506   0.772   1.334  13.348
 1540SOL    HW1 5507   0.744   1.243  13.356
 1540SOL    HW2 5508   0.853   1.339  13.399
 1541SOL     OW 5509   1.312   0.078  13.206
 1541SOL    HW1 5510   1.335   0.001  13.153
 1541SOL    HW2 5511   1.224   0.059  13.238
 1542SOL     OW 5512   1.291   0.459  13.715
 1542SOL    HW1 5513   1.242   0.541  13.715
 1542SOL    HW2 5514   1.285   0.428  13.805
 1543SOL     OW 5515   0.047   1.049  13.270
 1543SOL    HW1 5516   0.141   1.032  13.262
 1543SOL    HW2 5517   0.011   0.967  13.304
 1544SOL     OW 5518   0.887   1.656  13.374
 1544SOL    HW1 5519   0.813   1.640  13.316
 1544SOL    HW2 5520   0.859   1.728  13.430
 1545SOL     OW 5521   0.231   2.513   0.120
 1545SOL    HW1 5522   0.137   2.506   0.134
 1545SOL    HW2 5523   0.247   2.470   0.036
 1546SOL     OW 5524   0.229   2.134   0.987
 1546SOL    HW1 5525   0.250   2.100   1.074
 1546SOL    HW2 5526   0.134   2.126   0.981
 1547SOL     OW 5527   0.010   2.224   0.631
 1547SOL    HW1 5528   3.924   2.242   0.668
 1547SOL    HW2 5529   3.992   2.191   0.543
 1548SOL     OW 5530   0.580   3.151   1.190
 1548SOL    HW1 5531   0.493   3.154   1.148
 1548SOL    HW2 5532   0.594   3.239   1.223
 1549SOL     OW 5533   1.564   3.372   0.708
 1549SOL    HW1 5534   1.519   3.350   0.790
 1549SOL    HW2 5535   1.494   3.375   0.642
 1550SOL     OW 5536   1.132   2.560   0.699
 1550SOL    HW1 5537   1.180   2.641   0.686
 1550SOL    HW2 5538   1.085   2.573   0.782
 1551SOL     OW 5539   1.768   2.461   0.226
 1551SOL    HW1 5540   1.793   2.411   0.149
 1551SOL    HW2 5541   1.724   2.398   0.283
 1552SOL     OW 5542   0.752   3.001   1.042
 1552SOL    HW1 5543   0.689   3.037   1.103
 1552SOL    HW2 5544   0.789   3.077   0.997
 1553SOL     OW 5545   0.870   2.631   1.823
 1553SOL    HW1 5546   0.861   2.702   1.886
 1553SOL    HW2 5547   0.893   2.675   1.741
 1554SOL     OW 5548   0.684   2.862   0.647
 1554SOL    HW1 5549   0.751   2.852   0.715
 1554SOL    HW2 5550   0.616   2.915   0.688
 1555SOL     OW 5551   0.712   3.011   1.816
 1555SOL    HW1 5552   0.760   3.089   1.845
 1555SOL    HW2 5553   0.631   3.046   1.779
 1556SOL     OW 5554   0.351   3.263   1.077
 1556SOL    HW1 5555   0.268   3.250   1.031
 1556SOL    HW2 5556   0.401   3.322   1.021
 1557SOL     OW 5557   1.460   3.363   1.357
 1557SOL    HW1 5558   1.513   3.441   1.367
 1557SOL    HW2 5559   1.393   3.370   1.425
 1558SOL     OW 5560   0.450   2.260   1.486
 1558SOL    HW1 5561   0.525   2.201   1.491
 1558SOL    HW2 5562   0.374   2.204   1.500
 1559SOL     OW 5563   1.604   2.301   0.735
 1559SOL    HW1 5564   1.523   2.323   0.690
 1559SOL    HW2 5565   1.628   2.380   0.783
 1560SOL     OW 5566   0.226   3.572   0.471
 1560SOL    HW1 5567   0.221   3.656   0.515
 1560SOL    HW2 5568   0.301   3.579   0.412
 1561SOL     OW 5569   1.137   3.203   1.693
 1561SOL    HW1 5570   1.178   3.197   1.780
 1561SOL    HW2 5571   1.085   3.124   1.686
 1562SOL     OW 5572   0.244   3.307   0.543
 1562SOL    HW1 5573   0.223   3.399   0.527
 1562SOL    HW2 5574   0.170   3.275   0.594
 1563SOL     OW 5575   0.247   2.928   0.883
 1563SOL    HW1 5576   0.268   2.844   0.923
 1563SOL    HW2 5577   0.195   2.974   0.949
 1564SOL     OW 5578   0.611   3.648   1.428
 1564SOL    HW1 5579   0.529   3.634   1.474
 1564SOL    HW2 5580   0.637   3.737   1.452
 1565SOL     OW 5581   0.562   2.844   0.165
 1565SOL    HW1 5582   0.588   2.886   0.083
 1565SOL    HW2 5583   0.617   2.883   0.232
 1566SOL     OW 5584   1.563   1.993   1.449
 1566SOL    HW1 5585   1.576   2.079   1.409
 1566SOL    HW2 5586   1.563   2.011   1.543
 1567SOL     OW 5587   0.141   2.518   0.572
 1567SOL    HW1 5588   0.087   2.438   0.573
 1567SOL    HW2 5589   0.106   2.571   0.644
 1568SOL     OW 5590   1.838   3.605   0.337
 1568SOL    HW1 5591   1.900   3.572   0.402
 1568SOL    HW2 5592   1.862   3.697   0.326
 1569SOL     OW 5593   0.030   3.469   0.139
 1569SOL    HW1 5594   0.033   3.374   0.156
 1569SOL    HW2 5595   3.936   3.490   0.145
 1570SOL     OW 5596   1.688   2.779   0.643
 1570SOL    HW1 5597   1.770   2.736   0.618
 1570SOL    HW2 5598   1.664   2.832   0.567
 1571SOL     OW 5599   1.648   2.966   0.432
 1571SOL    HW1 5600   1.735   2.969   0.392
 1571SOL    HW2 5601   1.651   3.030   0.503
 1572SOL     OW 5602   0.139   2.615   1.589
 1572SOL    HW1 5603   0.235   2.610   1.586
 1572SOL    HW2 5604   0.121   2.703   1.621
 1573SOL     OW 5605   0.616   3.248   0.735
 1573SOL    HW1 5606   0.568   3.165   0.744
 1573SOL    HW2 5607   0.599   3.275   0.645
 1574SOL     OW 5608   1.287   3.098   1.422
 1574SOL    HW1 5609   1.319   3.031   1.362
 1574SOL    HW2 5610   1.346   3.094   1.498
 1575SOL     OW 5611   0.822   1.862   0.513
 1575SOL    HW1 5612   0.861   1.947   0.490
 1575SOL    HW2 5613   0.728   1.881   0.519
 1576SOL     OW 5614   0.184   2.812   1.280
 1576SOL    HW1 5615   0.272   2.777   1.267
 1576SOL    HW2 5616   0.132   2.774   1.209
 1577SOL     OW 5617   1.530   2.860   0.205
 1577SOL    HW1 5618   1.462   2.801   0.238
 1577SOL    HW2 5619   1.571   2.896   0.283
 1578SOL     OW 5620   1.218   3.666   1.627
 1578SOL    HW1 5621   1.194   3.727   1.557
 1578SOL    HW2 5622   1.219   3.580   1.585
 1579SOL     OW 5623   0.342   2.109   1.816
 1579SOL    HW1 5624   0.378   2.197   1.824
 1579SOL    HW2 5625   0.250   2.119   1.841
 1580SOL     OW 5626   1.466   3.281   0.950
 1580SOL    HW1 5627   1.398   3.296   1.016
 1580SOL    HW2 5628   1.453   3.190   0.924
 1581SOL     OW 5629   1.659   3.601   0.588
 1581SOL    HW1 5630   1.643   3.577   0.497
 1581SOL    HW2 5631   1.634   3.523   0.638
 1582SOL     OW 5632   0.598   2.579   0.266
 1582SOL    HW1 5633   0.599   2.662   0.218
 1582SOL    HW2 5634   0.537   2.593   0.338
 1583SOL     OW 5635   1.280   2.221   0.934
 1583SOL    HW1 5636   1.191   2.186   0.944
 1583SOL    HW2 5637   1.334   2.166   0.990
 1584SOL     OW 5638   1.561   3.593   0.314
 1584SOL    HW1 5639   1.657   3.593   0.312
 1584SOL    HW2 5640   1.535   3.559   0.229
 1585SOL     OW 5641   0.791   2.480   1.450
 1585SOL    HW1 5642   0.765   2.455   1.539
 1585SOL    HW2 5643   0.754   2.412   1.394
 1586SOL     OW 5644   1.393   2.335   1.678
 1586SOL    HW1 5645   1.396   2.381   1.762
 1586SOL    HW2 5646   1.455   2.262   1.688
 1587SOL     OW 5647   0.952   2.748   1.584
 1587SOL    HW1 5648   1.007   2.679   1.547
 1587SOL    HW2 5649   0.904   2.783   1.509
 1588SOL     OW 5650   0.993   2.273   1.237
 1588SOL    HW1 5651   0.905   2.293   1.270
 1588SOL    HW2 5652   0.977   2.229   1.153
 1589SOL     OW 5653   1.052   2.563   0.429
 1589SOL    HW1 5654   1.069   2.554   0.523
 1589SOL    HW2 5655   0.969   2.517   0.415
 1590SOL     OW 5656   0.082   2.690   0.791
 1590SOL    HW1 5657   0.157   2.660   0.843
 1590SOL    HW2 5658   0.099   2.784   0.777
 1591SOL     OW 5659   0.127   3.718   1.578
 1591SOL    HW1 5660   0.135   3.686   1.668
 1591SOL    HW2 5661   0.035   3.705   1.555
 1592SOL     OW 5662   0.869   2.222   0.215
 1592SOL    HW1 5663   0.908   2.283   0.153
 1592SOL    HW2 5664   0.883   2.136   0.177
 1593SOL     OW 5665   1.682   2.447   1.830
 1593SOL    HW1 5666   1.652   2.519   1.774
 1593SOL    HW2 5667   1.721   2.385   1.769
 1594SOL     OW 5668   1.379   3.004   0.543
 1594SOL    HW1 5669   1.457   2.992   0.489
 1594SOL    HW2 5670   1.325   3.067   0.495
 1595SOL     OW 5671   0.546   2.040   0.895
 1595SOL    HW1 5672   0.553   2.072   0.985
 1595SOL    HW2 5673   0.547   2.120   0.841
 1596SOL     OW 5674   1.003   3.305   0.474
 1596SOL    HW1 5675   0.971   3.379   0.424
 1596SOL    HW2 5676   0.982   3.326   0.565
 1597SOL     OW 5677   0.359   3.670   0.863
 1597SOL    HW1 5678   0.438   3.618   0.875
 1597SOL    HW2 5679   0.388   3.761   0.871
 1598SOL     OW 5680   1.800   2.912   0.870
 1598SOL    HW1 5681   1.746   2.898   0.792
 1598SOL    HW2 5682   1.737   2.921   0.942
 1599SOL     OW 5683   1.228   3.399   1.511
 1599SOL    HW1 5684   1.215   3.327   1.572
 1599SOL    HW2 5685   1.159   3.387   1.445
 1600SOL     OW 5686   0.309   2.793   0.241
 1600SOL    HW1 5687   0.400   2.807   0.214
 1600SOL    HW2 5688   0.297   2.698   0.235
 1601SOL     OW 5689   1.481   2.605   0.724
 1601SOL    HW1 5690   1.474   2.565   0.811
 1601SOL    HW2 5691   1.557   2.662   0.729
 1602SOL     OW 5692   0.468   3.122   1.737
 1602SOL    HW1 5693   0.442   3.130   1.645
 1602SOL    HW2 5694   0.386   3.126   1.785
 1603SOL     OW 5695   1.126   3.639   0.232
 1603SOL    HW1 5696   1.062   3.594   0.286
 1603SOL    HW2 5697   1.152   3.574   0.166
 1604SOL     OW 5698   0.204   2.135   1.508
 1604SOL    HW1 5699   0.114   2.168   1.502
 1604SOL    HW2 5700   0.195   2.048   1.547
 1605SOL     OW 5701   1.635   3.237   0.086
 1605SOL    HW1 5702   1.600   3.320   0.055
 1605SOL    HW2 5703   1.566   3.173   0.067
 1606SOL     OW 5704   0.466   3.604   0.321
 1606SOL    HW1 5705   0.504   3.666   0.384
 1606SOL    HW2 5706   0.542   3.571   0.271
 1607SOL     OW 5707   1.404   1.967   0.433
 1607SOL    HW1 5708   1.387   1.949   0.340
 1607SOL    HW2 5709   1.488   1.923   0.451
 1608SOL     OW 5710   0.253   3.656   1.226
 1608SOL    HW1 5711   0.297   3.589   1.279
 1608SOL    HW2 5712   0.251   3.620   1.138
 1609SOL     OW 5713   0.938   3.563   0.900
 1609SOL    HW1 5714   1.016   3.512   0.921
 1609SOL    HW2 5715   0.894   3.513   0.830
 1610SOL     OW 5716   0.398   2.557   0.471
 1610SOL    HW1 5717   0.421   2.465   0.484
 1610SOL    HW2 5718   0.306   2.562   0.499
 1611SOL     OW 5719   1.532   2.081   1.723
 1611SOL    HW1 5720   1.545   2.102   1.816
 1611SOL    HW2 5721   1.459   2.019   1.722
 1612SOL     OW 5722   0.765   2.141   1.755
 1612SOL    HW1 5723   0.844   2.086   1.753
 1612SOL    HW2 5724   0.719   2.112   1.834
 1613SOL     OW 5725   0.876   3.382   1.194
 1613SOL    HW1 5726   0.859   3.346   1.107
 1613SOL    HW2 5727   0.946   3.328   1.230
 1614SOL     OW 5728   1.341   2.451   1.432
 1614SOL    HW1 5729   1.371   2.420   1.518
 1614SOL    HW2 5730   1.376   2.539   1.425
 1615SOL     OW 5731   0.817   3.253   0.942
 1615SOL    HW1 5732   0.902   3.242   0.899
 1615SOL    HW2 5733   0.754   3.257   0.870
 1616SOL     OW 5734   0.928   2.371   0.901
 1616SOL    HW1 5735   0.904   2.363   0.809
 1616SOL    HW2 5736   0.959   2.284   0.926
 1617SOL     OW 5737   0.557   1.922   0.502
 1617SOL    HW1 5738   0.476   1.920   0.553
 1617SOL    HW2 5739   0.550   2.000   0.447
 1618SOL     OW 5740   1.431   3.069   0.044
 1618SOL    HW1 5741   1.450   2.988   0.092
 1618SOL    HW2 5742   1.339   3.087   0.064
 1619SOL     OW 5743   0.262   1.872   0.216
 1619SOL    HW1 5744   0.292   1.956   0.181
 1619SOL    HW2 5745   0.342   1.825   0.239
 1620SOL     OW 5746   0.942   2.109   0.461
 1620SOL    HW1 5747   0.911   2.149   0.380
 1620SOL    HW2 5748   1.036   2.127   0.462
 1621SOL     OW 5749   1.080   2.544   1.458
 1621SOL    HW1 5750   1.013   2.476   1.463
 1621SOL    HW2 5751   1.163   2.496   1.453
 1622SOL     OW 5752   1.221   3.433   0.795
 1622SOL    HW1 5753   1.236   3.499   0.727
 1622SOL    HW2 5754   1.291   3.448   0.858
 1623SOL     OW 5755   0.465   3.013   0.733
 1623SOL    HW1 5756   0.395   2.989   0.793
 1623SOL    HW2 5757   0.428   2.999   0.646
 1624SOL     OW 5758   1.266   3.657   0.608
 1624SOL    HW1 5759   1.314   3.721   0.556
 1624SOL    HW2 5760   1.194   3.707   0.646
 1625SOL     OW 5761   0.996   2.406   0.055
 1625SOL    HW1 5762   0.993   2.390  13.861
 1625SOL    HW2 5763   1.089   2.397   0.078
 1626SOL     OW 5764   0.082   2.435   1.389
 1626SOL    HW1 5765   0.172   2.421   1.359
 1626SOL    HW2 5766   0.089   2.504   1.455
 1627SOL     OW 5767   0.567   2.089   1.166
 1627SOL    HW1 5768   0.608   2.014   1.209
 1627SOL    HW2 5769   0.475   2.085   1.195
 1628SOL     OW 5770   0.867   2.320   0.639
 1628SOL    HW1 5771   0.824   2.376   0.574
 1628SOL    HW2 5772   0.889   2.240   0.592
 1629SOL     OW 5773   1.017   1.915   0.749
 1629SOL    HW1 5774   0.958   1.910   0.674
 1629SOL    HW2 5775   0.993   1.840   0.804
 1630SOL     OW 5776   1.438   3.023   0.857
 1630SOL    HW1 5777   1.367   2.959   0.856
 1630SOL    HW2 5778   1.462   3.034   0.765
 1631SOL     OW 5779   1.463   2.469   0.973
 1631SOL    HW1 5780   1.410   2.390   0.974
 1631SOL    HW2 5781   1.521   2.461   1.049
 1632SOL     OW 5782   1.847   2.672   0.382
 1632SOL    HW1 5783   1.902   2.620   0.440
 1632SOL    HW2 5784   1.816   2.610   0.316
 1633SOL     OW 5785   0.492   3.245   0.165
 1633SOL    HW1 5786   0.420   3.214   0.220
 1633SOL    HW2 5787   0.449   3.290   0.092
 1634SOL     OW 5788   1.673   3.124   0.647
 1634SOL    HW1 5789   1.767   3.127   0.659
 1634SOL    HW2 5790   1.643   3.214   0.661
 1635SOL     OW 5791   1.421   2.444   0.087
 1635SOL    HW1 5792   1.352   2.437   0.153
 1635SOL    HW2 5793   1.463   2.357   0.087
 1636SOL     OW 5794   0.533   2.124   0.326
 1636SOL    HW1 5795   0.583   2.090   0.252
 1636SOL    HW2 5796   0.500   2.209   0.296
 1637SOL     OW 5797   1.751   3.103   1.568
 1637SOL    HW1 5798   1.839   3.065   1.564
 1637SOL    HW2 5799   1.766   3.194   1.596
 1638SOL     OW 5800   1.056   3.214   1.332
 1638SOL    HW1 5801   0.981   3.184   1.383
 1638SOL    HW2 5802   1.132   3.173   1.374
 1639SOL     OW 5803   1.610   3.488   1.656
 1639SOL    HW1 5804   1.601   3.522   1.567
 1639SOL    HW2 5805   1.693   3.440   1.656
 1640SOL     OW 5806   1.132   3.067   1.103
 1640SOL    HW1 5807   1.073   3.105   1.168
 1640SOL    HW2 5808   1.100   3.101   1.020
 1641SOL     OW 5809   1.626   2.959   1.076
 1641SOL    HW1 5810   1.620   3.022   1.149
 1641SOL    HW2 5811   1.549   2.978   1.023
 1642SOL     OW 5812   0.918   1.957   1.394
 1642SOL    HW1 5813   0.941   1.939   1.303
 1642SOL    HW2 5814   0.997   1.997   1.431
 1643SOL     OW 5815   0.984   2.977   1.723
 1643SOL    HW1 5816   0.893   2.993   1.745
 1643SOL    HW2 5817   0.982   2.899   1.668
 1644SOL     OW 5818   0.715   2.922   0.377
 1644SOL    HW1 5819   0.701   2.903   0.470
 1644SOL    HW2 5820   0.790   2.867   0.353
 1645SOL     OW 5821   0.422   2.678   1.252
 1645SOL    HW1 5822   0.490   2.687   1.319
 1645SOL    HW2 5823   0.388   2.590   1.264
 1646SOL     OW 5824   1.265   2.237   1.278
 1646SOL    HW1 5825   1.297   2.315   1.323
 1646SOL    HW2 5826   1.174   2.259   1.255
 1647SOL     OW 5827   0.065   3.441   1.346
 1647SOL    HW1 5828   0.070   3.495   1.266
 1647SOL    HW2 5829   0.156   3.430   1.373
 1648SOL     OW 5830   0.361   2.965   0.481
 1648SOL    HW1 5831   0.354   3.043   0.426
 1648SOL    HW2 5832   0.380   2.894   0.419
 1649SOL     OW 5833   0.550   2.396   0.861
 1649SOL    HW1 5834   0.564   2.453   0.786
 1649SOL    HW2 5835   0.617   2.423   0.924
 1650SOL     OW 5836   1.248   3.209   0.399
 1650SOL    HW1 5837   1.304   3.282   0.425
 1650SOL    HW2 5838   1.161   3.233   0.431
 1651SOL     OW 5839   1.284   3.321   1.148
 1651SOL    HW1 5840   1.340   3.325   1.226
 1651SOL    HW2 5841   1.228   3.245   1.163
 1652SOL     OW 5842   1.578   2.490   0.477
 1652SOL    HW1 5843   1.530   2.533   0.547
 1652SOL    HW2 5844   1.608   2.561   0.420
 1653SOL     OW 5845   0.345   3.389   1.317
 1653SOL    HW1 5846   0.335   3.339   1.236
 1653SOL    HW2 5847   0.439   3.404   1.325
 1654SOL     OW 5848   0.416   2.601   1.601
 1654SOL    HW1 5849   0.479   2.646   1.545
 1654SOL    HW2 5850   0.456   2.515   1.618
 1655SOL     OW 5851   1.601   2.649   1.676
 1655SOL    HW1 5852   1.515   2.691   1.671
 1655SOL    HW2 5853   1.653   2.694   1.609
 1656SOL     OW 5854   0.996   1.990   1.753
 1656SOL    HW1 5855   1.054   2.062   1.729
 1656SOL    HW2 5856   1.044   1.911   1.729
 1657SOL     OW 5857   0.497   1.897   1.746
 1657SOL    HW1 5858   0.453   1.845   1.679
 1657SOL    HW2 5859   0.443   1.975   1.755
 1658SOL     OW 5860   0.585   2.736   1.032
 1658SOL    HW1 5861   0.618   2.826   1.033
 1658SOL    HW2 5862   0.529   2.730   1.109
 1659SOL     OW 5863   1.354   2.720   1.026
 1659SOL    HW1 5864   1.269   2.709   0.983
 1659SOL    HW2 5865   1.396   2.635   1.018
 1660SOL     OW 5866   1.219   2.404   0.273
 1660SOL    HW1 5867   1.222   2.324   0.325
 1660SOL    HW2 5868   1.163   2.463   0.322
 1661SOL     OW 5869   0.310   2.058   1.247
 1661SOL    HW1 5870   0.264   2.095   1.322
 1661SOL    HW2 5871   0.287   1.965   1.248
 1662SOL     OW 5872   0.060   3.167   1.280
 1662SOL    HW1 5873   0.091   3.127   1.362
 1662SOL    HW2 5874   0.052   3.260   1.301
 1663SOL     OW 5875   0.723   2.493   1.055
 1663SOL    HW1 5876   0.799   2.478   0.999
 1663SOL    HW2 5877   0.695   2.582   1.035
 1664SOL     OW 5878   1.736   2.821   1.854
 1664SOL    HW1 5879   1.690   2.758   1.799
 1664SOL    HW2 5880   1.676   2.836   1.927
 1665SOL     OW 5881   0.315   1.923   0.623
 1665SOL    HW1 5882   0.292   2.014   0.644
 1665SOL    HW2 5883   0.320   1.880   0.708
 1666SOL     OW 5884   1.623   2.242   0.380
 1666SOL    HW1 5885   1.622   2.182   0.455
 1666SOL    HW2 5886   1.596   2.326   0.417
 1667SOL     OW 5887   1.028   2.620   0.959
 1667SOL    HW1 5888   1.022   2.638   1.053
 1667SOL    HW2 5889   1.002   2.529   0.950
 1668SOL     OW 5890   0.986   3.430   1.720
 1668SOL    HW1 5891   0.967   3.471   1.636
 1668SOL    HW2 5892   1.027   3.347   1.697
 1669SOL     OW 5893   1.854   3.365   1.604
 1669SOL    HW1 5894   1.873   3.393   1.515
 1669SOL    HW2 5895   1.934   3.382   1.653
 1670SOL     OW 5896   0.353   2.784   1.800
 1670SOL    HW1 5897   0.431   2.805   1.851
 1670SOL    HW2 5898   0.381   2.716   1.738
 1671SOL     OW 5899   1.520   2.163   0.140
 1671SOL    HW1 5900   1.499   2.070   0.148
 1671SOL    HW2 5901   1.560   2.186   0.224
 1672SOL     OW 5902   1.292   2.690   0.055
 1672SOL    HW1 5903   1.339   2.607   0.060
 1672SOL    HW2 5904   1.310   2.724  13.868
 1673SOL     OW 5905   1.068   3.199   0.855
 1673SOL    HW1 5906   1.071   3.127   0.792
 1673SOL    HW2 5907   1.127   3.265   0.820
 1674SOL     OW 5908   0.314   2.664   0.949
 1674SOL    HW1 5909   0.408   2.682   0.944
 1674SOL    HW2 5910   0.308   2.574   0.982
 1675SOL     OW 5911   0.330   2.383   1.014
 1675SOL    HW1 5912   0.296   2.295   0.998
 1675SOL    HW2 5913   0.406   2.390   0.957
 1676SOL     OW 5914   1.134   2.236   1.684
 1676SOL    HW1 5915   1.086   2.291   1.746
 1676SOL    HW2 5916   1.222   2.275   1.681
 1677SOL     OW 5917   1.160   2.063   1.471
 1677SOL    HW1 5918   1.149   2.126   1.542
 1677SOL    HW2 5919   1.202   2.113   1.401
 1678SOL     OW 5920   0.013   3.189   0.190
 1678SOL    HW1 5921   3.919   3.204   0.183
 1678SOL    HW2 5922   0.021   3.097   0.215
 1679SOL     OW 5923   0.075   3.664   0.895
 1679SOL    HW1 5924   0.091   3.569   0.892
 1679SOL    HW2 5925   0.163   3.702   0.894
 1680SOL     OW 5926   0.507   3.425   0.918
 1680SOL    HW1 5927   0.573   3.492   0.937
 1680SOL    HW2 5928   0.550   3.367   0.855
 1681SOL     OW 5929   0.979   2.651   1.225
 1681SOL    HW1 5930   1.037   2.631   1.298
 1681SOL    HW2 5931   0.894   2.614   1.250
 1682SOL     OW 5932   0.038   2.420   1.109
 1682SOL    HW1 5933   0.121   2.397   1.067
 1682SOL    HW2 5934   0.057   2.417   1.203
 1683SOL     OW 5935   0.207   2.375   1.728
 1683SOL    HW1 5936   0.245   2.327   1.654
 1683SOL    HW2 5937   0.160   2.448   1.687
 1684SOL     OW 5938   1.375   2.801   1.657
 1684SOL    HW1 5939   1.397   2.894   1.654
 1684SOL    HW2 5940   1.371   2.774   1.565
 1685SOL     OW 5941   0.814   2.439   0.375
 1685SOL    HW1 5942   0.825   2.364   0.317
 1685SOL    HW2 5943   0.743   2.489   0.337
 1686SOL     OW 5944   1.639   2.464   1.184
 1686SOL    HW1 5945   1.628   2.409   1.262
 1686SOL    HW2 5946   1.724   2.439   1.149
 1687SOL     OW 5947   0.300   3.407   1.726
 1687SOL    HW1 5948   0.251   3.476   1.771
 1687SOL    HW2 5949   0.268   3.326   1.766
 1688SOL     OW 5950   0.707   2.311   1.257
 1688SOL    HW1 5951   0.654   2.237   1.228
 1688SOL    HW2 5952   0.701   2.374   1.185
 1689SOL     OW 5953   0.928   3.533   1.469
 1689SOL    HW1 5954   0.901   3.496   1.385
 1689SOL    HW2 5955   0.920   3.628   1.456
 1690SOL     OW 5956   0.430   2.356   0.234
 1690SOL    HW1 5957   0.505   2.415   0.239
 1690SOL    HW2 5958   0.359   2.411   0.202
 1691SOL     OW 5959   0.156   2.997   1.476
 1691SOL    HW1 5960   0.156   2.946   1.557
 1691SOL    HW2 5961   0.171   2.932   1.407
 1692SOL     OW 5962   1.324   2.907   1.221
 1692SOL    HW1 5963   1.346   2.844   1.153
 1692SOL    HW2 5964   1.255   2.961   1.182
 1693SOL     OW 5965   1.314   2.720   0.327
 1693SOL    HW1 5966   1.240   2.685   0.376
 1693SOL    HW2 5967   1.291   2.705   0.235
 1694SOL     OW 5968   1.772   3.602   1.151
 1694SOL    HW1 5969   1.834   3.630   1.084
 1694SOL    HW2 5970   1.750   3.512   1.127
 1695SOL     OW 5971   1.244   3.595   1.109
 1695SOL    HW1 5972   1.327   3.616   1.066
 1695SOL    HW2 5973   1.251   3.501   1.128
 1696SOL     OW 5974   0.076   3.075   1.028
 1696SOL    HW1 5975   0.084   3.103   1.119
 1696SOL    HW2 5976   3.984   3.087   1.007
 1697SOL     OW 5977   0.679   3.527   1.733
 1697SOL    HW1 5978   0.621   3.603   1.737
 1697SOL    HW2 5979   0.739   3.546   1.661
 1698SOL     OW 5980   0.928   1.972   0.129
 1698SOL    HW1 5981   0.962   1.961   0.040
 1698SOL    HW2 5982   0.977   1.908   0.181
 1699SOL     OW 5983   1.390   3.434   0.486
 1699SOL    HW1 5984   1.452   3.469   0.423
 1699SOL    HW2 5985   1.342   3.511   0.518
 1700SOL     OW 5986   0.170   3.623   1.832
 1700SOL    HW1 5987   0.115   3.570   1.890
 1700SOL    HW2 5988   0.217   3.682   1.890
 1701SOL     OW 5989   1.277   2.788   0.671
 1701SOL    HW1 5990   1.351   2.727   0.679
 1701SOL    HW2 5991   1.311   2.860   0.618
 1702SOL     OW 5992   0.810   3.136   1.428
 1702SOL    HW1 5993   0.782   3.177   1.510
 1702SOL    HW2 5994   0.740   3.155   1.366
 1703SOL     OW 5995   0.673   3.448   0.190
 1703SOL    HW1 5996   0.659   3.490   0.105
 1703SOL    HW2 5997   0.627   3.365   0.184
 1704SOL     OW 5998   1.622   3.588   1.390
 1704SOL    HW1 5999   1.674   3.593   1.309
 1704SOL    HW2 6000   1.609   3.679   1.415
 1705SOL     OW 6001   0.266   2.174   0.717
 1705SOL    HW1 6002   0.180   2.207   0.692
 1705SOL    HW2 6003   0.261   2.165   0.812
 1706SOL     OW 6004   1.222   3.461   0.034
 1706SOL    HW1 6005   1.210   3.369   0.061
 1706SOL    HW2 6006   1.177   3.467  13.850
 1707SOL     OW 6007   0.823   2.868   1.373
 1707SOL    HW1 6008   0.868   2.863   1.289
 1707SOL    HW2 6009   0.821   2.961   1.394
 1708SOL     OW 6010   0.922   2.774   0.289
 1708SOL    HW1 6011   0.992   2.812   0.236
 1708SOL    HW2 6012   0.966   2.702   0.336
 1709SOL     OW 6013   1.486   3.508   0.065
 1709SOL    HW1 6014   1.393   3.486   0.057
 1709SOL    HW2 6015   1.521   3.498  13.877
 1710SOL     OW 6016   0.374   3.165   1.491
 1710SOL    HW1 6017   0.359   3.245   1.441
 1710SOL    HW2 6018   0.297   3.111   1.474
 1711SOL     OW 6019   1.609   3.145   1.280
 1711SOL    HW1 6020   1.670   3.133   1.353
 1711SOL    HW2 6021   1.549   3.213   1.310
 1712SOL     OW 6022   1.056   2.970   0.708
 1712SOL    HW1 6023   0.985   2.919   0.746
 1712SOL    HW2 6024   1.119   2.905   0.679
 1713SOL     OW 6025   1.023   2.103   0.966
 1713SOL    HW1 6026   1.019   2.056   0.883
 1713SOL    HW2 6027   1.018   2.034   1.033
 1714SOL     OW 6028   0.607   3.349   0.482
 1714SOL    HW1 6029   0.653   3.300   0.413
 1714SOL    HW2 6030   0.536   3.394   0.436
 1715SOL     OW 6031   1.731   2.248   1.378
 1715SOL    HW1 6032   1.801   2.313   1.383
 1715SOL    HW2 6033   1.767   2.179   1.322
 1716SOL     OW 6034   0.264   3.178   0.309
 1716SOL    HW1 6035   0.185   3.205   0.262
 1716SOL    HW2 6036   0.262   3.227   0.390
 1717SOL     OW 6037   0.107   2.859   1.717
 1717SOL    HW1 6038   0.047   2.853   1.791
 1717SOL    HW2 6039   0.193   2.841   1.755
 1718SOL     OW 6040   0.676   2.058   1.500
 1718SOL    HW1 6041   0.760   2.037   1.459
 1718SOL    HW2 6042   0.699   2.090   1.587
 1719SOL     OW 6043   0.051   2.222   0.036
 1719SOL    HW1 6044   3.961   2.228   0.067
 1719SOL    HW2 6045   0.044   2.229  13.841
 1720SOL     OW 6046   1.428   2.720   1.398
 1720SOL    HW1 6047   1.379   2.781   1.343
 1720SOL    HW2 6048   1.517   2.723   1.364
 1721SOL     OW 6049   0.053   2.037   0.313
 1721SOL    HW1 6050   0.081   2.102   0.249
 1721SOL    HW2 6051   0.114   1.964   0.302
 1722SOL     OW 6052   1.186   3.207   0.123
 1722SOL    HW1 6053   1.091   3.197   0.112
 1722SOL    HW2 6054   1.201   3.194   0.216
 1723SOL     OW 6055   0.620   2.692   1.436
 1723SOL    HW1 6056   0.676   2.768   1.421
 1723SOL    HW2 6057   0.680   2.619   1.444
 1724SOL     OW 6058   1.486   3.642   0.981
 1724SOL    HW1 6059   1.508   3.699   0.908
 1724SOL    HW2 6060   1.570   3.619   1.021
 1725SOL     OW 6061   0.716   2.424   1.703
 1725SOL    HW1 6062   0.761   2.486   1.762
 1725SOL    HW2 6063   0.741   2.338   1.736
 1726SOL     OW 6064   1.473   3.059   1.630
 1726SOL    HW1 6065   1.461   3.074   1.724
 1726SOL    HW2 6066   1.566   3.077   1.616
 1727SOL     OW 6067   0.378   3.607   1.559
 1727SOL    HW1 6068   0.290   3.643   1.546
 1727SOL    HW2 6069   0.364   3.525   1.605
 1728SOL     OW 6070   1.668   2.743   1.254
 1728SOL    HW1 6071   1.660   2.658   1.211
 1728SOL    HW2 6072   1.657   2.807   1.183
 1729SOL     OW 6073   1.218   2.182   0.456
 1729SOL    HW1 6074   1.282   2.111   0.449
 1729SOL    HW2 6075   1.245   2.231   0.533
 1730SOL     OW 6076   0.588   2.598   0.673
 1730SOL    HW1 6077   0.627   2.684   0.658
 1730SOL    HW2 6078   0.522   2.589   0.604
 1731SOL     OW 6079   1.752   2.230   1.659
 1731SOL    HW1 6080   1.754   2.236   1.564
 1731SOL    HW2 6081   1.679   2.171   1.678
 1732SOL     OW 6082   1.744   2.806   1.509
 1732SOL    HW1 6083   1.734   2.900   1.521
 1732SOL    HW2 6084   1.728   2.791   1.416
 1733SOL     OW 6085   0.907   3.261   0.066
 1733SOL    HW1 6086   0.840   3.242   0.132
 1733SOL    HW2 6087   0.859   3.262  13.883
 1734SOL     OW 6088   0.659   3.650   0.935
 1734SOL    HW1 6089   0.637   3.742   0.916
 1734SOL    HW2 6090   0.754   3.648   0.933
 1735SOL     OW 6091   0.868   2.830   0.853
 1735SOL    HW1 6092   0.919   2.758   0.892
 1735SOL    HW2 6093   0.832   2.877   0.928
 1736SOL     OW 6094   1.098   2.873   0.110
 1736SOL    HW1 6095   1.088   2.919   0.027
 1736SOL    HW2 6096   1.172   2.813   0.096
 1737SOL     OW 6097   1.851   3.412   0.842
 1737SOL    HW1 6098   1.772   3.404   0.789
 1737SOL    HW2 6099   1.837   3.352   0.915
 1738SOL     OW 6100   0.227   3.166   1.856
 1738SOL    HW1 6101   0.153   3.111   1.830
 1738SOL    HW2 6102   0.214   3.179   1.950
 1739SOL     OW 6103   0.107   3.141   0.728
 1739SOL    HW1 6104   0.129   3.094   0.808
 1739SOL    HW2 6105   0.103   3.073   0.660
 1740SOL     OW 6106   0.683   3.266   1.631
 1740SOL    HW1 6107   0.602   3.225   1.660
 1740SOL    HW2 6108   0.679   3.355   1.667
 1741SOL     OW 6109   0.439   2.297   0.538
 1741SOL    HW1 6110   0.466   2.224   0.482
 1741SOL    HW2 6111   0.384   2.256   0.605
 1742SOL     OW 6112   1.701   3.347   1.090
 1742SOL    HW1 6113   1.619   3.327   1.045
 1742SOL    HW2 6114   1.708   3.280   1.158
 1743SOL     OW 6115   0.335   2.419   1.292
 1743SOL    HW1 6116   0.389   2.362   1.347
 1743SOL    HW2 6117   0.350   2.388   1.203
 1744SOL     OW 6118   0.829   3.441   0.676
 1744SOL    HW1 6119   0.814   3.498   0.601
 1744SOL    HW2 6120   0.754   3.382   0.677
 1745SOL     OW 6121   1.436   2.091   1.120
 1745SOL    HW1 6122   1.441   2.002   1.156
 1745SOL    HW2 6123   1.382   2.139   1.183
 1746SOL     OW 6124   1.010   1.879   1.139
 1746SOL    HW1 6125   0.956   1.812   1.098
 1746SOL    HW2 6126   1.098   1.841   1.141
 1747SOL     OW 6127   0.778   3.185   0.320
 1747SOL    HW1 6128   0.747   3.096   0.336
 1747SOL    HW2 6129   0.860   3.192   0.370
 1748SOL     OW 6130   0.621   3.415   1.286
 1748SOL    HW1 6131   0.622   3.497   1.336
 1748SOL    HW2 6132   0.708   3.410   1.248
 1749SOL     OW 6133   1.345   1.927   0.164
 1749SOL    HW1 6134   1.376   1.872   0.092
 1749SOL    HW2 6135   1.263   1.885   0.191
 1750SOL     OW 6136   1.298   2.324   0.679
 1750SOL    HW1 6137   1.245   2.403   0.685
 1750SOL    HW2 6138   1.292   2.285   0.767
 1751SOL     OW 6139   1.576   2.055   0.873
 1751SOL    HW1 6140   1.537   2.081   0.957
 1751SOL    HW2 6141   1.586   2.137   0.825
 1752SOL     OW 6142   0.043   2.893   0.255
 1752SOL    HW1 6143   0.137   2.876   0.249
 1752SOL    HW2 6144   0.008   2.821   0.307
 1753SOL     OW 6145   0.893   3.520   0.345
 1753SOL    HW1 6146   0.819   3.490   0.293
 1753SOL    HW2 6147   0.860   3.596   0.393
 1754SOL     OW 6148   0.231   2.486   1.981
 1754SOL    HW1 6149   0.138   2.495   2.002
 1754SOL    HW2 6150   0.232   2.455   1.891
 1755SOL     OW 6151   0.229   2.134   2.849
 1755SOL    HW1 6152   0.250   2.100   2.936
 1755SOL    HW2 6153   0.134   2.126   2.842
 1756SOL     OW 6154   0.009   2.221   2.492
 1756SOL    HW1 6155   3.920   2.239   2.524
 1756SOL    HW2 6156   3.996   2.190   2.402
 1757SOL     OW 6157   0.580   3.151   3.052
 1757SOL    HW1 6158   0.494   3.154   3.011
 1757SOL    HW2 6159   0.594   3.240   3.085
 1758SOL     OW 6160   1.564   3.373   2.570
 1758SOL    HW1 6161   1.522   3.351   2.654
 1758SOL    HW2 6162   1.492   3.376   2.507
 1759SOL     OW 6163   1.132   2.560   2.560
 1759SOL    HW1 6164   1.180   2.641   2.547
 1759SOL    HW2 6165   1.085   2.573   2.643
 1760SOL     OW 6166   1.761   2.473   2.091
 1760SOL    HW1 6167   1.740   2.469   1.997
 1760SOL    HW2 6168   1.753   2.382   2.120
 1761SOL     OW 6169   0.753   3.001   2.904
 1761SOL    HW1 6170   0.689   3.037   2.966
 1761SOL    HW2 6171   0.789   3.078   2.860
 1762SOL     OW 6172   0.870   2.631   3.685
 1762SOL    HW1 6173   0.861   2.702   3.748
 1762SOL    HW2 6174   0.893   2.675   3.603
 1763SOL     OW 6175   0.685   2.863   2.508
 1763SOL    HW1 6176   0.751   2.853   2.576
 1763SOL    HW2 6177   0.616   2.916   2.549
 1764SOL     OW 6178   0.712   3.011   3.678
 1764SOL    HW1 6179   0.760   3.089   3.707
 1764SOL    HW2 6180   0.631   3.046   3.641
 1765SOL     OW 6181   0.351   3.263   2.940
 1765SOL    HW1 6182   0.269   3.248   2.893
 1765SOL    HW2 6183   0.400   3.322   2.883
 1766SOL     OW 6184   1.460   3.363   3.219
 1766SOL    HW1 6185   1.513   3.441   3.229
 1766SOL    HW2 6186   1.393   3.370   3.287
 1767SOL     OW 6187   0.450   2.260   3.349
 1767SOL    HW1 6188   0.525   2.201   3.353
 1767SOL    HW2 6189   0.374   2.204   3.362
 1768SOL     OW 6190   1.608   2.302   2.597
 1768SOL    HW1 6191   1.529   2.324   2.547
 1768SOL    HW2 6192   1.627   2.381   2.647
 1769SOL     OW 6193   0.223   3.571   2.328
 1769SOL    HW1 6194   0.223   3.654   2.375
 1769SOL    HW2 6195   0.300   3.576   2.271
 1770SOL     OW 6196   1.137   3.203   3.555
 1770SOL    HW1 6197   1.178   3.197   3.642
 1770SOL    HW2 6198   1.085   3.124   3.548
 1771SOL     OW 6199   0.250   3.306   2.402
 1771SOL    HW1 6200   0.222   3.396   2.388
 1771SOL    HW2 6201   0.181   3.267   2.455
 1772SOL     OW 6202   0.247   2.929   2.746
 1772SOL    HW1 6203   0.267   2.844   2.786
 1772SOL    HW2 6204   0.195   2.974   2.811
 1773SOL     OW 6205   0.611   3.648   3.289
 1773SOL    HW1 6206   0.528   3.634   3.336
 1773SOL    HW2 6207   0.637   3.737   3.314
 1774SOL     OW 6208   0.577   2.848   2.000
 1774SOL    HW1 6209   0.626   2.893   1.931
 1774SOL    HW2 6210   0.618   2.877   2.081
 1775SOL     OW 6211   1.559   1.996   3.307
 1775SOL    HW1 6212   1.575   2.081   3.267
 1775SOL    HW2 6213   1.558   2.013   3.402
 1776SOL     OW 6214   0.143   2.515   2.436
 1776SOL    HW1 6215   0.087   2.437   2.435
 1776SOL    HW2 6216   0.106   2.569   2.506
 1777SOL     OW 6217   1.843   3.609   2.199
 1777SOL    HW1 6218   1.911   3.585   2.262
 1777SOL    HW2 6219   1.862   3.700   2.176
 1778SOL     OW 6220   0.041   3.453   2.002
 1778SOL    HW1 6221   0.034   3.361   2.027
 1778SOL    HW2 6222   3.958   3.491   2.030
 1779SOL     OW 6223   1.690   2.781   2.504
 1779SOL    HW1 6224   1.770   2.736   2.478
 1779SOL    HW2 6225   1.665   2.832   2.427
 1780SOL     OW 6226   1.647   2.967   2.291
 1780SOL    HW1 6227   1.734   2.970   2.250
 1780SOL    HW2 6228   1.653   3.029   2.363
 1781SOL     OW 6229   0.139   2.615   3.451
 1781SOL    HW1 6230   0.235   2.610   3.448
 1781SOL    HW2 6231   0.121   2.703   3.483
 1782SOL     OW 6232   0.616   3.248   2.596
 1782SOL    HW1 6233   0.568   3.166   2.606
 1782SOL    HW2 6234   0.598   3.276   2.506
 1783SOL     OW 6235   1.287   3.099   3.284
 1783SOL    HW1 6236   1.319   3.031   3.224
 1783SOL    HW2 6237   1.346   3.094   3.359
 1784SOL     OW 6238   0.820   1.863   2.374
 1784SOL    HW1 6239   0.860   1.947   2.352
 1784SOL    HW2 6240   0.726   1.881   2.379
 1785SOL     OW 6241   0.184   2.812   3.141
 1785SOL    HW1 6242   0.272   2.777   3.129
 1785SOL    HW2 6243   0.132   2.774   3.071
 1786SOL     OW 6244   1.531   2.858   2.061
 1786SOL    HW1 6245   1.462   2.801   2.094
 1786SOL    HW2 6246   1.573   2.892   2.140
 1787SOL     OW 6247   1.218   3.666   3.489
 1787SOL    HW1 6248   1.194   3.727   3.419
 1787SOL    HW2 6249   1.219   3.580   3.447
 1788SOL     OW 6250   0.342   2.109   3.678
 1788SOL    HW1 6251   0.378   2.197   3.686
 1788SOL    HW2 6252   0.250   2.119   3.703
 1789SOL     OW 6253   1.466   3.281   2.812
 1789SOL    HW1 6254   1.399   3.297   2.878
 1789SOL    HW2 6255   1.453   3.190   2.786
 1790SOL     OW 6256   1.654   3.602   2.443
 1790SOL    HW1 6257   1.640   3.571   2.353
 1790SOL    HW2 6258   1.631   3.527   2.498
 1791SOL     OW 6259   0.596   2.578   2.128
 1791SOL    HW1 6260   0.602   2.662   2.083
 1791SOL    HW2 6261   0.533   2.593   2.198
 1792SOL     OW 6262   1.280   2.222   2.797
 1792SOL    HW1 6263   1.191   2.186   2.806
 1792SOL    HW2 6264   1.334   2.166   2.853
 1793SOL     OW 6265   1.577   3.537   2.170
 1793SOL    HW1 6266   1.669   3.561   2.165
 1793SOL    HW2 6267   1.551   3.518   2.080
 1794SOL     OW 6268   0.791   2.480   3.312
 1794SOL    HW1 6269   0.765   2.455   3.401
 1794SOL    HW2 6270   0.754   2.412   3.256
 1795SOL     OW 6271   1.393   2.335   3.540
 1795SOL    HW1 6272   1.396   2.381   3.624
 1795SOL    HW2 6273   1.454   2.262   3.550
 1796SOL     OW 6274   0.952   2.748   3.446
 1796SOL    HW1 6275   1.007   2.679   3.409
 1796SOL    HW2 6276   0.904   2.783   3.371
 1797SOL     OW 6277   0.993   2.274   3.099
 1797SOL    HW1 6278   0.905   2.293   3.132
 1797SOL    HW2 6279   0.977   2.229   3.015
 1798SOL     OW 6280   1.053   2.560   2.287
 1798SOL    HW1 6281   1.069   2.553   2.381
 1798SOL    HW2 6282   0.970   2.514   2.274
 1799SOL     OW 6283   0.082   2.691   2.652
 1799SOL    HW1 6284   0.156   2.660   2.704
 1799SOL    HW2 6285   0.100   2.784   2.637
 1800SOL     OW 6286   0.127   3.718   3.440
 1800SOL    HW1 6287   0.135   3.686   3.530
 1800SOL    HW2 6288   0.035   3.705   3.418
 1801SOL     OW 6289   0.896   2.212   2.055
 1801SOL    HW1 6290   0.936   2.275   1.995
 1801SOL    HW2 6291   0.913   2.126   2.015
 1802SOL     OW 6292   1.682   2.448   3.693
 1802SOL    HW1 6293   1.652   2.520   3.637
 1802SOL    HW2 6294   1.720   2.385   3.632
 1803SOL     OW 6295   1.379   3.004   2.403
 1803SOL    HW1 6296   1.458   2.992   2.350
 1803SOL    HW2 6297   1.326   3.066   2.352
 1804SOL     OW 6298   0.546   2.040   2.756
 1804SOL    HW1 6299   0.553   2.072   2.846
 1804SOL    HW2 6300   0.546   2.119   2.702
 1805SOL     OW 6301   1.003   3.307   2.332
 1805SOL    HW1 6302   0.967   3.381   2.283
 1805SOL    HW2 6303   0.983   3.326   2.424
 1806SOL     OW 6304   0.359   3.671   2.723
 1806SOL    HW1 6305   0.438   3.618   2.736
 1806SOL    HW2 6306   0.389   3.761   2.733
 1807SOL     OW 6307   1.800   2.914   2.731
 1807SOL    HW1 6308   1.747   2.897   2.654
 1807SOL    HW2 6309   1.737   2.922   2.803
 1808SOL     OW 6310   1.228   3.399   3.373
 1808SOL    HW1 6311   1.215   3.327   3.435
 1808SOL    HW2 6312   1.159   3.387   3.307
 1809SOL     OW 6313   0.311   2.816   2.104
 1809SOL    HW1 6314   0.394   2.839   2.063
 1809SOL    HW2 6315   0.298   2.723   2.083
 1810SOL     OW 6316   1.480   2.608   2.587
 1810SOL    HW1 6317   1.474   2.565   2.672
 1810SOL    HW2 6318   1.559   2.663   2.593
 1811SOL     OW 6319   0.468   3.122   3.599
 1811SOL    HW1 6320   0.442   3.130   3.507
 1811SOL    HW2 6321   0.386   3.126   3.647
 1812SOL     OW 6322   1.113   3.643   2.084
 1812SOL    HW1 6323   1.049   3.597   2.137
 1812SOL    HW2 6324   1.144   3.577   2.021
 1813SOL     OW 6325   0.204   2.135   3.370
 1813SOL    HW1 6326   0.114   2.168   3.364
 1813SOL    HW2 6327   0.195   2.048   3.409
 1814SOL     OW 6328   1.627   3.243   1.952
 1814SOL    HW1 6329   1.587   3.328   1.935
 1814SOL    HW2 6330   1.559   3.179   1.931
 1815SOL     OW 6331   0.468   3.601   2.183
 1815SOL    HW1 6332   0.506   3.664   2.244
 1815SOL    HW2 6333   0.541   3.573   2.128
 1816SOL     OW 6334   1.397   1.967   2.297
 1816SOL    HW1 6335   1.384   1.946   2.204
 1816SOL    HW2 6336   1.486   1.938   2.316
 1817SOL     OW 6337   0.253   3.656   3.088
 1817SOL    HW1 6338   0.297   3.590   3.142
 1817SOL    HW2 6339   0.251   3.619   3.000
 1818SOL     OW 6340   0.938   3.563   2.762
 1818SOL    HW1 6341   1.015   3.511   2.784
 1818SOL    HW2 6342   0.894   3.513   2.692
 1819SOL     OW 6343   0.399   2.555   2.333
 1819SOL    HW1 6344   0.424   2.464   2.348
 1819SOL    HW2 6345   0.307   2.559   2.360
 1820SOL     OW 6346   1.531   2.081   3.584
 1820SOL    HW1 6347   1.545   2.102   3.676
 1820SOL    HW2 6348   1.460   2.018   3.584
 1821SOL     OW 6349   0.643   1.981   1.959
 1821SOL    HW1 6350   0.703   1.909   1.979
 1821SOL    HW2 6351   0.593   1.949   1.883
 1822SOL     OW 6352   0.765   2.141   3.617
 1822SOL    HW1 6353   0.844   2.086   3.615
 1822SOL    HW2 6354   0.719   2.112   3.696
 1823SOL     OW 6355   0.876   3.383   3.056
 1823SOL    HW1 6356   0.859   3.346   2.969
 1823SOL    HW2 6357   0.946   3.328   3.092
 1824SOL     OW 6358   1.341   2.451   3.294
 1824SOL    HW1 6359   1.371   2.420   3.380
 1824SOL    HW2 6360   1.376   2.539   3.287
 1825SOL     OW 6361   0.817   3.254   2.804
 1825SOL    HW1 6362   0.902   3.242   2.761
 1825SOL    HW2 6363   0.754   3.256   2.732
 1826SOL     OW 6364   0.929   2.371   2.764
 1826SOL    HW1 6365   0.905   2.363   2.672
 1826SOL    HW2 6366   0.959   2.284   2.789
 1827SOL     OW 6367   0.556   1.924   2.357
 1827SOL    HW1 6368   0.474   1.929   2.406
 1827SOL    HW2 6369   0.560   2.007   2.308
 1828SOL     OW 6370   1.428   3.061   1.902
 1828SOL    HW1 6371   1.458   2.986   1.953
 1828SOL    HW2 6372   1.342   3.083   1.939
 1829SOL     OW 6373   0.308   1.913   2.032
 1829SOL    HW1 6374   0.372   1.951   1.971
 1829SOL    HW2 6375   0.358   1.848   2.081
 1830SOL     OW 6376   0.940   2.109   2.321
 1830SOL    HW1 6377   0.912   2.150   2.239
 1830SOL    HW2 6378   1.034   2.126   2.324
 1831SOL     OW 6379   1.080   2.544   3.320
 1831SOL    HW1 6380   1.013   2.476   3.325
 1831SOL    HW2 6381   1.163   2.496   3.314
 1832SOL     OW 6382   1.222   3.432   2.656
 1832SOL    HW1 6383   1.237   3.500   2.589
 1832SOL    HW2 6384   1.290   3.448   2.721
 1833SOL     OW 6385   0.467   3.013   2.597
 1833SOL    HW1 6386   0.395   2.989   2.656
 1833SOL    HW2 6387   0.432   2.997   2.509
 1834SOL     OW 6388   1.266   3.656   2.470
 1834SOL    HW1 6389   1.313   3.721   2.418
 1834SOL    HW2 6390   1.194   3.705   2.509
 1835SOL     OW 6391   1.023   2.401   1.887
 1835SOL    HW1 6392   0.981   2.484   1.867
 1835SOL    HW2 6393   1.089   2.422   1.952
 1836SOL     OW 6394   0.082   2.435   3.252
 1836SOL    HW1 6395   0.172   2.421   3.221
 1836SOL    HW2 6396   0.089   2.504   3.317
 1837SOL     OW 6397   0.567   2.089   3.028
 1837SOL    HW1 6398   0.608   2.014   3.070
 1837SOL    HW2 6399   0.475   2.086   3.057
 1838SOL     OW 6400   0.867   2.320   2.502
 1838SOL    HW1 6401   0.820   2.374   2.438
 1838SOL    HW2 6402   0.888   2.240   2.454
 1839SOL     OW 6403   1.016   1.916   2.612
 1839SOL    HW1 6404   0.958   1.910   2.536
 1839SOL    HW2 6405   0.993   1.841   2.666
 1840SOL     OW 6406   1.438   3.023   2.719
 1840SOL    HW1 6407   1.368   2.959   2.719
 1840SOL    HW2 6408   1.462   3.033   2.627
 1841SOL     OW 6409   1.464   2.469   2.835
 1841SOL    HW1 6410   1.411   2.390   2.836
 1841SOL    HW2 6411   1.522   2.461   2.910
 1842SOL     OW 6412   1.846   2.676   2.249
 1842SOL    HW1 6413   1.904   2.623   2.305
 1842SOL    HW2 6414   1.815   2.615   2.182
 1843SOL     OW 6415   0.488   3.281   2.021
 1843SOL    HW1 6416   0.412   3.251   2.071
 1843SOL    HW2 6417   0.470   3.253   1.931
 1844SOL     OW 6418   1.673   3.126   2.506
 1844SOL    HW1 6419   1.768   3.127   2.520
 1844SOL    HW2 6420   1.644   3.214   2.528
 1845SOL     OW 6421   1.392   2.436   1.931
 1845SOL    HW1 6422   1.336   2.413   2.005
 1845SOL    HW2 6423   1.480   2.414   1.960
 1846SOL     OW 6424   0.574   2.130   2.180
 1846SOL    HW1 6425   0.605   2.083   2.103
 1846SOL    HW2 6426   0.542   2.214   2.146
 1847SOL     OW 6427   1.751   3.103   3.430
 1847SOL    HW1 6428   1.838   3.064   3.426
 1847SOL    HW2 6429   1.766   3.194   3.458
 1848SOL     OW 6430   1.056   3.214   3.194
 1848SOL    HW1 6431   0.981   3.184   3.245
 1848SOL    HW2 6432   1.132   3.174   3.236
 1849SOL     OW 6433   1.610   3.488   3.518
 1849SOL    HW1 6434   1.601   3.522   3.429
 1849SOL    HW2 6435   1.693   3.440   3.518
 1850SOL     OW 6436   1.132   3.068   2.966
 1850SOL    HW1 6437   1.073   3.105   3.031
 1850SOL    HW2 6438   1.100   3.101   2.882
 1851SOL     OW 6439   1.626   2.959   2.938
 1851SOL    HW1 6440   1.620   3.022   3.011
 1851SOL    HW2 6441   1.548   2.977   2.885
 1852SOL     OW 6442   0.918   1.957   3.256
 1852SOL    HW1 6443   0.941   1.939   3.165
 1852SOL    HW2 6444   0.997   1.997   3.293
 1853SOL     OW 6445   0.984   2.977   3.585
 1853SOL    HW1 6446   0.893   2.993   3.607
 1853SOL    HW2 6447   0.982   2.899   3.530
 1854SOL     OW 6448   0.708   2.922   2.233
 1854SOL    HW1 6449   0.694   2.906   2.326
 1854SOL    HW2 6450   0.784   2.869   2.209
 1855SOL     OW 6451   0.422   2.679   3.114
 1855SOL    HW1 6452   0.490   2.687   3.181
 1855SOL    HW2 6453   0.388   2.590   3.126
 1856SOL     OW 6454   1.265   2.238   3.140
 1856SOL    HW1 6455   1.297   2.315   3.185
 1856SOL    HW2 6456   1.174   2.259   3.117
 1857SOL     OW 6457   0.065   3.442   3.208
 1857SOL    HW1 6458   0.071   3.496   3.129
 1857SOL    HW2 6459   0.156   3.430   3.235
 1858SOL     OW 6460   0.370   2.964   2.345
 1858SOL    HW1 6461   0.365   3.045   2.293
 1858SOL    HW2 6462   0.369   2.894   2.280
 1859SOL     OW 6463   0.549   2.398   2.723
 1859SOL    HW1 6464   0.564   2.455   2.648
 1859SOL    HW2 6465   0.617   2.424   2.786
 1860SOL     OW 6466   1.248   3.211   2.252
 1860SOL    HW1 6467   1.304   3.282   2.283
 1860SOL    HW2 6468   1.161   3.233   2.285
 1861SOL     OW 6469   1.285   3.321   3.010
 1861SOL    HW1 6470   1.340   3.325   3.088
 1861SOL    HW2 6471   1.229   3.245   3.024
 1862SOL     OW 6472   1.576   2.483   2.339
 1862SOL    HW1 6473   1.531   2.538   2.404
 1862SOL    HW2 6474   1.622   2.545   2.282
 1863SOL     OW 6475   0.345   3.389   3.180
 1863SOL    HW1 6476   0.335   3.339   3.099
 1863SOL    HW2 6477   0.439   3.404   3.187
 1864SOL     OW 6478   0.416   2.601   3.463
 1864SOL    HW1 6479   0.479   2.646   3.407
 1864SOL    HW2 6480   0.456   2.515   3.480
 1865SOL     OW 6481   1.601   2.649   3.538
 1865SOL    HW1 6482   1.515   2.691   3.533
 1865SOL    HW2 6483   1.653   2.694   3.471
 1866SOL     OW 6484   0.996   1.990   3.615
 1866SOL    HW1 6485   1.054   2.062   3.591
 1866SOL    HW2 6486   1.044   1.911   3.591
 1867SOL     OW 6487   0.497   1.897   3.608
 1867SOL    HW1 6488   0.453   1.845   3.541
 1867SOL    HW2 6489   0.443   1.975   3.617
 1868SOL     OW 6490   0.585   2.736   2.894
 1868SOL    HW1 6491   0.618   2.826   2.894
 1868SOL    HW2 6492   0.529   2.730   2.971
 1869SOL     OW 6493   1.354   2.720   2.888
 1869SOL    HW1 6494   1.269   2.709   2.845
 1869SOL    HW2 6495   1.396   2.635   2.880
 1870SOL     OW 6496   1.202   2.390   2.127
 1870SOL    HW1 6497   1.211   2.312   2.182
 1870SOL    HW2 6498   1.160   2.454   2.183
 1871SOL     OW 6499   0.310   2.058   3.109
 1871SOL    HW1 6500   0.263   2.095   3.184
 1871SOL    HW2 6501   0.287   1.965   3.109
 1872SOL     OW 6502   0.060   3.167   3.142
 1872SOL    HW1 6503   0.091   3.126   3.223
 1872SOL    HW2 6504   0.052   3.260   3.164
 1873SOL     OW 6505   0.723   2.493   2.918
 1873SOL    HW1 6506   0.799   2.478   2.861
 1873SOL    HW2 6507   0.695   2.582   2.897
 1874SOL     OW 6508   1.736   2.822   3.716
 1874SOL    HW1 6509   1.691   2.758   3.661
 1874SOL    HW2 6510   1.676   2.837   3.789
 1875SOL     OW 6511   0.314   1.924   2.482
 1875SOL    HW1 6512   0.293   2.015   2.503
 1875SOL    HW2 6513   0.320   1.881   2.567
 1876SOL     OW 6514   1.609   2.236   2.232
 1876SOL    HW1 6515   1.625   2.184   2.311
 1876SOL    HW2 6516   1.589   2.324   2.265
 1877SOL     OW 6517   1.029   2.621   2.821
 1877SOL    HW1 6518   1.022   2.638   2.915
 1877SOL    HW2 6519   1.002   2.529   2.812
 1878SOL     OW 6520   0.986   3.430   3.582
 1878SOL    HW1 6521   0.967   3.471   3.498
 1878SOL    HW2 6522   1.027   3.347   3.559
 1879SOL     OW 6523   1.854   3.365   3.466
 1879SOL    HW1 6524   1.873   3.393   3.377
 1879SOL    HW2 6525   1.934   3.382   3.515
 1880SOL     OW 6526   0.353   2.784   3.662
 1880SOL    HW1 6527   0.431   2.805   3.713
 1880SOL    HW2 6528   0.381   2.716   3.600
 1881SOL     OW 6529   1.529   2.131   1.988
 1881SOL    HW1 6530   1.462   2.069   2.017
 1881SOL    HW2 6531   1.562   2.170   2.068
 1882SOL     OW 6532   1.289   2.688   1.892
 1882SOL    HW1 6533   1.331   2.602   1.895
 1882SOL    HW2 6534   1.320   2.727   1.810
 1883SOL     OW 6535   1.067   3.199   2.717
 1883SOL    HW1 6536   1.071   3.127   2.654
 1883SOL    HW2 6537   1.127   3.265   2.682
 1884SOL     OW 6538   0.313   2.664   2.812
 1884SOL    HW1 6539   0.407   2.682   2.806
 1884SOL    HW2 6540   0.308   2.574   2.844
 1885SOL     OW 6541   0.330   2.383   2.876
 1885SOL    HW1 6542   0.295   2.295   2.860
 1885SOL    HW2 6543   0.406   2.390   2.819
 1886SOL     OW 6544   1.134   2.236   3.546
 1886SOL    HW1 6545   1.086   2.291   3.608
 1886SOL    HW2 6546   1.222   2.275   3.543
 1887SOL     OW 6547   1.160   2.063   3.333
 1887SOL    HW1 6548   1.149   2.126   3.404
 1887SOL    HW2 6549   1.202   2.113   3.263
 1888SOL     OW 6550   4.000   3.180   2.044
 1888SOL    HW1 6551   3.905   3.195   2.048
 1888SOL    HW2 6552   0.009   3.086   2.062
 1889SOL     OW 6553   0.075   3.663   2.757
 1889SOL    HW1 6554   0.090   3.568   2.755
 1889SOL    HW2 6555   0.163   3.701   2.756
 1890SOL     OW 6556   0.507   3.425   2.779
 1890SOL    HW1 6557   0.573   3.492   2.799
 1890SOL    HW2 6558   0.549   3.367   2.716
 1891SOL     OW 6559   0.979   2.652   3.087
 1891SOL    HW1 6560   1.036   2.631   3.160
 1891SOL    HW2 6561   0.894   2.614   3.112
 1892SOL     OW 6562   0.038   2.420   2.971
 1892SOL    HW1 6563   0.120   2.397   2.929
 1892SOL    HW2 6564   0.057   2.417   3.065
 1893SOL     OW 6565   0.207   2.375   3.590
 1893SOL    HW1 6566   0.245   2.327   3.516
 1893SOL    HW2 6567   0.160   2.447   3.549
 1894SOL     OW 6568   1.374   2.801   3.519
 1894SOL    HW1 6569   1.397   2.894   3.516
 1894SOL    HW2 6570   1.371   2.774   3.427
 1895SOL     OW 6571   0.818   2.431   2.224
 1895SOL    HW1 6572   0.823   2.356   2.165
 1895SOL    HW2 6573   0.744   2.482   2.192
 1896SOL     OW 6574   1.640   2.464   3.046
 1896SOL    HW1 6575   1.628   2.408   3.123
 1896SOL    HW2 6576   1.725   2.439   3.011
 1897SOL     OW 6577   0.300   3.407   3.588
 1897SOL    HW1 6578   0.251   3.476   3.633
 1897SOL    HW2 6579   0.268   3.326   3.628
 1898SOL     OW 6580   0.707   2.311   3.119
 1898SOL    HW1 6581   0.654   2.237   3.090
 1898SOL    HW2 6582   0.701   2.374   3.047
 1899SOL     OW 6583   0.928   3.533   3.331
 1899SOL    HW1 6584   0.901   3.496   3.247
 1899SOL    HW2 6585   0.920   3.628   3.319
 1900SOL     OW 6586   0.455   2.351   2.057
 1900SOL    HW1 6587   0.520   2.419   2.075
 1900SOL    HW2 6588   0.375   2.400   2.035
 1901SOL     OW 6589   0.156   2.997   3.337
 1901SOL    HW1 6590   0.156   2.946   3.419
 1901SOL    HW2 6591   0.171   2.932   3.268
 1902SOL     OW 6592   1.324   2.907   3.083
 1902SOL    HW1 6593   1.346   2.843   3.015
 1902SOL    HW2 6594   1.256   2.961   3.044
 1903SOL     OW 6595   1.313   2.719   2.167
 1903SOL    HW1 6596   1.239   2.687   2.218
 1903SOL    HW2 6597   1.288   2.705   2.076
 1904SOL     OW 6598   1.772   3.602   3.012
 1904SOL    HW1 6599   1.834   3.630   2.946
 1904SOL    HW2 6600   1.750   3.512   2.989
 1905SOL     OW 6601   1.244   3.595   2.970
 1905SOL    HW1 6602   1.327   3.616   2.928
 1905SOL    HW2 6603   1.251   3.501   2.990
 1906SOL     OW 6604   0.076   3.076   2.890
 1906SOL    HW1 6605   0.083   3.104   2.981
 1906SOL    HW2 6606   3.984   3.087   2.868
 1907SOL     OW 6607   0.679   3.527   3.595
 1907SOL    HW1 6608   0.621   3.603   3.599
 1907SOL    HW2 6609   0.739   3.546   3.523
 1908SOL     OW 6610   1.391   3.431   2.349
 1908SOL    HW1 6611   1.450   3.464   2.282
 1908SOL    HW2 6612   1.342   3.508   2.379
 1909SOL     OW 6613   0.170   3.623   3.694
 1909SOL    HW1 6614   0.115   3.570   3.752
 1909SOL    HW2 6615   0.217   3.682   3.752
 1910SOL     OW 6616   1.277   2.789   2.533
 1910SOL    HW1 6617   1.351   2.728   2.542
 1910SOL    HW2 6618   1.312   2.861   2.480
 1911SOL     OW 6619   0.810   3.136   3.290
 1911SOL    HW1 6620   0.782   3.177   3.372
 1911SOL    HW2 6621   0.739   3.155   3.228
 1912SOL     OW 6622   0.675   3.479   2.020
 1912SOL    HW1 6623   0.683   3.496   1.926
 1912SOL    HW2 6624   0.616   3.404   2.025
 1913SOL     OW 6625   1.622   3.588   3.252
 1913SOL    HW1 6626   1.674   3.593   3.171
 1913SOL    HW2 6627   1.608   3.679   3.277
 1914SOL     OW 6628   0.266   2.175   2.578
 1914SOL    HW1 6629   0.180   2.207   2.552
 1914SOL    HW2 6630   0.261   2.165   2.673
 1915SOL     OW 6631   1.208   3.466   1.898
 1915SOL    HW1 6632   1.197   3.374   1.922
 1915SOL    HW2 6633   1.147   3.479   1.825
 1916SOL     OW 6634   0.823   2.868   3.236
 1916SOL    HW1 6635   0.868   2.863   3.151
 1916SOL    HW2 6636   0.822   2.961   3.256
 1917SOL     OW 6637   0.916   2.772   2.153
 1917SOL    HW1 6638   0.976   2.805   2.086
 1917SOL    HW2 6639   0.965   2.704   2.198
 1918SOL     OW 6640   1.489   3.491   1.905
 1918SOL    HW1 6641   1.395   3.480   1.888
 1918SOL    HW2 6642   1.528   3.496   1.817
 1919SOL     OW 6643   0.374   3.165   3.353
 1919SOL    HW1 6644   0.359   3.245   3.303
 1919SOL    HW2 6645   0.297   3.111   3.336
 1920SOL     OW 6646   1.609   3.145   3.142
 1920SOL    HW1 6647   1.670   3.133   3.215
 1920SOL    HW2 6648   1.549   3.213   3.172
 1921SOL     OW 6649   1.056   2.971   2.570
 1921SOL    HW1 6650   0.984   2.920   2.608
 1921SOL    HW2 6651   1.120   2.905   2.541
 1922SOL     OW 6652   1.023   2.103   2.829
 1922SOL    HW1 6653   1.019   2.056   2.746
 1922SOL    HW2 6654   1.018   2.034   2.895
 1923SOL     OW 6655   0.606   3.352   2.342
 1923SOL    HW1 6656   0.651   3.302   2.275
 1923SOL    HW2 6657   0.533   3.395   2.296
 1924SOL     OW 6658   1.731   2.247   3.239
 1924SOL    HW1 6659   1.800   2.313   3.244
 1924SOL    HW2 6660   1.769   2.176   3.186
 1925SOL     OW 6661   0.253   3.203   2.154
 1925SOL    HW1 6662   0.160   3.211   2.135
 1925SOL    HW2 6663   0.264   3.241   2.241
 1926SOL     OW 6664   0.107   2.860   3.579
 1926SOL    HW1 6665   0.047   2.853   3.653
 1926SOL    HW2 6666   0.193   2.842   3.616
 1927SOL     OW 6667   0.676   2.058   3.362
 1927SOL    HW1 6668   0.760   2.037   3.321
 1927SOL    HW2 6669   0.699   2.091   3.449
 1928SOL     OW 6670   0.081   2.176   1.899
 1928SOL    HW1 6671   3.985   2.176   1.907
 1928SOL    HW2 6672   0.101   2.257   1.852
 1929SOL     OW 6673   1.428   2.721   3.261
 1929SOL    HW1 6674   1.379   2.781   3.205
 1929SOL    HW2 6675   1.517   2.723   3.226
 1930SOL     OW 6676   0.018   2.097   2.238
 1930SOL    HW1 6677   0.045   2.161   2.173
 1930SOL    HW2 6678   0.100   2.058   2.268
 1931SOL     OW 6679   1.178   3.199   1.979
 1931SOL    HW1 6680   1.086   3.170   1.980
 1931SOL    HW2 6681   1.204   3.199   2.071
 1932SOL     OW 6682   0.620   2.692   3.298
 1932SOL    HW1 6683   0.676   2.768   3.283
 1932SOL    HW2 6684   0.680   2.619   3.306
 1933SOL     OW 6685   1.486   3.641   2.843
 1933SOL    HW1 6686   1.508   3.700   2.771
 1933SOL    HW2 6687   1.570   3.619   2.884
 1934SOL     OW 6688   0.716   2.424   3.566
 1934SOL    HW1 6689   0.761   2.486   3.624
 1934SOL    HW2 6690   0.741   2.338   3.598
 1935SOL     OW 6691   1.473   3.059   3.492
 1935SOL    HW1 6692   1.461   3.074   3.586
 1935SOL    HW2 6693   1.566   3.077   3.478
 1936SOL     OW 6694   0.378   3.607   3.421
 1936SOL    HW1 6695   0.290   3.643   3.408
 1936SOL    HW2 6696   0.364   3.525   3.467
 1937SOL     OW 6697   1.668   2.743   3.116
 1937SOL    HW1 6698   1.660   2.658   3.073
 1937SOL    HW2 6699   1.657   2.807   3.045
 1938SOL     OW 6700   1.215   2.182   2.320
 1938SOL    HW1 6701   1.278   2.110   2.312
 1938SOL    HW2 6702   1.244   2.231   2.396
 1939SOL     OW 6703   0.589   2.599   2.534
 1939SOL    HW1 6704   0.628   2.685   2.519
 1939SOL    HW2 6705   0.523   2.590   2.466
 1940SOL     OW 6706   1.749   2.232   3.519
 1940SOL    HW1 6707   1.751   2.238   3.423
 1940SOL    HW2 6708   1.677   2.172   3.537
 1941SOL     OW 6709   1.745   2.805   3.371
 1941SOL    HW1 6710   1.735   2.900   3.383
 1941SOL    HW2 6711   1.728   2.791   3.278
 1942SOL     OW 6712   0.865   3.229   1.901
 1942SOL    HW1 6713   0.823   3.257   1.983
 1942SOL    HW2 6714   0.879   3.310   1.852
 1943SOL     OW 6715   0.659   3.651   2.797
 1943SOL    HW1 6716   0.637   3.742   2.778
 1943SOL    HW2 6717   0.754   3.647   2.795
 1944SOL     OW 6718   0.869   2.830   2.716
 1944SOL    HW1 6719   0.919   2.758   2.754
 1944SOL    HW2 6720   0.832   2.877   2.791
 1945SOL     OW 6721   1.077   2.850   1.951
 1945SOL    HW1 6722   1.056   2.902   1.873
 1945SOL    HW2 6723   1.152   2.796   1.925
 1946SOL     OW 6724   1.851   3.412   2.703
 1946SOL    HW1 6725   1.770   3.402   2.653
 1946SOL    HW2 6726   1.841   3.351   2.776
 1947SOL     OW 6727   0.227   3.166   3.718
 1947SOL    HW1 6728   0.153   3.111   3.692
 1947SOL    HW2 6729   0.214   3.179   3.812
 1948SOL     OW 6730   0.115   3.140   2.584
 1948SOL    HW1 6731   0.134   3.090   2.663
 1948SOL    HW2 6732   0.105   3.074   2.515
 1949SOL     OW 6733   0.683   3.266   3.493
 1949SOL    HW1 6734   0.602   3.225   3.522
 1949SOL    HW2 6735   0.679   3.355   3.529
 1950SOL     OW 6736   0.441   2.296   2.396
 1950SOL    HW1 6737   0.441   2.226   2.330
 1950SOL    HW2 6738   0.385   2.262   2.466
 1951SOL     OW 6739   1.700   3.348   2.953
 1951SOL    HW1 6740   1.619   3.327   2.908
 1951SOL    HW2 6741   1.709   3.280   3.020
 1952SOL     OW 6742   0.335   2.419   3.154
 1952SOL    HW1 6743   0.389   2.362   3.209
 1952SOL    HW2 6744   0.349   2.388   3.065
 1953SOL     OW 6745   0.828   3.441   2.538
 1953SOL    HW1 6746   0.812   3.495   2.461
 1953SOL    HW2 6747   0.754   3.381   2.542
 1954SOL     OW 6748   1.436   2.090   2.982
 1954SOL    HW1 6749   1.442   2.002   3.018
 1954SOL    HW2 6750   1.382   2.139   3.045
 1955SOL     OW 6751   1.010   1.879   3.001
 1955SOL    HW1 6752   0.956   1.812   2.959
 1955SOL    HW2 6753   1.098   1.841   3.003
 1956SOL     OW 6754   0.772   3.194   2.181
 1956SOL    HW1 6755   0.743   3.103   2.187
 1956SOL    HW2 6756   0.855   3.196   2.229
 1957SOL     OW 6757   0.621   3.416   3.148
 1957SOL    HW1 6758   0.621   3.497   3.198
 1957SOL    HW2 6759   0.708   3.410   3.110
 1958SOL     OW 6760   1.353   1.912   2.030
 1958SOL    HW1 6761   1.382   1.849   1.964
 1958SOL    HW2 6762   1.265   1.884   2.054
 1959SOL     OW 6763   1.297   2.324   2.542
 1959SOL    HW1 6764   1.244   2.403   2.547
 1959SOL    HW2 6765   1.292   2.285   2.630
 1960SOL     OW 6766   1.575   2.056   2.734
 1960SOL    HW1 6767   1.536   2.081   2.818
 1960SOL    HW2 6768   1.586   2.138   2.687
 1961SOL     OW 6769   0.047   2.911   2.101
 1961SOL    HW1 6770   0.141   2.895   2.093
 1961SOL    HW2 6771   0.011   2.828   2.132
 1962SOL     OW 6772   0.886   3.521   2.205
 1962SOL    HW1 6773   0.815   3.501   2.144
 1962SOL    HW2 6774   0.855   3.596   2.255
 1963SOL     OW 6775   0.231   2.487   3.843
 1963SOL    HW1 6776   0.138   2.495   3.864
 1963SOL    HW2 6777   0.232   2.455   3.753
 1964SOL     OW 6778   0.229   2.134   4.711
 1964SOL    HW1 6779   0.250   2.100   4.798
 1964SOL    HW2 6780   0.134   2.126   4.704
 1965SOL     OW 6781   0.009   2.221   4.354
 1965SOL    HW1 6782   3.920   2.239   4.385
 1965SOL    HW2 6783   3.996   2.190   4.264
 1966SOL     OW 6784   0.580   3.151   4.914
 1966SOL    HW1 6785   0.494   3.154   4.873
 1966SOL    HW2 6786   0.594   3.240   4.947
 1967SOL     OW 6787   1.564   3.373   4.432
 1967SOL    HW1 6788   1.522   3.351   4.516
 1967SOL    HW2 6789   1.492   3.376   4.369
 1968SOL     OW 6790   1.131   2.560   4.422
 1968SOL    HW1 6791   1.180   2.642   4.409
 1968SOL    HW2 6792   1.084   2.573   4.505
 1969SOL     OW 6793   1.764   2.471   3.952
 1969SOL    HW1 6794   1.742   2.468   3.859
 1969SOL    HW2 6795   1.752   2.382   3.983
 1970SOL     OW 6796   0.753   3.001   4.766
 1970SOL    HW1 6797   0.689   3.037   4.828
 1970SOL    HW2 6798   0.789   3.078   4.722
 1971SOL     OW 6799   0.871   2.631   5.547
 1971SOL    HW1 6800   0.859   2.703   5.609
 1971SOL    HW2 6801   0.893   2.675   5.464
 1972SOL     OW 6802   0.685   2.863   4.370
 1972SOL    HW1 6803   0.751   2.853   4.438
 1972SOL    HW2 6804   0.616   2.916   4.411
 1973SOL     OW 6805   0.712   3.012   5.541
 1973SOL    HW1 6806   0.760   3.090   5.569
 1973SOL    HW2 6807   0.631   3.046   5.503
 1974SOL     OW 6808   0.351   3.263   4.802
 1974SOL    HW1 6809   0.269   3.247   4.755
 1974SOL    HW2 6810   0.400   3.322   4.745
 1975SOL     OW 6811   1.460   3.363   5.081
 1975SOL    HW1 6812   1.513   3.441   5.091
 1975SOL    HW2 6813   1.394   3.370   5.150
 1976SOL     OW 6814   0.450   2.261   5.211
 1976SOL    HW1 6815   0.525   2.202   5.215
 1976SOL    HW2 6816   0.374   2.204   5.225
 1977SOL     OW 6817   1.607   2.302   4.458
 1977SOL    HW1 6818   1.527   2.324   4.410
 1977SOL    HW2 6819   1.627   2.380   4.509
 1978SOL     OW 6820   0.223   3.571   4.190
 1978SOL    HW1 6821   0.223   3.655   4.237
 1978SOL    HW2 6822   0.300   3.576   4.133
 1979SOL     OW 6823   1.137   3.203   5.417
 1979SOL    HW1 6824   1.178   3.197   5.504
 1979SOL    HW2 6825   1.085   3.123   5.410
 1980SOL     OW 6826   0.250   3.306   4.264
 1980SOL    HW1 6827   0.222   3.396   4.250
 1980SOL    HW2 6828   0.181   3.267   4.317
 1981SOL     OW 6829   0.247   2.929   4.608
 1981SOL    HW1 6830   0.267   2.844   4.648
 1981SOL    HW2 6831   0.195   2.974   4.673
 1982SOL     OW 6832   0.611   3.648   5.151
 1982SOL    HW1 6833   0.528   3.634   5.198
 1982SOL    HW2 6834   0.637   3.737   5.176
 1983SOL     OW 6835   0.577   2.848   3.862
 1983SOL    HW1 6836   0.626   2.893   3.793
 1983SOL    HW2 6837   0.618   2.877   3.943
 1984SOL     OW 6838   1.555   1.998   5.166
 1984SOL    HW1 6839   1.574   2.084   5.128
 1984SOL    HW2 6840   1.549   2.014   5.260
 1985SOL     OW 6841   0.142   2.515   4.298
 1985SOL    HW1 6842   0.087   2.437   4.297
 1985SOL    HW2 6843   0.106   2.569   4.368
 1986SOL     OW 6844   1.843   3.609   4.061
 1986SOL    HW1 6845   1.911   3.585   4.124
 1986SOL    HW2 6846   1.862   3.700   4.038
 1987SOL     OW 6847   0.041   3.453   3.864
 1987SOL    HW1 6848   0.034   3.361   3.889
 1987SOL    HW2 6849   3.958   3.491   3.892
 1988SOL     OW 6850   1.690   2.781   4.366
 1988SOL    HW1 6851   1.770   2.736   4.341
 1988SOL    HW2 6852   1.665   2.832   4.289
 1989SOL     OW 6853   1.647   2.967   4.153
 1989SOL    HW1 6854   1.733   2.970   4.112
 1989SOL    HW2 6855   1.653   3.029   4.225
 1990SOL     OW 6856   0.139   2.615   5.313
 1990SOL    HW1 6857   0.235   2.610   5.310
 1990SOL    HW2 6858   0.121   2.704   5.344
 1991SOL     OW 6859   0.616   3.248   4.458
 1991SOL    HW1 6860   0.568   3.166   4.468
 1991SOL    HW2 6861   0.598   3.276   4.368
 1992SOL     OW 6862   1.287   3.098   5.146
 1992SOL    HW1 6863   1.319   3.031   5.086
 1992SOL    HW2 6864   1.346   3.094   5.221
 1993SOL     OW 6865   0.820   1.863   4.236
 1993SOL    HW1 6866   0.860   1.947   4.214
 1993SOL    HW2 6867   0.726   1.881   4.241
 1994SOL     OW 6868   0.184   2.812   5.004
 1994SOL    HW1 6869   0.272   2.777   4.991
 1994SOL    HW2 6870   0.132   2.774   4.933
 1995SOL     OW 6871   1.531   2.858   3.923
 1995SOL    HW1 6872   1.462   2.801   3.955
 1995SOL    HW2 6873   1.573   2.892   4.002
 1996SOL     OW 6874   1.217   3.666   5.352
 1996SOL    HW1 6875   1.194   3.727   5.282
 1996SOL    HW2 6876   1.219   3.580   5.309
 1997SOL     OW 6877   0.341   2.108   5.540
 1997SOL    HW1 6878   0.378   2.196   5.548
 1997SOL    HW2 6879   0.250   2.119   5.565
 1998SOL     OW 6880   1.466   3.281   4.674
 1998SOL    HW1 6881   1.399   3.297   4.740
 1998SOL    HW2 6882   1.453   3.190   4.647
 1999SOL     OW 6883   1.654   3.602   4.305
 1999SOL    HW1 6884   1.640   3.571   4.215
 1999SOL    HW2 6885   1.631   3.527   4.360
 2000SOL     OW 6886   0.596   2.578   3.990
 2000SOL    HW1 6887   0.602   2.662   3.945
 2000SOL    HW2 6888   0.533   2.593   4.060
 2001SOL     OW 6889   1.280   2.222   4.659
 2001SOL    HW1 6890   1.191   2.186   4.668
 2001SOL    HW2 6891   1.334   2.166   4.715
 2002SOL     OW 6892   1.577   3.537   4.032
 2002SOL    HW1 6893   1.669   3.561   4.027
 2002SOL    HW2 6894   1.551   3.518   3.942
 2003SOL     OW 6895   0.791   2.480   5.174
 2003SOL    HW1 6896   0.765   2.455   5.263
 2003SOL    HW2 6897   0.754   2.412   5.118
 2004SOL     OW 6898   1.394   2.335   5.402
 2004SOL    HW1 6899   1.399   2.380   5.486
 2004SOL    HW2 6900   1.451   2.258   5.413
 2005SOL     OW 6901   0.952   2.748   5.308
 2005SOL    HW1 6902   1.007   2.679   5.271
 2005SOL    HW2 6903   0.904   2.783   5.233
 2006SOL     OW 6904   0.993   2.275   4.960
 2006SOL    HW1 6905   0.905   2.293   4.994
 2006SOL    HW2 6906   0.978   2.229   4.878
 2007SOL     OW 6907   1.053   2.561   4.149
 2007SOL    HW1 6908   1.069   2.553   4.243
 2007SOL    HW2 6909   0.970   2.514   4.136
 2008SOL     OW 6910   0.082   2.691   4.514
 2008SOL    HW1 6911   0.156   2.660   4.566
 2008SOL    HW2 6912   0.100   2.784   4.499
 2009SOL     OW 6913   0.127   3.718   5.302
 2009SOL    HW1 6914   0.135   3.686   5.392
 2009SOL    HW2 6915   0.035   3.705   5.279
 2010SOL     OW 6916   0.896   2.212   3.917
 2010SOL    HW1 6917   0.936   2.275   3.857
 2010SOL    HW2 6918   0.913   2.126   3.878
 2011SOL     OW 6919   1.687   2.451   5.541
 2011SOL    HW1 6920   1.655   2.522   5.486
 2011SOL    HW2 6921   1.720   2.386   5.479
 2012SOL     OW 6922   1.379   3.004   4.265
 2012SOL    HW1 6923   1.458   2.992   4.212
 2012SOL    HW2 6924   1.326   3.066   4.214
 2013SOL     OW 6925   0.546   2.040   4.618
 2013SOL    HW1 6926   0.553   2.072   4.708
 2013SOL    HW2 6927   0.546   2.119   4.565
 2014SOL     OW 6928   1.003   3.307   4.194
 2014SOL    HW1 6929   0.967   3.381   4.146
 2014SOL    HW2 6930   0.983   3.326   4.286
 2015SOL     OW 6931   0.359   3.671   4.585
 2015SOL    HW1 6932   0.438   3.618   4.598
 2015SOL    HW2 6933   0.389   3.761   4.595
 2016SOL     OW 6934   1.800   2.915   4.593
 2016SOL    HW1 6935   1.747   2.897   4.516
 2016SOL    HW2 6936   1.737   2.922   4.665
 2017SOL     OW 6937   1.228   3.399   5.235
 2017SOL    HW1 6938   1.214   3.327   5.296
 2017SOL    HW2 6939   1.160   3.387   5.169
 2018SOL     OW 6940   0.311   2.816   3.966
 2018SOL    HW1 6941   0.394   2.839   3.925
 2018SOL    HW2 6942   0.298   2.723   3.945
 2019SOL     OW 6943   1.480   2.608   4.449
 2019SOL    HW1 6944   1.474   2.565   4.534
 2019SOL    HW2 6945   1.559   2.663   4.455
 2020SOL     OW 6946   0.468   3.122   5.461
 2020SOL    HW1 6947   0.442   3.130   5.369
 2020SOL    HW2 6948   0.386   3.126   5.509
 2021SOL     OW 6949   1.113   3.643   3.946
 2021SOL    HW1 6950   1.049   3.597   3.999
 2021SOL    HW2 6951   1.144   3.577   3.883
 2022SOL     OW 6952   0.204   2.135   5.232
 2022SOL    HW1 6953   0.114   2.168   5.226
 2022SOL    HW2 6954   0.195   2.048   5.271
 2023SOL     OW 6955   1.628   3.243   3.814
 2023SOL    HW1 6956   1.587   3.328   3.797
 2023SOL    HW2 6957   1.559   3.179   3.794
 2024SOL     OW 6958   0.468   3.601   4.045
 2024SOL    HW1 6959   0.506   3.664   4.106
 2024SOL    HW2 6960   0.541   3.573   3.990
 2025SOL     OW 6961   1.397   1.967   4.159
 2025SOL    HW1 6962   1.384   1.946   4.066
 2025SOL    HW2 6963   1.486   1.938   4.178
 2026SOL     OW 6964   0.253   3.656   4.950
 2026SOL    HW1 6965   0.297   3.590   5.003
 2026SOL    HW2 6966   0.251   3.619   4.862
 2027SOL     OW 6967   0.938   3.563   4.624
 2027SOL    HW1 6968   1.015   3.511   4.646
 2027SOL    HW2 6969   0.894   3.513   4.554
 2028SOL     OW 6970   0.399   2.555   4.195
 2028SOL    HW1 6971   0.424   2.464   4.210
 2028SOL    HW2 6972   0.307   2.559   4.222
 2029SOL     OW 6973   1.527   2.079   5.445
 2029SOL    HW1 6974   1.544   2.104   5.536
 2029SOL    HW2 6975   1.460   2.011   5.450
 2030SOL     OW 6976   0.643   1.981   3.821
 2030SOL    HW1 6977   0.703   1.909   3.841
 2030SOL    HW2 6978   0.593   1.949   3.746
 2031SOL     OW 6979   0.764   2.140   5.477
 2031SOL    HW1 6980   0.843   2.086   5.475
 2031SOL    HW2 6981   0.724   2.120   5.561
 2032SOL     OW 6982   0.876   3.383   4.918
 2032SOL    HW1 6983   0.859   3.346   4.831
 2032SOL    HW2 6984   0.946   3.328   4.954
 2033SOL     OW 6985   1.341   2.451   5.157
 2033SOL    HW1 6986   1.371   2.419   5.242
 2033SOL    HW2 6987   1.377   2.539   5.150
 2034SOL     OW 6988   0.817   3.254   4.666
 2034SOL    HW1 6989   0.902   3.242   4.623
 2034SOL    HW2 6990   0.754   3.256   4.594
 2035SOL     OW 6991   0.929   2.372   4.626
 2035SOL    HW1 6992   0.905   2.363   4.534
 2035SOL    HW2 6993   0.959   2.284   4.651
 2036SOL     OW 6994   0.556   1.924   4.219
 2036SOL    HW1 6995   0.474   1.929   4.268
 2036SOL    HW2 6996   0.560   2.007   4.170
 2037SOL     OW 6997   1.428   3.061   3.764
 2037SOL    HW1 6998   1.458   2.986   3.815
 2037SOL    HW2 6999   1.342   3.082   3.801
 2038SOL     OW 7000   0.308   1.913   3.894
 2038SOL    HW1 7001   0.372   1.951   3.833
 2038SOL    HW2 7002   0.358   1.848   3.943
 2039SOL     OW 7003   0.940   2.109   4.183
 2039SOL    HW1 7004   0.912   2.150   4.101
 2039SOL    HW2 7005   1.034   2.126   4.186
 2040SOL     OW 7006   1.080   2.544   5.182
 2040SOL    HW1 7007   1.013   2.475   5.187
 2040SOL    HW2 7008   1.163   2.496   5.177
 2041SOL     OW 7009   1.222   3.433   4.518
 2041SOL    HW1 7010   1.237   3.500   4.451
 2041SOL    HW2 7011   1.290   3.447   4.583
 2042SOL     OW 7012   0.467   3.013   4.459
 2042SOL    HW1 7013   0.395   2.989   4.518
 2042SOL    HW2 7014   0.432   2.997   4.371
 2043SOL     OW 7015   1.266   3.656   4.332
 2043SOL    HW1 7016   1.313   3.721   4.279
 2043SOL    HW2 7017   1.194   3.705   4.371
 2044SOL     OW 7018   1.023   2.401   3.749
 2044SOL    HW1 7019   0.981   2.484   3.730
 2044SOL    HW2 7020   1.089   2.422   3.815
 2045SOL     OW 7021   0.082   2.434   5.114
 2045SOL    HW1 7022   0.172   2.421   5.083
 2045SOL    HW2 7023   0.089   2.504   5.179
 2046SOL     OW 7024   0.567   2.089   4.890
 2046SOL    HW1 7025   0.608   2.014   4.933
 2046SOL    HW2 7026   0.475   2.085   4.919
 2047SOL     OW 7027   0.867   2.320   4.364
 2047SOL    HW1 7028   0.820   2.374   4.300
 2047SOL    HW2 7029   0.888   2.240   4.316
 2048SOL     OW 7030   1.016   1.916   4.475
 2048SOL    HW1 7031   0.958   1.910   4.398
 2048SOL    HW2 7032   0.993   1.841   4.528
 2049SOL     OW 7033   1.438   3.024   4.581
 2049SOL    HW1 7034   1.368   2.959   4.581
 2049SOL    HW2 7035   1.462   3.033   4.488
 2050SOL     OW 7036   1.464   2.469   4.697
 2050SOL    HW1 7037   1.411   2.390   4.698
 2050SOL    HW2 7038   1.522   2.461   4.773
 2051SOL     OW 7039   1.846   2.676   4.111
 2051SOL    HW1 7040   1.904   2.623   4.166
 2051SOL    HW2 7041   1.815   2.614   4.044
 2052SOL     OW 7042   0.488   3.281   3.883
 2052SOL    HW1 7043   0.412   3.251   3.933
 2052SOL    HW2 7044   0.470   3.252   3.793
 2053SOL     OW 7045   1.673   3.126   4.368
 2053SOL    HW1 7046   1.768   3.127   4.382
 2053SOL    HW2 7047   1.644   3.214   4.389
 2054SOL     OW 7048   1.392   2.436   3.793
 2054SOL    HW1 7049   1.336   2.413   3.867
 2054SOL    HW2 7050   1.480   2.413   3.822
 2055SOL     OW 7051   0.574   2.130   4.042
 2055SOL    HW1 7052   0.605   2.083   3.965
 2055SOL    HW2 7053   0.542   2.214   4.008
 2056SOL     OW 7054   1.751   3.103   5.293
 2056SOL    HW1 7055   1.839   3.064   5.290
 2056SOL    HW2 7056   1.766   3.194   5.320
 2057SOL     OW 7057   1.056   3.214   5.056
 2057SOL    HW1 7058   0.981   3.184   5.107
 2057SOL    HW2 7059   1.132   3.174   5.098
 2058SOL     OW 7060   1.609   3.488   5.380
 2058SOL    HW1 7061   1.601   3.522   5.291
 2058SOL    HW2 7062   1.692   3.440   5.381
 2059SOL     OW 7063   1.132   3.068   4.828
 2059SOL    HW1 7064   1.072   3.105   4.892
 2059SOL    HW2 7065   1.100   3.101   4.744
 2060SOL     OW 7066   1.626   2.959   4.800
 2060SOL    HW1 7067   1.620   3.021   4.873
 2060SOL    HW2 7068   1.548   2.977   4.747
 2061SOL     OW 7069   0.918   1.957   5.118
 2061SOL    HW1 7070   0.941   1.939   5.027
 2061SOL    HW2 7071   0.996   1.996   5.155
 2062SOL     OW 7072   0.984   2.976   5.448
 2062SOL    HW1 7073   0.893   2.993   5.470
 2062SOL    HW2 7074   0.982   2.898   5.392
 2063SOL     OW 7075   0.708   2.922   4.095
 2063SOL    HW1 7076   0.694   2.906   4.188
 2063SOL    HW2 7077   0.784   2.870   4.071
 2064SOL     OW 7078   0.422   2.679   4.976
 2064SOL    HW1 7079   0.490   2.687   5.043
 2064SOL    HW2 7080   0.388   2.590   4.988
 2065SOL     OW 7081   1.264   2.238   5.002
 2065SOL    HW1 7082   1.297   2.316   5.048
 2065SOL    HW2 7083   1.174   2.259   4.979
 2066SOL     OW 7084   0.065   3.442   5.070
 2066SOL    HW1 7085   0.071   3.496   4.991
 2066SOL    HW2 7086   0.156   3.430   5.097
 2067SOL     OW 7087   0.370   2.964   4.207
 2067SOL    HW1 7088   0.365   3.045   4.155
 2067SOL    HW2 7089   0.369   2.894   4.142
 2068SOL     OW 7090   0.549   2.398   4.585
 2068SOL    HW1 7091   0.564   2.455   4.510
 2068SOL    HW2 7092   0.617   2.423   4.648
 2069SOL     OW 7093   1.248   3.211   4.113
 2069SOL    HW1 7094   1.304   3.282   4.145
 2069SOL    HW2 7095   1.161   3.233   4.147
 2070SOL     OW 7096   1.285   3.321   4.872
 2070SOL    HW1 7097   1.340   3.325   4.950
 2070SOL    HW2 7098   1.229   3.245   4.886
 2071SOL     OW 7099   1.576   2.483   4.201
 2071SOL    HW1 7100   1.531   2.538   4.266
 2071SOL    HW2 7101   1.622   2.546   4.145
 2072SOL     OW 7102   0.345   3.390   5.042
 2072SOL    HW1 7103   0.335   3.339   4.961
 2072SOL    HW2 7104   0.439   3.404   5.049
 2073SOL     OW 7105   0.416   2.600   5.325
 2073SOL    HW1 7106   0.479   2.646   5.269
 2073SOL    HW2 7107   0.456   2.515   5.342
 2074SOL     OW 7108   1.600   2.654   5.397
 2074SOL    HW1 7109   1.514   2.695   5.393
 2074SOL    HW2 7110   1.651   2.699   5.331
 2075SOL     OW 7111   0.995   1.990   5.476
 2075SOL    HW1 7112   1.055   2.062   5.454
 2075SOL    HW2 7113   1.043   1.911   5.453
 2076SOL     OW 7114   0.498   1.897   5.470
 2076SOL    HW1 7115   0.453   1.845   5.403
 2076SOL    HW2 7116   0.444   1.975   5.479
 2077SOL     OW 7117   0.585   2.736   4.756
 2077SOL    HW1 7118   0.618   2.826   4.756
 2077SOL    HW2 7119   0.529   2.730   4.833
 2078SOL     OW 7120   1.354   2.720   4.750
 2078SOL    HW1 7121   1.269   2.709   4.707
 2078SOL    HW2 7122   1.397   2.635   4.742
 2079SOL     OW 7123   1.202   2.390   3.989
 2079SOL    HW1 7124   1.211   2.312   4.044
 2079SOL    HW2 7125   1.160   2.454   4.045
 2080SOL     OW 7126   0.310   2.058   4.971
 2080SOL    HW1 7127   0.264   2.095   5.046
 2080SOL    HW2 7128   0.287   1.965   4.971
 2081SOL     OW 7129   0.060   3.167   5.004
 2081SOL    HW1 7130   0.091   3.126   5.085
 2081SOL    HW2 7131   0.052   3.260   5.026
 2082SOL     OW 7132   0.724   2.493   4.780
 2082SOL    HW1 7133   0.799   2.477   4.723
 2082SOL    HW2 7134   0.695   2.582   4.759
 2083SOL     OW 7135   1.737   2.818   5.583
 2083SOL    HW1 7136   1.695   2.756   5.524
 2083SOL    HW2 7137   1.671   2.835   5.650
 2084SOL     OW 7138   0.314   1.924   4.344
 2084SOL    HW1 7139   0.293   2.015   4.365
 2084SOL    HW2 7140   0.321   1.881   4.429
 2085SOL     OW 7141   1.609   2.237   4.093
 2085SOL    HW1 7142   1.626   2.184   4.171
 2085SOL    HW2 7143   1.588   2.324   4.127
 2086SOL     OW 7144   1.028   2.621   4.684
 2086SOL    HW1 7145   1.022   2.638   4.778
 2086SOL    HW2 7146   1.002   2.529   4.674
 2087SOL     OW 7147   0.986   3.429   5.444
 2087SOL    HW1 7148   0.966   3.471   5.360
 2087SOL    HW2 7149   1.027   3.346   5.421
 2088SOL     OW 7150   1.853   3.365   5.328
 2088SOL    HW1 7151   1.873   3.393   5.239
 2088SOL    HW2 7152   1.934   3.382   5.377
 2089SOL     OW 7153   0.353   2.784   5.524
 2089SOL    HW1 7154   0.432   2.804   5.574
 2089SOL    HW2 7155   0.381   2.716   5.462
 2090SOL     OW 7156   1.528   2.131   3.849
 2090SOL    HW1 7157   1.462   2.069   3.879
 2090SOL    HW2 7158   1.562   2.171   3.930
 2091SOL     OW 7159   1.289   2.688   3.754
 2091SOL    HW1 7160   1.331   2.602   3.758
 2091SOL    HW2 7161   1.320   2.727   3.672
 2092SOL     OW 7162   1.067   3.199   4.579
 2092SOL    HW1 7163   1.071   3.127   4.516
 2092SOL    HW2 7164   1.127   3.265   4.544
 2093SOL     OW 7165   0.313   2.664   4.674
 2093SOL    HW1 7166   0.407   2.682   4.668
 2093SOL    HW2 7167   0.308   2.574   4.706
 2094SOL     OW 7168   0.329   2.383   4.738
 2094SOL    HW1 7169   0.295   2.295   4.722
 2094SOL    HW2 7170   0.406   2.390   4.681
 2095SOL     OW 7171   1.134   2.237   5.406
 2095SOL    HW1 7172   1.087   2.293   5.468
 2095SOL    HW2 7173   1.223   2.274   5.404
 2096SOL     OW 7174   1.160   2.063   5.194
 2096SOL    HW1 7175   1.149   2.125   5.266
 2096SOL    HW2 7176   1.203   2.113   5.125
 2097SOL     OW 7177   4.000   3.180   3.906
 2097SOL    HW1 7178   3.905   3.196   3.910
 2097SOL    HW2 7179   0.009   3.086   3.924
 2098SOL     OW 7180   0.076   3.663   4.619
 2098SOL    HW1 7181   0.091   3.568   4.617
 2098SOL    HW2 7182   0.163   3.701   4.617
 2099SOL     OW 7183   0.507   3.425   4.641
 2099SOL    HW1 7184   0.573   3.492   4.661
 2099SOL    HW2 7185   0.549   3.367   4.578
 2100SOL     OW 7186   0.978   2.652   4.949
 2100SOL    HW1 7187   1.036   2.631   5.023
 2100SOL    HW2 7188   0.894   2.613   4.973
 2101SOL     OW 7189   0.038   2.420   4.833
 2101SOL    HW1 7190   0.120   2.396   4.791
 2101SOL    HW2 7191   0.057   2.417   4.927
 2102SOL     OW 7192   0.207   2.375   5.452
 2102SOL    HW1 7193   0.246   2.327   5.379
 2102SOL    HW2 7194   0.160   2.447   5.411
 2103SOL     OW 7195   1.372   2.802   5.381
 2103SOL    HW1 7196   1.396   2.895   5.377
 2103SOL    HW2 7197   1.369   2.775   5.289
 2104SOL     OW 7198   0.818   2.431   4.086
 2104SOL    HW1 7199   0.823   2.356   4.027
 2104SOL    HW2 7200   0.744   2.482   4.054
 2105SOL     OW 7201   1.639   2.464   4.908
 2105SOL    HW1 7202   1.628   2.407   4.984
 2105SOL    HW2 7203   1.725   2.440   4.873
 2106SOL     OW 7204   0.300   3.407   5.450
 2106SOL    HW1 7205   0.251   3.477   5.495
 2106SOL    HW2 7206   0.268   3.326   5.490
 2107SOL     OW 7207   0.707   2.311   4.981
 2107SOL    HW1 7208   0.654   2.237   4.952
 2107SOL    HW2 7209   0.701   2.374   4.909
 2108SOL     OW 7210   0.927   3.533   5.193
 2108SOL    HW1 7211   0.901   3.496   5.109
 2108SOL    HW2 7212   0.920   3.628   5.181
 2109SOL     OW 7213   0.455   2.351   3.919
 2109SOL    HW1 7214   0.520   2.419   3.937
 2109SOL    HW2 7215   0.375   2.400   3.897
 2110SOL     OW 7216   0.156   2.997   5.199
 2110SOL    HW1 7217   0.156   2.946   5.280
 2110SOL    HW2 7218   0.171   2.932   5.130
 2111SOL     OW 7219   1.324   2.907   4.945
 2111SOL    HW1 7220   1.346   2.843   4.877
 2111SOL    HW2 7221   1.255   2.962   4.906
 2112SOL     OW 7222   1.313   2.719   4.029
 2112SOL    HW1 7223   1.239   2.687   4.080
 2112SOL    HW2 7224   1.288   2.705   3.938
 2113SOL     OW 7225   1.772   3.602   4.875
 2113SOL    HW1 7226   1.834   3.630   4.808
 2113SOL    HW2 7227   1.750   3.512   4.851
 2114SOL     OW 7228   1.244   3.595   4.832
 2114SOL    HW1 7229   1.327   3.616   4.790
 2114SOL    HW2 7230   1.251   3.501   4.852
 2115SOL     OW 7231   0.076   3.076   4.752
 2115SOL    HW1 7232   0.083   3.104   4.843
 2115SOL    HW2 7233   3.984   3.087   4.730
 2116SOL     OW 7234   0.679   3.527   5.457
 2116SOL    HW1 7235   0.621   3.603   5.461
 2116SOL    HW2 7236   0.739   3.546   5.385
 2117SOL     OW 7237   1.391   3.431   4.211
 2117SOL    HW1 7238   1.450   3.464   4.144
 2117SOL    HW2 7239   1.342   3.508   4.241
 2118SOL     OW 7240   0.170   3.623   5.556
 2118SOL    HW1 7241   0.115   3.570   5.614
 2118SOL    HW2 7242   0.217   3.682   5.614
 2119SOL     OW 7243   1.277   2.789   4.395
 2119SOL    HW1 7244   1.351   2.728   4.404
 2119SOL    HW2 7245   1.312   2.861   4.342
 2120SOL     OW 7246   0.810   3.136   5.152
 2120SOL    HW1 7247   0.781   3.177   5.234
 2120SOL    HW2 7248   0.739   3.155   5.090
 2121SOL     OW 7249   0.675   3.479   3.882
 2121SOL    HW1 7250   0.683   3.496   3.788
 2121SOL    HW2 7251   0.616   3.404   3.887
 2122SOL     OW 7252   1.622   3.588   5.114
 2122SOL    HW1 7253   1.674   3.593   5.033
 2122SOL    HW2 7254   1.608   3.679   5.139
 2123SOL     OW 7255   0.266   2.175   4.440
 2123SOL    HW1 7256   0.180   2.207   4.414
 2123SOL    HW2 7257   0.261   2.165   4.535
 2124SOL     OW 7258   1.208   3.466   3.760
 2124SOL    HW1 7259   1.197   3.374   3.784
 2124SOL    HW2 7260   1.147   3.479   3.687
 2125SOL     OW 7261   0.823   2.868   5.098
 2125SOL    HW1 7262   0.868   2.862   5.013
 2125SOL    HW2 7263   0.822   2.961   5.118
 2126SOL     OW 7264   0.916   2.772   4.015
 2126SOL    HW1 7265   0.976   2.805   3.948
 2126SOL    HW2 7266   0.965   2.704   4.060
 2127SOL     OW 7267   1.489   3.491   3.767
 2127SOL    HW1 7268   1.395   3.480   3.750
 2127SOL    HW2 7269   1.528   3.496   3.679
 2128SOL     OW 7270   0.374   3.165   5.215
 2128SOL    HW1 7271   0.359   3.245   5.165
 2128SOL    HW2 7272   0.297   3.111   5.198
 2129SOL     OW 7273   1.609   3.145   5.004
 2129SOL    HW1 7274   1.670   3.133   5.076
 2129SOL    HW2 7275   1.549   3.213   5.034
 2130SOL     OW 7276   1.056   2.971   4.432
 2130SOL    HW1 7277   0.984   2.920   4.470
 2130SOL    HW2 7278   1.120   2.905   4.403
 2131SOL     OW 7279   1.023   2.103   4.691
 2131SOL    HW1 7280   1.019   2.056   4.608
 2131SOL    HW2 7281   1.018   2.035   4.757
 2132SOL     OW 7282   0.606   3.352   4.204
 2132SOL    HW1 7283   0.651   3.302   4.137
 2132SOL    HW2 7284   0.533   3.395   4.158
 2133SOL     OW 7285   1.731   2.246   5.098
 2133SOL    HW1 7286   1.800   2.312   5.103
 2133SOL    HW2 7287   1.771   2.173   5.050
 2134SOL     OW 7288   0.253   3.203   4.016
 2134SOL    HW1 7289   0.160   3.211   3.997
 2134SOL    HW2 7290   0.264   3.241   4.103
 2135SOL     OW 7291   0.107   2.860   5.441
 2135SOL    HW1 7292   0.047   2.853   5.515
 2135SOL    HW2 7293   0.194   2.842   5.478
 2136SOL     OW 7294   0.675   2.058   5.223
 2136SOL    HW1 7295   0.759   2.037   5.183
 2136SOL    HW2 7296   0.698   2.089   5.311
 2137SOL     OW 7297   0.081   2.176   3.761
 2137SOL    HW1 7298   3.985   2.176   3.769
 2137SOL    HW2 7299   0.101   2.257   3.714
 2138SOL     OW 7300   1.428   2.721   5.123
 2138SOL    HW1 7301   1.379   2.782   5.067
 2138SOL    HW2 7302   1.517   2.723   5.089
 2139SOL     OW 7303   0.018   2.097   4.100
 2139SOL    HW1 7304   0.045   2.161   4.034
 2139SOL    HW2 7305   0.100   2.058   4.130
 2140SOL     OW 7306   1.178   3.199   3.841
 2140SOL    HW1 7307   1.086   3.170   3.842
 2140SOL    HW2 7308   1.204   3.199   3.933
 2141SOL     OW 7309   0.619   2.692   5.161
 2141SOL    HW1 7310   0.676   2.768   5.145
 2141SOL    HW2 7311   0.680   2.619   5.168
 2142SOL     OW 7312   1.486   3.641   4.705
 2142SOL    HW1 7313   1.508   3.700   4.633
 2142SOL    HW2 7314   1.570   3.619   4.745
 2143SOL     OW 7315   0.716   2.424   5.428
 2143SOL    HW1 7316   0.761   2.485   5.487
 2143SOL    HW2 7317   0.740   2.337   5.459
 2144SOL     OW 7318   1.474   3.060   5.354
 2144SOL    HW1 7319   1.461   3.074   5.447
 2144SOL    HW2 7320   1.566   3.078   5.339
 2145SOL     OW 7321   0.378   3.607   5.283
 2145SOL    HW1 7322   0.290   3.643   5.270
 2145SOL    HW2 7323   0.364   3.525   5.329
 2146SOL     OW 7324   1.668   2.743   4.978
 2146SOL    HW1 7325   1.660   2.657   4.936
 2146SOL    HW2 7326   1.657   2.806   4.907
 2147SOL     OW 7327   1.215   2.182   4.182
 2147SOL    HW1 7328   1.278   2.110   4.174
 2147SOL    HW2 7329   1.245   2.231   4.258
 2148SOL     OW 7330   0.589   2.599   4.396
 2148SOL    HW1 7331   0.628   2.685   4.381
 2148SOL    HW2 7332   0.523   2.590   4.328
 2149SOL     OW 7333   1.741   2.235   5.376
 2149SOL    HW1 7334   1.743   2.239   5.280
 2149SOL    HW2 7335   1.671   2.172   5.396
 2150SOL     OW 7336   1.745   2.808   5.232
 2150SOL    HW1 7337   1.735   2.902   5.242
 2150SOL    HW2 7338   1.729   2.792   5.139
 2151SOL     OW 7339   0.865   3.229   3.763
 2151SOL    HW1 7340   0.823   3.257   3.845
 2151SOL    HW2 7341   0.879   3.310   3.714
 2152SOL     OW 7342   0.659   3.651   4.659
 2152SOL    HW1 7343   0.637   3.742   4.640
 2152SOL    HW2 7344   0.754   3.647   4.657
 2153SOL     OW 7345   0.869   2.830   4.578
 2153SOL    HW1 7346   0.919   2.758   4.616
 2153SOL    HW2 7347   0.832   2.877   4.653
 2154SOL     OW 7348   1.077   2.850   3.813
 2154SOL    HW1 7349   1.057   2.902   3.735
 2154SOL    HW2 7350   1.152   2.796   3.787
 2155SOL     OW 7351   1.851   3.412   4.565
 2155SOL    HW1 7352   1.770   3.402   4.515
 2155SOL    HW2 7353   1.841   3.350   4.638
 2156SOL     OW 7354   0.226   3.166   5.580
 2156SOL    HW1 7355   0.153   3.111   5.553
 2156SOL    HW2 7356   0.213   3.179   5.674
 2157SOL     OW 7357   0.115   3.140   4.446
 2157SOL    HW1 7358   0.134   3.090   4.525
 2157SOL    HW2 7359   0.105   3.074   4.377
 2158SOL     OW 7360   0.683   3.266   5.355
 2158SOL    HW1 7361   0.602   3.225   5.384
 2158SOL    HW2 7362   0.679   3.355   5.391
 2159SOL     OW 7363   0.441   2.296   4.258
 2159SOL    HW1 7364   0.442   2.226   4.192
 2159SOL    HW2 7365   0.385   2.262   4.328
 2160SOL     OW 7366   1.700   3.348   4.815
 2160SOL    HW1 7367   1.619   3.327   4.770
 2160SOL    HW2 7368   1.709   3.280   4.882
 2161SOL     OW 7369   0.335   2.419   5.016
 2161SOL    HW1 7370   0.389   2.362   5.071
 2161SOL    HW2 7371   0.349   2.388   4.927
 2162SOL     OW 7372   0.828   3.441   4.400
 2162SOL    HW1 7373   0.812   3.495   4.323
 2162SOL    HW2 7374   0.754   3.381   4.404
 2163SOL     OW 7375   1.436   2.090   4.844
 2163SOL    HW1 7376   1.443   2.003   4.882
 2163SOL    HW2 7377   1.382   2.139   4.907
 2164SOL     OW 7378   1.010   1.879   4.863
 2164SOL    HW1 7379   0.956   1.812   4.821
 2164SOL    HW2 7380   1.098   1.841   4.865
 2165SOL     OW 7381   0.772   3.194   4.043
 2165SOL    HW1 7382   0.743   3.103   4.049
 2165SOL    HW2 7383   0.855   3.196   4.091
 2166SOL     OW 7384   0.621   3.416   5.010
 2166SOL    HW1 7385   0.622   3.497   5.060
 2166SOL    HW2 7386   0.708   3.410   4.972
 2167SOL     OW 7387   1.353   1.912   3.892
 2167SOL    HW1 7388   1.382   1.849   3.826
 2167SOL    HW2 7389   1.265   1.883   3.916
 2168SOL     OW 7390   1.297   2.324   4.404
 2168SOL    HW1 7391   1.244   2.403   4.410
 2168SOL    HW2 7392   1.292   2.285   4.492
 2169SOL     OW 7393   1.574   2.056   4.596
 2169SOL    HW1 7394   1.535   2.081   4.680
 2169SOL    HW2 7395   1.586   2.138   4.549
 2170SOL     OW 7396   0.047   2.911   3.963
 2170SOL    HW1 7397   0.141   2.895   3.955
 2170SOL    HW2 7398   0.011   2.828   3.994
 2171SOL     OW 7399   0.886   3.521   4.067
 2171SOL    HW1 7400   0.815   3.501   4.006
 2171SOL    HW2 7401   0.855   3.596   4.117
 2172SOL     OW 7402   0.231   2.487   5.705
 2172SOL    HW1 7403   0.138   2.495   5.726
 2172SOL    HW2 7404   0.233   2.455   5.615
 2173SOL     OW 7405   0.229   2.134   6.573
 2173SOL    HW1 7406   0.250   2.100   6.660
 2173SOL    HW2 7407   0.134   2.126   6.566
 2174SOL     OW 7408   0.009   2.221   6.216
 2174SOL    HW1 7409   3.920   2.238   6.247
 2174SOL    HW2 7410   3.997   2.189   6.126
 2175SOL     OW 7411   0.579   3.151   6.777
 2175SOL    HW1 7412   0.493   3.154   6.735
 2175SOL    HW2 7413   0.593   3.240   6.810
 2176SOL     OW 7414   1.564   3.371   6.293
 2176SOL    HW1 7415   1.521   3.353   6.377
 2176SOL    HW2 7416   1.492   3.377   6.230
 2177SOL     OW 7417   1.058   2.623   6.270
 2177SOL    HW1 7418   1.135   2.678   6.259
 2177SOL    HW2 7419   1.046   2.616   6.364
 2178SOL     OW 7420   1.708   2.444   5.805
 2178SOL    HW1 7421   1.709   2.459   5.711
 2178SOL    HW2 7422   1.738   2.354   5.816
 2179SOL     OW 7423   0.754   3.002   6.631
 2179SOL    HW1 7424   0.689   3.038   6.692
 2179SOL    HW2 7425   0.789   3.079   6.586
 2180SOL     OW 7426   0.864   2.639   7.408
 2180SOL    HW1 7427   0.855   2.709   7.473
 2180SOL    HW2 7428   0.889   2.684   7.327
 2181SOL     OW 7429   0.685   2.863   6.232
 2181SOL    HW1 7430   0.752   2.852   6.300
 2181SOL    HW2 7431   0.616   2.915   6.273
 2182SOL     OW 7432   0.711   3.012   7.402
 2182SOL    HW1 7433   0.759   3.090   7.431
 2182SOL    HW2 7434   0.630   3.046   7.365
 2183SOL     OW 7435   0.350   3.263   6.664
 2183SOL    HW1 7436   0.268   3.247   6.617
 2183SOL    HW2 7437   0.400   3.322   6.606
 2184SOL     OW 7438   1.461   3.362   6.942
 2184SOL    HW1 7439   1.514   3.441   6.953
 2184SOL    HW2 7440   1.394   3.369   7.011
 2185SOL     OW 7441   0.450   2.260   7.072
 2185SOL    HW1 7442   0.524   2.200   7.075
 2185SOL    HW2 7443   0.374   2.204   7.086
 2186SOL     OW 7444   0.223   3.571   6.052
 2186SOL    HW1 7445   0.223   3.655   6.099
 2186SOL    HW2 7446   0.300   3.576   5.995
 2187SOL     OW 7447   1.138   3.204   7.278
 2187SOL    HW1 7448   1.177   3.197   7.365
 2187SOL    HW2 7449   1.084   3.126   7.270
 2188SOL     OW 7450   0.251   3.306   6.126
 2188SOL    HW1 7451   0.222   3.396   6.112
 2188SOL    HW2 7452   0.181   3.267   6.179
 2189SOL     OW 7453   0.248   2.929   6.470
 2189SOL    HW1 7454   0.267   2.844   6.510
 2189SOL    HW2 7455   0.195   2.974   6.535
 2190SOL     OW 7456   0.611   3.648   7.014
 2190SOL    HW1 7457   0.529   3.633   7.060
 2190SOL    HW2 7458   0.637   3.736   7.038
 2191SOL     OW 7459   0.577   2.848   5.724
 2191SOL    HW1 7460   0.625   2.893   5.655
 2191SOL    HW2 7461   0.618   2.877   5.805
 2192SOL     OW 7462   1.578   2.034   7.081
 2192SOL    HW1 7463   1.535   2.042   6.996
 2192SOL    HW2 7464   1.518   1.980   7.133
 2193SOL     OW 7465   0.143   2.515   6.160
 2193SOL    HW1 7466   0.087   2.437   6.158
 2193SOL    HW2 7467   0.106   2.569   6.230
 2194SOL     OW 7468   1.843   3.609   5.925
 2194SOL    HW1 7469   1.912   3.585   5.987
 2194SOL    HW2 7470   1.862   3.700   5.901
 2195SOL     OW 7471   0.041   3.453   5.726
 2195SOL    HW1 7472   0.035   3.361   5.751
 2195SOL    HW2 7473   3.958   3.491   5.754
 2196SOL     OW 7474   1.630   3.021   5.981
 2196SOL    HW1 7475   1.719   3.013   5.946
 2196SOL    HW2 7476   1.641   3.062   6.066
 2197SOL     OW 7477   0.139   2.615   7.175
 2197SOL    HW1 7478   0.235   2.610   7.172
 2197SOL    HW2 7479   0.121   2.703   7.207
 2198SOL     OW 7480   0.616   3.248   6.320
 2198SOL    HW1 7481   0.569   3.166   6.330
 2198SOL    HW2 7482   0.598   3.276   6.230
 2199SOL     OW 7483   1.289   3.100   7.008
 2199SOL    HW1 7484   1.317   3.027   6.953
 2199SOL    HW2 7485   1.344   3.095   7.086
 2200SOL     OW 7486   0.805   1.848   6.079
 2200SOL    HW1 7487   0.850   1.933   6.075
 2200SOL    HW2 7488   0.713   1.870   6.091
 2201SOL     OW 7489   0.184   2.812   6.866
 2201SOL    HW1 7490   0.272   2.777   6.853
 2201SOL    HW2 7491   0.132   2.774   6.795
 2202SOL     OW 7492   1.533   2.858   5.781
 2202SOL    HW1 7493   1.467   2.799   5.818
 2202SOL    HW2 7494   1.561   2.912   5.855
 2203SOL     OW 7495   1.219   3.666   7.214
 2203SOL    HW1 7496   1.194   3.728   7.144
 2203SOL    HW2 7497   1.220   3.581   7.171
 2204SOL     OW 7498   0.342   2.109   7.402
 2204SOL    HW1 7499   0.377   2.198   7.411
 2204SOL    HW2 7500   0.250   2.118   7.427
 2205SOL     OW 7501   1.467   3.280   6.538
 2205SOL    HW1 7502   1.399   3.298   6.603
 2205SOL    HW2 7503   1.450   3.190   6.510
 2206SOL     OW 7504   1.654   3.602   6.167
 2206SOL    HW1 7505   1.640   3.571   6.077
 2206SOL    HW2 7506   1.632   3.526   6.222
 2207SOL     OW 7507   0.596   2.578   5.852
 2207SOL    HW1 7508   0.601   2.662   5.807
 2207SOL    HW2 7509   0.533   2.593   5.922
 2208SOL     OW 7510   1.577   3.537   5.895
 2208SOL    HW1 7511   1.669   3.560   5.889
 2208SOL    HW2 7512   1.551   3.518   5.804
 2209SOL     OW 7513   0.786   2.477   7.038
 2209SOL    HW1 7514   0.761   2.454   7.127
 2209SOL    HW2 7515   0.745   2.410   6.983
 2210SOL     OW 7516   0.947   2.754   7.171
 2210SOL    HW1 7517   1.002   2.683   7.136
 2210SOL    HW2 7518   0.900   2.788   7.096
 2211SOL     OW 7519   0.974   2.275   6.817
 2211SOL    HW1 7520   0.891   2.310   6.850
 2211SOL    HW2 7521   0.949   2.202   6.761
 2212SOL     OW 7522   1.045   2.558   6.006
 2212SOL    HW1 7523   1.045   2.575   6.100
 2212SOL    HW2 7524   0.964   2.510   5.990
 2213SOL     OW 7525   0.082   2.691   6.376
 2213SOL    HW1 7526   0.156   2.660   6.428
 2213SOL    HW2 7527   0.100   2.784   6.361
 2214SOL     OW 7528   0.127   3.718   7.164
 2214SOL    HW1 7529   0.135   3.686   7.254
 2214SOL    HW2 7530   0.035   3.705   7.142
 2215SOL     OW 7531   0.883   2.222   5.763
 2215SOL    HW1 7532   0.930   2.278   5.701
 2215SOL    HW2 7533   0.917   2.134   5.747
 2216SOL     OW 7534   1.380   3.010   6.116
 2216SOL    HW1 7535   1.461   3.011   6.065
 2216SOL    HW2 7536   1.324   3.074   6.072
 2217SOL     OW 7537   0.546   2.042   6.479
 2217SOL    HW1 7538   0.553   2.073   6.569
 2217SOL    HW2 7539   0.543   2.122   6.427
 2218SOL     OW 7540   1.003   3.308   6.058
 2218SOL    HW1 7541   0.967   3.381   6.007
 2218SOL    HW2 7542   0.980   3.328   6.149
 2219SOL     OW 7543   0.359   3.671   6.447
 2219SOL    HW1 7544   0.438   3.618   6.460
 2219SOL    HW2 7545   0.389   3.761   6.457
 2220SOL     OW 7546   1.802   2.948   6.476
 2220SOL    HW1 7547   1.771   2.895   6.402
 2220SOL    HW2 7548   1.732   2.942   6.541
 2221SOL     OW 7549   1.229   3.399   7.096
 2221SOL    HW1 7550   1.215   3.327   7.158
 2221SOL    HW2 7551   1.158   3.390   7.033
 2222SOL     OW 7552   0.311   2.816   5.828
 2222SOL    HW1 7553   0.394   2.839   5.787
 2222SOL    HW2 7554   0.298   2.723   5.806
 2223SOL     OW 7555   0.468   3.123   7.323
 2223SOL    HW1 7556   0.442   3.131   7.231
 2223SOL    HW2 7557   0.386   3.126   7.371
 2224SOL     OW 7558   1.113   3.643   5.808
 2224SOL    HW1 7559   1.048   3.597   5.861
 2224SOL    HW2 7560   1.144   3.577   5.745
 2225SOL     OW 7561   0.204   2.136   7.094
 2225SOL    HW1 7562   0.114   2.168   7.088
 2225SOL    HW2 7563   0.195   2.049   7.133
 2226SOL     OW 7564   1.625   3.245   5.672
 2226SOL    HW1 7565   1.583   3.330   5.656
 2226SOL    HW2 7566   1.556   3.181   5.654
 2227SOL     OW 7567   0.468   3.601   5.907
 2227SOL    HW1 7568   0.507   3.664   5.968
 2227SOL    HW2 7569   0.541   3.573   5.852
 2228SOL     OW 7570   0.253   3.656   6.812
 2228SOL    HW1 7571   0.297   3.589   6.865
 2228SOL    HW2 7572   0.251   3.619   6.724
 2229SOL     OW 7573   0.937   3.563   6.486
 2229SOL    HW1 7574   1.013   3.511   6.509
 2229SOL    HW2 7575   0.894   3.513   6.416
 2230SOL     OW 7576   0.399   2.554   6.058
 2230SOL    HW1 7577   0.424   2.463   6.073
 2230SOL    HW2 7578   0.307   2.559   6.084
 2231SOL     OW 7579   0.638   1.978   5.687
 2231SOL    HW1 7580   0.706   1.912   5.701
 2231SOL    HW2 7581   0.592   1.948   5.609
 2232SOL     OW 7582   0.752   2.139   7.338
 2232SOL    HW1 7583   0.834   2.095   7.359
 2232SOL    HW2 7584   0.698   2.128   7.416
 2233SOL     OW 7585   0.876   3.383   6.780
 2233SOL    HW1 7586   0.859   3.346   6.693
 2233SOL    HW2 7587   0.945   3.327   6.816
 2234SOL     OW 7588   1.327   2.471   7.026
 2234SOL    HW1 7589   1.372   2.442   7.105
 2234SOL    HW2 7590   1.360   2.560   7.010
 2235SOL     OW 7591   0.818   3.254   6.527
 2235SOL    HW1 7592   0.902   3.242   6.484
 2235SOL    HW2 7593   0.754   3.256   6.456
 2236SOL     OW 7594   0.922   2.382   6.485
 2236SOL    HW1 7595   0.898   2.373   6.392
 2236SOL    HW2 7596   0.970   2.302   6.505
 2237SOL     OW 7597   0.550   1.926   6.082
 2237SOL    HW1 7598   0.468   1.931   6.131
 2237SOL    HW2 7599   0.553   2.008   6.033
 2238SOL     OW 7600   1.426   3.062   5.624
 2238SOL    HW1 7601   1.456   2.985   5.673
 2238SOL    HW2 7602   1.341   3.083   5.662
 2239SOL     OW 7603   0.309   1.913   5.756
 2239SOL    HW1 7604   0.373   1.951   5.696
 2239SOL    HW2 7605   0.359   1.847   5.805
 2240SOL     OW 7606   1.069   2.548   7.048
 2240SOL    HW1 7607   1.004   2.477   7.053
 2240SOL    HW2 7608   1.153   2.502   7.042
 2241SOL     OW 7609   1.224   3.431   6.378
 2241SOL    HW1 7610   1.236   3.499   6.311
 2241SOL    HW2 7611   1.289   3.453   6.446
 2242SOL     OW 7612   0.467   3.013   6.321
 2242SOL    HW1 7613   0.396   2.989   6.380
 2242SOL    HW2 7614   0.432   2.997   6.233
 2243SOL     OW 7615   1.265   3.656   6.194
 2243SOL    HW1 7616   1.313   3.720   6.142
 2243SOL    HW2 7617   1.193   3.706   6.233
 2244SOL     OW 7618   1.026   2.404   5.606
 2244SOL    HW1 7619   0.980   2.486   5.588
 2244SOL    HW2 7620   1.091   2.427   5.672
 2245SOL     OW 7621   0.082   2.435   6.975
 2245SOL    HW1 7622   0.172   2.422   6.945
 2245SOL    HW2 7623   0.088   2.504   7.041
 2246SOL     OW 7624   0.566   2.088   6.751
 2246SOL    HW1 7625   0.607   2.011   6.790
 2246SOL    HW2 7626   0.475   2.085   6.780
 2247SOL     OW 7627   0.860   2.326   6.225
 2247SOL    HW1 7628   0.812   2.392   6.175
 2247SOL    HW2 7629   0.884   2.260   6.160
 2248SOL     OW 7630   1.439   3.023   6.443
 2248SOL    HW1 7631   1.355   2.981   6.423
 2248SOL    HW2 7632   1.481   3.033   6.357
 2249SOL     OW 7633   0.488   3.281   5.745
 2249SOL    HW1 7634   0.412   3.251   5.795
 2249SOL    HW2 7635   0.470   3.253   5.655
 2250SOL     OW 7636   1.667   3.121   6.231
 2250SOL    HW1 7637   1.762   3.119   6.243
 2250SOL    HW2 7638   1.642   3.211   6.251
 2251SOL     OW 7639   1.397   2.439   5.655
 2251SOL    HW1 7640   1.339   2.416   5.728
 2251SOL    HW2 7641   1.484   2.412   5.685
 2252SOL     OW 7642   0.574   2.130   5.906
 2252SOL    HW1 7643   0.604   2.082   5.829
 2252SOL    HW2 7644   0.544   2.214   5.871
 2253SOL     OW 7645   1.749   3.114   7.154
 2253SOL    HW1 7646   1.831   3.068   7.139
 2253SOL    HW2 7647   1.775   3.202   7.179
 2254SOL     OW 7648   1.057   3.212   6.915
 2254SOL    HW1 7649   0.982   3.183   6.967
 2254SOL    HW2 7650   1.133   3.173   6.960
 2255SOL     OW 7651   1.611   3.488   7.242
 2255SOL    HW1 7652   1.602   3.522   7.153
 2255SOL    HW2 7653   1.694   3.440   7.242
 2256SOL     OW 7654   1.133   3.063   6.689
 2256SOL    HW1 7655   1.075   3.101   6.755
 2256SOL    HW2 7656   1.100   3.098   6.606
 2257SOL     OW 7657   1.603   2.954   6.662
 2257SOL    HW1 7658   1.604   3.020   6.732
 2257SOL    HW2 7659   1.544   2.990   6.596
 2258SOL     OW 7660   0.920   1.970   6.989
 2258SOL    HW1 7661   0.932   1.947   6.896
 2258SOL    HW2 7662   0.998   2.022   7.010
 2259SOL     OW 7663   0.978   2.984   7.306
 2259SOL    HW1 7664   0.885   2.996   7.327
 2259SOL    HW2 7665   0.980   2.905   7.252
 2260SOL     OW 7666   0.708   2.923   5.957
 2260SOL    HW1 7667   0.694   2.905   6.050
 2260SOL    HW2 7668   0.784   2.870   5.934
 2261SOL     OW 7669   0.422   2.678   6.838
 2261SOL    HW1 7670   0.490   2.687   6.905
 2261SOL    HW2 7671   0.388   2.590   6.850
 2262SOL     OW 7672   1.228   2.224   6.910
 2262SOL    HW1 7673   1.275   2.307   6.922
 2262SOL    HW2 7674   1.145   2.250   6.869
 2263SOL     OW 7675   0.065   3.442   6.932
 2263SOL    HW1 7676   0.070   3.495   6.852
 2263SOL    HW2 7677   0.156   3.430   6.959
 2264SOL     OW 7678   0.371   2.964   6.068
 2264SOL    HW1 7679   0.365   3.045   6.017
 2264SOL    HW2 7680   0.370   2.894   6.004
 2265SOL     OW 7681   0.550   2.397   6.447
 2265SOL    HW1 7682   0.564   2.454   6.371
 2265SOL    HW2 7683   0.617   2.424   6.510
 2266SOL     OW 7684   1.245   3.214   5.976
 2266SOL    HW1 7685   1.302   3.285   6.006
 2266SOL    HW2 7686   1.159   3.236   6.009
 2267SOL     OW 7687   1.285   3.321   6.735
 2267SOL    HW1 7688   1.341   3.326   6.812
 2267SOL    HW2 7689   1.225   3.249   6.752
 2268SOL     OW 7690   1.605   2.474   6.049
 2268SOL    HW1 7691   1.553   2.554   6.059
 2268SOL    HW2 7692   1.645   2.483   5.962
 2269SOL     OW 7693   0.345   3.390   6.903
 2269SOL    HW1 7694   0.335   3.339   6.823
 2269SOL    HW2 7695   0.439   3.404   6.911
 2270SOL     OW 7696   0.416   2.601   7.187
 2270SOL    HW1 7697   0.479   2.645   7.131
 2270SOL    HW2 7698   0.456   2.516   7.205
 2271SOL     OW 7699   0.498   1.898   7.331
 2271SOL    HW1 7700   0.453   1.845   7.265
 2271SOL    HW2 7701   0.443   1.976   7.341
 2272SOL     OW 7702   0.584   2.736   6.618
 2272SOL    HW1 7703   0.617   2.826   6.618
 2272SOL    HW2 7704   0.528   2.730   6.696
 2273SOL     OW 7705   1.205   2.396   5.849
 2273SOL    HW1 7706   1.213   2.315   5.901
 2273SOL    HW2 7707   1.156   2.456   5.906
 2274SOL     OW 7708   0.310   2.058   6.833
 2274SOL    HW1 7709   0.264   2.095   6.908
 2274SOL    HW2 7710   0.287   1.965   6.834
 2275SOL     OW 7711   0.062   3.168   6.866
 2275SOL    HW1 7712   0.091   3.126   6.947
 2275SOL    HW2 7713   0.052   3.260   6.888
 2276SOL     OW 7714   0.721   2.494   6.643
 2276SOL    HW1 7715   0.796   2.479   6.586
 2276SOL    HW2 7716   0.693   2.583   6.623
 2277SOL     OW 7717   0.310   1.924   6.207
 2277SOL    HW1 7718   0.290   2.015   6.229
 2277SOL    HW2 7719   0.319   1.881   6.292
 2278SOL     OW 7720   1.598   2.211   5.965
 2278SOL    HW1 7721   1.630   2.160   6.040
 2278SOL    HW2 7722   1.594   2.301   5.999
 2279SOL     OW 7723   1.018   2.628   6.548
 2279SOL    HW1 7724   1.018   2.642   6.642
 2279SOL    HW2 7725   0.996   2.536   6.537
 2280SOL     OW 7726   0.987   3.430   7.306
 2280SOL    HW1 7727   0.967   3.471   7.222
 2280SOL    HW2 7728   1.027   3.347   7.283
 2281SOL     OW 7729   1.856   3.366   7.189
 2281SOL    HW1 7730   1.875   3.395   7.099
 2281SOL    HW2 7731   1.937   3.385   7.237
 2282SOL     OW 7732   0.353   2.784   7.386
 2282SOL    HW1 7733   0.431   2.804   7.437
 2282SOL    HW2 7734   0.381   2.717   7.324
 2283SOL     OW 7735   1.527   2.137   5.709
 2283SOL    HW1 7736   1.463   2.068   5.724
 2283SOL    HW2 7737   1.557   2.162   5.797
 2284SOL     OW 7738   1.291   2.689   5.618
 2284SOL    HW1 7739   1.334   2.603   5.620
 2284SOL    HW2 7740   1.321   2.728   5.535
 2285SOL     OW 7741   1.069   3.198   6.442
 2285SOL    HW1 7742   1.072   3.126   6.379
 2285SOL    HW2 7743   1.127   3.264   6.405
 2286SOL     OW 7744   0.313   2.664   6.536
 2286SOL    HW1 7745   0.407   2.682   6.530
 2286SOL    HW2 7746   0.308   2.574   6.568
 2287SOL     OW 7747   0.330   2.382   6.600
 2287SOL    HW1 7748   0.296   2.295   6.584
 2287SOL    HW2 7749   0.406   2.389   6.542
 2288SOL     OW 7750   4.000   3.180   5.768
 2288SOL    HW1 7751   3.906   3.196   5.772
 2288SOL    HW2 7752   0.009   3.086   5.786
 2289SOL     OW 7753   0.076   3.663   6.481
 2289SOL    HW1 7754   0.090   3.568   6.479
 2289SOL    HW2 7755   0.163   3.701   6.479
 2290SOL     OW 7756   0.507   3.425   6.503
 2290SOL    HW1 7757   0.573   3.492   6.522
 2290SOL    HW2 7758   0.549   3.367   6.440
 2291SOL     OW 7759   0.977   2.656   6.814
 2291SOL    HW1 7760   1.031   2.633   6.890
 2291SOL    HW2 7761   0.891   2.618   6.834
 2292SOL     OW 7762   0.038   2.420   6.695
 2292SOL    HW1 7763   0.120   2.396   6.653
 2292SOL    HW2 7764   0.057   2.417   6.789
 2293SOL     OW 7765   0.207   2.375   7.314
 2293SOL    HW1 7766   0.245   2.327   7.241
 2293SOL    HW2 7767   0.160   2.447   7.273
 2294SOL     OW 7768   1.327   2.823   7.238
 2294SOL    HW1 7769   1.374   2.906   7.235
 2294SOL    HW2 7770   1.358   2.775   7.162
 2295SOL     OW 7771   0.816   2.426   5.944
 2295SOL    HW1 7772   0.823   2.352   5.884
 2295SOL    HW2 7773   0.742   2.477   5.912
 2296SOL     OW 7774   0.300   3.407   7.312
 2296SOL    HW1 7775   0.251   3.476   7.357
 2296SOL    HW2 7776   0.269   3.326   7.352
 2297SOL     OW 7777   0.697   2.313   6.844
 2297SOL    HW1 7778   0.647   2.238   6.813
 2297SOL    HW2 7779   0.693   2.376   6.772
 2298SOL     OW 7780   0.930   3.533   7.054
 2298SOL    HW1 7781   0.901   3.495   6.971
 2298SOL    HW2 7782   0.921   3.627   7.042
 2299SOL     OW 7783   0.454   2.351   5.782
 2299SOL    HW1 7784   0.520   2.418   5.799
 2299SOL    HW2 7785   0.375   2.401   5.760
 2300SOL     OW 7786   0.156   2.997   7.062
 2300SOL    HW1 7787   0.156   2.946   7.143
 2300SOL    HW2 7788   0.171   2.932   6.993
 2301SOL     OW 7789   1.322   2.902   6.811
 2301SOL    HW1 7790   1.376   2.880   6.734
 2301SOL    HW2 7791   1.248   2.950   6.775
 2302SOL     OW 7792   1.320   2.713   5.894
 2302SOL    HW1 7793   1.241   2.694   5.944
 2302SOL    HW2 7794   1.295   2.702   5.803
 2303SOL     OW 7795   1.772   3.604   6.737
 2303SOL    HW1 7796   1.835   3.631   6.670
 2303SOL    HW2 7797   1.750   3.513   6.713
 2304SOL     OW 7798   1.244   3.594   6.693
 2304SOL    HW1 7799   1.327   3.616   6.651
 2304SOL    HW2 7800   1.251   3.501   6.714
 2305SOL     OW 7801   0.076   3.076   6.613
 2305SOL    HW1 7802   0.084   3.104   6.705
 2305SOL    HW2 7803   3.984   3.087   6.592
 2306SOL     OW 7804   0.679   3.527   7.319
 2306SOL    HW1 7805   0.621   3.603   7.323
 2306SOL    HW2 7806   0.738   3.547   7.246
 2307SOL     OW 7807   1.391   3.431   6.073
 2307SOL    HW1 7808   1.450   3.464   6.006
 2307SOL    HW2 7809   1.343   3.508   6.103
 2308SOL     OW 7810   0.170   3.623   7.418
 2308SOL    HW1 7811   0.115   3.570   7.476
 2308SOL    HW2 7812   0.217   3.682   7.476
 2309SOL     OW 7813   1.270   2.787   6.216
 2309SOL    HW1 7814   1.347   2.734   6.237
 2309SOL    HW2 7815   1.305   2.864   6.172
 2310SOL     OW 7816   0.810   3.138   7.013
 2310SOL    HW1 7817   0.782   3.178   7.096
 2310SOL    HW2 7818   0.739   3.155   6.952
 2311SOL     OW 7819   0.675   3.479   5.744
 2311SOL    HW1 7820   0.683   3.496   5.650
 2311SOL    HW2 7821   0.616   3.403   5.749
 2312SOL     OW 7822   1.623   3.588   6.976
 2312SOL    HW1 7823   1.674   3.594   6.895
 2312SOL    HW2 7824   1.609   3.679   7.002
 2313SOL     OW 7825   0.266   2.175   6.303
 2313SOL    HW1 7826   0.180   2.208   6.276
 2313SOL    HW2 7827   0.260   2.166   6.398
 2314SOL     OW 7828   1.207   3.466   5.622
 2314SOL    HW1 7829   1.197   3.374   5.645
 2314SOL    HW2 7830   1.147   3.479   5.549
 2315SOL     OW 7831   0.821   2.869   6.958
 2315SOL    HW1 7832   0.866   2.863   6.875
 2315SOL    HW2 7833   0.820   2.963   6.979
 2316SOL     OW 7834   0.916   2.774   5.877
 2316SOL    HW1 7835   0.977   2.806   5.810
 2316SOL    HW2 7836   0.963   2.702   5.920
 2317SOL     OW 7837   1.488   3.492   5.628
 2317SOL    HW1 7838   1.395   3.481   5.612
 2317SOL    HW2 7839   1.528   3.497   5.541
 2318SOL     OW 7840   0.374   3.165   7.077
 2318SOL    HW1 7841   0.359   3.245   7.027
 2318SOL    HW2 7842   0.297   3.111   7.060
 2319SOL     OW 7843   1.604   3.141   6.863
 2319SOL    HW1 7844   1.677   3.141   6.925
 2319SOL    HW2 7845   1.545   3.209   6.895
 2320SOL     OW 7846   1.060   2.968   6.298
 2320SOL    HW1 7847   0.987   2.920   6.335
 2320SOL    HW2 7848   1.110   2.903   6.249
 2321SOL     OW 7849   0.606   3.353   6.067
 2321SOL    HW1 7850   0.651   3.302   5.999
 2321SOL    HW2 7851   0.533   3.395   6.021
 2322SOL     OW 7852   0.253   3.203   5.878
 2322SOL    HW1 7853   0.160   3.211   5.859
 2322SOL    HW2 7854   0.264   3.241   5.965
 2323SOL     OW 7855   0.107   2.860   7.303
 2323SOL    HW1 7856   0.047   2.853   7.377
 2323SOL    HW2 7857   0.194   2.842   7.340
 2324SOL     OW 7858   0.671   2.058   7.084
 2324SOL    HW1 7859   0.757   2.039   7.046
 2324SOL    HW2 7860   0.691   2.090   7.172
 2325SOL     OW 7861   0.080   2.176   5.624
 2325SOL    HW1 7862   3.985   2.176   5.631
 2325SOL    HW2 7863   0.101   2.257   5.576
 2326SOL     OW 7864   1.431   2.723   6.993
 2326SOL    HW1 7865   1.381   2.784   6.938
 2326SOL    HW2 7866   1.518   2.721   6.953
 2327SOL     OW 7867   0.018   2.098   5.963
 2327SOL    HW1 7868   0.045   2.161   5.896
 2327SOL    HW2 7869   0.100   2.058   5.992
 2328SOL     OW 7870   1.178   3.199   5.703
 2328SOL    HW1 7871   1.086   3.171   5.704
 2328SOL    HW2 7872   1.203   3.199   5.795
 2329SOL     OW 7873   0.619   2.692   7.022
 2329SOL    HW1 7874   0.676   2.768   7.007
 2329SOL    HW2 7875   0.680   2.619   7.030
 2330SOL     OW 7876   1.486   3.639   6.566
 2330SOL    HW1 7877   1.508   3.700   6.495
 2330SOL    HW2 7878   1.570   3.620   6.607
 2331SOL     OW 7879   0.718   2.429   7.293
 2331SOL    HW1 7880   0.761   2.494   7.348
 2331SOL    HW2 7881   0.749   2.345   7.327
 2332SOL     OW 7882   1.475   3.061   7.218
 2332SOL    HW1 7883   1.463   3.074   7.312
 2332SOL    HW2 7884   1.567   3.084   7.202
 2333SOL     OW 7885   0.378   3.607   7.145
 2333SOL    HW1 7886   0.290   3.643   7.132
 2333SOL    HW2 7887   0.364   3.525   7.191
 2334SOL     OW 7888   1.654   2.735   6.820
 2334SOL    HW1 7889   1.682   2.660   6.767
 2334SOL    HW2 7890   1.646   2.807   6.759
 2335SOL     OW 7891   0.590   2.598   6.258
 2335SOL    HW1 7892   0.629   2.684   6.243
 2335SOL    HW2 7893   0.523   2.590   6.190
 2336SOL     OW 7894   1.727   2.229   7.211
 2336SOL    HW1 7895   1.770   2.225   7.126
 2336SOL    HW2 7896   1.659   2.162   7.207
 2337SOL     OW 7897   1.761   2.853   7.043
 2337SOL    HW1 7898   1.709   2.932   7.058
 2337SOL    HW2 7899   1.721   2.812   6.966
 2338SOL     OW 7900   0.866   3.229   5.626
 2338SOL    HW1 7901   0.823   3.258   5.706
 2338SOL    HW2 7902   0.879   3.309   5.575
 2339SOL     OW 7903   0.659   3.651   6.521
 2339SOL    HW1 7904   0.637   3.742   6.502
 2339SOL    HW2 7905   0.754   3.648   6.519
 2340SOL     OW 7906   0.866   2.835   6.441
 2340SOL    HW1 7907   0.914   2.761   6.478
 2340SOL    HW2 7908   0.830   2.881   6.516
 2341SOL     OW 7909   1.079   2.850   5.676
 2341SOL    HW1 7910   1.057   2.901   5.598
 2341SOL    HW2 7911   1.153   2.796   5.649
 2342SOL     OW 7912   1.852   3.412   6.426
 2342SOL    HW1 7913   1.771   3.400   6.378
 2342SOL    HW2 7914   1.848   3.348   6.497
 2343SOL     OW 7915   0.227   3.166   7.442
 2343SOL    HW1 7916   0.154   3.110   7.415
 2343SOL    HW2 7917   0.214   3.179   7.536
 2344SOL     OW 7918   0.116   3.140   6.308
 2344SOL    HW1 7919   0.133   3.090   6.387
 2344SOL    HW2 7920   0.105   3.074   6.239
 2345SOL     OW 7921   0.683   3.266   7.217
 2345SOL    HW1 7922   0.602   3.224   7.246
 2345SOL    HW2 7923   0.679   3.355   7.253
 2346SOL     OW 7924   0.441   2.295   6.121
 2346SOL    HW1 7925   0.439   2.227   6.054
 2346SOL    HW2 7926   0.385   2.262   6.191
 2347SOL     OW 7927   1.699   3.350   6.679
 2347SOL    HW1 7928   1.618   3.328   6.633
 2347SOL    HW2 7929   1.709   3.281   6.744
 2348SOL     OW 7930   0.335   2.420   6.878
 2348SOL    HW1 7931   0.388   2.363   6.933
 2348SOL    HW2 7932   0.349   2.388   6.789
 2349SOL     OW 7933   0.829   3.440   6.262
 2349SOL    HW1 7934   0.812   3.496   6.186
 2349SOL    HW2 7935   0.755   3.380   6.265
 2350SOL     OW 7936   0.975   1.899   6.729
 2350SOL    HW1 7937   0.934   1.834   6.671
 2350SOL    HW2 7938   1.069   1.892   6.710
 2351SOL     OW 7939   0.772   3.194   5.905
 2351SOL    HW1 7940   0.742   3.103   5.911
 2351SOL    HW2 7941   0.855   3.195   5.953
 2352SOL     OW 7942   0.621   3.416   6.872
 2352SOL    HW1 7943   0.622   3.497   6.922
 2352SOL    HW2 7944   0.708   3.410   6.834
 2353SOL     OW 7945   1.349   1.923   5.708
 2353SOL    HW1 7946   1.390   1.841   5.681
 2353SOL    HW2 7947   1.267   1.896   5.750
 2354SOL     OW 7948   0.047   2.911   5.826
 2354SOL    HW1 7949   0.141   2.895   5.818
 2354SOL    HW2 7950   0.011   2.827   5.855
 2355SOL     OW 7951   0.886   3.521   5.928
 2355SOL    HW1 7952   0.815   3.501   5.867
 2355SOL    HW2 7953   0.855   3.595   5.979
 2356SOL     OW 7954   0.231   2.488   7.567
 2356SOL    HW1 7955   0.138   2.495   7.588
 2356SOL    HW2 7956   0.233   2.456   7.477
 2357SOL     OW 7957   0.229   2.134   8.435
 2357SOL    HW1 7958   0.250   2.100   8.522
 2357SOL    HW2 7959   0.134   2.126   8.428
 2358SOL     OW 7960   0.009   2.221   8.078
 2358SOL    HW1 7961   3.920   2.239   8.109
 2358SOL    HW2 7962   3.997   2.190   7.988
 2359SOL     OW 7963   0.580   3.151   8.639
 2359SOL    HW1 7964   0.494   3.154   8.597
 2359SOL    HW2 7965   0.594   3.240   8.671
 2360SOL     OW 7966   1.563   3.377   8.159
 2360SOL    HW1 7967   1.521   3.353   8.241
 2360SOL    HW2 7968   1.491   3.378   8.095
 2361SOL     OW 7969   1.125   2.566   8.155
 2361SOL    HW1 7970   1.175   2.646   8.135
 2361SOL    HW2 7971   1.083   2.585   8.239
 2362SOL     OW 7972   0.753   3.001   8.491
 2362SOL    HW1 7973   0.689   3.037   8.552
 2362SOL    HW2 7974   0.789   3.078   8.446
 2363SOL     OW 7975   0.870   2.631   9.271
 2363SOL    HW1 7976   0.860   2.702   9.334
 2363SOL    HW2 7977   0.893   2.675   9.188
 2364SOL     OW 7978   0.685   2.864   8.093
 2364SOL    HW1 7979   0.752   2.852   8.161
 2364SOL    HW2 7980   0.617   2.916   8.135
 2365SOL     OW 7981   0.712   3.011   9.265
 2365SOL    HW1 7982   0.760   3.089   9.293
 2365SOL    HW2 7983   0.631   3.046   9.227
 2366SOL     OW 7984   0.350   3.263   8.526
 2366SOL    HW1 7985   0.269   3.247   8.479
 2366SOL    HW2 7986   0.400   3.322   8.469
 2367SOL     OW 7987   1.460   3.363   8.805
 2367SOL    HW1 7988   1.513   3.442   8.815
 2367SOL    HW2 7989   1.393   3.370   8.874
 2368SOL     OW 7990   0.450   2.261   8.936
 2368SOL    HW1 7991   0.525   2.202   8.939
 2368SOL    HW2 7992   0.374   2.204   8.949
 2369SOL     OW 7993   0.223   3.571   7.914
 2369SOL    HW1 7994   0.223   3.655   7.961
 2369SOL    HW2 7995   0.300   3.575   7.857
 2370SOL     OW 7996   1.137   3.203   9.142
 2370SOL    HW1 7997   1.178   3.197   9.228
 2370SOL    HW2 7998   1.085   3.124   9.134
 2371SOL     OW 7999   0.250   3.306   7.988
 2371SOL    HW1 8000   0.222   3.396   7.974
 2371SOL    HW2 8001   0.181   3.267   8.041
 2372SOL     OW 8002   0.247   2.929   8.332
 2372SOL    HW1 8003   0.267   2.844   8.371
 2372SOL    HW2 8004   0.194   2.974   8.398
 2373SOL     OW 8005   0.610   3.648   8.875
 2373SOL    HW1 8006   0.528   3.634   8.922
 2373SOL    HW2 8007   0.637   3.737   8.900
 2374SOL     OW 8008   0.576   2.848   7.586
 2374SOL    HW1 8009   0.625   2.893   7.517
 2374SOL    HW2 8010   0.618   2.877   7.667
 2375SOL     OW 8011   1.553   2.002   8.887
 2375SOL    HW1 8012   1.574   2.087   8.849
 2375SOL    HW2 8013   1.547   2.019   8.982
 2376SOL     OW 8014   0.142   2.516   8.022
 2376SOL    HW1 8015   0.088   2.437   8.020
 2376SOL    HW2 8016   0.105   2.569   8.092
 2377SOL     OW 8017   1.843   3.609   7.785
 2377SOL    HW1 8018   1.911   3.585   7.848
 2377SOL    HW2 8019   1.863   3.700   7.762
 2378SOL     OW 8020   0.041   3.453   7.588
 2378SOL    HW1 8021   0.035   3.361   7.613
 2378SOL    HW2 8022   3.957   3.491   7.616
 2379SOL     OW 8023   1.702   2.814   8.109
 2379SOL    HW1 8024   1.741   2.730   8.086
 2379SOL    HW2 8025   1.668   2.848   8.026
 2380SOL     OW 8026   1.639   2.969   7.881
 2380SOL    HW1 8027   1.719   2.976   7.829
 2380SOL    HW2 8028   1.651   3.032   7.953
 2381SOL     OW 8029   0.139   2.615   9.038
 2381SOL    HW1 8030   0.235   2.610   9.034
 2381SOL    HW2 8031   0.121   2.704   9.069
 2382SOL     OW 8032   0.616   3.249   8.182
 2382SOL    HW1 8033   0.569   3.166   8.192
 2382SOL    HW2 8034   0.598   3.276   8.092
 2383SOL     OW 8035   1.287   3.099   8.871
 2383SOL    HW1 8036   1.318   3.032   8.810
 2383SOL    HW2 8037   1.346   3.094   8.945
 2384SOL     OW 8038   0.819   1.864   7.963
 2384SOL    HW1 8039   0.859   1.948   7.940
 2384SOL    HW2 8040   0.725   1.883   7.968
 2385SOL     OW 8041   0.184   2.812   8.727
 2385SOL    HW1 8042   0.272   2.777   8.715
 2385SOL    HW2 8043   0.132   2.774   8.656
 2386SOL     OW 8044   1.218   3.666   9.075
 2386SOL    HW1 8045   1.194   3.727   9.005
 2386SOL    HW2 8046   1.219   3.580   9.033
 2387SOL     OW 8047   0.342   2.109   9.265
 2387SOL    HW1 8048   0.378   2.197   9.271
 2387SOL    HW2 8049   0.250   2.119   9.290
 2388SOL     OW 8050   1.466   3.282   8.398
 2388SOL    HW1 8051   1.399   3.297   8.464
 2388SOL    HW2 8052   1.453   3.191   8.371
 2389SOL     OW 8053   1.655   3.602   8.028
 2389SOL    HW1 8054   1.640   3.570   7.939
 2389SOL    HW2 8055   1.631   3.528   8.084
 2390SOL     OW 8056   0.594   2.579   7.713
 2390SOL    HW1 8057   0.601   2.663   7.668
 2390SOL    HW2 8058   0.532   2.594   7.783
 2391SOL     OW 8059   1.282   2.222   8.392
 2391SOL    HW1 8060   1.193   2.187   8.396
 2391SOL    HW2 8061   1.334   2.162   8.445
 2392SOL     OW 8062   1.577   3.537   7.756
 2392SOL    HW1 8063   1.669   3.561   7.751
 2392SOL    HW2 8064   1.551   3.518   7.666
 2393SOL     OW 8065   0.791   2.480   8.899
 2393SOL    HW1 8066   0.764   2.454   8.987
 2393SOL    HW2 8067   0.754   2.412   8.842
 2394SOL     OW 8068   1.393   2.336   9.125
 2394SOL    HW1 8069   1.396   2.381   9.209
 2394SOL    HW2 8070   1.452   2.261   9.136
 2395SOL     OW 8071   0.952   2.748   9.032
 2395SOL    HW1 8072   1.007   2.679   8.995
 2395SOL    HW2 8073   0.904   2.783   8.957
 2396SOL     OW 8074   0.993   2.273   8.685
 2396SOL    HW1 8075   0.904   2.291   8.716
 2396SOL    HW2 8076   0.980   2.232   8.600
 2397SOL     OW 8077   1.025   2.578   7.895
 2397SOL    HW1 8078   1.048   2.565   7.987
 2397SOL    HW2 8079   0.945   2.526   7.883
 2398SOL     OW 8080   0.082   2.691   8.238
 2398SOL    HW1 8081   0.156   2.660   8.290
 2398SOL    HW2 8082   0.100   2.784   8.223
 2399SOL     OW 8083   0.127   3.718   9.026
 2399SOL    HW1 8084   0.135   3.686   9.116
 2399SOL    HW2 8085   0.035   3.705   9.004
 2400SOL     OW 8086   0.877   2.216   7.657
 2400SOL    HW1 8087   0.914   2.281   7.598
 2400SOL    HW2 8088   0.916   2.133   7.631
 2401SOL     OW 8089   1.675   2.448   9.279
 2401SOL    HW1 8090   1.647   2.523   9.227
 2401SOL    HW2 8091   1.710   2.386   9.214
 2402SOL     OW 8092   1.379   3.000   7.983
 2402SOL    HW1 8093   1.462   2.992   7.936
 2402SOL    HW2 8094   1.330   3.066   7.933
 2403SOL     OW 8095   0.544   2.039   8.342
 2403SOL    HW1 8096   0.552   2.073   8.432
 2403SOL    HW2 8097   0.547   2.118   8.287
 2404SOL     OW 8098   1.004   3.307   7.918
 2404SOL    HW1 8099   0.967   3.381   7.870
 2404SOL    HW2 8100   0.984   3.325   8.009
 2405SOL     OW 8101   0.359   3.671   8.310
 2405SOL    HW1 8102   0.438   3.618   8.322
 2405SOL    HW2 8103   0.389   3.761   8.319
 2406SOL     OW 8104   1.806   2.930   8.326
 2406SOL    HW1 8105   1.761   2.899   8.247
 2406SOL    HW2 8106   1.739   2.930   8.394
 2407SOL     OW 8107   1.228   3.399   8.959
 2407SOL    HW1 8108   1.215   3.327   9.021
 2407SOL    HW2 8109   1.160   3.386   8.893
 2408SOL     OW 8110   0.311   2.815   7.690
 2408SOL    HW1 8111   0.394   2.838   7.649
 2408SOL    HW2 8112   0.298   2.723   7.669
 2409SOL     OW 8113   1.462   2.626   8.200
 2409SOL    HW1 8114   1.461   2.562   8.272
 2409SOL    HW2 8115   1.554   2.647   8.188
 2410SOL     OW 8116   0.468   3.122   9.185
 2410SOL    HW1 8117   0.442   3.131   9.093
 2410SOL    HW2 8118   0.386   3.126   9.234
 2411SOL     OW 8119   1.113   3.643   7.670
 2411SOL    HW1 8120   1.049   3.597   7.723
 2411SOL    HW2 8121   1.144   3.577   7.607
 2412SOL     OW 8122   0.204   2.135   8.956
 2412SOL    HW1 8123   0.114   2.168   8.950
 2412SOL    HW2 8124   0.195   2.048   8.995
 2413SOL     OW 8125   1.627   3.243   7.535
 2413SOL    HW1 8126   1.586   3.328   7.519
 2413SOL    HW2 8127   1.557   3.179   7.520
 2414SOL     OW 8128   0.468   3.602   7.769
 2414SOL    HW1 8129   0.506   3.664   7.830
 2414SOL    HW2 8130   0.541   3.573   7.714
 2415SOL     OW 8131   0.253   3.656   8.674
 2415SOL    HW1 8132   0.297   3.590   8.727
 2415SOL    HW2 8133   0.251   3.619   8.586
 2416SOL     OW 8134   0.937   3.563   8.348
 2416SOL    HW1 8135   1.015   3.511   8.370
 2416SOL    HW2 8136   0.894   3.513   8.278
 2417SOL     OW 8137   0.398   2.556   7.919
 2417SOL    HW1 8138   0.424   2.465   7.934
 2417SOL    HW2 8139   0.307   2.560   7.946
 2418SOL     OW 8140   1.529   2.083   9.169
 2418SOL    HW1 8141   1.544   2.102   9.262
 2418SOL    HW2 8142   1.461   2.015   9.169
 2419SOL     OW 8143   0.638   1.977   7.549
 2419SOL    HW1 8144   0.698   1.906   7.573
 2419SOL    HW2 8145   0.592   1.944   7.472
 2420SOL     OW 8146   0.765   2.141   9.203
 2420SOL    HW1 8147   0.844   2.086   9.201
 2420SOL    HW2 8148   0.719   2.112   9.282
 2421SOL     OW 8149   0.876   3.383   8.642
 2421SOL    HW1 8150   0.859   3.346   8.555
 2421SOL    HW2 8151   0.946   3.328   8.678
 2422SOL     OW 8152   1.340   2.451   8.880
 2422SOL    HW1 8153   1.370   2.421   8.966
 2422SOL    HW2 8154   1.376   2.539   8.872
 2423SOL     OW 8155   0.817   3.254   8.390
 2423SOL    HW1 8156   0.902   3.242   8.347
 2423SOL    HW2 8157   0.754   3.256   8.318
 2424SOL     OW 8158   0.928   2.371   8.351
 2424SOL    HW1 8159   0.904   2.364   8.258
 2424SOL    HW2 8160   0.960   2.284   8.374
 2425SOL     OW 8161   0.555   1.924   7.944
 2425SOL    HW1 8162   0.473   1.929   7.993
 2425SOL    HW2 8163   0.559   2.006   7.895
 2426SOL     OW 8164   1.426   3.062   7.492
 2426SOL    HW1 8165   1.437   2.974   7.530
 2426SOL    HW2 8166   1.340   3.090   7.521
 2427SOL     OW 8167   0.309   1.912   7.617
 2427SOL    HW1 8168   0.374   1.951   7.559
 2427SOL    HW2 8169   0.359   1.847   7.667
 2428SOL     OW 8170   0.932   2.108   7.912
 2428SOL    HW1 8171   0.900   2.154   7.834
 2428SOL    HW2 8172   1.026   2.124   7.913
 2429SOL     OW 8173   1.080   2.544   8.907
 2429SOL    HW1 8174   1.013   2.475   8.910
 2429SOL    HW2 8175   1.163   2.496   8.900
 2430SOL     OW 8176   1.222   3.433   8.242
 2430SOL    HW1 8177   1.237   3.500   8.175
 2430SOL    HW2 8178   1.291   3.447   8.307
 2431SOL     OW 8179   0.466   3.013   8.183
 2431SOL    HW1 8180   0.395   2.989   8.242
 2431SOL    HW2 8181   0.432   2.997   8.095
 2432SOL     OW 8182   1.266   3.656   8.056
 2432SOL    HW1 8183   1.313   3.721   8.003
 2432SOL    HW2 8184   1.194   3.705   8.095
 2433SOL     OW 8185   0.985   2.396   7.487
 2433SOL    HW1 8186   0.960   2.485   7.463
 2433SOL    HW2 8187   1.070   2.406   7.531
 2434SOL     OW 8188   0.082   2.434   8.838
 2434SOL    HW1 8189   0.172   2.421   8.808
 2434SOL    HW2 8190   0.089   2.504   8.903
 2435SOL     OW 8191   0.566   2.090   8.614
 2435SOL    HW1 8192   0.608   2.014   8.655
 2435SOL    HW2 8193   0.475   2.086   8.643
 2436SOL     OW 8194   0.865   2.323   8.088
 2436SOL    HW1 8195   0.820   2.373   8.020
 2436SOL    HW2 8196   0.888   2.240   8.046
 2437SOL     OW 8197   0.993   1.928   8.213
 2437SOL    HW1 8198   0.954   1.917   8.126
 2437SOL    HW2 8199   0.978   1.845   8.257
 2438SOL     OW 8200   1.438   3.025   8.306
 2438SOL    HW1 8201   1.369   2.958   8.305
 2438SOL    HW2 8202   1.467   3.030   8.215
 2439SOL     OW 8203   1.456   2.463   8.426
 2439SOL    HW1 8204   1.403   2.384   8.430
 2439SOL    HW2 8205   1.517   2.455   8.500
 2440SOL     OW 8206   0.488   3.281   7.606
 2440SOL    HW1 8207   0.412   3.252   7.657
 2440SOL    HW2 8208   0.470   3.252   7.517
 2441SOL     OW 8209   1.673   3.134   8.088
 2441SOL    HW1 8210   1.767   3.133   8.106
 2441SOL    HW2 8211   1.645   3.222   8.114
 2442SOL     OW 8212   0.569   2.130   7.769
 2442SOL    HW1 8213   0.603   2.082   7.693
 2442SOL    HW2 8214   0.542   2.215   7.734
 2443SOL     OW 8215   1.751   3.104   9.017
 2443SOL    HW1 8216   1.838   3.064   9.013
 2443SOL    HW2 8217   1.767   3.194   9.044
 2444SOL     OW 8218   1.056   3.216   8.781
 2444SOL    HW1 8219   0.981   3.184   8.832
 2444SOL    HW2 8220   1.132   3.174   8.822
 2445SOL     OW 8221   1.610   3.488   9.105
 2445SOL    HW1 8222   1.601   3.522   9.015
 2445SOL    HW2 8223   1.693   3.440   9.104
 2446SOL     OW 8224   1.133   3.070   8.552
 2446SOL    HW1 8225   1.072   3.106   8.616
 2446SOL    HW2 8226   1.101   3.101   8.468
 2447SOL     OW 8227   1.624   2.958   8.527
 2447SOL    HW1 8228   1.618   3.022   8.598
 2447SOL    HW2 8229   1.547   2.976   8.473
 2448SOL     OW 8230   0.918   1.957   8.843
 2448SOL    HW1 8231   0.940   1.939   8.752
 2448SOL    HW2 8232   0.997   1.997   8.879
 2449SOL     OW 8233   0.984   2.977   9.171
 2449SOL    HW1 8234   0.893   2.993   9.193
 2449SOL    HW2 8235   0.982   2.899   9.116
 2450SOL     OW 8236   0.708   2.922   7.818
 2450SOL    HW1 8237   0.696   2.904   7.911
 2450SOL    HW2 8238   0.785   2.870   7.793
 2451SOL     OW 8239   0.422   2.679   8.701
 2451SOL    HW1 8240   0.490   2.687   8.767
 2451SOL    HW2 8241   0.388   2.590   8.712
 2452SOL     OW 8242   1.265   2.237   8.727
 2452SOL    HW1 8243   1.297   2.316   8.771
 2452SOL    HW2 8244   1.174   2.259   8.703
 2453SOL     OW 8245   0.066   3.441   8.794
 2453SOL    HW1 8246   0.071   3.496   8.715
 2453SOL    HW2 8247   0.157   3.430   8.821
 2454SOL     OW 8248   0.369   2.964   7.931
 2454SOL    HW1 8249   0.365   3.044   7.878
 2454SOL    HW2 8250   0.370   2.893   7.867
 2455SOL     OW 8251   0.549   2.398   8.310
 2455SOL    HW1 8252   0.563   2.455   8.234
 2455SOL    HW2 8253   0.618   2.423   8.372
 2456SOL     OW 8254   1.249   3.212   7.836
 2456SOL    HW1 8255   1.304   3.282   7.868
 2456SOL    HW2 8256   1.162   3.231   7.870
 2457SOL     OW 8257   1.284   3.321   8.595
 2457SOL    HW1 8258   1.339   3.324   8.674
 2457SOL    HW2 8259   1.229   3.244   8.607
 2458SOL     OW 8260   1.637   2.576   7.982
 2458SOL    HW1 8261   1.542   2.576   7.992
 2458SOL    HW2 8262   1.652   2.526   7.902
 2459SOL     OW 8263   0.345   3.389   8.766
 2459SOL    HW1 8264   0.335   3.339   8.685
 2459SOL    HW2 8265   0.439   3.404   8.773
 2460SOL     OW 8266   0.416   2.600   9.049
 2460SOL    HW1 8267   0.479   2.646   8.993
 2460SOL    HW2 8268   0.456   2.515   9.066
 2461SOL     OW 8269   1.600   2.652   9.126
 2461SOL    HW1 8270   1.514   2.695   9.118
 2461SOL    HW2 8271   1.653   2.693   9.058
 2462SOL     OW 8272   0.996   1.990   9.202
 2462SOL    HW1 8273   1.054   2.062   9.177
 2462SOL    HW2 8274   1.044   1.911   9.177
 2463SOL     OW 8275   0.497   1.897   9.195
 2463SOL    HW1 8276   0.453   1.845   9.128
 2463SOL    HW2 8277   0.443   1.975   9.204
 2464SOL     OW 8278   0.585   2.736   8.480
 2464SOL    HW1 8279   0.618   2.826   8.480
 2464SOL    HW2 8280   0.529   2.731   8.557
 2465SOL     OW 8281   1.353   2.718   8.482
 2465SOL    HW1 8282   1.275   2.710   8.427
 2465SOL    HW2 8283   1.398   2.634   8.470
 2466SOL     OW 8284   1.139   2.394   7.735
 2466SOL    HW1 8285   1.158   2.322   7.796
 2466SOL    HW2 8286   1.109   2.465   7.791
 2467SOL     OW 8287   0.310   2.058   8.695
 2467SOL    HW1 8288   0.264   2.095   8.771
 2467SOL    HW2 8289   0.286   1.965   8.696
 2468SOL     OW 8290   0.058   3.167   8.729
 2468SOL    HW1 8291   0.091   3.126   8.809
 2468SOL    HW2 8292   0.052   3.260   8.750
 2469SOL     OW 8293   0.724   2.493   8.505
 2469SOL    HW1 8294   0.799   2.477   8.447
 2469SOL    HW2 8295   0.696   2.582   8.483
 2470SOL     OW 8296   1.737   2.821   9.303
 2470SOL    HW1 8297   1.691   2.759   9.246
 2470SOL    HW2 8298   1.676   2.836   9.375
 2471SOL     OW 8299   0.313   1.924   8.068
 2471SOL    HW1 8300   0.293   2.015   8.089
 2471SOL    HW2 8301   0.320   1.881   8.153
 2472SOL     OW 8302   1.024   2.622   8.408
 2472SOL    HW1 8303   1.021   2.639   8.503
 2472SOL    HW2 8304   1.000   2.530   8.399
 2473SOL     OW 8305   0.986   3.430   9.168
 2473SOL    HW1 8306   0.967   3.471   9.084
 2473SOL    HW2 8307   1.028   3.347   9.145
 2474SOL     OW 8308   1.854   3.365   9.052
 2474SOL    HW1 8309   1.873   3.393   8.963
 2474SOL    HW2 8310   1.934   3.383   9.101
 2475SOL     OW 8311   0.353   2.783   9.248
 2475SOL    HW1 8312   0.431   2.805   9.298
 2475SOL    HW2 8313   0.381   2.716   9.186
 2476SOL     OW 8314   1.067   3.199   8.303
 2476SOL    HW1 8315   1.070   3.127   8.240
 2476SOL    HW2 8316   1.127   3.264   8.267
 2477SOL     OW 8317   0.313   2.664   8.398
 2477SOL    HW1 8318   0.407   2.681   8.391
 2477SOL    HW2 8319   0.308   2.574   8.429
 2478SOL     OW 8320   0.329   2.383   8.463
 2478SOL    HW1 8321   0.295   2.295   8.446
 2478SOL    HW2 8322   0.405   2.390   8.405
 2479SOL     OW 8323   1.134   2.236   9.133
 2479SOL    HW1 8324   1.086   2.291   9.194
 2479SOL    HW2 8325   1.221   2.275   9.128
 2480SOL     OW 8326   1.160   2.063   8.919
 2480SOL    HW1 8327   1.149   2.126   8.990
 2480SOL    HW2 8328   1.202   2.113   8.849
 2481SOL     OW 8329   4.000   3.180   7.630
 2481SOL    HW1 8330   3.906   3.196   7.634
 2481SOL    HW2 8331   0.009   3.086   7.648
 2482SOL     OW 8332   0.076   3.663   8.343
 2482SOL    HW1 8333   0.091   3.568   8.341
 2482SOL    HW2 8334   0.164   3.701   8.341
 2483SOL     OW 8335   0.507   3.425   8.365
 2483SOL    HW1 8336   0.573   3.492   8.385
 2483SOL    HW2 8337   0.549   3.367   8.302
 2484SOL     OW 8338   0.978   2.653   8.675
 2484SOL    HW1 8339   1.036   2.631   8.748
 2484SOL    HW2 8340   0.895   2.612   8.698
 2485SOL     OW 8341   0.037   2.420   8.557
 2485SOL    HW1 8342   0.120   2.397   8.514
 2485SOL    HW2 8343   0.058   2.416   8.651
 2486SOL     OW 8344   0.207   2.375   9.175
 2486SOL    HW1 8345   0.247   2.328   9.102
 2486SOL    HW2 8346   0.160   2.448   9.134
 2487SOL     OW 8347   1.373   2.802   9.104
 2487SOL    HW1 8348   1.396   2.895   9.101
 2487SOL    HW2 8349   1.370   2.775   9.012
 2488SOL     OW 8350   0.806   2.431   7.824
 2488SOL    HW1 8351   0.821   2.359   7.762
 2488SOL    HW2 8352   0.737   2.483   7.783
 2489SOL     OW 8353   1.634   2.465   8.635
 2489SOL    HW1 8354   1.624   2.408   8.711
 2489SOL    HW2 8355   1.720   2.441   8.598
 2490SOL     OW 8356   0.300   3.407   9.174
 2490SOL    HW1 8357   0.251   3.477   9.219
 2490SOL    HW2 8358   0.268   3.326   9.214
 2491SOL     OW 8359   0.707   2.311   8.705
 2491SOL    HW1 8360   0.654   2.237   8.675
 2491SOL    HW2 8361   0.702   2.375   8.634
 2492SOL     OW 8362   0.927   3.534   8.918
 2492SOL    HW1 8363   0.901   3.496   8.834
 2492SOL    HW2 8364   0.919   3.628   8.904
 2493SOL     OW 8365   0.454   2.351   7.642
 2493SOL    HW1 8366   0.520   2.418   7.660
 2493SOL    HW2 8367   0.375   2.400   7.621
 2494SOL     OW 8368   0.156   2.997   8.923
 2494SOL    HW1 8369   0.156   2.946   9.004
 2494SOL    HW2 8370   0.171   2.932   8.854
 2495SOL     OW 8371   1.323   2.908   8.671
 2495SOL    HW1 8372   1.344   2.842   8.604
 2495SOL    HW2 8373   1.256   2.963   8.630
 2496SOL     OW 8374   1.772   3.602   8.599
 2496SOL    HW1 8375   1.834   3.630   8.532
 2496SOL    HW2 8376   1.750   3.512   8.575
 2497SOL     OW 8377   1.244   3.595   8.557
 2497SOL    HW1 8378   1.327   3.616   8.514
 2497SOL    HW2 8379   1.250   3.501   8.577
 2498SOL     OW 8380   0.076   3.076   8.477
 2498SOL    HW1 8381   0.082   3.104   8.568
 2498SOL    HW2 8382   3.984   3.087   8.454
 2499SOL     OW 8383   0.679   3.527   9.181
 2499SOL    HW1 8384   0.621   3.603   9.185
 2499SOL    HW2 8385   0.739   3.546   9.109
 2500SOL     OW 8386   1.390   3.431   7.935
 2500SOL    HW1 8387   1.450   3.465   7.868
 2500SOL    HW2 8388   1.342   3.508   7.965
 2501SOL     OW 8389   0.170   3.623   9.280
 2501SOL    HW1 8390   0.115   3.570   9.338
 2501SOL    HW2 8391   0.217   3.682   9.338
 2502SOL     OW 8392   1.269   2.797   8.123
 2502SOL    HW1 8393   1.342   2.740   8.146
 2502SOL    HW2 8394   1.308   2.864   8.067
 2503SOL     OW 8395   0.810   3.136   8.876
 2503SOL    HW1 8396   0.781   3.177   8.958
 2503SOL    HW2 8397   0.739   3.154   8.814
 2504SOL     OW 8398   0.675   3.479   7.606
 2504SOL    HW1 8399   0.683   3.496   7.512
 2504SOL    HW2 8400   0.616   3.404   7.611
 2505SOL     OW 8401   1.622   3.588   8.838
 2505SOL    HW1 8402   1.674   3.593   8.757
 2505SOL    HW2 8403   1.609   3.680   8.863
 2506SOL     OW 8404   0.266   2.174   8.164
 2506SOL    HW1 8405   0.180   2.207   8.138
 2506SOL    HW2 8406   0.261   2.165   8.259
 2507SOL     OW 8407   1.208   3.466   7.484
 2507SOL    HW1 8408   1.197   3.373   7.507
 2507SOL    HW2 8409   1.147   3.479   7.411
 2508SOL     OW 8410   0.823   2.867   8.822
 2508SOL    HW1 8411   0.868   2.861   8.738
 2508SOL    HW2 8412   0.822   2.961   8.842
 2509SOL     OW 8413   0.918   2.777   7.730
 2509SOL    HW1 8414   0.985   2.806   7.668
 2509SOL    HW2 8415   0.962   2.712   7.785
 2510SOL     OW 8416   1.490   3.489   7.490
 2510SOL    HW1 8417   1.396   3.480   7.475
 2510SOL    HW2 8418   1.528   3.495   7.403
 2511SOL     OW 8419   0.374   3.165   8.940
 2511SOL    HW1 8420   0.359   3.245   8.889
 2511SOL    HW2 8421   0.297   3.111   8.922
 2512SOL     OW 8422   1.610   3.146   8.729
 2512SOL    HW1 8423   1.669   3.133   8.803
 2512SOL    HW2 8424   1.549   3.214   8.758
 2513SOL     OW 8425   1.052   2.973   8.155
 2513SOL    HW1 8426   0.982   2.920   8.193
 2513SOL    HW2 8427   1.118   2.908   8.129
 2514SOL     OW 8428   1.024   2.107   8.420
 2514SOL    HW1 8429   1.014   2.061   8.336
 2514SOL    HW2 8430   1.019   2.038   8.486
 2515SOL     OW 8431   0.606   3.353   7.928
 2515SOL    HW1 8432   0.651   3.302   7.861
 2515SOL    HW2 8433   0.533   3.394   7.882
 2516SOL     OW 8434   1.731   2.244   8.820
 2516SOL    HW1 8435   1.799   2.311   8.824
 2516SOL    HW2 8436   1.770   2.173   8.768
 2517SOL     OW 8437   0.254   3.203   7.740
 2517SOL    HW1 8438   0.160   3.211   7.721
 2517SOL    HW2 8439   0.264   3.241   7.827
 2518SOL     OW 8440   0.107   2.860   9.165
 2518SOL    HW1 8441   0.047   2.853   9.239
 2518SOL    HW2 8442   0.194   2.842   9.202
 2519SOL     OW 8443   0.675   2.058   8.948
 2519SOL    HW1 8444   0.759   2.037   8.907
 2519SOL    HW2 8445   0.699   2.091   9.035
 2520SOL     OW 8446   0.080   2.175   7.484
 2520SOL    HW1 8447   3.985   2.176   7.492
 2520SOL    HW2 8448   0.101   2.256   7.438
 2521SOL     OW 8449   1.428   2.720   8.847
 2521SOL    HW1 8450   1.379   2.781   8.791
 2521SOL    HW2 8451   1.517   2.722   8.812
 2522SOL     OW 8452   0.016   2.098   7.826
 2522SOL    HW1 8453   0.043   2.162   7.760
 2522SOL    HW2 8454   0.098   2.057   7.854
 2523SOL     OW 8455   1.180   3.197   7.564
 2523SOL    HW1 8456   1.088   3.171   7.565
 2523SOL    HW2 8457   1.205   3.199   7.656
 2524SOL     OW 8458   0.620   2.692   8.885
 2524SOL    HW1 8459   0.676   2.768   8.869
 2524SOL    HW2 8460   0.680   2.618   8.892
 2525SOL     OW 8461   1.486   3.642   8.429
 2525SOL    HW1 8462   1.508   3.700   8.357
 2525SOL    HW2 8463   1.570   3.619   8.469
 2526SOL     OW 8464   0.716   2.424   9.152
 2526SOL    HW1 8465   0.761   2.486   9.210
 2526SOL    HW2 8466   0.741   2.338   9.184
 2527SOL     OW 8467   1.473   3.060   9.078
 2527SOL    HW1 8468   1.461   3.074   9.172
 2527SOL    HW2 8469   1.566   3.077   9.063
 2528SOL     OW 8470   0.378   3.608   9.007
 2528SOL    HW1 8471   0.290   3.643   8.994
 2528SOL    HW2 8472   0.364   3.525   9.053
 2529SOL     OW 8473   1.669   2.743   8.702
 2529SOL    HW1 8474   1.658   2.657   8.659
 2529SOL    HW2 8475   1.656   2.806   8.631
 2530SOL     OW 8476   1.195   2.181   7.904
 2530SOL    HW1 8477   1.277   2.141   7.875
 2530SOL    HW2 8478   1.217   2.223   7.987
 2531SOL     OW 8479   0.586   2.601   8.122
 2531SOL    HW1 8480   0.627   2.685   8.105
 2531SOL    HW2 8481   0.522   2.591   8.052
 2532SOL     OW 8482   1.740   2.240   9.095
 2532SOL    HW1 8483   1.740   2.245   8.999
 2532SOL    HW2 8484   1.672   2.177   9.116
 2533SOL     OW 8485   1.747   2.800   8.956
 2533SOL    HW1 8486   1.740   2.895   8.968
 2533SOL    HW2 8487   1.731   2.785   8.863
 2534SOL     OW 8488   0.867   3.229   7.489
 2534SOL    HW1 8489   0.824   3.256   7.570
 2534SOL    HW2 8490   0.878   3.310   7.439
 2535SOL     OW 8491   0.659   3.651   8.383
 2535SOL    HW1 8492   0.637   3.742   8.364
 2535SOL    HW2 8493   0.754   3.647   8.381
 2536SOL     OW 8494   0.867   2.830   8.301
 2536SOL    HW1 8495   0.917   2.758   8.339
 2536SOL    HW2 8496   0.832   2.877   8.377
 2537SOL     OW 8497   1.084   2.861   7.524
 2537SOL    HW1 8498   1.045   2.918   7.458
 2537SOL    HW2 8499   1.151   2.811   7.477
 2538SOL     OW 8500   1.850   3.413   8.290
 2538SOL    HW1 8501   1.769   3.403   8.240
 2538SOL    HW2 8502   1.841   3.350   8.362
 2539SOL     OW 8503   0.226   3.166   9.304
 2539SOL    HW1 8504   0.153   3.111   9.277
 2539SOL    HW2 8505   0.214   3.179   9.398
 2540SOL     OW 8506   0.115   3.140   8.170
 2540SOL    HW1 8507   0.135   3.089   8.248
 2540SOL    HW2 8508   0.104   3.074   8.101
 2541SOL     OW 8509   0.683   3.266   9.079
 2541SOL    HW1 8510   0.602   3.225   9.108
 2541SOL    HW2 8511   0.679   3.355   9.115
 2542SOL     OW 8512   0.440   2.297   7.981
 2542SOL    HW1 8513   0.450   2.226   7.918
 2542SOL    HW2 8514   0.385   2.261   8.050
 2543SOL     OW 8515   1.700   3.348   8.539
 2543SOL    HW1 8516   1.619   3.327   8.493
 2543SOL    HW2 8517   1.708   3.280   8.606
 2544SOL     OW 8518   0.334   2.419   8.740
 2544SOL    HW1 8519   0.389   2.362   8.794
 2544SOL    HW2 8520   0.349   2.388   8.650
 2545SOL     OW 8521   0.828   3.441   8.124
 2545SOL    HW1 8522   0.811   3.494   8.047
 2545SOL    HW2 8523   0.754   3.380   8.128
 2546SOL     OW 8524   1.437   2.085   8.578
 2546SOL    HW1 8525   1.440   1.999   8.620
 2546SOL    HW2 8526   1.382   2.138   8.636
 2547SOL     OW 8527   1.009   1.879   8.589
 2547SOL    HW1 8528   0.955   1.814   8.545
 2547SOL    HW2 8529   1.097   1.841   8.589
 2548SOL     OW 8530   0.772   3.194   7.767
 2548SOL    HW1 8531   0.743   3.103   7.773
 2548SOL    HW2 8532   0.855   3.195   7.815
 2549SOL     OW 8533   0.621   3.416   8.734
 2549SOL    HW1 8534   0.622   3.498   8.784
 2549SOL    HW2 8535   0.708   3.410   8.696
 2550SOL     OW 8536   1.240   2.315   8.134
 2550SOL    HW1 8537   1.200   2.401   8.143
 2550SOL    HW2 8538   1.260   2.288   8.224
 2551SOL     OW 8539   1.565   2.059   8.335
 2551SOL    HW1 8540   1.529   2.074   8.423
 2551SOL    HW2 8541   1.575   2.146   8.298
 2552SOL     OW 8542   0.047   2.911   7.688
 2552SOL    HW1 8543   0.141   2.895   7.679
 2552SOL    HW2 8544   0.011   2.828   7.717
 2553SOL     OW 8545   0.886   3.521   7.791
 2553SOL    HW1 8546   0.815   3.501   7.730
 2553SOL    HW2 8547   0.855   3.596   7.841
 2554SOL     OW 8548   0.231   2.486   9.429
 2554SOL    HW1 8549   0.138   2.495   9.450
 2554SOL    HW2 8550   0.233   2.455   9.339
 2555SOL     OW 8551   0.229   2.134  10.297
 2555SOL    HW1 8552   0.250   2.100  10.384
 2555SOL    HW2 8553   0.134   2.126  10.290
 2556SOL     OW 8554   0.009   2.221   9.940
 2556SOL    HW1 8555   3.920   2.239   9.971
 2556SOL    HW2 8556   3.997   2.190   9.850
 2557SOL     OW 8557   0.580   3.151  10.500
 2557SOL    HW1 8558   0.494   3.154  10.459
 2557SOL    HW2 8559   0.594   3.240  10.533
 2558SOL     OW 8560   1.564   3.373  10.018
 2558SOL    HW1 8561   1.521   3.351  10.102
 2558SOL    HW2 8562   1.492   3.376   9.955
 2559SOL     OW 8563   1.132   2.560  10.008
 2559SOL    HW1 8564   1.180   2.641   9.995
 2559SOL    HW2 8565   1.085   2.573  10.091
 2560SOL     OW 8566   1.768   2.471   9.536
 2560SOL    HW1 8567   1.742   2.467   9.444
 2560SOL    HW2 8568   1.749   2.384   9.571
 2561SOL     OW 8569   0.753   3.001  10.352
 2561SOL    HW1 8570   0.689   3.037  10.414
 2561SOL    HW2 8571   0.789   3.078  10.308
 2562SOL     OW 8572   0.870   2.631  11.133
 2562SOL    HW1 8573   0.861   2.702  11.196
 2562SOL    HW2 8574   0.893   2.675  11.051
 2563SOL     OW 8575   0.685   2.863   9.956
 2563SOL    HW1 8576   0.751   2.853  10.024
 2563SOL    HW2 8577   0.616   2.916   9.997
 2564SOL     OW 8578   0.712   3.011  11.126
 2564SOL    HW1 8579   0.760   3.089  11.155
 2564SOL    HW2 8580   0.631   3.046  11.089
 2565SOL     OW 8581   0.351   3.263  10.388
 2565SOL    HW1 8582   0.269   3.248  10.341
 2565SOL    HW2 8583   0.400   3.322  10.331
 2566SOL     OW 8584   1.460   3.363  10.667
 2566SOL    HW1 8585   1.513   3.441  10.677
 2566SOL    HW2 8586   1.393   3.370  10.735
 2567SOL     OW 8587   0.450   2.261  10.797
 2567SOL    HW1 8588   0.525   2.201  10.801
 2567SOL    HW2 8589   0.374   2.204  10.811
 2568SOL     OW 8590   1.603   2.304  10.045
 2568SOL    HW1 8591   1.523   2.324   9.998
 2568SOL    HW2 8592   1.621   2.382  10.098
 2569SOL     OW 8593   0.223   3.571   9.776
 2569SOL    HW1 8594   0.223   3.654   9.823
 2569SOL    HW2 8595   0.300   3.576   9.719
 2570SOL     OW 8596   1.137   3.203  11.004
 2570SOL    HW1 8597   1.178   3.197  11.090
 2570SOL    HW2 8598   1.085   3.124  10.996
 2571SOL     OW 8599   0.250   3.306   9.850
 2571SOL    HW1 8600   0.222   3.396   9.836
 2571SOL    HW2 8601   0.181   3.267   9.903
 2572SOL     OW 8602   0.247   2.929  10.194
 2572SOL    HW1 8603   0.267   2.844  10.233
 2572SOL    HW2 8604   0.194   2.974  10.259
 2573SOL     OW 8605   0.611   3.648  10.737
 2573SOL    HW1 8606   0.528   3.634  10.784
 2573SOL    HW2 8607   0.637   3.737  10.762
 2574SOL     OW 8608   0.577   2.848   9.448
 2574SOL    HW1 8609   0.625   2.893   9.379
 2574SOL    HW2 8610   0.618   2.877   9.529
 2575SOL     OW 8611   1.553   2.002  10.751
 2575SOL    HW1 8612   1.572   2.088  10.713
 2575SOL    HW2 8613   1.547   2.019  10.845
 2576SOL     OW 8614   0.143   2.515   9.884
 2576SOL    HW1 8615   0.087   2.437   9.883
 2576SOL    HW2 8616   0.106   2.569   9.954
 2577SOL     OW 8617   1.843   3.609   9.647
 2577SOL    HW1 8618   1.911   3.585   9.710
 2577SOL    HW2 8619   1.862   3.700   9.624
 2578SOL     OW 8620   0.041   3.453   9.450
 2578SOL    HW1 8621   0.034   3.361   9.475
 2578SOL    HW2 8622   3.958   3.491   9.478
 2579SOL     OW 8623   1.689   2.781   9.952
 2579SOL    HW1 8624   1.770   2.736   9.926
 2579SOL    HW2 8625   1.665   2.833   9.875
 2580SOL     OW 8626   1.647   2.967   9.739
 2580SOL    HW1 8627   1.733   2.970   9.698
 2580SOL    HW2 8628   1.653   3.030   9.812
 2581SOL     OW 8629   0.139   2.615  10.899
 2581SOL    HW1 8630   0.235   2.610  10.896
 2581SOL    HW2 8631   0.121   2.703  10.931
 2582SOL     OW 8632   0.616   3.248  10.044
 2582SOL    HW1 8633   0.568   3.166  10.054
 2582SOL    HW2 8634   0.598   3.276   9.954
 2583SOL     OW 8635   1.287   3.099  10.732
 2583SOL    HW1 8636   1.319   3.031  10.672
 2583SOL    HW2 8637   1.346   3.094  10.807
 2584SOL     OW 8638   0.820   1.863   9.822
 2584SOL    HW1 8639   0.860   1.947   9.800
 2584SOL    HW2 8640   0.726   1.881   9.827
 2585SOL     OW 8641   0.184   2.812  10.589
 2585SOL    HW1 8642   0.272   2.777  10.577
 2585SOL    HW2 8643   0.132   2.774  10.519
 2586SOL     OW 8644   1.531   2.858   9.509
 2586SOL    HW1 8645   1.462   2.801   9.541
 2586SOL    HW2 8646   1.573   2.892   9.589
 2587SOL     OW 8647   1.218   3.666  10.937
 2587SOL    HW1 8648   1.194   3.727  10.867
 2587SOL    HW2 8649   1.219   3.580  10.895
 2588SOL     OW 8650   0.342   2.109  11.127
 2588SOL    HW1 8651   0.378   2.197  11.134
 2588SOL    HW2 8652   0.250   2.119  11.151
 2589SOL     OW 8653   1.466   3.281  10.260
 2589SOL    HW1 8654   1.399   3.297  10.326
 2589SOL    HW2 8655   1.453   3.190  10.233
 2590SOL     OW 8656   1.654   3.602   9.891
 2590SOL    HW1 8657   1.640   3.571   9.801
 2590SOL    HW2 8658   1.631   3.527   9.946
 2591SOL     OW 8659   0.596   2.578   9.576
 2591SOL    HW1 8660   0.602   2.662   9.531
 2591SOL    HW2 8661   0.533   2.593   9.646
 2592SOL     OW 8662   1.280   2.221  10.245
 2592SOL    HW1 8663   1.191   2.186  10.254
 2592SOL    HW2 8664   1.334   2.165  10.301
 2593SOL     OW 8665   1.577   3.537   9.619
 2593SOL    HW1 8666   1.669   3.561   9.613
 2593SOL    HW2 8667   1.551   3.518   9.528
 2594SOL     OW 8668   0.791   2.480  10.760
 2594SOL    HW1 8669   0.765   2.455  10.849
 2594SOL    HW2 8670   0.754   2.412  10.704
 2595SOL     OW 8671   1.393   2.336  10.987
 2595SOL    HW1 8672   1.396   2.381  11.071
 2595SOL    HW2 8673   1.451   2.261  10.999
 2596SOL     OW 8674   0.952   2.748  10.894
 2596SOL    HW1 8675   1.007   2.679  10.857
 2596SOL    HW2 8676   0.904   2.783  10.819
 2597SOL     OW 8677   0.993   2.274  10.547
 2597SOL    HW1 8678   0.905   2.293  10.580
 2597SOL    HW2 8679   0.977   2.229  10.463
 2598SOL     OW 8680   1.053   2.560   9.735
 2598SOL    HW1 8681   1.069   2.553   9.829
 2598SOL    HW2 8682   0.970   2.514   9.722
 2599SOL     OW 8683   0.082   2.691  10.100
 2599SOL    HW1 8684   0.156   2.660  10.152
 2599SOL    HW2 8685   0.100   2.784  10.085
 2600SOL     OW 8686   0.127   3.718  10.888
 2600SOL    HW1 8687   0.135   3.686  10.978
 2600SOL    HW2 8688   0.035   3.705  10.866
 2601SOL     OW 8689   0.897   2.212   9.503
 2601SOL    HW1 8690   0.936   2.275   9.443
 2601SOL    HW2 8691   0.913   2.127   9.463
 2602SOL     OW 8692   1.671   2.449  11.142
 2602SOL    HW1 8693   1.644   2.524  11.089
 2602SOL    HW2 8694   1.711   2.389  11.079
 2603SOL     OW 8695   1.379   3.004   9.851
 2603SOL    HW1 8696   1.457   2.992   9.798
 2603SOL    HW2 8697   1.325   3.066   9.801
 2604SOL     OW 8698   0.546   2.040  10.204
 2604SOL    HW1 8699   0.553   2.072  10.294
 2604SOL    HW2 8700   0.546   2.119  10.150
 2605SOL     OW 8701   1.003   3.307   9.780
 2605SOL    HW1 8702   0.967   3.381   9.731
 2605SOL    HW2 8703   0.983   3.326   9.872
 2606SOL     OW 8704   0.359   3.671  10.172
 2606SOL    HW1 8705   0.438   3.618  10.184
 2606SOL    HW2 8706   0.389   3.761  10.181
 2607SOL     OW 8707   1.800   2.913  10.179
 2607SOL    HW1 8708   1.747   2.896  10.102
 2607SOL    HW2 8709   1.737   2.922  10.251
 2608SOL     OW 8710   1.228   3.399  10.821
 2608SOL    HW1 8711   1.215   3.327  10.883
 2608SOL    HW2 8712   1.159   3.387  10.755
 2609SOL     OW 8713   0.311   2.816   9.552
 2609SOL    HW1 8714   0.394   2.839   9.511
 2609SOL    HW2 8715   0.298   2.723   9.530
 2610SOL     OW 8716   1.480   2.608  10.034
 2610SOL    HW1 8717   1.474   2.566  10.120
 2610SOL    HW2 8718   1.559   2.663  10.041
 2611SOL     OW 8719   0.468   3.122  11.047
 2611SOL    HW1 8720   0.442   3.130  10.955
 2611SOL    HW2 8721   0.386   3.126  11.095
 2612SOL     OW 8722   1.113   3.643   9.532
 2612SOL    HW1 8723   1.049   3.597   9.585
 2612SOL    HW2 8724   1.144   3.577   9.469
 2613SOL     OW 8725   0.204   2.135  10.818
 2613SOL    HW1 8726   0.114   2.168  10.812
 2613SOL    HW2 8727   0.195   2.048  10.857
 2614SOL     OW 8728   1.628   3.243   9.401
 2614SOL    HW1 8729   1.587   3.328   9.383
 2614SOL    HW2 8730   1.559   3.179   9.380
 2615SOL     OW 8731   0.468   3.601   9.631
 2615SOL    HW1 8732   0.506   3.664   9.692
 2615SOL    HW2 8733   0.541   3.573   9.576
 2616SOL     OW 8734   1.397   1.969   9.745
 2616SOL    HW1 8735   1.384   1.946   9.652
 2616SOL    HW2 8736   1.484   1.934   9.765
 2617SOL     OW 8737   0.253   3.656  10.536
 2617SOL    HW1 8738   0.297   3.590  10.589
 2617SOL    HW2 8739   0.251   3.619  10.448
 2618SOL     OW 8740   0.938   3.563  10.210
 2618SOL    HW1 8741   1.015   3.511  10.232
 2618SOL    HW2 8742   0.894   3.513  10.140
 2619SOL     OW 8743   0.399   2.555   9.781
 2619SOL    HW1 8744   0.424   2.464   9.796
 2619SOL    HW2 8745   0.307   2.559   9.808
 2620SOL     OW 8746   1.528   2.083  11.031
 2620SOL    HW1 8747   1.543   2.103  11.124
 2620SOL    HW2 8748   1.462   2.014  11.032
 2621SOL     OW 8749   0.643   1.980   9.407
 2621SOL    HW1 8750   0.704   1.909   9.427
 2621SOL    HW2 8751   0.593   1.949   9.332
 2622SOL     OW 8752   0.765   2.141  11.065
 2622SOL    HW1 8753   0.844   2.086  11.063
 2622SOL    HW2 8754   0.719   2.112  11.144
 2623SOL     OW 8755   0.876   3.383  10.504
 2623SOL    HW1 8756   0.859   3.346  10.417
 2623SOL    HW2 8757   0.946   3.328  10.540
 2624SOL     OW 8758   1.341   2.451  10.742
 2624SOL    HW1 8759   1.370   2.420  10.828
 2624SOL    HW2 8760   1.376   2.540  10.735
 2625SOL     OW 8761   0.817   3.254  10.252
 2625SOL    HW1 8762   0.902   3.242  10.209
 2625SOL    HW2 8763   0.754   3.256  10.180
 2626SOL     OW 8764   0.929   2.371  10.212
 2626SOL    HW1 8765   0.905   2.363  10.120
 2626SOL    HW2 8766   0.959   2.284  10.237
 2627SOL     OW 8767   0.556   1.924   9.805
 2627SOL    HW1 8768   0.474   1.929   9.854
 2627SOL    HW2 8769   0.560   2.007   9.756
 2628SOL     OW 8770   1.428   3.061   9.350
 2628SOL    HW1 8771   1.458   2.986   9.401
 2628SOL    HW2 8772   1.342   3.082   9.387
 2629SOL     OW 8773   0.308   1.913   9.480
 2629SOL    HW1 8774   0.371   1.951   9.419
 2629SOL    HW2 8775   0.358   1.848   9.529
 2630SOL     OW 8776   0.940   2.109   9.769
 2630SOL    HW1 8777   0.912   2.149   9.687
 2630SOL    HW2 8778   1.034   2.126   9.772
 2631SOL     OW 8779   1.080   2.544  10.768
 2631SOL    HW1 8780   1.013   2.476  10.773
 2631SOL    HW2 8781   1.163   2.496  10.762
 2632SOL     OW 8782   1.222   3.433  10.104
 2632SOL    HW1 8783   1.236   3.500  10.037
 2632SOL    HW2 8784   1.290   3.448  10.169
 2633SOL     OW 8785   0.467   3.013  10.045
 2633SOL    HW1 8786   0.395   2.989  10.104
 2633SOL    HW2 8787   0.431   2.997   9.957
 2634SOL     OW 8788   1.266   3.656   9.918
 2634SOL    HW1 8789   1.313   3.721   9.865
 2634SOL    HW2 8790   1.193   3.705   9.957
 2635SOL     OW 8791   1.023   2.401   9.335
 2635SOL    HW1 8792   0.980   2.484   9.315
 2635SOL    HW2 8793   1.089   2.423   9.400
 2636SOL     OW 8794   0.082   2.434  10.700
 2636SOL    HW1 8795   0.172   2.421  10.670
 2636SOL    HW2 8796   0.089   2.504  10.765
 2637SOL     OW 8797   0.567   2.089  10.476
 2637SOL    HW1 8798   0.608   2.014  10.518
 2637SOL    HW2 8799   0.475   2.086  10.505
 2638SOL     OW 8800   0.867   2.320   9.950
 2638SOL    HW1 8801   0.820   2.374   9.886
 2638SOL    HW2 8802   0.888   2.240   9.902
 2639SOL     OW 8803   1.015   1.917  10.060
 2639SOL    HW1 8804   0.958   1.910   9.984
 2639SOL    HW2 8805   0.993   1.841  10.114
 2640SOL     OW 8806   1.438   3.023  10.167
 2640SOL    HW1 8807   1.367   2.959  10.167
 2640SOL    HW2 8808   1.462   3.033  10.074
 2641SOL     OW 8809   1.464   2.469  10.282
 2641SOL    HW1 8810   1.410   2.390  10.284
 2641SOL    HW2 8811   1.520   2.462  10.358
 2642SOL     OW 8812   1.845   2.676   9.697
 2642SOL    HW1 8813   1.904   2.625   9.752
 2642SOL    HW2 8814   1.816   2.615   9.629
 2643SOL     OW 8815   0.488   3.281   9.469
 2643SOL    HW1 8816   0.412   3.251   9.519
 2643SOL    HW2 8817   0.471   3.252   9.379
 2644SOL     OW 8818   1.673   3.126   9.954
 2644SOL    HW1 8819   1.768   3.128   9.968
 2644SOL    HW2 8820   1.644   3.214   9.976
 2645SOL     OW 8821   1.390   2.436   9.378
 2645SOL    HW1 8822   1.335   2.413   9.453
 2645SOL    HW2 8823   1.479   2.416   9.407
 2646SOL     OW 8824   0.574   2.130   9.628
 2646SOL    HW1 8825   0.605   2.083   9.551
 2646SOL    HW2 8826   0.542   2.214   9.594
 2647SOL     OW 8827   1.751   3.104  10.878
 2647SOL    HW1 8828   1.838   3.065  10.875
 2647SOL    HW2 8829   1.766   3.194  10.906
 2648SOL     OW 8830   1.056   3.214  10.642
 2648SOL    HW1 8831   0.981   3.184  10.693
 2648SOL    HW2 8832   1.132   3.174  10.684
 2649SOL     OW 8833   1.610   3.488  10.966
 2649SOL    HW1 8834   1.601   3.522  10.877
 2649SOL    HW2 8835   1.693   3.440  10.966
 2650SOL     OW 8836   1.132   3.068  10.414
 2650SOL    HW1 8837   1.073   3.105  10.479
 2650SOL    HW2 8838   1.100   3.101  10.330
 2651SOL     OW 8839   1.626   2.960  10.386
 2651SOL    HW1 8840   1.621   3.022  10.458
 2651SOL    HW2 8841   1.548   2.978  10.333
 2652SOL     OW 8842   0.918   1.957  10.704
 2652SOL    HW1 8843   0.941   1.939  10.613
 2652SOL    HW2 8844   0.997   1.997  10.741
 2653SOL     OW 8845   0.984   2.977  11.033
 2653SOL    HW1 8846   0.893   2.993  11.055
 2653SOL    HW2 8847   0.982   2.899  10.978
 2654SOL     OW 8848   0.708   2.922   9.681
 2654SOL    HW1 8849   0.694   2.905   9.774
 2654SOL    HW2 8850   0.784   2.870   9.657
 2655SOL     OW 8851   0.422   2.679  10.562
 2655SOL    HW1 8852   0.490   2.687  10.629
 2655SOL    HW2 8853   0.388   2.590  10.574
 2656SOL     OW 8854   1.264   2.238  10.588
 2656SOL    HW1 8855   1.296   2.316  10.633
 2656SOL    HW2 8856   1.174   2.259  10.566
 2657SOL     OW 8857   0.065   3.441  10.656
 2657SOL    HW1 8858   0.071   3.496  10.577
 2657SOL    HW2 8859   0.157   3.430  10.683
 2658SOL     OW 8860   0.369   2.964   9.793
 2658SOL    HW1 8861   0.365   3.045   9.741
 2658SOL    HW2 8862   0.369   2.894   9.728
 2659SOL     OW 8863   0.549   2.398  10.171
 2659SOL    HW1 8864   0.564   2.455  10.096
 2659SOL    HW2 8865   0.617   2.424  10.234
 2660SOL     OW 8866   1.248   3.211   9.700
 2660SOL    HW1 8867   1.304   3.282   9.731
 2660SOL    HW2 8868   1.161   3.233   9.733
 2661SOL     OW 8869   1.285   3.321  10.458
 2661SOL    HW1 8870   1.340   3.325  10.536
 2661SOL    HW2 8871   1.229   3.245  10.472
 2662SOL     OW 8872   1.576   2.485   9.785
 2662SOL    HW1 8873   1.531   2.537   9.853
 2662SOL    HW2 8874   1.623   2.550   9.733
 2663SOL     OW 8875   0.345   3.389  10.628
 2663SOL    HW1 8876   0.335   3.339  10.547
 2663SOL    HW2 8877   0.439   3.404  10.635
 2664SOL     OW 8878   0.416   2.600  10.911
 2664SOL    HW1 8879   0.479   2.646  10.855
 2664SOL    HW2 8880   0.456   2.515  10.928
 2665SOL     OW 8881   1.599   2.652  10.987
 2665SOL    HW1 8882   1.514   2.695  10.980
 2665SOL    HW2 8883   1.653   2.694  10.920
 2666SOL     OW 8884   0.996   1.990  11.063
 2666SOL    HW1 8885   1.054   2.062  11.039
 2666SOL    HW2 8886   1.044   1.911  11.039
 2667SOL     OW 8887   0.497   1.897  11.056
 2667SOL    HW1 8888   0.453   1.845  10.990
 2667SOL    HW2 8889   0.443   1.975  11.065
 2668SOL     OW 8890   0.585   2.736  10.342
 2668SOL    HW1 8891   0.618   2.826  10.342
 2668SOL    HW2 8892   0.529   2.730  10.419
 2669SOL     OW 8893   1.354   2.720  10.336
 2669SOL    HW1 8894   1.269   2.709  10.293
 2669SOL    HW2 8895   1.396   2.635  10.328
 2670SOL     OW 8896   1.203   2.390   9.576
 2670SOL    HW1 8897   1.210   2.312   9.631
 2670SOL    HW2 8898   1.160   2.454   9.631
 2671SOL     OW 8899   0.310   2.058  10.557
 2671SOL    HW1 8900   0.264   2.095  10.632
 2671SOL    HW2 8901   0.287   1.965  10.557
 2672SOL     OW 8902   0.060   3.167  10.590
 2672SOL    HW1 8903   0.091   3.126  10.671
 2672SOL    HW2 8904   0.052   3.260  10.612
 2673SOL     OW 8905   0.724   2.493  10.366
 2673SOL    HW1 8906   0.799   2.478  10.309
 2673SOL    HW2 8907   0.695   2.582  10.345
 2674SOL     OW 8908   1.737   2.821  11.164
 2674SOL    HW1 8909   1.691   2.759  11.108
 2674SOL    HW2 8910   1.677   2.836  11.237
 2675SOL     OW 8911   0.314   1.924   9.930
 2675SOL    HW1 8912   0.293   2.015   9.951
 2675SOL    HW2 8913   0.320   1.881  10.015
 2676SOL     OW 8914   1.610   2.240   9.677
 2676SOL    HW1 8915   1.622   2.185   9.754
 2676SOL    HW2 8916   1.589   2.327   9.712
 2677SOL     OW 8917   1.029   2.621  10.269
 2677SOL    HW1 8918   1.022   2.638  10.363
 2677SOL    HW2 8919   1.002   2.529  10.260
 2678SOL     OW 8920   0.986   3.430  11.030
 2678SOL    HW1 8921   0.967   3.471  10.946
 2678SOL    HW2 8922   1.027   3.347  11.007
 2679SOL     OW 8923   1.854   3.365  10.914
 2679SOL    HW1 8924   1.873   3.393  10.825
 2679SOL    HW2 8925   1.934   3.383  10.963
 2680SOL     OW 8926   0.353   2.784  11.110
 2680SOL    HW1 8927   0.431   2.805  11.160
 2680SOL    HW2 8928   0.381   2.716  11.048
 2681SOL     OW 8929   1.533   2.128   9.436
 2681SOL    HW1 8930   1.464   2.068   9.463
 2681SOL    HW2 8931   1.562   2.170   9.517
 2682SOL     OW 8932   1.289   2.689   9.340
 2682SOL    HW1 8933   1.331   2.603   9.343
 2682SOL    HW2 8934   1.320   2.728   9.258
 2683SOL     OW 8935   1.067   3.199  10.165
 2683SOL    HW1 8936   1.071   3.127  10.102
 2683SOL    HW2 8937   1.127   3.265  10.130
 2684SOL     OW 8938   0.313   2.664  10.260
 2684SOL    HW1 8939   0.407   2.682  10.254
 2684SOL    HW2 8940   0.308   2.574  10.292
 2685SOL     OW 8941   0.330   2.383  10.324
 2685SOL    HW1 8942   0.295   2.295  10.308
 2685SOL    HW2 8943   0.406   2.390  10.267
 2686SOL     OW 8944   1.134   2.236  10.994
 2686SOL    HW1 8945   1.086   2.291  11.056
 2686SOL    HW2 8946   1.221   2.275  10.990
 2687SOL     OW 8947   1.160   2.063  10.781
 2687SOL    HW1 8948   1.149   2.126  10.852
 2687SOL    HW2 8949   1.202   2.113  10.711
 2688SOL     OW 8950   4.000   3.180   9.492
 2688SOL    HW1 8951   3.905   3.196   9.496
 2688SOL    HW2 8952   0.009   3.086   9.510
 2689SOL     OW 8953   0.076   3.663  10.205
 2689SOL    HW1 8954   0.091   3.568  10.203
 2689SOL    HW2 8955   0.163   3.701  10.204
 2690SOL     OW 8956   0.507   3.425  10.227
 2690SOL    HW1 8957   0.573   3.492  10.247
 2690SOL    HW2 8958   0.549   3.367  10.164
 2691SOL     OW 8959   0.979   2.652  10.535
 2691SOL    HW1 8960   1.036   2.631  10.608
 2691SOL    HW2 8961   0.894   2.614  10.559
 2692SOL     OW 8962   0.038   2.420  10.419
 2692SOL    HW1 8963   0.120   2.397  10.377
 2692SOL    HW2 8964   0.057   2.417  10.513
 2693SOL     OW 8965   0.207   2.375  11.038
 2693SOL    HW1 8966   0.246   2.327  10.964
 2693SOL    HW2 8967   0.160   2.448  10.997
 2694SOL     OW 8968   1.372   2.802  10.966
 2694SOL    HW1 8969   1.396   2.895  10.963
 2694SOL    HW2 8970   1.369   2.775  10.874
 2695SOL     OW 8971   0.818   2.431   9.672
 2695SOL    HW1 8972   0.823   2.356   9.613
 2695SOL    HW2 8973   0.744   2.482   9.640
 2696SOL     OW 8974   1.635   2.466  10.495
 2696SOL    HW1 8975   1.623   2.409  10.572
 2696SOL    HW2 8976   1.721   2.442  10.461
 2697SOL     OW 8977   0.300   3.407  11.036
 2697SOL    HW1 8978   0.251   3.477  11.081
 2697SOL    HW2 8979   0.268   3.326  11.076
 2698SOL     OW 8980   0.707   2.311  10.567
 2698SOL    HW1 8981   0.654   2.237  10.538
 2698SOL    HW2 8982   0.701   2.374  10.495
 2699SOL     OW 8983   0.928   3.533  10.779
 2699SOL    HW1 8984   0.901   3.496  10.695
 2699SOL    HW2 8985   0.920   3.628  10.767
 2700SOL     OW 8986   0.455   2.351   9.506
 2700SOL    HW1 8987   0.520   2.419   9.523
 2700SOL    HW2 8988   0.375   2.400   9.483
 2701SOL     OW 8989   0.156   2.997  10.785
 2701SOL    HW1 8990   0.156   2.946  10.866
 2701SOL    HW2 8991   0.171   2.932  10.716
 2702SOL     OW 8992   1.324   2.907  10.531
 2702SOL    HW1 8993   1.346   2.844  10.463
 2702SOL    HW2 8994   1.256   2.962  10.492
 2703SOL     OW 8995   1.313   2.719   9.615
 2703SOL    HW1 8996   1.239   2.687   9.666
 2703SOL    HW2 8997   1.288   2.705   9.524
 2704SOL     OW 8998   1.772   3.602  10.461
 2704SOL    HW1 8999   1.834   3.630  10.394
 2704SOL    HW2 9000   1.750   3.512  10.437
 2705SOL     OW 9001   1.244   3.595  10.418
 2705SOL    HW1 9002   1.327   3.616  10.376
 2705SOL    HW2 9003   1.251   3.501  10.438
 2706SOL     OW 9004   0.076   3.076  10.338
 2706SOL    HW1 9005   0.083   3.104  10.429
 2706SOL    HW2 9006   3.984   3.087  10.316
 2707SOL     OW 9007   0.679   3.527  11.043
 2707SOL    HW1 9008   0.621   3.603  11.047
 2707SOL    HW2 9009   0.739   3.546  10.971
 2708SOL     OW 9010   1.391   3.431   9.797
 2708SOL    HW1 9011   1.450   3.464   9.730
 2708SOL    HW2 9012   1.342   3.508   9.827
 2709SOL     OW 9013   0.170   3.623  11.142
 2709SOL    HW1 9014   0.115   3.570  11.200
 2709SOL    HW2 9015   0.217   3.682  11.200
 2710SOL     OW 9016   1.278   2.789   9.981
 2710SOL    HW1 9017   1.351   2.728   9.989
 2710SOL    HW2 9018   1.312   2.861   9.928
 2711SOL     OW 9019   0.810   3.136  10.738
 2711SOL    HW1 9020   0.782   3.177  10.820
 2711SOL    HW2 9021   0.739   3.155  10.676
 2712SOL     OW 9022   0.675   3.479   9.468
 2712SOL    HW1 9023   0.683   3.496   9.374
 2712SOL    HW2 9024   0.616   3.404   9.473
 2713SOL     OW 9025   1.622   3.588  10.700
 2713SOL    HW1 9026   1.674   3.593  10.619
 2713SOL    HW2 9027   1.608   3.679  10.725
 2714SOL     OW 9028   0.266   2.175  10.026
 2714SOL    HW1 9029   0.180   2.207  10.000
 2714SOL    HW2 9030   0.261   2.165  10.121
 2715SOL     OW 9031   1.208   3.466   9.346
 2715SOL    HW1 9032   1.197   3.374   9.370
 2715SOL    HW2 9033   1.147   3.479   9.273
 2716SOL     OW 9034   0.823   2.868  10.684
 2716SOL    HW1 9035   0.868   2.863  10.599
 2716SOL    HW2 9036   0.822   2.961  10.704
 2717SOL     OW 9037   0.916   2.772   9.601
 2717SOL    HW1 9038   0.976   2.805   9.534
 2717SOL    HW2 9039   0.965   2.704   9.646
 2718SOL     OW 9040   1.489   3.491   9.353
 2718SOL    HW1 9041   1.395   3.480   9.336
 2718SOL    HW2 9042   1.528   3.496   9.265
 2719SOL     OW 9043   0.374   3.165  10.801
 2719SOL    HW1 9044   0.359   3.245  10.751
 2719SOL    HW2 9045   0.297   3.111  10.784
 2720SOL     OW 9046   1.610   3.145  10.590
 2720SOL    HW1 9047   1.669   3.133  10.664
 2720SOL    HW2 9048   1.549   3.213  10.620
 2721SOL     OW 9049   1.056   2.971  10.018
 2721SOL    HW1 9050   0.984   2.920  10.056
 2721SOL    HW2 9051   1.119   2.905   9.989
 2722SOL     OW 9052   1.023   2.103  10.277
 2722SOL    HW1 9053   1.019   2.056  10.194
 2722SOL    HW2 9054   1.018   2.034  10.343
 2723SOL     OW 9055   0.606   3.352   9.790
 2723SOL    HW1 9056   0.651   3.302   9.723
 2723SOL    HW2 9057   0.534   3.395   9.744
 2724SOL     OW 9058   1.731   2.244  10.682
 2724SOL    HW1 9059   1.800   2.310  10.686
 2724SOL    HW2 9060   1.769   2.173  10.629
 2725SOL     OW 9061   0.253   3.203   9.602
 2725SOL    HW1 9062   0.160   3.211   9.583
 2725SOL    HW2 9063   0.264   3.241   9.689
 2726SOL     OW 9064   0.107   2.860  11.027
 2726SOL    HW1 9065   0.047   2.853  11.101
 2726SOL    HW2 9066   0.194   2.842  11.064
 2727SOL     OW 9067   0.676   2.058  10.810
 2727SOL    HW1 9068   0.760   2.037  10.769
 2727SOL    HW2 9069   0.699   2.091  10.897
 2728SOL     OW 9070   0.081   2.176   9.347
 2728SOL    HW1 9071   3.985   2.176   9.355
 2728SOL    HW2 9072   0.101   2.257   9.300
 2729SOL     OW 9073   1.428   2.721  10.709
 2729SOL    HW1 9074   1.379   2.782  10.653
 2729SOL    HW2 9075   1.517   2.723  10.675
 2730SOL     OW 9076   0.018   2.098   9.687
 2730SOL    HW1 9077   0.045   2.161   9.620
 2730SOL    HW2 9078   0.100   2.058   9.716
 2731SOL     OW 9079   1.178   3.199   9.427
 2731SOL    HW1 9080   1.086   3.170   9.428
 2731SOL    HW2 9081   1.204   3.198   9.519
 2732SOL     OW 9082   0.620   2.692  10.746
 2732SOL    HW1 9083   0.676   2.768  10.731
 2732SOL    HW2 9084   0.680   2.619  10.754
 2733SOL     OW 9085   1.486   3.641  10.291
 2733SOL    HW1 9086   1.508   3.700  10.219
 2733SOL    HW2 9087   1.570   3.620  10.332
 2734SOL     OW 9088   0.716   2.424  11.014
 2734SOL    HW1 9089   0.761   2.486  11.072
 2734SOL    HW2 9090   0.741   2.338  11.046
 2735SOL     OW 9091   1.473   3.060  10.940
 2735SOL    HW1 9092   1.461   3.074  11.034
 2735SOL    HW2 9093   1.566   3.077  10.925
 2736SOL     OW 9094   0.378   3.607  10.869
 2736SOL    HW1 9095   0.290   3.643  10.856
 2736SOL    HW2 9096   0.364   3.525  10.915
 2737SOL     OW 9097   1.669   2.744  10.563
 2737SOL    HW1 9098   1.659   2.658  10.521
 2737SOL    HW2 9099   1.657   2.807  10.492
 2738SOL     OW 9100   1.215   2.182   9.768
 2738SOL    HW1 9101   1.278   2.110   9.760
 2738SOL    HW2 9102   1.245   2.231   9.845
 2739SOL     OW 9103   0.589   2.599   9.983
 2739SOL    HW1 9104   0.628   2.685   9.967
 2739SOL    HW2 9105   0.523   2.590   9.914
 2740SOL     OW 9106   1.741   2.238  10.957
 2740SOL    HW1 9107   1.739   2.244  10.861
 2740SOL    HW2 9108   1.672   2.176  10.978
 2741SOL     OW 9109   1.746   2.800  10.818
 2741SOL    HW1 9110   1.741   2.895  10.830
 2741SOL    HW2 9111   1.731   2.787  10.725
 2742SOL     OW 9112   0.865   3.229   9.349
 2742SOL    HW1 9113   0.823   3.257   9.430
 2742SOL    HW2 9114   0.879   3.309   9.300
 2743SOL     OW 9115   0.659   3.651  10.245
 2743SOL    HW1 9116   0.637   3.742  10.226
 2743SOL    HW2 9117   0.754   3.647  10.243
 2744SOL     OW 9118   0.869   2.830  10.164
 2744SOL    HW1 9119   0.919   2.758  10.202
 2744SOL    HW2 9120   0.832   2.877  10.239
 2745SOL     OW 9121   1.077   2.850   9.399
 2745SOL    HW1 9122   1.056   2.901   9.321
 2745SOL    HW2 9123   1.152   2.797   9.373
 2746SOL     OW 9124   1.851   3.412  10.151
 2746SOL    HW1 9125   1.770   3.403  10.100
 2746SOL    HW2 9126   1.840   3.351  10.224
 2747SOL     OW 9127   0.227   3.166  11.166
 2747SOL    HW1 9128   0.153   3.111  11.140
 2747SOL    HW2 9129   0.214   3.179  11.260
 2748SOL     OW 9130   0.115   3.140  10.032
 2748SOL    HW1 9131   0.134   3.089  10.111
 2748SOL    HW2 9132   0.104   3.074   9.963
 2749SOL     OW 9133   0.683   3.266  10.941
 2749SOL    HW1 9134   0.602   3.225  10.970
 2749SOL    HW2 9135   0.679   3.355  10.977
 2750SOL     OW 9136   0.441   2.296   9.844
 2750SOL    HW1 9137   0.442   2.226   9.778
 2750SOL    HW2 9138   0.385   2.262   9.914
 2751SOL     OW 9139   1.700   3.347  10.401
 2751SOL    HW1 9140   1.619   3.327  10.355
 2751SOL    HW2 9141   1.708   3.280  10.468
 2752SOL     OW 9142   0.335   2.419  10.602
 2752SOL    HW1 9143   0.389   2.362  10.656
 2752SOL    HW2 9144   0.349   2.388  10.513
 2753SOL     OW 9145   0.828   3.441   9.986
 2753SOL    HW1 9146   0.812   3.495   9.909
 2753SOL    HW2 9147   0.754   3.381   9.990
 2754SOL     OW 9148   1.435   2.090  10.431
 2754SOL    HW1 9149   1.440   2.002  10.468
 2754SOL    HW2 9150   1.381   2.139  10.494
 2755SOL     OW 9151   1.009   1.879  10.449
 2755SOL    HW1 9152   0.955   1.812  10.407
 2755SOL    HW2 9153   1.097   1.841  10.451
 2756SOL     OW 9154   0.772   3.194   9.629
 2756SOL    HW1 9155   0.743   3.103   9.635
 2756SOL    HW2 9156   0.855   3.195   9.677
 2757SOL     OW 9157   0.621   3.416  10.596
 2757SOL    HW1 9158   0.621   3.497  10.646
 2757SOL    HW2 9159   0.708   3.410  10.558
 2758SOL     OW 9160   1.353   1.912   9.478
 2758SOL    HW1 9161   1.381   1.849   9.411
 2758SOL    HW2 9162   1.265   1.884   9.502
 2759SOL     OW 9163   1.299   2.324   9.991
 2759SOL    HW1 9164   1.245   2.403   9.995
 2759SOL    HW2 9165   1.292   2.285  10.078
 2760SOL     OW 9166   1.576   2.058  10.186
 2760SOL    HW1 9167   1.535   2.084  10.268
 2760SOL    HW2 9168   1.587   2.140  10.138
 2761SOL     OW 9169   0.047   2.911   9.549
 2761SOL    HW1 9170   0.141   2.896   9.541
 2761SOL    HW2 9171   0.012   2.828   9.580
 2762SOL     OW 9172   0.886   3.521   9.653
 2762SOL    HW1 9173   0.815   3.501   9.592
 2762SOL    HW2 9174   0.855   3.596   9.703
 2763SOL     OW 9175   0.231   2.487  11.291
 2763SOL    HW1 9176   0.138   2.495  11.312
 2763SOL    HW2 9177   0.232   2.455  11.201
 2764SOL     OW 9178   0.229   2.134  12.159
 2764SOL    HW1 9179   0.250   2.100  12.246
 2764SOL    HW2 9180   0.134   2.126  12.152
 2765SOL     OW 9181   0.009   2.221  11.802
 2765SOL    HW1 9182   3.920   2.239  11.833
 2765SOL    HW2 9183   3.997   2.190  11.712
 2766SOL     OW 9184   0.580   3.151  12.362
 2766SOL    HW1 9185   0.494   3.154  12.321
 2766SOL    HW2 9186   0.594   3.240  12.395
 2767SOL     OW 9187   1.564   3.373  11.880
 2767SOL    HW1 9188   1.522   3.351  11.964
 2767SOL    HW2 9189   1.492   3.376  11.817
 2768SOL     OW 9190   1.132   2.560  11.870
 2768SOL    HW1 9191   1.180   2.641  11.857
 2768SOL    HW2 9192   1.085   2.573  11.953
 2769SOL     OW 9193   1.767   2.472  11.399
 2769SOL    HW1 9194   1.740   2.467  11.307
 2769SOL    HW2 9195   1.749   2.384  11.433
 2770SOL     OW 9196   0.753   3.001  12.214
 2770SOL    HW1 9197   0.689   3.037  12.276
 2770SOL    HW2 9198   0.789   3.078  12.170
 2771SOL     OW 9199   0.870   2.631  12.994
 2771SOL    HW1 9200   0.861   2.703  13.058
 2771SOL    HW2 9201   0.893   2.675  12.912
 2772SOL     OW 9202   0.685   2.863  11.818
 2772SOL    HW1 9203   0.751   2.853  11.886
 2772SOL    HW2 9204   0.616   2.916  11.859
 2773SOL     OW 9205   0.712   3.011  12.988
 2773SOL    HW1 9206   0.760   3.089  13.017
 2773SOL    HW2 9207   0.631   3.046  12.950
 2774SOL     OW 9208   0.350   3.263  12.250
 2774SOL    HW1 9209   0.269   3.247  12.203
 2774SOL    HW2 9210   0.400   3.322  12.193
 2775SOL     OW 9211   1.460   3.363  12.529
 2775SOL    HW1 9212   1.513   3.442  12.539
 2775SOL    HW2 9213   1.394   3.370  12.597
 2776SOL     OW 9214   0.450   2.261  12.659
 2776SOL    HW1 9215   0.525   2.202  12.663
 2776SOL    HW2 9216   0.374   2.204  12.673
 2777SOL     OW 9217   1.602   2.305  11.909
 2777SOL    HW1 9218   1.521   2.325  11.861
 2777SOL    HW2 9219   1.618   2.382  11.962
 2778SOL     OW 9220   0.223   3.571  11.638
 2778SOL    HW1 9221   0.223   3.654  11.685
 2778SOL    HW2 9222   0.300   3.576  11.581
 2779SOL     OW 9223   1.137   3.203  12.865
 2779SOL    HW1 9224   1.177   3.198  12.952
 2779SOL    HW2 9225   1.085   3.124  12.858
 2780SOL     OW 9226   0.250   3.306  11.712
 2780SOL    HW1 9227   0.222   3.396  11.698
 2780SOL    HW2 9228   0.181   3.267  11.765
 2781SOL     OW 9229   0.247   2.929  12.056
 2781SOL    HW1 9230   0.267   2.844  12.095
 2781SOL    HW2 9231   0.194   2.974  12.121
 2782SOL     OW 9232   0.610   3.648  12.599
 2782SOL    HW1 9233   0.528   3.634  12.646
 2782SOL    HW2 9234   0.637   3.737  12.624
 2783SOL     OW 9235   0.577   2.848  11.310
 2783SOL    HW1 9236   0.626   2.893  11.241
 2783SOL    HW2 9237   0.618   2.877  11.391
 2784SOL     OW 9238   1.553   2.003  12.617
 2784SOL    HW1 9239   1.574   2.088  12.577
 2784SOL    HW2 9240   1.549   2.021  12.711
 2785SOL     OW 9241   0.142   2.515  11.746
 2785SOL    HW1 9242   0.087   2.437  11.745
 2785SOL    HW2 9243   0.106   2.569  11.816
 2786SOL     OW 9244   1.843   3.609  11.509
 2786SOL    HW1 9245   1.911   3.585  11.572
 2786SOL    HW2 9246   1.862   3.700  11.486
 2787SOL     OW 9247   0.041   3.453  11.312
 2787SOL    HW1 9248   0.034   3.361  11.337
 2787SOL    HW2 9249   3.958   3.491  11.340
 2788SOL     OW 9250   1.689   2.781  11.814
 2788SOL    HW1 9251   1.770   2.736  11.788
 2788SOL    HW2 9252   1.665   2.832  11.737
 2789SOL     OW 9253   1.647   2.967  11.601
 2789SOL    HW1 9254   1.733   2.970  11.560
 2789SOL    HW2 9255   1.653   3.029  11.673
 2790SOL     OW 9256   0.139   2.615  12.762
 2790SOL    HW1 9257   0.235   2.610  12.758
 2790SOL    HW2 9258   0.121   2.703  12.793
 2791SOL     OW 9259   0.616   3.248  11.906
 2791SOL    HW1 9260   0.568   3.166  11.916
 2791SOL    HW2 9261   0.598   3.276  11.816
 2792SOL     OW 9262   1.287   3.099  12.594
 2792SOL    HW1 9263   1.319   3.031  12.534
 2792SOL    HW2 9264   1.346   3.094  12.670
 2793SOL     OW 9265   0.820   1.863  11.684
 2793SOL    HW1 9266   0.860   1.947  11.662
 2793SOL    HW2 9267   0.726   1.881  11.689
 2794SOL     OW 9268   0.184   2.812  12.451
 2794SOL    HW1 9269   0.272   2.777  12.439
 2794SOL    HW2 9270   0.132   2.774  12.381
 2795SOL     OW 9271   1.531   2.858  11.371
 2795SOL    HW1 9272   1.462   2.801  11.403
 2795SOL    HW2 9273   1.573   2.892  11.450
 2796SOL     OW 9274   1.217   3.666  12.799
 2796SOL    HW1 9275   1.194   3.727  12.729
 2796SOL    HW2 9276   1.219   3.580  12.757
 2797SOL     OW 9277   0.342   2.109  12.988
 2797SOL    HW1 9278   0.378   2.197  12.996
 2797SOL    HW2 9279   0.250   2.119  13.013
 2798SOL     OW 9280   1.466   3.281  12.122
 2798SOL    HW1 9281   1.399   3.297  12.188
 2798SOL    HW2 9282   1.453   3.190  12.095
 2799SOL     OW 9283   1.654   3.602  11.753
 2799SOL    HW1 9284   1.640   3.571  11.663
 2799SOL    HW2 9285   1.631   3.527  11.808
 2800SOL     OW 9286   0.596   2.578  11.438
 2800SOL    HW1 9287   0.602   2.662  11.393
 2800SOL    HW2 9288   0.533   2.593  11.508
 2801SOL     OW 9289   1.280   2.221  12.107
 2801SOL    HW1 9290   1.191   2.186  12.116
 2801SOL    HW2 9291   1.333   2.166  12.163
 2802SOL     OW 9292   1.577   3.537  11.480
 2802SOL    HW1 9293   1.669   3.561  11.475
 2802SOL    HW2 9294   1.551   3.518  11.390
 2803SOL     OW 9295   0.791   2.480  12.622
 2803SOL    HW1 9296   0.764   2.455  12.711
 2803SOL    HW2 9297   0.754   2.412  12.566
 2804SOL     OW 9298   1.393   2.335  12.849
 2804SOL    HW1 9299   1.397   2.381  12.933
 2804SOL    HW2 9300   1.455   2.263  12.859
 2805SOL     OW 9301   0.952   2.748  12.756
 2805SOL    HW1 9302   1.007   2.679  12.719
 2805SOL    HW2 9303   0.904   2.783  12.681
 2806SOL     OW 9304   0.992   2.274  12.409
 2806SOL    HW1 9305   0.905   2.293  12.442
 2806SOL    HW2 9306   0.977   2.229  12.325
 2807SOL     OW 9307   1.052   2.560  11.597
 2807SOL    HW1 9308   1.069   2.553  11.691
 2807SOL    HW2 9309   0.970   2.514  11.584
 2808SOL     OW 9310   0.082   2.691  11.962
 2808SOL    HW1 9311   0.156   2.660  12.014
 2808SOL    HW2 9312   0.100   2.784  11.947
 2809SOL     OW 9313   0.127   3.718  12.751
 2809SOL    HW1 9314   0.135   3.686  12.841
 2809SOL    HW2 9315   0.035   3.705  12.728
 2810SOL     OW 9316   0.897   2.212  11.365
 2810SOL    HW1 9317   0.936   2.275  11.305
 2810SOL    HW2 9318   0.913   2.126  11.325
 2811SOL     OW 9319   1.704   2.439  13.005
 2811SOL    HW1 9320   1.669   2.510  12.952
 2811SOL    HW2 9321   1.734   2.374  12.942
 2812SOL     OW 9322   1.379   3.004  11.713
 2812SOL    HW1 9323   1.457   2.992  11.660
 2812SOL    HW2 9324   1.325   3.066  11.663
 2813SOL     OW 9325   0.546   2.040  12.066
 2813SOL    HW1 9326   0.553   2.072  12.156
 2813SOL    HW2 9327   0.546   2.119  12.012
 2814SOL     OW 9328   1.003   3.307  11.642
 2814SOL    HW1 9329   0.967   3.381  11.593
 2814SOL    HW2 9330   0.983   3.326  11.734
 2815SOL     OW 9331   0.359   3.671  12.034
 2815SOL    HW1 9332   0.438   3.618  12.046
 2815SOL    HW2 9333   0.389   3.761  12.043
 2816SOL     OW 9334   1.800   2.914  12.041
 2816SOL    HW1 9335   1.747   2.896  11.964
 2816SOL    HW2 9336   1.737   2.922  12.113
 2817SOL     OW 9337   1.228   3.399  12.683
 2817SOL    HW1 9338   1.215   3.327  12.745
 2817SOL    HW2 9339   1.159   3.387  12.617
 2818SOL     OW 9340   0.311   2.816  11.414
 2818SOL    HW1 9341   0.394   2.839  11.373
 2818SOL    HW2 9342   0.298   2.723  11.393
 2819SOL     OW 9343   1.480   2.608  11.897
 2819SOL    HW1 9344   1.474   2.566  11.983
 2819SOL    HW2 9345   1.558   2.663  11.903
 2820SOL     OW 9346   0.468   3.122  12.909
 2820SOL    HW1 9347   0.442   3.130  12.817
 2820SOL    HW2 9348   0.386   3.126  12.957
 2821SOL     OW 9349   1.113   3.643  11.394
 2821SOL    HW1 9350   1.049   3.597  11.447
 2821SOL    HW2 9351   1.144   3.577  11.331
 2822SOL     OW 9352   0.204   2.135  12.680
 2822SOL    HW1 9353   0.114   2.168  12.674
 2822SOL    HW2 9354   0.195   2.048  12.719
 2823SOL     OW 9355   1.628   3.243  11.262
 2823SOL    HW1 9356   1.587   3.328  11.245
 2823SOL    HW2 9357   1.559   3.179  11.242
 2824SOL     OW 9358   0.468   3.601  11.493
 2824SOL    HW1 9359   0.506   3.664  11.554
 2824SOL    HW2 9360   0.541   3.573  11.438
 2825SOL     OW 9361   1.398   1.968  11.606
 2825SOL    HW1 9362   1.384   1.946  11.514
 2825SOL    HW2 9363   1.484   1.931  11.627
 2826SOL     OW 9364   0.253   3.656  12.398
 2826SOL    HW1 9365   0.297   3.590  12.451
 2826SOL    HW2 9366   0.251   3.619  12.310
 2827SOL     OW 9367   0.938   3.563  12.072
 2827SOL    HW1 9368   1.015   3.511  12.094
 2827SOL    HW2 9369   0.894   3.513  12.002
 2828SOL     OW 9370   0.399   2.555  11.643
 2828SOL    HW1 9371   0.424   2.464  11.658
 2828SOL    HW2 9372   0.307   2.559  11.670
 2829SOL     OW 9373   1.533   2.086  12.896
 2829SOL    HW1 9374   1.549   2.107  12.988
 2829SOL    HW2 9375   1.466   2.018  12.897
 2830SOL     OW 9376   0.643   1.980  11.269
 2830SOL    HW1 9377   0.703   1.909  11.289
 2830SOL    HW2 9378   0.593   1.949  11.194
 2831SOL     OW 9379   0.765   2.141  12.927
 2831SOL    HW1 9380   0.844   2.086  12.925
 2831SOL    HW2 9381   0.719   2.113  13.006
 2832SOL     OW 9382   0.876   3.383  12.366
 2832SOL    HW1 9383   0.859   3.346  12.279
 2832SOL    HW2 9384   0.946   3.328  12.402
 2833SOL     OW 9385   1.340   2.451  12.604
 2833SOL    HW1 9386   1.371   2.420  12.690
 2833SOL    HW2 9387   1.376   2.539  12.597
 2834SOL     OW 9388   0.817   3.254  12.114
 2834SOL    HW1 9389   0.902   3.242  12.071
 2834SOL    HW2 9390   0.754   3.256  12.042
 2835SOL     OW 9391   0.929   2.371  12.074
 2835SOL    HW1 9392   0.905   2.363  11.982
 2835SOL    HW2 9393   0.959   2.284  12.099
 2836SOL     OW 9394   0.556   1.924  11.667
 2836SOL    HW1 9395   0.474   1.929  11.716
 2836SOL    HW2 9396   0.560   2.007  11.618
 2837SOL     OW 9397   1.428   3.061  11.212
 2837SOL    HW1 9398   1.458   2.986  11.262
 2837SOL    HW2 9399   1.342   3.082  11.249
 2838SOL     OW 9400   0.308   1.913  11.342
 2838SOL    HW1 9401   0.372   1.951  11.281
 2838SOL    HW2 9402   0.358   1.848  11.391
 2839SOL     OW 9403   0.940   2.109  11.631
 2839SOL    HW1 9404   0.912   2.150  11.549
 2839SOL    HW2 9405   1.034   2.126  11.634
 2840SOL     OW 9406   1.080   2.544  12.630
 2840SOL    HW1 9407   1.013   2.476  12.635
 2840SOL    HW2 9408   1.163   2.496  12.624
 2841SOL     OW 9409   1.222   3.432  11.966
 2841SOL    HW1 9410   1.237   3.500  11.899
 2841SOL    HW2 9411   1.290   3.448  12.031
 2842SOL     OW 9412   0.467   3.013  11.907
 2842SOL    HW1 9413   0.395   2.989  11.966
 2842SOL    HW2 9414   0.431   2.997  11.819
 2843SOL     OW 9415   1.266   3.656  11.780
 2843SOL    HW1 9416   1.313   3.721  11.727
 2843SOL    HW2 9417   1.194   3.705  11.819
 2844SOL     OW 9418   1.023   2.401  11.197
 2844SOL    HW1 9419   0.981   2.484  11.178
 2844SOL    HW2 9420   1.090   2.422  11.262
 2845SOL     OW 9421   0.082   2.434  12.562
 2845SOL    HW1 9422   0.172   2.421  12.532
 2845SOL    HW2 9423   0.089   2.504  12.627
 2846SOL     OW 9424   0.567   2.089  12.338
 2846SOL    HW1 9425   0.608   2.014  12.380
 2846SOL    HW2 9426   0.475   2.085  12.367
 2847SOL     OW 9427   0.867   2.320  11.812
 2847SOL    HW1 9428   0.820   2.374  11.748
 2847SOL    HW2 9429   0.888   2.240  11.764
 2848SOL     OW 9430   1.015   1.917  11.923
 2848SOL    HW1 9431   0.958   1.910  11.846
 2848SOL    HW2 9432   0.992   1.841  11.976
 2849SOL     OW 9433   1.438   3.024  12.029
 2849SOL    HW1 9434   1.368   2.959  12.029
 2849SOL    HW2 9435   1.462   3.033  11.936
 2850SOL     OW 9436   1.464   2.469  12.144
 2850SOL    HW1 9437   1.410   2.390  12.146
 2850SOL    HW2 9438   1.521   2.462  12.221
 2851SOL     OW 9439   1.845   2.676  11.559
 2851SOL    HW1 9440   1.904   2.625  11.614
 2851SOL    HW2 9441   1.816   2.615  11.491
 2852SOL     OW 9442   0.488   3.281  11.331
 2852SOL    HW1 9443   0.412   3.251  11.381
 2852SOL    HW2 9444   0.470   3.252  11.241
 2853SOL     OW 9445   1.673   3.126  11.816
 2853SOL    HW1 9446   1.768   3.128  11.830
 2853SOL    HW2 9447   1.644   3.214  11.838
 2854SOL     OW 9448   1.390   2.436  11.240
 2854SOL    HW1 9449   1.335   2.413  11.316
 2854SOL    HW2 9450   1.479   2.417  11.268
 2855SOL     OW 9451   0.574   2.130  11.490
 2855SOL    HW1 9452   0.605   2.083  11.413
 2855SOL    HW2 9453   0.542   2.214  11.456
 2856SOL     OW 9454   1.751   3.103  12.740
 2856SOL    HW1 9455   1.838   3.064  12.736
 2856SOL    HW2 9456   1.766   3.194  12.768
 2857SOL     OW 9457   1.056   3.214  12.504
 2857SOL    HW1 9458   0.981   3.184  12.555
 2857SOL    HW2 9459   1.132   3.174  12.546
 2858SOL     OW 9460   1.610   3.488  12.828
 2858SOL    HW1 9461   1.602   3.522  12.739
 2858SOL    HW2 9462   1.692   3.440  12.828
 2859SOL     OW 9463   1.132   3.068  12.276
 2859SOL    HW1 9464   1.073   3.105  12.341
 2859SOL    HW2 9465   1.100   3.101  12.192
 2860SOL     OW 9466   1.626   2.960  12.248
 2860SOL    HW1 9467   1.621   3.022  12.320
 2860SOL    HW2 9468   1.548   2.977  12.195
 2861SOL     OW 9469   0.918   1.957  12.566
 2861SOL    HW1 9470   0.941   1.938  12.475
 2861SOL    HW2 9471   0.997   1.997  12.603
 2862SOL     OW 9472   0.984   2.977  12.895
 2862SOL    HW1 9473   0.893   2.993  12.917
 2862SOL    HW2 9474   0.982   2.899  12.840
 2863SOL     OW 9475   0.708   2.922  11.543
 2863SOL    HW1 9476   0.694   2.906  11.636
 2863SOL    HW2 9477   0.784   2.870  11.519
 2864SOL     OW 9478   0.422   2.679  12.424
 2864SOL    HW1 9479   0.490   2.687  12.491
 2864SOL    HW2 9480   0.388   2.590  12.436
 2865SOL     OW 9481   1.264   2.238  12.450
 2865SOL    HW1 9482   1.296   2.316  12.496
 2865SOL    HW2 9483   1.173   2.259  12.428
 2866SOL     OW 9484   0.065   3.442  12.518
 2866SOL    HW1 9485   0.071   3.496  12.439
 2866SOL    HW2 9486   0.156   3.430  12.545
 2867SOL     OW 9487   0.369   2.964  11.655
 2867SOL    HW1 9488   0.365   3.045  11.603
 2867SOL    HW2 9489   0.369   2.894  11.590
 2868SOL     OW 9490   0.549   2.398  12.033
 2868SOL    HW1 9491   0.564   2.455  11.958
 2868SOL    HW2 9492   0.617   2.424  12.096
 2869SOL     OW 9493   1.248   3.211  11.562
 2869SOL    HW1 9494   1.304   3.282  11.593
 2869SOL    HW2 9495   1.161   3.233  11.595
 2870SOL     OW 9496   1.285   3.321  12.320
 2870SOL    HW1 9497   1.340   3.325  12.398
 2870SOL    HW2 9498   1.229   3.245  12.334
 2871SOL     OW 9499   1.575   2.486  11.648
 2871SOL    HW1 9500   1.531   2.537  11.715
 2871SOL    HW2 9501   1.623   2.550  11.595
 2872SOL     OW 9502   0.345   3.390  12.490
 2872SOL    HW1 9503   0.335   3.339  12.409
 2872SOL    HW2 9504   0.439   3.404  12.497
 2873SOL     OW 9505   0.416   2.601  12.773
 2873SOL    HW1 9506   0.479   2.646  12.717
 2873SOL    HW2 9507   0.456   2.515  12.790
 2874SOL     OW 9508   1.604   2.643  12.856
 2874SOL    HW1 9509   1.518   2.685  12.850
 2874SOL    HW2 9510   1.656   2.684  12.788
 2875SOL     OW 9511   0.996   1.990  12.925
 2875SOL    HW1 9512   1.054   2.062  12.901
 2875SOL    HW2 9513   1.044   1.911  12.900
 2876SOL     OW 9514   0.497   1.897  12.918
 2876SOL    HW1 9515   0.453   1.845  12.851
 2876SOL    HW2 9516   0.443   1.975  12.927
 2877SOL     OW 9517   0.585   2.736  12.204
 2877SOL    HW1 9518   0.618   2.826  12.204
 2877SOL    HW2 9519   0.529   2.730  12.281
 2878SOL     OW 9520   1.354   2.720  12.198
 2878SOL    HW1 9521   1.269   2.709  12.155
 2878SOL    HW2 9522   1.396   2.635  12.190
 2879SOL     OW 9523   1.203   2.390  11.438
 2879SOL    HW1 9524   1.210   2.312  11.493
 2879SOL    HW2 9525   1.160   2.454  11.493
 2880SOL     OW 9526   0.310   2.058  12.419
 2880SOL    HW1 9527   0.264   2.095  12.494
 2880SOL    HW2 9528   0.287   1.965  12.419
 2881SOL     OW 9529   0.060   3.167  12.452
 2881SOL    HW1 9530   0.091   3.126  12.533
 2881SOL    HW2 9531   0.052   3.260  12.474
 2882SOL     OW 9532   0.723   2.493  12.228
 2882SOL    HW1 9533   0.799   2.477  12.171
 2882SOL    HW2 9534   0.695   2.582  12.207
 2883SOL     OW 9535   1.737   2.820  13.028
 2883SOL    HW1 9536   1.693   2.756  12.972
 2883SOL    HW2 9537   1.676   2.837  13.100
 2884SOL     OW 9538   0.314   1.924  11.792
 2884SOL    HW1 9539   0.293   2.015  11.813
 2884SOL    HW2 9540   0.321   1.881  11.877
 2885SOL     OW 9541   1.610   2.241  11.538
 2885SOL    HW1 9542   1.619   2.184  11.614
 2885SOL    HW2 9543   1.589   2.327  11.574
 2886SOL     OW 9544   1.029   2.621  12.131
 2886SOL    HW1 9545   1.022   2.638  12.225
 2886SOL    HW2 9546   1.002   2.529  12.122
 2887SOL     OW 9547   0.986   3.430  12.892
 2887SOL    HW1 9548   0.967   3.471  12.808
 2887SOL    HW2 9549   1.027   3.347  12.870
 2888SOL     OW 9550   1.854   3.365  12.776
 2888SOL    HW1 9551   1.873   3.393  12.687
 2888SOL    HW2 9552   1.934   3.383  12.825
 2889SOL     OW 9553   0.353   2.783  12.973
 2889SOL    HW1 9554   0.431   2.804  13.023
 2889SOL    HW2 9555   0.381   2.716  12.911
 2890SOL     OW 9556   1.533   2.129  11.297
 2890SOL    HW1 9557   1.464   2.068  11.326
 2890SOL    HW2 9558   1.562   2.170  11.378
 2891SOL     OW 9559   1.289   2.689  11.202
 2891SOL    HW1 9560   1.330   2.603  11.205
 2891SOL    HW2 9561   1.320   2.727  11.120
 2892SOL     OW 9562   1.067   3.199  12.027
 2892SOL    HW1 9563   1.071   3.127  11.964
 2892SOL    HW2 9564   1.127   3.265  11.992
 2893SOL     OW 9565   0.313   2.664  12.122
 2893SOL    HW1 9566   0.407   2.682  12.116
 2893SOL    HW2 9567   0.308   2.574  12.154
 2894SOL     OW 9568   0.329   2.383  12.186
 2894SOL    HW1 9569   0.295   2.295  12.170
 2894SOL    HW2 9570   0.406   2.390  12.129
 2895SOL     OW 9571   1.134   2.236  12.856
 2895SOL    HW1 9572   1.087   2.291  12.918
 2895SOL    HW2 9573   1.222   2.275  12.852
 2896SOL     OW 9574   1.159   2.063  12.643
 2896SOL    HW1 9575   1.149   2.126  12.714
 2896SOL    HW2 9576   1.202   2.112  12.573
 2897SOL     OW 9577   4.000   3.180  11.354
 2897SOL    HW1 9578   3.905   3.196  11.358
 2897SOL    HW2 9579   0.009   3.086  11.372
 2898SOL     OW 9580   0.076   3.663  12.067
 2898SOL    HW1 9581   0.091   3.568  12.065
 2898SOL    HW2 9582   0.163   3.701  12.065
 2899SOL     OW 9583   0.507   3.425  12.089
 2899SOL    HW1 9584   0.573   3.492  12.109
 2899SOL    HW2 9585   0.549   3.367  12.026
 2900SOL     OW 9586   0.978   2.652  12.397
 2900SOL    HW1 9587   1.036   2.631  12.470
 2900SOL    HW2 9588   0.894   2.614  12.422
 2901SOL     OW 9589   0.038   2.420  12.281
 2901SOL    HW1 9590   0.120   2.397  12.239
 2901SOL    HW2 9591   0.057   2.417  12.375
 2902SOL     OW 9592   0.207   2.375  12.900
 2902SOL    HW1 9593   0.246   2.327  12.827
 2902SOL    HW2 9594   0.160   2.447  12.859
 2903SOL     OW 9595   1.378   2.799  12.829
 2903SOL    HW1 9596   1.400   2.892  12.826
 2903SOL    HW2 9597   1.375   2.772  12.737
 2904SOL     OW 9598   0.818   2.431  11.534
 2904SOL    HW1 9599   0.823   2.356  11.475
 2904SOL    HW2 9600   0.744   2.482  11.501
 2905SOL     OW 9601   1.635   2.465  12.358
 2905SOL    HW1 9602   1.624   2.409  12.435
 2905SOL    HW2 9603   1.721   2.441  12.323
 2906SOL     OW 9604   0.299   3.408  12.898
 2906SOL    HW1 9605   0.250   3.477  12.943
 2906SOL    HW2 9606   0.268   3.327  12.938
 2907SOL     OW 9607   0.707   2.311  12.429
 2907SOL    HW1 9608   0.654   2.237  12.400
 2907SOL    HW2 9609   0.701   2.374  12.357
 2908SOL     OW 9610   0.928   3.533  12.641
 2908SOL    HW1 9611   0.901   3.496  12.557
 2908SOL    HW2 9612   0.920   3.628  12.628
 2909SOL     OW 9613   0.455   2.351  11.367
 2909SOL    HW1 9614   0.520   2.419  11.385
 2909SOL    HW2 9615   0.375   2.400  11.345
 2910SOL     OW 9616   0.156   2.997  12.647
 2910SOL    HW1 9617   0.156   2.946  12.728
 2910SOL    HW2 9618   0.171   2.932  12.578
 2911SOL     OW 9619   1.324   2.907  12.393
 2911SOL    HW1 9620   1.346   2.843  12.325
 2911SOL    HW2 9621   1.256   2.961  12.354
 2912SOL     OW 9622   1.313   2.719  11.477
 2912SOL    HW1 9623   1.239   2.687  11.528
 2912SOL    HW2 9624   1.288   2.705  11.386
 2913SOL     OW 9625   1.772   3.602  12.323
 2913SOL    HW1 9626   1.834   3.630  12.256
 2913SOL    HW2 9627   1.750   3.512  12.299
 2914SOL     OW 9628   1.244   3.595  12.280
 2914SOL    HW1 9629   1.327   3.616  12.238
 2914SOL    HW2 9630   1.251   3.501  12.300
 2915SOL     OW 9631   0.076   3.076  12.200
 2915SOL    HW1 9632   0.083   3.104  12.291
 2915SOL    HW2 9633   3.984   3.087  12.178
 2916SOL     OW 9634   0.679   3.527  12.905
 2916SOL    HW1 9635   0.621   3.603  12.908
 2916SOL    HW2 9636   0.740   3.546  12.833
 2917SOL     OW 9637   1.391   3.431  11.659
 2917SOL    HW1 9638   1.450   3.464  11.592
 2917SOL    HW2 9639   1.342   3.508  11.689
 2918SOL     OW 9640   0.169   3.624  13.005
 2918SOL    HW1 9641   0.114   3.570  13.062
 2918SOL    HW2 9642   0.216   3.683  13.064
 2919SOL     OW 9643   1.277   2.789  11.843
 2919SOL    HW1 9644   1.351   2.728  11.852
 2919SOL    HW2 9645   1.312   2.861  11.790
 2920SOL     OW 9646   0.810   3.136  12.600
 2920SOL    HW1 9647   0.782   3.177  12.682
 2920SOL    HW2 9648   0.739   3.155  12.538
 2921SOL     OW 9649   0.675   3.479  11.330
 2921SOL    HW1 9650   0.683   3.496  11.236
 2921SOL    HW2 9651   0.616   3.404  11.335
 2922SOL     OW 9652   1.622   3.588  12.562
 2922SOL    HW1 9653   1.674   3.593  12.481
 2922SOL    HW2 9654   1.608   3.679  12.587
 2923SOL     OW 9655   0.266   2.175  11.888
 2923SOL    HW1 9656   0.180   2.207  11.862
 2923SOL    HW2 9657   0.261   2.165  11.983
 2924SOL     OW 9658   1.208   3.466  11.208
 2924SOL    HW1 9659   1.197   3.374  11.232
 2924SOL    HW2 9660   1.147   3.479  11.135
 2925SOL     OW 9661   0.823   2.868  12.546
 2925SOL    HW1 9662   0.868   2.862  12.461
 2925SOL    HW2 9663   0.822   2.961  12.566
 2926SOL     OW 9664   0.916   2.772  11.463
 2926SOL    HW1 9665   0.976   2.805  11.396
 2926SOL    HW2 9666   0.965   2.704  11.508
 2927SOL     OW 9667   1.489   3.491  11.215
 2927SOL    HW1 9668   1.395   3.480  11.198
 2927SOL    HW2 9669   1.528   3.496  11.127
 2928SOL     OW 9670   0.374   3.165  12.663
 2928SOL    HW1 9671   0.359   3.245  12.613
 2928SOL    HW2 9672   0.297   3.111  12.646
 2929SOL     OW 9673   1.610   3.146  12.452
 2929SOL    HW1 9674   1.669   3.132  12.526
 2929SOL    HW2 9675   1.549   3.213  12.482
 2930SOL     OW 9676   1.056   2.971  11.880
 2930SOL    HW1 9677   0.984   2.920  11.918
 2930SOL    HW2 9678   1.120   2.905  11.851
 2931SOL     OW 9679   1.023   2.103  12.139
 2931SOL    HW1 9680   1.019   2.056  12.056
 2931SOL    HW2 9681   1.018   2.035  12.206
 2932SOL     OW 9682   0.606   3.352  11.652
 2932SOL    HW1 9683   0.651   3.302  11.585
 2932SOL    HW2 9684   0.534   3.395  11.606
 2933SOL     OW 9685   1.731   2.242  12.546
 2933SOL    HW1 9686   1.799   2.309  12.552
 2933SOL    HW2 9687   1.770   2.172  12.494
 2934SOL     OW 9688   0.253   3.203  11.464
 2934SOL    HW1 9689   0.160   3.211  11.445
 2934SOL    HW2 9690   0.264   3.241  11.551
 2935SOL     OW 9691   0.107   2.859  12.889
 2935SOL    HW1 9692   0.047   2.854  12.963
 2935SOL    HW2 9693   0.193   2.842  12.927
 2936SOL     OW 9694   0.676   2.058  12.672
 2936SOL    HW1 9695   0.759   2.037  12.631
 2936SOL    HW2 9696   0.699   2.090  12.759
 2937SOL     OW 9697   0.081   2.176  11.209
 2937SOL    HW1 9698   3.985   2.176  11.217
 2937SOL    HW2 9699   0.101   2.257  11.162
 2938SOL     OW 9700   1.428   2.720  12.571
 2938SOL    HW1 9701   1.380   2.781  12.515
 2938SOL    HW2 9702   1.518   2.723  12.538
 2939SOL     OW 9703   0.018   2.098  11.549
 2939SOL    HW1 9704   0.045   2.161  11.483
 2939SOL    HW2 9705   0.100   2.058  11.578
 2940SOL     OW 9706   1.178   3.199  11.289
 2940SOL    HW1 9707   1.086   3.170  11.290
 2940SOL    HW2 9708   1.204   3.199  11.381
 2941SOL     OW 9709   0.619   2.692  12.608
 2941SOL    HW1 9710   0.676   2.768  12.593
 2941SOL    HW2 9711   0.680   2.619  12.616
 2942SOL     OW 9712   1.486   3.641  12.153
 2942SOL    HW1 9713   1.508   3.700  12.081
 2942SOL    HW2 9714   1.570   3.619  12.194
 2943SOL     OW 9715   0.716   2.424  12.876
 2943SOL    HW1 9716   0.761   2.486  12.934
 2943SOL    HW2 9717   0.741   2.338  12.908
 2944SOL     OW 9718   1.473   3.060  12.803
 2944SOL    HW1 9719   1.461   3.074  12.897
 2944SOL    HW2 9720   1.566   3.077  12.788
 2945SOL     OW 9721   0.378   3.607  12.731
 2945SOL    HW1 9722   0.290   3.643  12.719
 2945SOL    HW2 9723   0.364   3.525  12.777
 2946SOL     OW 9724   1.669   2.744  12.426
 2946SOL    HW1 9725   1.659   2.658  12.384
 2946SOL    HW2 9726   1.657   2.807  12.355
 2947SOL     OW 9727   1.216   2.182  11.630
 2947SOL    HW1 9728   1.278   2.110  11.622
 2947SOL    HW2 9729   1.245   2.231  11.707
 2948SOL     OW 9730   0.589   2.599  11.844
 2948SOL    HW1 9731   0.628   2.685  11.829
 2948SOL    HW2 9732   0.523   2.590  11.776
 2949SOL     OW 9733   1.754   2.241  12.824
 2949SOL    HW1 9734   1.744   2.244  12.728
 2949SOL    HW2 9735   1.689   2.177  12.852
 2950SOL     OW 9736   1.742   2.798  12.684
 2950SOL    HW1 9737   1.738   2.893  12.695
 2950SOL    HW2 9738   1.729   2.785  12.590
 2951SOL     OW 9739   0.865   3.229  11.211
 2951SOL    HW1 9740   0.823   3.257  11.293
 2951SOL    HW2 9741   0.879   3.310  11.162
 2952SOL     OW 9742   0.659   3.651  12.107
 2952SOL    HW1 9743   0.637   3.742  12.088
 2952SOL    HW2 9744   0.754   3.647  12.105
 2953SOL     OW 9745   0.869   2.830  12.026
 2953SOL    HW1 9746   0.919   2.758  12.064
 2953SOL    HW2 9747   0.832   2.877  12.101
 2954SOL     OW 9748   1.077   2.850  11.260
 2954SOL    HW1 9749   1.056   2.902  11.183
 2954SOL    HW2 9750   1.152   2.797  11.235
 2955SOL     OW 9751   1.851   3.412  12.013
 2955SOL    HW1 9752   1.770   3.402  11.962
 2955SOL    HW2 9753   1.841   3.351  12.086
 2956SOL     OW 9754   0.227   3.166  13.028
 2956SOL    HW1 9755   0.152   3.112  13.002
 2956SOL    HW2 9756   0.215   3.179  13.122
 2957SOL     OW 9757   0.115   3.140  11.894
 2957SOL    HW1 9758   0.134   3.090  11.973
 2957SOL    HW2 9759   0.105   3.074  11.825
 2958SOL     OW 9760   0.682   3.266  12.802
 2958SOL    HW1 9761   0.602   3.225  12.832
 2958SOL    HW2 9762   0.679   3.355  12.839
 2959SOL     OW 9763   0.441   2.296  11.706
 2959SOL    HW1 9764   0.442   2.226  11.640
 2959SOL    HW2 9765   0.385   2.262  11.776
 2960SOL     OW 9766   1.700   3.348  12.263
 2960SOL    HW1 9767   1.619   3.327  12.218
 2960SOL    HW2 9768   1.708   3.280  12.330
 2961SOL     OW 9769   0.335   2.419  12.464
 2961SOL    HW1 9770   0.389   2.362  12.519
 2961SOL    HW2 9771   0.349   2.388  12.375
 2962SOL     OW 9772   0.828   3.441  11.848
 2962SOL    HW1 9773   0.812   3.495  11.771
 2962SOL    HW2 9774   0.754   3.381  11.852
 2963SOL     OW 9775   1.434   2.090  12.293
 2963SOL    HW1 9776   1.441   2.002  12.330
 2963SOL    HW2 9777   1.381   2.139  12.356
 2964SOL     OW 9778   1.009   1.879  12.311
 2964SOL    HW1 9779   0.955   1.812  12.269
 2964SOL    HW2 9780   1.097   1.841  12.313
 2965SOL     OW 9781   0.772   3.194  11.491
 2965SOL    HW1 9782   0.743   3.103  11.497
 2965SOL    HW2 9783   0.855   3.196  11.539
 2966SOL     OW 9784   0.621   3.416  12.458
 2966SOL    HW1 9785   0.621   3.497  12.508
 2966SOL    HW2 9786   0.708   3.410  12.420
 2967SOL     OW 9787   1.352   1.913  11.339
 2967SOL    HW1 9788   1.382   1.849  11.275
 2967SOL    HW2 9789   1.264   1.885  11.363
 2968SOL     OW 9790   1.299   2.324  11.853
 2968SOL    HW1 9791   1.244   2.403  11.857
 2968SOL    HW2 9792   1.292   2.285  11.940
 2969SOL     OW 9793   1.579   2.059  12.050
 2969SOL    HW1 9794   1.535   2.084  12.131
 2969SOL    HW2 9795   1.588   2.141  12.001
 2970SOL     OW 9796   0.047   2.911  11.411
 2970SOL    HW1 9797   0.141   2.895  11.403
 2970SOL    HW2 9798   0.012   2.828  11.442
 2971SOL     OW 9799   0.886   3.521  11.515
 2971SOL    HW1 9800   0.815   3.501  11.454
 2971SOL    HW2 9801   0.855   3.596  11.565
 2972SOL     OW 9802   0.230   2.487  13.153
 2972SOL    HW1 9803   0.136   2.494  13.174
 2972SOL    HW2 9804   0.232   2.455  13.063
 2973SOL     OW 9805   0.285   2.131   0.131
 2973SOL    HW1 9806   0.328   2.199   0.182
 2973SOL    HW2 9807   0.201   2.170   0.105
 2974SOL     OW 9808   0.004   2.222  13.660
 2974SOL    HW1 9809   3.911   2.241  13.662
 2974SOL    HW2 9810   0.021   2.191  13.571
 2975SOL     OW 9811   1.523   3.358  13.727
 2975SOL    HW1 9812   1.468   3.290  13.766
 2975SOL    HW2 9813   1.479   3.381  13.645
 2976SOL     OW 9814   1.130   2.560  13.729
 2976SOL    HW1 9815   1.182   2.638  13.710
 2976SOL    HW2 9816   1.082   2.583  13.809
 2977SOL     OW 9817   1.788   2.462  13.258
 2977SOL    HW1 9818   1.756   2.459  13.168
 2977SOL    HW2 9819   1.741   2.392  13.303
 2978SOL     OW 9820   0.686   2.872  13.671
 2978SOL    HW1 9821   0.740   2.852  13.748
 2978SOL    HW2 9822   0.613   2.924  13.705
 2979SOL     OW 9823   1.611   2.304  13.734
 2979SOL    HW1 9824   1.519   2.318  13.715
 2979SOL    HW2 9825   1.627   2.354  13.814
 2980SOL     OW 9826   0.222   3.571  13.500
 2980SOL    HW1 9827   0.241   3.631  13.572
 2980SOL    HW2 9828   0.299   3.576  13.444
 2981SOL     OW 9829   0.248   3.303  13.571
 2981SOL    HW1 9830   0.222   3.394  13.560
 2981SOL    HW2 9831   0.184   3.266  13.632
 2982SOL     OW 9832   0.256   2.937   0.018
 2982SOL    HW1 9833   0.275   2.897   0.103
 2982SOL    HW2 9834   0.216   3.021   0.039
 2983SOL     OW 9835   0.576   2.848  13.171
 2983SOL    HW1 9836   0.625   2.893  13.101
 2983SOL    HW2 9837   0.618   2.878  13.252
 2984SOL     OW 9838   0.142   2.510  13.615
 2984SOL    HW1 9839   0.068   2.454  13.593
 2984SOL    HW2 9840   0.106   2.576  13.674
 2985SOL     OW 9841   1.845   3.609  13.372
 2985SOL    HW1 9842   1.912   3.587  13.436
 2985SOL    HW2 9843   1.863   3.701  13.349
 2986SOL     OW 9844   0.041   3.454  13.174
 2986SOL    HW1 9845   0.034   3.362  13.199
 2986SOL    HW2 9846   3.962   3.494  13.210
 2987SOL     OW 9847   1.687   2.778  13.668
 2987SOL    HW1 9848   1.772   2.742  13.643
 2987SOL    HW2 9849   1.662   2.835  13.595
 2988SOL     OW 9850   1.648   2.966  13.460
 2988SOL    HW1 9851   1.734   2.968  13.417
 2988SOL    HW2 9852   1.654   3.030  13.530
 2989SOL     OW 9853   0.615   3.247  13.760
 2989SOL    HW1 9854   0.564   3.168  13.778
 2989SOL    HW2 9855   0.584   3.277  13.674
 2990SOL     OW 9856   0.819   1.862  13.545
 2990SOL    HW1 9857   0.858   1.946  13.523
 2990SOL    HW2 9858   0.725   1.880  13.552
 2991SOL     OW 9859   1.531   2.857  13.233
 2991SOL    HW1 9860   1.461   2.800  13.266
 2991SOL    HW2 9861   1.571   2.893  13.313
 2992SOL     OW 9862   1.654   3.599  13.612
 2992SOL    HW1 9863   1.635   3.569  13.523
 2992SOL    HW2 9864   1.644   3.520  13.666
 2993SOL     OW 9865   0.594   2.579  13.298
 2993SOL    HW1 9866   0.600   2.663  13.253
 2993SOL    HW2 9867   0.532   2.594  13.368
 2994SOL     OW 9868   1.251   2.191   0.041
 2994SOL    HW1 9869   1.186   2.132   0.079
 2994SOL    HW2 9870   1.333   2.167   0.083
 2995SOL     OW 9871   1.578   3.540  13.340
 2995SOL    HW1 9872   1.671   3.562  13.335
 2995SOL    HW2 9873   1.553   3.520  13.250
 2996SOL     OW 9874   1.050   2.558  13.458
 2996SOL    HW1 9875   1.065   2.548  13.552
 2996SOL    HW2 9876   0.968   2.512  13.442
 2997SOL     OW 9877   0.082   2.704  13.806
 2997SOL    HW1 9878   0.163   2.687  13.855
 2997SOL    HW2 9879   0.075   2.799  13.802
 2998SOL     OW 9880   0.895   2.211  13.226
 2998SOL    HW1 9881   0.935   2.274  13.166
 2998SOL    HW2 9882   0.915   2.126  13.188
 2999SOL     OW 9883   1.364   2.997  13.553
 2999SOL    HW1 9884   1.454   2.997  13.518
 2999SOL    HW2 9885   1.321   3.068  13.505
 3000SOL     OW 9886   1.000   3.303  13.502
 3000SOL    HW1 9887   0.967   3.379  13.455
 3000SOL    HW2 9888   0.969   3.316  13.592
 3001SOL     OW 9889   0.414   3.678  13.806
 3001SOL    HW1 9890   0.423   3.587  13.832
 3001SOL    HW2 9891   0.459   3.727  13.876
 3002SOL     OW 9892   1.791   2.911  13.898
 3002SOL    HW1 9893   1.734   2.900  13.821
 3002SOL    HW2 9894   1.731   2.907   0.072
 3003SOL     OW 9895   0.311   2.816  13.277
 3003SOL    HW1 9896   0.394   2.839  13.235
 3003SOL    HW2 9897   0.298   2.724  13.254
 3004SOL     OW 9898   1.490   2.594  13.744
 3004SOL    HW1 9899   1.483   2.549  13.828
 3004SOL    HW2 9900   1.564   2.654  13.754
 3005SOL     OW 9901   1.113   3.644  13.254
 3005SOL    HW1 9902   1.049   3.598  13.310
 3005SOL    HW2 9903   1.144   3.577  13.193
 3006SOL     OW 9904   1.628   3.243  13.124
 3006SOL    HW1 9905   1.587   3.328  13.106
 3006SOL    HW2 9906   1.559   3.179  13.104
 3007SOL     OW 9907   0.466   3.600  13.353
 3007SOL    HW1 9908   0.505   3.661  13.416
 3007SOL    HW2 9909   0.540   3.572  13.299
 3008SOL     OW 9910   1.401   1.973  13.465
 3008SOL    HW1 9911   1.385   1.949  13.374
 3008SOL    HW2 9912   1.486   1.934  13.485
 3009SOL     OW 9913   0.929   3.547   0.010
 3009SOL    HW1 9914   0.946   3.478   0.075
 3009SOL    HW2 9915   0.887   3.501  13.838
 3010SOL     OW 9916   0.396   2.557  13.504
 3010SOL    HW1 9917   0.424   2.467  13.516
 3010SOL    HW2 9918   0.305   2.559  13.534
 3011SOL     OW 9919   0.642   1.980  13.131
 3011SOL    HW1 9920   0.704   1.910  13.151
 3011SOL    HW2 9921   0.593   1.948  13.056
 3012SOL     OW 9922   0.554   1.924  13.530
 3012SOL    HW1 9923   0.470   1.928  13.576
 3012SOL    HW2 9924   0.558   2.007  13.481
 3013SOL     OW 9925   1.428   3.061  13.075
 3013SOL    HW1 9926   1.458   2.985  13.125
 3013SOL    HW2 9927   1.342   3.082  13.111
 3014SOL     OW 9928   0.308   1.912  13.202
 3014SOL    HW1 9929   0.373   1.950  13.142
 3014SOL    HW2 9930   0.358   1.848  13.253
 3015SOL     OW 9931   0.940   2.106  13.493
 3015SOL    HW1 9932   0.910   2.149  13.413
 3015SOL    HW2 9933   1.034   2.125  13.496
 3016SOL     OW 9934   0.470   3.006  13.766
 3016SOL    HW1 9935   0.398   2.983  13.825
 3016SOL    HW2 9936   0.433   2.995  13.679
 3017SOL     OW 9937   1.268   3.659  13.630
 3017SOL    HW1 9938   1.313   3.726  13.579
 3017SOL    HW2 9939   1.199   3.706  13.677
 3018SOL     OW 9940   1.023   2.401  13.058
 3018SOL    HW1 9941   0.981   2.484  13.039
 3018SOL    HW2 9942   1.089   2.422  13.125
 3019SOL     OW 9943   0.894   2.332  13.673
 3019SOL    HW1 9944   0.827   2.379  13.623
 3019SOL    HW2 9945   0.901   2.247  13.629
 3020SOL     OW 9946   1.025   1.898  13.775
 3020SOL    HW1 9947   0.967   1.909  13.701
 3020SOL    HW2 9948   0.993   1.819  13.819
 3021SOL     OW 9949   1.848   2.674  13.419
 3021SOL    HW1 9950   1.906   2.624  13.475
 3021SOL    HW2 9951   1.822   2.612  13.350
 3022SOL     OW 9952   0.488   3.281  13.193
 3022SOL    HW1 9953   0.412   3.251  13.243
 3022SOL    HW2 9954   0.471   3.252  13.104
 3023SOL     OW 9955   1.683   3.133  13.662
 3023SOL    HW1 9956   1.776   3.133  13.687
 3023SOL    HW2 9957   1.648   3.214  13.701
 3024SOL     OW 9958   1.393   2.435  13.104
 3024SOL    HW1 9959   1.334   2.415  13.176
 3024SOL    HW2 9960   1.479   2.407  13.135
 3025SOL     OW 9961   0.572   2.130  13.351
 3025SOL    HW1 9962   0.604   2.082  13.275
 3025SOL    HW2 9963   0.543   2.214  13.316
 3026SOL     OW 9964   0.708   2.924  13.400
 3026SOL    HW1 9965   0.694   2.909  13.493
 3026SOL    HW2 9966   0.784   2.871  13.378
 3027SOL     OW 9967   0.371   2.965  13.515
 3027SOL    HW1 9968   0.366   3.046  13.465
 3027SOL    HW2 9969   0.370   2.896  13.449
 3028SOL     OW 9970   0.568   2.406  13.870
 3028SOL    HW1 9971   0.577   2.469  13.799
 3028SOL    HW2 9972   0.632   2.433   0.035
 3029SOL     OW 9973   1.245   3.214  13.418
 3029SOL    HW1 9974   1.300   3.288  13.446
 3029SOL    HW2 9975   1.159   3.234  13.454
 3030SOL     OW 9976   1.577   2.495  13.492
 3030SOL    HW1 9977   1.537   2.527  13.573
 3030SOL    HW2 9978   1.622   2.572  13.456
 3031SOL     OW 9979   1.202   2.390  13.298
 3031SOL    HW1 9980   1.210   2.312  13.353
 3031SOL    HW2 9981   1.159   2.454  13.354
 3032SOL     OW 9982   0.303   1.921  13.641
 3032SOL    HW1 9983   0.291   2.012  13.669
 3032SOL    HW2 9984   0.321   1.874  13.722
 3033SOL     OW 9985   1.614   2.243  13.405
 3033SOL    HW1 9986   1.605   2.188  13.483
 3033SOL    HW2 9987   1.592   2.331  13.435
 3034SOL     OW 9988   1.530   2.132  13.163
 3034SOL    HW1 9989   1.463   2.069  13.190
 3034SOL    HW2 9990   1.561   2.170  13.245
 3035SOL     OW 9991   1.288   2.687  13.062
 3035SOL    HW1 9992   1.332   2.602  13.066
 3035SOL    HW2 9993   1.320   2.727  12.981
 3036SOL     OW 9994   4.000   3.180  13.215
 3036SOL    HW1 9995   3.905   3.196  13.219
 3036SOL    HW2 9996   0.009   3.086  13.232
 3037SOL     OW 9997   0.818   2.433  13.388
 3037SOL    HW1 9998   0.821   2.356  13.332
 3037SOL    HW2 9999   0.742   2.483  13.357
 3038SOL     OW10000   0.454   2.351  13.227
 3038SOL    HW110001   0.519   2.418  13.246
 3038SOL    HW210002   0.374   2.400  13.207
 3039SOL     OW10003   1.314   2.716  13.337
 3039SOL    HW110004   1.239   2.688  13.389
 3039SOL    HW210005   1.288   2.703  13.246
 3040SOL     OW10006   1.383   3.437  13.507
 3040SOL    HW110007   1.443   3.474  13.443
 3040SOL    HW210008   1.337   3.512  13.545
 3041SOL     OW10009   1.289   2.776  13.685
 3041SOL    HW110010   1.365   2.719  13.672
 3041SOL    HW210011   1.312   2.858  13.643
 3042SOL     OW10012   0.674   3.480  13.191
 3042SOL    HW110013   0.683   3.496  13.097
 3042SOL    HW210014   0.616   3.404  13.197
 3043SOL     OW10015   0.282   2.172  13.738
 3043SOL    HW110016   0.199   2.216  13.722
 3043SOL    HW210017   0.291   2.171  13.833
 3044SOL     OW10018   1.208   3.466  13.070
 3044SOL    HW110019   1.197   3.374  13.093
 3044SOL    HW210020   1.147   3.479  12.997
 3045SOL     OW10021   0.918   2.774  13.328
 3045SOL    HW110022   0.977   2.805  13.260
 3045SOL    HW210023   0.965   2.702  13.370
 3046SOL     OW10024   1.489   3.491  13.076
 3046SOL    HW110025   1.396   3.480  13.060
 3046SOL    HW210026   1.528   3.496  12.989
 3047SOL     OW10027   1.050   2.953  13.755
 3047SOL    HW110028   0.964   2.914  13.741
 3047SOL    HW210029   1.105   2.913  13.688
 3048SOL     OW10030   0.602   3.356  13.505
 3048SOL    HW110031   0.647   3.304  13.438
 3048SOL    HW210032   0.530   3.398  13.457
 3049SOL     OW10033   0.252   3.202  13.324
 3049SOL    HW110034   0.159   3.210  13.305
 3049SOL    HW210035   0.263   3.240  13.411
 3050SOL     OW10036   0.080   2.175  13.071
 3050SOL    HW110037   3.985   2.175  13.079
 3050SOL    HW210038   0.101   2.256  13.025
 3051SOL     OW10039   0.019   2.103  13.411
 3051SOL    HW110040   0.047   2.162  13.341
 3051SOL    HW210041   0.098   2.055  13.435
 3052SOL     OW10042   1.177   3.199  13.149
 3052SOL    HW110043   1.086   3.170  13.151
 3052SOL    HW210044   1.204   3.200  13.241
 3053SOL     OW10045   1.216   2.182  13.490
 3053SOL    HW110046   1.279   2.110  13.482
 3053SOL    HW210047   1.245   2.231  13.567
 3054SOL     OW10048   0.593   2.611  13.691
 3054SOL    HW110049   0.627   2.698  13.674
 3054SOL    HW210050   0.523   2.599  13.627
 3055SOL     OW10051   0.865   3.228  13.072
 3055SOL    HW110052   0.824   3.255  13.154
 3055SOL    HW210053   0.879   3.310  13.024
 3056SOL     OW10054   0.657   3.713   0.070
 3056SOL    HW110055   0.654   3.806   0.090
 3056SOL    HW210056   0.749   3.688   0.079
 3057SOL     OW10057   0.827   2.826  13.897
 3057SOL    HW110058   0.857   2.743   0.034
 3057SOL    HW210059   0.856   2.893   0.059
 3058SOL     OW10060   1.076   2.848  13.122
 3058SOL    HW110061   1.056   2.901  13.045
 3058SOL    HW210062   1.151   2.795  13.096
 3059SOL     OW10063   0.115   3.136  13.759
 3059SOL    HW110064   0.051   3.095  13.817
 3059SOL    HW210065   0.121   3.077  13.684
 3060SOL     OW10066   0.446   2.300  13.556
 3060SOL    HW110067   0.453   2.227  13.495
 3060SOL    HW210068   0.402   2.264  13.633
 3061SOL     OW10069   1.680   3.320   0.346
 3061SOL    HW110070   1.650   3.299   0.257
 3061SOL    HW210071   1.769   3.285   0.350
 3062SOL     OW10072   0.820   3.414  13.705
 3062SOL    HW110073   0.790   3.464  13.629
 3062SOL    HW210074   0.746   3.356  13.725
 3063SOL     OW10075   0.773   3.195  13.348
 3063SOL    HW110076   0.743   3.104  13.356
 3063SOL    HW210077   0.854   3.198  13.399
 3064SOL     OW10078   1.352   1.913  13.201
 3064SOL    HW110079   1.381   1.851  13.135
 3064SOL    HW210080   1.264   1.884  13.225
 3065SOL     OW10081   1.305   2.323  13.710
 3065SOL    HW110082   1.251   2.402  13.715
 3065SOL    HW210083   1.286   2.277  13.792
 3066SOL     OW10084   0.047   2.911  13.269
 3066SOL    HW110085   0.141   2.895  13.262
 3066SOL    HW210086   0.011   2.829  13.303
 3067SOL     OW10087   0.887   3.520  13.376
 3067SOL    HW110088   0.814   3.502  13.317
 3067SOL    HW210089   0.856   3.594  13.430
 3068SOL     OW10090   0.233   3.945   0.965
 3068SOL    HW110091   0.253   3.959   1.058
 3068SOL    HW210092   0.140   3.965   0.958
 3069SOL     OW10093   0.017   0.099   0.633
 3069SOL    HW110094   3.928   0.083   0.665
 3069SOL    HW210095   0.021   0.054   0.549
 3070SOL     OW10096   1.808   0.356   0.273
 3070SOL    HW110097   1.785   0.311   0.191
 3070SOL    HW210098   1.726   0.360   0.321
 3071SOL     OW10099   0.440   0.097   1.510
 3071SOL    HW110100   0.511   0.059   1.459
 3071SOL    HW210101   0.363   0.046   1.486
 3072SOL     OW10102   1.596   3.849   1.461
 3072SOL    HW110103   1.603   3.934   1.418
 3072SOL    HW210104   1.579   3.870   1.553
 3073SOL     OW10105   0.806   3.727   0.507
 3073SOL    HW110106   0.834   3.818   0.497
 3073SOL    HW210107   0.711   3.732   0.517
 3074SOL     OW10108   1.268   0.062   0.936
 3074SOL    HW110109   1.195   0.008   0.905
 3074SOL    HW210110   1.323   0.002   0.985
 3075SOL     OW10111   0.555   3.904   0.891
 3075SOL    HW110112   0.551   3.926   0.984
 3075SOL    HW210113   0.549   3.989   0.846
 3076SOL     OW10114   0.191   3.979   1.498
 3076SOL    HW110115   0.102   0.014   1.501
 3076SOL    HW210116   0.187   3.897   1.547
 3077SOL     OW10117   1.409   3.838   0.430
 3077SOL    HW110118   1.404   3.795   0.345
 3077SOL    HW210119   1.501   3.828   0.456
 3078SOL     OW10120   1.533   3.939   1.722
 3078SOL    HW110121   1.559   3.942   1.814
 3078SOL    HW210122   1.465   3.872   1.718
 3079SOL     OW10123   0.772   3.956   1.743
 3079SOL    HW110124   0.828   3.928   1.815
 3079SOL    HW210125   0.687   3.972   1.784
 3080SOL     OW10126   0.535   3.783   0.515
 3080SOL    HW110127   0.481   3.782   0.594
 3080SOL    HW210128   0.546   3.876   0.494
 3081SOL     OW10129   0.265   3.736   0.182
 3081SOL    HW110130   0.299   3.825   0.172
 3081SOL    HW210131   0.337   3.688   0.225
 3082SOL     OW10132   0.563   3.944   1.167
 3082SOL    HW110133   0.604   3.873   1.216
 3082SOL    HW210134   0.471   3.942   1.195
 3083SOL     OW10135   1.020   3.767   0.734
 3083SOL    HW110136   0.955   3.756   0.666
 3083SOL    HW210137   0.997   3.702   0.801
 3084SOL     OW10138   0.924   3.802   1.398
 3084SOL    HW110139   0.952   3.782   1.309
 3084SOL    HW210140   0.997   3.851   1.436
 3085SOL     OW10141   1.267   0.074   1.265
 3085SOL    HW110142   1.280   0.143   1.331
 3085SOL    HW210143   1.199   0.109   1.207
 3086SOL     OW10144   0.507   3.751   1.756
 3086SOL    HW110145   0.453   3.705   1.691
 3086SOL    HW210146   0.477   3.841   1.753
 3087SOL     OW10147   0.304   3.924   1.255
 3087SOL    HW110148   0.257   3.941   1.337
 3087SOL    HW210149   0.289   3.831   1.238
 3088SOL     OW10150   1.597   3.937   0.156
 3088SOL    HW110151   1.517   3.885   0.158
 3088SOL    HW210152   1.569   0.024   0.186
 3089SOL     OW10153   1.164   3.922   1.473
 3089SOL    HW110154   1.168   3.996   1.533
 3089SOL    HW210155   1.206   3.953   1.393
 3090SOL     OW10156   0.922   3.825   0.150
 3090SOL    HW110157   0.951   3.816   0.059
 3090SOL    HW210158   0.981   3.769   0.200
 3091SOL     OW10159   1.708   3.858   0.512
 3091SOL    HW110160   1.786   3.847   0.458
 3091SOL    HW210161   1.697   3.773   0.556
 3092SOL     OW10162   1.836   3.880   0.971
 3092SOL    HW110163   1.871   3.797   0.938
 3092SOL    HW210164   1.755   3.894   0.921
 3093SOL     OW10165   0.677   3.909   1.490
 3093SOL    HW110166   0.760   3.901   1.442
 3093SOL    HW210167   0.702   3.931   1.579
 3094SOL     OW10168   0.044   0.015   0.041
 3094SOL    HW110169   3.956   0.019   0.004
 3094SOL    HW210170   0.087   0.095   0.009
 3095SOL     OW10171   0.124   3.932   0.375
 3095SOL    HW110172   0.073   3.975   0.307
 3095SOL    HW210173   0.166   3.858   0.331
 3096SOL     OW10174   1.193   0.011   0.464
 3096SOL    HW110175   1.256   3.939   0.467
 3096SOL    HW210176   1.212   0.064   0.541
 3097SOL     OW10177   1.786   0.041   1.640
 3097SOL    HW110178   1.759   0.075   1.555
 3097SOL    HW210179   1.706   0.003   1.677
 3098SOL     OW10180   1.816   3.913   1.239
 3098SOL    HW110181   1.822   3.822   1.268
 3098SOL    HW210182   1.822   3.907   1.143
 3099SOL     OW10183   1.439   3.932   1.117
 3099SOL    HW110184   1.472   3.854   1.161
 3099SOL    HW210185   1.380   3.974   1.180
 3100SOL     OW10186   1.016   3.736   1.148
 3100SOL    HW110187   0.958   3.681   1.094
 3100SOL    HW210188   1.101   3.693   1.143
 3101SOL     OW10189   1.352   3.783   0.151
 3101SOL    HW110190   1.391   3.711   0.100
 3101SOL    HW210191   1.269   3.748   0.183
 3102SOL     OW10192   1.283   0.163   0.679
 3102SOL    HW110193   1.280   0.258   0.688
 3102SOL    HW210194   1.288   0.131   0.770
 3103SOL     OW10195   1.580   3.927   0.880
 3103SOL    HW110196   1.530   3.932   0.961
 3103SOL    HW210197   1.581   0.016   0.846
 3104SOL     OW10198   0.234   3.946   2.825
 3104SOL    HW110199   0.255   3.959   2.918
 3104SOL    HW210200   0.140   3.964   2.819
 3105SOL     OW10201   0.010   0.105   2.487
 3105SOL    HW110202   3.926   0.089   2.529
 3105SOL    HW210203   0.012   0.046   2.411
 3106SOL     OW10204   1.777   0.319   2.052
 3106SOL    HW110205   1.704   0.296   1.995
 3106SOL    HW210206   1.736   0.337   2.137
 3107SOL     OW10207   0.440   0.097   3.372
 3107SOL    HW110208   0.511   0.058   3.321
 3107SOL    HW210209   0.363   0.046   3.349
 3108SOL     OW10210   1.596   3.849   3.323
 3108SOL    HW110211   1.603   3.934   3.281
 3108SOL    HW210212   1.579   3.869   3.415
 3109SOL     OW10213   0.806   3.729   2.367
 3109SOL    HW110214   0.832   3.821   2.361
 3109SOL    HW210215   0.710   3.732   2.377
 3110SOL     OW10216   1.267   0.062   2.801
 3110SOL    HW110217   1.196   0.008   2.768
 3110SOL    HW210218   1.323   0.002   2.849
 3111SOL     OW10219   0.554   3.905   2.753
 3111SOL    HW110220   0.552   3.925   2.846
 3111SOL    HW210221   0.550   3.990   2.710
 3112SOL     OW10222   0.192   3.979   3.360
 3112SOL    HW110223   0.103   0.014   3.363
 3112SOL    HW210224   0.187   3.897   3.409
 3113SOL     OW10225   1.407   3.832   2.294
 3113SOL    HW110226   1.398   3.799   2.204
 3113SOL    HW210227   1.501   3.825   2.313
 3114SOL     OW10228   1.533   3.939   3.583
 3114SOL    HW110229   1.559   3.942   3.676
 3114SOL    HW210230   1.465   3.872   3.580
 3115SOL     OW10231   0.627   3.850   1.988
 3115SOL    HW110232   0.718   3.820   1.989
 3115SOL    HW210233   0.587   3.801   1.916
 3116SOL     OW10234   0.772   3.955   3.605
 3116SOL    HW110235   0.829   3.928   3.677
 3116SOL    HW210236   0.687   3.972   3.646
 3117SOL     OW10237   0.534   3.785   2.376
 3117SOL    HW110238   0.483   3.786   2.456
 3117SOL    HW210239   0.543   3.878   2.352
 3118SOL     OW10240   0.287   3.759   2.039
 3118SOL    HW110241   0.330   3.844   2.029
 3118SOL    HW210242   0.353   3.703   2.081
 3119SOL     OW10243   0.563   3.943   3.029
 3119SOL    HW110244   0.605   3.873   3.079
 3119SOL    HW210245   0.471   3.942   3.057
 3120SOL     OW10246   1.020   3.767   2.597
 3120SOL    HW110247   0.955   3.755   2.528
 3120SOL    HW210248   0.997   3.702   2.664
 3121SOL     OW10249   0.924   3.802   3.260
 3121SOL    HW110250   0.952   3.782   3.171
 3121SOL    HW210251   0.997   3.851   3.298
 3122SOL     OW10252   1.267   0.074   3.127
 3122SOL    HW110253   1.280   0.143   3.193
 3122SOL    HW210254   1.200   0.109   3.069
 3123SOL     OW10255   0.507   3.751   3.618
 3123SOL    HW110256   0.453   3.705   3.553
 3123SOL    HW210257   0.477   3.841   3.615
 3124SOL     OW10258   0.304   3.924   3.117
 3124SOL    HW110259   0.258   3.942   3.199
 3124SOL    HW210260   0.288   3.831   3.100
 3125SOL     OW10261   1.577   3.953   1.982
 3125SOL    HW110262   1.517   3.898   2.031
 3125SOL    HW210263   1.607   0.019   2.045
 3126SOL     OW10264   1.164   3.922   3.335
 3126SOL    HW110265   1.168   3.996   3.395
 3126SOL    HW210266   1.205   3.953   3.255
 3127SOL     OW10267   0.900   3.812   1.965
 3127SOL    HW110268   0.960   3.771   1.902
 3127SOL    HW210269   0.941   3.796   2.050
 3128SOL     OW10270   1.710   3.856   2.360
 3128SOL    HW110271   1.788   3.843   2.306
 3128SOL    HW210272   1.699   3.774   2.408
 3129SOL     OW10273   1.836   3.880   2.834
 3129SOL    HW110274   1.871   3.798   2.801
 3129SOL    HW210275   1.756   3.894   2.784
 3130SOL     OW10276   0.677   3.909   3.351
 3130SOL    HW110277   0.760   3.901   3.305
 3130SOL    HW210278   0.702   3.931   3.441
 3131SOL     OW10279   0.071   0.026   1.847
 3131SOL    HW110280   3.977   0.026   1.864
 3131SOL    HW210281   0.100   0.113   1.875
 3132SOL     OW10282   0.106   3.916   2.231
 3132SOL    HW110283   0.081   3.999   2.191
 3132SOL    HW210284   0.186   3.890   2.185
 3133SOL     OW10285   1.193   0.011   2.328
 3133SOL    HW110286   1.262   3.944   2.327
 3133SOL    HW210287   1.214   0.065   2.404
 3134SOL     OW10288   1.786   0.041   3.502
 3134SOL    HW110289   1.759   0.075   3.417
 3134SOL    HW210290   1.706   0.003   3.539
 3135SOL     OW10291   1.816   3.913   3.101
 3135SOL    HW110292   1.822   3.822   3.130
 3135SOL    HW210293   1.822   3.907   3.006
 3136SOL     OW10294   1.439   3.932   2.979
 3136SOL    HW110295   1.472   3.854   3.025
 3136SOL    HW210296   1.381   3.974   3.042
 3137SOL     OW10297   1.016   3.736   3.010
 3137SOL    HW110298   0.958   3.681   2.957
 3137SOL    HW210299   1.101   3.693   3.005
 3138SOL     OW10300   1.353   3.770   2.024
 3138SOL    HW110301   1.386   3.702   1.966
 3138SOL    HW210302   1.266   3.741   2.049
 3139SOL     OW10303   1.281   0.162   2.544
 3139SOL    HW110304   1.282   0.258   2.550
 3139SOL    HW210305   1.286   0.133   2.635
 3140SOL     OW10306   1.580   3.927   2.742
 3140SOL    HW110307   1.530   3.932   2.823
 3140SOL    HW210308   1.581   0.016   2.708
 3141SOL     OW10309   0.234   3.946   4.687
 3141SOL    HW110310   0.255   3.959   4.780
 3141SOL    HW210311   0.140   3.964   4.681
 3142SOL     OW10312   0.010   0.105   4.349
 3142SOL    HW110313   3.926   0.089   4.391
 3142SOL    HW210314   0.012   0.046   4.273
 3143SOL     OW10315   1.777   0.319   3.914
 3143SOL    HW110316   1.704   0.296   3.856
 3143SOL    HW210317   1.736   0.337   3.999
 3144SOL     OW10318   0.440   0.097   5.234
 3144SOL    HW110319   0.511   0.059   5.183
 3144SOL    HW210320   0.363   0.046   5.210
 3145SOL     OW10321   1.596   3.849   5.185
 3145SOL    HW110322   1.603   3.934   5.142
 3145SOL    HW210323   1.579   3.870   5.277
 3146SOL     OW10324   0.806   3.729   4.229
 3146SOL    HW110325   0.832   3.821   4.223
 3146SOL    HW210326   0.710   3.732   4.239
 3147SOL     OW10327   1.267   0.062   4.663
 3147SOL    HW110328   1.196   0.008   4.629
 3147SOL    HW210329   1.323   0.002   4.710
 3148SOL     OW10330   0.554   3.905   4.615
 3148SOL    HW110331   0.552   3.925   4.708
 3148SOL    HW210332   0.550   3.990   4.572
 3149SOL     OW10333   0.191   3.979   5.222
 3149SOL    HW110334   0.102   0.014   5.225
 3149SOL    HW210335   0.187   3.897   5.271
 3150SOL     OW10336   1.407   3.832   4.156
 3150SOL    HW110337   1.398   3.799   4.066
 3150SOL    HW210338   1.501   3.825   4.175
 3151SOL     OW10339   1.533   3.939   5.445
 3151SOL    HW110340   1.559   3.942   5.537
 3151SOL    HW210341   1.465   3.872   5.442
 3152SOL     OW10342   0.627   3.850   3.850
 3152SOL    HW110343   0.718   3.820   3.851
 3152SOL    HW210344   0.587   3.801   3.778
 3153SOL     OW10345   0.772   3.956   5.467
 3153SOL    HW110346   0.828   3.929   5.539
 3153SOL    HW210347   0.687   3.972   5.508
 3154SOL     OW10348   0.534   3.785   4.238
 3154SOL    HW110349   0.483   3.786   4.318
 3154SOL    HW210350   0.543   3.878   4.214
 3155SOL     OW10351   0.287   3.759   3.901
 3155SOL    HW110352   0.330   3.844   3.891
 3155SOL    HW210353   0.353   3.703   3.943
 3156SOL     OW10354   0.563   3.944   4.891
 3156SOL    HW110355   0.604   3.873   4.941
 3156SOL    HW210356   0.471   3.942   4.919
 3157SOL     OW10357   1.020   3.767   4.459
 3157SOL    HW110358   0.955   3.755   4.390
 3157SOL    HW210359   0.997   3.702   4.526
 3158SOL     OW10360   0.924   3.802   5.122
 3158SOL    HW110361   0.952   3.782   5.033
 3158SOL    HW210362   0.997   3.851   5.160
 3159SOL     OW10363   1.267   0.074   4.989
 3159SOL    HW110364   1.280   0.143   5.055
 3159SOL    HW210365   1.200   0.109   4.931
 3160SOL     OW10366   0.507   3.751   5.480
 3160SOL    HW110367   0.453   3.705   5.415
 3160SOL    HW210368   0.477   3.841   5.477
 3161SOL     OW10369   0.304   3.924   4.979
 3161SOL    HW110370   0.257   3.942   5.061
 3161SOL    HW210371   0.289   3.831   4.962
 3162SOL     OW10372   1.577   3.953   3.843
 3162SOL    HW110373   1.517   3.898   3.893
 3162SOL    HW210374   1.607   0.019   3.907
 3163SOL     OW10375   1.164   3.922   5.198
 3163SOL    HW110376   1.167   3.997   5.257
 3163SOL    HW210377   1.206   3.953   5.117
 3164SOL     OW10378   0.900   3.812   3.827
 3164SOL    HW110379   0.960   3.771   3.764
 3164SOL    HW210380   0.941   3.796   3.912
 3165SOL     OW10381   1.710   3.856   4.222
 3165SOL    HW110382   1.788   3.843   4.168
 3165SOL    HW210383   1.699   3.774   4.270
 3166SOL     OW10384   1.836   3.880   4.696
 3166SOL    HW110385   1.871   3.798   4.663
 3166SOL    HW210386   1.756   3.894   4.646
 3167SOL     OW10387   0.677   3.909   5.214
 3167SOL    HW110388   0.760   3.901   5.166
 3167SOL    HW210389   0.702   3.931   5.303
 3168SOL     OW10390   0.071   0.026   3.709
 3168SOL    HW110391   3.977   0.026   3.725
 3168SOL    HW210392   0.100   0.113   3.736
 3169SOL     OW10393   0.106   3.916   4.093
 3169SOL    HW110394   0.081   3.999   4.053
 3169SOL    HW210395   0.186   3.890   4.047
 3170SOL     OW10396   1.193   0.011   4.190
 3170SOL    HW110397   1.262   3.944   4.189
 3170SOL    HW210398   1.214   0.065   4.266
 3171SOL     OW10399   1.786   0.041   5.364
 3171SOL    HW110400   1.760   0.075   5.279
 3171SOL    HW210401   1.706   0.003   5.400
 3172SOL     OW10402   1.816   3.913   4.963
 3172SOL    HW110403   1.822   3.822   4.992
 3172SOL    HW210404   1.822   3.907   4.868
 3173SOL     OW10405   1.439   3.932   4.841
 3173SOL    HW110406   1.472   3.854   4.887
 3173SOL    HW210407   1.381   3.974   4.904
 3174SOL     OW10408   1.016   3.736   4.872
 3174SOL    HW110409   0.958   3.681   4.819
 3174SOL    HW210410   1.101   3.693   4.867
 3175SOL     OW10411   1.353   3.770   3.886
 3175SOL    HW110412   1.386   3.702   3.828
 3175SOL    HW210413   1.266   3.741   3.911
 3176SOL     OW10414   1.281   0.162   4.407
 3176SOL    HW110415   1.282   0.258   4.412
 3176SOL    HW210416   1.286   0.133   4.498
 3177SOL     OW10417   1.580   3.927   4.604
 3177SOL    HW110418   1.530   3.932   4.685
 3177SOL    HW210419   1.581   0.016   4.570
 3178SOL     OW10420   0.234   3.946   6.549
 3178SOL    HW110421   0.255   3.959   6.642
 3178SOL    HW210422   0.140   3.964   6.543
 3179SOL     OW10423   0.011   0.105   6.211
 3179SOL    HW110424   3.926   0.089   6.253
 3179SOL    HW210425   0.012   0.046   6.135
 3180SOL     OW10426   1.776   0.319   5.776
 3180SOL    HW110427   1.704   0.296   5.719
 3180SOL    HW210428   1.735   0.336   5.861
 3181SOL     OW10429   0.440   0.097   7.096
 3181SOL    HW110430   0.511   0.059   7.044
 3181SOL    HW210431   0.363   0.046   7.072
 3182SOL     OW10432   1.596   3.849   7.047
 3182SOL    HW110433   1.603   3.934   7.004
 3182SOL    HW210434   1.579   3.870   7.139
 3183SOL     OW10435   0.806   3.729   6.092
 3183SOL    HW110436   0.832   3.820   6.085
 3183SOL    HW210437   0.710   3.732   6.101
 3184SOL     OW10438   1.267   0.062   6.525
 3184SOL    HW110439   1.195   0.008   6.491
 3184SOL    HW210440   1.323   0.001   6.572
 3185SOL     OW10441   0.555   3.905   6.477
 3185SOL    HW110442   0.552   3.925   6.570
 3185SOL    HW210443   0.550   3.990   6.434
 3186SOL     OW10444   0.192   3.979   7.084
 3186SOL    HW110445   0.103   0.014   7.087
 3186SOL    HW210446   0.186   3.897   7.133
 3187SOL     OW10447   1.407   3.831   6.018
 3187SOL    HW110448   1.398   3.799   5.929
 3187SOL    HW210449   1.500   3.825   6.037
 3188SOL     OW10450   1.533   3.939   7.308
 3188SOL    HW110451   1.559   3.941   7.400
 3188SOL    HW210452   1.464   3.872   7.304
 3189SOL     OW10453   0.627   3.850   5.712
 3189SOL    HW110454   0.718   3.820   5.713
 3189SOL    HW210455   0.587   3.801   5.640
 3190SOL     OW10456   0.772   3.956   7.329
 3190SOL    HW110457   0.828   3.928   7.401
 3190SOL    HW210458   0.687   3.972   7.370
 3191SOL     OW10459   0.535   3.785   6.100
 3191SOL    HW110460   0.482   3.786   6.180
 3191SOL    HW210461   0.544   3.878   6.076
 3192SOL     OW10462   0.287   3.759   5.763
 3192SOL    HW110463   0.329   3.844   5.753
 3192SOL    HW210464   0.353   3.703   5.805
 3193SOL     OW10465   0.563   3.943   6.753
 3193SOL    HW110466   0.604   3.873   6.803
 3193SOL    HW210467   0.471   3.942   6.781
 3194SOL     OW10468   1.021   3.767   6.321
 3194SOL    HW110469   0.955   3.755   6.251
 3194SOL    HW210470   0.996   3.702   6.387
 3195SOL     OW10471   0.924   3.802   6.984
 3195SOL    HW110472   0.953   3.782   6.895
 3195SOL    HW210473   0.997   3.852   7.022
 3196SOL     OW10474   1.267   0.074   6.851
 3196SOL    HW110475   1.280   0.143   6.917
 3196SOL    HW210476   1.200   0.109   6.792
 3197SOL     OW10477   0.507   3.751   7.342
 3197SOL    HW110478   0.453   3.705   7.277
 3197SOL    HW210479   0.477   3.841   7.339
 3198SOL     OW10480   0.304   3.924   6.841
 3198SOL    HW110481   0.257   3.941   6.923
 3198SOL    HW210482   0.289   3.831   6.824
 3199SOL     OW10483   1.576   3.953   5.705
 3199SOL    HW110484   1.517   3.898   5.755
 3199SOL    HW210485   1.608   0.018   5.769
 3200SOL     OW10486   1.164   3.922   7.060
 3200SOL    HW110487   1.167   3.997   7.119
 3200SOL    HW210488   1.206   3.953   6.979
 3201SOL     OW10489   0.900   3.812   5.689
 3201SOL    HW110490   0.960   3.771   5.626
 3201SOL    HW210491   0.942   3.795   5.774
 3202SOL     OW10492   1.709   3.856   6.083
 3202SOL    HW110493   1.788   3.843   6.030
 3202SOL    HW210494   1.699   3.775   6.132
 3203SOL     OW10495   1.835   3.880   6.558
 3203SOL    HW110496   1.871   3.798   6.525
 3203SOL    HW210497   1.756   3.894   6.507
 3204SOL     OW10498   0.677   3.909   7.076
 3204SOL    HW110499   0.760   3.902   7.029
 3204SOL    HW210500   0.702   3.931   7.165
 3205SOL     OW10501   0.071   0.026   5.572
 3205SOL    HW110502   3.977   0.026   5.588
 3205SOL    HW210503   0.100   0.113   5.599
 3206SOL     OW10504   0.107   3.916   5.956
 3206SOL    HW110505   0.081   3.998   5.915
 3206SOL    HW210506   0.186   3.890   5.909
 3207SOL     OW10507   1.193   0.010   6.053
 3207SOL    HW110508   1.262   3.944   6.051
 3207SOL    HW210509   1.214   0.065   6.129
 3208SOL     OW10510   1.786   0.040   7.226
 3208SOL    HW110511   1.760   0.075   7.141
 3208SOL    HW210512   1.706   0.003   7.263
 3209SOL     OW10513   1.815   3.912   6.825
 3209SOL    HW110514   1.823   3.821   6.854
 3209SOL    HW210515   1.821   3.908   6.730
 3210SOL     OW10516   1.439   3.931   6.703
 3210SOL    HW110517   1.474   3.856   6.751
 3210SOL    HW210518   1.380   3.974   6.766
 3211SOL     OW10519   1.016   3.736   6.734
 3211SOL    HW110520   0.958   3.681   6.681
 3211SOL    HW210521   1.101   3.693   6.728
 3212SOL     OW10522   1.354   3.770   5.749
 3212SOL    HW110523   1.387   3.702   5.690
 3212SOL    HW210524   1.266   3.740   5.773
 3213SOL     OW10525   1.280   0.162   6.269
 3213SOL    HW110526   1.282   0.258   6.274
 3213SOL    HW210527   1.286   0.133   6.360
 3214SOL     OW10528   1.579   3.926   6.466
 3214SOL    HW110529   1.530   3.932   6.547
 3214SOL    HW210530   1.581   0.016   6.432
 3215SOL     OW10531   0.234   3.947   8.411
 3215SOL    HW110532   0.255   3.959   8.504
 3215SOL    HW210533   0.140   3.964   8.405
 3216SOL     OW10534   0.010   0.106   8.073
 3216SOL    HW110535   3.926   0.089   8.114
 3216SOL    HW210536   0.012   0.046   7.998
 3217SOL     OW10537   1.777   0.319   7.638
 3217SOL    HW110538   1.704   0.296   7.581
 3217SOL    HW210539   1.736   0.336   7.723
 3218SOL     OW10540   0.440   0.098   8.958
 3218SOL    HW110541   0.511   0.059   8.907
 3218SOL    HW210542   0.363   0.046   8.934
 3219SOL     OW10543   1.596   3.849   8.909
 3219SOL    HW110544   1.602   3.935   8.867
 3219SOL    HW210545   1.579   3.869   9.001
 3220SOL     OW10546   0.806   3.729   7.953
 3220SOL    HW110547   0.832   3.821   7.947
 3220SOL    HW210548   0.710   3.732   7.963
 3221SOL     OW10549   1.267   0.062   8.387
 3221SOL    HW110550   1.196   0.008   8.353
 3221SOL    HW210551   1.323   0.002   8.435
 3222SOL     OW10552   0.554   3.905   8.339
 3222SOL    HW110553   0.552   3.925   8.432
 3222SOL    HW210554   0.550   3.990   8.296
 3223SOL     OW10555   0.192   3.979   8.946
 3223SOL    HW110556   0.103   0.014   8.949
 3223SOL    HW210557   0.187   3.897   8.995
 3224SOL     OW10558   1.407   3.832   7.880
 3224SOL    HW110559   1.398   3.799   7.790
 3224SOL    HW210560   1.501   3.825   7.899
 3225SOL     OW10561   1.533   3.939   9.170
 3225SOL    HW110562   1.559   3.941   9.262
 3225SOL    HW210563   1.465   3.872   9.166
 3226SOL     OW10564   0.627   3.850   7.574
 3226SOL    HW110565   0.717   3.820   7.575
 3226SOL    HW210566   0.586   3.801   7.502
 3227SOL     OW10567   0.772   3.956   9.191
 3227SOL    HW110568   0.829   3.928   9.263
 3227SOL    HW210569   0.687   3.972   9.232
 3228SOL     OW10570   0.535   3.785   7.962
 3228SOL    HW110571   0.483   3.786   8.042
 3228SOL    HW210572   0.543   3.878   7.938
 3229SOL     OW10573   0.287   3.759   7.625
 3229SOL    HW110574   0.329   3.844   7.615
 3229SOL    HW210575   0.353   3.703   7.667
 3230SOL     OW10576   0.563   3.944   8.615
 3230SOL    HW110577   0.605   3.873   8.664
 3230SOL    HW210578   0.471   3.941   8.643
 3231SOL     OW10579   1.020   3.767   8.183
 3231SOL    HW110580   0.955   3.755   8.114
 3231SOL    HW210581   0.997   3.702   8.249
 3232SOL     OW10582   0.924   3.803   8.846
 3232SOL    HW110583   0.952   3.782   8.757
 3232SOL    HW210584   0.997   3.851   8.884
 3233SOL     OW10585   1.267   0.074   8.713
 3233SOL    HW110586   1.280   0.143   8.779
 3233SOL    HW210587   1.200   0.109   8.655
 3234SOL     OW10588   0.507   3.751   9.204
 3234SOL    HW110589   0.453   3.705   9.139
 3234SOL    HW210590   0.477   3.841   9.201
 3235SOL     OW10591   0.304   3.924   8.703
 3235SOL    HW110592   0.258   3.941   8.785
 3235SOL    HW210593   0.289   3.831   8.686
 3236SOL     OW10594   1.577   3.953   7.568
 3236SOL    HW110595   1.515   3.899   7.617
 3236SOL    HW210596   1.605   0.020   7.630
 3237SOL     OW10597   1.164   3.922   8.922
 3237SOL    HW110598   1.167   3.997   8.981
 3237SOL    HW210599   1.205   3.953   8.841
 3238SOL     OW10600   0.900   3.812   7.551
 3238SOL    HW110601   0.960   3.771   7.489
 3238SOL    HW210602   0.940   3.796   7.637
 3239SOL     OW10603   1.710   3.856   7.946
 3239SOL    HW110604   1.788   3.843   7.892
 3239SOL    HW210605   1.700   3.774   7.994
 3240SOL     OW10606   1.836   3.880   8.420
 3240SOL    HW110607   1.871   3.797   8.387
 3240SOL    HW210608   1.755   3.894   8.370
 3241SOL     OW10609   0.677   3.909   8.938
 3241SOL    HW110610   0.760   3.901   8.891
 3241SOL    HW210611   0.702   3.931   9.027
 3242SOL     OW10612   0.071   0.026   7.434
 3242SOL    HW110613   3.976   0.026   7.450
 3242SOL    HW210614   0.100   0.113   7.461
 3243SOL     OW10615   0.107   3.916   7.818
 3243SOL    HW110616   0.081   3.998   7.777
 3243SOL    HW210617   0.186   3.889   7.771
 3244SOL     OW10618   1.193   0.011   7.914
 3244SOL    HW110619   1.262   3.944   7.913
 3244SOL    HW210620   1.214   0.065   7.990
 3245SOL     OW10621   1.786   0.041   9.088
 3245SOL    HW110622   1.759   0.075   9.003
 3245SOL    HW210623   1.706   0.003   9.125
 3246SOL     OW10624   1.816   3.913   8.687
 3246SOL    HW110625   1.821   3.822   8.716
 3246SOL    HW210626   1.822   3.907   8.592
 3247SOL     OW10627   1.439   3.932   8.565
 3247SOL    HW110628   1.472   3.854   8.610
 3247SOL    HW210629   1.381   3.974   8.628
 3248SOL     OW10630   1.016   3.736   8.596
 3248SOL    HW110631   0.958   3.681   8.543
 3248SOL    HW210632   1.101   3.693   8.591
 3249SOL     OW10633   1.353   3.770   7.610
 3249SOL    HW110634   1.385   3.702   7.551
 3249SOL    HW210635   1.265   3.741   7.635
 3250SOL     OW10636   1.281   0.162   8.131
 3250SOL    HW110637   1.282   0.258   8.136
 3250SOL    HW210638   1.286   0.133   8.222
 3251SOL     OW10639   1.580   3.927   8.328
 3251SOL    HW110640   1.530   3.932   8.409
 3251SOL    HW210641   1.581   0.016   8.294
 3252SOL     OW10642   0.234   3.946  10.273
 3252SOL    HW110643   0.255   3.959  10.365
 3252SOL    HW210644   0.140   3.964  10.267
 3253SOL     OW10645   0.010   0.105   9.935
 3253SOL    HW110646   3.926   0.089   9.977
 3253SOL    HW210647   0.012   0.046   9.859
 3254SOL     OW10648   1.777   0.319   9.500
 3254SOL    HW110649   1.704   0.296   9.442
 3254SOL    HW210650   1.736   0.337   9.585
 3255SOL     OW10651   0.440   0.098  10.820
 3255SOL    HW110652   0.511   0.059  10.769
 3255SOL    HW210653   0.363   0.046  10.796
 3256SOL     OW10654   1.596   3.849  10.771
 3256SOL    HW110655   1.603   3.934  10.729
 3256SOL    HW210656   1.579   3.869  10.863
 3257SOL     OW10657   0.806   3.729   9.815
 3257SOL    HW110658   0.832   3.821   9.809
 3257SOL    HW210659   0.710   3.732   9.825
 3258SOL     OW10660   1.267   0.062  10.249
 3258SOL    HW110661   1.196   0.008  10.215
 3258SOL    HW210662   1.323   0.002  10.296
 3259SOL     OW10663   0.554   3.905  10.201
 3259SOL    HW110664   0.552   3.925  10.294
 3259SOL    HW210665   0.550   3.990  10.158
 3260SOL     OW10666   0.192   3.979  10.808
 3260SOL    HW110667   0.103   0.014  10.811
 3260SOL    HW210668   0.187   3.897  10.857
 3261SOL     OW10669   1.407   3.832   9.742
 3261SOL    HW110670   1.398   3.799   9.652
 3261SOL    HW210671   1.500   3.825   9.761
 3262SOL     OW10672   1.533   3.939  11.032
 3262SOL    HW110673   1.559   3.942  11.124
 3262SOL    HW210674   1.465   3.872  11.028
 3263SOL     OW10675   0.627   3.850   9.436
 3263SOL    HW110676   0.718   3.820   9.437
 3263SOL    HW210677   0.587   3.801   9.364
 3264SOL     OW10678   0.772   3.955  11.053
 3264SOL    HW110679   0.829   3.928  11.125
 3264SOL    HW210680   0.687   3.972  11.094
 3265SOL     OW10681   0.535   3.785   9.824
 3265SOL    HW110682   0.483   3.786   9.904
 3265SOL    HW210683   0.544   3.878   9.800
 3266SOL     OW10684   0.287   3.758   9.487
 3266SOL    HW110685   0.330   3.844   9.477
 3266SOL    HW210686   0.353   3.703   9.529
 3267SOL     OW10687   0.563   3.943  10.477
 3267SOL    HW110688   0.605   3.873  10.527
 3267SOL    HW210689   0.471   3.942  10.505
 3268SOL     OW10690   1.020   3.767  10.045
 3268SOL    HW110691   0.955   3.755   9.976
 3268SOL    HW210692   0.997   3.702  10.111
 3269SOL     OW10693   0.924   3.802  10.708
 3269SOL    HW110694   0.952   3.782  10.619
 3269SOL    HW210695   0.997   3.851  10.746
 3270SOL     OW10696   1.267   0.074  10.575
 3270SOL    HW110697   1.280   0.143  10.641
 3270SOL    HW210698   1.200   0.109  10.517
 3271SOL     OW10699   0.507   3.751  11.066
 3271SOL    HW110700   0.453   3.705  11.001
 3271SOL    HW210701   0.477   3.841  11.063
 3272SOL     OW10702   0.304   3.924  10.565
 3272SOL    HW110703   0.258   3.941  10.647
 3272SOL    HW210704   0.288   3.831  10.548
 3273SOL     OW10705   1.577   3.953   9.430
 3273SOL    HW110706   1.517   3.898   9.479
 3273SOL    HW210707   1.606   0.019   9.493
 3274SOL     OW10708   1.164   3.922  10.784
 3274SOL    HW110709   1.167   3.997  10.843
 3274SOL    HW210710   1.205   3.953  10.703
 3275SOL     OW10711   0.900   3.812   9.413
 3275SOL    HW110712   0.960   3.771   9.350
 3275SOL    HW210713   0.941   3.796   9.498
 3276SOL     OW10714   1.710   3.856   9.808
 3276SOL    HW110715   1.788   3.843   9.754
 3276SOL    HW210716   1.700   3.774   9.856
 3277SOL     OW10717   1.836   3.880  10.282
 3277SOL    HW110718   1.871   3.798  10.249
 3277SOL    HW210719   1.756   3.894  10.232
 3278SOL     OW10720   0.677   3.909  10.800
 3278SOL    HW110721   0.760   3.901  10.752
 3278SOL    HW210722   0.702   3.931  10.889
 3279SOL     OW10723   0.071   0.026   9.295
 3279SOL    HW110724   3.977   0.026   9.312
 3279SOL    HW210725   0.100   0.113   9.323
 3280SOL     OW10726   0.107   3.916   9.679
 3280SOL    HW110727   0.081   3.999   9.639
 3280SOL    HW210728   0.186   3.890   9.633
 3281SOL     OW10729   1.193   0.011   9.776
 3281SOL    HW110730   1.262   3.944   9.775
 3281SOL    HW210731   1.214   0.065   9.852
 3282SOL     OW10732   1.786   0.040  10.950
 3282SOL    HW110733   1.759   0.075  10.865
 3282SOL    HW210734   1.706   0.003  10.987
 3283SOL     OW10735   1.816   3.913  10.549
 3283SOL    HW110736   1.822   3.822  10.578
 3283SOL    HW210737   1.822   3.907  10.454
 3284SOL     OW10738   1.439   3.932  10.427
 3284SOL    HW110739   1.472   3.854  10.473
 3284SOL    HW210740   1.381   3.974  10.490
 3285SOL     OW10741   1.016   3.736  10.458
 3285SOL    HW110742   0.958   3.681  10.405
 3285SOL    HW210743   1.101   3.693  10.453
 3286SOL     OW10744   1.353   3.770   9.472
 3286SOL    HW110745   1.386   3.702   9.414
 3286SOL    HW210746   1.266   3.741   9.497
 3287SOL     OW10747   1.281   0.162   9.993
 3287SOL    HW110748   1.282   0.258   9.998
 3287SOL    HW210749   1.286   0.133  10.084
 3288SOL     OW10750   1.580   3.927  10.190
 3288SOL    HW110751   1.530   3.932  10.271
 3288SOL    HW210752   1.581   0.016  10.156
 3289SOL     OW10753   0.234   3.947  12.135
 3289SOL    HW110754   0.255   3.959  12.228
 3289SOL    HW210755   0.140   3.964  12.129
 3290SOL     OW10756   0.010   0.105  11.797
 3290SOL    HW110757   3.926   0.089  11.839
 3290SOL    HW210758   0.012   0.046  11.721
 3291SOL     OW10759   1.777   0.319  11.362
 3291SOL    HW110760   1.704   0.296  11.305
 3291SOL    HW210761   1.736   0.337  11.447
 3292SOL     OW10762   0.440   0.097  12.683
 3292SOL    HW110763   0.511   0.060  12.631
 3292SOL    HW210764   0.363   0.046  12.658
 3293SOL     OW10765   1.596   3.849  12.633
 3293SOL    HW110766   1.602   3.934  12.591
 3293SOL    HW210767   1.579   3.869  12.725
 3294SOL     OW10768   0.806   3.729  11.677
 3294SOL    HW110769   0.832   3.821  11.671
 3294SOL    HW210770   0.710   3.732  11.687
 3295SOL     OW10771   1.267   0.062  12.111
 3295SOL    HW110772   1.196   0.008  12.077
 3295SOL    HW210773   1.323   0.002  12.158
 3296SOL     OW10774   0.554   3.905  12.063
 3296SOL    HW110775   0.552   3.925  12.156
 3296SOL    HW210776   0.550   3.990  12.020
 3297SOL     OW10777   0.191   3.979  12.670
 3297SOL    HW110778   0.102   0.014  12.673
 3297SOL    HW210779   0.186   3.897  12.718
 3298SOL     OW10780   1.407   3.832  11.604
 3298SOL    HW110781   1.398   3.799  11.514
 3298SOL    HW210782   1.500   3.825  11.623
 3299SOL     OW10783   1.533   3.939  12.894
 3299SOL    HW110784   1.558   3.944  12.987
 3299SOL    HW210785   1.465   3.872  12.891
 3300SOL     OW10786   0.627   3.850  11.298
 3300SOL    HW110787   0.718   3.820  11.299
 3300SOL    HW210788   0.587   3.801  11.226
 3301SOL     OW10789   0.771   3.955  12.915
 3301SOL    HW110790   0.829   3.929  12.987
 3301SOL    HW210791   0.686   3.970  12.957
 3302SOL     OW10792   0.534   3.785  11.686
 3302SOL    HW110793   0.483   3.786  11.766
 3302SOL    HW210794   0.543   3.878  11.662
 3303SOL     OW10795   0.287   3.758  11.349
 3303SOL    HW110796   0.330   3.844  11.339
 3303SOL    HW210797   0.353   3.703  11.391
 3304SOL     OW10798   0.563   3.944  12.339
 3304SOL    HW110799   0.605   3.873  12.389
 3304SOL    HW210800   0.471   3.941  12.367
 3305SOL     OW10801   1.020   3.767  11.907
 3305SOL    HW110802   0.955   3.755  11.838
 3305SOL    HW210803   0.997   3.702  11.974
 3306SOL     OW10804   0.924   3.803  12.570
 3306SOL    HW110805   0.952   3.782  12.481
 3306SOL    HW210806   0.997   3.851  12.608
 3307SOL     OW10807   1.267   0.074  12.437
 3307SOL    HW110808   1.280   0.143  12.503
 3307SOL    HW210809   1.200   0.110  12.379
 3308SOL     OW10810   0.506   3.751  12.928
 3308SOL    HW110811   0.453   3.705  12.863
 3308SOL    HW210812   0.476   3.842  12.923
 3309SOL     OW10813   0.304   3.924  12.427
 3309SOL    HW110814   0.257   3.942  12.509
 3309SOL    HW210815   0.289   3.831  12.410
 3310SOL     OW10816   1.577   3.953  11.292
 3310SOL    HW110817   1.517   3.898  11.341
 3310SOL    HW210818   1.606   0.019  11.354
 3311SOL     OW10819   1.164   3.922  12.645
 3311SOL    HW110820   1.168   3.997  12.705
 3311SOL    HW210821   1.205   3.953  12.565
 3312SOL     OW10822   0.900   3.812  11.275
 3312SOL    HW110823   0.960   3.771  11.212
 3312SOL    HW210824   0.941   3.796  11.360
 3313SOL     OW10825   1.710   3.856  11.670
 3313SOL    HW110826   1.788   3.843  11.616
 3313SOL    HW210827   1.699   3.774  11.718
 3314SOL     OW10828   1.836   3.880  12.144
 3314SOL    HW110829   1.871   3.798  12.111
 3314SOL    HW210830   1.756   3.894  12.094
 3315SOL     OW10831   0.677   3.909  12.662
 3315SOL    HW110832   0.760   3.901  12.615
 3315SOL    HW210833   0.702   3.931  12.751
 3316SOL     OW10834   0.071   0.026  11.157
 3316SOL    HW110835   3.977   0.026  11.174
 3316SOL    HW210836   0.100   0.113  11.184
 3317SOL     OW10837   0.106   3.916  11.541
 3317SOL    HW110838   0.081   3.999  11.501
 3317SOL    HW210839   0.186   3.890  11.495
 3318SOL     OW10840   1.193   0.011  11.638
 3318SOL    HW110841   1.262   3.944  11.637
 3318SOL    HW210842   1.214   0.065  11.714
 3319SOL     OW10843   1.786   0.041  12.811
 3319SOL    HW110844   1.758   0.075  12.726
 3319SOL    HW210845   1.706   0.003  12.848
 3320SOL     OW10846   1.816   3.913  12.411
 3320SOL    HW110847   1.822   3.822  12.441
 3320SOL    HW210848   1.822   3.907  12.316
 3321SOL     OW10849   1.439   3.932  12.289
 3321SOL    HW110850   1.472   3.854  12.335
 3321SOL    HW210851   1.381   3.974  12.352
 3322SOL     OW10852   1.016   3.736  12.320
 3322SOL    HW110853   0.958   3.681  12.267
 3322SOL    HW210854   1.101   3.693  12.315
 3323SOL     OW10855   1.353   3.770  11.334
 3323SOL    HW110856   1.386   3.702  11.276
 3323SOL    HW210857   1.266   3.741  11.359
 3324SOL     OW10858   1.280   0.162  11.855
 3324SOL    HW110859   1.282   0.258  11.860
 3324SOL    HW210860   1.286   0.133  11.946
 3325SOL     OW10861   1.580   3.927  12.052
 3325SOL    HW110862   1.530   3.932  12.133
 3325SOL    HW210863   1.581   0.016  12.018
 3326SOL     OW10864   0.010   0.102  13.645
 3326SOL    HW110865   3.916   0.091  13.656
 3326SOL    HW210866   0.032   0.047  13.569
 3327SOL     OW10867   1.777   0.321  13.223
 3327SOL    HW110868   1.701   0.301  13.168
 3327SOL    HW210869   1.741   0.325  13.312
 3328SOL     OW10870   1.613   0.171  13.766
 3328SOL    HW110871   1.524   0.147  13.737
 3328SOL    HW210872   1.604   0.262  13.795
 3329SOL     OW10873   0.808   3.730  13.539
 3329SOL    HW110874   0.832   3.822  13.533
 3329SOL    HW210875   0.713   3.730  13.550
 3330SOL     OW10876   1.405   3.833  13.463
 3330SOL    HW110877   1.399   3.799  13.373
 3330SOL    HW210878   1.498   3.829  13.484
 3331SOL     OW10879   0.625   3.851  13.158
 3331SOL    HW110880   0.716   3.821  13.163
 3331SOL    HW210881   0.587   3.800  13.087
 3332SOL     OW10882   0.535   3.779  13.547
 3332SOL    HW110883   0.485   3.769  13.628
 3332SOL    HW210884   0.538   3.874  13.534
 3333SOL     OW10885   0.287   3.759  13.213
 3333SOL    HW110886   0.339   3.838  13.194
 3333SOL    HW210887   0.349   3.700  13.256
 3334SOL     OW10888   1.012   3.762  13.772
 3334SOL    HW110889   0.955   3.757  13.695
 3334SOL    HW210890   0.992   3.683  13.822
 3335SOL     OW10891   1.575   3.959  13.155
 3335SOL    HW110892   1.524   3.896  13.206
 3335SOL    HW210893   1.625   0.008  13.220
 3336SOL     OW10894   0.900   3.812  13.138
 3336SOL    HW110895   0.959   3.771  13.074
 3336SOL    HW210896   0.940   3.794  13.223
 3337SOL     OW10897   1.729   3.859  13.557
 3337SOL    HW110898   1.796   3.845  13.489
 3337SOL    HW210899   1.711   3.771  13.591
 3338SOL     OW10900   1.847   3.894   0.055
 3338SOL    HW110901   1.871   3.801   0.053
 3338SOL    HW210902   1.757   3.895   0.085
 3339SOL     OW10903   0.072   0.024  13.021
 3339SOL    HW110904   3.978   0.024  13.037
 3339SOL    HW210905   0.102   0.110  13.049
 3340SOL     OW10906   0.114   3.923  13.409
 3340SOL    HW110907   0.088   3.998  13.354
 3340SOL    HW210908   0.187   3.884  13.362
 3341SOL     OW10909   1.187   0.002  13.517
 3341SOL    HW110910   1.260   3.944  13.497
 3341SOL    HW210911   1.221   0.060  13.585
 3342SOL     OW10912   1.354   3.769  13.195
 3342SOL    HW110913   1.386   3.701  13.137
 3342SOL    HW210914   1.266   3.741  13.221
 3343SOL     OW10915   1.310   0.156  13.736
 3343SOL    HW110916   1.279   0.244  13.716
 3343SOL    HW210917   1.292   0.145  13.829
 3344SOL     OW10918   2.097   0.645   0.118
 3344SOL    HW110919   2.010   0.616   0.146
 3344SOL    HW210920   2.112   0.598   0.036
 3345SOL     OW10921   2.078   0.301   0.992
 3345SOL    HW110922   2.116   0.257   1.068
 3345SOL    HW210923   1.994   0.258   0.979
 3346SOL     OW10924   1.872   0.399   0.633
 3346SOL    HW110925   1.784   0.412   0.670
 3346SOL    HW210926   1.861   0.327   0.571
 3347SOL     OW10927   2.430   1.291   1.177
 3347SOL    HW110928   2.343   1.295   1.135
 3347SOL    HW210929   2.447   1.380   1.206
 3348SOL     OW10930   3.426   1.513   0.707
 3348SOL    HW110931   3.382   1.490   0.789
 3348SOL    HW210932   3.357   1.516   0.642
 3349SOL     OW10933   2.995   0.698   0.697
 3349SOL    HW110934   3.042   0.780   0.685
 3349SOL    HW210935   2.947   0.710   0.780
 3350SOL     OW10936   3.617   0.631   0.224
 3350SOL    HW110937   3.624   0.620   0.129
 3350SOL    HW210938   3.629   0.542   0.259
 3351SOL     OW10939   2.614   1.140   1.044
 3351SOL    HW110940   2.546   1.176   1.101
 3351SOL    HW210941   2.651   1.216   0.999
 3352SOL     OW10942   2.732   0.769   1.824
 3352SOL    HW110943   2.718   0.840   1.887
 3352SOL    HW210944   2.755   0.814   1.742
 3353SOL     OW10945   2.547   0.999   0.647
 3353SOL    HW110946   2.613   0.990   0.716
 3353SOL    HW210947   2.479   1.053   0.685
 3354SOL     OW10948   2.576   1.149   1.815
 3354SOL    HW110949   2.623   1.227   1.845
 3354SOL    HW210950   2.493   1.183   1.781
 3355SOL     OW10951   2.189   1.422   1.067
 3355SOL    HW110952   2.117   1.386   1.017
 3355SOL    HW210953   2.239   1.474   1.003
 3356SOL     OW10954   3.321   1.501   1.358
 3356SOL    HW110955   3.375   1.580   1.367
 3356SOL    HW210956   3.256   1.508   1.427
 3357SOL     OW10957   2.307   0.393   1.493
 3357SOL    HW110958   2.397   0.362   1.492
 3357SOL    HW210959   2.254   0.313   1.501
 3358SOL     OW10960   3.472   0.450   0.735
 3358SOL    HW110961   3.405   0.487   0.678
 3358SOL    HW210962   3.497   0.522   0.793
 3359SOL     OW10963   2.109   1.698   0.490
 3359SOL    HW110964   2.061   1.780   0.498
 3359SOL    HW210965   2.175   1.715   0.423
 3360SOL     OW10966   2.999   1.342   1.693
 3360SOL    HW110967   3.040   1.337   1.780
 3360SOL    HW210968   2.947   1.262   1.687
 3361SOL     OW10969   2.079   1.434   0.535
 3361SOL    HW110970   2.089   1.529   0.530
 3361SOL    HW210971   2.024   1.419   0.612
 3362SOL     OW10972   2.123   1.090   0.890
 3362SOL    HW110973   2.120   1.002   0.927
 3362SOL    HW210974   2.066   1.142   0.947
 3363SOL     OW10975   2.474   1.783   1.434
 3363SOL    HW110976   2.394   1.770   1.485
 3363SOL    HW210977   2.496   1.875   1.448
 3364SOL     OW10978   2.428   0.979   0.162
 3364SOL    HW110979   2.456   1.025   0.083
 3364SOL    HW210980   2.480   1.019   0.232
 3365SOL     OW10981   3.444   0.141   1.456
 3365SOL    HW110982   3.470   0.214   1.400
 3365SOL    HW210983   3.408   0.183   1.534
 3366SOL     OW10984   1.979   0.656   0.559
 3366SOL    HW110985   1.951   0.567   0.583
 3366SOL    HW210986   1.971   0.706   0.640
 3367SOL     OW10987   3.708   1.758   0.332
 3367SOL    HW110988   3.770   1.722   0.396
 3367SOL    HW210989   3.729   1.851   0.329
 3368SOL     OW10990   1.929   1.576   0.112
 3368SOL    HW110991   1.912   1.484   0.133
 3368SOL    HW210992   1.853   1.623   0.147
 3369SOL     OW10993   3.549   0.917   0.648
 3369SOL    HW110994   3.632   0.874   0.631
 3369SOL    HW210995   3.531   0.968   0.569
 3370SOL     OW10996   3.506   1.103   0.434
 3370SOL    HW110997   3.591   1.111   0.391
 3370SOL    HW210998   3.509   1.167   0.505
 3371SOL     OW10999   1.985   0.750   1.580
 3371SOL    HW111000   2.076   0.780   1.585
 3371SOL    HW211001   1.933   0.829   1.588
 3372SOL     OW11002   2.478   1.388   0.734
 3372SOL    HW111003   2.431   1.305   0.743
 3372SOL    HW211004   2.461   1.416   0.644
 3373SOL     OW11005   3.149   1.237   1.422
 3373SOL    HW111006   3.181   1.170   1.362
 3373SOL    HW211007   3.208   1.232   1.498
 3374SOL     OW11008   2.684   0.003   0.520
 3374SOL    HW111009   2.729   0.083   0.493
 3374SOL    HW211010   2.591   0.026   0.520
 3375SOL     OW11011   2.051   0.962   1.273
 3375SOL    HW111012   2.136   0.922   1.259
 3375SOL    HW211013   1.991   0.912   1.218
 3376SOL     OW11014   3.392   0.996   0.206
 3376SOL    HW111015   3.323   0.938   0.239
 3376SOL    HW211016   3.432   1.034   0.284
 3377SOL     OW11017   3.048   1.809   1.624
 3377SOL    HW111018   3.056   1.868   1.549
 3377SOL    HW211019   3.065   1.722   1.588
 3378SOL     OW11020   2.219   0.253   1.839
 3378SOL    HW111021   2.263   0.338   1.839
 3378SOL    HW211022   2.126   0.274   1.843
 3379SOL     OW11023   3.328   1.420   0.949
 3379SOL    HW111024   3.261   1.435   1.016
 3379SOL    HW211025   3.317   1.328   0.924
 3380SOL     OW11026   3.521   1.745   0.584
 3380SOL    HW111027   3.499   1.720   0.494
 3380SOL    HW211028   3.499   1.667   0.636
 3381SOL     OW11029   2.458   0.717   0.266
 3381SOL    HW111030   2.460   0.800   0.218
 3381SOL    HW211031   2.398   0.733   0.339
 3382SOL     OW11032   3.137   0.369   0.940
 3382SOL    HW111033   3.050   0.330   0.948
 3382SOL    HW211034   3.194   0.307   0.985
 3383SOL     OW11035   3.427   1.730   0.314
 3383SOL    HW111036   3.523   1.730   0.310
 3383SOL    HW211037   3.400   1.696   0.229
 3384SOL     OW11038   2.658   0.616   1.452
 3384SOL    HW111039   2.629   0.590   1.540
 3384SOL    HW211040   2.619   0.550   1.394
 3385SOL     OW11041   3.254   0.476   1.677
 3385SOL    HW111042   3.260   0.521   1.761
 3385SOL    HW211043   3.311   0.400   1.687
 3386SOL     OW11044   2.814   0.887   1.584
 3386SOL    HW111045   2.869   0.818   1.547
 3386SOL    HW211046   2.766   0.922   1.509
 3387SOL     OW11047   2.854   0.402   1.238
 3387SOL    HW111048   2.770   0.423   1.277
 3387SOL    HW211049   2.834   0.375   1.149
 3388SOL     OW11050   2.914   0.702   0.428
 3388SOL    HW111051   2.931   0.694   0.522
 3388SOL    HW211052   2.831   0.657   0.415
 3389SOL     OW11053   1.950   0.824   0.775
 3389SOL    HW111054   2.029   0.815   0.827
 3389SOL    HW211055   1.905   0.900   0.812
 3390SOL     OW11056   2.736   0.360   0.221
 3390SOL    HW111057   2.773   0.418   0.155
 3390SOL    HW211058   2.739   0.273   0.182
 3391SOL     OW11059   3.570   0.573   1.829
 3391SOL    HW111060   3.532   0.648   1.782
 3391SOL    HW211061   3.595   0.512   1.761
 3392SOL     OW11062   3.239   1.141   0.542
 3392SOL    HW111063   3.318   1.130   0.489
 3392SOL    HW211064   3.187   1.205   0.494
 3393SOL     OW11065   2.420   0.198   0.881
 3393SOL    HW111066   2.423   0.218   0.975
 3393SOL    HW211067   2.416   0.284   0.839
 3394SOL     OW11068   2.866   1.442   0.475
 3394SOL    HW111069   2.834   1.516   0.424
 3394SOL    HW211070   2.842   1.463   0.565
 3395SOL     OW11071   2.249   1.814   0.827
 3395SOL    HW111072   2.252   1.720   0.840
 3395SOL    HW211073   2.325   1.848   0.875
 3396SOL     OW11074   3.667   1.062   0.868
 3396SOL    HW111075   3.613   1.037   0.793
 3396SOL    HW211076   3.605   1.065   0.941
 3397SOL     OW11077   3.090   1.539   1.513
 3397SOL    HW111078   3.077   1.467   1.574
 3397SOL    HW211079   3.023   1.526   1.446
 3398SOL     OW11080   2.171   0.938   0.231
 3398SOL    HW111081   2.263   0.950   0.207
 3398SOL    HW211082   2.158   0.843   0.226
 3399SOL     OW11083   3.340   0.748   0.731
 3399SOL    HW111084   3.336   0.706   0.816
 3399SOL    HW211085   3.418   0.803   0.735
 3400SOL     OW11086   2.333   1.265   1.744
 3400SOL    HW111087   2.306   1.267   1.652
 3400SOL    HW211088   2.250   1.261   1.793
 3401SOL     OW11089   2.984   1.780   0.230
 3401SOL    HW111090   2.922   1.734   0.285
 3401SOL    HW211091   3.014   1.715   0.166
 3402SOL     OW11092   2.031   0.274   1.499
 3402SOL    HW111093   1.976   0.352   1.489
 3402SOL    HW211094   2.038   0.262   1.594
 3403SOL     OW11095   3.494   1.374   0.088
 3403SOL    HW111096   3.462   1.459   0.058
 3403SOL    HW211097   3.424   1.312   0.067
 3404SOL     OW11098   2.332   1.739   0.327
 3404SOL    HW111099   2.375   1.801   0.386
 3404SOL    HW211100   2.396   1.722   0.258
 3405SOL     OW11101   3.298   0.140   0.392
 3405SOL    HW111102   3.256   0.054   0.397
 3405SOL    HW211103   3.382   0.128   0.437
 3406SOL     OW11104   2.133   1.738   1.258
 3406SOL    HW111105   2.166   1.654   1.289
 3406SOL    HW211106   2.138   1.732   1.162
 3407SOL     OW11107   2.799   1.698   0.898
 3407SOL    HW111108   2.878   1.648   0.919
 3407SOL    HW211109   2.758   1.649   0.827
 3408SOL     OW11110   2.256   0.695   0.472
 3408SOL    HW111111   2.276   0.603   0.486
 3408SOL    HW211112   2.163   0.703   0.495
 3409SOL     OW11113   3.392   0.229   1.727
 3409SOL    HW111114   3.385   0.255   1.819
 3409SOL    HW211115   3.373   0.136   1.726
 3410SOL     OW11116   2.483   0.103   0.119
 3410SOL    HW111117   2.578   0.102   0.127
 3410SOL    HW211118   2.466   0.132   0.030
 3411SOL     OW11119   2.637   0.282   1.768
 3411SOL    HW111120   2.709   0.219   1.772
 3411SOL    HW211121   2.580   0.256   1.840
 3412SOL     OW11122   2.739   1.522   1.193
 3412SOL    HW111123   2.723   1.485   1.106
 3412SOL    HW211124   2.809   1.468   1.230
 3413SOL     OW11125   3.202   0.587   1.430
 3413SOL    HW111126   3.232   0.559   1.517
 3413SOL    HW211127   3.236   0.676   1.421
 3414SOL     OW11128   2.679   1.392   0.943
 3414SOL    HW111129   2.763   1.380   0.899
 3414SOL    HW211130   2.615   1.396   0.871
 3415SOL     OW11131   2.792   0.511   0.900
 3415SOL    HW111132   2.767   0.504   0.808
 3415SOL    HW211133   2.818   0.423   0.925
 3416SOL     OW11134   2.411   0.052   0.499
 3416SOL    HW111135   2.335   0.059   0.557
 3416SOL    HW211136   2.403   0.129   0.442
 3417SOL     OW11137   3.291   1.206   0.044
 3417SOL    HW111138   3.310   1.126   0.093
 3417SOL    HW211139   3.200   1.226   0.065
 3418SOL     OW11140   2.200   0.007   0.186
 3418SOL    HW111141   2.173   0.087   0.142
 3418SOL    HW211142   2.287   0.028   0.222
 3419SOL     OW11143   2.805   0.249   0.466
 3419SOL    HW111144   2.773   0.288   0.384
 3419SOL    HW211145   2.900   0.252   0.458
 3420SOL     OW11146   2.942   0.684   1.458
 3420SOL    HW111147   2.872   0.619   1.465
 3420SOL    HW211148   3.022   0.632   1.453
 3421SOL     OW11149   3.083   1.572   0.795
 3421SOL    HW111150   3.099   1.636   0.727
 3421SOL    HW211151   3.153   1.585   0.858
 3422SOL     OW11152   2.333   1.152   0.730
 3422SOL    HW111153   2.264   1.132   0.794
 3422SOL    HW211154   2.290   1.139   0.645
 3423SOL     OW11155   3.129   1.794   0.609
 3423SOL    HW111156   3.177   1.857   0.555
 3423SOL    HW211157   3.062   1.848   0.652
 3424SOL     OW11158   2.861   0.531   0.053
 3424SOL    HW111159   2.860   0.530  13.857
 3424SOL    HW211160   2.952   0.552   0.076
 3425SOL     OW11161   1.944   0.550   1.396
 3425SOL    HW111162   2.035   0.552   1.367
 3425SOL    HW211163   1.937   0.623   1.458
 3426SOL     OW11164   2.425   0.231   1.161
 3426SOL    HW111165   2.449   0.139   1.170
 3426SOL    HW211166   2.336   0.236   1.194
 3427SOL     OW11167   2.732   0.462   0.638
 3427SOL    HW111168   2.687   0.516   0.574
 3427SOL    HW211169   2.753   0.381   0.591
 3428SOL     OW11170   2.858   0.040   0.779
 3428SOL    HW111171   2.818   0.068   0.697
 3428SOL    HW211172   2.869   3.945   0.769
 3429SOL     OW11173   3.301   1.161   0.858
 3429SOL    HW111174   3.230   1.098   0.856
 3429SOL    HW211175   3.326   1.172   0.766
 3430SOL     OW11176   3.326   0.608   0.974
 3430SOL    HW111177   3.272   0.528   0.979
 3430SOL    HW211178   3.386   0.601   1.049
 3431SOL     OW11179   3.724   0.825   0.374
 3431SOL    HW111180   3.763   0.767   0.440
 3431SOL    HW211181   3.679   0.765   0.314
 3432SOL     OW11182   2.349   1.407   0.156
 3432SOL    HW111183   2.275   1.375   0.207
 3432SOL    HW211184   2.329   1.381   0.066
 3433SOL     OW11185   3.529   1.264   0.646
 3433SOL    HW111186   3.624   1.268   0.655
 3433SOL    HW211187   3.500   1.354   0.660
 3434SOL     OW11188   3.283   0.590   0.087
 3434SOL    HW111189   3.214   0.578   0.152
 3434SOL    HW211190   3.333   0.509   0.090
 3435SOL     OW11191   2.379   0.254   0.323
 3435SOL    HW111192   2.422   0.209   0.251
 3435SOL    HW211193   2.358   0.341   0.287
 3436SOL     OW11194   3.613   1.234   1.566
 3436SOL    HW111195   3.701   1.199   1.549
 3436SOL    HW211196   3.629   1.323   1.596
 3437SOL     OW11197   2.919   1.353   1.332
 3437SOL    HW111198   2.844   1.322   1.383
 3437SOL    HW211199   2.994   1.312   1.374
 3438SOL     OW11200   3.468   1.628   1.656
 3438SOL    HW111201   3.460   1.662   1.567
 3438SOL    HW211202   3.548   1.577   1.655
 3439SOL     OW11203   2.993   1.206   1.103
 3439SOL    HW111204   2.934   1.244   1.168
 3439SOL    HW211205   2.962   1.240   1.020
 3440SOL     OW11206   3.490   1.096   1.075
 3440SOL    HW111207   3.481   1.158   1.148
 3440SOL    HW211208   3.413   1.112   1.020
 3441SOL     OW11209   2.774   0.116   1.401
 3441SOL    HW111210   2.794   0.089   1.312
 3441SOL    HW211211   2.855   0.158   1.432
 3442SOL     OW11212   2.846   1.115   1.724
 3442SOL    HW111213   2.755   1.132   1.746
 3442SOL    HW211214   2.844   1.037   1.668
 3443SOL     OW11215   2.577   1.058   0.377
 3443SOL    HW111216   2.562   1.040   0.470
 3443SOL    HW211217   2.652   1.003   0.353
 3444SOL     OW11218   2.283   0.816   1.252
 3444SOL    HW111219   2.351   0.824   1.318
 3444SOL    HW211220   2.247   0.728   1.264
 3445SOL     OW11221   3.128   0.375   1.276
 3445SOL    HW111222   3.162   0.453   1.320
 3445SOL    HW211223   3.041   0.400   1.246
 3446SOL     OW11224   2.208   1.114   0.486
 3446SOL    HW111225   2.205   1.186   0.424
 3446SOL    HW211226   2.215   1.035   0.432
 3447SOL     OW11227   2.416   0.532   0.857
 3447SOL    HW111228   2.430   0.591   0.783
 3447SOL    HW211229   2.481   0.559   0.922
 3448SOL     OW11230   3.110   1.346   0.398
 3448SOL    HW111231   3.166   1.419   0.424
 3448SOL    HW211232   3.023   1.370   0.430
 3449SOL     OW11233   3.146   1.459   1.148
 3449SOL    HW111234   3.202   1.463   1.225
 3449SOL    HW211235   3.091   1.383   1.162
 3450SOL     OW11236   3.438   0.633   0.492
 3450SOL    HW111237   3.395   0.693   0.552
 3450SOL    HW211238   3.473   0.689   0.422
 3451SOL     OW11239   2.222   1.493   1.320
 3451SOL    HW111240   2.207   1.464   1.230
 3451SOL    HW211241   2.315   1.516   1.323
 3452SOL     OW11242   2.279   0.744   1.602
 3452SOL    HW111243   2.341   0.789   1.544
 3452SOL    HW211244   2.321   0.660   1.620
 3453SOL     OW11245   3.466   0.778   1.683
 3453SOL    HW111246   3.381   0.821   1.677
 3453SOL    HW211247   3.519   0.821   1.616
 3454SOL     OW11248   2.876   0.132   1.780
 3454SOL    HW111249   2.925   0.205   1.743
 3454SOL    HW211250   2.859   0.073   1.706
 3455SOL     OW11251   2.350   0.034   1.762
 3455SOL    HW111252   2.353   0.047   1.667
 3455SOL    HW211253   2.291   0.102   1.794
 3456SOL     OW11254   2.445   0.874   1.031
 3456SOL    HW111255   2.476   0.964   1.033
 3456SOL    HW211256   2.389   0.866   1.108
 3457SOL     OW11257   3.215   0.859   1.026
 3457SOL    HW111258   3.131   0.847   0.983
 3457SOL    HW211259   3.258   0.774   1.019
 3458SOL     OW11260   3.079   0.550   0.267
 3458SOL    HW111261   3.085   0.470   0.320
 3458SOL    HW211262   3.023   0.608   0.319
 3459SOL     OW11263   2.162   0.209   1.243
 3459SOL    HW111264   2.120   0.238   1.324
 3459SOL    HW211265   2.150   0.114   1.242
 3460SOL     OW11266   1.907   1.333   1.292
 3460SOL    HW111267   1.936   1.264   1.352
 3460SOL    HW211268   1.979   1.397   1.293
 3461SOL     OW11269   2.584   0.632   1.052
 3461SOL    HW111270   2.660   0.619   0.995
 3461SOL    HW211271   2.555   0.721   1.033
 3462SOL     OW11272   3.594   0.957   1.862
 3462SOL    HW111273   3.551   0.895   1.803
 3462SOL    HW211274   3.530   0.972   1.932
 3463SOL     OW11275   2.184   0.056   0.651
 3463SOL    HW111276   2.164   0.149   0.663
 3463SOL    HW211277   2.146   0.013   0.728
 3464SOL     OW11278   3.437   0.389   0.390
 3464SOL    HW111279   3.419   0.327   0.461
 3464SOL    HW211280   3.431   0.475   0.431
 3465SOL     OW11281   2.891   0.759   0.958
 3465SOL    HW111282   2.885   0.776   1.052
 3465SOL    HW211283   2.864   0.668   0.949
 3466SOL     OW11284   2.845   1.567   1.719
 3466SOL    HW111285   2.829   1.610   1.636
 3466SOL    HW211286   2.888   1.484   1.696
 3467SOL     OW11287   3.705   1.499   1.598
 3467SOL    HW111288   3.728   1.528   1.510
 3467SOL    HW211289   3.786   1.509   1.649
 3468SOL     OW11290   2.214   0.916   1.808
 3468SOL    HW111291   2.295   0.936   1.855
 3468SOL    HW211292   2.240   0.853   1.741
 3469SOL     OW11293   3.388   0.271   0.144
 3469SOL    HW111294   3.326   0.199   0.148
 3469SOL    HW211295   3.394   0.303   0.234
 3470SOL     OW11296   3.151   0.832   0.055
 3470SOL    HW111297   3.198   0.749   0.061
 3470SOL    HW211298   3.168   0.864  13.867
 3471SOL     OW11299   2.929   1.337   0.855
 3471SOL    HW111300   2.933   1.265   0.792
 3471SOL    HW211301   2.989   1.403   0.820
 3472SOL     OW11302   2.170   0.810   0.945
 3472SOL    HW111303   2.263   0.831   0.940
 3472SOL    HW211304   2.167   0.719   0.977
 3473SOL     OW11305   2.198   0.536   1.014
 3473SOL    HW111306   2.157   0.451   0.999
 3473SOL    HW211307   2.274   0.537   0.956
 3474SOL     OW11308   2.995   0.381   1.697
 3474SOL    HW111309   2.946   0.435   1.758
 3474SOL    HW211310   3.081   0.421   1.692
 3475SOL     OW11311   3.013   0.226   1.481
 3475SOL    HW111312   3.004   0.280   1.560
 3475SOL    HW211313   3.038   0.288   1.412
 3476SOL     OW11314   1.882   1.305   0.176
 3476SOL    HW111315   1.797   1.316   0.132
 3476SOL    HW211316   1.875   1.220   0.220
 3477SOL     OW11317   2.360   1.568   0.911
 3477SOL    HW111318   2.426   1.635   0.930
 3477SOL    HW211319   2.404   1.508   0.850
 3478SOL     OW11320   2.841   0.788   1.224
 3478SOL    HW111321   2.897   0.769   1.298
 3478SOL    HW211322   2.755   0.753   1.249
 3479SOL     OW11323   1.895   0.548   1.117
 3479SOL    HW111324   1.970   0.521   1.063
 3479SOL    HW211325   1.929   0.547   1.206
 3480SOL     OW11326   2.065   0.526   1.712
 3480SOL    HW111327   2.136   0.506   1.651
 3480SOL    HW211328   2.021   0.602   1.673
 3481SOL     OW11329   3.242   0.936   1.657
 3481SOL    HW111330   3.263   1.030   1.655
 3481SOL    HW211331   3.237   0.910   1.565
 3482SOL     OW11332   2.677   0.580   0.375
 3482SOL    HW111333   2.687   0.503   0.319
 3482SOL    HW211334   2.604   0.628   0.335
 3483SOL     OW11335   3.501   0.602   1.183
 3483SOL    HW111336   3.491   0.542   1.256
 3483SOL    HW211337   3.588   0.581   1.147
 3484SOL     OW11338   2.088   1.560   1.739
 3484SOL    HW111339   2.049   1.591   1.821
 3484SOL    HW211340   2.115   1.470   1.758
 3485SOL     OW11341   2.570   0.453   1.256
 3485SOL    HW111342   2.519   0.376   1.231
 3485SOL    HW211343   2.561   0.513   1.182
 3486SOL     OW11344   2.789   1.678   1.469
 3486SOL    HW111345   2.761   1.642   1.384
 3486SOL    HW211346   2.783   1.773   1.457
 3487SOL     OW11347   2.297   0.493   0.230
 3487SOL    HW111348   2.370   0.553   0.244
 3487SOL    HW211349   2.228   0.547   0.192
 3488SOL     OW11350   2.003   1.140   1.469
 3488SOL    HW111351   2.006   1.092   1.551
 3488SOL    HW211352   2.021   1.075   1.402
 3489SOL     OW11353   3.184   1.045   1.222
 3489SOL    HW111354   3.207   0.982   1.154
 3489SOL    HW211355   3.116   1.099   1.182
 3490SOL     OW11356   3.177   0.857   0.327
 3490SOL    HW111357   3.102   0.825   0.378
 3490SOL    HW211358   3.152   0.844   0.236
 3491SOL     OW11359   3.642   1.741   1.157
 3491SOL    HW111360   3.697   1.769   1.084
 3491SOL    HW211361   3.613   1.653   1.133
 3492SOL     OW11362   3.103   1.734   1.110
 3492SOL    HW111363   3.185   1.756   1.066
 3492SOL    HW211364   3.110   1.640   1.129
 3493SOL     OW11365   1.952   1.252   1.027
 3493SOL    HW111366   1.923   1.274   1.116
 3493SOL    HW211367   1.874   1.217   0.984
 3494SOL     OW11368   2.542   1.664   1.732
 3494SOL    HW111369   2.488   1.744   1.737
 3494SOL    HW211370   2.605   1.682   1.662
 3495SOL     OW11371   2.758   0.103   0.134
 3495SOL    HW111372   2.799   0.091   0.048
 3495SOL    HW211373   2.768   0.018   0.177
 3496SOL     OW11374   3.554   0.124   0.484
 3496SOL    HW111375   3.636   0.135   0.435
 3496SOL    HW211376   3.553   0.031   0.508
 3497SOL     OW11377   3.252   1.571   0.486
 3497SOL    HW111378   3.315   1.606   0.422
 3497SOL    HW211379   3.204   1.649   0.517
 3498SOL     OW11380   3.138   0.927   0.671
 3498SOL    HW111381   3.212   0.868   0.682
 3498SOL    HW211382   3.172   0.999   0.618
 3499SOL     OW11383   2.672   1.274   1.427
 3499SOL    HW111384   2.644   1.314   1.509
 3499SOL    HW211385   2.603   1.296   1.364
 3500SOL     OW11386   2.551   1.581   0.183
 3500SOL    HW111387   2.528   1.642   0.113
 3500SOL    HW211388   2.487   1.510   0.175
 3501SOL     OW11389   3.482   1.727   1.391
 3501SOL    HW111390   3.537   1.732   1.313
 3501SOL    HW211391   3.469   1.818   1.417
 3502SOL     OW11392   3.704   0.182   0.970
 3502SOL    HW111393   3.729   0.098   0.932
 3502SOL    HW211394   3.617   0.200   0.933
 3503SOL     OW11395   2.125   0.316   0.716
 3503SOL    HW111396   2.039   0.351   0.694
 3503SOL    HW211397   2.124   0.307   0.812
 3504SOL     OW11398   3.083   1.600   0.035
 3504SOL    HW111399   3.071   1.509   0.062
 3504SOL    HW211400   3.040   1.606  13.851
 3505SOL     OW11401   2.686   1.006   1.373
 3505SOL    HW111402   2.729   1.002   1.287
 3505SOL    HW211403   2.684   1.099   1.394
 3506SOL     OW11404   2.783   0.910   0.287
 3506SOL    HW111405   2.853   0.951   0.236
 3506SOL    HW211406   2.827   0.840   0.337
 3507SOL     OW11407   3.349   1.645   0.067
 3507SOL    HW111408   3.255   1.626   0.057
 3507SOL    HW211409   3.384   1.636  13.879
 3508SOL     OW11410   2.230   1.294   1.503
 3508SOL    HW111411   2.228   1.365   1.439
 3508SOL    HW211412   2.153   1.241   1.481
 3509SOL     OW11413   3.463   1.280   1.277
 3509SOL    HW111414   3.531   1.272   1.345
 3509SOL    HW211415   3.406   1.350   1.310
 3510SOL     OW11416   2.917   1.108   0.708
 3510SOL    HW111417   2.846   1.057   0.746
 3510SOL    HW211418   2.981   1.043   0.680
 3511SOL     OW11419   2.877   0.249   0.969
 3511SOL    HW111420   2.867   0.198   0.888
 3511SOL    HW211421   2.872   0.183   1.039
 3512SOL     OW11422   2.467   1.489   0.480
 3512SOL    HW111423   2.512   1.440   0.412
 3512SOL    HW211424   2.399   1.537   0.434
 3513SOL     OW11425   3.582   0.394   1.372
 3513SOL    HW111426   3.654   0.457   1.372
 3513SOL    HW211427   3.614   0.321   1.318
 3514SOL     OW11428   2.131   1.319   0.298
 3514SOL    HW111429   2.049   1.332   0.251
 3514SOL    HW211430   2.119   1.365   0.382
 3515SOL     OW11431   1.975   1.027   1.719
 3515SOL    HW111432   1.899   1.002   1.771
 3515SOL    HW211433   2.049   0.988   1.765
 3516SOL     OW11434   2.555   0.255   1.501
 3516SOL    HW111435   2.622   0.200   1.460
 3516SOL    HW211436   2.582   0.261   1.593
 3517SOL     OW11437   1.902   0.439   0.008
 3517SOL    HW111438   1.872   0.350   0.023
 3517SOL    HW211439   1.900   0.449  13.813
 3518SOL     OW11440   3.287   0.856   1.398
 3518SOL    HW111441   3.238   0.919   1.345
 3518SOL    HW211442   3.376   0.859   1.362
 3519SOL     OW11443   1.942   0.145   0.368
 3519SOL    HW111444   1.913   0.227   0.327
 3519SOL    HW211445   2.028   0.129   0.328
 3520SOL     OW11446   3.048   1.345   0.122
 3520SOL    HW111447   2.954   1.335   0.110
 3520SOL    HW211448   3.062   1.333   0.216
 3521SOL     OW11449   2.483   0.829   1.434
 3521SOL    HW111450   2.540   0.905   1.419
 3521SOL    HW211451   2.544   0.755   1.443
 3522SOL     OW11452   3.344   1.782   0.981
 3522SOL    HW111453   3.368   1.843   0.911
 3522SOL    HW211454   3.428   1.753   1.017
 3523SOL     OW11455   2.580   0.561   1.704
 3523SOL    HW111456   2.622   0.624   1.763
 3523SOL    HW211457   2.605   0.475   1.738
 3524SOL     OW11458   3.335   1.197   1.630
 3524SOL    HW111459   3.323   1.212   1.724
 3524SOL    HW211460   3.428   1.213   1.615
 3525SOL     OW11461   2.238   1.739   1.575
 3525SOL    HW111462   2.175   1.754   1.505
 3525SOL    HW211463   2.202   1.665   1.625
 3526SOL     OW11464   3.527   0.881   1.259
 3526SOL    HW111465   3.525   0.796   1.215
 3526SOL    HW211466   3.520   0.944   1.188
 3527SOL     OW11467   3.091   0.334   0.435
 3527SOL    HW111468   3.155   0.263   0.430
 3527SOL    HW211469   3.109   0.376   0.519
 3528SOL     OW11470   2.450   0.736   0.671
 3528SOL    HW111471   2.489   0.822   0.657
 3528SOL    HW211472   2.384   0.728   0.603
 3529SOL     OW11473   3.617   0.381   1.642
 3529SOL    HW111474   3.595   0.390   1.549
 3529SOL    HW211475   3.556   0.314   1.674
 3530SOL     OW11476   3.617   0.930   1.513
 3530SOL    HW111477   3.607   1.024   1.531
 3530SOL    HW211478   3.592   0.920   1.421
 3531SOL     OW11479   2.772   1.396   0.065
 3531SOL    HW111480   2.702   1.388   0.130
 3531SOL    HW211481   2.725   1.405  13.882
 3532SOL     OW11482   2.525   1.792   0.936
 3532SOL    HW111483   2.516   1.887   0.932
 3532SOL    HW211484   2.619   1.776   0.936
 3533SOL     OW11485   2.730   0.969   0.854
 3533SOL    HW111486   2.781   0.897   0.893
 3533SOL    HW211487   2.694   1.015   0.929
 3534SOL     OW11488   2.960   1.012   0.111
 3534SOL    HW111489   2.949   1.059   0.028
 3534SOL    HW211490   3.034   0.954   0.097
 3535SOL     OW11491   3.714   1.556   0.841
 3535SOL    HW111492   3.635   1.541   0.789
 3535SOL    HW211493   3.711   1.489   0.910
 3536SOL     OW11494   2.088   1.299   1.852
 3536SOL    HW111495   2.020   1.235   1.829
 3536SOL    HW211496   2.071   1.321   1.943
 3537SOL     OW11497   1.942   1.213   0.663
 3537SOL    HW111498   1.961   1.173   0.747
 3537SOL    HW211499   2.021   1.199   0.611
 3538SOL     OW11500   2.543   1.405   1.627
 3538SOL    HW111501   2.466   1.361   1.664
 3538SOL    HW211502   2.542   1.492   1.665
 3539SOL     OW11503   3.676   0.181   1.244
 3539SOL    HW111504   3.678   0.086   1.252
 3539SOL    HW211505   3.694   0.198   1.151
 3540SOL     OW11506   2.293   0.435   0.532
 3540SOL    HW111507   2.325   0.364   0.478
 3540SOL    HW211508   2.244   0.392   0.602
 3541SOL     OW11509   3.559   1.491   1.096
 3541SOL    HW111510   3.480   1.468   1.046
 3541SOL    HW211511   3.568   1.419   1.159
 3542SOL     OW11512   2.193   0.556   1.294
 3542SOL    HW111513   2.246   0.498   1.348
 3542SOL    HW211514   2.212   0.530   1.204
 3543SOL     OW11515   2.691   1.577   0.676
 3543SOL    HW111516   2.673   1.635   0.602
 3543SOL    HW211517   2.616   1.518   0.679
 3544SOL     OW11518   3.323   0.253   1.110
 3544SOL    HW111519   3.337   0.165   1.145
 3544SOL    HW211520   3.267   0.296   1.175
 3545SOL     OW11521   2.866   0.027   1.146
 3545SOL    HW111522   2.785   3.991   1.111
 3545SOL    HW211523   2.925   3.952   1.155
 3546SOL     OW11524   2.637   1.321   0.322
 3546SOL    HW111525   2.608   1.231   0.339
 3546SOL    HW211526   2.720   1.329   0.369
 3547SOL     OW11527   2.485   1.554   1.285
 3547SOL    HW111528   2.484   1.635   1.335
 3547SOL    HW211529   2.573   1.549   1.248
 3548SOL     OW11530   3.182   0.067   0.126
 3548SOL    HW111531   3.200   3.979   0.094
 3548SOL    HW211532   3.117   0.055   0.195
 3549SOL     OW11533   3.142   0.454   0.683
 3549SOL    HW111534   3.096   0.538   0.677
 3549SOL    HW211535   3.146   0.436   0.777
 3550SOL     OW11536   3.452   0.210   0.867
 3550SOL    HW111537   3.404   0.233   0.946
 3550SOL    HW211538   3.450   0.290   0.814
 3551SOL     OW11539   1.902   1.068   0.310
 3551SOL    HW111540   1.997   1.067   0.310
 3551SOL    HW211541   1.876   0.979   0.331
 3552SOL     OW11542   2.759   1.655   0.343
 3552SOL    HW111543   2.685   1.624   0.291
 3552SOL    HW211544   2.723   1.728   0.395
 3553SOL     OW11545   2.089   0.619   1.983
 3553SOL    HW111546   1.999   0.628   2.015
 3553SOL    HW211547   2.080   0.599   1.890
 3554SOL     OW11548   2.079   0.300   2.853
 3554SOL    HW111549   2.116   0.257   2.930
 3554SOL    HW211550   1.994   0.258   2.840
 3555SOL     OW11551   1.871   0.397   2.495
 3555SOL    HW111552   1.784   0.413   2.533
 3555SOL    HW211553   1.857   0.328   2.430
 3556SOL     OW11554   2.430   1.291   3.039
 3556SOL    HW111555   2.343   1.295   2.997
 3556SOL    HW211556   2.447   1.380   3.068
 3557SOL     OW11557   3.426   1.513   2.570
 3557SOL    HW111558   3.383   1.491   2.653
 3557SOL    HW211559   3.354   1.518   2.506
 3558SOL     OW11560   2.994   0.698   2.559
 3558SOL    HW111561   3.042   0.780   2.546
 3558SOL    HW211562   2.947   0.711   2.641
 3559SOL     OW11563   3.624   0.623   2.088
 3559SOL    HW111564   3.605   0.611   1.995
 3559SOL    HW211565   3.605   0.538   2.127
 3560SOL     OW11566   2.615   1.140   2.906
 3560SOL    HW111567   2.546   1.176   2.963
 3560SOL    HW211568   2.651   1.216   2.862
 3561SOL     OW11569   2.732   0.769   3.686
 3561SOL    HW111570   2.718   0.840   3.749
 3561SOL    HW211571   2.755   0.814   3.604
 3562SOL     OW11572   2.548   1.000   2.507
 3562SOL    HW111573   2.613   0.991   2.577
 3562SOL    HW211574   2.479   1.053   2.546
 3563SOL     OW11575   2.576   1.150   3.677
 3563SOL    HW111576   2.623   1.227   3.707
 3563SOL    HW211577   2.493   1.183   3.642
 3564SOL     OW11578   2.189   1.423   2.929
 3564SOL    HW111579   2.117   1.385   2.879
 3564SOL    HW211580   2.239   1.474   2.865
 3565SOL     OW11581   3.321   1.501   3.220
 3565SOL    HW111582   3.375   1.580   3.229
 3565SOL    HW211583   3.256   1.508   3.289
 3566SOL     OW11584   2.307   0.393   3.354
 3566SOL    HW111585   2.397   0.362   3.354
 3566SOL    HW211586   2.254   0.313   3.363
 3567SOL     OW11587   3.473   0.450   2.597
 3567SOL    HW111588   3.403   0.483   2.540
 3567SOL    HW211589   3.494   0.524   2.654
 3568SOL     OW11590   2.101   1.693   2.344
 3568SOL    HW111591   2.069   1.780   2.365
 3568SOL    HW211592   2.174   1.707   2.284
 3569SOL     OW11593   2.999   1.342   3.556
 3569SOL    HW111594   3.040   1.337   3.642
 3569SOL    HW211595   2.947   1.262   3.549
 3570SOL     OW11596   2.093   1.430   2.401
 3570SOL    HW111597   2.091   1.525   2.393
 3570SOL    HW211598   2.029   1.410   2.470
 3571SOL     OW11599   2.124   1.091   2.754
 3571SOL    HW111600   2.120   1.002   2.790
 3571SOL    HW211601   2.066   1.142   2.810
 3572SOL     OW11602   2.474   1.783   3.296
 3572SOL    HW111603   2.394   1.770   3.347
 3572SOL    HW211604   2.496   1.875   3.310
 3573SOL     OW11605   2.445   0.983   1.998
 3573SOL    HW111606   2.492   1.030   1.930
 3573SOL    HW211607   2.483   1.015   2.080
 3574SOL     OW11608   3.444   0.141   3.318
 3574SOL    HW111609   3.470   0.214   3.262
 3574SOL    HW211610   3.408   0.183   3.396
 3575SOL     OW11611   1.979   0.656   2.422
 3575SOL    HW111612   1.952   0.567   2.446
 3575SOL    HW211613   1.971   0.706   2.504
 3576SOL     OW11614   3.702   1.757   2.197
 3576SOL    HW111615   3.772   1.733   2.259
 3576SOL    HW211616   3.721   1.849   2.176
 3577SOL     OW11617   1.940   1.576   1.965
 3577SOL    HW111618   1.901   1.498   2.005
 3577SOL    HW211619   1.871   1.643   1.971
 3578SOL     OW11620   3.549   0.918   2.508
 3578SOL    HW111621   3.634   0.875   2.491
 3578SOL    HW211622   3.532   0.968   2.428
 3579SOL     OW11623   3.504   1.104   2.294
 3579SOL    HW111624   3.589   1.110   2.249
 3579SOL    HW211625   3.510   1.167   2.365
 3580SOL     OW11626   1.985   0.750   3.442
 3580SOL    HW111627   2.076   0.780   3.447
 3580SOL    HW211628   1.932   0.829   3.450
 3581SOL     OW11629   2.477   1.388   2.596
 3581SOL    HW111630   2.431   1.305   2.605
 3581SOL    HW211631   2.460   1.416   2.506
 3582SOL     OW11632   3.149   1.237   3.284
 3582SOL    HW111633   3.181   1.170   3.224
 3582SOL    HW211634   3.208   1.232   3.360
 3583SOL     OW11635   2.682   0.004   2.379
 3583SOL    HW111636   2.727   0.085   2.354
 3583SOL    HW211637   2.589   0.028   2.379
 3584SOL     OW11638   2.051   0.962   3.135
 3584SOL    HW111639   2.136   0.922   3.121
 3584SOL    HW211640   1.991   0.913   3.079
 3585SOL     OW11641   3.390   0.996   2.063
 3585SOL    HW111642   3.321   0.939   2.096
 3585SOL    HW211643   3.432   1.031   2.141
 3586SOL     OW11644   3.048   1.809   3.486
 3586SOL    HW111645   3.056   1.868   3.411
 3586SOL    HW211646   3.065   1.722   3.450
 3587SOL     OW11647   2.219   0.253   3.701
 3587SOL    HW111648   2.263   0.338   3.701
 3587SOL    HW211649   2.126   0.274   3.705
 3588SOL     OW11650   3.329   1.420   2.811
 3588SOL    HW111651   3.261   1.435   2.878
 3588SOL    HW211652   3.317   1.328   2.786
 3589SOL     OW11653   3.515   1.746   2.441
 3589SOL    HW111654   3.499   1.713   2.352
 3589SOL    HW211655   3.495   1.671   2.498
 3590SOL     OW11656   2.457   0.720   2.130
 3590SOL    HW111657   2.461   0.803   2.083
 3590SOL    HW211658   2.393   0.735   2.199
 3591SOL     OW11659   3.137   0.368   2.803
 3591SOL    HW111660   3.049   0.330   2.810
 3591SOL    HW211661   3.194   0.307   2.848
 3592SOL     OW11662   3.439   1.671   2.172
 3592SOL    HW111663   3.530   1.701   2.165
 3592SOL    HW211664   3.413   1.655   2.081
 3593SOL     OW11665   2.658   0.616   3.314
 3593SOL    HW111666   2.629   0.590   3.402
 3593SOL    HW211667   2.619   0.550   3.256
 3594SOL     OW11668   3.254   0.476   3.539
 3594SOL    HW111669   3.260   0.521   3.623
 3594SOL    HW211670   3.311   0.400   3.549
 3595SOL     OW11671   2.814   0.887   3.446
 3595SOL    HW111672   2.869   0.818   3.409
 3595SOL    HW211673   2.766   0.923   3.371
 3596SOL     OW11674   2.855   0.402   3.100
 3596SOL    HW111675   2.770   0.424   3.140
 3596SOL    HW211676   2.833   0.375   3.011
 3597SOL     OW11677   2.914   0.699   2.287
 3597SOL    HW111678   2.931   0.693   2.381
 3597SOL    HW211679   2.831   0.653   2.274
 3598SOL     OW11680   1.949   0.823   2.639
 3598SOL    HW111681   2.029   0.815   2.690
 3598SOL    HW211682   1.905   0.900   2.674
 3599SOL     OW11683   2.757   0.352   2.061
 3599SOL    HW111684   2.799   0.411   1.999
 3599SOL    HW211685   2.750   0.269   2.015
 3600SOL     OW11686   3.569   0.573   3.691
 3600SOL    HW111687   3.532   0.648   3.644
 3600SOL    HW211688   3.595   0.512   3.623
 3601SOL     OW11689   3.239   1.141   2.402
 3601SOL    HW111690   3.319   1.130   2.351
 3601SOL    HW211691   3.187   1.204   2.352
 3602SOL     OW11692   2.420   0.199   2.743
 3602SOL    HW111693   2.423   0.218   2.836
 3602SOL    HW211694   2.416   0.285   2.701
 3603SOL     OW11695   2.865   1.443   2.333
 3603SOL    HW111696   2.831   1.517   2.282
 3603SOL    HW211697   2.844   1.464   2.423
 3604SOL     OW11698   2.247   1.812   2.690
 3604SOL    HW111699   2.252   1.717   2.704
 3604SOL    HW211700   2.320   1.847   2.741
 3605SOL     OW11701   3.667   1.062   2.729
 3605SOL    HW111702   3.613   1.037   2.654
 3605SOL    HW211703   3.605   1.065   2.803
 3606SOL     OW11704   3.090   1.539   3.375
 3606SOL    HW111705   3.077   1.467   3.436
 3606SOL    HW211706   3.023   1.526   3.308
 3607SOL     OW11707   2.181   0.959   2.115
 3607SOL    HW111708   2.263   0.979   2.070
 3607SOL    HW211709   2.151   0.877   2.076
 3608SOL     OW11710   3.342   0.746   2.590
 3608SOL    HW111711   3.336   0.706   2.677
 3608SOL    HW211712   3.419   0.803   2.596
 3609SOL     OW11713   2.333   1.265   3.606
 3609SOL    HW111714   2.306   1.267   3.514
 3609SOL    HW211715   2.250   1.261   3.654
 3610SOL     OW11716   2.986   1.777   2.093
 3610SOL    HW111717   2.911   1.737   2.136
 3610SOL    HW211718   3.009   1.715   2.024
 3611SOL     OW11719   2.031   0.274   3.361
 3611SOL    HW111720   1.976   0.352   3.351
 3611SOL    HW211721   2.038   0.262   3.456
 3612SOL     OW11722   3.487   1.383   1.949
 3612SOL    HW111723   3.444   1.468   1.934
 3612SOL    HW211724   3.420   1.318   1.930
 3613SOL     OW11725   2.333   1.725   2.197
 3613SOL    HW111726   2.380   1.791   2.248
 3613SOL    HW211727   2.392   1.704   2.125
 3614SOL     OW11728   3.297   0.170   2.264
 3614SOL    HW111729   3.252   0.096   2.223
 3614SOL    HW211730   3.372   0.131   2.308
 3615SOL     OW11731   2.125   1.736   3.114
 3615SOL    HW111732   2.161   1.654   3.148
 3615SOL    HW211733   2.132   1.728   3.019
 3616SOL     OW11734   2.799   1.698   2.760
 3616SOL    HW111735   2.878   1.648   2.781
 3616SOL    HW211736   2.758   1.649   2.689
 3617SOL     OW11737   2.257   0.695   2.336
 3617SOL    HW111738   2.275   0.602   2.349
 3617SOL    HW211739   2.164   0.704   2.354
 3618SOL     OW11740   3.392   0.229   3.589
 3618SOL    HW111741   3.385   0.255   3.681
 3618SOL    HW211742   3.373   0.136   3.588
 3619SOL     OW11743   2.506   0.130   1.970
 3619SOL    HW111744   2.529   0.046   2.010
 3619SOL    HW211745   2.443   0.107   1.901
 3620SOL     OW11746   2.637   0.282   3.630
 3620SOL    HW111747   2.709   0.219   3.634
 3620SOL    HW211748   2.580   0.256   3.702
 3621SOL     OW11749   2.739   1.522   3.055
 3621SOL    HW111750   2.723   1.485   2.968
 3621SOL    HW211751   2.809   1.468   3.092
 3622SOL     OW11752   3.202   0.587   3.292
 3622SOL    HW111753   3.232   0.559   3.379
 3622SOL    HW211754   3.236   0.676   3.283
 3623SOL     OW11755   2.679   1.392   2.804
 3623SOL    HW111756   2.763   1.381   2.761
 3623SOL    HW211757   2.615   1.396   2.733
 3624SOL     OW11758   2.792   0.511   2.762
 3624SOL    HW111759   2.767   0.503   2.670
 3624SOL    HW211760   2.818   0.423   2.788
 3625SOL     OW11761   2.407   0.057   2.353
 3625SOL    HW111762   2.332   0.062   2.413
 3625SOL    HW211763   2.402   0.138   2.302
 3626SOL     OW11764   3.289   1.199   1.902
 3626SOL    HW111765   3.319   1.124   1.953
 3626SOL    HW211766   3.204   1.222   1.940
 3627SOL     OW11767   2.192   0.043   2.073
 3627SOL    HW111768   2.200   0.110   2.005
 3627SOL    HW211769   2.274   0.049   2.122
 3628SOL     OW11770   2.804   0.250   2.322
 3628SOL    HW111771   2.779   0.290   2.238
 3628SOL    HW211772   2.900   0.254   2.323
 3629SOL     OW11773   2.942   0.684   3.321
 3629SOL    HW111774   2.872   0.619   3.327
 3629SOL    HW211775   3.022   0.632   3.315
 3630SOL     OW11776   3.083   1.571   2.656
 3630SOL    HW111777   3.099   1.637   2.589
 3630SOL    HW211778   3.153   1.586   2.721
 3631SOL     OW11779   2.333   1.151   2.593
 3631SOL    HW111780   2.265   1.132   2.657
 3631SOL    HW211781   2.292   1.136   2.508
 3632SOL     OW11782   3.129   1.793   2.472
 3632SOL    HW111783   3.177   1.854   2.416
 3632SOL    HW211784   3.062   1.846   2.514
 3633SOL     OW11785   2.884   0.543   1.890
 3633SOL    HW111786   2.840   0.625   1.871
 3633SOL    HW211787   2.947   0.565   1.958
 3634SOL     OW11788   1.944   0.550   3.258
 3634SOL    HW111789   2.035   0.552   3.229
 3634SOL    HW211790   1.937   0.623   3.320
 3635SOL     OW11791   2.425   0.231   3.022
 3635SOL    HW111792   2.449   0.139   3.033
 3635SOL    HW211793   2.336   0.236   3.055
 3636SOL     OW11794   2.732   0.460   2.500
 3636SOL    HW111795   2.684   0.515   2.437
 3636SOL    HW211796   2.753   0.381   2.451
 3637SOL     OW11797   2.858   0.039   2.642
 3637SOL    HW111798   2.821   0.068   2.559
 3637SOL    HW211799   2.869   3.945   2.632
 3638SOL     OW11800   3.302   1.161   2.720
 3638SOL    HW111801   3.230   1.098   2.718
 3638SOL    HW211802   3.327   1.171   2.628
 3639SOL     OW11803   3.326   0.608   2.836
 3639SOL    HW111804   3.272   0.529   2.841
 3639SOL    HW211805   3.386   0.601   2.910
 3640SOL     OW11806   3.722   0.824   2.237
 3640SOL    HW111807   3.763   0.767   2.301
 3640SOL    HW211808   3.684   0.764   2.173
 3641SOL     OW11809   2.353   1.420   2.017
 3641SOL    HW111810   2.278   1.394   2.069
 3641SOL    HW211811   2.342   1.374   1.934
 3642SOL     OW11812   3.529   1.265   2.506
 3642SOL    HW111813   3.625   1.269   2.516
 3642SOL    HW211814   3.500   1.354   2.527
 3643SOL     OW11815   3.257   0.575   1.931
 3643SOL    HW111816   3.193   0.557   2.000
 3643SOL    HW211817   3.342   0.560   1.972
 3644SOL     OW11818   2.388   0.266   2.178
 3644SOL    HW111819   2.443   0.228   2.110
 3644SOL    HW211820   2.360   0.350   2.141
 3645SOL     OW11821   3.613   1.234   3.428
 3645SOL    HW111822   3.701   1.199   3.411
 3645SOL    HW211823   3.629   1.323   3.458
 3646SOL     OW11824   2.919   1.353   3.194
 3646SOL    HW111825   2.844   1.322   3.245
 3646SOL    HW211826   2.994   1.312   3.236
 3647SOL     OW11827   3.468   1.628   3.518
 3647SOL    HW111828   3.460   1.662   3.429
 3647SOL    HW211829   3.548   1.577   3.517
 3648SOL     OW11830   2.993   1.206   2.966
 3648SOL    HW111831   2.934   1.244   3.030
 3648SOL    HW211832   2.962   1.240   2.882
 3649SOL     OW11833   3.490   1.096   2.937
 3649SOL    HW111834   3.482   1.158   3.009
 3649SOL    HW211835   3.414   1.112   2.882
 3650SOL     OW11836   2.774   0.116   3.263
 3650SOL    HW111837   2.794   0.089   3.174
 3650SOL    HW211838   2.855   0.158   3.294
 3651SOL     OW11839   2.846   1.115   3.586
 3651SOL    HW111840   2.755   1.132   3.608
 3651SOL    HW211841   2.844   1.037   3.530
 3652SOL     OW11842   2.571   1.062   2.232
 3652SOL    HW111843   2.556   1.044   2.325
 3652SOL    HW211844   2.647   1.008   2.209
 3653SOL     OW11845   2.282   0.816   3.114
 3653SOL    HW111846   2.351   0.824   3.180
 3653SOL    HW211847   2.247   0.728   3.126
 3654SOL     OW11848   3.128   0.375   3.138
 3654SOL    HW111849   3.162   0.453   3.182
 3654SOL    HW211850   3.041   0.400   3.108
 3655SOL     OW11851   2.209   1.112   2.352
 3655SOL    HW111852   2.209   1.188   2.294
 3655SOL    HW211853   2.205   1.037   2.293
 3656SOL     OW11854   2.416   0.532   2.718
 3656SOL    HW111855   2.430   0.592   2.645
 3656SOL    HW211856   2.481   0.559   2.784
 3657SOL     OW11857   3.110   1.349   2.252
 3657SOL    HW111858   3.165   1.420   2.283
 3657SOL    HW211859   3.023   1.370   2.285
 3658SOL     OW11860   3.147   1.459   3.010
 3658SOL    HW111861   3.202   1.463   3.087
 3658SOL    HW211862   3.091   1.383   3.024
 3659SOL     OW11863   3.434   0.632   2.347
 3659SOL    HW111864   3.392   0.687   2.414
 3659SOL    HW211865   3.481   0.694   2.291
 3660SOL     OW11866   2.221   1.495   3.182
 3660SOL    HW111867   2.207   1.465   3.092
 3660SOL    HW211868   2.314   1.517   3.185
 3661SOL     OW11869   2.280   0.744   3.464
 3661SOL    HW111870   2.341   0.789   3.406
 3661SOL    HW211871   2.321   0.660   3.482
 3662SOL     OW11872   3.466   0.778   3.545
 3662SOL    HW111873   3.381   0.821   3.539
 3662SOL    HW211874   3.519   0.821   3.478
 3663SOL     OW11875   2.876   0.132   3.642
 3663SOL    HW111876   2.925   0.205   3.605
 3663SOL    HW211877   2.859   0.073   3.568
 3664SOL     OW11878   2.350   0.034   3.624
 3664SOL    HW111879   2.353   0.047   3.529
 3664SOL    HW211880   2.291   0.102   3.656
 3665SOL     OW11881   2.446   0.873   2.894
 3665SOL    HW111882   2.476   0.964   2.894
 3665SOL    HW211883   2.389   0.867   2.970
 3666SOL     OW11884   3.215   0.859   2.888
 3666SOL    HW111885   3.130   0.847   2.845
 3666SOL    HW211886   3.258   0.774   2.880
 3667SOL     OW11887   3.063   0.537   2.120
 3667SOL    HW111888   3.070   0.458   2.173
 3667SOL    HW211889   3.020   0.600   2.177
 3668SOL     OW11890   2.161   0.209   3.105
 3668SOL    HW111891   2.120   0.238   3.186
 3668SOL    HW211892   2.150   0.114   3.105
 3669SOL     OW11893   1.907   1.333   3.154
 3669SOL    HW111894   1.936   1.264   3.214
 3669SOL    HW211895   1.978   1.397   3.155
 3670SOL     OW11896   2.584   0.632   2.914
 3670SOL    HW111897   2.660   0.619   2.857
 3670SOL    HW211898   2.554   0.721   2.896
 3671SOL     OW11899   3.594   0.957   3.724
 3671SOL    HW111900   3.551   0.895   3.665
 3671SOL    HW211901   3.530   0.972   3.794
 3672SOL     OW11902   2.185   0.056   2.513
 3672SOL    HW111903   2.165   0.148   2.525
 3672SOL    HW211904   2.150   0.014   2.592
 3673SOL     OW11905   3.474   0.392   2.241
 3673SOL    HW111906   3.436   0.323   2.296
 3673SOL    HW211907   3.452   0.474   2.287
 3674SOL     OW11908   2.892   0.759   2.821
 3674SOL    HW111909   2.885   0.776   2.915
 3674SOL    HW211910   2.864   0.668   2.811
 3675SOL     OW11911   2.845   1.567   3.581
 3675SOL    HW111912   2.829   1.610   3.498
 3675SOL    HW211913   2.888   1.484   3.558
 3676SOL     OW11914   3.705   1.498   3.460
 3676SOL    HW111915   3.728   1.528   3.372
 3676SOL    HW211916   3.786   1.509   3.511
 3677SOL     OW11917   2.214   0.915   3.671
 3677SOL    HW111918   2.295   0.936   3.717
 3677SOL    HW211919   2.240   0.853   3.603
 3678SOL     OW11920   3.364   0.274   1.996
 3678SOL    HW111921   3.290   0.214   2.007
 3678SOL    HW211922   3.376   0.313   2.083
 3679SOL     OW11923   3.150   0.826   1.890
 3679SOL    HW111924   3.193   0.741   1.894
 3679SOL    HW211925   3.183   0.866   1.810
 3680SOL     OW11926   2.929   1.337   2.718
 3680SOL    HW111927   2.933   1.265   2.655
 3680SOL    HW211928   2.989   1.403   2.682
 3681SOL     OW11929   2.170   0.810   2.808
 3681SOL    HW111930   2.263   0.831   2.801
 3681SOL    HW211931   2.168   0.720   2.840
 3682SOL     OW11932   2.198   0.536   2.876
 3682SOL    HW111933   2.157   0.451   2.860
 3682SOL    HW211934   2.274   0.537   2.818
 3683SOL     OW11935   2.995   0.381   3.559
 3683SOL    HW111936   2.946   0.435   3.620
 3683SOL    HW211937   3.081   0.421   3.554
 3684SOL     OW11938   3.013   0.226   3.343
 3684SOL    HW111939   3.004   0.280   3.422
 3684SOL    HW211940   3.038   0.288   3.274
 3685SOL     OW11941   1.866   1.319   2.057
 3685SOL    HW111942   1.778   1.333   2.020
 3685SOL    HW211943   1.863   1.230   2.092
 3686SOL     OW11944   2.360   1.568   2.773
 3686SOL    HW111945   2.426   1.635   2.791
 3686SOL    HW211946   2.403   1.508   2.712
 3687SOL     OW11947   2.841   0.788   3.086
 3687SOL    HW111948   2.897   0.769   3.161
 3687SOL    HW211949   2.755   0.753   3.111
 3688SOL     OW11950   1.895   0.547   2.979
 3688SOL    HW111951   1.970   0.523   2.925
 3688SOL    HW211952   1.929   0.547   3.068
 3689SOL     OW11953   2.065   0.526   3.574
 3689SOL    HW111954   2.136   0.506   3.513
 3689SOL    HW211955   2.021   0.602   3.535
 3690SOL     OW11956   3.242   0.936   3.519
 3690SOL    HW111957   3.263   1.030   3.517
 3690SOL    HW211958   3.237   0.910   3.427
 3691SOL     OW11959   2.679   0.572   2.226
 3691SOL    HW111960   2.685   0.497   2.167
 3691SOL    HW211961   2.604   0.623   2.193
 3692SOL     OW11962   3.501   0.602   3.045
 3692SOL    HW111963   3.491   0.542   3.118
 3692SOL    HW211964   3.588   0.581   3.009
 3693SOL     OW11965   2.088   1.560   3.602
 3693SOL    HW111966   2.048   1.592   3.683
 3693SOL    HW211967   2.114   1.470   3.623
 3694SOL     OW11968   2.570   0.453   3.118
 3694SOL    HW111969   2.519   0.376   3.093
 3694SOL    HW211970   2.561   0.513   3.044
 3695SOL     OW11971   2.789   1.678   3.331
 3695SOL    HW111972   2.761   1.642   3.246
 3695SOL    HW211973   2.783   1.773   3.319
 3696SOL     OW11974   2.325   0.494   2.045
 3696SOL    HW111975   2.383   0.566   2.069
 3696SOL    HW211976   2.239   0.534   2.033
 3697SOL     OW11977   2.004   1.141   3.331
 3697SOL    HW111978   2.007   1.092   3.414
 3697SOL    HW211979   2.021   1.075   3.264
 3698SOL     OW11980   3.184   1.044   3.084
 3698SOL    HW111981   3.207   0.982   3.015
 3698SOL    HW211982   3.116   1.099   3.044
 3699SOL     OW11983   3.176   0.854   2.167
 3699SOL    HW111984   3.100   0.827   2.219
 3699SOL    HW211985   3.148   0.843   2.076
 3700SOL     OW11986   3.642   1.741   3.019
 3700SOL    HW111987   3.697   1.769   2.946
 3700SOL    HW211988   3.613   1.654   2.995
 3701SOL     OW11989   3.103   1.733   2.972
 3701SOL    HW111990   3.185   1.756   2.928
 3701SOL    HW211991   3.110   1.640   2.991
 3702SOL     OW11992   1.952   1.253   2.889
 3702SOL    HW111993   1.922   1.275   2.977
 3702SOL    HW211994   1.874   1.217   2.846
 3703SOL     OW11995   2.541   1.665   3.594
 3703SOL    HW111996   2.488   1.744   3.598
 3703SOL    HW211997   2.605   1.683   3.525
 3704SOL     OW11998   3.551   0.120   2.349
 3704SOL    HW111999   3.632   0.135   2.301
 3704SOL    HW212000   3.553   0.026   2.371
 3705SOL     OW12001   3.253   1.567   2.350
 3705SOL    HW112002   3.312   1.600   2.282
 3705SOL    HW212003   3.203   1.644   2.378
 3706SOL     OW12004   3.139   0.926   2.532
 3706SOL    HW112005   3.214   0.867   2.543
 3706SOL    HW212006   3.173   0.999   2.480
 3707SOL     OW12007   2.672   1.274   3.289
 3707SOL    HW112008   2.644   1.314   3.371
 3707SOL    HW212009   2.603   1.297   3.226
 3708SOL     OW12010   2.534   1.623   2.015
 3708SOL    HW112011   2.545   1.634   1.921
 3708SOL    HW212012   2.478   1.546   2.024
 3709SOL     OW12013   3.482   1.727   3.253
 3709SOL    HW112014   3.537   1.732   3.175
 3709SOL    HW212015   3.469   1.818   3.279
 3710SOL     OW12016   3.703   0.182   2.833
 3710SOL    HW112017   3.727   0.097   2.795
 3710SOL    HW212018   3.617   0.201   2.796
 3711SOL     OW12019   2.126   0.316   2.577
 3711SOL    HW112020   2.039   0.351   2.555
 3711SOL    HW212021   2.125   0.308   2.672
 3712SOL     OW12022   3.070   1.604   1.894
 3712SOL    HW112023   3.059   1.513   1.921
 3712SOL    HW212024   3.004   1.617   1.826
 3713SOL     OW12025   2.686   1.006   3.235
 3713SOL    HW112026   2.728   1.002   3.149
 3713SOL    HW212027   2.684   1.099   3.256
 3714SOL     OW12028   2.778   0.910   2.152
 3714SOL    HW112029   2.839   0.943   2.086
 3714SOL    HW212030   2.827   0.842   2.198
 3715SOL     OW12031   3.351   1.628   1.905
 3715SOL    HW112032   3.257   1.619   1.891
 3715SOL    HW212033   3.389   1.634   1.817
 3716SOL     OW12034   2.230   1.294   3.364
 3716SOL    HW112035   2.227   1.366   3.301
 3716SOL    HW212036   2.153   1.242   3.343
 3717SOL     OW12037   3.463   1.280   3.139
 3717SOL    HW112038   3.531   1.272   3.206
 3717SOL    HW212039   3.406   1.349   3.172
 3718SOL     OW12040   2.918   1.109   2.570
 3718SOL    HW112041   2.846   1.058   2.608
 3718SOL    HW212042   2.981   1.043   2.541
 3719SOL     OW12043   2.877   0.249   2.831
 3719SOL    HW112044   2.867   0.198   2.751
 3719SOL    HW212045   2.872   0.183   2.901
 3720SOL     OW12046   2.466   1.491   2.342
 3720SOL    HW112047   2.509   1.441   2.273
 3720SOL    HW212048   2.397   1.540   2.298
 3721SOL     OW12049   3.582   0.394   3.234
 3721SOL    HW112050   3.654   0.457   3.234
 3721SOL    HW212051   3.614   0.321   3.180
 3722SOL     OW12052   2.122   1.341   2.151
 3722SOL    HW112053   2.029   1.340   2.128
 3722SOL    HW212054   2.124   1.377   2.240
 3723SOL     OW12055   1.975   1.027   3.581
 3723SOL    HW112056   1.899   1.002   3.633
 3723SOL    HW212057   2.049   0.988   3.627
 3724SOL     OW12058   2.555   0.254   3.363
 3724SOL    HW112059   2.622   0.200   3.322
 3724SOL    HW212060   2.582   0.261   3.455
 3725SOL     OW12061   1.962   0.317   1.854
 3725SOL    HW112062   1.894   0.337   1.918
 3725SOL    HW212063   1.970   0.398   1.803
 3726SOL     OW12064   3.287   0.856   3.260
 3726SOL    HW112065   3.238   0.919   3.207
 3726SOL    HW212066   3.376   0.859   3.224
 3727SOL     OW12067   1.943   0.152   2.202
 3727SOL    HW112068   1.912   0.211   2.133
 3727SOL    HW212069   2.029   0.124   2.172
 3728SOL     OW12070   3.040   1.337   1.979
 3728SOL    HW112071   2.949   1.307   1.982
 3728SOL    HW212072   3.067   1.338   2.071
 3729SOL     OW12073   2.483   0.829   3.296
 3729SOL    HW112074   2.540   0.905   3.281
 3729SOL    HW212075   2.544   0.755   3.305
 3730SOL     OW12076   3.344   1.781   2.842
 3730SOL    HW112077   3.367   1.843   2.773
 3730SOL    HW212078   3.428   1.754   2.879
 3731SOL     OW12079   2.580   0.561   3.566
 3731SOL    HW112080   2.622   0.624   3.625
 3731SOL    HW212081   2.606   0.475   3.600
 3732SOL     OW12082   3.335   1.197   3.492
 3732SOL    HW112083   3.323   1.212   3.586
 3732SOL    HW212084   3.428   1.213   3.477
 3733SOL     OW12085   2.239   1.737   3.438
 3733SOL    HW112086   2.175   1.750   3.368
 3733SOL    HW212087   2.203   1.663   3.489
 3734SOL     OW12088   3.526   0.881   3.121
 3734SOL    HW112089   3.525   0.796   3.077
 3734SOL    HW212090   3.520   0.944   3.050
 3735SOL     OW12091   3.082   0.337   2.305
 3735SOL    HW112092   3.151   0.271   2.296
 3735SOL    HW212093   3.103   0.381   2.387
 3736SOL     OW12094   2.451   0.736   2.533
 3736SOL    HW112095   2.490   0.822   2.518
 3736SOL    HW212096   2.385   0.728   2.465
 3737SOL     OW12097   3.617   0.381   3.504
 3737SOL    HW112098   3.595   0.390   3.411
 3737SOL    HW212099   3.556   0.314   3.536
 3738SOL     OW12100   3.616   0.930   3.375
 3738SOL    HW112101   3.607   1.024   3.393
 3738SOL    HW212102   3.592   0.920   3.283
 3739SOL     OW12103   2.724   1.366   1.899
 3739SOL    HW112104   2.687   1.393   1.984
 3739SOL    HW212105   2.741   1.449   1.854
 3740SOL     OW12106   2.525   1.792   2.798
 3740SOL    HW112107   2.517   1.888   2.792
 3740SOL    HW212108   2.619   1.776   2.798
 3741SOL     OW12109   2.730   0.969   2.717
 3741SOL    HW112110   2.781   0.897   2.755
 3741SOL    HW212111   2.694   1.016   2.792
 3742SOL     OW12112   2.940   0.989   1.951
 3742SOL    HW112113   2.918   1.040   1.874
 3742SOL    HW212114   3.014   0.935   1.924
 3743SOL     OW12115   3.714   1.556   2.703
 3743SOL    HW112116   3.635   1.540   2.652
 3743SOL    HW212117   3.713   1.489   2.771
 3744SOL     OW12118   2.089   1.299   3.714
 3744SOL    HW112119   2.021   1.236   3.691
 3744SOL    HW212120   2.072   1.320   3.806
 3745SOL     OW12121   1.942   1.216   2.524
 3745SOL    HW112122   1.961   1.176   2.609
 3745SOL    HW212123   2.018   1.195   2.470
 3746SOL     OW12124   2.543   1.405   3.489
 3746SOL    HW112125   2.466   1.361   3.526
 3746SOL    HW212126   2.542   1.493   3.527
 3747SOL     OW12127   3.676   0.181   3.106
 3747SOL    HW112128   3.678   0.086   3.115
 3747SOL    HW212129   3.694   0.198   3.014
 3748SOL     OW12130   2.290   0.434   2.387
 3748SOL    HW112131   2.324   0.363   2.334
 3748SOL    HW212132   2.243   0.391   2.458
 3749SOL     OW12133   3.558   1.491   2.958
 3749SOL    HW112134   3.480   1.468   2.909
 3749SOL    HW212135   3.568   1.419   3.021
 3750SOL     OW12136   2.193   0.556   3.156
 3750SOL    HW112137   2.246   0.498   3.210
 3750SOL    HW212138   2.212   0.530   3.066
 3751SOL     OW12139   2.691   1.577   2.538
 3751SOL    HW112140   2.674   1.634   2.464
 3751SOL    HW212141   2.616   1.518   2.541
 3752SOL     OW12142   3.323   0.253   2.972
 3752SOL    HW112143   3.337   0.165   3.008
 3752SOL    HW212144   3.267   0.296   3.037
 3753SOL     OW12145   2.866   0.027   3.008
 3753SOL    HW112146   2.785   3.991   2.972
 3753SOL    HW212147   2.925   3.952   3.017
 3754SOL     OW12148   2.636   1.333   2.178
 3754SOL    HW112149   2.606   1.243   2.186
 3754SOL    HW212150   2.716   1.336   2.230
 3755SOL     OW12151   2.485   1.554   3.146
 3755SOL    HW112152   2.484   1.635   3.196
 3755SOL    HW212153   2.573   1.549   3.109
 3756SOL     OW12154   3.173   0.071   2.021
 3756SOL    HW112155   3.179   3.989   1.972
 3756SOL    HW212156   3.088   0.066   2.066
 3757SOL     OW12157   3.143   0.457   2.547
 3757SOL    HW112158   3.097   0.540   2.542
 3757SOL    HW212159   3.146   0.437   2.641
 3758SOL     OW12160   3.452   0.210   2.729
 3758SOL    HW112161   3.404   0.234   2.808
 3758SOL    HW212162   3.451   0.290   2.676
 3759SOL     OW12163   1.905   1.069   2.167
 3759SOL    HW112164   1.999   1.063   2.151
 3759SOL    HW212165   1.878   0.981   2.192
 3760SOL     OW12166   2.750   1.655   2.201
 3760SOL    HW112167   2.675   1.639   2.142
 3760SOL    HW212168   2.722   1.728   2.255
 3761SOL     OW12169   2.089   0.619   3.845
 3761SOL    HW112170   1.999   0.628   3.877
 3761SOL    HW212171   2.080   0.599   3.752
 3762SOL     OW12172   2.079   0.300   4.715
 3762SOL    HW112173   2.116   0.257   4.792
 3762SOL    HW212174   1.994   0.258   4.702
 3763SOL     OW12175   1.871   0.397   4.357
 3763SOL    HW112176   1.784   0.413   4.395
 3763SOL    HW212177   1.857   0.329   4.292
 3764SOL     OW12178   2.429   1.291   4.901
 3764SOL    HW112179   2.343   1.296   4.859
 3764SOL    HW212180   2.447   1.380   4.931
 3765SOL     OW12181   3.426   1.513   4.432
 3765SOL    HW112182   3.383   1.491   4.515
 3765SOL    HW212183   3.354   1.518   4.368
 3766SOL     OW12184   2.995   0.698   4.421
 3766SOL    HW112185   3.042   0.780   4.408
 3766SOL    HW212186   2.947   0.711   4.503
 3767SOL     OW12187   3.624   0.623   3.950
 3767SOL    HW112188   3.605   0.612   3.857
 3767SOL    HW212189   3.605   0.538   3.989
 3768SOL     OW12190   2.614   1.140   4.768
 3768SOL    HW112191   2.546   1.176   4.825
 3768SOL    HW212192   2.651   1.216   4.724
 3769SOL     OW12193   2.733   0.769   5.547
 3769SOL    HW112194   2.717   0.841   5.609
 3769SOL    HW212195   2.755   0.814   5.465
 3770SOL     OW12196   2.548   1.000   4.369
 3770SOL    HW112197   2.613   0.991   4.439
 3770SOL    HW212198   2.479   1.053   4.408
 3771SOL     OW12199   2.575   1.150   5.540
 3771SOL    HW112200   2.623   1.228   5.568
 3771SOL    HW212201   2.493   1.185   5.505
 3772SOL     OW12202   2.189   1.424   4.791
 3772SOL    HW112203   2.117   1.385   4.741
 3772SOL    HW212204   2.239   1.474   4.727
 3773SOL     OW12205   3.321   1.501   5.082
 3773SOL    HW112206   3.375   1.580   5.091
 3773SOL    HW212207   3.255   1.509   5.151
 3774SOL     OW12208   2.307   0.393   5.217
 3774SOL    HW112209   2.397   0.362   5.216
 3774SOL    HW212210   2.254   0.314   5.225
 3775SOL     OW12211   3.473   0.450   4.459
 3775SOL    HW112212   3.403   0.483   4.402
 3775SOL    HW212213   3.494   0.524   4.516
 3776SOL     OW12214   2.101   1.694   4.206
 3776SOL    HW112215   2.067   1.782   4.221
 3776SOL    HW212216   2.174   1.707   4.146
 3777SOL     OW12217   2.999   1.342   5.416
 3777SOL    HW112218   3.040   1.337   5.503
 3777SOL    HW212219   2.947   1.262   5.410
 3778SOL     OW12220   2.092   1.431   4.263
 3778SOL    HW112221   2.091   1.526   4.256
 3778SOL    HW212222   2.029   1.411   4.332
 3779SOL     OW12223   2.124   1.091   4.616
 3779SOL    HW112224   2.119   1.002   4.652
 3779SOL    HW212225   2.066   1.142   4.672
 3780SOL     OW12226   2.474   1.784   5.156
 3780SOL    HW112227   2.395   1.769   5.209
 3780SOL    HW212228   2.496   1.876   5.171
 3781SOL     OW12229   2.445   0.983   3.860
 3781SOL    HW112230   2.492   1.030   3.792
 3781SOL    HW212231   2.483   1.015   3.942
 3782SOL     OW12232   3.444   0.141   5.180
 3782SOL    HW112233   3.470   0.213   5.124
 3782SOL    HW212234   3.408   0.183   5.258
 3783SOL     OW12235   1.979   0.656   4.284
 3783SOL    HW112236   1.952   0.568   4.308
 3783SOL    HW212237   1.971   0.706   4.366
 3784SOL     OW12238   3.702   1.757   4.059
 3784SOL    HW112239   3.772   1.733   4.121
 3784SOL    HW212240   3.721   1.849   4.038
 3785SOL     OW12241   1.939   1.575   3.830
 3785SOL    HW112242   1.904   1.494   3.866
 3785SOL    HW212243   1.868   1.638   3.838
 3786SOL     OW12244   3.549   0.918   4.370
 3786SOL    HW112245   3.634   0.875   4.353
 3786SOL    HW212246   3.532   0.968   4.290
 3787SOL     OW12247   3.504   1.104   4.156
 3787SOL    HW112248   3.589   1.110   4.111
 3787SOL    HW212249   3.510   1.167   4.227
 3788SOL     OW12250   1.984   0.750   5.305
 3788SOL    HW112251   2.074   0.782   5.310
 3788SOL    HW212252   1.931   0.829   5.311
 3789SOL     OW12253   2.477   1.389   4.458
 3789SOL    HW112254   2.431   1.305   4.467
 3789SOL    HW212255   2.459   1.416   4.368
 3790SOL     OW12256   3.149   1.237   5.146
 3790SOL    HW112257   3.181   1.170   5.086
 3790SOL    HW212258   3.208   1.232   5.221
 3791SOL     OW12259   2.682   0.004   4.241
 3791SOL    HW112260   2.727   0.084   4.216
 3791SOL    HW212261   2.589   0.028   4.241
 3792SOL     OW12262   2.050   0.962   4.998
 3792SOL    HW112263   2.136   0.922   4.983
 3792SOL    HW212264   1.991   0.913   4.941
 3793SOL     OW12265   3.390   0.996   3.925
 3793SOL    HW112266   3.321   0.939   3.958
 3793SOL    HW212267   3.432   1.031   4.003
 3794SOL     OW12268   3.050   1.809   5.347
 3794SOL    HW112269   3.056   1.868   5.272
 3794SOL    HW212270   3.065   1.722   5.311
 3795SOL     OW12271   2.219   0.253   5.564
 3795SOL    HW112272   2.263   0.337   5.562
 3795SOL    HW212273   2.126   0.274   5.568
 3796SOL     OW12274   3.329   1.420   4.674
 3796SOL    HW112275   3.261   1.435   4.740
 3796SOL    HW212276   3.317   1.328   4.648
 3797SOL     OW12277   3.515   1.746   4.303
 3797SOL    HW112278   3.499   1.713   4.214
 3797SOL    HW212279   3.495   1.671   4.360
 3798SOL     OW12280   2.457   0.720   3.992
 3798SOL    HW112281   2.461   0.803   3.945
 3798SOL    HW212282   2.393   0.735   4.061
 3799SOL     OW12283   3.137   0.368   4.665
 3799SOL    HW112284   3.049   0.330   4.672
 3799SOL    HW212285   3.194   0.307   4.710
 3800SOL     OW12286   3.439   1.671   4.034
 3800SOL    HW112287   3.530   1.701   4.027
 3800SOL    HW212288   3.413   1.655   3.943
 3801SOL     OW12289   2.658   0.616   5.176
 3801SOL    HW112290   2.629   0.590   5.264
 3801SOL    HW212291   2.619   0.550   5.118
 3802SOL     OW12292   3.254   0.476   5.401
 3802SOL    HW112293   3.260   0.521   5.485
 3802SOL    HW212294   3.311   0.400   5.411
 3803SOL     OW12295   2.814   0.887   5.308
 3803SOL    HW112296   2.869   0.818   5.271
 3803SOL    HW212297   2.766   0.923   5.233
 3804SOL     OW12298   2.854   0.402   4.962
 3804SOL    HW112299   2.770   0.423   5.001
 3804SOL    HW212300   2.834   0.375   4.873
 3805SOL     OW12301   2.914   0.699   4.149
 3805SOL    HW112302   2.931   0.693   4.243
 3805SOL    HW212303   2.831   0.653   4.136
 3806SOL     OW12304   1.949   0.822   4.501
 3806SOL    HW112305   2.029   0.815   4.552
 3806SOL    HW212306   1.904   0.900   4.536
 3807SOL     OW12307   2.757   0.352   3.923
 3807SOL    HW112308   2.799   0.412   3.861
 3807SOL    HW212309   2.750   0.269   3.877
 3808SOL     OW12310   3.570   0.574   5.554
 3808SOL    HW112311   3.533   0.648   5.506
 3808SOL    HW212312   3.595   0.512   5.485
 3809SOL     OW12313   3.239   1.141   4.264
 3809SOL    HW112314   3.319   1.130   4.213
 3809SOL    HW212315   3.187   1.204   4.214
 3810SOL     OW12316   2.420   0.199   4.605
 3810SOL    HW112317   2.423   0.218   4.698
 3810SOL    HW212318   2.416   0.285   4.563
 3811SOL     OW12319   2.865   1.443   4.194
 3811SOL    HW112320   2.831   1.517   4.144
 3811SOL    HW212321   2.843   1.464   4.285
 3812SOL     OW12322   2.246   1.814   4.548
 3812SOL    HW112323   2.251   1.719   4.562
 3812SOL    HW212324   2.317   1.851   4.600
 3813SOL     OW12325   3.667   1.062   4.591
 3813SOL    HW112326   3.613   1.037   4.516
 3813SOL    HW212327   3.605   1.065   4.665
 3814SOL     OW12328   3.090   1.539   5.237
 3814SOL    HW112329   3.077   1.467   5.298
 3814SOL    HW212330   3.023   1.527   5.170
 3815SOL     OW12331   2.181   0.960   3.977
 3815SOL    HW112332   2.263   0.979   3.932
 3815SOL    HW212333   2.151   0.877   3.938
 3816SOL     OW12334   3.342   0.746   4.452
 3816SOL    HW112335   3.336   0.706   4.539
 3816SOL    HW212336   3.419   0.803   4.457
 3817SOL     OW12337   2.328   1.266   5.471
 3817SOL    HW112338   2.302   1.269   5.379
 3817SOL    HW212339   2.245   1.257   5.519
 3818SOL     OW12340   2.986   1.777   3.955
 3818SOL    HW112341   2.911   1.737   3.998
 3818SOL    HW212342   3.009   1.715   3.886
 3819SOL     OW12343   2.031   0.274   5.223
 3819SOL    HW112344   1.977   0.352   5.212
 3819SOL    HW212345   2.038   0.263   5.318
 3820SOL     OW12346   3.487   1.383   3.811
 3820SOL    HW112347   3.444   1.468   3.796
 3820SOL    HW212348   3.420   1.318   3.792
 3821SOL     OW12349   2.334   1.723   4.060
 3821SOL    HW112350   2.380   1.791   4.109
 3821SOL    HW212351   2.392   1.703   3.986
 3822SOL     OW12352   3.297   0.170   4.126
 3822SOL    HW112353   3.252   0.096   4.085
 3822SOL    HW212354   3.372   0.131   4.170
 3823SOL     OW12355   2.122   1.736   4.971
 3823SOL    HW112356   2.159   1.656   5.007
 3823SOL    HW212357   2.129   1.726   4.876
 3824SOL     OW12358   2.799   1.698   4.622
 3824SOL    HW112359   2.878   1.648   4.643
 3824SOL    HW212360   2.758   1.649   4.551
 3825SOL     OW12361   2.257   0.695   4.198
 3825SOL    HW112362   2.275   0.602   4.211
 3825SOL    HW212363   2.164   0.704   4.216
 3826SOL     OW12364   3.392   0.229   5.451
 3826SOL    HW112365   3.385   0.254   5.543
 3826SOL    HW212366   3.373   0.136   5.450
 3827SOL     OW12367   2.506   0.130   3.832
 3827SOL    HW112368   2.529   0.046   3.872
 3827SOL    HW212369   2.443   0.107   3.763
 3828SOL     OW12370   2.637   0.282   5.492
 3828SOL    HW112371   2.709   0.218   5.496
 3828SOL    HW212372   2.579   0.256   5.564
 3829SOL     OW12373   2.739   1.522   4.917
 3829SOL    HW112374   2.723   1.485   4.830
 3829SOL    HW212375   2.809   1.468   4.953
 3830SOL     OW12376   3.202   0.587   5.154
 3830SOL    HW112377   3.232   0.559   5.241
 3830SOL    HW212378   3.236   0.676   5.145
 3831SOL     OW12379   2.679   1.392   4.666
 3831SOL    HW112380   2.763   1.380   4.623
 3831SOL    HW212381   2.615   1.396   4.595
 3832SOL     OW12382   2.792   0.511   4.624
 3832SOL    HW112383   2.767   0.503   4.532
 3832SOL    HW212384   2.818   0.423   4.650
 3833SOL     OW12385   2.407   0.057   4.215
 3833SOL    HW112386   2.332   0.062   4.275
 3833SOL    HW212387   2.402   0.138   4.164
 3834SOL     OW12388   3.289   1.199   3.764
 3834SOL    HW112389   3.319   1.124   3.815
 3834SOL    HW212390   3.204   1.222   3.802
 3835SOL     OW12391   2.192   0.043   3.935
 3835SOL    HW112392   2.200   0.110   3.867
 3835SOL    HW212393   2.274   0.049   3.984
 3836SOL     OW12394   2.804   0.250   4.184
 3836SOL    HW112395   2.779   0.290   4.100
 3836SOL    HW212396   2.900   0.254   4.185
 3837SOL     OW12397   2.942   0.684   5.183
 3837SOL    HW112398   2.872   0.619   5.189
 3837SOL    HW212399   3.022   0.632   5.177
 3838SOL     OW12400   3.083   1.571   4.518
 3838SOL    HW112401   3.099   1.637   4.450
 3838SOL    HW212402   3.153   1.586   4.583
 3839SOL     OW12403   2.333   1.151   4.455
 3839SOL    HW112404   2.265   1.132   4.519
 3839SOL    HW212405   2.292   1.136   4.370
 3840SOL     OW12406   3.129   1.793   4.334
 3840SOL    HW112407   3.177   1.854   4.278
 3840SOL    HW212408   3.062   1.846   4.376
 3841SOL     OW12409   2.884   0.543   3.752
 3841SOL    HW112410   2.840   0.625   3.733
 3841SOL    HW212411   2.947   0.565   3.820
 3842SOL     OW12412   1.944   0.550   5.121
 3842SOL    HW112413   2.035   0.553   5.091
 3842SOL    HW212414   1.937   0.623   5.182
 3843SOL     OW12415   2.425   0.231   4.885
 3843SOL    HW112416   2.449   0.139   4.894
 3843SOL    HW212417   2.336   0.236   4.917
 3844SOL     OW12418   2.732   0.460   4.362
 3844SOL    HW112419   2.684   0.515   4.299
 3844SOL    HW212420   2.753   0.381   4.313
 3845SOL     OW12421   2.858   0.039   4.504
 3845SOL    HW112422   2.822   0.068   4.421
 3845SOL    HW212423   2.869   3.945   4.494
 3846SOL     OW12424   3.302   1.161   4.582
 3846SOL    HW112425   3.229   1.099   4.580
 3846SOL    HW212426   3.327   1.171   4.490
 3847SOL     OW12427   3.326   0.608   4.698
 3847SOL    HW112428   3.272   0.529   4.703
 3847SOL    HW212429   3.386   0.601   4.772
 3848SOL     OW12430   3.722   0.824   4.099
 3848SOL    HW112431   3.763   0.767   4.163
 3848SOL    HW212432   3.684   0.764   4.035
 3849SOL     OW12433   2.354   1.420   3.879
 3849SOL    HW112434   2.278   1.394   3.932
 3849SOL    HW212435   2.342   1.374   3.796
 3850SOL     OW12436   3.529   1.265   4.368
 3850SOL    HW112437   3.624   1.269   4.378
 3850SOL    HW212438   3.500   1.354   4.389
 3851SOL     OW12439   3.257   0.575   3.793
 3851SOL    HW112440   3.193   0.557   3.862
 3851SOL    HW212441   3.342   0.560   3.834
 3852SOL     OW12442   2.388   0.266   4.040
 3852SOL    HW112443   2.443   0.228   3.972
 3852SOL    HW212444   2.360   0.350   4.003
 3853SOL     OW12445   3.614   1.234   5.290
 3853SOL    HW112446   3.701   1.199   5.273
 3853SOL    HW212447   3.629   1.323   5.320
 3854SOL     OW12448   2.919   1.353   5.056
 3854SOL    HW112449   2.844   1.322   5.107
 3854SOL    HW212450   2.994   1.312   5.098
 3855SOL     OW12451   3.468   1.628   5.380
 3855SOL    HW112452   3.460   1.662   5.291
 3855SOL    HW212453   3.549   1.576   5.378
 3856SOL     OW12454   2.993   1.205   4.827
 3856SOL    HW112455   2.934   1.244   4.892
 3856SOL    HW212456   2.962   1.240   4.744
 3857SOL     OW12457   3.490   1.096   4.799
 3857SOL    HW112458   3.481   1.158   4.871
 3857SOL    HW212459   3.414   1.112   4.744
 3858SOL     OW12460   2.774   0.116   5.125
 3858SOL    HW112461   2.794   0.089   5.036
 3858SOL    HW212462   2.855   0.158   5.156
 3859SOL     OW12463   2.847   1.114   5.448
 3859SOL    HW112464   2.755   1.132   5.470
 3859SOL    HW212465   2.843   1.037   5.393
 3860SOL     OW12466   2.571   1.062   4.094
 3860SOL    HW112467   2.556   1.044   4.187
 3860SOL    HW212468   2.647   1.008   4.071
 3861SOL     OW12469   2.282   0.816   4.976
 3861SOL    HW112470   2.351   0.824   5.042
 3861SOL    HW212471   2.247   0.728   4.988
 3862SOL     OW12472   3.128   0.375   5.000
 3862SOL    HW112473   3.162   0.453   5.044
 3862SOL    HW212474   3.041   0.400   4.970
 3863SOL     OW12475   2.209   1.112   4.214
 3863SOL    HW112476   2.209   1.188   4.156
 3863SOL    HW212477   2.205   1.037   4.155
 3864SOL     OW12478   2.416   0.532   4.580
 3864SOL    HW112479   2.429   0.592   4.507
 3864SOL    HW212480   2.481   0.559   4.646
 3865SOL     OW12481   3.110   1.349   4.114
 3865SOL    HW112482   3.165   1.420   4.145
 3865SOL    HW212483   3.023   1.370   4.147
 3866SOL     OW12484   3.147   1.459   4.872
 3866SOL    HW112485   3.203   1.463   4.949
 3866SOL    HW212486   3.091   1.383   4.886
 3867SOL     OW12487   3.434   0.632   4.209
 3867SOL    HW112488   3.392   0.687   4.276
 3867SOL    HW212489   3.481   0.694   4.153
 3868SOL     OW12490   2.221   1.496   5.044
 3868SOL    HW112491   2.206   1.466   4.955
 3868SOL    HW212492   2.314   1.519   5.047
 3869SOL     OW12493   2.281   0.741   5.324
 3869SOL    HW112494   2.342   0.787   5.266
 3869SOL    HW212495   2.323   0.657   5.341
 3870SOL     OW12496   3.466   0.778   5.407
 3870SOL    HW112497   3.381   0.821   5.401
 3870SOL    HW212498   3.519   0.821   5.340
 3871SOL     OW12499   2.876   0.131   5.504
 3871SOL    HW112500   2.925   0.204   5.466
 3871SOL    HW212501   2.859   0.073   5.430
 3872SOL     OW12502   2.350   0.034   5.486
 3872SOL    HW112503   2.352   0.047   5.391
 3872SOL    HW212504   2.291   0.102   5.518
 3873SOL     OW12505   2.446   0.873   4.756
 3873SOL    HW112506   2.476   0.964   4.756
 3873SOL    HW212507   2.389   0.867   4.832
 3874SOL     OW12508   3.215   0.859   4.750
 3874SOL    HW112509   3.130   0.847   4.707
 3874SOL    HW212510   3.258   0.773   4.742
 3875SOL     OW12511   3.063   0.537   3.982
 3875SOL    HW112512   3.070   0.458   4.035
 3875SOL    HW212513   3.020   0.600   4.039
 3876SOL     OW12514   2.161   0.209   4.967
 3876SOL    HW112515   2.120   0.238   5.048
 3876SOL    HW212516   2.150   0.114   4.967
 3877SOL     OW12517   1.907   1.333   5.015
 3877SOL    HW112518   1.936   1.264   5.076
 3877SOL    HW212519   1.978   1.398   5.018
 3878SOL     OW12520   2.584   0.632   4.776
 3878SOL    HW112521   2.660   0.619   4.719
 3878SOL    HW212522   2.554   0.721   4.758
 3879SOL     OW12523   3.595   0.956   5.587
 3879SOL    HW112524   3.551   0.896   5.527
 3879SOL    HW212525   3.530   0.972   5.656
 3880SOL     OW12526   2.185   0.056   4.375
 3880SOL    HW112527   2.165   0.148   4.387
 3880SOL    HW212528   2.150   0.014   4.454
 3881SOL     OW12529   3.474   0.392   4.103
 3881SOL    HW112530   3.436   0.323   4.158
 3881SOL    HW212531   3.452   0.474   4.149
 3882SOL     OW12532   2.892   0.759   4.683
 3882SOL    HW112533   2.885   0.776   4.776
 3882SOL    HW212534   2.864   0.668   4.673
 3883SOL     OW12535   2.845   1.567   5.442
 3883SOL    HW112536   2.829   1.611   5.358
 3883SOL    HW212537   2.887   1.485   5.419
 3884SOL     OW12538   3.705   1.498   5.322
 3884SOL    HW112539   3.728   1.528   5.234
 3884SOL    HW212540   3.786   1.509   5.373
 3885SOL     OW12541   2.214   0.916   5.525
 3885SOL    HW112542   2.291   0.934   5.578
 3885SOL    HW212543   2.243   0.853   5.460
 3886SOL     OW12544   3.364   0.274   3.858
 3886SOL    HW112545   3.290   0.214   3.869
 3886SOL    HW212546   3.376   0.313   3.945
 3887SOL     OW12547   3.150   0.826   3.752
 3887SOL    HW112548   3.193   0.741   3.756
 3887SOL    HW212549   3.183   0.866   3.672
 3888SOL     OW12550   2.929   1.337   4.580
 3888SOL    HW112551   2.933   1.265   4.517
 3888SOL    HW212552   2.989   1.403   4.544
 3889SOL     OW12553   2.170   0.810   4.670
 3889SOL    HW112554   2.263   0.831   4.663
 3889SOL    HW212555   2.168   0.720   4.702
 3890SOL     OW12556   2.198   0.536   4.738
 3890SOL    HW112557   2.157   0.451   4.722
 3890SOL    HW212558   2.274   0.537   4.680
 3891SOL     OW12559   2.995   0.381   5.421
 3891SOL    HW112560   2.946   0.435   5.482
 3891SOL    HW212561   3.081   0.421   5.416
 3892SOL     OW12562   3.013   0.226   5.205
 3892SOL    HW112563   3.004   0.280   5.284
 3892SOL    HW212564   3.038   0.288   5.136
 3893SOL     OW12565   1.866   1.319   3.918
 3893SOL    HW112566   1.779   1.333   3.881
 3893SOL    HW212567   1.863   1.230   3.953
 3894SOL     OW12568   2.359   1.570   4.634
 3894SOL    HW112569   2.424   1.637   4.653
 3894SOL    HW212570   2.402   1.510   4.574
 3895SOL     OW12571   2.841   0.787   4.948
 3895SOL    HW112572   2.897   0.769   5.023
 3895SOL    HW212573   2.755   0.753   4.973
 3896SOL     OW12574   1.895   0.547   4.841
 3896SOL    HW112575   1.970   0.523   4.787
 3896SOL    HW212576   1.929   0.547   4.931
 3897SOL     OW12577   2.065   0.526   5.436
 3897SOL    HW112578   2.137   0.507   5.375
 3897SOL    HW212579   2.021   0.602   5.397
 3898SOL     OW12580   3.242   0.936   5.382
 3898SOL    HW112581   3.263   1.030   5.379
 3898SOL    HW212582   3.237   0.910   5.290
 3899SOL     OW12583   2.679   0.572   4.088
 3899SOL    HW112584   2.685   0.497   4.029
 3899SOL    HW212585   2.604   0.623   4.055
 3900SOL     OW12586   3.501   0.602   4.907
 3900SOL    HW112587   3.491   0.541   4.980
 3900SOL    HW212588   3.587   0.581   4.871
 3901SOL     OW12589   2.091   1.557   5.464
 3901SOL    HW112590   2.047   1.590   5.543
 3901SOL    HW212591   2.116   1.467   5.485
 3902SOL     OW12592   2.569   0.453   4.980
 3902SOL    HW112593   2.518   0.376   4.955
 3902SOL    HW212594   2.561   0.513   4.906
 3903SOL     OW12595   2.790   1.678   5.192
 3903SOL    HW112596   2.761   1.642   5.108
 3903SOL    HW212597   2.784   1.773   5.181
 3904SOL     OW12598   2.325   0.494   3.907
 3904SOL    HW112599   2.383   0.566   3.931
 3904SOL    HW212600   2.239   0.534   3.895
 3905SOL     OW12601   2.004   1.141   5.193
 3905SOL    HW112602   2.007   1.093   5.276
 3905SOL    HW212603   2.021   1.075   5.126
 3906SOL     OW12604   3.184   1.044   4.946
 3906SOL    HW112605   3.207   0.982   4.877
 3906SOL    HW212606   3.116   1.099   4.906
 3907SOL     OW12607   3.176   0.854   4.029
 3907SOL    HW112608   3.100   0.828   4.081
 3907SOL    HW212609   3.148   0.843   3.938
 3908SOL     OW12610   3.642   1.741   4.881
 3908SOL    HW112611   3.697   1.769   4.808
 3908SOL    HW212612   3.613   1.653   4.857
 3909SOL     OW12613   3.103   1.733   4.834
 3909SOL    HW112614   3.185   1.756   4.790
 3909SOL    HW212615   3.110   1.640   4.853
 3910SOL     OW12616   1.952   1.253   4.751
 3910SOL    HW112617   1.922   1.275   4.839
 3910SOL    HW212618   1.874   1.217   4.708
 3911SOL     OW12619   2.539   1.665   5.450
 3911SOL    HW112620   2.487   1.745   5.458
 3911SOL    HW212621   2.605   1.685   5.384
 3912SOL     OW12622   3.551   0.120   4.212
 3912SOL    HW112623   3.632   0.135   4.163
 3912SOL    HW212624   3.553   0.026   4.233
 3913SOL     OW12625   3.253   1.567   4.212
 3913SOL    HW112626   3.312   1.600   4.144
 3913SOL    HW212627   3.203   1.644   4.240
 3914SOL     OW12628   3.139   0.926   4.394
 3914SOL    HW112629   3.214   0.867   4.405
 3914SOL    HW212630   3.173   0.999   4.342
 3915SOL     OW12631   2.672   1.274   5.152
 3915SOL    HW112632   2.643   1.314   5.234
 3915SOL    HW212633   2.604   1.297   5.089
 3916SOL     OW12634   2.535   1.622   3.877
 3916SOL    HW112635   2.545   1.634   3.782
 3916SOL    HW212636   2.478   1.545   3.885
 3917SOL     OW12637   3.482   1.727   5.115
 3917SOL    HW112638   3.537   1.732   5.037
 3917SOL    HW212639   3.469   1.818   5.141
 3918SOL     OW12640   3.703   0.182   4.695
 3918SOL    HW112641   3.727   0.097   4.657
 3918SOL    HW212642   3.617   0.201   4.658
 3919SOL     OW12643   2.126   0.316   4.439
 3919SOL    HW112644   2.039   0.351   4.417
 3919SOL    HW212645   2.125   0.308   4.534
 3920SOL     OW12646   3.070   1.604   3.756
 3920SOL    HW112647   3.059   1.513   3.783
 3920SOL    HW212648   3.004   1.617   3.688
 3921SOL     OW12649   2.686   1.006   5.097
 3921SOL    HW112650   2.728   1.003   5.010
 3921SOL    HW212651   2.684   1.099   5.118
 3922SOL     OW12652   2.778   0.910   4.014
 3922SOL    HW112653   2.839   0.943   3.948
 3922SOL    HW212654   2.827   0.842   4.060
 3923SOL     OW12655   3.351   1.628   3.767
 3923SOL    HW112656   3.257   1.620   3.753
 3923SOL    HW212657   3.389   1.634   3.679
 3924SOL     OW12658   2.228   1.297   5.228
 3924SOL    HW112659   2.227   1.368   5.164
 3924SOL    HW212660   2.153   1.243   5.205
 3925SOL     OW12661   3.463   1.280   5.001
 3925SOL    HW112662   3.531   1.272   5.068
 3925SOL    HW212663   3.406   1.349   5.034
 3926SOL     OW12664   2.918   1.109   4.433
 3926SOL    HW112665   2.846   1.058   4.470
 3926SOL    HW212666   2.981   1.043   4.403
 3927SOL     OW12667   2.877   0.249   4.693
 3927SOL    HW112668   2.867   0.198   4.613
 3927SOL    HW212669   2.872   0.183   4.763
 3928SOL     OW12670   2.466   1.491   4.204
 3928SOL    HW112671   2.508   1.441   4.135
 3928SOL    HW212672   2.398   1.541   4.160
 3929SOL     OW12673   3.582   0.394   5.096
 3929SOL    HW112674   3.654   0.457   5.096
 3929SOL    HW212675   3.614   0.321   5.042
 3930SOL     OW12676   2.122   1.341   4.013
 3930SOL    HW112677   2.029   1.340   3.990
 3930SOL    HW212678   2.124   1.378   4.102
 3931SOL     OW12679   1.976   1.034   5.446
 3931SOL    HW112680   1.899   1.006   5.496
 3931SOL    HW212681   2.050   0.990   5.488
 3932SOL     OW12682   2.555   0.255   5.225
 3932SOL    HW112683   2.622   0.200   5.184
 3932SOL    HW212684   2.583   0.261   5.317
 3933SOL     OW12685   1.962   0.317   3.716
 3933SOL    HW112686   1.894   0.337   3.780
 3933SOL    HW212687   1.970   0.398   3.664
 3934SOL     OW12688   3.287   0.856   5.122
 3934SOL    HW112689   3.238   0.918   5.069
 3934SOL    HW212690   3.376   0.859   5.086
 3935SOL     OW12691   1.943   0.152   4.064
 3935SOL    HW112692   1.912   0.211   3.996
 3935SOL    HW212693   2.029   0.124   4.034
 3936SOL     OW12694   3.040   1.337   3.841
 3936SOL    HW112695   2.949   1.308   3.844
 3936SOL    HW212696   3.067   1.338   3.933
 3937SOL     OW12697   2.484   0.829   5.157
 3937SOL    HW112698   2.540   0.905   5.142
 3937SOL    HW212699   2.545   0.755   5.166
 3938SOL     OW12700   3.344   1.781   4.704
 3938SOL    HW112701   3.367   1.843   4.635
 3938SOL    HW212702   3.429   1.754   4.741
 3939SOL     OW12703   2.580   0.561   5.428
 3939SOL    HW112704   2.622   0.623   5.487
 3939SOL    HW212705   2.606   0.475   5.462
 3940SOL     OW12706   3.335   1.197   5.354
 3940SOL    HW112707   3.324   1.212   5.448
 3940SOL    HW212708   3.428   1.213   5.338
 3941SOL     OW12709   2.238   1.735   5.298
 3941SOL    HW112710   2.173   1.747   5.229
 3941SOL    HW212711   2.205   1.661   5.350
 3942SOL     OW12712   3.526   0.881   4.983
 3942SOL    HW112713   3.525   0.796   4.939
 3942SOL    HW212714   3.520   0.944   4.912
 3943SOL     OW12715   3.082   0.337   4.167
 3943SOL    HW112716   3.151   0.271   4.158
 3943SOL    HW212717   3.103   0.381   4.249
 3944SOL     OW12718   2.451   0.736   4.395
 3944SOL    HW112719   2.490   0.822   4.380
 3944SOL    HW212720   2.385   0.728   4.327
 3945SOL     OW12721   3.616   0.381   5.366
 3945SOL    HW112722   3.596   0.390   5.273
 3945SOL    HW212723   3.556   0.314   5.398
 3946SOL     OW12724   3.617   0.930   5.237
 3946SOL    HW112725   3.607   1.024   5.255
 3946SOL    HW212726   3.592   0.920   5.145
 3947SOL     OW12727   2.724   1.366   3.761
 3947SOL    HW112728   2.687   1.392   3.846
 3947SOL    HW212729   2.741   1.449   3.716
 3948SOL     OW12730   2.525   1.792   4.660
 3948SOL    HW112731   2.516   1.887   4.654
 3948SOL    HW212732   2.619   1.776   4.660
 3949SOL     OW12733   2.730   0.969   4.579
 3949SOL    HW112734   2.781   0.897   4.617
 3949SOL    HW212735   2.694   1.016   4.654
 3950SOL     OW12736   2.940   0.989   3.813
 3950SOL    HW112737   2.918   1.040   3.736
 3950SOL    HW212738   3.014   0.935   3.786
 3951SOL     OW12739   3.714   1.556   4.565
 3951SOL    HW112740   3.635   1.540   4.514
 3951SOL    HW212741   3.713   1.489   4.633
 3952SOL     OW12742   2.080   1.294   5.584
 3952SOL    HW112743   2.026   1.223   5.550
 3952SOL    HW212744   2.028   1.333   5.654
 3953SOL     OW12745   1.943   1.215   4.386
 3953SOL    HW112746   1.962   1.176   4.471
 3953SOL    HW212747   2.019   1.195   4.332
 3954SOL     OW12748   2.542   1.403   5.352
 3954SOL    HW112749   2.464   1.362   5.389
 3954SOL    HW212750   2.541   1.493   5.387
 3955SOL     OW12751   3.676   0.181   4.968
 3955SOL    HW112752   3.678   0.086   4.977
 3955SOL    HW212753   3.694   0.198   4.876
 3956SOL     OW12754   2.290   0.434   4.249
 3956SOL    HW112755   2.324   0.363   4.196
 3956SOL    HW212756   2.243   0.391   4.320
 3957SOL     OW12757   3.559   1.491   4.820
 3957SOL    HW112758   3.480   1.468   4.770
 3957SOL    HW212759   3.568   1.419   4.883
 3958SOL     OW12760   2.193   0.556   5.018
 3958SOL    HW112761   2.246   0.498   5.072
 3958SOL    HW212762   2.212   0.530   4.928
 3959SOL     OW12763   2.691   1.577   4.400
 3959SOL    HW112764   2.674   1.635   4.326
 3959SOL    HW212765   2.616   1.518   4.403
 3960SOL     OW12766   3.323   0.253   4.834
 3960SOL    HW112767   3.337   0.165   4.870
 3960SOL    HW212768   3.267   0.296   4.899
 3961SOL     OW12769   2.866   0.027   4.870
 3961SOL    HW112770   2.785   3.991   4.834
 3961SOL    HW212771   2.924   3.952   4.879
 3962SOL     OW12772   2.636   1.333   4.039
 3962SOL    HW112773   2.606   1.243   4.048
 3962SOL    HW212774   2.716   1.336   4.092
 3963SOL     OW12775   2.484   1.554   5.008
 3963SOL    HW112776   2.484   1.636   5.058
 3963SOL    HW212777   2.573   1.549   4.971
 3964SOL     OW12778   3.173   0.071   3.884
 3964SOL    HW112779   3.178   3.989   3.834
 3964SOL    HW212780   3.088   0.066   3.928
 3965SOL     OW12781   3.143   0.457   4.409
 3965SOL    HW112782   3.097   0.540   4.404
 3965SOL    HW212783   3.146   0.437   4.503
 3966SOL     OW12784   3.452   0.210   4.591
 3966SOL    HW112785   3.404   0.234   4.670
 3966SOL    HW212786   3.451   0.290   4.538
 3967SOL     OW12787   1.905   1.069   4.029
 3967SOL    HW112788   1.999   1.063   4.014
 3967SOL    HW212789   1.878   0.981   4.054
 3968SOL     OW12790   2.749   1.655   4.063
 3968SOL    HW112791   2.675   1.639   4.004
 3968SOL    HW212792   2.721   1.729   4.117
 3969SOL     OW12793   2.090   0.619   5.706
 3969SOL    HW112794   2.000   0.629   5.738
 3969SOL    HW212795   2.080   0.599   5.613
 3970SOL     OW12796   2.079   0.299   6.577
 3970SOL    HW112797   2.115   0.256   6.654
 3970SOL    HW212798   1.993   0.257   6.564
 3971SOL     OW12799   1.871   0.396   6.220
 3971SOL    HW112800   1.784   0.412   6.258
 3971SOL    HW212801   1.856   0.329   6.153
 3972SOL     OW12802   2.433   1.295   6.778
 3972SOL    HW112803   2.359   1.257   6.732
 3972SOL    HW212804   2.429   1.389   6.756
 3973SOL     OW12805   3.423   1.512   6.294
 3973SOL    HW112806   3.381   1.492   6.378
 3973SOL    HW212807   3.352   1.515   6.231
 3974SOL     OW12808   2.995   0.698   6.283
 3974SOL    HW112809   3.042   0.780   6.270
 3974SOL    HW212810   2.947   0.710   6.366
 3975SOL     OW12811   3.622   0.623   5.813
 3975SOL    HW112812   3.605   0.612   5.719
 3975SOL    HW212813   3.606   0.537   5.851
 3976SOL     OW12814   2.735   0.767   7.411
 3976SOL    HW112815   2.728   0.837   7.475
 3976SOL    HW212816   2.759   0.811   7.329
 3977SOL     OW12817   2.540   1.007   6.234
 3977SOL    HW112818   2.605   0.998   6.304
 3977SOL    HW212819   2.477   1.071   6.269
 3978SOL     OW12820   3.319   1.501   6.946
 3978SOL    HW112821   3.372   1.579   6.957
 3978SOL    HW212822   3.249   1.510   7.010
 3979SOL     OW12823   2.307   0.393   7.079
 3979SOL    HW112824   2.397   0.361   7.078
 3979SOL    HW212825   2.253   0.315   7.087
 3980SOL     OW12826   3.473   0.450   6.321
 3980SOL    HW112827   3.404   0.484   6.264
 3980SOL    HW212828   3.495   0.524   6.377
 3981SOL     OW12829   2.087   1.711   6.042
 3981SOL    HW112830   2.106   1.792   6.090
 3981SOL    HW212831   2.166   1.697   5.989
 3982SOL     OW12832   2.998   1.351   7.286
 3982SOL    HW112833   3.042   1.341   7.370
 3982SOL    HW212834   2.952   1.267   7.273
 3983SOL     OW12835   2.175   1.063   6.492
 3983SOL    HW112836   2.150   0.971   6.499
 3983SOL    HW212837   2.098   1.112   6.520
 3984SOL     OW12838   2.444   0.982   5.723
 3984SOL    HW112839   2.491   1.029   5.655
 3984SOL    HW212840   2.483   1.013   5.805
 3985SOL     OW12841   3.444   0.141   7.042
 3985SOL    HW112842   3.470   0.213   6.985
 3985SOL    HW212843   3.407   0.183   7.120
 3986SOL     OW12844   1.982   0.653   6.148
 3986SOL    HW112845   1.954   0.565   6.173
 3986SOL    HW212846   1.973   0.705   6.228
 3987SOL     OW12847   3.703   1.758   5.922
 3987SOL    HW112848   3.772   1.733   5.983
 3987SOL    HW212849   3.721   1.849   5.900
 3988SOL     OW12850   1.908   1.549   5.674
 3988SOL    HW112851   1.829   1.495   5.682
 3988SOL    HW212852   1.880   1.637   5.698
 3989SOL     OW12853   3.549   0.916   6.231
 3989SOL    HW112854   3.634   0.875   6.216
 3989SOL    HW212855   3.533   0.967   6.152
 3990SOL     OW12856   3.504   1.104   6.018
 3990SOL    HW112857   3.589   1.110   5.974
 3990SOL    HW212858   3.511   1.168   6.090
 3991SOL     OW12859   1.992   0.752   7.166
 3991SOL    HW112860   2.086   0.770   7.163
 3991SOL    HW212861   1.953   0.835   7.194
 3992SOL     OW12862   3.148   1.230   7.013
 3992SOL    HW112863   3.182   1.167   6.950
 3992SOL    HW212864   3.211   1.230   7.085
 3993SOL     OW12865   2.682   0.005   6.103
 3993SOL    HW112866   2.727   0.085   6.078
 3993SOL    HW212867   2.589   0.029   6.103
 3994SOL     OW12868   2.051   0.979   6.874
 3994SOL    HW112869   2.134   0.935   6.859
 3994SOL    HW212870   1.992   0.944   6.807
 3995SOL     OW12871   3.390   0.996   5.787
 3995SOL    HW112872   3.321   0.939   5.821
 3995SOL    HW212873   3.432   1.031   5.865
 3996SOL     OW12874   3.089   1.791   7.211
 3996SOL    HW112875   3.055   1.857   7.150
 3996SOL    HW212876   3.089   1.710   7.161
 3997SOL     OW12877   2.219   0.253   7.426
 3997SOL    HW112878   2.263   0.338   7.424
 3997SOL    HW212879   2.126   0.274   7.430
 3998SOL     OW12880   3.333   1.418   6.540
 3998SOL    HW112881   3.263   1.434   6.604
 3998SOL    HW212882   3.319   1.327   6.512
 3999SOL     OW12883   3.514   1.745   6.165
 3999SOL    HW112884   3.500   1.713   6.076
 3999SOL    HW212885   3.493   1.671   6.221
 4000SOL     OW12886   2.457   0.720   5.855
 4000SOL    HW112887   2.459   0.803   5.807
 4000SOL    HW212888   2.393   0.734   5.924
 4001SOL     OW12889   3.136   0.369   6.527
 4001SOL    HW112890   3.049   0.329   6.534
 4001SOL    HW212891   3.194   0.307   6.572
 4002SOL     OW12892   3.441   1.671   5.895
 4002SOL    HW112893   3.531   1.701   5.889
 4002SOL    HW212894   3.414   1.656   5.804
 4003SOL     OW12895   2.655   0.617   7.037
 4003SOL    HW112896   2.629   0.590   7.125
 4003SOL    HW212897   2.619   0.550   6.979
 4004SOL     OW12898   3.254   0.476   7.263
 4004SOL    HW112899   3.260   0.522   7.347
 4004SOL    HW212900   3.311   0.400   7.273
 4005SOL     OW12901   2.817   0.887   7.172
 4005SOL    HW112902   2.872   0.817   7.136
 4005SOL    HW212903   2.767   0.920   7.098
 4006SOL     OW12904   2.854   0.404   6.823
 4006SOL    HW112905   2.768   0.422   6.862
 4006SOL    HW212906   2.835   0.374   6.735
 4007SOL     OW12907   2.914   0.699   6.011
 4007SOL    HW112908   2.931   0.691   6.105
 4007SOL    HW212909   2.831   0.653   5.998
 4008SOL     OW12910   1.945   0.820   6.361
 4008SOL    HW112911   2.024   0.812   6.415
 4008SOL    HW212912   1.891   0.885   6.408
 4009SOL     OW12913   2.757   0.352   5.786
 4009SOL    HW112914   2.799   0.411   5.723
 4009SOL    HW212915   2.749   0.269   5.739
 4010SOL     OW12916   3.568   0.574   7.416
 4010SOL    HW112917   3.532   0.648   7.368
 4010SOL    HW212918   3.595   0.512   7.347
 4011SOL     OW12919   3.239   1.139   6.123
 4011SOL    HW112920   3.322   1.127   6.076
 4011SOL    HW212921   3.191   1.203   6.071
 4012SOL     OW12922   2.420   0.198   6.467
 4012SOL    HW112923   2.423   0.218   6.561
 4012SOL    HW212924   2.415   0.284   6.425
 4013SOL     OW12925   3.667   1.062   6.454
 4013SOL    HW112926   3.613   1.037   6.379
 4013SOL    HW212927   3.605   1.065   6.527
 4014SOL     OW12928   3.081   1.537   7.093
 4014SOL    HW112929   3.062   1.467   7.156
 4014SOL    HW212930   2.997   1.555   7.051
 4015SOL     OW12931   2.162   0.967   5.821
 4015SOL    HW112932   2.253   0.984   5.798
 4015SOL    HW212933   2.145   0.879   5.788
 4016SOL     OW12934   3.340   0.748   6.315
 4016SOL    HW112935   3.337   0.706   6.401
 4016SOL    HW212936   3.418   0.803   6.319
 4017SOL     OW12937   2.991   1.776   5.817
 4017SOL    HW112938   2.907   1.745   5.849
 4017SOL    HW212939   3.015   1.715   5.747
 4018SOL     OW12940   2.032   0.275   7.085
 4018SOL    HW112941   1.977   0.352   7.073
 4018SOL    HW212942   2.036   0.263   7.180
 4019SOL     OW12943   3.487   1.384   5.673
 4019SOL    HW112944   3.444   1.468   5.658
 4019SOL    HW212945   3.420   1.318   5.653
 4020SOL     OW12946   2.327   1.719   5.900
 4020SOL    HW112947   2.364   1.782   5.961
 4020SOL    HW212948   2.389   1.716   5.827
 4021SOL     OW12949   3.297   0.170   5.988
 4021SOL    HW112950   3.252   0.096   5.947
 4021SOL    HW212951   3.372   0.130   6.032
 4022SOL     OW12952   2.260   0.694   6.060
 4022SOL    HW112953   2.276   0.600   6.073
 4022SOL    HW212954   2.166   0.705   6.078
 4023SOL     OW12955   3.391   0.229   7.313
 4023SOL    HW112956   3.384   0.254   7.405
 4023SOL    HW212957   3.374   0.135   7.312
 4024SOL     OW12958   2.506   0.130   5.694
 4024SOL    HW112959   2.529   0.046   5.734
 4024SOL    HW212960   2.443   0.108   5.625
 4025SOL     OW12961   2.637   0.282   7.355
 4025SOL    HW112962   2.709   0.220   7.357
 4025SOL    HW212963   2.579   0.255   7.427
 4026SOL     OW12964   2.742   1.504   6.780
 4026SOL    HW112965   2.762   1.497   6.687
 4026SOL    HW212966   2.813   1.457   6.823
 4027SOL     OW12967   3.201   0.588   7.017
 4027SOL    HW112968   3.232   0.559   7.103
 4027SOL    HW212969   3.236   0.676   7.007
 4028SOL     OW12970   2.792   0.511   6.486
 4028SOL    HW112971   2.767   0.503   6.394
 4028SOL    HW212972   2.818   0.423   6.512
 4029SOL     OW12973   2.407   0.057   6.077
 4029SOL    HW112974   2.332   0.062   6.137
 4029SOL    HW212975   2.402   0.137   6.026
 4030SOL     OW12976   3.289   1.200   5.626
 4030SOL    HW112977   3.319   1.124   5.677
 4030SOL    HW212978   3.204   1.222   5.662
 4031SOL     OW12979   2.191   0.044   5.797
 4031SOL    HW112980   2.200   0.111   5.729
 4031SOL    HW212981   2.274   0.049   5.845
 4032SOL     OW12982   2.804   0.250   6.046
 4032SOL    HW112983   2.779   0.290   5.962
 4032SOL    HW212984   2.900   0.254   6.047
 4033SOL     OW12985   2.941   0.683   7.044
 4033SOL    HW112986   2.873   0.617   7.050
 4033SOL    HW212987   3.023   0.634   7.038
 4034SOL     OW12988   3.101   1.554   6.367
 4034SOL    HW112989   3.112   1.627   6.305
 4034SOL    HW212990   3.144   1.585   6.447
 4035SOL     OW12991   3.144   1.779   6.188
 4035SOL    HW112992   3.192   1.843   6.136
 4035SOL    HW212993   3.061   1.822   6.208
 4036SOL     OW12994   2.883   0.543   5.614
 4036SOL    HW112995   2.840   0.625   5.594
 4036SOL    HW212996   2.947   0.565   5.682
 4037SOL     OW12997   1.944   0.551   6.984
 4037SOL    HW112998   2.034   0.554   6.954
 4037SOL    HW212999   1.936   0.626   7.043
 4038SOL     OW13000   2.426   0.231   6.747
 4038SOL    HW113001   2.449   0.139   6.756
 4038SOL    HW213002   2.336   0.236   6.779
 4039SOL     OW13003   2.731   0.461   6.224
 4039SOL    HW113004   2.684   0.515   6.160
 4039SOL    HW213005   2.753   0.381   6.176
 4040SOL     OW13006   2.858   0.040   6.366
 4040SOL    HW113007   2.821   0.068   6.283
 4040SOL    HW213008   2.869   3.945   6.357
 4041SOL     OW13009   3.305   1.160   6.445
 4041SOL    HW113010   3.229   1.102   6.441
 4041SOL    HW213011   3.330   1.172   6.353
 4042SOL     OW13012   3.326   0.607   6.560
 4042SOL    HW113013   3.273   0.528   6.565
 4042SOL    HW213014   3.386   0.600   6.634
 4043SOL     OW13015   3.722   0.824   5.961
 4043SOL    HW113016   3.763   0.767   6.025
 4043SOL    HW213017   3.683   0.764   5.897
 4044SOL     OW13018   2.349   1.416   5.738
 4044SOL    HW113019   2.295   1.374   5.804
 4044SOL    HW213020   2.328   1.370   5.656
 4045SOL     OW13021   3.528   1.265   6.231
 4045SOL    HW113022   3.624   1.269   6.240
 4045SOL    HW213023   3.499   1.354   6.252
 4046SOL     OW13024   3.257   0.575   5.655
 4046SOL    HW113025   3.193   0.556   5.724
 4046SOL    HW213026   3.342   0.560   5.695
 4047SOL     OW13027   2.388   0.266   5.902
 4047SOL    HW113028   2.443   0.227   5.834
 4047SOL    HW213029   2.360   0.350   5.865
 4048SOL     OW13030   3.614   1.234   7.153
 4048SOL    HW113031   3.701   1.199   7.135
 4048SOL    HW213032   3.630   1.324   7.182
 4049SOL     OW13033   2.924   1.338   6.907
 4049SOL    HW113034   2.851   1.314   6.965
 4049SOL    HW213035   3.002   1.310   6.955
 4050SOL     OW13036   3.469   1.627   7.243
 4050SOL    HW113037   3.459   1.662   7.155
 4050SOL    HW213038   3.550   1.576   7.239
 4051SOL     OW13039   2.976   1.179   6.692
 4051SOL    HW113040   2.940   1.238   6.758
 4051SOL    HW213041   2.970   1.229   6.610
 4052SOL     OW13042   3.490   1.096   6.661
 4052SOL    HW113043   3.480   1.158   6.734
 4052SOL    HW213044   3.415   1.113   6.605
 4053SOL     OW13045   2.774   0.118   6.987
 4053SOL    HW113046   2.794   0.088   6.898
 4053SOL    HW213047   2.855   0.158   7.018
 4054SOL     OW13048   2.846   1.117   7.306
 4054SOL    HW113049   2.753   1.139   7.296
 4054SOL    HW213050   2.857   1.038   7.254
 4055SOL     OW13051   2.569   1.061   5.957
 4055SOL    HW113052   2.555   1.043   6.050
 4055SOL    HW213053   2.646   1.008   5.934
 4056SOL     OW13054   2.280   0.817   6.838
 4056SOL    HW113055   2.348   0.824   6.905
 4056SOL    HW213056   2.242   0.730   6.851
 4057SOL     OW13057   3.128   0.375   6.863
 4057SOL    HW113058   3.162   0.453   6.907
 4057SOL    HW213059   3.041   0.401   6.832
 4058SOL     OW13060   2.417   0.532   6.443
 4058SOL    HW113061   2.430   0.592   6.369
 4058SOL    HW213062   2.482   0.560   6.507
 4059SOL     OW13063   3.103   1.349   5.976
 4059SOL    HW113064   3.163   1.420   6.000
 4059SOL    HW213065   3.028   1.361   6.034
 4060SOL     OW13066   3.148   1.460   6.736
 4060SOL    HW113067   3.206   1.467   6.812
 4060SOL    HW213068   3.083   1.394   6.763
 4061SOL     OW13069   3.434   0.632   6.072
 4061SOL    HW113070   3.392   0.689   6.137
 4061SOL    HW213071   3.482   0.692   6.015
 4062SOL     OW13072   2.279   0.741   7.189
 4062SOL    HW113073   2.340   0.787   7.130
 4062SOL    HW213074   2.321   0.657   7.204
 4063SOL     OW13075   3.465   0.779   7.269
 4063SOL    HW113076   3.379   0.822   7.263
 4063SOL    HW213077   3.518   0.821   7.202
 4064SOL     OW13078   2.875   0.133   7.366
 4064SOL    HW113079   2.925   0.204   7.327
 4064SOL    HW213080   2.860   0.072   7.293
 4065SOL     OW13081   2.350   0.034   7.348
 4065SOL    HW113082   2.352   0.047   7.253
 4065SOL    HW213083   2.291   0.102   7.380
 4066SOL     OW13084   2.450   0.877   6.629
 4066SOL    HW113085   2.429   0.967   6.603
 4066SOL    HW213086   2.388   0.857   6.699
 4067SOL     OW13087   3.217   0.857   6.613
 4067SOL    HW113088   3.134   0.848   6.566
 4067SOL    HW213089   3.259   0.772   6.605
 4068SOL     OW13090   3.063   0.537   5.844
 4068SOL    HW113091   3.071   0.458   5.897
 4068SOL    HW213092   3.020   0.600   5.901
 4069SOL     OW13093   2.162   0.209   6.829
 4069SOL    HW113094   2.120   0.238   6.910
 4069SOL    HW213095   2.150   0.114   6.829
 4070SOL     OW13096   1.918   1.268   6.829
 4070SOL    HW113097   1.957   1.212   6.896
 4070SOL    HW213098   1.904   1.352   6.872
 4071SOL     OW13099   2.585   0.632   6.639
 4071SOL    HW113100   2.660   0.620   6.581
 4071SOL    HW213101   2.558   0.723   6.624
 4072SOL     OW13102   3.594   0.956   7.449
 4072SOL    HW113103   3.552   0.896   7.389
 4072SOL    HW213104   3.530   0.971   7.518
 4073SOL     OW13105   2.184   0.055   6.237
 4073SOL    HW113106   2.164   0.148   6.249
 4073SOL    HW213107   2.150   0.014   6.316
 4074SOL     OW13108   3.474   0.392   5.965
 4074SOL    HW113109   3.436   0.323   6.020
 4074SOL    HW213110   3.452   0.473   6.011
 4075SOL     OW13111   2.887   0.760   6.542
 4075SOL    HW113112   2.882   0.778   6.636
 4075SOL    HW213113   2.862   0.668   6.534
 4076SOL     OW13114   3.706   1.498   7.184
 4076SOL    HW113115   3.729   1.528   7.096
 4076SOL    HW213116   3.786   1.509   7.235
 4077SOL     OW13117   2.214   0.915   7.394
 4077SOL    HW113118   2.297   0.925   7.441
 4077SOL    HW213119   2.234   0.852   7.325
 4078SOL     OW13120   3.364   0.274   5.720
 4078SOL    HW113121   3.290   0.214   5.731
 4078SOL    HW213122   3.376   0.312   5.807
 4079SOL     OW13123   3.151   0.827   5.615
 4079SOL    HW113124   3.193   0.741   5.618
 4079SOL    HW213125   3.183   0.866   5.534
 4080SOL     OW13126   2.964   1.323   6.462
 4080SOL    HW113127   2.949   1.261   6.390
 4080SOL    HW213128   3.002   1.400   6.420
 4081SOL     OW13129   2.168   0.793   6.527
 4081SOL    HW113130   2.260   0.814   6.515
 4081SOL    HW213131   2.167   0.705   6.565
 4082SOL     OW13132   2.203   0.530   6.604
 4082SOL    HW113133   2.159   0.447   6.587
 4082SOL    HW213134   2.277   0.531   6.544
 4083SOL     OW13135   2.995   0.381   7.282
 4083SOL    HW113136   2.947   0.435   7.345
 4083SOL    HW213137   3.082   0.421   7.277
 4084SOL     OW13138   3.014   0.226   7.067
 4084SOL    HW113139   3.004   0.280   7.145
 4084SOL    HW213140   3.039   0.287   6.998
 4085SOL     OW13141   2.837   0.791   6.811
 4085SOL    HW113142   2.895   0.771   6.884
 4085SOL    HW213143   2.755   0.746   6.833
 4086SOL     OW13144   1.894   0.543   6.704
 4086SOL    HW113145   1.969   0.522   6.648
 4086SOL    HW213146   1.930   0.548   6.792
 4087SOL     OW13147   2.064   0.527   7.299
 4087SOL    HW113148   2.134   0.506   7.236
 4087SOL    HW213149   2.020   0.603   7.260
 4088SOL     OW13150   3.239   0.937   7.243
 4088SOL    HW113151   3.264   1.030   7.240
 4088SOL    HW213152   3.237   0.910   7.151
 4089SOL     OW13153   2.679   0.572   5.950
 4089SOL    HW113154   2.685   0.497   5.891
 4089SOL    HW213155   2.604   0.623   5.917
 4090SOL     OW13156   3.501   0.601   6.769
 4090SOL    HW113157   3.491   0.541   6.842
 4090SOL    HW213158   3.588   0.581   6.732
 4091SOL     OW13159   2.571   0.452   6.842
 4091SOL    HW113160   2.519   0.375   6.818
 4091SOL    HW213161   2.561   0.512   6.767
 4092SOL     OW13162   2.819   1.643   7.015
 4092SOL    HW113163   2.769   1.619   6.936
 4092SOL    HW213164   2.809   1.738   7.021
 4093SOL     OW13165   2.325   0.494   5.770
 4093SOL    HW113166   2.383   0.567   5.794
 4093SOL    HW213167   2.240   0.534   5.756
 4094SOL     OW13168   3.183   1.042   6.809
 4094SOL    HW113169   3.209   0.981   6.740
 4094SOL    HW213170   3.109   1.090   6.771
 4095SOL     OW13171   3.175   0.855   5.891
 4095SOL    HW113172   3.099   0.826   5.942
 4095SOL    HW213173   3.148   0.844   5.800
 4096SOL     OW13174   3.642   1.742   6.743
 4096SOL    HW113175   3.697   1.769   6.669
 4096SOL    HW213176   3.613   1.654   6.719
 4097SOL     OW13177   3.103   1.731   6.689
 4097SOL    HW113178   3.188   1.753   6.650
 4097SOL    HW213179   3.111   1.639   6.713
 4098SOL     OW13180   1.964   1.188   6.589
 4098SOL    HW113181   1.942   1.217   6.677
 4098SOL    HW213182   1.918   1.249   6.531
 4099SOL     OW13183   3.551   0.120   6.074
 4099SOL    HW113184   3.632   0.135   6.026
 4099SOL    HW213185   3.553   0.027   6.095
 4100SOL     OW13186   3.255   1.559   6.065
 4100SOL    HW113187   3.316   1.594   6.001
 4100SOL    HW213188   3.210   1.636   6.100
 4101SOL     OW13189   3.138   0.928   6.258
 4101SOL    HW113190   3.212   0.869   6.269
 4101SOL    HW213191   3.172   0.999   6.204
 4102SOL     OW13192   2.674   1.277   7.021
 4102SOL    HW113193   2.665   1.345   7.087
 4102SOL    HW213194   2.611   1.302   6.953
 4103SOL     OW13195   2.534   1.613   5.724
 4103SOL    HW113196   2.540   1.628   5.629
 4103SOL    HW213197   2.472   1.541   5.733
 4104SOL     OW13198   3.482   1.726   6.978
 4104SOL    HW113199   3.537   1.731   6.899
 4104SOL    HW213200   3.470   1.817   7.004
 4105SOL     OW13201   3.703   0.181   6.557
 4105SOL    HW113202   3.728   0.097   6.519
 4105SOL    HW213203   3.617   0.201   6.520
 4106SOL     OW13204   2.125   0.315   6.301
 4106SOL    HW113205   2.039   0.350   6.279
 4106SOL    HW213206   2.124   0.307   6.396
 4107SOL     OW13207   3.072   1.604   5.615
 4107SOL    HW113208   3.060   1.513   5.643
 4107SOL    HW213209   3.005   1.619   5.549
 4108SOL     OW13210   2.687   1.005   6.963
 4108SOL    HW113211   2.739   0.993   6.884
 4108SOL    HW213212   2.685   1.100   6.976
 4109SOL     OW13213   2.779   0.913   5.879
 4109SOL    HW113214   2.839   0.944   5.811
 4109SOL    HW213215   2.828   0.842   5.923
 4110SOL     OW13216   3.352   1.628   5.629
 4110SOL    HW113217   3.257   1.620   5.615
 4110SOL    HW213218   3.389   1.634   5.541
 4111SOL     OW13219   3.462   1.280   6.864
 4111SOL    HW113220   3.532   1.273   6.929
 4111SOL    HW213221   3.406   1.350   6.897
 4112SOL     OW13222   2.915   1.111   6.287
 4112SOL    HW113223   2.844   1.061   6.328
 4112SOL    HW213224   2.980   1.045   6.263
 4113SOL     OW13225   2.876   0.249   6.556
 4113SOL    HW113226   2.866   0.199   6.475
 4113SOL    HW213227   2.872   0.183   6.625
 4114SOL     OW13228   2.454   1.509   6.024
 4114SOL    HW113229   2.492   1.454   5.956
 4114SOL    HW213230   2.395   1.568   5.977
 4115SOL     OW13231   3.582   0.394   6.958
 4115SOL    HW113232   3.654   0.457   6.958
 4115SOL    HW213233   3.614   0.322   6.904
 4116SOL     OW13234   1.960   1.002   7.291
 4116SOL    HW113235   1.889   0.995   7.356
 4116SOL    HW213236   2.040   0.988   7.342
 4117SOL     OW13237   2.555   0.256   7.088
 4117SOL    HW113238   2.622   0.201   7.046
 4117SOL    HW213239   2.582   0.261   7.179
 4118SOL     OW13240   1.962   0.317   5.577
 4118SOL    HW113241   1.893   0.337   5.642
 4118SOL    HW213242   1.970   0.398   5.526
 4119SOL     OW13243   3.287   0.857   6.985
 4119SOL    HW113244   3.238   0.918   6.931
 4119SOL    HW213245   3.376   0.859   6.949
 4120SOL     OW13246   1.943   0.152   5.926
 4120SOL    HW113247   1.912   0.212   5.858
 4120SOL    HW213248   2.030   0.124   5.896
 4121SOL     OW13249   3.040   1.337   5.701
 4121SOL    HW113250   2.948   1.311   5.701
 4121SOL    HW213251   3.064   1.339   5.794
 4122SOL     OW13252   2.482   0.830   7.021
 4122SOL    HW113253   2.539   0.904   7.002
 4122SOL    HW213254   2.541   0.755   7.029
 4123SOL     OW13255   3.346   1.784   6.568
 4123SOL    HW113256   3.372   1.843   6.496
 4123SOL    HW213257   3.430   1.752   6.603
 4124SOL     OW13258   2.581   0.559   7.290
 4124SOL    HW113259   2.623   0.620   7.351
 4124SOL    HW213260   2.604   0.472   7.323
 4125SOL     OW13261   3.337   1.195   7.216
 4125SOL    HW113262   3.326   1.211   7.310
 4125SOL    HW213263   3.429   1.213   7.199
 4126SOL     OW13264   2.227   1.721   7.187
 4126SOL    HW113265   2.159   1.742   7.123
 4126SOL    HW213266   2.221   1.626   7.198
 4127SOL     OW13267   3.526   0.881   6.845
 4127SOL    HW113268   3.525   0.796   6.801
 4127SOL    HW213269   3.519   0.945   6.774
 4128SOL     OW13270   3.083   0.337   6.029
 4128SOL    HW113271   3.151   0.271   6.020
 4128SOL    HW213272   3.103   0.381   6.112
 4129SOL     OW13273   2.451   0.739   6.258
 4129SOL    HW113274   2.486   0.826   6.242
 4129SOL    HW213275   2.385   0.727   6.190
 4130SOL     OW13276   3.616   0.381   7.228
 4130SOL    HW113277   3.596   0.390   7.135
 4130SOL    HW213278   3.556   0.313   7.260
 4131SOL     OW13279   3.615   0.930   7.100
 4131SOL    HW113280   3.608   1.024   7.117
 4131SOL    HW213281   3.592   0.920   7.007
 4132SOL     OW13282   2.729   1.366   5.621
 4132SOL    HW113283   2.686   1.389   5.704
 4132SOL    HW213284   2.742   1.450   5.577
 4133SOL     OW13285   2.730   0.972   6.444
 4133SOL    HW113286   2.780   0.893   6.466
 4133SOL    HW213287   2.714   1.014   6.528
 4134SOL     OW13288   2.940   0.989   5.676
 4134SOL    HW113289   2.918   1.040   5.599
 4134SOL    HW213290   3.014   0.935   5.648
 4135SOL     OW13291   3.713   1.556   6.428
 4135SOL    HW113292   3.634   1.540   6.376
 4135SOL    HW213293   3.712   1.490   6.496
 4136SOL     OW13294   3.676   0.181   6.830
 4136SOL    HW113295   3.678   0.086   6.839
 4136SOL    HW213296   3.694   0.198   6.738
 4137SOL     OW13297   2.291   0.433   6.112
 4137SOL    HW113298   2.324   0.362   6.058
 4137SOL    HW213299   2.243   0.390   6.182
 4138SOL     OW13300   3.560   1.491   6.683
 4138SOL    HW113301   3.481   1.468   6.633
 4138SOL    HW213302   3.570   1.419   6.746
 4139SOL     OW13303   2.193   0.556   6.881
 4139SOL    HW113304   2.246   0.497   6.935
 4139SOL    HW213305   2.211   0.530   6.791
 4140SOL     OW13306   3.323   0.253   6.696
 4140SOL    HW113307   3.337   0.165   6.731
 4140SOL    HW213308   3.267   0.296   6.761
 4141SOL     OW13309   2.866   0.027   6.733
 4141SOL    HW113310   2.785   3.991   6.697
 4141SOL    HW213311   2.924   3.952   6.741
 4142SOL     OW13312   2.628   1.327   5.886
 4142SOL    HW113313   2.594   1.238   5.900
 4142SOL    HW213314   2.696   1.337   5.952
 4143SOL     OW13315   3.173   0.071   5.746
 4143SOL    HW113316   3.179   3.989   5.696
 4143SOL    HW213317   3.088   0.066   5.790
 4144SOL     OW13318   3.143   0.456   6.271
 4144SOL    HW113319   3.097   0.540   6.266
 4144SOL    HW213320   3.146   0.437   6.365
 4145SOL     OW13321   3.452   0.210   6.453
 4145SOL    HW113322   3.404   0.234   6.532
 4145SOL    HW213323   3.451   0.290   6.400
 4146SOL     OW13324   1.889   1.052   5.887
 4146SOL    HW113325   1.981   1.050   5.860
 4146SOL    HW213326   1.871   0.963   5.917
 4147SOL     OW13327   2.747   1.669   5.887
 4147SOL    HW113328   2.678   1.643   5.826
 4147SOL    HW213329   2.702   1.682   5.971
 4148SOL     OW13330   2.090   0.619   7.569
 4148SOL    HW113331   2.000   0.629   7.601
 4148SOL    HW213332   2.080   0.600   7.476
 4149SOL     OW13333   2.079   0.300   8.439
 4149SOL    HW113334   2.116   0.257   8.516
 4149SOL    HW213335   1.994   0.258   8.426
 4150SOL     OW13336   1.871   0.397   8.081
 4150SOL    HW113337   1.784   0.413   8.119
 4150SOL    HW213338   1.856   0.329   8.016
 4151SOL     OW13339   2.429   1.291   8.624
 4151SOL    HW113340   2.342   1.295   8.585
 4151SOL    HW213341   2.446   1.380   8.654
 4152SOL     OW13342   3.426   1.512   8.155
 4152SOL    HW113343   3.383   1.492   8.238
 4152SOL    HW213344   3.354   1.518   8.092
 4153SOL     OW13345   2.994   0.699   8.144
 4153SOL    HW113346   3.042   0.781   8.133
 4153SOL    HW213347   2.947   0.710   8.227
 4154SOL     OW13348   3.622   0.623   7.674
 4154SOL    HW113349   3.604   0.612   7.581
 4154SOL    HW213350   3.607   0.537   7.712
 4155SOL     OW13351   2.614   1.140   8.492
 4155SOL    HW113352   2.546   1.175   8.548
 4155SOL    HW213353   2.654   1.217   8.451
 4156SOL     OW13354   2.733   0.769   9.272
 4156SOL    HW113355   2.718   0.840   9.335
 4156SOL    HW213356   2.755   0.814   9.190
 4157SOL     OW13357   2.550   1.000   8.092
 4157SOL    HW113358   2.615   0.990   8.162
 4157SOL    HW213359   2.479   1.051   8.132
 4158SOL     OW13360   2.575   1.150   9.263
 4158SOL    HW113361   2.622   1.227   9.292
 4158SOL    HW213362   2.493   1.183   9.227
 4159SOL     OW13363   2.191   1.422   8.516
 4159SOL    HW113364   2.116   1.385   8.470
 4159SOL    HW213365   2.237   1.475   8.451
 4160SOL     OW13366   3.321   1.501   8.805
 4160SOL    HW113367   3.375   1.580   8.815
 4160SOL    HW213368   3.256   1.508   8.875
 4161SOL     OW13369   2.307   0.393   8.940
 4161SOL    HW113370   2.397   0.361   8.940
 4161SOL    HW213371   2.254   0.314   8.949
 4162SOL     OW13372   3.472   0.450   8.183
 4162SOL    HW113373   3.403   0.484   8.126
 4162SOL    HW213374   3.495   0.524   8.240
 4163SOL     OW13375   2.999   1.342   9.142
 4163SOL    HW113376   3.040   1.337   9.228
 4163SOL    HW213377   2.947   1.262   9.135
 4164SOL     OW13378   2.122   1.091   8.339
 4164SOL    HW113379   2.115   1.003   8.374
 4164SOL    HW213380   2.064   1.144   8.393
 4165SOL     OW13381   2.470   1.784   8.880
 4165SOL    HW113382   2.392   1.771   8.934
 4165SOL    HW213383   2.495   1.875   8.896
 4166SOL     OW13384   2.440   0.985   7.585
 4166SOL    HW113385   2.462   1.055   7.524
 4166SOL    HW213386   2.484   1.008   7.666
 4167SOL     OW13387   3.444   0.141   8.904
 4167SOL    HW113388   3.470   0.213   8.848
 4167SOL    HW213389   3.408   0.183   8.982
 4168SOL     OW13390   1.979   0.656   8.008
 4168SOL    HW113391   1.952   0.568   8.032
 4168SOL    HW213392   1.970   0.707   8.088
 4169SOL     OW13393   3.702   1.757   7.784
 4169SOL    HW113394   3.773   1.733   7.845
 4169SOL    HW213395   3.720   1.849   7.762
 4170SOL     OW13396   3.549   0.917   8.093
 4170SOL    HW113397   3.634   0.875   8.079
 4170SOL    HW213398   3.533   0.967   8.014
 4171SOL     OW13399   3.504   1.105   7.880
 4171SOL    HW113400   3.589   1.110   7.835
 4171SOL    HW213401   3.511   1.167   7.951
 4172SOL     OW13402   1.985   0.749   9.029
 4172SOL    HW113403   2.075   0.781   9.033
 4172SOL    HW213404   1.932   0.829   9.035
 4173SOL     OW13405   2.482   1.375   8.208
 4173SOL    HW113406   2.436   1.292   8.221
 4173SOL    HW213407   2.463   1.399   8.117
 4174SOL     OW13408   3.149   1.237   8.870
 4174SOL    HW113409   3.182   1.170   8.810
 4174SOL    HW213410   3.208   1.232   8.946
 4175SOL     OW13411   2.682   0.005   7.965
 4175SOL    HW113412   2.727   0.085   7.940
 4175SOL    HW213413   2.589   0.029   7.965
 4176SOL     OW13414   2.051   0.961   8.724
 4176SOL    HW113415   2.136   0.921   8.708
 4176SOL    HW213416   1.991   0.915   8.666
 4177SOL     OW13417   3.389   0.996   7.649
 4177SOL    HW113418   3.320   0.940   7.684
 4177SOL    HW213419   3.433   1.031   7.727
 4178SOL     OW13420   3.047   1.809   9.071
 4178SOL    HW113421   3.057   1.868   8.997
 4178SOL    HW213422   3.065   1.722   9.036
 4179SOL     OW13423   2.219   0.253   9.287
 4179SOL    HW113424   2.263   0.338   9.287
 4179SOL    HW213425   2.126   0.274   9.292
 4180SOL     OW13426   3.328   1.421   8.397
 4180SOL    HW113427   3.261   1.435   8.464
 4180SOL    HW213428   3.316   1.329   8.372
 4181SOL     OW13429   3.515   1.746   8.027
 4181SOL    HW113430   3.501   1.714   7.938
 4181SOL    HW213431   3.496   1.671   8.083
 4182SOL     OW13432   2.456   0.720   7.717
 4182SOL    HW113433   2.456   0.802   7.668
 4182SOL    HW213434   2.391   0.733   7.786
 4183SOL     OW13435   3.137   0.369   8.389
 4183SOL    HW113436   3.049   0.329   8.396
 4183SOL    HW213437   3.194   0.307   8.434
 4184SOL     OW13438   3.441   1.669   7.758
 4184SOL    HW113439   3.531   1.700   7.752
 4184SOL    HW213440   3.414   1.654   7.667
 4185SOL     OW13441   2.658   0.616   8.900
 4185SOL    HW113442   2.629   0.590   8.988
 4185SOL    HW213443   2.619   0.550   8.842
 4186SOL     OW13444   3.254   0.476   9.125
 4186SOL    HW113445   3.260   0.521   9.209
 4186SOL    HW213446   3.311   0.400   9.135
 4187SOL     OW13447   2.814   0.887   9.032
 4187SOL    HW113448   2.869   0.818   8.995
 4187SOL    HW213449   2.766   0.922   8.957
 4188SOL     OW13450   2.855   0.402   8.686
 4188SOL    HW113451   2.770   0.424   8.725
 4188SOL    HW213452   2.833   0.374   8.597
 4189SOL     OW13453   2.914   0.700   7.873
 4189SOL    HW113454   2.931   0.693   7.967
 4189SOL    HW213455   2.831   0.653   7.860
 4190SOL     OW13456   1.944   0.823   8.223
 4190SOL    HW113457   2.024   0.815   8.274
 4190SOL    HW213458   1.897   0.897   8.262
 4191SOL     OW13459   2.757   0.352   7.648
 4191SOL    HW113460   2.799   0.410   7.585
 4191SOL    HW213461   2.747   0.268   7.601
 4192SOL     OW13462   3.569   0.573   9.277
 4192SOL    HW113463   3.532   0.648   9.230
 4192SOL    HW213464   3.595   0.512   9.209
 4193SOL     OW13465   3.239   1.141   7.987
 4193SOL    HW113466   3.320   1.129   7.938
 4193SOL    HW213467   3.189   1.205   7.936
 4194SOL     OW13468   2.420   0.199   8.329
 4194SOL    HW113469   2.423   0.218   8.422
 4194SOL    HW213470   2.415   0.285   8.287
 4195SOL     OW13471   2.874   1.449   7.926
 4195SOL    HW113472   2.825   1.518   7.882
 4195SOL    HW213473   2.856   1.462   8.019
 4196SOL     OW13474   2.212   1.799   8.309
 4196SOL    HW113475   2.249   1.711   8.317
 4196SOL    HW213476   2.288   1.857   8.318
 4197SOL     OW13477   3.667   1.061   8.316
 4197SOL    HW113478   3.614   1.037   8.241
 4197SOL    HW213479   3.605   1.065   8.389
 4198SOL     OW13480   3.089   1.539   8.962
 4198SOL    HW113481   3.077   1.467   9.023
 4198SOL    HW213482   3.024   1.525   8.893
 4199SOL     OW13483   2.180   0.958   7.700
 4199SOL    HW113484   2.260   0.973   7.650
 4199SOL    HW213485   2.144   0.877   7.665
 4200SOL     OW13486   3.341   0.747   8.177
 4200SOL    HW113487   3.336   0.706   8.263
 4200SOL    HW213488   3.419   0.803   8.181
 4201SOL     OW13489   2.332   1.265   9.188
 4201SOL    HW113490   2.305   1.268   9.096
 4201SOL    HW213491   2.250   1.262   9.237
 4202SOL     OW13492   3.033   1.759   7.705
 4202SOL    HW113493   2.953   1.727   7.748
 4202SOL    HW213494   3.043   1.703   7.628
 4203SOL     OW13495   2.032   0.275   8.947
 4203SOL    HW113496   1.976   0.352   8.936
 4203SOL    HW213497   2.037   0.262   9.042
 4204SOL     OW13498   3.487   1.383   7.537
 4204SOL    HW113499   3.446   1.467   7.520
 4204SOL    HW213500   3.420   1.318   7.515
 4205SOL     OW13501   3.297   0.170   7.850
 4205SOL    HW113502   3.252   0.096   7.809
 4205SOL    HW213503   3.372   0.130   7.894
 4206SOL     OW13504   2.120   1.744   8.665
 4206SOL    HW113505   2.181   1.680   8.702
 4206SOL    HW213506   2.138   1.743   8.571
 4207SOL     OW13507   2.803   1.698   8.347
 4207SOL    HW113508   2.883   1.651   8.372
 4207SOL    HW213509   2.765   1.643   8.278
 4208SOL     OW13510   2.257   0.695   7.922
 4208SOL    HW113511   2.275   0.602   7.935
 4208SOL    HW213512   2.164   0.704   7.940
 4209SOL     OW13513   3.392   0.229   9.175
 4209SOL    HW113514   3.385   0.255   9.267
 4209SOL    HW213515   3.373   0.136   9.174
 4210SOL     OW13516   2.505   0.130   7.557
 4210SOL    HW113517   2.529   0.046   7.595
 4210SOL    HW213518   2.443   0.108   7.487
 4211SOL     OW13519   2.637   0.282   9.216
 4211SOL    HW113520   2.709   0.219   9.220
 4211SOL    HW213521   2.579   0.256   9.288
 4212SOL     OW13522   2.741   1.524   8.643
 4212SOL    HW113523   2.723   1.486   8.557
 4212SOL    HW213524   2.809   1.469   8.680
 4213SOL     OW13525   3.202   0.587   8.878
 4213SOL    HW113526   3.232   0.559   8.965
 4213SOL    HW213527   3.236   0.676   8.869
 4214SOL     OW13528   2.684   1.394   8.399
 4214SOL    HW113529   2.766   1.381   8.351
 4214SOL    HW213530   2.616   1.392   8.331
 4215SOL     OW13531   2.792   0.511   8.348
 4215SOL    HW113532   2.767   0.503   8.256
 4215SOL    HW213533   2.818   0.423   8.374
 4216SOL     OW13534   2.407   0.057   7.939
 4216SOL    HW113535   2.333   0.062   7.999
 4216SOL    HW213536   2.402   0.137   7.888
 4217SOL     OW13537   3.290   1.198   7.488
 4217SOL    HW113538   3.321   1.124   7.539
 4217SOL    HW213539   3.206   1.221   7.527
 4218SOL     OW13540   2.192   0.043   7.659
 4218SOL    HW113541   2.199   0.110   7.590
 4218SOL    HW213542   2.274   0.048   7.707
 4219SOL     OW13543   2.804   0.250   7.908
 4219SOL    HW113544   2.780   0.289   7.824
 4219SOL    HW213545   2.900   0.253   7.909
 4220SOL     OW13546   2.942   0.684   8.906
 4220SOL    HW113547   2.872   0.619   8.913
 4220SOL    HW213548   3.022   0.632   8.901
 4221SOL     OW13549   3.084   1.570   8.241
 4221SOL    HW113550   3.099   1.637   8.174
 4221SOL    HW213551   3.153   1.584   8.306
 4222SOL     OW13552   2.335   1.144   8.184
 4222SOL    HW113553   2.264   1.126   8.246
 4222SOL    HW213554   2.296   1.130   8.098
 4223SOL     OW13555   3.126   1.792   8.057
 4223SOL    HW113556   3.176   1.852   8.001
 4223SOL    HW213557   3.061   1.848   8.100
 4224SOL     OW13558   2.885   0.540   7.477
 4224SOL    HW113559   2.841   0.623   7.458
 4224SOL    HW213560   2.948   0.562   7.545
 4225SOL     OW13561   1.944   0.550   8.844
 4225SOL    HW113562   2.035   0.553   8.815
 4225SOL    HW213563   1.936   0.623   8.906
 4226SOL     OW13564   2.425   0.231   8.609
 4226SOL    HW113565   2.449   0.139   8.619
 4226SOL    HW213566   2.336   0.236   8.641
 4227SOL     OW13567   2.732   0.461   8.086
 4227SOL    HW113568   2.683   0.514   8.024
 4227SOL    HW213569   2.753   0.381   8.038
 4228SOL     OW13570   2.858   0.040   8.228
 4228SOL    HW113571   2.821   0.068   8.145
 4228SOL    HW213572   2.869   3.945   8.218
 4229SOL     OW13573   3.302   1.161   8.306
 4229SOL    HW113574   3.232   1.096   8.303
 4229SOL    HW213575   3.329   1.171   8.215
 4230SOL     OW13576   3.326   0.608   8.422
 4230SOL    HW113577   3.273   0.529   8.427
 4230SOL    HW213578   3.386   0.601   8.496
 4231SOL     OW13579   3.721   0.824   7.823
 4231SOL    HW113580   3.762   0.767   7.887
 4231SOL    HW213581   3.683   0.764   7.759
 4232SOL     OW13582   3.528   1.264   8.093
 4232SOL    HW113583   3.624   1.267   8.102
 4232SOL    HW213584   3.500   1.354   8.113
 4233SOL     OW13585   3.257   0.576   7.517
 4233SOL    HW113586   3.194   0.556   7.587
 4233SOL    HW213587   3.342   0.558   7.556
 4234SOL     OW13588   2.388   0.266   7.764
 4234SOL    HW113589   2.443   0.227   7.696
 4234SOL    HW213590   2.360   0.349   7.727
 4235SOL     OW13591   3.613   1.234   9.014
 4235SOL    HW113592   3.701   1.199   8.997
 4235SOL    HW213593   3.629   1.323   9.044
 4236SOL     OW13594   2.919   1.353   8.780
 4236SOL    HW113595   2.844   1.322   8.831
 4236SOL    HW213596   2.995   1.312   8.822
 4237SOL     OW13597   3.468   1.628   9.104
 4237SOL    HW113598   3.460   1.663   9.015
 4237SOL    HW213599   3.548   1.577   9.103
 4238SOL     OW13600   2.993   1.206   8.552
 4238SOL    HW113601   2.934   1.244   8.617
 4238SOL    HW213602   2.961   1.240   8.468
 4239SOL     OW13603   3.490   1.096   8.523
 4239SOL    HW113604   3.482   1.157   8.596
 4239SOL    HW213605   3.413   1.113   8.468
 4240SOL     OW13606   2.774   0.116   8.849
 4240SOL    HW113607   2.794   0.089   8.760
 4240SOL    HW213608   2.855   0.158   8.880
 4241SOL     OW13609   2.846   1.115   9.171
 4241SOL    HW113610   2.755   1.132   9.194
 4241SOL    HW213611   2.843   1.037   9.116
 4242SOL     OW13612   2.569   1.049   7.819
 4242SOL    HW113613   2.553   1.030   7.912
 4242SOL    HW213614   2.646   0.995   7.797
 4243SOL     OW13615   2.283   0.816   8.699
 4243SOL    HW113616   2.351   0.824   8.765
 4243SOL    HW213617   2.247   0.728   8.712
 4244SOL     OW13618   3.128   0.375   8.724
 4244SOL    HW113619   3.162   0.453   8.768
 4244SOL    HW213620   3.041   0.400   8.695
 4245SOL     OW13621   1.948   1.557   8.813
 4245SOL    HW113622   1.921   1.621   8.746
 4245SOL    HW213623   2.043   1.554   8.806
 4246SOL     OW13624   2.222   1.106   7.939
 4246SOL    HW113625   2.217   1.180   7.879
 4246SOL    HW213626   2.206   1.029   7.885
 4247SOL     OW13627   2.416   0.532   8.304
 4247SOL    HW113628   2.430   0.592   8.231
 4247SOL    HW213629   2.480   0.559   8.370
 4248SOL     OW13630   3.114   1.351   7.837
 4248SOL    HW113631   3.172   1.421   7.868
 4248SOL    HW213632   3.028   1.374   7.873
 4249SOL     OW13633   3.146   1.459   8.596
 4249SOL    HW113634   3.203   1.464   8.673
 4249SOL    HW213635   3.092   1.382   8.611
 4250SOL     OW13636   3.433   0.632   7.933
 4250SOL    HW113637   3.393   0.689   7.999
 4250SOL    HW213638   3.484   0.692   7.878
 4251SOL     OW13639   2.220   1.508   8.767
 4251SOL    HW113640   2.204   1.471   8.681
 4251SOL    HW213641   2.314   1.523   8.770
 4252SOL     OW13642   2.279   0.745   9.050
 4252SOL    HW113643   2.341   0.789   8.992
 4252SOL    HW213644   2.321   0.660   9.067
 4253SOL     OW13645   3.466   0.778   9.131
 4253SOL    HW113646   3.380   0.821   9.125
 4253SOL    HW213647   3.519   0.821   9.064
 4254SOL     OW13648   2.876   0.132   9.228
 4254SOL    HW113649   2.925   0.205   9.190
 4254SOL    HW213650   2.859   0.073   9.154
 4255SOL     OW13651   2.350   0.034   9.210
 4255SOL    HW113652   2.352   0.047   9.115
 4255SOL    HW213653   2.291   0.102   9.242
 4256SOL     OW13654   2.446   0.873   8.479
 4256SOL    HW113655   2.475   0.965   8.481
 4256SOL    HW213656   2.389   0.865   8.555
 4257SOL     OW13657   3.215   0.859   8.473
 4257SOL    HW113658   3.130   0.846   8.432
 4257SOL    HW213659   3.259   0.774   8.467
 4258SOL     OW13660   3.062   0.538   7.706
 4258SOL    HW113661   3.071   0.458   7.759
 4258SOL    HW213662   3.018   0.600   7.764
 4259SOL     OW13663   2.161   0.209   8.691
 4259SOL    HW113664   2.120   0.238   8.772
 4259SOL    HW213665   2.150   0.114   8.691
 4260SOL     OW13666   1.904   1.304   8.727
 4260SOL    HW113667   1.938   1.247   8.795
 4260SOL    HW213668   1.916   1.393   8.762
 4261SOL     OW13669   2.584   0.632   8.500
 4261SOL    HW113670   2.660   0.619   8.443
 4261SOL    HW213671   2.555   0.721   8.482
 4262SOL     OW13672   3.594   0.957   9.310
 4262SOL    HW113673   3.551   0.895   9.251
 4262SOL    HW213674   3.530   0.972   9.380
 4263SOL     OW13675   2.185   0.056   8.099
 4263SOL    HW113676   2.165   0.149   8.111
 4263SOL    HW213677   2.149   0.014   8.178
 4264SOL     OW13678   3.473   0.392   7.827
 4264SOL    HW113679   3.436   0.323   7.883
 4264SOL    HW213680   3.452   0.473   7.873
 4265SOL     OW13681   2.891   0.759   8.406
 4265SOL    HW113682   2.884   0.776   8.500
 4265SOL    HW213683   2.864   0.668   8.396
 4266SOL     OW13684   2.844   1.566   9.167
 4266SOL    HW113685   2.829   1.610   9.084
 4266SOL    HW213686   2.887   1.484   9.144
 4267SOL     OW13687   3.705   1.499   9.046
 4267SOL    HW113688   3.729   1.528   8.958
 4267SOL    HW213689   3.785   1.509   9.097
 4268SOL     OW13690   2.214   0.915   9.258
 4268SOL    HW113691   2.296   0.935   9.304
 4268SOL    HW213692   2.240   0.853   9.189
 4269SOL     OW13693   3.363   0.275   7.582
 4269SOL    HW113694   3.290   0.214   7.593
 4269SOL    HW213695   3.376   0.312   7.669
 4270SOL     OW13696   3.149   0.826   7.477
 4270SOL    HW113697   3.192   0.741   7.481
 4270SOL    HW213698   3.182   0.866   7.396
 4271SOL     OW13699   2.929   1.336   8.301
 4271SOL    HW113700   2.934   1.264   8.238
 4271SOL    HW213701   2.990   1.402   8.268
 4272SOL     OW13702   2.168   0.809   8.393
 4272SOL    HW113703   2.261   0.831   8.387
 4272SOL    HW213704   2.166   0.719   8.425
 4273SOL     OW13705   2.198   0.536   8.462
 4273SOL    HW113706   2.157   0.451   8.446
 4273SOL    HW213707   2.274   0.536   8.404
 4274SOL     OW13708   2.995   0.381   9.145
 4274SOL    HW113709   2.946   0.435   9.206
 4274SOL    HW213710   3.081   0.421   9.140
 4275SOL     OW13711   3.013   0.226   8.929
 4275SOL    HW113712   3.004   0.280   9.008
 4275SOL    HW213713   3.038   0.288   8.860
 4276SOL     OW13714   2.361   1.572   8.359
 4276SOL    HW113715   2.428   1.639   8.375
 4276SOL    HW213716   2.406   1.504   8.308
 4277SOL     OW13717   2.840   0.788   8.672
 4277SOL    HW113718   2.897   0.769   8.746
 4277SOL    HW213719   2.755   0.753   8.697
 4278SOL     OW13720   1.895   0.547   8.565
 4278SOL    HW113721   1.970   0.522   8.511
 4278SOL    HW213722   1.929   0.547   8.655
 4279SOL     OW13723   2.065   0.526   9.160
 4279SOL    HW113724   2.136   0.506   9.099
 4279SOL    HW213725   2.021   0.602   9.122
 4280SOL     OW13726   3.242   0.936   9.105
 4280SOL    HW113727   3.263   1.030   9.103
 4280SOL    HW213728   3.237   0.910   9.013
 4281SOL     OW13729   2.680   0.573   7.810
 4281SOL    HW113730   2.685   0.497   7.753
 4281SOL    HW213731   2.603   0.621   7.779
 4282SOL     OW13732   3.502   0.602   8.631
 4282SOL    HW113733   3.491   0.542   8.704
 4282SOL    HW213734   3.588   0.581   8.595
 4283SOL     OW13735   2.090   1.563   9.190
 4283SOL    HW113736   2.045   1.595   9.268
 4283SOL    HW213737   2.112   1.472   9.211
 4284SOL     OW13738   2.570   0.453   8.704
 4284SOL    HW113739   2.519   0.376   8.679
 4284SOL    HW213740   2.561   0.512   8.630
 4285SOL     OW13741   2.788   1.678   8.917
 4285SOL    HW113742   2.762   1.642   8.832
 4285SOL    HW213743   2.784   1.773   8.905
 4286SOL     OW13744   2.325   0.493   7.631
 4286SOL    HW113745   2.382   0.566   7.656
 4286SOL    HW213746   2.239   0.533   7.618
 4287SOL     OW13747   2.005   1.139   8.922
 4287SOL    HW113748   2.007   1.090   9.004
 4287SOL    HW213749   2.023   1.073   8.854
 4288SOL     OW13750   3.184   1.044   8.670
 4288SOL    HW113751   3.208   0.982   8.601
 4288SOL    HW213752   3.116   1.099   8.630
 4289SOL     OW13753   3.174   0.857   7.753
 4289SOL    HW113754   3.100   0.824   7.805
 4289SOL    HW213755   3.148   0.841   7.662
 4290SOL     OW13756   3.642   1.741   8.605
 4290SOL    HW113757   3.697   1.769   8.532
 4290SOL    HW213758   3.613   1.654   8.581
 4291SOL     OW13759   3.102   1.733   8.556
 4291SOL    HW113760   3.185   1.756   8.514
 4291SOL    HW213761   3.110   1.640   8.577
 4292SOL     OW13762   1.951   1.259   8.466
 4292SOL    HW113763   1.932   1.273   8.559
 4292SOL    HW213764   1.871   1.218   8.431
 4293SOL     OW13765   2.539   1.667   9.180
 4293SOL    HW113766   2.487   1.747   9.180
 4293SOL    HW213767   2.606   1.683   9.113
 4294SOL     OW13768   3.551   0.120   7.936
 4294SOL    HW113769   3.632   0.136   7.888
 4294SOL    HW213770   3.553   0.027   7.957
 4295SOL     OW13771   3.253   1.568   7.935
 4295SOL    HW113772   3.314   1.600   7.868
 4295SOL    HW213773   3.204   1.646   7.962
 4296SOL     OW13774   3.139   0.928   8.120
 4296SOL    HW113775   3.213   0.868   8.130
 4296SOL    HW213776   3.173   0.999   8.066
 4297SOL     OW13777   2.672   1.274   8.875
 4297SOL    HW113778   2.644   1.314   8.957
 4297SOL    HW213779   2.602   1.295   8.813
 4298SOL     OW13780   3.482   1.727   8.839
 4298SOL    HW113781   3.537   1.732   8.761
 4298SOL    HW213782   3.469   1.818   8.865
 4299SOL     OW13783   3.703   0.182   8.419
 4299SOL    HW113784   3.728   0.097   8.380
 4299SOL    HW213785   3.617   0.201   8.382
 4300SOL     OW13786   2.126   0.316   8.163
 4300SOL    HW113787   2.039   0.351   8.140
 4300SOL    HW213788   2.124   0.308   8.258
 4301SOL     OW13789   3.073   1.610   7.482
 4301SOL    HW113790   3.051   1.516   7.488
 4301SOL    HW213791   3.033   1.638   7.399
 4302SOL     OW13792   2.686   1.006   8.821
 4302SOL    HW113793   2.728   1.002   8.735
 4302SOL    HW213794   2.684   1.099   8.842
 4303SOL     OW13795   2.781   0.909   7.737
 4303SOL    HW113796   2.844   0.941   7.672
 4303SOL    HW213797   2.828   0.840   7.784
 4304SOL     OW13798   3.354   1.628   7.492
 4304SOL    HW113799   3.260   1.622   7.477
 4304SOL    HW213800   3.391   1.634   7.404
 4305SOL     OW13801   2.229   1.298   8.946
 4305SOL    HW113802   2.223   1.371   8.885
 4305SOL    HW213803   2.152   1.244   8.927
 4306SOL     OW13804   3.463   1.280   8.725
 4306SOL    HW113805   3.531   1.272   8.791
 4306SOL    HW213806   3.406   1.349   8.758
 4307SOL     OW13807   2.917   1.109   8.151
 4307SOL    HW113808   2.846   1.059   8.193
 4307SOL    HW213809   2.982   1.043   8.127
 4308SOL     OW13810   2.876   0.249   8.417
 4308SOL    HW113811   2.867   0.198   8.337
 4308SOL    HW213812   2.872   0.183   8.487
 4309SOL     OW13813   2.451   1.439   7.956
 4309SOL    HW113814   2.514   1.391   7.902
 4309SOL    HW213815   2.395   1.483   7.892
 4310SOL     OW13816   3.582   0.394   8.820
 4310SOL    HW113817   3.654   0.457   8.820
 4310SOL    HW213818   3.614   0.322   8.766
 4311SOL     OW13819   1.975   1.026   9.169
 4311SOL    HW113820   1.899   1.001   9.222
 4311SOL    HW213821   2.049   0.986   9.215
 4312SOL     OW13822   2.555   0.255   8.949
 4312SOL    HW113823   2.622   0.200   8.908
 4312SOL    HW213824   2.582   0.261   9.041
 4313SOL     OW13825   1.962   0.318   7.440
 4313SOL    HW113826   1.894   0.337   7.504
 4313SOL    HW213827   1.970   0.398   7.388
 4314SOL     OW13828   3.287   0.857   8.846
 4314SOL    HW113829   3.238   0.919   8.793
 4314SOL    HW213830   3.376   0.859   8.810
 4315SOL     OW13831   1.943   0.152   7.788
 4315SOL    HW113832   1.912   0.211   7.720
 4315SOL    HW213833   2.029   0.124   7.758
 4316SOL     OW13834   3.045   1.334   7.569
 4316SOL    HW113835   2.961   1.290   7.583
 4316SOL    HW213836   3.081   1.345   7.657
 4317SOL     OW13837   2.483   0.829   8.882
 4317SOL    HW113838   2.540   0.905   8.867
 4317SOL    HW213839   2.544   0.755   8.891
 4318SOL     OW13840   3.344   1.782   8.428
 4318SOL    HW113841   3.368   1.844   8.359
 4318SOL    HW213842   3.428   1.753   8.465
 4319SOL     OW13843   2.580   0.561   9.152
 4319SOL    HW113844   2.622   0.623   9.211
 4319SOL    HW213845   2.606   0.475   9.186
 4320SOL     OW13846   3.335   1.197   9.078
 4320SOL    HW113847   3.323   1.212   9.172
 4320SOL    HW213848   3.428   1.213   9.062
 4321SOL     OW13849   2.234   1.741   9.025
 4321SOL    HW113850   2.164   1.752   8.961
 4321SOL    HW213851   2.206   1.667   9.079
 4322SOL     OW13852   3.526   0.881   8.707
 4322SOL    HW113853   3.526   0.795   8.663
 4322SOL    HW213854   3.520   0.944   8.636
 4323SOL     OW13855   3.083   0.338   7.891
 4323SOL    HW113856   3.151   0.271   7.881
 4323SOL    HW213857   3.103   0.381   7.973
 4324SOL     OW13858   2.452   0.736   8.118
 4324SOL    HW113859   2.490   0.823   8.104
 4324SOL    HW213860   2.385   0.727   8.051
 4325SOL     OW13861   3.616   0.381   9.090
 4325SOL    HW113862   3.595   0.390   8.997
 4325SOL    HW213863   3.556   0.314   9.122
 4326SOL     OW13864   3.616   0.930   8.962
 4326SOL    HW113865   3.607   1.024   8.979
 4326SOL    HW213866   3.592   0.920   8.869
 4327SOL     OW13867   2.527   1.792   8.374
 4327SOL    HW113868   2.516   1.887   8.375
 4327SOL    HW213869   2.622   1.779   8.381
 4328SOL     OW13870   2.732   0.970   8.302
 4328SOL    HW113871   2.781   0.897   8.340
 4328SOL    HW213872   2.693   1.015   8.377
 4329SOL     OW13873   2.940   0.991   7.534
 4329SOL    HW113874   2.922   1.040   7.454
 4329SOL    HW213875   3.015   0.936   7.512
 4330SOL     OW13876   3.714   1.557   8.289
 4330SOL    HW113877   3.635   1.539   8.238
 4330SOL    HW213878   3.714   1.488   8.357
 4331SOL     OW13879   2.090   1.300   9.300
 4331SOL    HW113880   2.021   1.238   9.275
 4331SOL    HW213881   2.074   1.316   9.393
 4332SOL     OW13882   1.928   1.212   8.113
 4332SOL    HW113883   1.977   1.187   8.191
 4332SOL    HW213884   1.990   1.201   8.041
 4333SOL     OW13885   2.543   1.406   9.075
 4333SOL    HW113886   2.466   1.361   9.111
 4333SOL    HW213887   2.541   1.493   9.113
 4334SOL     OW13888   3.676   0.181   8.692
 4334SOL    HW113889   3.677   0.086   8.701
 4334SOL    HW213890   3.694   0.198   8.600
 4335SOL     OW13891   2.291   0.434   7.973
 4335SOL    HW113892   2.324   0.363   7.920
 4335SOL    HW213893   2.243   0.391   8.044
 4336SOL     OW13894   3.558   1.491   8.545
 4336SOL    HW113895   3.480   1.468   8.495
 4336SOL    HW213896   3.569   1.419   8.607
 4337SOL     OW13897   2.193   0.556   8.742
 4337SOL    HW113898   2.246   0.497   8.796
 4337SOL    HW213899   2.212   0.530   8.652
 4338SOL     OW13900   2.699   1.567   8.124
 4338SOL    HW113901   2.666   1.636   8.066
 4338SOL    HW213902   2.627   1.504   8.131
 4339SOL     OW13903   3.323   0.253   8.558
 4339SOL    HW113904   3.337   0.165   8.593
 4339SOL    HW213905   3.267   0.296   8.623
 4340SOL     OW13906   2.866   0.027   8.594
 4340SOL    HW113907   2.785   3.991   8.558
 4340SOL    HW213908   2.925   3.953   8.603
 4341SOL     OW13909   2.644   1.310   7.823
 4341SOL    HW113910   2.620   1.218   7.820
 4341SOL    HW213911   2.734   1.310   7.856
 4342SOL     OW13912   2.485   1.555   8.732
 4342SOL    HW113913   2.485   1.636   8.783
 4342SOL    HW213914   2.574   1.549   8.696
 4343SOL     OW13915   3.173   0.071   7.607
 4343SOL    HW113916   3.180   3.989   7.558
 4343SOL    HW213917   3.088   0.065   7.651
 4344SOL     OW13918   3.143   0.457   8.133
 4344SOL    HW113919   3.096   0.540   8.128
 4344SOL    HW213920   3.146   0.437   8.227
 4345SOL     OW13921   3.452   0.210   8.315
 4345SOL    HW113922   3.404   0.234   8.394
 4345SOL    HW213923   3.451   0.289   8.262
 4346SOL     OW13924   1.916   1.072   7.775
 4346SOL    HW113925   1.998   1.060   7.728
 4346SOL    HW213926   1.885   0.983   7.794
 4347SOL     OW13927   2.089   0.619   9.431
 4347SOL    HW113928   1.999   0.628   9.463
 4347SOL    HW213929   2.080   0.599   9.338
 4348SOL     OW13930   2.079   0.300  10.301
 4348SOL    HW113931   2.116   0.257  10.378
 4348SOL    HW213932   1.994   0.258  10.288
 4349SOL     OW13933   1.871   0.397   9.943
 4349SOL    HW113934   1.784   0.413   9.981
 4349SOL    HW213935   1.856   0.329   9.878
 4350SOL     OW13936   2.429   1.291  10.488
 4350SOL    HW113937   2.343   1.294  10.446
 4350SOL    HW213938   2.447   1.381  10.515
 4351SOL     OW13939   3.426   1.513  10.018
 4351SOL    HW113940   3.383   1.491  10.101
 4351SOL    HW213941   3.355   1.518   9.954
 4352SOL     OW13942   2.995   0.698  10.007
 4352SOL    HW113943   3.042   0.780   9.994
 4352SOL    HW213944   2.947   0.711  10.089
 4353SOL     OW13945   3.624   0.623   9.536
 4353SOL    HW113946   3.605   0.612   9.443
 4353SOL    HW213947   3.606   0.538   9.575
 4354SOL     OW13948   2.615   1.140  10.354
 4354SOL    HW113949   2.547   1.176  10.411
 4354SOL    HW213950   2.651   1.217  10.310
 4355SOL     OW13951   2.733   0.769  11.134
 4355SOL    HW113952   2.718   0.840  11.197
 4355SOL    HW213953   2.755   0.814  11.052
 4356SOL     OW13954   2.548   1.000   9.955
 4356SOL    HW113955   2.613   0.990  10.025
 4356SOL    HW213956   2.479   1.053   9.994
 4357SOL     OW13957   2.575   1.150  11.125
 4357SOL    HW113958   2.622   1.227  11.154
 4357SOL    HW213959   2.493   1.183  11.089
 4358SOL     OW13960   2.190   1.425  10.379
 4358SOL    HW113961   2.118   1.385  10.331
 4358SOL    HW213962   2.238   1.474  10.313
 4359SOL     OW13963   3.321   1.501  10.668
 4359SOL    HW113964   3.375   1.580  10.677
 4359SOL    HW213965   3.256   1.508  10.738
 4360SOL     OW13966   2.307   0.393  10.803
 4360SOL    HW113967   2.397   0.362  10.802
 4360SOL    HW213968   2.254   0.313  10.811
 4361SOL     OW13969   3.473   0.450  10.045
 4361SOL    HW113970   3.403   0.483   9.988
 4361SOL    HW213971   3.494   0.524  10.102
 4362SOL     OW13972   2.106   1.693   9.791
 4362SOL    HW113973   2.077   1.783   9.804
 4362SOL    HW213974   2.178   1.700   9.729
 4363SOL     OW13975   2.999   1.342  11.004
 4363SOL    HW113976   3.040   1.336  11.090
 4363SOL    HW213977   2.947   1.262  10.997
 4364SOL     OW13978   2.092   1.429   9.849
 4364SOL    HW113979   2.092   1.525   9.844
 4364SOL    HW213980   2.029   1.409   9.918
 4365SOL     OW13981   2.126   1.090  10.201
 4365SOL    HW113982   2.119   1.002  10.238
 4365SOL    HW213983   2.067   1.143  10.255
 4366SOL     OW13984   2.471   1.785  10.741
 4366SOL    HW113985   2.392   1.773  10.794
 4366SOL    HW213986   2.497   1.875  10.758
 4367SOL     OW13987   2.445   0.983   9.446
 4367SOL    HW113988   2.492   1.030   9.378
 4367SOL    HW213989   2.483   1.015   9.528
 4368SOL     OW13990   3.444   0.141  10.766
 4368SOL    HW113991   3.470   0.213  10.710
 4368SOL    HW213992   3.408   0.183  10.844
 4369SOL     OW13993   1.979   0.656   9.870
 4369SOL    HW113994   1.952   0.568   9.894
 4369SOL    HW213995   1.971   0.706   9.951
 4370SOL     OW13996   3.702   1.757   9.646
 4370SOL    HW113997   3.772   1.733   9.707
 4370SOL    HW213998   3.721   1.849   9.624
 4371SOL     OW13999   1.934   1.567   9.415
 4371SOL    HW114000   1.908   1.478   9.438
 4371SOL    HW214001   1.880   1.623   9.471
 4372SOL     OW14002   3.550   0.918   9.956
 4372SOL    HW114003   3.634   0.875   9.939
 4372SOL    HW214004   3.532   0.968   9.876
 4373SOL     OW14005   3.504   1.104   9.742
 4373SOL    HW114006   3.589   1.110   9.697
 4373SOL    HW214007   3.510   1.167   9.813
 4374SOL     OW14008   1.985   0.749  10.891
 4374SOL    HW114009   2.075   0.781  10.895
 4374SOL    HW214010   1.931   0.829  10.897
 4375SOL     OW14011   2.476   1.389  10.045
 4375SOL    HW114012   2.431   1.306  10.054
 4375SOL    HW214013   2.459   1.417   9.955
 4376SOL     OW14014   3.149   1.237  10.733
 4376SOL    HW114015   3.181   1.170  10.672
 4376SOL    HW214016   3.208   1.232  10.808
 4377SOL     OW14017   2.682   0.004   9.827
 4377SOL    HW114018   2.727   0.084   9.802
 4377SOL    HW214019   2.589   0.028   9.827
 4378SOL     OW14020   2.051   0.961  10.586
 4378SOL    HW114021   2.136   0.921  10.570
 4378SOL    HW214022   1.991   0.915  10.528
 4379SOL     OW14023   3.390   0.996   9.511
 4379SOL    HW114024   3.321   0.939   9.544
 4379SOL    HW214025   3.432   1.031   9.589
 4380SOL     OW14026   3.047   1.809  10.933
 4380SOL    HW114027   3.057   1.868  10.859
 4380SOL    HW214028   3.064   1.722  10.897
 4381SOL     OW14029   2.219   0.253  11.149
 4381SOL    HW114030   2.263   0.338  11.149
 4381SOL    HW214031   2.126   0.274  11.154
 4382SOL     OW14032   3.328   1.420  10.259
 4382SOL    HW114033   3.261   1.435  10.326
 4382SOL    HW214034   3.317   1.328  10.234
 4383SOL     OW14035   3.515   1.746   9.889
 4383SOL    HW114036   3.500   1.713   9.800
 4383SOL    HW214037   3.495   1.671   9.946
 4384SOL     OW14038   2.457   0.720   9.578
 4384SOL    HW114039   2.461   0.803   9.531
 4384SOL    HW214040   2.392   0.735   9.647
 4385SOL     OW14041   3.137   0.369  10.251
 4385SOL    HW114042   3.049   0.330  10.258
 4385SOL    HW214043   3.194   0.307  10.296
 4386SOL     OW14044   3.439   1.671   9.620
 4386SOL    HW114045   3.530   1.701   9.613
 4386SOL    HW214046   3.413   1.655   9.529
 4387SOL     OW14047   2.658   0.616  10.762
 4387SOL    HW114048   2.629   0.590  10.850
 4387SOL    HW214049   2.619   0.550  10.704
 4388SOL     OW14050   3.254   0.476  10.987
 4388SOL    HW114051   3.260   0.521  11.071
 4388SOL    HW214052   3.311   0.400  10.997
 4389SOL     OW14053   2.814   0.887  10.894
 4389SOL    HW114054   2.869   0.818  10.857
 4389SOL    HW214055   2.766   0.922  10.819
 4390SOL     OW14056   2.854   0.402  10.548
 4390SOL    HW114057   2.770   0.423  10.587
 4390SOL    HW214058   2.834   0.375  10.459
 4391SOL     OW14059   2.914   0.699   9.735
 4391SOL    HW114060   2.931   0.693   9.829
 4391SOL    HW214061   2.831   0.653   9.722
 4392SOL     OW14062   1.949   0.822  10.086
 4392SOL    HW114063   2.029   0.815  10.138
 4392SOL    HW214064   1.904   0.899  10.122
 4393SOL     OW14065   2.757   0.352   9.509
 4393SOL    HW114066   2.799   0.411   9.447
 4393SOL    HW214067   2.750   0.269   9.463
 4394SOL     OW14068   3.569   0.573  11.139
 4394SOL    HW114069   3.532   0.648  11.092
 4394SOL    HW214070   3.595   0.512  11.071
 4395SOL     OW14071   3.239   1.141   9.850
 4395SOL    HW114072   3.319   1.130   9.799
 4395SOL    HW214073   3.187   1.204   9.800
 4396SOL     OW14074   2.420   0.199  10.191
 4396SOL    HW114075   2.423   0.218  10.284
 4396SOL    HW214076   2.416   0.284  10.149
 4397SOL     OW14077   2.865   1.443   9.781
 4397SOL    HW114078   2.831   1.517   9.730
 4397SOL    HW214079   2.844   1.464   9.872
 4398SOL     OW14080   2.241   1.811  10.123
 4398SOL    HW114081   2.255   1.719  10.144
 4398SOL    HW214082   2.302   1.858  10.180
 4399SOL     OW14083   3.667   1.062  10.178
 4399SOL    HW114084   3.613   1.037  10.102
 4399SOL    HW214085   3.605   1.065  10.251
 4400SOL     OW14086   3.089   1.539  10.823
 4400SOL    HW114087   3.076   1.467  10.885
 4400SOL    HW214088   3.024   1.524  10.755
 4401SOL     OW14089   2.181   0.960   9.563
 4401SOL    HW114090   2.263   0.979   9.518
 4401SOL    HW214091   2.151   0.877   9.525
 4402SOL     OW14092   3.342   0.746  10.038
 4402SOL    HW114093   3.336   0.706  10.125
 4402SOL    HW214094   3.419   0.803  10.043
 4403SOL     OW14095   2.331   1.266  11.053
 4403SOL    HW114096   2.304   1.269  10.961
 4403SOL    HW214097   2.248   1.263  11.102
 4404SOL     OW14098   2.986   1.777   9.541
 4404SOL    HW114099   2.911   1.737   9.584
 4404SOL    HW214100   3.010   1.715   9.472
 4405SOL     OW14101   2.031   0.274  10.809
 4405SOL    HW114102   1.977   0.352  10.798
 4405SOL    HW214103   2.037   0.262  10.904
 4406SOL     OW14104   3.487   1.383   9.397
 4406SOL    HW114105   3.444   1.468   9.382
 4406SOL    HW214106   3.420   1.318   9.378
 4407SOL     OW14107   2.334   1.719   9.640
 4407SOL    HW114108   2.378   1.788   9.689
 4407SOL    HW214109   2.393   1.698   9.568
 4408SOL     OW14110   3.297   0.170   9.712
 4408SOL    HW114111   3.252   0.096   9.671
 4408SOL    HW214112   3.372   0.131   9.756
 4409SOL     OW14113   2.128   1.744  10.527
 4409SOL    HW114114   2.185   1.680  10.570
 4409SOL    HW214115   2.146   1.733  10.434
 4410SOL     OW14116   2.799   1.698  10.208
 4410SOL    HW114117   2.878   1.648  10.229
 4410SOL    HW214118   2.758   1.649  10.138
 4411SOL     OW14119   2.257   0.695   9.784
 4411SOL    HW114120   2.275   0.602   9.797
 4411SOL    HW214121   2.164   0.704   9.802
 4412SOL     OW14122   3.392   0.229  11.037
 4412SOL    HW114123   3.385   0.255  11.129
 4412SOL    HW214124   3.373   0.136  11.036
 4413SOL     OW14125   2.506   0.130   9.418
 4413SOL    HW114126   2.529   0.046   9.458
 4413SOL    HW214127   2.443   0.108   9.349
 4414SOL     OW14128   2.637   0.282  11.078
 4414SOL    HW114129   2.709   0.219  11.082
 4414SOL    HW214130   2.580   0.256  11.150
 4415SOL     OW14131   2.739   1.522  10.503
 4415SOL    HW114132   2.723   1.485  10.416
 4415SOL    HW214133   2.809   1.468  10.540
 4416SOL     OW14134   3.202   0.587  10.740
 4416SOL    HW114135   3.232   0.559  10.827
 4416SOL    HW214136   3.236   0.676  10.731
 4417SOL     OW14137   2.678   1.392  10.253
 4417SOL    HW114138   2.763   1.381  10.209
 4417SOL    HW214139   2.615   1.396  10.181
 4418SOL     OW14140   2.792   0.511  10.210
 4418SOL    HW114141   2.767   0.503  10.118
 4418SOL    HW214142   2.818   0.423  10.236
 4419SOL     OW14143   2.407   0.057   9.801
 4419SOL    HW114144   2.333   0.062   9.861
 4419SOL    HW214145   2.402   0.138   9.750
 4420SOL     OW14146   3.289   1.199   9.350
 4420SOL    HW114147   3.319   1.124   9.401
 4420SOL    HW214148   3.204   1.221   9.388
 4421SOL     OW14149   2.192   0.043   9.521
 4421SOL    HW114150   2.200   0.110   9.453
 4421SOL    HW214151   2.274   0.049   9.570
 4422SOL     OW14152   2.804   0.250   9.770
 4422SOL    HW114153   2.779   0.290   9.686
 4422SOL    HW214154   2.900   0.254   9.771
 4423SOL     OW14155   2.942   0.684  10.769
 4423SOL    HW114156   2.872   0.619  10.775
 4423SOL    HW214157   3.022   0.632  10.763
 4424SOL     OW14158   3.083   1.572  10.105
 4424SOL    HW114159   3.099   1.637  10.037
 4424SOL    HW214160   3.153   1.586  10.168
 4425SOL     OW14161   2.334   1.151  10.041
 4425SOL    HW114162   2.266   1.131  10.105
 4425SOL    HW214163   2.292   1.137   9.956
 4426SOL     OW14164   3.129   1.793   9.920
 4426SOL    HW114165   3.177   1.854   9.864
 4426SOL    HW214166   3.062   1.846   9.962
 4427SOL     OW14167   2.884   0.543   9.338
 4427SOL    HW114168   2.840   0.625   9.319
 4427SOL    HW214169   2.947   0.565   9.406
 4428SOL     OW14170   1.944   0.550  10.707
 4428SOL    HW114171   2.035   0.552  10.677
 4428SOL    HW214172   1.937   0.623  10.768
 4429SOL     OW14173   2.425   0.231  10.471
 4429SOL    HW114174   2.449   0.139  10.481
 4429SOL    HW214175   2.336   0.236  10.503
 4430SOL     OW14176   2.732   0.460   9.948
 4430SOL    HW114177   2.684   0.515   9.885
 4430SOL    HW214178   2.753   0.381   9.900
 4431SOL     OW14179   2.858   0.039  10.090
 4431SOL    HW114180   2.822   0.068  10.007
 4431SOL    HW214181   2.869   3.945  10.080
 4432SOL     OW14182   3.302   1.161  10.168
 4432SOL    HW114183   3.230   1.098  10.166
 4432SOL    HW214184   3.327   1.171  10.076
 4433SOL     OW14185   3.326   0.608  10.284
 4433SOL    HW114186   3.272   0.529  10.289
 4433SOL    HW214187   3.386   0.601  10.358
 4434SOL     OW14188   3.722   0.824   9.685
 4434SOL    HW114189   3.763   0.767   9.749
 4434SOL    HW214190   3.684   0.764   9.621
 4435SOL     OW14191   2.354   1.420   9.465
 4435SOL    HW114192   2.278   1.394   9.518
 4435SOL    HW214193   2.341   1.374   9.381
 4436SOL     OW14194   3.529   1.265   9.954
 4436SOL    HW114195   3.624   1.268   9.964
 4436SOL    HW214196   3.500   1.354   9.975
 4437SOL     OW14197   3.257   0.575   9.379
 4437SOL    HW114198   3.193   0.557   9.448
 4437SOL    HW214199   3.342   0.560   9.420
 4438SOL     OW14200   2.388   0.266   9.626
 4438SOL    HW114201   2.443   0.228   9.558
 4438SOL    HW214202   2.360   0.350   9.589
 4439SOL     OW14203   3.613   1.234  10.876
 4439SOL    HW114204   3.701   1.199  10.859
 4439SOL    HW214205   3.629   1.323  10.906
 4440SOL     OW14206   2.919   1.354  10.643
 4440SOL    HW114207   2.844   1.322  10.694
 4440SOL    HW214208   2.995   1.312  10.684
 4441SOL     OW14209   3.468   1.628  10.966
 4441SOL    HW114210   3.460   1.663  10.877
 4441SOL    HW214211   3.548   1.577  10.965
 4442SOL     OW14212   2.994   1.207  10.414
 4442SOL    HW114213   2.934   1.244  10.478
 4442SOL    HW214214   2.963   1.240  10.330
 4443SOL     OW14215   3.490   1.096  10.385
 4443SOL    HW114216   3.481   1.157  10.457
 4443SOL    HW214217   3.413   1.112  10.330
 4444SOL     OW14218   2.774   0.116  10.711
 4444SOL    HW114219   2.794   0.089  10.622
 4444SOL    HW214220   2.855   0.158  10.742
 4445SOL     OW14221   2.846   1.115  11.034
 4445SOL    HW114222   2.755   1.132  11.056
 4445SOL    HW214223   2.844   1.037  10.978
 4446SOL     OW14224   2.571   1.062   9.680
 4446SOL    HW114225   2.556   1.044   9.773
 4446SOL    HW214226   2.647   1.008   9.657
 4447SOL     OW14227   2.283   0.816  10.561
 4447SOL    HW114228   2.351   0.824  10.628
 4447SOL    HW214229   2.247   0.728  10.574
 4448SOL     OW14230   3.128   0.375  10.586
 4448SOL    HW114231   3.162   0.453  10.630
 4448SOL    HW214232   3.041   0.400  10.556
 4449SOL     OW14233   1.949   1.555  10.671
 4449SOL    HW114234   1.923   1.621  10.606
 4449SOL    HW214235   2.045   1.551  10.664
 4450SOL     OW14236   2.209   1.112   9.800
 4450SOL    HW114237   2.209   1.188   9.742
 4450SOL    HW214238   2.205   1.036   9.741
 4451SOL     OW14239   2.416   0.532  10.166
 4451SOL    HW114240   2.430   0.592  10.093
 4451SOL    HW214241   2.481   0.559  10.232
 4452SOL     OW14242   3.110   1.349   9.699
 4452SOL    HW114243   3.166   1.420   9.731
 4452SOL    HW214244   3.023   1.370   9.733
 4453SOL     OW14245   3.147   1.459  10.458
 4453SOL    HW114246   3.202   1.463  10.535
 4453SOL    HW214247   3.092   1.382  10.471
 4454SOL     OW14248   3.434   0.632   9.795
 4454SOL    HW114249   3.392   0.688   9.861
 4454SOL    HW214250   3.481   0.694   9.739
 4455SOL     OW14251   2.221   1.508  10.631
 4455SOL    HW114252   2.205   1.471  10.544
 4455SOL    HW214253   2.316   1.522  10.633
 4456SOL     OW14254   2.280   0.745  10.912
 4456SOL    HW114255   2.341   0.789  10.854
 4456SOL    HW214256   2.321   0.660  10.930
 4457SOL     OW14257   3.466   0.778  10.993
 4457SOL    HW114258   3.381   0.821  10.987
 4457SOL    HW214259   3.519   0.821  10.926
 4458SOL     OW14260   2.876   0.132  11.090
 4458SOL    HW114261   2.925   0.205  11.052
 4458SOL    HW214262   2.859   0.073  11.016
 4459SOL     OW14263   2.350   0.034  11.072
 4459SOL    HW114264   2.352   0.047  10.977
 4459SOL    HW214265   2.291   0.102  11.104
 4460SOL     OW14266   2.447   0.873  10.342
 4460SOL    HW114267   2.475   0.964  10.342
 4460SOL    HW214268   2.389   0.866  10.418
 4461SOL     OW14269   3.215   0.859  10.336
 4461SOL    HW114270   3.130   0.847  10.293
 4461SOL    HW214271   3.258   0.774  10.329
 4462SOL     OW14272   3.063   0.537   9.568
 4462SOL    HW114273   3.070   0.458   9.621
 4462SOL    HW214274   3.020   0.600   9.625
 4463SOL     OW14275   2.161   0.209  10.553
 4463SOL    HW114276   2.120   0.238  10.634
 4463SOL    HW214277   2.150   0.114  10.553
 4464SOL     OW14278   1.902   1.302  10.589
 4464SOL    HW114279   1.938   1.245  10.657
 4464SOL    HW214280   1.916   1.391  10.622
 4465SOL     OW14281   2.584   0.632  10.362
 4465SOL    HW114282   2.660   0.619  10.305
 4465SOL    HW214283   2.555   0.721  10.344
 4466SOL     OW14284   3.594   0.957  11.172
 4466SOL    HW114285   3.551   0.895  11.113
 4466SOL    HW214286   3.530   0.972  11.242
 4467SOL     OW14287   2.185   0.056   9.961
 4467SOL    HW114288   2.165   0.148   9.973
 4467SOL    HW214289   2.150   0.014  10.040
 4468SOL     OW14290   3.474   0.392   9.689
 4468SOL    HW114291   3.436   0.323   9.744
 4468SOL    HW214292   3.452   0.474   9.735
 4469SOL     OW14293   2.892   0.759  10.269
 4469SOL    HW114294   2.885   0.776  10.363
 4469SOL    HW214295   2.864   0.668  10.259
 4470SOL     OW14296   2.843   1.566  11.029
 4470SOL    HW114297   2.828   1.610  10.946
 4470SOL    HW214298   2.887   1.484  11.006
 4471SOL     OW14299   3.705   1.499  10.908
 4471SOL    HW114300   3.728   1.528  10.820
 4471SOL    HW214301   3.785   1.509  10.959
 4472SOL     OW14302   2.215   0.915  11.119
 4472SOL    HW114303   2.296   0.935  11.166
 4472SOL    HW214304   2.241   0.853  11.051
 4473SOL     OW14305   3.364   0.274   9.444
 4473SOL    HW114306   3.290   0.214   9.455
 4473SOL    HW214307   3.376   0.313   9.531
 4474SOL     OW14308   3.150   0.826   9.338
 4474SOL    HW114309   3.193   0.741   9.342
 4474SOL    HW214310   3.183   0.866   9.258
 4475SOL     OW14311   2.929   1.337  10.166
 4475SOL    HW114312   2.933   1.265  10.103
 4475SOL    HW214313   2.989   1.403  10.130
 4476SOL     OW14314   2.169   0.809  10.256
 4476SOL    HW114315   2.262   0.830  10.249
 4476SOL    HW214316   2.167   0.719  10.288
 4477SOL     OW14317   2.199   0.536  10.324
 4477SOL    HW114318   2.157   0.451  10.308
 4477SOL    HW214319   2.275   0.537  10.266
 4478SOL     OW14320   2.995   0.381  11.007
 4478SOL    HW114321   2.946   0.435  11.068
 4478SOL    HW214322   3.081   0.421  11.002
 4479SOL     OW14323   3.013   0.226  10.791
 4479SOL    HW114324   3.004   0.280  10.870
 4479SOL    HW214325   3.038   0.288  10.722
 4480SOL     OW14326   1.867   1.315   9.501
 4480SOL    HW114327   1.778   1.330   9.467
 4480SOL    HW214328   1.864   1.227   9.537
 4481SOL     OW14329   2.358   1.573  10.220
 4481SOL    HW114330   2.425   1.639  10.238
 4481SOL    HW214331   2.401   1.511  10.160
 4482SOL     OW14332   2.841   0.788  10.534
 4482SOL    HW114333   2.897   0.769  10.609
 4482SOL    HW214334   2.755   0.753  10.559
 4483SOL     OW14335   1.895   0.547  10.427
 4483SOL    HW114336   1.970   0.523  10.373
 4483SOL    HW214337   1.929   0.547  10.517
 4484SOL     OW14338   2.065   0.526  11.022
 4484SOL    HW114339   2.136   0.506  10.961
 4484SOL    HW214340   2.021   0.602  10.983
 4485SOL     OW14341   3.242   0.936  10.967
 4485SOL    HW114342   3.263   1.030  10.965
 4485SOL    HW214343   3.237   0.910  10.875
 4486SOL     OW14344   2.679   0.572   9.674
 4486SOL    HW114345   2.685   0.497   9.615
 4486SOL    HW214346   2.604   0.623   9.641
 4487SOL     OW14347   3.501   0.602  10.493
 4487SOL    HW114348   3.491   0.541  10.566
 4487SOL    HW214349   3.588   0.581  10.457
 4488SOL     OW14350   2.091   1.558  11.048
 4488SOL    HW114351   2.084   1.609  11.129
 4488SOL    HW214352   2.103   1.468  11.077
 4489SOL     OW14353   2.570   0.453  10.566
 4489SOL    HW114354   2.519   0.376  10.541
 4489SOL    HW214355   2.561   0.513  10.492
 4490SOL     OW14356   2.787   1.678  10.779
 4490SOL    HW114357   2.762   1.642  10.695
 4490SOL    HW214358   2.783   1.773  10.767
 4491SOL     OW14359   2.325   0.494   9.493
 4491SOL    HW114360   2.383   0.566   9.517
 4491SOL    HW214361   2.239   0.534   9.480
 4492SOL     OW14362   2.006   1.139  10.784
 4492SOL    HW114363   2.007   1.090  10.866
 4492SOL    HW214364   2.023   1.073  10.716
 4493SOL     OW14365   3.184   1.045  10.532
 4493SOL    HW114366   3.207   0.982  10.464
 4493SOL    HW214367   3.116   1.099  10.492
 4494SOL     OW14368   3.176   0.854   9.615
 4494SOL    HW114369   3.100   0.827   9.667
 4494SOL    HW214370   3.148   0.843   9.524
 4495SOL     OW14371   3.642   1.741  10.467
 4495SOL    HW114372   3.697   1.769  10.394
 4495SOL    HW214373   3.613   1.654  10.443
 4496SOL     OW14374   3.103   1.733  10.420
 4496SOL    HW114375   3.185   1.756  10.376
 4496SOL    HW214376   3.110   1.640  10.439
 4497SOL     OW14377   1.954   1.258  10.328
 4497SOL    HW114378   1.932   1.271  10.420
 4497SOL    HW214379   1.876   1.217  10.290
 4498SOL     OW14380   2.539   1.667  11.041
 4498SOL    HW114381   2.489   1.749  11.041
 4498SOL    HW214382   2.607   1.682  10.975
 4499SOL     OW14383   3.551   0.120   9.797
 4499SOL    HW114384   3.632   0.135   9.749
 4499SOL    HW214385   3.553   0.026   9.819
 4500SOL     OW14386   3.253   1.567   9.798
 4500SOL    HW114387   3.312   1.600   9.731
 4500SOL    HW214388   3.203   1.644   9.826
 4501SOL     OW14389   3.139   0.926   9.981
 4501SOL    HW114390   3.214   0.867   9.991
 4501SOL    HW214391   3.173   0.999   9.928
 4502SOL     OW14392   2.672   1.274  10.737
 4502SOL    HW114393   2.644   1.314  10.819
 4502SOL    HW214394   2.603   1.296  10.674
 4503SOL     OW14395   2.535   1.622   9.462
 4503SOL    HW114396   2.545   1.634   9.367
 4503SOL    HW214397   2.479   1.544   9.470
 4504SOL     OW14398   3.482   1.727  10.701
 4504SOL    HW114399   3.537   1.732  10.623
 4504SOL    HW214400   3.469   1.818  10.727
 4505SOL     OW14401   3.703   0.182  10.281
 4505SOL    HW114402   3.728   0.097  10.243
 4505SOL    HW214403   3.617   0.201  10.244
 4506SOL     OW14404   2.126   0.316  10.025
 4506SOL    HW114405   2.039   0.351  10.003
 4506SOL    HW214406   2.124   0.308  10.120
 4507SOL     OW14407   3.070   1.604   9.342
 4507SOL    HW114408   3.059   1.513   9.369
 4507SOL    HW214409   3.004   1.617   9.274
 4508SOL     OW14410   2.686   1.006  10.683
 4508SOL    HW114411   2.728   1.002  10.597
 4508SOL    HW214412   2.684   1.099  10.704
 4509SOL     OW14413   2.778   0.910   9.600
 4509SOL    HW114414   2.839   0.943   9.534
 4509SOL    HW214415   2.827   0.842   9.646
 4510SOL     OW14416   3.351   1.628   9.353
 4510SOL    HW114417   3.257   1.619   9.338
 4510SOL    HW214418   3.389   1.634   9.265
 4511SOL     OW14419   2.229   1.299  10.810
 4511SOL    HW114420   2.224   1.371  10.747
 4511SOL    HW214421   2.152   1.244  10.790
 4512SOL     OW14422   3.463   1.280  10.587
 4512SOL    HW114423   3.531   1.272  10.654
 4512SOL    HW214424   3.406   1.349  10.620
 4513SOL     OW14425   2.918   1.109  10.019
 4513SOL    HW114426   2.846   1.058  10.056
 4513SOL    HW214427   2.981   1.043   9.989
 4514SOL     OW14428   2.877   0.249  10.279
 4514SOL    HW114429   2.867   0.198  10.199
 4514SOL    HW214430   2.872   0.183  10.349
 4515SOL     OW14431   2.466   1.491   9.790
 4515SOL    HW114432   2.509   1.441   9.721
 4515SOL    HW214433   2.398   1.541   9.745
 4516SOL     OW14434   3.582   0.394  10.682
 4516SOL    HW114435   3.654   0.457  10.682
 4516SOL    HW214436   3.614   0.321  10.628
 4517SOL     OW14437   2.122   1.342   9.599
 4517SOL    HW114438   2.029   1.338   9.576
 4517SOL    HW214439   2.124   1.377   9.687
 4518SOL     OW14440   1.976   1.028  11.032
 4518SOL    HW114441   1.899   1.002  11.083
 4518SOL    HW214442   2.049   0.987  11.077
 4519SOL     OW14443   2.555   0.254  10.811
 4519SOL    HW114444   2.622   0.200  10.770
 4519SOL    HW214445   2.582   0.261  10.903
 4520SOL     OW14446   1.962   0.317   9.302
 4520SOL    HW114447   1.894   0.337   9.366
 4520SOL    HW214448   1.970   0.398   9.250
 4521SOL     OW14449   3.287   0.856  10.708
 4521SOL    HW114450   3.238   0.919  10.655
 4521SOL    HW214451   3.376   0.859  10.672
 4522SOL     OW14452   1.943   0.152   9.650
 4522SOL    HW114453   1.912   0.211   9.582
 4522SOL    HW214454   2.029   0.124   9.620
 4523SOL     OW14455   3.040   1.337   9.428
 4523SOL    HW114456   2.949   1.307   9.430
 4523SOL    HW214457   3.068   1.338   9.519
 4524SOL     OW14458   2.483   0.829  10.744
 4524SOL    HW114459   2.540   0.905  10.729
 4524SOL    HW214460   2.544   0.755  10.753
 4525SOL     OW14461   3.344   1.781  10.290
 4525SOL    HW114462   3.367   1.843  10.221
 4525SOL    HW214463   3.428   1.754  10.327
 4526SOL     OW14464   2.580   0.561  11.014
 4526SOL    HW114465   2.622   0.623  11.073
 4526SOL    HW214466   2.606   0.475  11.048
 4527SOL     OW14467   3.335   1.197  10.940
 4527SOL    HW114468   3.323   1.212  11.034
 4527SOL    HW214469   3.428   1.213  10.924
 4528SOL     OW14470   2.234   1.742  10.883
 4528SOL    HW114471   2.164   1.753  10.818
 4528SOL    HW214472   2.210   1.662  10.930
 4529SOL     OW14473   3.526   0.881  10.569
 4529SOL    HW114474   3.525   0.796  10.525
 4529SOL    HW214475   3.520   0.944  10.498
 4530SOL     OW14476   3.082   0.337   9.753
 4530SOL    HW114477   3.151   0.271   9.744
 4530SOL    HW214478   3.103   0.381   9.835
 4531SOL     OW14479   2.451   0.736   9.981
 4531SOL    HW114480   2.490   0.822   9.966
 4531SOL    HW214481   2.385   0.728   9.913
 4532SOL     OW14482   3.616   0.381  10.952
 4532SOL    HW114483   3.595   0.390  10.859
 4532SOL    HW214484   3.556   0.314  10.984
 4533SOL     OW14485   3.616   0.930  10.823
 4533SOL    HW114486   3.607   1.024  10.841
 4533SOL    HW214487   3.592   0.920  10.731
 4534SOL     OW14488   2.723   1.366   9.347
 4534SOL    HW114489   2.687   1.392   9.432
 4534SOL    HW214490   2.741   1.449   9.302
 4535SOL     OW14491   2.525   1.793  10.247
 4535SOL    HW114492   2.518   1.888  10.241
 4535SOL    HW214493   2.620   1.776  10.246
 4536SOL     OW14494   2.730   0.969  10.165
 4536SOL    HW114495   2.781   0.897  10.203
 4536SOL    HW214496   2.694   1.016  10.240
 4537SOL     OW14497   2.940   0.989   9.399
 4537SOL    HW114498   2.918   1.040   9.322
 4537SOL    HW214499   3.014   0.935   9.372
 4538SOL     OW14500   3.714   1.557  10.151
 4538SOL    HW114501   3.635   1.540  10.100
 4538SOL    HW214502   3.713   1.489  10.219
 4539SOL     OW14503   2.084   1.303  11.161
 4539SOL    HW114504   2.023   1.237  11.128
 4539SOL    HW214505   2.056   1.318  11.251
 4540SOL     OW14506   1.943   1.214   9.971
 4540SOL    HW114507   1.963   1.178  10.058
 4540SOL    HW214508   2.020   1.192   9.919
 4541SOL     OW14509   2.542   1.405  10.937
 4541SOL    HW114510   2.465   1.362  10.974
 4541SOL    HW214511   2.541   1.493  10.975
 4542SOL     OW14512   3.676   0.181  10.554
 4542SOL    HW114513   3.678   0.086  10.563
 4542SOL    HW214514   3.694   0.198  10.462
 4543SOL     OW14515   2.290   0.434   9.835
 4543SOL    HW114516   2.324   0.363   9.782
 4543SOL    HW214517   2.243   0.391   9.906
 4544SOL     OW14518   3.558   1.491  10.407
 4544SOL    HW114519   3.480   1.468  10.357
 4544SOL    HW214520   3.568   1.419  10.469
 4545SOL     OW14521   2.193   0.556  10.604
 4545SOL    HW114522   2.246   0.497  10.658
 4545SOL    HW214523   2.212   0.530  10.514
 4546SOL     OW14524   2.691   1.577   9.987
 4546SOL    HW114525   2.675   1.635   9.912
 4546SOL    HW214526   2.616   1.518   9.989
 4547SOL     OW14527   3.323   0.253  10.420
 4547SOL    HW114528   3.337   0.165  10.456
 4547SOL    HW214529   3.267   0.296  10.485
 4548SOL     OW14530   2.866   0.027  10.456
 4548SOL    HW114531   2.785   3.991  10.420
 4548SOL    HW214532   2.925   3.952  10.465
 4549SOL     OW14533   2.636   1.333   9.626
 4549SOL    HW114534   2.606   1.243   9.634
 4549SOL    HW214535   2.716   1.336   9.678
 4550SOL     OW14536   2.485   1.555  10.594
 4550SOL    HW114537   2.486   1.636  10.645
 4550SOL    HW214538   2.573   1.548  10.558
 4551SOL     OW14539   3.173   0.071   9.470
 4551SOL    HW114540   3.179   3.989   9.420
 4551SOL    HW214541   3.088   0.066   9.514
 4552SOL     OW14542   3.143   0.457   9.995
 4552SOL    HW114543   3.097   0.540   9.990
 4552SOL    HW214544   3.146   0.437  10.089
 4553SOL     OW14545   3.452   0.210  10.177
 4553SOL    HW114546   3.404   0.234  10.256
 4553SOL    HW214547   3.451   0.290  10.124
 4554SOL     OW14548   1.905   1.069   9.615
 4554SOL    HW114549   2.000   1.062   9.600
 4554SOL    HW214550   1.878   0.980   9.640
 4555SOL     OW14551   2.750   1.654   9.649
 4555SOL    HW114552   2.676   1.639   9.590
 4555SOL    HW214553   2.723   1.729   9.703
 4556SOL     OW14554   2.089   0.619  11.293
 4556SOL    HW114555   1.999   0.629  11.325
 4556SOL    HW214556   2.080   0.599  11.200
 4557SOL     OW14557   2.079   0.300  12.163
 4557SOL    HW114558   2.116   0.257  12.240
 4557SOL    HW214559   1.994   0.258  12.150
 4558SOL     OW14560   1.871   0.397  11.806
 4558SOL    HW114561   1.784   0.413  11.843
 4558SOL    HW214562   1.856   0.329  11.740
 4559SOL     OW14563   2.429   1.290  12.349
 4559SOL    HW114564   2.343   1.294  12.308
 4559SOL    HW214565   2.447   1.381  12.377
 4560SOL     OW14566   3.426   1.513  11.880
 4560SOL    HW114567   3.383   1.491  11.963
 4560SOL    HW214568   3.354   1.518  11.816
 4561SOL     OW14569   2.995   0.698  11.869
 4561SOL    HW114570   3.042   0.780  11.856
 4561SOL    HW214571   2.947   0.711  11.951
 4562SOL     OW14572   3.624   0.623  11.398
 4562SOL    HW114573   3.605   0.612  11.305
 4562SOL    HW214574   3.606   0.538  11.437
 4563SOL     OW14575   2.615   1.140  12.217
 4563SOL    HW114576   2.547   1.176  12.273
 4563SOL    HW214577   2.651   1.217  12.172
 4564SOL     OW14578   2.733   0.770  12.995
 4564SOL    HW114579   2.718   0.841  13.057
 4564SOL    HW214580   2.755   0.813  12.913
 4565SOL     OW14581   2.548   1.000  11.817
 4565SOL    HW114582   2.613   0.990  11.886
 4565SOL    HW214583   2.479   1.053  11.856
 4566SOL     OW14584   2.575   1.150  12.987
 4566SOL    HW114585   2.622   1.227  13.016
 4566SOL    HW214586   2.493   1.184  12.951
 4567SOL     OW14587   2.190   1.425  12.241
 4567SOL    HW114588   2.117   1.385  12.193
 4567SOL    HW214589   2.238   1.474  12.174
 4568SOL     OW14590   3.321   1.501  12.530
 4568SOL    HW114591   3.375   1.580  12.539
 4568SOL    HW214592   3.256   1.508  12.599
 4569SOL     OW14593   2.307   0.393  12.665
 4569SOL    HW114594   2.397   0.362  12.664
 4569SOL    HW214595   2.254   0.314  12.673
 4570SOL     OW14596   3.473   0.450  11.907
 4570SOL    HW114597   3.403   0.483  11.850
 4570SOL    HW214598   3.494   0.524  11.964
 4571SOL     OW14599   2.115   1.694  11.660
 4571SOL    HW114600   2.079   1.782  11.667
 4571SOL    HW214601   2.182   1.700  11.592
 4572SOL     OW14602   2.999   1.342  12.866
 4572SOL    HW114603   3.040   1.337  12.952
 4572SOL    HW214604   2.947   1.262  12.859
 4573SOL     OW14605   2.093   1.429  11.714
 4573SOL    HW114606   2.095   1.525  11.711
 4573SOL    HW214607   2.028   1.409  11.781
 4574SOL     OW14608   2.126   1.090  12.063
 4574SOL    HW114609   2.119   1.002  12.100
 4574SOL    HW214610   2.068   1.143  12.117
 4575SOL     OW14611   2.471   1.785  12.604
 4575SOL    HW114612   2.392   1.773  12.656
 4575SOL    HW214613   2.497   1.875  12.619
 4576SOL     OW14614   2.445   0.983  11.308
 4576SOL    HW114615   2.493   1.030  11.240
 4576SOL    HW214616   2.483   1.015  11.390
 4577SOL     OW14617   3.444   0.141  12.628
 4577SOL    HW114618   3.470   0.214  12.572
 4577SOL    HW214619   3.407   0.183  12.706
 4578SOL     OW14620   1.980   0.656  11.733
 4578SOL    HW114621   1.952   0.567  11.757
 4578SOL    HW214622   1.971   0.706  11.814
 4579SOL     OW14623   3.702   1.757  11.508
 4579SOL    HW114624   3.772   1.733  11.569
 4579SOL    HW214625   3.721   1.849  11.486
 4580SOL     OW14626   3.550   0.918  11.818
 4580SOL    HW114627   3.634   0.875  11.801
 4580SOL    HW214628   3.532   0.968  11.738
 4581SOL     OW14629   3.504   1.104  11.604
 4581SOL    HW114630   3.589   1.110  11.559
 4581SOL    HW214631   3.510   1.167  11.675
 4582SOL     OW14632   1.985   0.749  12.753
 4582SOL    HW114633   2.075   0.781  12.757
 4582SOL    HW214634   1.931   0.829  12.758
 4583SOL     OW14635   2.476   1.389  11.907
 4583SOL    HW114636   2.431   1.306  11.916
 4583SOL    HW214637   2.459   1.417  11.817
 4584SOL     OW14638   3.149   1.237  12.595
 4584SOL    HW114639   3.181   1.170  12.534
 4584SOL    HW214640   3.208   1.232  12.670
 4585SOL     OW14641   2.682   0.004  11.689
 4585SOL    HW114642   2.727   0.084  11.664
 4585SOL    HW214643   2.589   0.028  11.689
 4586SOL     OW14644   2.051   0.961  12.449
 4586SOL    HW114645   2.136   0.921  12.432
 4586SOL    HW214646   1.991   0.916  12.390
 4587SOL     OW14647   3.390   0.996  11.373
 4587SOL    HW114648   3.321   0.939  11.406
 4587SOL    HW214649   3.433   1.031  11.451
 4588SOL     OW14650   3.047   1.808  12.795
 4588SOL    HW114651   3.056   1.868  12.721
 4588SOL    HW214652   3.065   1.722  12.759
 4589SOL     OW14653   2.219   0.253  13.012
 4589SOL    HW114654   2.263   0.337  13.011
 4589SOL    HW214655   2.126   0.274  13.016
 4590SOL     OW14656   3.329   1.420  12.121
 4590SOL    HW114657   3.261   1.435  12.188
 4590SOL    HW214658   3.317   1.328  12.096
 4591SOL     OW14659   3.515   1.746  11.751
 4591SOL    HW114660   3.500   1.713  11.662
 4591SOL    HW214661   3.495   1.671  11.808
 4592SOL     OW14662   2.457   0.720  11.440
 4592SOL    HW114663   2.461   0.803  11.393
 4592SOL    HW214664   2.392   0.735  11.509
 4593SOL     OW14665   3.137   0.369  12.113
 4593SOL    HW114666   3.049   0.330  12.120
 4593SOL    HW214667   3.194   0.307  12.158
 4594SOL     OW14668   3.439   1.671  11.482
 4594SOL    HW114669   3.530   1.701  11.475
 4594SOL    HW214670   3.413   1.655  11.391
 4595SOL     OW14671   2.658   0.616  12.624
 4595SOL    HW114672   2.629   0.590  12.712
 4595SOL    HW214673   2.619   0.550  12.566
 4596SOL     OW14674   3.254   0.476  12.849
 4596SOL    HW114675   3.260   0.521  12.933
 4596SOL    HW214676   3.311   0.400  12.859
 4597SOL     OW14677   2.814   0.887  12.756
 4597SOL    HW114678   2.869   0.818  12.719
 4597SOL    HW214679   2.766   0.922  12.681
 4598SOL     OW14680   2.854   0.402  12.410
 4598SOL    HW114681   2.770   0.423  12.449
 4598SOL    HW214682   2.834   0.375  12.321
 4599SOL     OW14683   2.914   0.699  11.597
 4599SOL    HW114684   2.931   0.692  11.691
 4599SOL    HW214685   2.831   0.653  11.584
 4600SOL     OW14686   1.949   0.822  11.948
 4600SOL    HW114687   2.029   0.815  12.000
 4600SOL    HW214688   1.904   0.899  11.984
 4601SOL     OW14689   2.757   0.352  11.371
 4601SOL    HW114690   2.799   0.411  11.309
 4601SOL    HW214691   2.750   0.269  11.325
 4602SOL     OW14692   3.569   0.574  13.002
 4602SOL    HW114693   3.532   0.649  12.954
 4602SOL    HW214694   3.595   0.512  12.933
 4603SOL     OW14695   3.239   1.141  11.712
 4603SOL    HW114696   3.319   1.130  11.661
 4603SOL    HW214697   3.187   1.204  11.662
 4604SOL     OW14698   2.420   0.199  12.053
 4604SOL    HW114699   2.423   0.218  12.146
 4604SOL    HW214700   2.416   0.284  12.011
 4605SOL     OW14701   2.865   1.443  11.643
 4605SOL    HW114702   2.831   1.517  11.592
 4605SOL    HW214703   2.844   1.464  11.733
 4606SOL     OW14704   2.238   1.810  11.988
 4606SOL    HW114705   2.255   1.718  12.009
 4606SOL    HW214706   2.301   1.858  12.041
 4607SOL     OW14707   3.667   1.062  12.040
 4607SOL    HW114708   3.614   1.037  11.964
 4607SOL    HW214709   3.605   1.065  12.113
 4608SOL     OW14710   3.089   1.539  12.685
 4608SOL    HW114711   3.076   1.467  12.747
 4608SOL    HW214712   3.024   1.524  12.617
 4609SOL     OW14713   2.181   0.960  11.425
 4609SOL    HW114714   2.263   0.978  11.379
 4609SOL    HW214715   2.151   0.877  11.387
 4610SOL     OW14716   3.342   0.746  11.900
 4610SOL    HW114717   3.336   0.706  11.987
 4610SOL    HW214718   3.419   0.803  11.905
 4611SOL     OW14719   2.330   1.266  12.915
 4611SOL    HW114720   2.304   1.269  12.823
 4611SOL    HW214721   2.248   1.263  12.964
 4612SOL     OW14722   2.986   1.777  11.403
 4612SOL    HW114723   2.911   1.737  11.446
 4612SOL    HW214724   3.010   1.715  11.333
 4613SOL     OW14725   2.032   0.275  12.671
 4613SOL    HW114726   1.976   0.352  12.660
 4613SOL    HW214727   2.037   0.262  12.766
 4614SOL     OW14728   3.487   1.383  11.259
 4614SOL    HW114729   3.444   1.468  11.244
 4614SOL    HW214730   3.420   1.318  11.240
 4615SOL     OW14731   2.332   1.723  11.495
 4615SOL    HW114732   2.377   1.788  11.548
 4615SOL    HW214733   2.395   1.699  11.427
 4616SOL     OW14734   3.297   0.170  11.574
 4616SOL    HW114735   3.252   0.096  11.533
 4616SOL    HW214736   3.372   0.131  11.618
 4617SOL     OW14737   2.132   1.745  12.388
 4617SOL    HW114738   2.188   1.681  12.432
 4617SOL    HW214739   2.149   1.733  12.295
 4618SOL     OW14740   2.799   1.698  12.070
 4618SOL    HW114741   2.879   1.648  12.091
 4618SOL    HW214742   2.758   1.648  12.000
 4619SOL     OW14743   2.257   0.695  11.646
 4619SOL    HW114744   2.275   0.602  11.659
 4619SOL    HW214745   2.164   0.704  11.664
 4620SOL     OW14746   3.392   0.229  12.898
 4620SOL    HW114747   3.385   0.255  12.990
 4620SOL    HW214748   3.374   0.135  12.898
 4621SOL     OW14749   2.506   0.130  11.280
 4621SOL    HW114750   2.529   0.046  11.320
 4621SOL    HW214751   2.443   0.108  11.211
 4622SOL     OW14752   2.637   0.282  12.940
 4622SOL    HW114753   2.709   0.219  12.943
 4622SOL    HW214754   2.579   0.256  13.012
 4623SOL     OW14755   2.739   1.522  12.365
 4623SOL    HW114756   2.723   1.485  12.278
 4623SOL    HW214757   2.809   1.468  12.402
 4624SOL     OW14758   3.202   0.587  12.602
 4624SOL    HW114759   3.232   0.559  12.689
 4624SOL    HW214760   3.236   0.676  12.593
 4625SOL     OW14761   2.678   1.392  12.115
 4625SOL    HW114762   2.763   1.381  12.071
 4625SOL    HW214763   2.615   1.396  12.043
 4626SOL     OW14764   2.792   0.511  12.072
 4626SOL    HW114765   2.767   0.503  11.980
 4626SOL    HW214766   2.818   0.423  12.098
 4627SOL     OW14767   2.407   0.057  11.663
 4627SOL    HW114768   2.333   0.062  11.723
 4627SOL    HW214769   2.402   0.138  11.612
 4628SOL     OW14770   3.289   1.199  11.212
 4628SOL    HW114771   3.319   1.124  11.263
 4628SOL    HW214772   3.204   1.221  11.250
 4629SOL     OW14773   2.192   0.043  11.383
 4629SOL    HW114774   2.200   0.110  11.315
 4629SOL    HW214775   2.274   0.049  11.432
 4630SOL     OW14776   2.804   0.250  11.632
 4630SOL    HW114777   2.779   0.290  11.548
 4630SOL    HW214778   2.900   0.254  11.633
 4631SOL     OW14779   2.942   0.684  12.631
 4631SOL    HW114780   2.871   0.619  12.637
 4631SOL    HW214781   3.022   0.632  12.625
 4632SOL     OW14782   3.083   1.571  11.967
 4632SOL    HW114783   3.099   1.637  11.899
 4632SOL    HW214784   3.153   1.586  12.030
 4633SOL     OW14785   2.334   1.151  11.903
 4633SOL    HW114786   2.266   1.131  11.967
 4633SOL    HW214787   2.293   1.137  11.818
 4634SOL     OW14788   3.129   1.793  11.782
 4634SOL    HW114789   3.177   1.854  11.726
 4634SOL    HW214790   3.062   1.846  11.824
 4635SOL     OW14791   2.884   0.543  11.200
 4635SOL    HW114792   2.840   0.625  11.181
 4635SOL    HW214793   2.947   0.565  11.268
 4636SOL     OW14794   1.944   0.550  12.569
 4636SOL    HW114795   2.035   0.552  12.539
 4636SOL    HW214796   1.937   0.623  12.630
 4637SOL     OW14797   2.425   0.231  12.333
 4637SOL    HW114798   2.449   0.139  12.343
 4637SOL    HW214799   2.336   0.236  12.365
 4638SOL     OW14800   2.732   0.461  11.810
 4638SOL    HW114801   2.684   0.515  11.747
 4638SOL    HW214802   2.753   0.381  11.762
 4639SOL     OW14803   2.858   0.039  11.952
 4639SOL    HW114804   2.822   0.068  11.869
 4639SOL    HW214805   2.869   3.945  11.942
 4640SOL     OW14806   3.302   1.161  12.030
 4640SOL    HW114807   3.230   1.098  12.028
 4640SOL    HW214808   3.327   1.171  11.938
 4641SOL     OW14809   3.326   0.608  12.146
 4641SOL    HW114810   3.272   0.529  12.151
 4641SOL    HW214811   3.386   0.601  12.220
 4642SOL     OW14812   3.722   0.824  11.547
 4642SOL    HW114813   3.763   0.767  11.611
 4642SOL    HW214814   3.684   0.764  11.483
 4643SOL     OW14815   2.353   1.421  11.324
 4643SOL    HW114816   2.278   1.395  11.378
 4643SOL    HW214817   2.345   1.368  11.244
 4644SOL     OW14818   3.529   1.265  11.816
 4644SOL    HW114819   3.624   1.268  11.826
 4644SOL    HW214820   3.500   1.354  11.837
 4645SOL     OW14821   3.257   0.575  11.241
 4645SOL    HW114822   3.193   0.557  11.310
 4645SOL    HW214823   3.342   0.560  11.282
 4646SOL     OW14824   2.388   0.266  11.488
 4646SOL    HW114825   2.443   0.228  11.420
 4646SOL    HW214826   2.360   0.350  11.451
 4647SOL     OW14827   3.613   1.234  12.738
 4647SOL    HW114828   3.701   1.199  12.721
 4647SOL    HW214829   3.629   1.323  12.768
 4648SOL     OW14830   2.919   1.354  12.505
 4648SOL    HW114831   2.844   1.322  12.556
 4648SOL    HW214832   2.995   1.312  12.546
 4649SOL     OW14833   3.468   1.628  12.828
 4649SOL    HW114834   3.460   1.663  12.739
 4649SOL    HW214835   3.548   1.576  12.827
 4650SOL     OW14836   2.994   1.206  12.276
 4650SOL    HW114837   2.934   1.244  12.340
 4650SOL    HW214838   2.963   1.240  12.192
 4651SOL     OW14839   3.490   1.096  12.247
 4651SOL    HW114840   3.481   1.157  12.319
 4651SOL    HW214841   3.413   1.112  12.192
 4652SOL     OW14842   2.774   0.116  12.573
 4652SOL    HW114843   2.794   0.089  12.484
 4652SOL    HW214844   2.855   0.158  12.604
 4653SOL     OW14845   2.846   1.115  12.896
 4653SOL    HW114846   2.755   1.132  12.918
 4653SOL    HW214847   2.844   1.037  12.840
 4654SOL     OW14848   2.571   1.063  11.542
 4654SOL    HW114849   2.556   1.044  11.635
 4654SOL    HW214850   2.647   1.009  11.519
 4655SOL     OW14851   2.283   0.816  12.423
 4655SOL    HW114852   2.351   0.824  12.490
 4655SOL    HW214853   2.247   0.728  12.436
 4656SOL     OW14854   3.128   0.375  12.448
 4656SOL    HW114855   3.162   0.453  12.492
 4656SOL    HW214856   3.041   0.400  12.418
 4657SOL     OW14857   1.950   1.555  12.530
 4657SOL    HW114858   1.925   1.623  12.467
 4657SOL    HW214859   2.046   1.550  12.523
 4658SOL     OW14860   2.210   1.112  11.662
 4658SOL    HW114861   2.209   1.188  11.604
 4658SOL    HW214862   2.206   1.037  11.603
 4659SOL     OW14863   2.416   0.532  12.029
 4659SOL    HW114864   2.430   0.592  11.955
 4659SOL    HW214865   2.481   0.559  12.094
 4660SOL     OW14866   3.110   1.349  11.562
 4660SOL    HW114867   3.165   1.420  11.593
 4660SOL    HW214868   3.023   1.370  11.595
 4661SOL     OW14869   3.147   1.459  12.320
 4661SOL    HW114870   3.202   1.463  12.397
 4661SOL    HW214871   3.092   1.382  12.333
 4662SOL     OW14872   3.434   0.632  11.657
 4662SOL    HW114873   3.392   0.688  11.723
 4662SOL    HW214874   3.481   0.694  11.601
 4663SOL     OW14875   2.221   1.507  12.492
 4663SOL    HW114876   2.205   1.471  12.405
 4663SOL    HW214877   2.316   1.522  12.495
 4664SOL     OW14878   2.279   0.745  12.774
 4664SOL    HW114879   2.341   0.790  12.716
 4664SOL    HW214880   2.320   0.660  12.791
 4665SOL     OW14881   3.466   0.779  12.855
 4665SOL    HW114882   3.380   0.821  12.849
 4665SOL    HW214883   3.519   0.821  12.788
 4666SOL     OW14884   2.876   0.132  12.952
 4666SOL    HW114885   2.925   0.205  12.914
 4666SOL    HW214886   2.860   0.073  12.879
 4667SOL     OW14887   2.350   0.034  12.934
 4667SOL    HW114888   2.352   0.047  12.839
 4667SOL    HW214889   2.291   0.102  12.965
 4668SOL     OW14890   2.447   0.873  12.204
 4668SOL    HW114891   2.475   0.964  12.204
 4668SOL    HW214892   2.389   0.866  12.280
 4669SOL     OW14893   3.215   0.859  12.198
 4669SOL    HW114894   3.130   0.847  12.155
 4669SOL    HW214895   3.258   0.774  12.190
 4670SOL     OW14896   3.063   0.537  11.430
 4670SOL    HW114897   3.070   0.458  11.483
 4670SOL    HW214898   3.020   0.600  11.487
 4671SOL     OW14899   2.161   0.209  12.415
 4671SOL    HW114900   2.120   0.238  12.496
 4671SOL    HW214901   2.150   0.114  12.415
 4672SOL     OW14902   1.901   1.302  12.451
 4672SOL    HW114903   1.937   1.246  12.519
 4672SOL    HW214904   1.916   1.391  12.483
 4673SOL     OW14905   2.584   0.632  12.225
 4673SOL    HW114906   2.660   0.619  12.167
 4673SOL    HW214907   2.555   0.721  12.206
 4674SOL     OW14908   3.595   0.955  13.036
 4674SOL    HW114909   3.551   0.895  12.975
 4674SOL    HW214910   3.530   0.971  13.104
 4675SOL     OW14911   2.185   0.056  11.823
 4675SOL    HW114912   2.165   0.148  11.835
 4675SOL    HW214913   2.150   0.014  11.902
 4676SOL     OW14914   3.474   0.392  11.551
 4676SOL    HW114915   3.436   0.323  11.606
 4676SOL    HW214916   3.452   0.474  11.597
 4677SOL     OW14917   2.892   0.759  12.131
 4677SOL    HW114918   2.885   0.776  12.225
 4677SOL    HW214919   2.864   0.668  12.121
 4678SOL     OW14920   2.843   1.566  12.891
 4678SOL    HW114921   2.828   1.610  12.808
 4678SOL    HW214922   2.887   1.484  12.868
 4679SOL     OW14923   3.705   1.499  12.770
 4679SOL    HW114924   3.729   1.528  12.682
 4679SOL    HW214925   3.785   1.510  12.821
 4680SOL     OW14926   2.215   0.915  12.982
 4680SOL    HW114927   2.297   0.935  13.028
 4680SOL    HW214928   2.240   0.853  12.913
 4681SOL     OW14929   3.364   0.274  11.306
 4681SOL    HW114930   3.290   0.214  11.317
 4681SOL    HW214931   3.376   0.313  11.393
 4682SOL     OW14932   3.150   0.826  11.200
 4682SOL    HW114933   3.193   0.741  11.204
 4682SOL    HW214934   3.183   0.866  11.120
 4683SOL     OW14935   2.929   1.337  12.028
 4683SOL    HW114936   2.933   1.265  11.965
 4683SOL    HW214937   2.989   1.403  11.992
 4684SOL     OW14938   2.169   0.809  12.118
 4684SOL    HW114939   2.262   0.830  12.111
 4684SOL    HW214940   2.167   0.719  12.150
 4685SOL     OW14941   2.199   0.536  12.186
 4685SOL    HW114942   2.157   0.451  12.170
 4685SOL    HW214943   2.275   0.537  12.128
 4686SOL     OW14944   2.995   0.380  12.869
 4686SOL    HW114945   2.946   0.435  12.930
 4686SOL    HW214946   3.081   0.421  12.864
 4687SOL     OW14947   3.013   0.226  12.653
 4687SOL    HW114948   3.004   0.280  12.732
 4687SOL    HW214949   3.038   0.288  12.584
 4688SOL     OW14950   1.877   1.318  11.360
 4688SOL    HW114951   1.791   1.343  11.326
 4688SOL    HW214952   1.863   1.231  11.397
 4689SOL     OW14953   2.359   1.573  12.082
 4689SOL    HW114954   2.426   1.639  12.100
 4689SOL    HW214955   2.401   1.511  12.022
 4690SOL     OW14956   2.841   0.788  12.396
 4690SOL    HW114957   2.897   0.769  12.471
 4690SOL    HW214958   2.755   0.753  12.421
 4691SOL     OW14959   1.895   0.547  12.289
 4691SOL    HW114960   1.970   0.523  12.235
 4691SOL    HW214961   1.929   0.547  12.378
 4692SOL     OW14962   2.066   0.527  12.885
 4692SOL    HW114963   2.136   0.506  12.823
 4692SOL    HW214964   2.021   0.602  12.846
 4693SOL     OW14965   3.242   0.936  12.829
 4693SOL    HW114966   3.263   1.030  12.827
 4693SOL    HW214967   3.237   0.910  12.737
 4694SOL     OW14968   2.679   0.572  11.536
 4694SOL    HW114969   2.685   0.497  11.477
 4694SOL    HW214970   2.604   0.623  11.503
 4695SOL     OW14971   3.501   0.602  12.355
 4695SOL    HW114972   3.491   0.541  12.428
 4695SOL    HW214973   3.587   0.581  12.319
 4696SOL     OW14974   2.092   1.559  12.908
 4696SOL    HW114975   2.084   1.610  12.989
 4696SOL    HW214976   2.103   1.469  12.938
 4697SOL     OW14977   2.570   0.453  12.428
 4697SOL    HW114978   2.519   0.376  12.403
 4697SOL    HW214979   2.561   0.513  12.354
 4698SOL     OW14980   2.787   1.678  12.641
 4698SOL    HW114981   2.762   1.642  12.556
 4698SOL    HW214982   2.783   1.773  12.629
 4699SOL     OW14983   2.325   0.494  11.355
 4699SOL    HW114984   2.383   0.566  11.379
 4699SOL    HW214985   2.239   0.534  11.342
 4700SOL     OW14986   2.006   1.139  12.646
 4700SOL    HW114987   2.007   1.090  12.728
 4700SOL    HW214988   2.023   1.073  12.579
 4701SOL     OW14989   3.184   1.045  12.394
 4701SOL    HW114990   3.207   0.982  12.326
 4701SOL    HW214991   3.116   1.099  12.354
 4702SOL     OW14992   3.176   0.854  11.477
 4702SOL    HW114993   3.100   0.827  11.529
 4702SOL    HW214994   3.148   0.843  11.386
 4703SOL     OW14995   3.642   1.741  12.329
 4703SOL    HW114996   3.697   1.769  12.256
 4703SOL    HW214997   3.613   1.654  12.305
 4704SOL     OW14998   3.103   1.733  12.282
 4704SOL    HW114999   3.185   1.756  12.238
 4704SOL    HW215000   3.110   1.640  12.301
 4705SOL     OW15001   1.954   1.257  12.191
 4705SOL    HW115002   1.932   1.270  12.283
 4705SOL    HW215003   1.876   1.217  12.152
 4706SOL     OW15004   2.538   1.668  12.903
 4706SOL    HW115005   2.488   1.749  12.902
 4706SOL    HW215006   2.607   1.681  12.837
 4707SOL     OW15007   3.551   0.120  11.660
 4707SOL    HW115008   3.632   0.135  11.611
 4707SOL    HW215009   3.553   0.026  11.681
 4708SOL     OW15010   3.253   1.567  11.660
 4708SOL    HW115011   3.312   1.600  11.593
 4708SOL    HW215012   3.203   1.644  11.688
 4709SOL     OW15013   3.139   0.927  11.843
 4709SOL    HW115014   3.214   0.867  11.853
 4709SOL    HW215015   3.173   0.999  11.790
 4710SOL     OW15016   2.672   1.274  12.599
 4710SOL    HW115017   2.643   1.314  12.681
 4710SOL    HW215018   2.603   1.296  12.536
 4711SOL     OW15019   2.535   1.622  11.323
 4711SOL    HW115020   2.546   1.634  11.229
 4711SOL    HW215021   2.479   1.545  11.331
 4712SOL     OW15022   3.482   1.727  12.563
 4712SOL    HW115023   3.537   1.732  12.485
 4712SOL    HW215024   3.469   1.818  12.589
 4713SOL     OW15025   3.703   0.182  12.143
 4713SOL    HW115026   3.728   0.097  12.105
 4713SOL    HW215027   3.617   0.201  12.106
 4714SOL     OW15028   2.126   0.316  11.887
 4714SOL    HW115029   2.039   0.351  11.865
 4714SOL    HW215030   2.124   0.308  11.982
 4715SOL     OW15031   3.070   1.604  11.204
 4715SOL    HW115032   3.059   1.513  11.231
 4715SOL    HW215033   3.004   1.617  11.136
 4716SOL     OW15034   2.686   1.006  12.545
 4716SOL    HW115035   2.728   1.002  12.459
 4716SOL    HW215036   2.684   1.099  12.566
 4717SOL     OW15037   2.778   0.910  11.462
 4717SOL    HW115038   2.839   0.943  11.396
 4717SOL    HW215039   2.827   0.842  11.508
 4718SOL     OW15040   3.351   1.628  11.215
 4718SOL    HW115041   3.257   1.619  11.200
 4718SOL    HW215042   3.389   1.634  11.127
 4719SOL     OW15043   2.229   1.299  12.672
 4719SOL    HW115044   2.224   1.371  12.609
 4719SOL    HW215045   2.152   1.244  12.652
 4720SOL     OW15046   3.463   1.280  12.449
 4720SOL    HW115047   3.531   1.272  12.516
 4720SOL    HW215048   3.406   1.349  12.482
 4721SOL     OW15049   2.918   1.109  11.881
 4721SOL    HW115050   2.846   1.058  11.918
 4721SOL    HW215051   2.981   1.043  11.851
 4722SOL     OW15052   2.877   0.249  12.141
 4722SOL    HW115053   2.867   0.198  12.061
 4722SOL    HW215054   2.872   0.183  12.211
 4723SOL     OW15055   2.467   1.491  11.653
 4723SOL    HW115056   2.510   1.441  11.584
 4723SOL    HW215057   2.396   1.537  11.608
 4724SOL     OW15058   3.582   0.394  12.544
 4724SOL    HW115059   3.654   0.457  12.544
 4724SOL    HW215060   3.614   0.321  12.490
 4725SOL     OW15061   2.126   1.347  11.463
 4725SOL    HW115062   2.034   1.344  11.436
 4725SOL    HW215063   2.123   1.380  11.553
 4726SOL     OW15064   1.976   1.028  12.895
 4726SOL    HW115065   1.899   1.002  12.946
 4726SOL    HW215066   2.049   0.986  12.940
 4727SOL     OW15067   2.555   0.255  12.673
 4727SOL    HW115068   2.622   0.200  12.632
 4727SOL    HW215069   2.582   0.261  12.765
 4728SOL     OW15070   1.962   0.317  11.164
 4728SOL    HW115071   1.894   0.337  11.228
 4728SOL    HW215072   1.970   0.398  11.112
 4729SOL     OW15073   3.287   0.857  12.570
 4729SOL    HW115074   3.238   0.919  12.517
 4729SOL    HW215075   3.376   0.859  12.534
 4730SOL     OW15076   1.943   0.152  11.512
 4730SOL    HW115077   1.912   0.211  11.444
 4730SOL    HW215078   2.029   0.124  11.482
 4731SOL     OW15079   3.040   1.337  11.290
 4731SOL    HW115080   2.950   1.306  11.292
 4731SOL    HW215081   3.068   1.339  11.381
 4732SOL     OW15082   2.483   0.829  12.606
 4732SOL    HW115083   2.540   0.905  12.591
 4732SOL    HW215084   2.544   0.755  12.615
 4733SOL     OW15085   3.344   1.781  12.152
 4733SOL    HW115086   3.367   1.843  12.083
 4733SOL    HW215087   3.428   1.754  12.189
 4734SOL     OW15088   2.580   0.561  12.876
 4734SOL    HW115089   2.622   0.623  12.935
 4734SOL    HW215090   2.605   0.475  12.910
 4735SOL     OW15091   3.335   1.197  12.803
 4735SOL    HW115092   3.323   1.212  12.896
 4735SOL    HW215093   3.428   1.214  12.787
 4736SOL     OW15094   2.234   1.744  12.744
 4736SOL    HW115095   2.165   1.755  12.680
 4736SOL    HW215096   2.210   1.664  12.791
 4737SOL     OW15097   3.526   0.881  12.431
 4737SOL    HW115098   3.525   0.796  12.387
 4737SOL    HW215099   3.520   0.944  12.360
 4738SOL     OW15100   3.082   0.337  11.615
 4738SOL    HW115101   3.151   0.271  11.606
 4738SOL    HW215102   3.103   0.381  11.697
 4739SOL     OW15103   2.452   0.736  11.843
 4739SOL    HW115104   2.490   0.822  11.828
 4739SOL    HW215105   2.385   0.728  11.775
 4740SOL     OW15106   3.616   0.381  12.814
 4740SOL    HW115107   3.595   0.390  12.721
 4740SOL    HW215108   3.556   0.314  12.846
 4741SOL     OW15109   3.616   0.930  12.685
 4741SOL    HW115110   3.607   1.024  12.703
 4741SOL    HW215111   3.592   0.920  12.593
 4742SOL     OW15112   2.722   1.366  11.209
 4742SOL    HW115113   2.687   1.393  11.294
 4742SOL    HW215114   2.742   1.449  11.164
 4743SOL     OW15115   2.526   1.792  12.107
 4743SOL    HW115116   2.519   1.888  12.102
 4743SOL    HW215117   2.620   1.775  12.108
 4744SOL     OW15118   2.730   0.969  12.027
 4744SOL    HW115119   2.781   0.897  12.065
 4744SOL    HW215120   2.694   1.016  12.102
 4745SOL     OW15121   2.941   0.989  11.261
 4745SOL    HW115122   2.918   1.040  11.184
 4745SOL    HW215123   3.014   0.935  11.234
 4746SOL     OW15124   3.714   1.556  12.013
 4746SOL    HW115125   3.635   1.540  11.962
 4746SOL    HW215126   3.713   1.489  12.081
 4747SOL     OW15127   2.084   1.303  13.022
 4747SOL    HW115128   2.023   1.237  12.990
 4747SOL    HW215129   2.058   1.318  13.113
 4748SOL     OW15130   1.943   1.214  11.834
 4748SOL    HW115131   1.964   1.177  11.920
 4748SOL    HW215132   2.020   1.192  11.780
 4749SOL     OW15133   2.542   1.405  12.799
 4749SOL    HW115134   2.465   1.362  12.835
 4749SOL    HW215135   2.541   1.493  12.837
 4750SOL     OW15136   3.676   0.181  12.416
 4750SOL    HW115137   3.678   0.086  12.425
 4750SOL    HW215138   3.694   0.198  12.324
 4751SOL     OW15139   2.290   0.434  11.697
 4751SOL    HW115140   2.324   0.363  11.644
 4751SOL    HW215141   2.243   0.391  11.768
 4752SOL     OW15142   3.558   1.491  12.269
 4752SOL    HW115143   3.480   1.468  12.219
 4752SOL    HW215144   3.568   1.419  12.331
 4753SOL     OW15145   2.193   0.556  12.466
 4753SOL    HW115146   2.246   0.497  12.520
 4753SOL    HW215147   2.212   0.530  12.376
 4754SOL     OW15148   2.691   1.577  11.849
 4754SOL    HW115149   2.675   1.635  11.774
 4754SOL    HW215150   2.616   1.518  11.851
 4755SOL     OW15151   3.323   0.253  12.282
 4755SOL    HW115152   3.337   0.165  12.318
 4755SOL    HW215153   3.267   0.296  12.347
 4756SOL     OW15154   2.866   0.027  12.318
 4756SOL    HW115155   2.785   3.991  12.282
 4756SOL    HW215156   2.924   3.952  12.327
 4757SOL     OW15157   2.636   1.333  11.488
 4757SOL    HW115158   2.606   1.243  11.496
 4757SOL    HW215159   2.716   1.336  11.540
 4758SOL     OW15160   2.485   1.555  12.456
 4758SOL    HW115161   2.486   1.636  12.507
 4758SOL    HW215162   2.573   1.548  12.420
 4759SOL     OW15163   3.173   0.071  11.332
 4759SOL    HW115164   3.179   3.989  11.282
 4759SOL    HW215165   3.088   0.066  11.376
 4760SOL     OW15166   3.143   0.457  11.857
 4760SOL    HW115167   3.097   0.540  11.852
 4760SOL    HW215168   3.146   0.437  11.951
 4761SOL     OW15169   3.452   0.210  12.039
 4761SOL    HW115170   3.404   0.234  12.118
 4761SOL    HW215171   3.451   0.290  11.986
 4762SOL     OW15172   1.902   1.069  11.478
 4762SOL    HW115173   1.996   1.064  11.461
 4762SOL    HW215174   1.877   0.980  11.503
 4763SOL     OW15175   2.750   1.654  11.511
 4763SOL    HW115176   2.676   1.639  11.452
 4763SOL    HW215177   2.724   1.728  11.565
 4764SOL     OW15178   2.089   0.620  13.155
 4764SOL    HW115179   1.998   0.627  13.187
 4764SOL    HW215180   2.080   0.599  13.062
 4765SOL     OW15181   2.114   0.264   0.129
 4765SOL    HW115182   2.157   0.328   0.185
 4765SOL    HW215183   2.021   0.287   0.132
 4766SOL     OW15184   1.870   0.389  13.645
 4766SOL    HW115185   1.777   0.400  13.663
 4766SOL    HW215186   1.878   0.300  13.610
 4767SOL     OW15187   3.387   1.498  13.727
 4767SOL    HW115188   3.330   1.432  13.767
 4767SOL    HW215189   3.343   1.521  13.645
 4768SOL     OW15190   2.993   0.699  13.732
 4768SOL    HW115191   3.047   0.775  13.709
 4768SOL    HW215192   2.936   0.730  13.802
 4769SOL     OW15193   3.632   0.620  13.259
 4769SOL    HW115194   3.610   0.612  13.166
 4769SOL    HW215195   3.605   0.537  13.298
 4770SOL     OW15196   2.546   1.011  13.671
 4770SOL    HW115197   2.600   0.991  13.747
 4770SOL    HW215198   2.472   1.060  13.707
 4771SOL     OW15199   3.477   0.460  13.763
 4771SOL    HW115200   3.391   0.470  13.722
 4771SOL    HW215201   3.498   0.548  13.795
 4772SOL     OW15202   2.113   1.689  13.523
 4772SOL    HW115203   2.089   1.780  13.542
 4772SOL    HW215204   2.179   1.696  13.454
 4773SOL     OW15205   2.100   1.425  13.572
 4773SOL    HW115206   2.098   1.521  13.569
 4773SOL    HW215207   2.035   1.402  13.638
 4774SOL     OW15208   2.101   1.108   0.027
 4774SOL    HW115209   2.121   1.045   0.096
 4774SOL    HW215210   2.036   1.166   0.066
 4775SOL     OW15211   2.444   0.983  13.169
 4775SOL    HW115212   2.492   1.030  13.100
 4775SOL    HW215213   2.483   1.015  13.250
 4776SOL     OW15214   1.981   0.657  13.589
 4776SOL    HW115215   1.951   0.567  13.602
 4776SOL    HW215216   1.965   0.701  13.672
 4777SOL     OW15217   3.702   1.758  13.369
 4777SOL    HW115218   3.773   1.732  13.428
 4777SOL    HW215219   3.721   1.849  13.348
 4778SOL     OW15220   3.546   0.914  13.667
 4778SOL    HW115221   3.634   0.883  13.648
 4778SOL    HW215222   3.525   0.972  13.594
 4779SOL     OW15223   3.504   1.104  13.463
 4779SOL    HW115224   3.588   1.109  13.417
 4779SOL    HW215225   3.511   1.168  13.534
 4780SOL     OW15226   2.467   1.383  13.759
 4780SOL    HW115227   2.423   1.299  13.766
 4780SOL    HW215228   2.444   1.415  13.671
 4781SOL     OW15229   2.683   0.004  13.551
 4781SOL    HW115230   2.727   0.085  13.524
 4781SOL    HW215231   2.590   0.026  13.548
 4782SOL     OW15232   3.389   0.995  13.235
 4782SOL    HW115233   3.321   0.937  13.269
 4782SOL    HW215234   3.430   1.032  13.313
 4783SOL     OW15235   3.515   1.744  13.613
 4783SOL    HW115236   3.496   1.713  13.525
 4783SOL    HW215237   3.510   1.666  13.668
 4784SOL     OW15238   2.455   0.721  13.300
 4784SOL    HW115239   2.459   0.804  13.252
 4784SOL    HW215240   2.390   0.736  13.369
 4785SOL     OW15241   3.102   0.340   0.051
 4785SOL    HW115242   3.013   0.329   0.085
 4785SOL    HW215243   3.158   0.296   0.116
 4786SOL     OW15244   3.439   1.675  13.342
 4786SOL    HW115245   3.531   1.703  13.337
 4786SOL    HW215246   3.414   1.657  13.252
 4787SOL     OW15247   2.911   0.696  13.459
 4787SOL    HW115248   2.926   0.684  13.553
 4787SOL    HW215249   2.829   0.651  13.441
 4788SOL     OW15250   1.941   0.817  13.812
 4788SOL    HW115251   2.023   0.818  13.861
 4788SOL    HW215252   1.893   0.894  13.844
 4789SOL     OW15253   2.757   0.351  13.232
 4789SOL    HW115254   2.798   0.411  13.170
 4789SOL    HW215255   2.751   0.268  13.186
 4790SOL     OW15256   3.224   1.134  13.551
 4790SOL    HW115257   3.314   1.135  13.519
 4790SOL    HW215258   3.182   1.207  13.505
 4791SOL     OW15259   2.861   1.438  13.502
 4791SOL    HW115260   2.831   1.515  13.453
 4791SOL    HW215261   2.831   1.454  13.592
 4792SOL     OW15262   2.252   1.826  13.819
 4792SOL    HW115263   2.249   1.740  13.861
 4792SOL    HW215264   2.240   1.888  13.891
 4793SOL     OW15265   3.653   1.053  13.898
 4793SOL    HW115266   3.594   1.047  13.823
 4793SOL    HW215267   3.595   1.049   0.075
 4794SOL     OW15268   2.181   0.959  13.288
 4794SOL    HW115269   2.263   0.979  13.241
 4794SOL    HW215270   2.151   0.877  13.249
 4795SOL     OW15271   3.355   0.731  13.752
 4795SOL    HW115272   3.341   0.696  13.840
 4795SOL    HW215273   3.422   0.799  13.764
 4796SOL     OW15274   2.986   1.778  13.264
 4796SOL    HW115275   2.911   1.738  13.308
 4796SOL    HW215276   3.009   1.715  13.195
 4797SOL     OW15277   3.487   1.383  13.120
 4797SOL    HW115278   3.444   1.467  13.106
 4797SOL    HW215279   3.420   1.318  13.101
 4798SOL     OW15280   2.330   1.719  13.357
 4798SOL    HW115281   2.373   1.784  13.411
 4798SOL    HW215282   2.393   1.699  13.288
 4799SOL     OW15283   3.284   0.167  13.440
 4799SOL    HW115284   3.248   0.107  13.374
 4799SOL    HW215285   3.373   0.134  13.456
 4800SOL     OW15286   2.793   1.686   0.008
 4800SOL    HW115287   2.808   1.620   0.076
 4800SOL    HW215288   2.748   1.639  13.838
 4801SOL     OW15289   2.256   0.698  13.506
 4801SOL    HW115290   2.276   0.605  13.517
 4801SOL    HW215291   2.162   0.705  13.523
 4802SOL     OW15292   2.506   0.130  13.142
 4802SOL    HW115293   2.529   0.046  13.181
 4802SOL    HW215294   2.443   0.108  13.073
 4803SOL     OW15295   2.411   0.056  13.526
 4803SOL    HW115296   2.336   0.059  13.585
 4803SOL    HW215297   2.404   0.136  13.474
 4804SOL     OW15298   3.289   1.199  13.074
 4804SOL    HW115299   3.319   1.124  13.126
 4804SOL    HW215300   3.204   1.221  13.112
 4805SOL     OW15301   2.194   0.044  13.242
 4805SOL    HW115302   2.203   0.111  13.174
 4805SOL    HW215303   2.277   0.047  13.290
 4806SOL     OW15304   2.803   0.248  13.492
 4806SOL    HW115305   2.777   0.289  13.410
 4806SOL    HW215306   2.898   0.257  13.494
 4807SOL     OW15307   2.325   1.143  13.770
 4807SOL    HW115308   2.252   1.131  13.831
 4807SOL    HW215309   2.286   1.131  13.683
 4808SOL     OW15310   3.131   1.796  13.633
 4808SOL    HW115311   3.174   1.863  13.581
 4808SOL    HW215312   3.062   1.843  13.681
 4809SOL     OW15313   2.884   0.543  13.062
 4809SOL    HW115314   2.839   0.625  13.042
 4809SOL    HW215315   2.947   0.565  13.130
 4810SOL     OW15316   2.761   0.474  13.668
 4810SOL    HW115317   2.691   0.520  13.622
 4810SOL    HW215318   2.767   0.389  13.626
 4811SOL     OW15319   2.863   0.039  13.795
 4811SOL    HW115320   2.830   0.064  13.709
 4811SOL    HW215321   2.886   3.946  13.786
 4812SOL     OW15322   3.728   0.822  13.410
 4812SOL    HW115323   3.774   0.765  13.472
 4812SOL    HW215324   3.690   0.762  13.346
 4813SOL     OW15325   2.354   1.421  13.185
 4813SOL    HW115326   2.279   1.394  13.238
 4813SOL    HW215327   2.346   1.368  13.105
 4814SOL     OW15328   3.540   1.269  13.667
 4814SOL    HW115329   3.634   1.273  13.683
 4814SOL    HW215330   3.506   1.352  13.700
 4815SOL     OW15331   3.256   0.576  13.103
 4815SOL    HW115332   3.193   0.556  13.173
 4815SOL    HW215333   3.341   0.557  13.142
 4816SOL     OW15334   2.390   0.266  13.349
 4816SOL    HW115335   2.445   0.227  13.281
 4816SOL    HW215336   2.361   0.349  13.312
 4817SOL     OW15337   2.571   1.064  13.400
 4817SOL    HW115338   2.556   1.048  13.493
 4817SOL    HW215339   2.647   1.010  13.378
 4818SOL     OW15340   2.211   1.111  13.525
 4818SOL    HW115341   2.211   1.188  13.469
 4818SOL    HW215342   2.206   1.037  13.464
 4819SOL     OW15343   2.433   0.539  13.863
 4819SOL    HW115344   2.443   0.608  13.797
 4819SOL    HW215345   2.487   0.568   0.036
 4820SOL     OW15346   3.107   1.352  13.419
 4820SOL    HW115347   3.162   1.426  13.447
 4820SOL    HW215348   3.021   1.372  13.454
 4821SOL     OW15349   3.445   0.634  13.511
 4821SOL    HW115350   3.406   0.680  13.585
 4821SOL    HW215351   3.480   0.703  13.455
 4822SOL     OW15352   3.063   0.533  13.294
 4822SOL    HW115353   3.068   0.454  13.347
 4822SOL    HW215354   3.020   0.597  13.350
 4823SOL     OW15355   2.194   0.052  13.686
 4823SOL    HW115356   2.175   0.145  13.698
 4823SOL    HW215357   2.117   0.006  13.718
 4824SOL     OW15358   3.463   0.392  13.406
 4824SOL    HW115359   3.436   0.324  13.468
 4824SOL    HW215360   3.447   0.474  13.452
 4825SOL     OW15361   3.362   0.278  13.166
 4825SOL    HW115362   3.290   0.216  13.179
 4825SOL    HW215363   3.377   0.317  13.252
 4826SOL     OW15364   3.150   0.826  13.062
 4826SOL    HW115365   3.193   0.741  13.065
 4826SOL    HW215366   3.183   0.866  12.981
 4827SOL     OW15367   1.876   1.319  13.224
 4827SOL    HW115368   1.790   1.344  13.188
 4827SOL    HW215369   1.863   1.231  13.259
 4828SOL     OW15370   2.679   0.575  13.389
 4828SOL    HW115371   2.682   0.497  13.334
 4828SOL    HW215372   2.602   0.623  13.358
 4829SOL     OW15373   2.325   0.493  13.216
 4829SOL    HW115374   2.382   0.566  13.240
 4829SOL    HW215375   2.239   0.533  13.204
 4830SOL     OW15376   3.178   0.848  13.338
 4830SOL    HW115377   3.099   0.829  13.389
 4830SOL    HW215378   3.150   0.840  13.247
 4831SOL     OW15379   3.540   0.111  13.469
 4831SOL    HW115380   3.632   0.126  13.445
 4831SOL    HW215381   3.545   0.045  13.538
 4832SOL     OW15382   3.244   1.574  13.508
 4832SOL    HW115383   3.304   1.611  13.444
 4832SOL    HW215384   3.198   1.649  13.545
 4833SOL     OW15385   3.152   0.912  13.684
 4833SOL    HW115386   3.230   0.858  13.668
 4833SOL    HW215387   3.173   0.996  13.643
 4834SOL     OW15388   2.534   1.623  13.185
 4834SOL    HW115389   2.546   1.635  13.091
 4834SOL    HW215390   2.479   1.545  13.193
 4835SOL     OW15391   3.672   0.164   0.061
 4835SOL    HW115392   3.707   0.075   0.063
 4835SOL    HW215393   3.582   0.154   0.030
 4836SOL     OW15394   2.139   0.311  13.745
 4836SOL    HW115395   2.048   0.331  13.722
 4836SOL    HW215396   2.139   0.305  13.841
 4837SOL     OW15397   3.070   1.604  13.066
 4837SOL    HW115398   3.059   1.512  13.092
 4837SOL    HW215399   3.004   1.617  12.997
 4838SOL     OW15400   2.781   0.913  13.329
 4838SOL    HW115401   2.840   0.943  13.260
 4838SOL    HW215402   2.826   0.839  13.369
 4839SOL     OW15403   3.351   1.628  13.077
 4839SOL    HW115404   3.257   1.619  13.062
 4839SOL    HW215405   3.389   1.634  12.989
 4840SOL     OW15406   2.913   1.090  13.756
 4840SOL    HW115407   2.825   1.054  13.742
 4840SOL    HW215408   2.965   1.055  13.683
 4841SOL     OW15409   2.461   1.492  13.506
 4841SOL    HW115410   2.505   1.442  13.438
 4841SOL    HW215411   2.394   1.542  13.459
 4842SOL     OW15412   2.126   1.346  13.321
 4842SOL    HW115413   2.034   1.343  13.296
 4842SOL    HW215414   2.126   1.379  13.410
 4843SOL     OW15415   1.962   0.318  13.026
 4843SOL    HW115416   1.893   0.336  13.090
 4843SOL    HW215417   1.970   0.398  12.975
 4844SOL     OW15418   1.952   0.152  13.365
 4844SOL    HW115419   1.922   0.214  13.298
 4844SOL    HW215420   2.038   0.123  13.335
 4845SOL     OW15421   3.040   1.337  13.150
 4845SOL    HW115422   2.949   1.307  13.153
 4845SOL    HW215423   3.067   1.340  13.241
 4846SOL     OW15424   3.078   0.333  13.485
 4846SOL    HW115425   3.148   0.269  13.471
 4846SOL    HW215426   3.106   0.384  13.561
 4847SOL     OW15427   2.455   0.749  13.691
 4847SOL    HW115428   2.489   0.837  13.672
 4847SOL    HW215429   2.385   0.736  13.627
 4848SOL     OW15430   2.723   1.366  13.070
 4848SOL    HW115431   2.687   1.393  13.155
 4848SOL    HW215432   2.742   1.449  13.026
 4849SOL     OW15433   2.524   1.836   0.080
 4849SOL    HW115434   2.505   1.929   0.068
 4849SOL    HW215435   2.619   1.830   0.081
 4850SOL     OW15436   2.689   0.966  13.896
 4850SOL    HW115437   2.717   0.884   0.037
 4850SOL    HW215438   2.716   1.035   0.056
 4851SOL     OW15439   2.939   0.987  13.124
 4851SOL    HW115440   2.917   1.040  13.046
 4851SOL    HW215441   3.014   0.934  13.096
 4852SOL     OW15442   1.949   1.227  13.704
 4852SOL    HW115443   1.955   1.169  13.780
 4852SOL    HW215444   2.019   1.197  13.646
 4853SOL     OW15445   2.291   0.437  13.551
 4853SOL    HW115446   2.327   0.366  13.500
 4853SOL    HW215447   2.252   0.395  13.628
 4854SOL     OW15448   3.543   1.456   0.350
 4854SOL    HW115449   3.512   1.435   0.262
 4854SOL    HW215450   3.632   1.421   0.352
 4855SOL     OW15451   2.681   1.548  13.708
 4855SOL    HW115452   2.654   1.604  13.635
 4855SOL    HW215453   2.604   1.494  13.726
 4856SOL     OW15454   2.635   1.334  13.346
 4856SOL    HW115455   2.606   1.243  13.355
 4856SOL    HW215456   2.715   1.339  13.399
 4857SOL     OW15457   3.173   0.073  13.202
 4857SOL    HW115458   3.190   3.994  13.150
 4857SOL    HW215459   3.084   0.062  13.234
 4858SOL     OW15460   3.156   0.461  13.715
 4858SOL    HW115461   3.106   0.542  13.715
 4858SOL    HW215462   3.147   0.427  13.805
 4859SOL     OW15463   1.904   1.069  13.340
 4859SOL    HW115464   1.998   1.064  13.322
 4859SOL    HW215465   1.879   0.980  13.363
 4860SOL     OW15466   2.750   1.653  13.372
 4860SOL    HW115467   2.676   1.640  13.314
 4860SOL    HW215468   2.725   1.726  13.429
 4861SOL     OW15469   2.094   2.515   0.123
 4861SOL    HW115470   2.007   2.486   0.150
 4861SOL    HW215471   2.112   2.466   0.042
 4862SOL     OW15472   1.871   2.270   0.642
 4862SOL    HW115473   1.780   2.263   0.669
 4862SOL    HW215474   1.887   2.190   0.591
 4863SOL     OW15475   2.429   3.154   1.178
 4863SOL    HW115476   2.342   3.160   1.138
 4863SOL    HW215477   2.446   3.242   1.212
 4864SOL     OW15478   3.426   3.374   0.708
 4864SOL    HW115479   3.381   3.350   0.790
 4864SOL    HW215480   3.356   3.377   0.643
 4865SOL     OW15481   2.992   2.561   0.699
 4865SOL    HW115482   3.041   2.641   0.686
 4865SOL    HW215483   2.946   2.575   0.782
 4866SOL     OW15484   3.625   2.462   0.229
 4866SOL    HW115485   3.641   2.421   0.144
 4866SOL    HW215486   3.586   2.393   0.283
 4867SOL     OW15487   2.612   3.001   1.043
 4867SOL    HW115488   2.544   3.038   1.100
 4867SOL    HW215489   2.650   3.078   0.999
 4868SOL     OW15490   2.731   2.631   1.822
 4868SOL    HW115491   2.720   2.701   1.887
 4868SOL    HW215492   2.755   2.676   1.741
 4869SOL     OW15493   2.546   2.859   0.647
 4869SOL    HW115494   2.613   2.851   0.715
 4869SOL    HW215495   2.478   2.914   0.685
 4870SOL     OW15496   2.574   3.013   1.814
 4870SOL    HW115497   2.622   3.090   1.843
 4870SOL    HW215498   2.493   3.047   1.778
 4871SOL     OW15499   2.194   3.283   1.067
 4871SOL    HW115500   2.119   3.247   1.019
 4871SOL    HW215501   2.241   3.336   1.002
 4872SOL     OW15502   3.321   3.363   1.357
 4872SOL    HW115503   3.375   3.442   1.367
 4872SOL    HW215504   3.256   3.370   1.426
 4873SOL     OW15505   3.472   2.307   0.743
 4873SOL    HW115506   3.399   2.330   0.686
 4873SOL    HW215507   3.485   2.385   0.797
 4874SOL     OW15508   2.082   3.573   0.483
 4874SOL    HW115509   2.109   3.642   0.543
 4874SOL    HW215510   2.145   3.578   0.411
 4875SOL     OW15511   2.999   3.204   1.694
 4875SOL    HW115512   3.040   3.197   1.780
 4875SOL    HW215513   2.947   3.124   1.686
 4876SOL     OW15514   2.081   3.303   0.530
 4876SOL    HW115515   2.074   3.398   0.533
 4876SOL    HW215516   2.027   3.272   0.602
 4877SOL     OW15517   2.123   2.955   0.890
 4877SOL    HW115518   2.118   2.868   0.930
 4877SOL    HW215519   2.065   3.010   0.944
 4878SOL     OW15520   2.470   3.648   1.428
 4878SOL    HW115521   2.389   3.633   1.476
 4878SOL    HW215522   2.497   3.736   1.453
 4879SOL     OW15523   2.427   2.848   0.159
 4879SOL    HW115524   2.458   2.891   0.079
 4879SOL    HW215525   2.479   2.887   0.229
 4880SOL     OW15526   3.457   1.988   1.466
 4880SOL    HW115527   3.471   2.070   1.418
 4880SOL    HW215528   3.442   2.015   1.556
 4881SOL     OW15529   1.984   2.513   0.562
 4881SOL    HW115530   1.951   2.426   0.584
 4881SOL    HW215531   1.971   2.564   0.642
 4882SOL     OW15532   3.697   3.614   0.340
 4882SOL    HW115533   3.765   3.580   0.399
 4882SOL    HW215534   3.721   3.706   0.327
 4883SOL     OW15535   1.883   3.464   0.104
 4883SOL    HW115536   1.890   3.374   0.133
 4883SOL    HW215537   1.868   3.514   0.184
 4884SOL     OW15538   3.549   2.780   0.648
 4884SOL    HW115539   3.632   2.738   0.631
 4884SOL    HW215540   3.530   2.830   0.568
 4885SOL     OW15541   3.505   2.966   0.433
 4885SOL    HW115542   3.591   2.971   0.392
 4885SOL    HW215543   3.509   3.029   0.505
 4886SOL     OW15544   1.978   2.629   1.561
 4886SOL    HW115545   2.068   2.657   1.576
 4886SOL    HW215546   1.925   2.708   1.573
 4887SOL     OW15547   2.477   3.251   0.735
 4887SOL    HW115548   2.431   3.167   0.744
 4887SOL    HW215549   2.460   3.278   0.644
 4888SOL     OW15550   3.149   3.099   1.423
 4888SOL    HW115551   3.181   3.032   1.362
 4888SOL    HW215552   3.208   3.094   1.498
 4889SOL     OW15553   2.682   1.863   0.510
 4889SOL    HW115554   2.721   1.947   0.488
 4889SOL    HW215555   2.588   1.881   0.515
 4890SOL     OW15556   2.051   2.829   1.275
 4890SOL    HW115557   2.136   2.790   1.257
 4890SOL    HW215558   1.989   2.775   1.226
 4891SOL     OW15559   3.391   2.859   0.205
 4891SOL    HW115560   3.323   2.801   0.238
 4891SOL    HW215561   3.431   2.896   0.284
 4892SOL     OW15562   3.080   3.666   1.627
 4892SOL    HW115563   3.056   3.727   1.557
 4892SOL    HW215564   3.081   3.580   1.585
 4893SOL     OW15565   3.326   3.282   0.949
 4893SOL    HW115566   3.260   3.296   1.016
 4893SOL    HW215567   3.316   3.191   0.924
 4894SOL     OW15568   3.515   3.606   0.588
 4894SOL    HW115569   3.506   3.578   0.497
 4894SOL    HW215570   3.496   3.527   0.639
 4895SOL     OW15571   2.481   2.599   0.269
 4895SOL    HW115572   2.475   2.675   0.211
 4895SOL    HW215573   2.419   2.618   0.339
 4896SOL     OW15574   3.139   2.220   0.933
 4896SOL    HW115575   3.051   2.185   0.942
 4896SOL    HW215576   3.192   2.167   0.992
 4897SOL     OW15577   3.421   3.595   0.314
 4897SOL    HW115578   3.517   3.596   0.313
 4897SOL    HW215579   3.397   3.559   0.228
 4898SOL     OW15580   2.656   2.479   1.450
 4898SOL    HW115581   2.632   2.456   1.540
 4898SOL    HW215582   2.609   2.415   1.395
 4899SOL     OW15583   3.256   2.336   1.678
 4899SOL    HW115584   3.259   2.380   1.763
 4899SOL    HW215585   3.314   2.260   1.688
 4900SOL     OW15586   2.814   2.748   1.584
 4900SOL    HW115587   2.870   2.680   1.547
 4900SOL    HW215588   2.767   2.784   1.508
 4901SOL     OW15589   2.860   2.277   1.236
 4901SOL    HW115590   2.776   2.296   1.279
 4901SOL    HW215591   2.836   2.229   1.157
 4902SOL     OW15592   2.914   2.564   0.429
 4902SOL    HW115593   2.932   2.556   0.523
 4902SOL    HW215594   2.832   2.517   0.416
 4903SOL     OW15595   1.950   2.684   0.777
 4903SOL    HW115596   2.032   2.682   0.826
 4903SOL    HW215597   1.903   2.760   0.810
 4904SOL     OW15598   1.983   3.707   1.576
 4904SOL    HW115599   1.986   3.687   1.670
 4904SOL    HW215600   1.890   3.705   1.554
 4905SOL     OW15601   2.734   2.222   0.217
 4905SOL    HW115602   2.773   2.282   0.153
 4905SOL    HW215603   2.744   2.135   0.177
 4906SOL     OW15604   3.571   2.435   1.829
 4906SOL    HW115605   3.533   2.509   1.780
 4906SOL    HW215606   3.596   2.372   1.761
 4907SOL     OW15607   3.239   3.003   0.543
 4907SOL    HW115608   3.318   2.991   0.490
 4907SOL    HW215609   3.187   3.067   0.493
 4908SOL     OW15610   2.436   2.057   0.910
 4908SOL    HW115611   2.346   2.070   0.941
 4908SOL    HW215612   2.459   2.140   0.867
 4909SOL     OW15613   2.865   3.304   0.474
 4909SOL    HW115614   2.833   3.379   0.424
 4909SOL    HW215615   2.844   3.325   0.565
 4910SOL     OW15616   2.213   3.674   0.841
 4910SOL    HW115617   2.264   3.594   0.858
 4910SOL    HW215618   2.273   3.745   0.863
 4911SOL     OW15619   3.667   2.921   0.869
 4911SOL    HW115620   3.613   2.898   0.793
 4911SOL    HW215621   3.605   2.926   0.942
 4912SOL     OW15622   3.089   3.399   1.512
 4912SOL    HW115623   3.076   3.327   1.573
 4912SOL    HW215624   3.022   3.387   1.445
 4913SOL     OW15625   2.171   2.800   0.232
 4913SOL    HW115626   2.263   2.812   0.206
 4913SOL    HW215627   2.157   2.706   0.223
 4914SOL     OW15628   3.341   2.607   0.726
 4914SOL    HW115629   3.336   2.566   0.812
 4914SOL    HW215630   3.418   2.663   0.731
 4915SOL     OW15631   2.330   3.127   1.737
 4915SOL    HW115632   2.303   3.133   1.645
 4915SOL    HW215633   2.247   3.125   1.786
 4916SOL     OW15634   2.989   3.640   0.231
 4916SOL    HW115635   2.925   3.595   0.286
 4916SOL    HW215636   3.015   3.574   0.166
 4917SOL     OW15637   3.493   3.240   0.087
 4917SOL    HW115638   3.456   3.322   0.055
 4917SOL    HW215639   3.426   3.174   0.068
 4918SOL     OW15640   2.337   3.596   0.325
 4918SOL    HW115641   2.371   3.659   0.388
 4918SOL    HW215642   2.414   3.570   0.274
 4919SOL     OW15643   3.265   1.972   0.439
 4919SOL    HW115644   3.261   1.939   0.349
 4919SOL    HW215645   3.359   1.970   0.460
 4920SOL     OW15646   2.122   3.653   1.223
 4920SOL    HW115647   2.169   3.583   1.268
 4920SOL    HW215648   2.106   3.619   1.135
 4921SOL     OW15649   2.800   3.563   0.899
 4921SOL    HW115650   2.878   3.512   0.921
 4921SOL    HW215651   2.757   3.513   0.831
 4922SOL     OW15652   2.252   2.557   0.480
 4922SOL    HW115653   2.269   2.478   0.428
 4922SOL    HW215654   2.161   2.549   0.507
 4923SOL     OW15655   3.395   2.087   1.725
 4923SOL    HW115656   3.405   2.107   1.818
 4923SOL    HW215657   3.327   2.019   1.722
 4924SOL     OW15658   2.627   2.145   1.755
 4924SOL    HW115659   2.705   2.089   1.749
 4924SOL    HW215660   2.579   2.112   1.831
 4925SOL     OW15661   2.738   3.382   1.195
 4925SOL    HW115662   2.721   3.347   1.107
 4925SOL    HW215663   2.808   3.328   1.230
 4926SOL     OW15664   3.202   2.452   1.433
 4926SOL    HW115665   3.233   2.420   1.518
 4926SOL    HW215666   3.239   2.540   1.425
 4927SOL     OW15667   2.679   3.254   0.943
 4927SOL    HW115668   2.763   3.242   0.899
 4927SOL    HW215669   2.615   3.258   0.871
 4928SOL     OW15670   2.788   2.369   0.902
 4928SOL    HW115671   2.765   2.361   0.809
 4928SOL    HW215672   2.823   2.283   0.925
 4929SOL     OW15673   2.415   1.926   0.512
 4929SOL    HW115674   2.357   1.904   0.584
 4929SOL    HW215675   2.398   2.018   0.493
 4930SOL     OW15676   3.292   3.068   0.045
 4930SOL    HW115677   3.311   2.988   0.093
 4930SOL    HW215678   3.201   3.087   0.065
 4931SOL     OW15679   2.803   2.110   0.462
 4931SOL    HW115680   2.774   2.149   0.379
 4931SOL    HW215681   2.898   2.125   0.463
 4932SOL     OW15682   2.944   2.545   1.459
 4932SOL    HW115683   2.878   2.476   1.466
 4932SOL    HW215684   3.027   2.499   1.453
 4933SOL     OW15685   3.082   3.433   0.795
 4933SOL    HW115686   3.099   3.499   0.727
 4933SOL    HW215687   3.153   3.445   0.858
 4934SOL     OW15688   2.332   3.013   0.729
 4934SOL    HW115689   2.264   2.995   0.793
 4934SOL    HW215690   2.290   3.001   0.644
 4935SOL     OW15691   3.128   3.657   0.608
 4935SOL    HW115692   3.175   3.722   0.555
 4935SOL    HW215693   3.055   3.706   0.647
 4936SOL     OW15694   2.859   2.406   0.056
 4936SOL    HW115695   2.859   2.393  13.861
 4936SOL    HW215696   2.951   2.401   0.082
 4937SOL     OW15697   1.939   2.429   1.381
 4937SOL    HW115698   2.033   2.418   1.368
 4937SOL    HW215699   1.931   2.501   1.443
 4938SOL     OW15700   2.724   2.319   0.639
 4938SOL    HW115701   2.690   2.376   0.570
 4938SOL    HW215702   2.751   2.239   0.593
 4939SOL     OW15703   2.875   1.916   0.750
 4939SOL    HW115704   2.819   1.907   0.673
 4939SOL    HW215705   2.854   1.841   0.805
 4940SOL     OW15706   3.301   3.024   0.857
 4940SOL    HW115707   3.231   2.959   0.856
 4940SOL    HW215708   3.326   3.034   0.766
 4941SOL     OW15709   3.327   2.470   0.973
 4941SOL    HW115710   3.275   2.390   0.976
 4941SOL    HW215711   3.386   2.463   1.048
 4942SOL     OW15712   3.724   2.676   0.370
 4942SOL    HW115713   3.765   2.622   0.438
 4942SOL    HW215714   3.682   2.614   0.311
 4943SOL     OW15715   2.351   3.267   0.157
 4943SOL    HW115716   2.277   3.235   0.207
 4943SOL    HW215717   2.333   3.241   0.066
 4944SOL     OW15718   3.528   3.126   0.645
 4944SOL    HW115719   3.624   3.128   0.655
 4944SOL    HW215720   3.500   3.216   0.661
 4945SOL     OW15721   3.284   2.447   0.087
 4945SOL    HW115722   3.217   2.439   0.154
 4945SOL    HW215723   3.321   2.359   0.079
 4946SOL     OW15724   3.613   3.096   1.566
 4946SOL    HW115725   3.700   3.061   1.548
 4946SOL    HW215726   3.629   3.186   1.595
 4947SOL     OW15727   2.919   3.213   1.331
 4947SOL    HW115728   2.844   3.183   1.383
 4947SOL    HW215729   2.995   3.173   1.373
 4948SOL     OW15730   3.469   3.491   1.657
 4948SOL    HW115731   3.459   3.524   1.567
 4948SOL    HW215732   3.549   3.440   1.655
 4949SOL     OW15733   2.992   3.067   1.103
 4949SOL    HW115734   2.935   3.106   1.168
 4949SOL    HW215735   2.962   3.102   1.019
 4950SOL     OW15736   3.490   2.958   1.075
 4950SOL    HW115737   3.482   3.019   1.148
 4950SOL    HW215738   3.413   2.975   1.020
 4951SOL     OW15739   2.787   1.956   1.394
 4951SOL    HW115740   2.809   1.936   1.303
 4951SOL    HW215741   2.866   1.995   1.430
 4952SOL     OW15742   2.846   2.977   1.723
 4952SOL    HW115743   2.755   2.993   1.746
 4952SOL    HW215744   2.843   2.899   1.668
 4953SOL     OW15745   2.577   2.921   0.377
 4953SOL    HW115746   2.562   2.902   0.469
 4953SOL    HW215747   2.652   2.866   0.353
 4954SOL     OW15748   2.284   2.685   1.253
 4954SOL    HW115749   2.353   2.697   1.318
 4954SOL    HW215750   2.247   2.599   1.274
 4955SOL     OW15751   3.129   2.239   1.278
 4955SOL    HW115752   3.161   2.316   1.324
 4955SOL    HW215753   3.039   2.260   1.255
 4956SOL     OW15754   1.934   3.435   1.353
 4956SOL    HW115755   1.906   3.510   1.301
 4956SOL    HW215756   2.030   3.437   1.349
 4957SOL     OW15757   2.206   2.977   0.486
 4957SOL    HW115758   2.204   3.048   0.423
 4957SOL    HW215759   2.212   2.897   0.433
 4958SOL     OW15760   2.427   2.391   0.848
 4958SOL    HW115761   2.437   2.454   0.777
 4958SOL    HW215762   2.492   2.418   0.913
 4959SOL     OW15763   3.110   3.209   0.398
 4959SOL    HW115764   3.166   3.282   0.425
 4959SOL    HW215765   3.023   3.232   0.430
 4960SOL     OW15766   3.146   3.322   1.149
 4960SOL    HW115767   3.203   3.326   1.225
 4960SOL    HW215768   3.091   3.245   1.164
 4961SOL     OW15769   3.441   2.485   0.485
 4961SOL    HW115770   3.392   2.534   0.551
 4961SOL    HW215771   3.470   2.551   0.422
 4962SOL     OW15772   2.208   3.391   1.312
 4962SOL    HW115773   2.196   3.347   1.228
 4962SOL    HW215774   2.302   3.402   1.320
 4963SOL     OW15775   2.282   2.608   1.605
 4963SOL    HW115776   2.342   2.651   1.544
 4963SOL    HW215777   2.333   2.534   1.640
 4964SOL     OW15778   3.466   2.641   1.683
 4964SOL    HW115779   3.381   2.683   1.678
 4964SOL    HW215780   3.519   2.684   1.616
 4965SOL     OW15781   2.856   1.990   1.748
 4965SOL    HW115782   2.916   2.062   1.728
 4965SOL    HW215783   2.905   1.911   1.726
 4966SOL     OW15784   2.361   1.886   1.776
 4966SOL    HW115785   2.316   1.841   1.705
 4966SOL    HW215786   2.294   1.939   1.818
 4967SOL     OW15787   2.447   2.734   1.032
 4967SOL    HW115788   2.481   2.824   1.031
 4967SOL    HW215789   2.391   2.731   1.109
 4968SOL     OW15790   3.216   2.721   1.026
 4968SOL    HW115791   3.132   2.709   0.981
 4968SOL    HW215792   3.260   2.636   1.019
 4969SOL     OW15793   3.081   2.405   0.272
 4969SOL    HW115794   3.084   2.324   0.323
 4969SOL    HW215795   3.025   2.463   0.323
 4970SOL     OW15796   1.907   3.173   1.275
 4970SOL    HW115797   1.941   3.119   1.347
 4970SOL    HW215798   1.914   3.263   1.308
 4971SOL     OW15799   2.582   2.486   1.054
 4971SOL    HW115800   2.662   2.474   1.003
 4971SOL    HW215801   2.557   2.577   1.038
 4972SOL     OW15802   3.592   2.822   1.861
 4972SOL    HW115803   3.552   2.756   1.803
 4972SOL    HW215804   3.529   2.835   1.931
 4973SOL     OW15805   3.484   2.239   0.371
 4973SOL    HW115806   3.506   2.172   0.435
 4973SOL    HW215807   3.458   2.315   0.423
 4974SOL     OW15808   2.889   2.620   0.959
 4974SOL    HW115809   2.884   2.637   1.053
 4974SOL    HW215810   2.864   2.527   0.951
 4975SOL     OW15811   2.847   3.430   1.720
 4975SOL    HW115812   2.828   3.471   1.636
 4975SOL    HW215813   2.889   3.347   1.698
 4976SOL     OW15814   3.705   3.361   1.598
 4976SOL    HW115815   3.729   3.390   1.510
 4976SOL    HW215816   3.785   3.371   1.649
 4977SOL     OW15817   2.214   2.780   1.809
 4977SOL    HW115818   2.295   2.799   1.855
 4977SOL    HW215819   2.239   2.718   1.740
 4978SOL     OW15820   3.410   2.123   0.137
 4978SOL    HW115821   3.352   2.051   0.161
 4978SOL    HW215822   3.434   2.163   0.220
 4979SOL     OW15823   3.151   2.690   0.055
 4979SOL    HW115824   3.200   2.608   0.060
 4979SOL    HW215825   3.170   2.724  13.867
 4980SOL     OW15826   2.929   3.198   0.855
 4980SOL    HW115827   2.933   3.126   0.792
 4980SOL    HW215828   2.989   3.265   0.820
 4981SOL     OW15829   2.171   2.680   0.946
 4981SOL    HW115830   2.263   2.706   0.939
 4981SOL    HW215831   2.174   2.589   0.975
 4982SOL     OW15832   2.216   2.417   1.007
 4982SOL    HW115833   2.183   2.328   0.992
 4982SOL    HW215834   2.293   2.424   0.951
 4983SOL     OW15835   2.996   2.238   1.682
 4983SOL    HW115836   2.948   2.291   1.745
 4983SOL    HW215837   3.083   2.277   1.680
 4984SOL     OW15838   3.025   2.064   1.470
 4984SOL    HW115839   3.013   2.126   1.542
 4984SOL    HW215840   3.068   2.115   1.401
 4985SOL     OW15841   1.883   3.173   0.180
 4985SOL    HW115842   1.801   3.187   0.132
 4985SOL    HW215843   1.873   3.086   0.219
 4986SOL     OW15844   1.959   3.640   0.939
 4986SOL    HW115845   1.928   3.562   0.893
 4986SOL    HW215846   2.044   3.659   0.899
 4987SOL     OW15847   2.356   3.438   0.906
 4987SOL    HW115848   2.423   3.501   0.930
 4987SOL    HW215849   2.401   3.375   0.849
 4988SOL     OW15850   2.841   2.650   1.225
 4988SOL    HW115851   2.902   2.631   1.296
 4988SOL    HW215852   2.756   2.618   1.256
 4989SOL     OW15853   1.894   2.399   1.114
 4989SOL    HW115854   1.971   2.427   1.064
 4989SOL    HW215855   1.918   2.415   1.206
 4990SOL     OW15856   2.013   2.428   1.736
 4990SOL    HW115857   2.072   2.385   1.675
 4990SOL    HW215858   1.976   2.501   1.687
 4991SOL     OW15859   3.241   2.799   1.658
 4991SOL    HW115860   3.262   2.892   1.655
 4991SOL    HW215861   3.238   2.772   1.566
 4992SOL     OW15862   2.678   2.437   0.380
 4992SOL    HW115863   2.687   2.363   0.320
 4992SOL    HW215864   2.613   2.493   0.338
 4993SOL     OW15865   3.502   2.464   1.183
 4993SOL    HW115866   3.491   2.403   1.257
 4993SOL    HW215867   3.588   2.442   1.148
 4994SOL     OW15868   2.104   3.411   1.725
 4994SOL    HW115869   2.081   3.478   1.789
 4994SOL    HW215870   2.108   3.329   1.775
 4995SOL     OW15871   2.537   2.322   1.266
 4995SOL    HW115872   2.521   2.234   1.231
 4995SOL    HW215873   2.547   2.377   1.188
 4996SOL     OW15874   2.789   3.534   1.469
 4996SOL    HW115875   2.762   3.496   1.385
 4996SOL    HW215876   2.781   3.628   1.456
 4997SOL     OW15877   2.323   2.383   0.281
 4997SOL    HW115878   2.398   2.438   0.259
 4997SOL    HW215879   2.260   2.399   0.211
 4998SOL     OW15880   2.006   3.005   1.474
 4998SOL    HW115881   2.007   2.955   1.555
 4998SOL    HW215882   2.023   2.941   1.406
 4999SOL     OW15883   3.184   2.907   1.222
 4999SOL    HW115884   3.208   2.844   1.154
 4999SOL    HW215885   3.116   2.961   1.182
 5000SOL     OW15886   3.176   2.720   0.326
 5000SOL    HW115887   3.103   2.686   0.377
 5000SOL    HW215888   3.151   2.705   0.235
 5001SOL     OW15889   3.639   3.602   1.155
 5001SOL    HW115890   3.697   3.629   1.083
 5001SOL    HW215891   3.612   3.513   1.132
 5002SOL     OW15892   3.106   3.595   1.109
 5002SOL    HW115893   3.189   3.617   1.066
 5002SOL    HW215894   3.112   3.502   1.129
 5003SOL     OW15895   1.948   3.127   1.012
 5003SOL    HW115896   1.932   3.142   1.105
 5003SOL    HW215897   1.873   3.075   0.984
 5004SOL     OW15898   2.540   3.527   1.733
 5004SOL    HW115899   2.484   3.603   1.737
 5004SOL    HW215900   2.601   3.546   1.661
 5005SOL     OW15901   2.790   1.970   0.129
 5005SOL    HW115902   2.822   1.959   0.039
 5005SOL    HW215903   2.841   1.907   0.180
 5006SOL     OW15904   3.568   2.010   0.514
 5006SOL    HW115905   3.646   2.003   0.460
 5006SOL    HW215906   3.559   1.924   0.555
 5007SOL     OW15907   3.251   3.434   0.486
 5007SOL    HW115908   3.314   3.468   0.423
 5007SOL    HW215909   3.204   3.511   0.518
 5008SOL     OW15910   1.996   3.652   1.839
 5008SOL    HW115911   1.945   3.588   1.888
 5008SOL    HW215912   2.045   3.700   1.906
 5009SOL     OW15913   3.138   2.788   0.671
 5009SOL    HW115914   3.212   2.728   0.680
 5009SOL    HW215915   3.172   2.860   0.618
 5010SOL     OW15916   2.672   3.136   1.428
 5010SOL    HW115917   2.644   3.176   1.510
 5010SOL    HW215918   2.603   3.160   1.366
 5011SOL     OW15919   2.544   3.453   0.183
 5011SOL    HW115920   2.524   3.501   0.103
 5011SOL    HW215921   2.487   3.376   0.179
 5012SOL     OW15922   3.481   3.589   1.390
 5012SOL    HW115923   3.537   3.592   1.312
 5012SOL    HW215924   3.469   3.680   1.414
 5013SOL     OW15925   3.700   2.043   0.967
 5013SOL    HW115926   3.731   1.956   0.942
 5013SOL    HW215927   3.614   2.050   0.926
 5014SOL     OW15928   3.085   3.460   0.034
 5014SOL    HW115929   3.072   3.369   0.061
 5014SOL    HW215930   3.039   3.467  13.850
 5015SOL     OW15931   2.687   2.869   1.372
 5015SOL    HW115932   2.731   2.866   1.288
 5015SOL    HW215933   2.684   2.962   1.394
 5016SOL     OW15934   2.785   2.774   0.289
 5016SOL    HW115935   2.854   2.813   0.236
 5016SOL    HW215936   2.828   2.703   0.337
 5017SOL     OW15937   3.349   3.509   0.065
 5017SOL    HW115938   3.256   3.487   0.057
 5017SOL    HW215939   3.383   3.501  13.876
 5018SOL     OW15940   2.231   3.166   1.491
 5018SOL    HW115941   2.218   3.243   1.436
 5018SOL    HW215942   2.153   3.112   1.476
 5019SOL     OW15943   3.463   3.142   1.277
 5019SOL    HW115944   3.531   3.134   1.343
 5019SOL    HW215945   3.406   3.211   1.310
 5020SOL     OW15946   2.917   2.970   0.708
 5020SOL    HW115947   2.846   2.918   0.746
 5020SOL    HW215948   2.982   2.905   0.680
 5021SOL     OW15949   2.882   2.102   0.966
 5021SOL    HW115950   2.879   2.055   0.883
 5021SOL    HW215951   2.880   2.034   1.033
 5022SOL     OW15952   2.467   3.351   0.480
 5022SOL    HW115953   2.512   3.299   0.413
 5022SOL    HW215954   2.399   3.399   0.432
 5023SOL     OW15955   3.586   2.252   1.378
 5023SOL    HW115956   3.658   2.315   1.375
 5023SOL    HW215957   3.615   2.180   1.322
 5024SOL     OW15958   2.132   3.184   0.297
 5024SOL    HW115959   2.048   3.192   0.252
 5024SOL    HW215960   2.120   3.231   0.379
 5025SOL     OW15961   1.974   2.887   1.720
 5025SOL    HW115962   1.897   2.863   1.772
 5025SOL    HW215963   2.048   2.849   1.767
 5026SOL     OW15964   2.546   2.046   1.494
 5026SOL    HW115965   2.633   2.023   1.461
 5026SOL    HW215966   2.562   2.088   1.578
 5027SOL     OW15967   1.858   2.287   0.037
 5027SOL    HW115968   1.813   2.204   0.053
 5027SOL    HW215969   1.891   2.279  13.847
 5028SOL     OW15970   3.288   2.720   1.399
 5028SOL    HW115971   3.239   2.782   1.345
 5028SOL    HW215972   3.377   2.722   1.362
 5029SOL     OW15973   3.048   3.207   0.122
 5029SOL    HW115974   2.954   3.196   0.111
 5029SOL    HW215975   3.063   3.195   0.216
 5030SOL     OW15976   2.484   2.693   1.434
 5030SOL    HW115977   2.540   2.770   1.420
 5030SOL    HW215978   2.546   2.620   1.443
 5031SOL     OW15979   3.347   3.644   0.983
 5031SOL    HW115980   3.371   3.696   0.906
 5031SOL    HW215981   3.431   3.613   1.017
 5032SOL     OW15982   2.574   2.424   1.702
 5032SOL    HW115983   2.620   2.483   1.762
 5032SOL    HW215984   2.596   2.337   1.733
 5033SOL     OW15985   3.335   3.060   1.630
 5033SOL    HW115986   3.324   3.074   1.724
 5033SOL    HW215987   3.428   3.075   1.614
 5034SOL     OW15988   2.237   3.602   1.565
 5034SOL    HW115989   2.153   3.644   1.549
 5034SOL    HW215990   2.215   3.519   1.606
 5035SOL     OW15991   3.527   2.742   1.259
 5035SOL    HW115992   3.525   2.657   1.215
 5035SOL    HW215993   3.520   2.806   1.187
 5036SOL     OW15994   3.080   2.182   0.455
 5036SOL    HW115995   3.143   2.111   0.448
 5036SOL    HW215996   3.107   2.231   0.532
 5037SOL     OW15997   2.448   2.596   0.670
 5037SOL    HW115998   2.487   2.683   0.655
 5037SOL    HW215999   2.380   2.590   0.603
 5038SOL     OW16000   3.621   2.228   1.650
 5038SOL    HW116001   3.604   2.241   1.556
 5038SOL    HW216002   3.551   2.169   1.679
 5039SOL     OW16003   3.618   2.790   1.513
 5039SOL    HW116004   3.609   2.884   1.531
 5039SOL    HW216005   3.594   2.781   1.421
 5040SOL     OW16006   2.770   3.260   0.066
 5040SOL    HW116007   2.702   3.246   0.131
 5040SOL    HW216008   2.724   3.265  13.882
 5041SOL     OW16009   2.523   3.651   0.939
 5041SOL    HW116010   2.501   3.742   0.918
 5041SOL    HW216011   2.618   3.647   0.934
 5042SOL     OW16012   2.730   2.830   0.854
 5042SOL    HW116013   2.780   2.759   0.893
 5042SOL    HW216014   2.694   2.878   0.929
 5043SOL     OW16015   2.960   2.873   0.109
 5043SOL    HW116016   2.950   2.920   0.026
 5043SOL    HW216017   3.033   2.814   0.095
 5044SOL     OW16018   3.713   3.415   0.840
 5044SOL    HW116019   3.633   3.399   0.789
 5044SOL    HW216020   3.710   3.350   0.910
 5045SOL     OW16021   2.088   3.163   1.856
 5045SOL    HW116022   2.020   3.103   1.826
 5045SOL    HW216023   2.070   3.176   1.949
 5046SOL     OW16024   1.946   3.091   0.666
 5046SOL    HW116025   1.956   3.044   0.749
 5046SOL    HW216026   2.018   3.058   0.612
 5047SOL     OW16027   2.545   3.266   1.629
 5047SOL    HW116028   2.465   3.224   1.661
 5047SOL    HW216029   2.542   3.355   1.667
 5048SOL     OW16030   3.675   2.040   1.238
 5048SOL    HW116031   3.666   1.945   1.241
 5048SOL    HW216032   3.689   2.060   1.146
 5049SOL     OW16033   3.558   3.351   1.095
 5049SOL    HW116034   3.479   3.328   1.047
 5049SOL    HW216035   3.570   3.281   1.159
 5050SOL     OW16036   2.203   2.427   1.298
 5050SOL    HW116037   2.256   2.363   1.345
 5050SOL    HW216038   2.228   2.416   1.206
 5051SOL     OW16039   2.691   3.441   0.677
 5051SOL    HW116040   2.674   3.496   0.600
 5051SOL    HW216041   2.616   3.382   0.681
 5052SOL     OW16042   3.293   2.090   1.116
 5052SOL    HW116043   3.313   2.006   1.158
 5052SOL    HW216044   3.243   2.138   1.182
 5053SOL     OW16045   2.872   1.880   1.139
 5053SOL    HW116046   2.817   1.813   1.100
 5053SOL    HW216047   2.960   1.841   1.141
 5054SOL     OW16048   2.637   3.185   0.320
 5054SOL    HW116049   2.608   3.095   0.338
 5054SOL    HW216050   2.719   3.193   0.368
 5055SOL     OW16051   2.482   3.415   1.285
 5055SOL    HW116052   2.483   3.496   1.335
 5055SOL    HW216053   2.570   3.409   1.248
 5056SOL     OW16054   3.211   1.926   0.164
 5056SOL    HW116055   3.246   1.863   0.101
 5056SOL    HW216056   3.128   1.888   0.193
 5057SOL     OW16057   3.156   2.324   0.679
 5057SOL    HW116058   3.104   2.404   0.686
 5057SOL    HW216059   3.153   2.285   0.766
 5058SOL     OW16060   3.444   2.060   0.878
 5058SOL    HW116061   3.388   2.084   0.952
 5058SOL    HW216062   3.445   2.138   0.823
 5059SOL     OW16063   1.901   2.929   0.310
 5059SOL    HW116064   1.997   2.926   0.308
 5059SOL    HW216065   1.874   2.839   0.329
 5060SOL     OW16066   2.757   3.520   0.345
 5060SOL    HW116067   2.684   3.491   0.291
 5060SOL    HW216068   2.723   3.595   0.393
 5061SOL     OW16069   2.096   2.493   1.992
 5061SOL    HW116070   2.012   2.481   2.035
 5061SOL    HW216071   2.078   2.480   1.899
 5062SOL     OW16072   1.872   2.266   2.500
 5062SOL    HW116073   1.781   2.265   2.531
 5062SOL    HW216074   1.882   2.185   2.451
 5063SOL     OW16075   2.429   3.154   3.040
 5063SOL    HW116076   2.342   3.159   3.000
 5063SOL    HW216077   2.445   3.242   3.074
 5064SOL     OW16078   3.425   3.374   2.571
 5064SOL    HW116079   3.383   3.352   2.654
 5064SOL    HW216080   3.354   3.377   2.507
 5065SOL     OW16081   2.992   2.561   2.560
 5065SOL    HW116082   3.041   2.641   2.546
 5065SOL    HW216083   2.946   2.575   2.643
 5066SOL     OW16084   3.629   2.468   2.091
 5066SOL    HW116085   3.609   2.460   1.998
 5066SOL    HW216086   3.595   2.388   2.130
 5067SOL     OW16087   2.613   3.002   2.905
 5067SOL    HW116088   2.545   3.038   2.963
 5067SOL    HW216089   2.650   3.078   2.862
 5068SOL     OW16090   2.731   2.631   3.684
 5068SOL    HW116091   2.721   2.702   3.748
 5068SOL    HW216092   2.755   2.675   3.603
 5069SOL     OW16093   2.549   2.863   2.507
 5069SOL    HW116094   2.614   2.854   2.577
 5069SOL    HW216095   2.480   2.916   2.547
 5070SOL     OW16096   2.575   3.013   3.676
 5070SOL    HW116097   2.622   3.091   3.705
 5070SOL    HW216098   2.493   3.047   3.639
 5071SOL     OW16099   2.193   3.283   2.929
 5071SOL    HW116100   2.119   3.246   2.880
 5071SOL    HW216101   2.240   3.336   2.864
 5072SOL     OW16102   3.321   3.363   3.219
 5072SOL    HW116103   3.375   3.441   3.229
 5072SOL    HW216104   3.255   3.370   3.288
 5073SOL     OW16105   3.472   2.308   2.606
 5073SOL    HW116106   3.399   2.329   2.547
 5073SOL    HW216107   3.484   2.386   2.659
 5074SOL     OW16108   2.083   3.578   2.341
 5074SOL    HW116109   2.114   3.638   2.409
 5074SOL    HW216110   2.155   3.575   2.277
 5075SOL     OW16111   2.999   3.204   3.556
 5075SOL    HW116112   3.040   3.197   3.642
 5075SOL    HW216113   2.947   3.124   3.548
 5076SOL     OW16114   2.091   3.304   2.397
 5076SOL    HW116115   2.074   3.398   2.401
 5076SOL    HW216116   2.033   3.266   2.463
 5077SOL     OW16117   2.123   2.956   2.753
 5077SOL    HW116118   2.118   2.868   2.792
 5077SOL    HW216119   2.065   3.009   2.807
 5078SOL     OW16120   2.470   3.648   3.290
 5078SOL    HW116121   2.389   3.633   3.338
 5078SOL    HW216122   2.497   3.736   3.315
 5079SOL     OW16123   2.445   2.847   1.997
 5079SOL    HW116124   2.492   2.894   1.929
 5079SOL    HW216125   2.483   2.879   2.079
 5080SOL     OW16126   3.457   1.988   3.328
 5080SOL    HW116127   3.470   2.069   3.280
 5080SOL    HW216128   3.442   2.015   3.418
 5081SOL     OW16129   1.984   2.513   2.424
 5081SOL    HW116130   1.951   2.426   2.445
 5081SOL    HW216131   1.972   2.564   2.505
 5082SOL     OW16132   3.700   3.613   2.203
 5082SOL    HW116133   3.771   3.588   2.263
 5082SOL    HW216134   3.719   3.704   2.180
 5083SOL     OW16135   1.892   3.453   1.984
 5083SOL    HW116136   1.876   3.361   2.005
 5083SOL    HW216137   1.871   3.500   2.064
 5084SOL     OW16138   3.550   2.782   2.508
 5084SOL    HW116139   3.633   2.738   2.490
 5084SOL    HW216140   3.531   2.830   2.428
 5085SOL     OW16141   3.503   2.966   2.293
 5085SOL    HW116142   3.588   2.971   2.250
 5085SOL    HW216143   3.510   3.029   2.365
 5086SOL     OW16144   1.978   2.628   3.424
 5086SOL    HW116145   2.068   2.657   3.438
 5086SOL    HW216146   1.925   2.707   3.434
 5087SOL     OW16147   2.477   3.251   2.597
 5087SOL    HW116148   2.432   3.167   2.606
 5087SOL    HW216149   2.460   3.278   2.506
 5088SOL     OW16150   3.149   3.099   3.285
 5088SOL    HW116151   3.181   3.032   3.224
 5088SOL    HW216152   3.208   3.094   3.360
 5089SOL     OW16153   2.688   1.862   2.373
 5089SOL    HW116154   2.726   1.947   2.350
 5089SOL    HW216155   2.594   1.879   2.378
 5090SOL     OW16156   2.051   2.829   3.137
 5090SOL    HW116157   2.136   2.789   3.120
 5090SOL    HW216158   1.989   2.775   3.087
 5091SOL     OW16159   3.390   2.858   2.062
 5091SOL    HW116160   3.321   2.801   2.096
 5091SOL    HW216161   3.432   2.893   2.141
 5092SOL     OW16162   3.080   3.666   3.489
 5092SOL    HW116163   3.056   3.727   3.419
 5092SOL    HW216164   3.081   3.580   3.447
 5093SOL     OW16165   3.327   3.282   2.811
 5093SOL    HW116166   3.261   3.297   2.878
 5093SOL    HW216167   3.316   3.191   2.785
 5094SOL     OW16168   3.509   3.606   2.442
 5094SOL    HW116169   3.501   3.571   2.353
 5094SOL    HW216170   3.492   3.531   2.499
 5095SOL     OW16171   2.465   2.598   2.135
 5095SOL    HW116172   2.468   2.677   2.081
 5095SOL    HW216173   2.398   2.616   2.201
 5096SOL     OW16174   3.139   2.220   2.796
 5096SOL    HW116175   3.051   2.185   2.804
 5096SOL    HW216176   3.192   2.167   2.854
 5097SOL     OW16177   3.436   3.538   2.170
 5097SOL    HW116178   3.528   3.562   2.166
 5097SOL    HW216179   3.412   3.518   2.080
 5098SOL     OW16180   2.656   2.479   3.312
 5098SOL    HW116181   2.632   2.456   3.402
 5098SOL    HW216182   2.610   2.415   3.257
 5099SOL     OW16183   3.256   2.336   3.540
 5099SOL    HW116184   3.259   2.380   3.625
 5099SOL    HW216185   3.314   2.260   3.550
 5100SOL     OW16186   2.814   2.748   3.446
 5100SOL    HW116187   2.870   2.680   3.409
 5100SOL    HW216188   2.767   2.784   3.370
 5101SOL     OW16189   2.860   2.277   3.098
 5101SOL    HW116190   2.776   2.295   3.140
 5101SOL    HW216191   2.837   2.229   3.018
 5102SOL     OW16192   2.914   2.561   2.287
 5102SOL    HW116193   2.931   2.554   2.381
 5102SOL    HW216194   2.831   2.514   2.275
 5103SOL     OW16195   1.950   2.682   2.640
 5103SOL    HW116196   2.032   2.682   2.689
 5103SOL    HW216197   1.904   2.760   2.672
 5104SOL     OW16198   1.983   3.707   3.438
 5104SOL    HW116199   1.986   3.687   3.532
 5104SOL    HW216200   1.890   3.706   3.416
 5105SOL     OW16201   2.759   2.215   2.063
 5105SOL    HW116202   2.803   2.268   1.997
 5105SOL    HW216203   2.734   2.135   2.016
 5106SOL     OW16204   3.571   2.436   3.691
 5106SOL    HW116205   3.533   2.509   3.642
 5106SOL    HW216206   3.596   2.372   3.623
 5107SOL     OW16207   3.239   3.003   2.402
 5107SOL    HW116208   3.319   2.991   2.351
 5107SOL    HW216209   3.187   3.066   2.351
 5108SOL     OW16210   2.439   2.059   2.768
 5108SOL    HW116211   2.350   2.070   2.800
 5108SOL    HW216212   2.461   2.142   2.727
 5109SOL     OW16213   2.865   3.307   2.332
 5109SOL    HW116214   2.829   3.381   2.284
 5109SOL    HW216215   2.845   3.326   2.424
 5110SOL     OW16216   2.213   3.673   2.701
 5110SOL    HW116217   2.263   3.594   2.720
 5110SOL    HW216218   2.272   3.745   2.724
 5111SOL     OW16219   3.667   2.923   2.729
 5111SOL    HW116220   3.614   2.897   2.654
 5111SOL    HW216221   3.605   2.926   2.802
 5112SOL     OW16222   3.089   3.399   3.374
 5112SOL    HW116223   3.076   3.327   3.435
 5112SOL    HW216224   3.022   3.386   3.307
 5113SOL     OW16225   2.179   2.821   2.114
 5113SOL    HW116226   2.260   2.840   2.067
 5113SOL    HW216227   2.150   2.737   2.077
 5114SOL     OW16228   3.341   2.608   2.588
 5114SOL    HW116229   3.336   2.566   2.673
 5114SOL    HW216230   3.420   2.663   2.593
 5115SOL     OW16231   2.330   3.127   3.599
 5115SOL    HW116232   2.303   3.133   3.507
 5115SOL    HW216233   2.247   3.125   3.648
 5116SOL     OW16234   2.976   3.643   2.084
 5116SOL    HW116235   2.912   3.597   2.138
 5116SOL    HW216236   3.006   3.577   2.021
 5117SOL     OW16237   3.486   3.247   1.951
 5117SOL    HW116238   3.443   3.330   1.933
 5117SOL    HW216239   3.420   3.181   1.931
 5118SOL     OW16240   2.329   3.597   2.187
 5118SOL    HW116241   2.367   3.662   2.246
 5118SOL    HW216242   2.402   3.572   2.130
 5119SOL     OW16243   3.263   1.969   2.298
 5119SOL    HW116244   3.255   1.944   2.206
 5119SOL    HW216245   3.357   1.975   2.314
 5120SOL     OW16246   2.122   3.653   3.085
 5120SOL    HW116247   2.169   3.584   3.131
 5120SOL    HW216248   2.107   3.619   2.997
 5121SOL     OW16249   2.800   3.563   2.761
 5121SOL    HW116250   2.877   3.511   2.783
 5121SOL    HW216251   2.756   3.513   2.692
 5122SOL     OW16252   2.255   2.573   2.340
 5122SOL    HW116253   2.284   2.483   2.352
 5122SOL    HW216254   2.160   2.570   2.356
 5123SOL     OW16255   3.395   2.087   3.587
 5123SOL    HW116256   3.404   2.107   3.680
 5123SOL    HW216257   3.327   2.020   3.584
 5124SOL     OW16258   2.535   1.989   1.965
 5124SOL    HW116259   2.579   1.910   1.996
 5124SOL    HW216260   2.467   1.957   1.906
 5125SOL     OW16261   2.627   2.145   3.616
 5125SOL    HW116262   2.705   2.089   3.611
 5125SOL    HW216263   2.579   2.112   3.692
 5126SOL     OW16264   2.738   3.382   3.057
 5126SOL    HW116265   2.721   3.347   2.969
 5126SOL    HW216266   2.808   3.328   3.092
 5127SOL     OW16267   3.202   2.452   3.295
 5127SOL    HW116268   3.233   2.420   3.380
 5127SOL    HW216269   3.239   2.539   3.287
 5128SOL     OW16270   2.679   3.254   2.805
 5128SOL    HW116271   2.763   3.242   2.761
 5128SOL    HW216272   2.615   3.258   2.733
 5129SOL     OW16273   2.789   2.369   2.764
 5129SOL    HW116274   2.766   2.362   2.672
 5129SOL    HW216275   2.823   2.283   2.788
 5130SOL     OW16276   2.423   1.920   2.371
 5130SOL    HW116277   2.367   1.905   2.447
 5130SOL    HW216278   2.413   2.013   2.352
 5131SOL     OW16279   3.290   3.062   1.902
 5131SOL    HW116280   3.320   2.986   1.952
 5131SOL    HW216281   3.204   3.082   1.940
 5132SOL     OW16282   2.802   2.112   2.320
 5132SOL    HW116283   2.780   2.149   2.235
 5132SOL    HW216284   2.897   2.124   2.327
 5133SOL     OW16285   2.944   2.545   3.321
 5133SOL    HW116286   2.878   2.476   3.328
 5133SOL    HW216287   3.027   2.498   3.315
 5134SOL     OW16288   3.083   3.433   2.656
 5134SOL    HW116289   3.099   3.500   2.590
 5134SOL    HW216290   3.153   3.445   2.720
 5135SOL     OW16291   2.333   3.013   2.592
 5135SOL    HW116292   2.264   2.995   2.656
 5135SOL    HW216293   2.291   2.998   2.508
 5136SOL     OW16294   3.128   3.657   2.470
 5136SOL    HW116295   3.174   3.721   2.417
 5136SOL    HW216296   3.055   3.705   2.509
 5137SOL     OW16297   2.887   2.401   1.885
 5137SOL    HW116298   2.843   2.484   1.867
 5137SOL    HW216299   2.950   2.422   1.953
 5138SOL     OW16300   1.938   2.428   3.243
 5138SOL    HW116301   2.032   2.417   3.230
 5138SOL    HW216302   1.931   2.500   3.306
 5139SOL     OW16303   2.726   2.320   2.501
 5139SOL    HW116304   2.684   2.376   2.436
 5139SOL    HW216305   2.752   2.241   2.452
 5140SOL     OW16306   2.875   1.916   2.612
 5140SOL    HW116307   2.820   1.906   2.535
 5140SOL    HW216308   2.854   1.841   2.667
 5141SOL     OW16309   3.301   3.024   2.719
 5141SOL    HW116310   3.231   2.959   2.718
 5141SOL    HW216311   3.327   3.033   2.627
 5142SOL     OW16312   3.327   2.470   2.835
 5142SOL    HW116313   3.275   2.390   2.838
 5142SOL    HW216314   3.386   2.463   2.910
 5143SOL     OW16315   3.723   2.678   2.237
 5143SOL    HW116316   3.767   2.623   2.301
 5143SOL    HW216317   3.686   2.617   2.173
 5144SOL     OW16318   2.352   3.281   2.016
 5144SOL    HW116319   2.277   3.253   2.068
 5144SOL    HW216320   2.340   3.237   1.931
 5145SOL     OW16321   3.529   3.127   2.506
 5145SOL    HW116322   3.624   3.129   2.515
 5145SOL    HW216323   3.501   3.216   2.527
 5146SOL     OW16324   3.256   2.434   1.934
 5146SOL    HW116325   3.194   2.414   2.004
 5146SOL    HW216326   3.340   2.401   1.967
 5147SOL     OW16327   3.613   3.097   3.428
 5147SOL    HW116328   3.700   3.061   3.410
 5147SOL    HW216329   3.629   3.186   3.457
 5148SOL     OW16330   2.919   3.214   3.194
 5148SOL    HW116331   2.844   3.184   3.245
 5148SOL    HW216332   2.995   3.173   3.236
 5149SOL     OW16333   3.469   3.491   3.519
 5149SOL    HW116334   3.459   3.524   3.429
 5149SOL    HW216335   3.549   3.440   3.517
 5150SOL     OW16336   2.993   3.068   2.965
 5150SOL    HW116337   2.934   3.106   3.030
 5150SOL    HW216338   2.962   3.102   2.882
 5151SOL     OW16339   3.490   2.958   2.937
 5151SOL    HW116340   3.482   3.019   3.010
 5151SOL    HW216341   3.413   2.974   2.882
 5152SOL     OW16342   2.787   1.955   3.256
 5152SOL    HW116343   2.809   1.936   3.165
 5152SOL    HW216344   2.867   1.994   3.292
 5153SOL     OW16345   2.846   2.977   3.585
 5153SOL    HW116346   2.755   2.993   3.607
 5153SOL    HW216347   2.844   2.899   3.530
 5154SOL     OW16348   2.571   2.924   2.232
 5154SOL    HW116349   2.557   2.905   2.325
 5154SOL    HW216350   2.646   2.870   2.209
 5155SOL     OW16351   2.283   2.683   3.116
 5155SOL    HW116352   2.352   2.694   3.180
 5155SOL    HW216353   2.246   2.597   3.135
 5156SOL     OW16354   3.129   2.238   3.140
 5156SOL    HW116355   3.161   2.316   3.186
 5156SOL    HW216356   3.039   2.260   3.117
 5157SOL     OW16357   1.934   3.435   3.215
 5157SOL    HW116358   1.906   3.510   3.164
 5157SOL    HW216359   2.030   3.437   3.211
 5158SOL     OW16360   2.206   2.975   2.352
 5158SOL    HW116361   2.211   3.048   2.290
 5158SOL    HW216362   2.203   2.897   2.296
 5159SOL     OW16363   2.427   2.390   2.711
 5159SOL    HW116364   2.438   2.449   2.637
 5159SOL    HW216365   2.493   2.419   2.774
 5160SOL     OW16366   3.109   3.211   2.251
 5160SOL    HW116367   3.166   3.282   2.283
 5160SOL    HW216368   3.023   3.232   2.285
 5161SOL     OW16369   3.146   3.322   3.010
 5161SOL    HW116370   3.203   3.326   3.087
 5161SOL    HW216371   3.091   3.245   3.024
 5162SOL     OW16372   3.440   2.482   2.344
 5162SOL    HW116373   3.392   2.534   2.408
 5162SOL    HW216374   3.483   2.546   2.287
 5163SOL     OW16375   2.208   3.391   3.174
 5163SOL    HW116376   2.196   3.347   3.090
 5163SOL    HW216377   2.302   3.402   3.182
 5164SOL     OW16378   2.283   2.607   3.468
 5164SOL    HW116379   2.341   2.651   3.406
 5164SOL    HW216380   2.334   2.534   3.502
 5165SOL     OW16381   3.466   2.641   3.545
 5165SOL    HW116382   3.381   2.683   3.540
 5165SOL    HW216383   3.519   2.684   3.478
 5166SOL     OW16384   2.856   1.990   3.609
 5166SOL    HW116385   2.916   2.062   3.590
 5166SOL    HW216386   2.905   1.911   3.588
 5167SOL     OW16387   2.361   1.888   3.637
 5167SOL    HW116388   2.314   1.842   3.567
 5167SOL    HW216389   2.294   1.945   3.677
 5168SOL     OW16390   2.448   2.734   2.895
 5168SOL    HW116391   2.480   2.824   2.893
 5168SOL    HW216392   2.390   2.730   2.972
 5169SOL     OW16393   3.216   2.721   2.888
 5169SOL    HW116394   3.132   2.708   2.843
 5169SOL    HW216395   3.260   2.636   2.881
 5170SOL     OW16396   3.064   2.390   2.126
 5170SOL    HW116397   3.072   2.311   2.180
 5170SOL    HW216398   3.021   2.454   2.183
 5171SOL     OW16399   1.907   3.173   3.137
 5171SOL    HW116400   1.941   3.119   3.209
 5171SOL    HW216401   1.914   3.263   3.170
 5172SOL     OW16402   2.583   2.487   2.917
 5172SOL    HW116403   2.663   2.475   2.865
 5172SOL    HW216404   2.557   2.578   2.900
 5173SOL     OW16405   3.592   2.822   3.723
 5173SOL    HW116406   3.552   2.757   3.665
 5173SOL    HW216407   3.529   2.835   3.793
 5174SOL     OW16408   3.482   2.238   2.226
 5174SOL    HW116409   3.508   2.173   2.291
 5174SOL    HW216410   3.458   2.315   2.278
 5175SOL     OW16411   2.889   2.620   2.821
 5175SOL    HW116412   2.884   2.637   2.915
 5175SOL    HW216413   2.864   2.528   2.812
 5176SOL     OW16414   2.847   3.430   3.582
 5176SOL    HW116415   2.828   3.471   3.498
 5176SOL    HW216416   2.889   3.347   3.560
 5177SOL     OW16417   3.705   3.361   3.460
 5177SOL    HW116418   3.729   3.390   3.372
 5177SOL    HW216419   3.785   3.371   3.511
 5178SOL     OW16420   2.214   2.780   3.671
 5178SOL    HW116421   2.296   2.800   3.716
 5178SOL    HW216422   2.239   2.717   3.603
 5179SOL     OW16423   3.391   2.134   1.989
 5179SOL    HW116424   3.326   2.069   2.015
 5179SOL    HW216425   3.424   2.170   2.072
 5180SOL     OW16426   3.151   2.687   1.891
 5180SOL    HW116427   3.194   2.602   1.896
 5180SOL    HW216428   3.184   2.726   1.811
 5181SOL     OW16429   2.929   3.199   2.717
 5181SOL    HW116430   2.933   3.126   2.655
 5181SOL    HW216431   2.989   3.264   2.682
 5182SOL     OW16432   2.171   2.682   2.807
 5182SOL    HW116433   2.264   2.707   2.800
 5182SOL    HW216434   2.174   2.590   2.835
 5183SOL     OW16435   2.211   2.417   2.862
 5183SOL    HW116436   2.175   2.330   2.843
 5183SOL    HW216437   2.290   2.423   2.809
 5184SOL     OW16438   2.996   2.238   3.544
 5184SOL    HW116439   2.948   2.291   3.607
 5184SOL    HW216440   3.083   2.277   3.541
 5185SOL     OW16441   3.026   2.064   3.332
 5185SOL    HW116442   3.013   2.126   3.404
 5185SOL    HW216443   3.068   2.115   3.263
 5186SOL     OW16444   1.867   3.181   2.057
 5186SOL    HW116445   1.780   3.196   2.020
 5186SOL    HW216446   1.864   3.091   2.091
 5187SOL     OW16447   1.959   3.641   2.800
 5187SOL    HW116448   1.928   3.562   2.755
 5187SOL    HW216449   2.044   3.659   2.760
 5188SOL     OW16450   2.356   3.438   2.767
 5188SOL    HW116451   2.423   3.501   2.792
 5188SOL    HW216452   2.401   3.375   2.710
 5189SOL     OW16453   2.841   2.651   3.087
 5189SOL    HW116454   2.901   2.631   3.159
 5189SOL    HW216455   2.756   2.617   3.117
 5190SOL     OW16456   1.896   2.399   2.976
 5190SOL    HW116457   1.972   2.428   2.927
 5190SOL    HW216458   1.918   2.414   3.068
 5191SOL     OW16459   2.016   2.432   3.604
 5191SOL    HW116460   2.081   2.392   3.545
 5191SOL    HW216461   1.977   2.502   3.552
 5192SOL     OW16462   3.241   2.799   3.520
 5192SOL    HW116463   3.262   2.892   3.517
 5192SOL    HW216464   3.237   2.772   3.428
 5193SOL     OW16465   2.678   2.432   2.229
 5193SOL    HW116466   2.685   2.360   2.168
 5193SOL    HW216467   2.607   2.486   2.195
 5194SOL     OW16468   3.502   2.464   3.046
 5194SOL    HW116469   3.491   2.403   3.119
 5194SOL    HW216470   3.588   2.442   3.010
 5195SOL     OW16471   2.104   3.411   3.587
 5195SOL    HW116472   2.081   3.478   3.651
 5195SOL    HW216473   2.108   3.329   3.637
 5196SOL     OW16474   2.539   2.322   3.127
 5196SOL    HW116475   2.521   2.234   3.092
 5196SOL    HW216476   2.548   2.377   3.050
 5197SOL     OW16477   2.789   3.534   3.331
 5197SOL    HW116478   2.763   3.496   3.247
 5197SOL    HW216479   2.781   3.628   3.318
 5198SOL     OW16480   2.338   2.367   2.090
 5198SOL    HW116481   2.397   2.443   2.091
 5198SOL    HW216482   2.258   2.399   2.050
 5199SOL     OW16483   2.006   3.005   3.336
 5199SOL    HW116484   2.007   2.955   3.417
 5199SOL    HW216485   2.023   2.940   3.268
 5200SOL     OW16486   3.184   2.907   3.084
 5200SOL    HW116487   3.207   2.844   3.016
 5200SOL    HW216488   3.116   2.961   3.044
 5201SOL     OW16489   3.174   2.718   2.167
 5201SOL    HW116490   3.100   2.687   2.218
 5201SOL    HW216491   3.149   2.704   2.076
 5202SOL     OW16492   3.639   3.603   3.017
 5202SOL    HW116493   3.697   3.629   2.945
 5202SOL    HW216494   3.612   3.514   2.994
 5203SOL     OW16495   3.106   3.595   2.971
 5203SOL    HW116496   3.189   3.616   2.928
 5203SOL    HW216497   3.112   3.502   2.991
 5204SOL     OW16498   1.947   3.128   2.874
 5204SOL    HW116499   1.931   3.142   2.967
 5204SOL    HW216500   1.873   3.074   2.845
 5205SOL     OW16501   2.540   3.526   3.595
 5205SOL    HW116502   2.484   3.604   3.599
 5205SOL    HW216503   2.602   3.545   3.523
 5206SOL     OW16504   3.572   2.012   2.374
 5206SOL    HW116505   3.640   2.000   2.308
 5206SOL    HW216506   3.561   1.926   2.413
 5207SOL     OW16507   3.252   3.430   2.349
 5207SOL    HW116508   3.311   3.464   2.282
 5207SOL    HW216509   3.204   3.508   2.380
 5208SOL     OW16510   1.997   3.652   3.701
 5208SOL    HW116511   1.945   3.588   3.750
 5208SOL    HW216512   2.045   3.700   3.768
 5209SOL     OW16513   3.139   2.788   2.533
 5209SOL    HW116514   3.213   2.728   2.542
 5209SOL    HW216515   3.173   2.860   2.480
 5210SOL     OW16516   2.672   3.136   3.290
 5210SOL    HW116517   2.644   3.176   3.372
 5210SOL    HW216518   2.603   3.159   3.227
 5211SOL     OW16519   2.537   3.480   2.020
 5211SOL    HW116520   2.546   3.497   1.926
 5211SOL    HW216521   2.478   3.404   2.024
 5212SOL     OW16522   3.481   3.589   3.252
 5212SOL    HW116523   3.537   3.592   3.174
 5212SOL    HW216524   3.469   3.680   3.276
 5213SOL     OW16525   3.700   2.043   2.829
 5213SOL    HW116526   3.731   1.956   2.804
 5213SOL    HW216527   3.614   2.051   2.788
 5214SOL     OW16528   3.070   3.466   1.898
 5214SOL    HW116529   3.059   3.374   1.922
 5214SOL    HW216530   3.008   3.479   1.825
 5215SOL     OW16531   2.686   2.869   3.234
 5215SOL    HW116532   2.731   2.865   3.150
 5215SOL    HW216533   2.684   2.962   3.256
 5216SOL     OW16534   2.779   2.773   2.152
 5216SOL    HW116535   2.839   2.805   2.086
 5216SOL    HW216536   2.827   2.704   2.198
 5217SOL     OW16537   3.350   3.494   1.904
 5217SOL    HW116538   3.256   3.481   1.888
 5217SOL    HW216539   3.389   3.498   1.817
 5218SOL     OW16540   2.231   3.166   3.353
 5218SOL    HW116541   2.218   3.243   3.298
 5218SOL    HW216542   2.153   3.112   3.338
 5219SOL     OW16543   3.463   3.142   3.139
 5219SOL    HW116544   3.531   3.133   3.206
 5219SOL    HW216545   3.406   3.211   3.172
 5220SOL     OW16546   2.918   2.970   2.570
 5220SOL    HW116547   2.846   2.919   2.608
 5220SOL    HW216548   2.981   2.905   2.541
 5221SOL     OW16549   2.883   2.103   2.828
 5221SOL    HW116550   2.878   2.055   2.745
 5221SOL    HW216551   2.880   2.034   2.895
 5222SOL     OW16552   2.466   3.352   2.342
 5222SOL    HW116553   2.512   3.301   2.275
 5222SOL    HW216554   2.397   3.398   2.294
 5223SOL     OW16555   3.586   2.252   3.240
 5223SOL    HW116556   3.658   2.315   3.237
 5223SOL    HW216557   3.615   2.180   3.184
 5224SOL     OW16558   2.122   3.205   2.151
 5224SOL    HW116559   2.029   3.202   2.129
 5224SOL    HW216560   2.124   3.244   2.239
 5225SOL     OW16561   1.974   2.887   3.582
 5225SOL    HW116562   1.898   2.863   3.634
 5225SOL    HW216563   2.048   2.849   3.629
 5226SOL     OW16564   2.547   2.045   3.356
 5226SOL    HW116565   2.634   2.022   3.323
 5226SOL    HW216566   2.563   2.088   3.440
 5227SOL     OW16567   1.881   2.255   1.915
 5227SOL    HW116568   1.819   2.215   1.854
 5227SOL    HW216569   1.930   2.318   1.862
 5228SOL     OW16570   3.288   2.720   3.261
 5228SOL    HW116571   3.239   2.782   3.207
 5228SOL    HW216572   3.377   2.722   3.224
 5229SOL     OW16573   3.040   3.199   1.979
 5229SOL    HW116574   2.949   3.169   1.981
 5229SOL    HW216575   3.067   3.199   2.071
 5230SOL     OW16576   2.484   2.693   3.296
 5230SOL    HW116577   2.540   2.769   3.281
 5230SOL    HW216578   2.545   2.620   3.305
 5231SOL     OW16579   3.347   3.643   2.844
 5231SOL    HW116580   3.371   3.697   2.769
 5231SOL    HW216581   3.431   3.612   2.879
 5232SOL     OW16582   2.574   2.425   3.564
 5232SOL    HW116583   2.620   2.483   3.624
 5232SOL    HW216584   2.595   2.337   3.595
 5233SOL     OW16585   3.335   3.060   3.492
 5233SOL    HW116586   3.324   3.074   3.586
 5233SOL    HW216587   3.428   3.075   3.476
 5234SOL     OW16588   2.237   3.602   3.427
 5234SOL    HW116589   2.152   3.644   3.411
 5234SOL    HW216590   2.215   3.519   3.468
 5235SOL     OW16591   3.527   2.742   3.121
 5235SOL    HW116592   3.525   2.657   3.078
 5235SOL    HW216593   3.520   2.805   3.049
 5236SOL     OW16594   3.078   2.181   2.320
 5236SOL    HW116595   3.141   2.109   2.312
 5236SOL    HW216596   3.108   2.230   2.396
 5237SOL     OW16597   2.450   2.602   2.535
 5237SOL    HW116598   2.493   2.686   2.522
 5237SOL    HW216599   2.382   2.599   2.467
 5238SOL     OW16600   3.620   2.228   3.512
 5238SOL    HW116601   3.604   2.241   3.419
 5238SOL    HW216602   3.550   2.169   3.541
 5239SOL     OW16603   3.618   2.790   3.375
 5239SOL    HW116604   3.609   2.884   3.393
 5239SOL    HW216605   3.594   2.781   3.283
 5240SOL     OW16606   2.725   3.229   1.900
 5240SOL    HW116607   2.685   3.257   1.983
 5240SOL    HW216608   2.741   3.310   1.853
 5241SOL     OW16609   2.522   3.651   2.801
 5241SOL    HW116610   2.501   3.742   2.780
 5241SOL    HW216611   2.618   3.646   2.796
 5242SOL     OW16612   2.730   2.831   2.717
 5242SOL    HW116613   2.780   2.759   2.755
 5242SOL    HW216614   2.694   2.878   2.792
 5243SOL     OW16615   2.940   2.850   1.950
 5243SOL    HW116616   2.919   2.902   1.872
 5243SOL    HW216617   3.015   2.796   1.924
 5244SOL     OW16618   3.712   3.416   2.702
 5244SOL    HW116619   3.633   3.397   2.653
 5244SOL    HW216620   3.715   3.349   2.770
 5245SOL     OW16621   2.088   3.163   3.718
 5245SOL    HW116622   2.020   3.103   3.687
 5245SOL    HW216623   2.069   3.176   3.811
 5246SOL     OW16624   1.948   3.093   2.527
 5246SOL    HW116625   1.957   3.047   2.611
 5246SOL    HW216626   2.015   3.054   2.471
 5247SOL     OW16627   2.545   3.266   3.491
 5247SOL    HW116628   2.465   3.224   3.523
 5247SOL    HW216629   2.542   3.355   3.529
 5248SOL     OW16630   3.675   2.040   3.100
 5248SOL    HW116631   3.666   1.945   3.103
 5248SOL    HW216632   3.689   2.060   3.008
 5249SOL     OW16633   2.329   2.317   2.369
 5249SOL    HW116634   2.351   2.314   2.276
 5249SOL    HW216635   2.251   2.263   2.377
 5250SOL     OW16636   3.558   3.352   2.958
 5250SOL    HW116637   3.479   3.327   2.909
 5250SOL    HW216638   3.570   3.281   3.021
 5251SOL     OW16639   2.200   2.424   3.156
 5251SOL    HW116640   2.250   2.356   3.203
 5251SOL    HW216641   2.226   2.413   3.064
 5252SOL     OW16642   2.690   3.440   2.539
 5252SOL    HW116643   2.673   3.493   2.461
 5252SOL    HW216644   2.616   3.380   2.545
 5253SOL     OW16645   3.293   2.090   2.979
 5253SOL    HW116646   3.313   2.006   3.021
 5253SOL    HW216647   3.243   2.138   3.044
 5254SOL     OW16648   2.872   1.880   3.001
 5254SOL    HW116649   2.817   1.813   2.962
 5254SOL    HW216650   2.960   1.841   3.003
 5255SOL     OW16651   2.635   3.195   2.181
 5255SOL    HW116652   2.605   3.104   2.187
 5255SOL    HW216653   2.717   3.196   2.229
 5256SOL     OW16654   2.482   3.415   3.147
 5256SOL    HW116655   2.482   3.497   3.197
 5256SOL    HW216656   2.570   3.409   3.110
 5257SOL     OW16657   3.217   1.915   2.029
 5257SOL    HW116658   3.247   1.847   1.969
 5257SOL    HW216659   3.128   1.888   2.054
 5258SOL     OW16660   3.158   2.324   2.542
 5258SOL    HW116661   3.105   2.404   2.548
 5258SOL    HW216662   3.154   2.286   2.629
 5259SOL     OW16663   3.444   2.060   2.740
 5259SOL    HW116664   3.388   2.084   2.814
 5259SOL    HW216665   3.445   2.138   2.685
 5260SOL     OW16666   1.905   2.930   2.169
 5260SOL    HW116667   1.999   2.922   2.151
 5260SOL    HW216668   1.878   2.841   2.193
 5261SOL     OW16669   2.748   3.521   2.205
 5261SOL    HW116670   2.677   3.502   2.144
 5261SOL    HW216671   2.717   3.596   2.255
 5262SOL     OW16672   2.093   2.501   3.859
 5262SOL    HW116673   2.009   2.484   3.902
 5262SOL    HW216674   2.077   2.485   3.766
 5263SOL     OW16675   1.870   2.269   4.358
 5263SOL    HW116676   1.780   2.265   4.390
 5263SOL    HW216677   1.881   2.189   4.307
 5264SOL     OW16678   2.429   3.154   4.902
 5264SOL    HW116679   2.342   3.159   4.862
 5264SOL    HW216680   2.445   3.242   4.936
 5265SOL     OW16681   3.425   3.374   4.433
 5265SOL    HW116682   3.383   3.351   4.516
 5265SOL    HW216683   3.354   3.377   4.369
 5266SOL     OW16684   2.991   2.561   4.422
 5266SOL    HW116685   3.041   2.641   4.408
 5266SOL    HW216686   2.945   2.575   4.505
 5267SOL     OW16687   3.629   2.468   3.953
 5267SOL    HW116688   3.609   2.460   3.860
 5267SOL    HW216689   3.594   2.388   3.992
 5268SOL     OW16690   2.613   3.002   4.767
 5268SOL    HW116691   2.545   3.038   4.825
 5268SOL    HW216692   2.650   3.078   4.724
 5269SOL     OW16693   2.733   2.631   5.547
 5269SOL    HW116694   2.711   2.701   5.607
 5269SOL    HW216695   2.757   2.676   5.465
 5270SOL     OW16696   2.547   2.861   4.369
 5270SOL    HW116697   2.613   2.852   4.438
 5270SOL    HW216698   2.479   2.915   4.409
 5271SOL     OW16699   2.579   3.015   5.534
 5271SOL    HW116700   2.624   3.094   5.565
 5271SOL    HW216701   2.496   3.048   5.500
 5272SOL     OW16702   2.193   3.283   4.791
 5272SOL    HW116703   2.119   3.246   4.742
 5272SOL    HW216704   2.240   3.336   4.726
 5273SOL     OW16705   3.321   3.363   5.081
 5273SOL    HW116706   3.375   3.441   5.091
 5273SOL    HW216707   3.255   3.370   5.150
 5274SOL     OW16708   3.472   2.308   4.468
 5274SOL    HW116709   3.399   2.330   4.409
 5274SOL    HW216710   3.484   2.386   4.521
 5275SOL     OW16711   2.083   3.578   4.203
 5275SOL    HW116712   2.114   3.638   4.271
 5275SOL    HW216713   2.155   3.575   4.139
 5276SOL     OW16714   2.999   3.204   5.418
 5276SOL    HW116715   3.040   3.197   5.504
 5276SOL    HW216716   2.946   3.124   5.410
 5277SOL     OW16717   2.091   3.304   4.259
 5277SOL    HW116718   2.074   3.398   4.263
 5277SOL    HW216719   2.033   3.266   4.325
 5278SOL     OW16720   2.123   2.956   4.614
 5278SOL    HW116721   2.119   2.869   4.653
 5278SOL    HW216722   2.065   3.009   4.669
 5279SOL     OW16723   2.470   3.648   5.152
 5279SOL    HW116724   2.389   3.633   5.200
 5279SOL    HW216725   2.496   3.737   5.177
 5280SOL     OW16726   2.445   2.848   3.859
 5280SOL    HW116727   2.493   2.895   3.790
 5280SOL    HW216728   2.484   2.880   3.940
 5281SOL     OW16729   3.457   1.987   5.190
 5281SOL    HW116730   3.470   2.069   5.142
 5281SOL    HW216731   3.442   2.015   5.280
 5282SOL     OW16732   1.985   2.514   4.287
 5282SOL    HW116733   1.950   2.427   4.306
 5282SOL    HW216734   1.971   2.564   4.367
 5283SOL     OW16735   3.700   3.613   4.065
 5283SOL    HW116736   3.771   3.588   4.125
 5283SOL    HW216737   3.719   3.704   4.042
 5284SOL     OW16738   1.892   3.453   3.846
 5284SOL    HW116739   1.876   3.361   3.867
 5284SOL    HW216740   1.871   3.500   3.926
 5285SOL     OW16741   3.550   2.782   4.370
 5285SOL    HW116742   3.633   2.738   4.352
 5285SOL    HW216743   3.531   2.830   4.290
 5286SOL     OW16744   3.503   2.966   4.155
 5286SOL    HW116745   3.588   2.971   4.112
 5286SOL    HW216746   3.510   3.029   4.227
 5287SOL     OW16747   1.979   2.632   5.281
 5287SOL    HW116748   2.069   2.659   5.300
 5287SOL    HW216749   1.927   2.711   5.295
 5288SOL     OW16750   2.477   3.251   4.459
 5288SOL    HW116751   2.432   3.167   4.468
 5288SOL    HW216752   2.460   3.278   4.368
 5289SOL     OW16753   3.149   3.099   5.146
 5289SOL    HW116754   3.181   3.032   5.086
 5289SOL    HW216755   3.208   3.094   5.222
 5290SOL     OW16756   2.687   1.863   4.235
 5290SOL    HW116757   2.726   1.948   4.212
 5290SOL    HW216758   2.593   1.880   4.239
 5291SOL     OW16759   2.052   2.829   4.998
 5291SOL    HW116760   2.137   2.788   4.981
 5291SOL    HW216761   1.989   2.774   4.951
 5292SOL     OW16762   3.390   2.858   3.924
 5292SOL    HW116763   3.321   2.801   3.958
 5292SOL    HW216764   3.432   2.893   4.003
 5293SOL     OW16765   3.081   3.666   5.351
 5293SOL    HW116766   3.056   3.726   5.281
 5293SOL    HW216767   3.081   3.580   5.310
 5294SOL     OW16768   3.327   3.282   4.673
 5294SOL    HW116769   3.261   3.297   4.740
 5294SOL    HW216770   3.316   3.191   4.647
 5295SOL     OW16771   3.509   3.606   4.304
 5295SOL    HW116772   3.501   3.572   4.215
 5295SOL    HW216773   3.492   3.531   4.361
 5296SOL     OW16774   2.467   2.600   3.997
 5296SOL    HW116775   2.470   2.678   3.941
 5296SOL    HW216776   2.401   2.620   4.063
 5297SOL     OW16777   3.139   2.220   4.657
 5297SOL    HW116778   3.051   2.185   4.666
 5297SOL    HW216779   3.192   2.167   4.716
 5298SOL     OW16780   3.436   3.538   4.032
 5298SOL    HW116781   3.528   3.562   4.028
 5298SOL    HW216782   3.412   3.518   3.942
 5299SOL     OW16783   2.657   2.479   5.175
 5299SOL    HW116784   2.632   2.456   5.264
 5299SOL    HW216785   2.610   2.416   5.120
 5300SOL     OW16786   3.257   2.336   5.401
 5300SOL    HW116787   3.260   2.381   5.485
 5300SOL    HW216788   3.314   2.260   5.412
 5301SOL     OW16789   2.814   2.749   5.308
 5301SOL    HW116790   2.870   2.680   5.271
 5301SOL    HW216791   2.767   2.784   5.232
 5302SOL     OW16792   2.860   2.277   4.960
 5302SOL    HW116793   2.776   2.295   5.003
 5302SOL    HW216794   2.836   2.228   4.881
 5303SOL     OW16795   2.914   2.561   4.149
 5303SOL    HW116796   2.931   2.554   4.243
 5303SOL    HW216797   2.831   2.514   4.137
 5304SOL     OW16798   1.949   2.683   4.502
 5304SOL    HW116799   2.032   2.682   4.551
 5304SOL    HW216800   1.903   2.760   4.534
 5305SOL     OW16801   1.983   3.708   5.300
 5305SOL    HW116802   1.986   3.689   5.393
 5305SOL    HW216803   1.890   3.705   5.278
 5306SOL     OW16804   2.759   2.215   3.925
 5306SOL    HW116805   2.803   2.268   3.859
 5306SOL    HW216806   2.730   2.137   3.878
 5307SOL     OW16807   3.573   2.436   5.553
 5307SOL    HW116808   3.534   2.509   5.505
 5307SOL    HW216809   3.596   2.372   5.485
 5308SOL     OW16810   3.239   3.003   4.264
 5308SOL    HW116811   3.319   2.991   4.213
 5308SOL    HW216812   3.187   3.066   4.213
 5309SOL     OW16813   2.442   2.058   4.629
 5309SOL    HW116814   2.351   2.071   4.656
 5309SOL    HW216815   2.467   2.141   4.588
 5310SOL     OW16816   2.865   3.307   4.194
 5310SOL    HW116817   2.829   3.381   4.146
 5310SOL    HW216818   2.845   3.326   4.286
 5311SOL     OW16819   2.213   3.673   4.563
 5311SOL    HW116820   2.263   3.594   4.582
 5311SOL    HW216821   2.272   3.745   4.586
 5312SOL     OW16822   3.667   2.923   4.591
 5312SOL    HW116823   3.614   2.897   4.516
 5312SOL    HW216824   3.605   2.926   4.664
 5313SOL     OW16825   3.089   3.399   5.236
 5313SOL    HW116826   3.076   3.327   5.297
 5313SOL    HW216827   3.022   3.386   5.169
 5314SOL     OW16828   2.181   2.817   3.977
 5314SOL    HW116829   2.261   2.838   3.929
 5314SOL    HW216830   2.149   2.736   3.938
 5315SOL     OW16831   3.341   2.608   4.450
 5315SOL    HW116832   3.336   2.566   4.535
 5315SOL    HW216833   3.420   2.663   4.455
 5316SOL     OW16834   2.332   3.129   5.461
 5316SOL    HW116835   2.304   3.133   5.369
 5316SOL    HW216836   2.250   3.124   5.510
 5317SOL     OW16837   2.976   3.643   3.946
 5317SOL    HW116838   2.912   3.597   4.000
 5317SOL    HW216839   3.006   3.577   3.883
 5318SOL     OW16840   3.486   3.247   3.813
 5318SOL    HW116841   3.443   3.330   3.795
 5318SOL    HW216842   3.420   3.181   3.793
 5319SOL     OW16843   2.329   3.597   4.049
 5319SOL    HW116844   2.367   3.662   4.108
 5319SOL    HW216845   2.402   3.572   3.992
 5320SOL     OW16846   3.263   1.969   4.160
 5320SOL    HW116847   3.255   1.944   4.068
 5320SOL    HW216848   3.357   1.975   4.176
 5321SOL     OW16849   2.122   3.653   4.947
 5321SOL    HW116850   2.169   3.584   4.993
 5321SOL    HW216851   2.107   3.619   4.859
 5322SOL     OW16852   2.800   3.563   4.623
 5322SOL    HW116853   2.877   3.511   4.646
 5322SOL    HW216854   2.756   3.513   4.554
 5323SOL     OW16855   2.254   2.549   4.202
 5323SOL    HW116856   2.266   2.461   4.166
 5323SOL    HW216857   2.162   2.553   4.227
 5324SOL     OW16858   3.395   2.087   5.449
 5324SOL    HW116859   3.404   2.107   5.542
 5324SOL    HW216860   3.326   2.020   5.446
 5325SOL     OW16861   2.535   1.989   3.826
 5325SOL    HW116862   2.578   1.909   3.856
 5325SOL    HW216863   2.466   1.959   3.767
 5326SOL     OW16864   2.622   2.136   5.473
 5326SOL    HW116865   2.701   2.082   5.473
 5326SOL    HW216866   2.595   2.139   5.564
 5327SOL     OW16867   2.738   3.383   4.919
 5327SOL    HW116868   2.721   3.347   4.832
 5327SOL    HW216869   2.808   3.328   4.954
 5328SOL     OW16870   3.202   2.451   5.157
 5328SOL    HW116871   3.233   2.420   5.242
 5328SOL    HW216872   3.239   2.540   5.149
 5329SOL     OW16873   2.679   3.254   4.667
 5329SOL    HW116874   2.763   3.242   4.623
 5329SOL    HW216875   2.615   3.258   4.595
 5330SOL     OW16876   2.789   2.369   4.625
 5330SOL    HW116877   2.765   2.361   4.533
 5330SOL    HW216878   2.823   2.283   4.649
 5331SOL     OW16879   2.422   1.922   4.228
 5331SOL    HW116880   2.364   1.906   4.302
 5331SOL    HW216881   2.404   2.012   4.202
 5332SOL     OW16882   3.290   3.062   3.764
 5332SOL    HW116883   3.320   2.986   3.814
 5332SOL    HW216884   3.204   3.082   3.802
 5333SOL     OW16885   2.803   2.112   4.182
 5333SOL    HW116886   2.780   2.148   4.096
 5333SOL    HW216887   2.898   2.124   4.189
 5334SOL     OW16888   2.944   2.545   5.182
 5334SOL    HW116889   2.877   2.477   5.191
 5334SOL    HW216890   3.027   2.498   5.177
 5335SOL     OW16891   3.083   3.432   4.518
 5335SOL    HW116892   3.099   3.500   4.452
 5335SOL    HW216893   3.153   3.445   4.582
 5336SOL     OW16894   2.333   3.013   4.454
 5336SOL    HW116895   2.264   2.995   4.518
 5336SOL    HW216896   2.291   2.998   4.369
 5337SOL     OW16897   3.128   3.657   4.332
 5337SOL    HW116898   3.174   3.721   4.279
 5337SOL    HW216899   3.055   3.705   4.371
 5338SOL     OW16900   2.887   2.401   3.747
 5338SOL    HW116901   2.843   2.484   3.729
 5338SOL    HW216902   2.951   2.422   3.815
 5339SOL     OW16903   1.937   2.428   5.104
 5339SOL    HW116904   2.031   2.417   5.090
 5339SOL    HW216905   1.931   2.501   5.166
 5340SOL     OW16906   2.725   2.319   4.362
 5340SOL    HW116907   2.689   2.376   4.293
 5340SOL    HW216908   2.752   2.240   4.315
 5341SOL     OW16909   2.875   1.916   4.474
 5341SOL    HW116910   2.819   1.906   4.397
 5341SOL    HW216911   2.854   1.841   4.529
 5342SOL     OW16912   3.301   3.024   4.581
 5342SOL    HW116913   3.231   2.959   4.580
 5342SOL    HW216914   3.327   3.033   4.489
 5343SOL     OW16915   3.327   2.470   4.697
 5343SOL    HW116916   3.275   2.390   4.700
 5343SOL    HW216917   3.386   2.463   4.772
 5344SOL     OW16918   3.723   2.678   4.099
 5344SOL    HW116919   3.767   2.623   4.163
 5344SOL    HW216920   3.686   2.617   4.035
 5345SOL     OW16921   2.352   3.281   3.878
 5345SOL    HW116922   2.277   3.253   3.930
 5345SOL    HW216923   2.340   3.237   3.793
 5346SOL     OW16924   3.529   3.127   4.368
 5346SOL    HW116925   3.624   3.129   4.377
 5346SOL    HW216926   3.501   3.216   4.389
 5347SOL     OW16927   3.256   2.434   3.796
 5347SOL    HW116928   3.194   2.414   3.865
 5347SOL    HW216929   3.340   2.401   3.828
 5348SOL     OW16930   3.613   3.097   5.290
 5348SOL    HW116931   3.700   3.061   5.272
 5348SOL    HW216932   3.629   3.186   5.319
 5349SOL     OW16933   2.919   3.214   5.056
 5349SOL    HW116934   2.844   3.184   5.107
 5349SOL    HW216935   2.995   3.173   5.098
 5350SOL     OW16936   3.469   3.491   5.381
 5350SOL    HW116937   3.459   3.524   5.291
 5350SOL    HW216938   3.550   3.440   5.379
 5351SOL     OW16939   2.993   3.068   4.827
 5351SOL    HW116940   2.934   3.106   4.892
 5351SOL    HW216941   2.962   3.102   4.744
 5352SOL     OW16942   3.490   2.958   4.799
 5352SOL    HW116943   3.482   3.019   4.872
 5352SOL    HW216944   3.413   2.974   4.745
 5353SOL     OW16945   2.789   1.954   5.118
 5353SOL    HW116946   2.810   1.936   5.027
 5353SOL    HW216947   2.868   1.994   5.154
 5354SOL     OW16948   2.846   2.977   5.447
 5354SOL    HW116949   2.755   2.993   5.470
 5354SOL    HW216950   2.844   2.898   5.392
 5355SOL     OW16951   2.571   2.924   4.095
 5355SOL    HW116952   2.557   2.905   4.188
 5355SOL    HW216953   2.646   2.870   4.071
 5356SOL     OW16954   2.282   2.681   4.978
 5356SOL    HW116955   2.352   2.692   5.043
 5356SOL    HW216956   2.246   2.594   4.996
 5357SOL     OW16957   3.129   2.239   5.002
 5357SOL    HW116958   3.161   2.316   5.048
 5357SOL    HW216959   3.039   2.260   4.979
 5358SOL     OW16960   1.934   3.435   5.077
 5358SOL    HW116961   1.907   3.510   5.025
 5358SOL    HW216962   2.030   3.437   5.073
 5359SOL     OW16963   2.206   2.974   4.213
 5359SOL    HW116964   2.211   3.049   4.153
 5359SOL    HW216965   2.203   2.898   4.156
 5360SOL     OW16966   2.431   2.391   4.569
 5360SOL    HW116967   2.442   2.455   4.499
 5360SOL    HW216968   2.495   2.417   4.636
 5361SOL     OW16969   3.109   3.211   4.113
 5361SOL    HW116970   3.165   3.282   4.145
 5361SOL    HW216971   3.022   3.232   4.147
 5362SOL     OW16972   3.146   3.322   4.872
 5362SOL    HW116973   3.203   3.326   4.949
 5362SOL    HW216974   3.091   3.245   4.886
 5363SOL     OW16975   3.440   2.482   4.206
 5363SOL    HW116976   3.392   2.535   4.270
 5363SOL    HW216977   3.483   2.546   4.149
 5364SOL     OW16978   2.207   3.391   5.036
 5364SOL    HW116979   2.196   3.347   4.952
 5364SOL    HW216980   2.302   3.402   5.044
 5365SOL     OW16981   2.282   2.604   5.329
 5365SOL    HW116982   2.341   2.648   5.268
 5365SOL    HW216983   2.334   2.534   5.367
 5366SOL     OW16984   3.467   2.641   5.407
 5366SOL    HW116985   3.381   2.683   5.402
 5366SOL    HW216986   3.519   2.684   5.340
 5367SOL     OW16987   2.858   1.989   5.473
 5367SOL    HW116988   2.916   2.062   5.452
 5367SOL    HW216989   2.908   1.911   5.450
 5368SOL     OW16990   2.364   1.888   5.491
 5368SOL    HW116991   2.315   1.841   5.423
 5368SOL    HW216992   2.300   1.947   5.530
 5369SOL     OW16993   2.447   2.734   4.757
 5369SOL    HW116994   2.480   2.824   4.756
 5369SOL    HW216995   2.390   2.730   4.834
 5370SOL     OW16996   3.216   2.721   4.750
 5370SOL    HW116997   3.132   2.708   4.706
 5370SOL    HW216998   3.260   2.636   4.743
 5371SOL     OW16999   3.064   2.390   3.988
 5371SOL    HW117000   3.072   2.311   4.042
 5371SOL    HW217001   3.022   2.454   4.045
 5372SOL     OW17002   1.907   3.173   4.999
 5372SOL    HW117003   1.941   3.119   5.070
 5372SOL    HW217004   1.914   3.263   5.032
 5373SOL     OW17005   2.582   2.486   4.778
 5373SOL    HW117006   2.663   2.475   4.727
 5373SOL    HW217007   2.557   2.577   4.762
 5374SOL     OW17008   3.593   2.822   5.585
 5374SOL    HW117009   3.552   2.757   5.528
 5374SOL    HW217010   3.529   2.835   5.655
 5375SOL     OW17011   3.482   2.238   4.088
 5375SOL    HW117012   3.508   2.173   4.153
 5375SOL    HW217013   3.458   2.315   4.140
 5376SOL     OW17014   2.889   2.620   4.683
 5376SOL    HW117015   2.884   2.637   4.777
 5376SOL    HW217016   2.865   2.528   4.674
 5377SOL     OW17017   2.847   3.430   5.444
 5377SOL    HW117018   2.829   3.471   5.360
 5377SOL    HW217019   2.889   3.347   5.422
 5378SOL     OW17020   3.705   3.361   5.322
 5378SOL    HW117021   3.729   3.390   5.234
 5378SOL    HW217022   3.785   3.371   5.373
 5379SOL     OW17023   2.213   2.784   5.528
 5379SOL    HW117024   2.291   2.800   5.581
 5379SOL    HW217025   2.240   2.717   5.466
 5380SOL     OW17026   3.391   2.134   3.851
 5380SOL    HW117027   3.326   2.069   3.877
 5380SOL    HW217028   3.424   2.170   3.934
 5381SOL     OW17029   3.151   2.687   3.754
 5381SOL    HW117030   3.194   2.602   3.758
 5381SOL    HW217031   3.183   2.726   3.673
 5382SOL     OW17032   2.929   3.199   4.579
 5382SOL    HW117033   2.933   3.126   4.516
 5382SOL    HW217034   2.989   3.264   4.544
 5383SOL     OW17035   2.172   2.683   4.669
 5383SOL    HW117036   2.264   2.709   4.665
 5383SOL    HW217037   2.174   2.591   4.694
 5384SOL     OW17038   2.212   2.418   4.717
 5384SOL    HW117039   2.175   2.333   4.695
 5384SOL    HW217040   2.293   2.424   4.665
 5385SOL     OW17041   2.997   2.237   5.404
 5385SOL    HW117042   2.949   2.292   5.467
 5385SOL    HW217043   3.085   2.276   5.402
 5386SOL     OW17044   3.026   2.063   5.194
 5386SOL    HW117045   3.014   2.125   5.265
 5386SOL    HW217046   3.068   2.115   5.125
 5387SOL     OW17047   1.867   3.180   3.919
 5387SOL    HW117048   1.780   3.196   3.882
 5387SOL    HW217049   1.863   3.091   3.953
 5388SOL     OW17050   1.959   3.641   4.662
 5388SOL    HW117051   1.928   3.562   4.617
 5388SOL    HW217052   2.044   3.659   4.622
 5389SOL     OW17053   2.356   3.438   4.629
 5389SOL    HW117054   2.423   3.501   4.654
 5389SOL    HW217055   2.401   3.375   4.572
 5390SOL     OW17056   2.840   2.651   4.949
 5390SOL    HW117057   2.901   2.630   5.020
 5390SOL    HW217058   2.756   2.617   4.980
 5391SOL     OW17059   1.895   2.400   4.837
 5391SOL    HW117060   1.973   2.428   4.790
 5391SOL    HW217061   1.917   2.414   4.930
 5392SOL     OW17062   2.012   2.418   5.438
 5392SOL    HW117063   2.080   2.388   5.378
 5392SOL    HW217064   1.975   2.495   5.394
 5393SOL     OW17065   3.241   2.799   5.382
 5393SOL    HW117066   3.262   2.892   5.379
 5393SOL    HW217067   3.237   2.772   5.291
 5394SOL     OW17068   2.678   2.432   4.093
 5394SOL    HW117069   2.686   2.359   4.031
 5394SOL    HW217070   2.607   2.485   4.057
 5395SOL     OW17071   3.502   2.464   4.908
 5395SOL    HW117072   3.491   2.403   4.981
 5395SOL    HW217073   3.588   2.443   4.872
 5396SOL     OW17074   2.104   3.411   5.448
 5396SOL    HW117075   2.082   3.477   5.514
 5396SOL    HW217076   2.109   3.329   5.497
 5397SOL     OW17077   2.541   2.322   4.990
 5397SOL    HW117078   2.521   2.234   4.957
 5397SOL    HW217079   2.548   2.376   4.911
 5398SOL     OW17080   2.789   3.534   5.193
 5398SOL    HW117081   2.763   3.496   5.109
 5398SOL    HW217082   2.781   3.628   5.180
 5399SOL     OW17083   2.337   2.374   3.935
 5399SOL    HW117084   2.395   2.449   3.945
 5399SOL    HW217085   2.255   2.411   3.903
 5400SOL     OW17086   2.007   3.005   5.197
 5400SOL    HW117087   2.008   2.955   5.278
 5400SOL    HW217088   2.024   2.940   5.129
 5401SOL     OW17089   3.184   2.907   4.946
 5401SOL    HW117090   3.207   2.844   4.878
 5401SOL    HW217091   3.116   2.961   4.906
 5402SOL     OW17092   3.174   2.719   4.029
 5402SOL    HW117093   3.100   2.687   4.080
 5402SOL    HW217094   3.149   2.704   3.938
 5403SOL     OW17095   3.639   3.603   4.879
 5403SOL    HW117096   3.697   3.629   4.807
 5403SOL    HW217097   3.612   3.514   4.856
 5404SOL     OW17098   3.106   3.595   4.833
 5404SOL    HW117099   3.189   3.616   4.790
 5404SOL    HW217100   3.112   3.502   4.853
 5405SOL     OW17101   1.947   3.128   4.735
 5405SOL    HW117102   1.931   3.143   4.829
 5405SOL    HW217103   1.873   3.074   4.707
 5406SOL     OW17104   2.541   3.527   5.457
 5406SOL    HW117105   2.484   3.604   5.461
 5406SOL    HW217106   2.602   3.546   5.385
 5407SOL     OW17107   3.572   2.012   4.236
 5407SOL    HW117108   3.640   2.000   4.170
 5407SOL    HW217109   3.561   1.926   4.275
 5408SOL     OW17110   3.252   3.430   4.211
 5408SOL    HW117111   3.311   3.464   4.144
 5408SOL    HW217112   3.204   3.508   4.242
 5409SOL     OW17113   1.998   3.655   5.561
 5409SOL    HW117114   1.945   3.591   5.610
 5409SOL    HW217115   2.046   3.702   5.629
 5410SOL     OW17116   3.139   2.788   4.395
 5410SOL    HW117117   3.213   2.728   4.404
 5410SOL    HW217118   3.173   2.860   4.342
 5411SOL     OW17119   2.672   3.136   5.151
 5411SOL    HW117120   2.645   3.176   5.234
 5411SOL    HW217121   2.603   3.159   5.090
 5412SOL     OW17122   2.537   3.479   3.882
 5412SOL    HW117123   2.546   3.497   3.788
 5412SOL    HW217124   2.478   3.404   3.886
 5413SOL     OW17125   3.481   3.589   5.114
 5413SOL    HW117126   3.537   3.592   5.036
 5413SOL    HW217127   3.469   3.680   5.138
 5414SOL     OW17128   3.700   2.043   4.691
 5414SOL    HW117129   3.731   1.956   4.666
 5414SOL    HW217130   3.614   2.051   4.650
 5415SOL     OW17131   3.069   3.466   3.760
 5415SOL    HW117132   3.059   3.374   3.784
 5415SOL    HW217133   3.008   3.479   3.687
 5416SOL     OW17134   2.686   2.868   5.096
 5416SOL    HW117135   2.731   2.865   5.012
 5416SOL    HW217136   2.684   2.962   5.118
 5417SOL     OW17137   2.779   2.773   4.015
 5417SOL    HW117138   2.839   2.805   3.948
 5417SOL    HW217139   2.827   2.704   4.060
 5418SOL     OW17140   3.350   3.494   3.766
 5418SOL    HW117141   3.256   3.481   3.750
 5418SOL    HW217142   3.389   3.498   3.679
 5419SOL     OW17143   2.231   3.166   5.215
 5419SOL    HW117144   2.217   3.243   5.160
 5419SOL    HW217145   2.154   3.112   5.200
 5420SOL     OW17146   3.463   3.142   5.002
 5420SOL    HW117147   3.531   3.133   5.068
 5420SOL    HW217148   3.406   3.211   5.034
 5421SOL     OW17149   2.918   2.970   4.432
 5421SOL    HW117150   2.846   2.919   4.470
 5421SOL    HW217151   2.981   2.905   4.403
 5422SOL     OW17152   2.883   2.103   4.690
 5422SOL    HW117153   2.879   2.055   4.607
 5422SOL    HW217154   2.880   2.034   4.756
 5423SOL     OW17155   2.466   3.352   4.204
 5423SOL    HW117156   2.512   3.302   4.137
 5423SOL    HW217157   2.397   3.398   4.156
 5424SOL     OW17158   3.586   2.252   5.102
 5424SOL    HW117159   3.658   2.315   5.099
 5424SOL    HW217160   3.615   2.179   5.046
 5425SOL     OW17161   2.122   3.205   4.014
 5425SOL    HW117162   2.029   3.202   3.991
 5425SOL    HW217163   2.124   3.244   4.101
 5426SOL     OW17164   1.973   2.889   5.444
 5426SOL    HW117165   1.899   2.863   5.497
 5426SOL    HW217166   2.049   2.851   5.488
 5427SOL     OW17167   2.548   2.045   5.214
 5427SOL    HW117168   2.636   2.022   5.184
 5427SOL    HW217169   2.561   2.082   5.301
 5428SOL     OW17170   1.882   2.252   3.769
 5428SOL    HW117171   1.822   2.216   3.703
 5428SOL    HW217172   1.932   2.319   3.721
 5429SOL     OW17173   3.289   2.721   5.123
 5429SOL    HW117174   3.239   2.782   5.069
 5429SOL    HW217175   3.377   2.722   5.086
 5430SOL     OW17176   3.040   3.199   3.841
 5430SOL    HW117177   2.949   3.169   3.843
 5430SOL    HW217178   3.067   3.199   3.933
 5431SOL     OW17179   2.483   2.692   5.158
 5431SOL    HW117180   2.539   2.769   5.144
 5431SOL    HW217181   2.545   2.619   5.167
 5432SOL     OW17182   3.347   3.643   4.706
 5432SOL    HW117183   3.371   3.697   4.631
 5432SOL    HW217184   3.431   3.612   4.741
 5433SOL     OW17185   2.576   2.424   5.426
 5433SOL    HW117186   2.620   2.482   5.488
 5433SOL    HW217187   2.595   2.336   5.457
 5434SOL     OW17188   3.335   3.060   5.354
 5434SOL    HW117189   3.324   3.074   5.448
 5434SOL    HW217190   3.428   3.075   5.338
 5435SOL     OW17191   2.237   3.602   5.289
 5435SOL    HW117192   2.153   3.644   5.273
 5435SOL    HW217193   2.215   3.519   5.330
 5436SOL     OW17194   3.527   2.742   4.983
 5436SOL    HW117195   3.525   2.657   4.940
 5436SOL    HW217196   3.520   2.805   4.911
 5437SOL     OW17197   3.079   2.181   4.182
 5437SOL    HW117198   3.141   2.109   4.174
 5437SOL    HW217199   3.109   2.230   4.258
 5438SOL     OW17200   2.449   2.598   4.393
 5438SOL    HW117201   2.489   2.684   4.378
 5438SOL    HW217202   2.382   2.591   4.325
 5439SOL     OW17203   3.620   2.228   5.374
 5439SOL    HW117204   3.604   2.241   5.281
 5439SOL    HW217205   3.550   2.169   5.403
 5440SOL     OW17206   3.618   2.790   5.237
 5440SOL    HW117207   3.609   2.884   5.255
 5440SOL    HW217208   3.594   2.781   5.145
 5441SOL     OW17209   2.725   3.229   3.763
 5441SOL    HW117210   2.685   3.257   3.845
 5441SOL    HW217211   2.741   3.310   3.714
 5442SOL     OW17212   2.522   3.651   4.663
 5442SOL    HW117213   2.502   3.742   4.642
 5442SOL    HW217214   2.618   3.646   4.658
 5443SOL     OW17215   2.730   2.830   4.578
 5443SOL    HW117216   2.781   2.759   4.617
 5443SOL    HW217217   2.694   2.878   4.654
 5444SOL     OW17218   2.940   2.850   3.812
 5444SOL    HW117219   2.919   2.902   3.734
 5444SOL    HW217220   3.014   2.796   3.786
 5445SOL     OW17221   3.712   3.417   4.564
 5445SOL    HW117222   3.633   3.397   4.515
 5445SOL    HW217223   3.715   3.349   4.632
 5446SOL     OW17224   2.089   3.163   5.578
 5446SOL    HW117225   2.022   3.102   5.548
 5446SOL    HW217226   2.070   3.174   5.672
 5447SOL     OW17227   1.948   3.093   4.389
 5447SOL    HW117228   1.956   3.047   4.473
 5447SOL    HW217229   2.015   3.054   4.334
 5448SOL     OW17230   2.545   3.268   5.353
 5448SOL    HW117231   2.466   3.225   5.385
 5448SOL    HW217232   2.542   3.356   5.391
 5449SOL     OW17233   3.675   2.040   4.962
 5449SOL    HW117234   3.666   1.945   4.965
 5449SOL    HW217235   3.689   2.060   4.870
 5450SOL     OW17236   3.558   3.352   4.820
 5450SOL    HW117237   3.479   3.328   4.771
 5450SOL    HW217238   3.570   3.281   4.883
 5451SOL     OW17239   2.198   2.421   5.013
 5451SOL    HW117240   2.241   2.350   5.060
 5451SOL    HW217241   2.226   2.410   4.923
 5452SOL     OW17242   2.690   3.440   4.401
 5452SOL    HW117243   2.673   3.493   4.322
 5452SOL    HW217244   2.616   3.381   4.407
 5453SOL     OW17245   3.293   2.090   4.841
 5453SOL    HW117246   3.313   2.006   4.883
 5453SOL    HW217247   3.243   2.138   4.906
 5454SOL     OW17248   2.873   1.881   4.862
 5454SOL    HW117249   2.817   1.814   4.824
 5454SOL    HW217250   2.960   1.841   4.864
 5455SOL     OW17251   2.635   3.195   4.043
 5455SOL    HW117252   2.605   3.104   4.049
 5455SOL    HW217253   2.717   3.196   4.091
 5456SOL     OW17254   2.482   3.415   5.009
 5456SOL    HW117255   2.483   3.497   5.059
 5456SOL    HW217256   2.570   3.409   4.972
 5457SOL     OW17257   3.217   1.915   3.891
 5457SOL    HW117258   3.247   1.847   3.831
 5457SOL    HW217259   3.128   1.888   3.916
 5458SOL     OW17260   3.158   2.324   4.404
 5458SOL    HW117261   3.105   2.404   4.410
 5458SOL    HW217262   3.154   2.286   4.491
 5459SOL     OW17263   3.444   2.060   4.602
 5459SOL    HW117264   3.388   2.084   4.676
 5459SOL    HW217265   3.445   2.138   4.547
 5460SOL     OW17266   1.905   2.930   4.032
 5460SOL    HW117267   1.998   2.923   4.014
 5460SOL    HW217268   1.878   2.841   4.054
 5461SOL     OW17269   2.748   3.521   4.067
 5461SOL    HW117270   2.677   3.502   4.006
 5461SOL    HW217271   2.717   3.596   4.117
 5462SOL     OW17272   2.106   2.487   5.680
 5462SOL    HW117273   2.034   2.452   5.733
 5462SOL    HW217274   2.081   2.468   5.590
 5463SOL     OW17275   1.830   2.217   6.213
 5463SOL    HW117276   1.815   2.308   6.187
 5463SOL    HW217277   1.880   2.180   6.141
 5464SOL     OW17278   2.436   3.151   6.759
 5464SOL    HW117279   2.349   3.153   6.719
 5464SOL    HW217280   2.448   3.240   6.793
 5465SOL     OW17281   3.425   3.374   6.295
 5465SOL    HW117282   3.383   3.351   6.378
 5465SOL    HW217283   3.353   3.377   6.232
 5466SOL     OW17284   2.988   2.565   6.282
 5466SOL    HW117285   3.040   2.643   6.266
 5466SOL    HW217286   2.954   2.576   6.370
 5467SOL     OW17287   3.627   2.468   5.816
 5467SOL    HW117288   3.608   2.461   5.722
 5467SOL    HW217289   3.594   2.386   5.854
 5468SOL     OW17290   2.661   3.023   6.648
 5468SOL    HW117291   2.579   3.038   6.696
 5468SOL    HW217292   2.676   3.105   6.601
 5469SOL     OW17293   2.759   2.664   7.420
 5469SOL    HW117294   2.724   2.737   7.470
 5469SOL    HW217295   2.777   2.701   7.333
 5470SOL     OW17296   2.559   2.874   6.224
 5470SOL    HW117297   2.618   2.857   6.298
 5470SOL    HW217298   2.483   2.915   6.264
 5471SOL     OW17299   2.589   3.013   7.381
 5471SOL    HW117300   2.627   3.093   7.418
 5471SOL    HW217301   2.498   3.035   7.364
 5472SOL     OW17302   2.194   3.285   6.654
 5472SOL    HW117303   2.119   3.248   6.607
 5472SOL    HW217304   2.241   3.337   6.588
 5473SOL     OW17305   3.321   3.363   6.943
 5473SOL    HW117306   3.374   3.441   6.954
 5473SOL    HW217307   3.255   3.369   7.012
 5474SOL     OW17308   3.472   2.308   6.331
 5474SOL    HW117309   3.404   2.332   6.268
 5474SOL    HW217310   3.488   2.388   6.381
 5475SOL     OW17311   2.084   3.577   6.065
 5475SOL    HW117312   2.114   3.637   6.132
 5475SOL    HW217313   2.156   3.575   6.001
 5476SOL     OW17314   2.999   3.205   7.281
 5476SOL    HW117315   3.040   3.199   7.367
 5476SOL    HW217316   2.947   3.125   7.273
 5477SOL     OW17317   2.090   3.303   6.121
 5477SOL    HW117318   2.076   3.397   6.124
 5477SOL    HW217319   2.030   3.268   6.187
 5478SOL     OW17320   2.122   2.965   6.469
 5478SOL    HW117321   2.101   2.874   6.487
 5478SOL    HW217322   2.070   3.015   6.533
 5479SOL     OW17323   2.470   3.649   7.013
 5479SOL    HW117324   2.389   3.634   7.062
 5479SOL    HW217325   2.496   3.737   7.039
 5480SOL     OW17326   2.440   2.854   5.710
 5480SOL    HW117327   2.493   2.902   5.647
 5480SOL    HW217328   2.486   2.866   5.793
 5481SOL     OW17329   3.460   1.987   7.052
 5481SOL    HW117330   3.470   2.070   7.006
 5481SOL    HW217331   3.442   2.012   7.143
 5482SOL     OW17332   3.700   3.613   5.927
 5482SOL    HW117333   3.771   3.588   5.987
 5482SOL    HW217334   3.719   3.704   5.904
 5483SOL     OW17335   1.891   3.460   5.706
 5483SOL    HW117336   1.879   3.367   5.726
 5483SOL    HW217337   1.870   3.505   5.788
 5484SOL     OW17338   3.549   2.780   6.231
 5484SOL    HW117339   3.633   2.738   6.214
 5484SOL    HW217340   3.530   2.830   6.152
 5485SOL     OW17341   3.504   2.966   6.018
 5485SOL    HW117342   3.589   2.971   5.974
 5485SOL    HW217343   3.510   3.029   6.089
 5486SOL     OW17344   2.478   3.253   6.319
 5486SOL    HW117345   2.433   3.169   6.327
 5486SOL    HW217346   2.462   3.281   6.229
 5487SOL     OW17347   3.150   3.100   7.008
 5487SOL    HW117348   3.181   3.032   6.948
 5487SOL    HW217349   3.208   3.094   7.084
 5488SOL     OW17350   2.063   2.844   6.833
 5488SOL    HW117351   2.148   2.801   6.833
 5488SOL    HW217352   2.002   2.776   6.802
 5489SOL     OW17353   3.390   2.858   5.786
 5489SOL    HW117354   3.322   2.801   5.819
 5489SOL    HW217355   3.433   2.893   5.865
 5490SOL     OW17356   3.081   3.666   7.213
 5490SOL    HW117357   3.056   3.726   7.142
 5490SOL    HW217358   3.081   3.579   7.172
 5491SOL     OW17359   3.327   3.282   6.535
 5491SOL    HW117360   3.261   3.297   6.602
 5491SOL    HW217361   3.316   3.191   6.510
 5492SOL     OW17362   3.509   3.606   6.166
 5492SOL    HW117363   3.501   3.572   6.077
 5492SOL    HW217364   3.492   3.531   6.223
 5493SOL     OW17365   3.141   2.214   6.525
 5493SOL    HW117366   3.062   2.160   6.520
 5493SOL    HW217367   3.199   2.166   6.585
 5494SOL     OW17368   3.436   3.539   5.894
 5494SOL    HW117369   3.528   3.563   5.890
 5494SOL    HW217370   3.412   3.519   5.804
 5495SOL     OW17371   3.267   2.342   7.262
 5495SOL    HW117372   3.265   2.385   7.348
 5495SOL    HW217373   3.319   2.263   7.276
 5496SOL     OW17374   2.835   2.757   7.159
 5496SOL    HW117375   2.880   2.681   7.124
 5496SOL    HW217376   2.780   2.788   7.087
 5497SOL     OW17377   2.929   2.561   6.011
 5497SOL    HW117378   2.951   2.562   6.104
 5497SOL    HW217379   2.855   2.500   6.004
 5498SOL     OW17380   1.982   3.705   7.162
 5498SOL    HW117381   1.985   3.686   7.255
 5498SOL    HW217382   1.889   3.709   7.141
 5499SOL     OW17383   2.735   2.216   5.732
 5499SOL    HW117384   2.792   2.280   5.689
 5499SOL    HW217385   2.792   2.141   5.748
 5500SOL     OW17386   3.576   2.437   7.414
 5500SOL    HW117387   3.535   2.509   7.367
 5500SOL    HW217388   3.596   2.372   7.347
 5501SOL     OW17389   3.239   3.004   6.127
 5501SOL    HW117390   3.319   2.992   6.075
 5501SOL    HW217391   3.187   3.066   6.076
 5502SOL     OW17392   2.866   3.307   6.056
 5502SOL    HW117393   2.829   3.381   6.008
 5502SOL    HW217394   2.845   3.326   6.148
 5503SOL     OW17395   2.213   3.673   6.426
 5503SOL    HW117396   2.263   3.593   6.444
 5503SOL    HW217397   2.273   3.744   6.448
 5504SOL     OW17398   3.667   2.922   6.453
 5504SOL    HW117399   3.613   2.898   6.378
 5504SOL    HW217400   3.605   2.926   6.527
 5505SOL     OW17401   3.088   3.399   7.098
 5505SOL    HW117402   3.076   3.328   7.160
 5505SOL    HW217403   3.023   3.384   7.030
 5506SOL     OW17404   2.197   2.829   5.832
 5506SOL    HW117405   2.281   2.849   5.792
 5506SOL    HW217406   2.169   2.746   5.793
 5507SOL     OW17407   3.341   2.607   6.313
 5507SOL    HW117408   3.336   2.568   6.400
 5507SOL    HW217409   3.419   2.663   6.316
 5508SOL     OW17410   2.331   3.130   7.329
 5508SOL    HW117411   2.306   3.138   7.237
 5508SOL    HW217412   2.247   3.127   7.376
 5509SOL     OW17413   2.976   3.643   5.808
 5509SOL    HW117414   2.912   3.597   5.862
 5509SOL    HW217415   3.006   3.577   5.745
 5510SOL     OW17416   3.486   3.247   5.675
 5510SOL    HW117417   3.443   3.331   5.657
 5510SOL    HW217418   3.420   3.181   5.655
 5511SOL     OW17419   2.329   3.597   5.911
 5511SOL    HW117420   2.367   3.662   5.970
 5511SOL    HW217421   2.401   3.572   5.854
 5512SOL     OW17422   3.266   1.967   6.023
 5512SOL    HW117423   3.256   1.944   5.931
 5512SOL    HW217424   3.360   1.974   6.036
 5513SOL     OW17425   2.121   3.653   6.810
 5513SOL    HW117426   2.171   3.584   6.855
 5513SOL    HW217427   2.108   3.618   6.721
 5514SOL     OW17428   2.800   3.564   6.485
 5514SOL    HW117429   2.875   3.511   6.509
 5514SOL    HW217430   2.756   3.514   6.416
 5515SOL     OW17431   3.394   2.086   7.310
 5515SOL    HW117432   3.403   2.106   7.403
 5515SOL    HW217433   3.322   2.023   7.306
 5516SOL     OW17434   2.495   1.981   5.716
 5516SOL    HW117435   2.579   1.934   5.717
 5516SOL    HW217436   2.453   1.952   5.635
 5517SOL     OW17437   2.738   3.384   6.782
 5517SOL    HW117438   2.723   3.350   6.694
 5517SOL    HW217439   2.807   3.328   6.818
 5518SOL     OW17440   3.199   2.457   7.021
 5518SOL    HW117441   3.232   2.424   7.105
 5518SOL    HW217442   3.239   2.544   7.012
 5519SOL     OW17443   2.680   3.265   6.525
 5519SOL    HW117444   2.763   3.250   6.481
 5519SOL    HW217445   2.614   3.262   6.455
 5520SOL     OW17446   2.844   2.395   6.499
 5520SOL    HW117447   2.810   2.378   6.411
 5520SOL    HW217448   2.802   2.328   6.553
 5521SOL     OW17449   2.415   1.897   6.077
 5521SOL    HW117450   2.394   1.913   6.169
 5521SOL    HW217451   2.437   1.984   6.043
 5522SOL     OW17452   3.290   3.062   5.626
 5522SOL    HW117453   3.320   2.986   5.676
 5522SOL    HW217454   3.204   3.082   5.663
 5523SOL     OW17455   2.930   2.518   7.044
 5523SOL    HW117456   2.897   2.447   7.099
 5523SOL    HW217457   3.024   2.501   7.037
 5524SOL     OW17458   3.084   3.432   6.379
 5524SOL    HW117459   3.100   3.500   6.314
 5524SOL    HW217460   3.153   3.445   6.444
 5525SOL     OW17461   2.333   3.018   6.308
 5525SOL    HW117462   2.268   2.997   6.375
 5525SOL    HW217463   2.289   2.998   6.225
 5526SOL     OW17464   3.128   3.657   6.194
 5526SOL    HW117465   3.174   3.721   6.141
 5526SOL    HW217466   3.055   3.705   6.233
 5527SOL     OW17467   2.895   2.406   5.602
 5527SOL    HW117468   2.847   2.488   5.588
 5527SOL    HW217469   2.956   2.426   5.673
 5528SOL     OW17470   3.301   3.024   6.443
 5528SOL    HW117471   3.231   2.959   6.445
 5528SOL    HW217472   3.324   3.032   6.351
 5529SOL     OW17473   3.326   2.472   6.561
 5529SOL    HW117474   3.278   2.389   6.563
 5529SOL    HW217475   3.386   2.466   6.635
 5530SOL     OW17476   3.724   2.678   5.961
 5530SOL    HW117477   3.767   2.623   6.025
 5530SOL    HW217478   3.686   2.617   5.897
 5531SOL     OW17479   2.352   3.281   5.739
 5531SOL    HW117480   2.276   3.253   5.791
 5531SOL    HW217481   2.342   3.235   5.656
 5532SOL     OW17482   3.529   3.127   6.229
 5532SOL    HW117483   3.625   3.130   6.239
 5532SOL    HW217484   3.501   3.216   6.251
 5533SOL     OW17485   3.259   2.435   5.655
 5533SOL    HW117486   3.195   2.413   5.723
 5533SOL    HW217487   3.342   2.400   5.689
 5534SOL     OW17488   3.613   3.097   7.151
 5534SOL    HW117489   3.700   3.061   7.134
 5534SOL    HW217490   3.629   3.186   7.181
 5535SOL     OW17491   2.918   3.218   6.923
 5535SOL    HW117492   2.843   3.183   6.971
 5535SOL    HW217493   2.994   3.175   6.961
 5536SOL     OW17494   3.469   3.492   7.243
 5536SOL    HW117495   3.459   3.524   7.154
 5536SOL    HW217496   3.550   3.440   7.241
 5537SOL     OW17497   2.997   3.072   6.689
 5537SOL    HW117498   2.930   3.097   6.753
 5537SOL    HW217499   2.961   3.100   6.605
 5538SOL     OW17500   3.491   2.958   6.661
 5538SOL    HW117501   3.482   3.019   6.734
 5538SOL    HW217502   3.413   2.974   6.607
 5539SOL     OW17503   2.807   1.914   6.966
 5539SOL    HW117504   2.827   1.923   6.872
 5539SOL    HW217505   2.872   1.967   7.010
 5540SOL     OW17506   2.852   2.977   7.312
 5540SOL    HW117507   2.759   2.991   7.330
 5540SOL    HW217508   2.854   2.903   7.252
 5541SOL     OW17509   2.574   2.922   5.951
 5541SOL    HW117510   2.561   2.907   6.045
 5541SOL    HW217511   2.650   2.868   5.929
 5542SOL     OW17512   2.296   2.692   6.860
 5542SOL    HW117513   2.379   2.731   6.887
 5542SOL    HW217514   2.292   2.608   6.906
 5543SOL     OW17515   3.131   2.242   6.866
 5543SOL    HW117516   3.162   2.314   6.921
 5543SOL    HW217517   3.064   2.282   6.811
 5544SOL     OW17518   1.935   3.434   6.937
 5544SOL    HW117519   1.908   3.511   6.887
 5544SOL    HW217520   2.031   3.437   6.934
 5545SOL     OW17521   2.199   2.973   6.070
 5545SOL    HW117522   2.211   3.054   6.020
 5545SOL    HW217523   2.209   2.903   6.005
 5546SOL     OW17524   3.110   3.211   5.976
 5546SOL    HW117525   3.166   3.282   6.007
 5546SOL    HW217526   3.023   3.232   6.009
 5547SOL     OW17527   3.145   3.322   6.733
 5547SOL    HW117528   3.200   3.323   6.811
 5547SOL    HW217529   3.090   3.244   6.743
 5548SOL     OW17530   3.440   2.481   6.071
 5548SOL    HW117531   3.394   2.537   6.133
 5548SOL    HW217532   3.483   2.542   6.010
 5549SOL     OW17533   2.209   3.390   6.899
 5549SOL    HW117534   2.197   3.347   6.815
 5549SOL    HW217535   2.304   3.402   6.907
 5550SOL     OW17536   3.468   2.641   7.270
 5550SOL    HW117537   3.382   2.683   7.265
 5550SOL    HW217538   3.519   2.685   7.202
 5551SOL     OW17539   2.378   1.908   7.329
 5551SOL    HW117540   2.327   1.840   7.285
 5551SOL    HW217541   2.313   1.957   7.380
 5552SOL     OW17542   3.213   2.723   6.609
 5552SOL    HW117543   3.124   2.707   6.575
 5552SOL    HW217544   3.256   2.638   6.603
 5553SOL     OW17545   3.066   2.390   5.842
 5553SOL    HW117546   3.079   2.313   5.897
 5553SOL    HW217547   3.032   2.457   5.902
 5554SOL     OW17548   1.894   3.174   6.865
 5554SOL    HW117549   1.939   3.121   6.932
 5554SOL    HW217550   1.910   3.264   6.892
 5555SOL     OW17551   2.624   2.550   6.691
 5555SOL    HW117552   2.640   2.468   6.644
 5555SOL    HW217553   2.564   2.599   6.634
 5556SOL     OW17554   3.593   2.822   7.447
 5556SOL    HW117555   3.553   2.756   7.390
 5556SOL    HW217556   3.529   2.835   7.517
 5557SOL     OW17557   3.483   2.238   5.950
 5557SOL    HW117558   3.509   2.173   6.014
 5557SOL    HW217559   3.458   2.315   6.002
 5558SOL     OW17560   2.918   2.645   6.551
 5558SOL    HW117561   2.906   2.664   6.644
 5558SOL    HW217562   2.892   2.554   6.541
 5559SOL     OW17563   2.848   3.432   7.307
 5559SOL    HW117564   2.829   3.472   7.222
 5559SOL    HW217565   2.888   3.348   7.285
 5560SOL     OW17566   3.705   3.361   7.184
 5560SOL    HW117567   3.729   3.390   7.096
 5560SOL    HW217568   3.785   3.371   7.235
 5561SOL     OW17569   3.391   2.135   5.713
 5561SOL    HW117570   3.325   2.070   5.739
 5561SOL    HW217571   3.424   2.171   5.795
 5562SOL     OW17572   3.151   2.687   5.616
 5562SOL    HW117573   3.195   2.602   5.619
 5562SOL    HW217574   3.183   2.727   5.535
 5563SOL     OW17575   2.927   3.200   6.437
 5563SOL    HW117576   2.933   3.128   6.375
 5563SOL    HW217577   2.988   3.266   6.405
 5564SOL     OW17578   3.002   2.269   7.233
 5564SOL    HW117579   2.952   2.302   7.308
 5564SOL    HW217580   3.092   2.298   7.250
 5565SOL     OW17581   3.020   2.061   7.056
 5565SOL    HW117582   3.005   2.125   7.126
 5565SOL    HW217583   3.065   2.111   6.988
 5566SOL     OW17584   1.865   3.197   5.775
 5566SOL    HW117585   1.778   3.210   5.737
 5566SOL    HW217586   1.862   3.109   5.813
 5567SOL     OW17587   1.959   3.641   6.524
 5567SOL    HW117588   1.928   3.562   6.479
 5567SOL    HW217589   2.044   3.659   6.485
 5568SOL     OW17590   2.356   3.438   6.491
 5568SOL    HW117591   2.424   3.500   6.516
 5568SOL    HW217592   2.401   3.375   6.434
 5569SOL     OW17593   2.855   2.654   6.812
 5569SOL    HW117594   2.883   2.614   6.894
 5569SOL    HW217595   2.767   2.620   6.797
 5570SOL     OW17596   3.242   2.798   7.244
 5570SOL    HW117597   3.261   2.892   7.242
 5570SOL    HW217598   3.238   2.772   7.152
 5571SOL     OW17599   3.502   2.463   6.769
 5571SOL    HW117600   3.492   2.404   6.844
 5571SOL    HW217601   3.589   2.443   6.733
 5572SOL     OW17602   2.103   3.412   7.310
 5572SOL    HW117603   2.082   3.480   7.374
 5572SOL    HW217604   2.111   3.332   7.362
 5573SOL     OW17605   2.787   3.535   7.056
 5573SOL    HW117606   2.764   3.495   6.973
 5573SOL    HW217607   2.779   3.629   7.041
 5574SOL     OW17608   2.017   3.004   7.049
 5574SOL    HW117609   2.018   2.940   7.120
 5574SOL    HW217610   2.026   2.951   6.969
 5575SOL     OW17611   3.186   2.908   6.807
 5575SOL    HW117612   3.207   2.845   6.738
 5575SOL    HW217613   3.119   2.964   6.768
 5576SOL     OW17614   3.176   2.717   5.891
 5576SOL    HW117615   3.100   2.686   5.941
 5576SOL    HW217616   3.151   2.705   5.799
 5577SOL     OW17617   3.639   3.602   6.741
 5577SOL    HW117618   3.697   3.629   6.669
 5577SOL    HW217619   3.612   3.513   6.718
 5578SOL     OW17620   3.106   3.595   6.696
 5578SOL    HW117621   3.189   3.616   6.653
 5578SOL    HW217622   3.112   3.502   6.716
 5579SOL     OW17623   1.950   3.143   6.598
 5579SOL    HW117624   1.928   3.148   6.691
 5579SOL    HW217625   1.887   3.082   6.562
 5580SOL     OW17626   2.541   3.527   7.321
 5580SOL    HW117627   2.485   3.605   7.322
 5580SOL    HW217628   2.603   3.544   7.249
 5581SOL     OW17629   3.572   2.012   6.098
 5581SOL    HW117630   3.640   2.000   6.032
 5581SOL    HW217631   3.561   1.926   6.137
 5582SOL     OW17632   3.252   3.430   6.073
 5582SOL    HW117633   3.311   3.464   6.006
 5582SOL    HW217634   3.204   3.507   6.104
 5583SOL     OW17635   1.996   3.652   7.425
 5583SOL    HW117636   1.945   3.589   7.474
 5583SOL    HW217637   2.045   3.700   7.491
 5584SOL     OW17638   3.139   2.786   6.252
 5584SOL    HW117639   3.214   2.729   6.265
 5584SOL    HW217640   3.174   2.860   6.201
 5585SOL     OW17641   2.672   3.133   7.013
 5585SOL    HW117642   2.644   3.173   7.095
 5585SOL    HW217643   2.603   3.154   6.951
 5586SOL     OW17644   2.536   3.480   5.744
 5586SOL    HW117645   2.546   3.498   5.650
 5586SOL    HW217646   2.477   3.405   5.748
 5587SOL     OW17647   3.481   3.589   6.976
 5587SOL    HW117648   3.537   3.592   6.898
 5587SOL    HW217649   3.469   3.680   7.001
 5588SOL     OW17650   3.700   2.043   6.552
 5588SOL    HW117651   3.731   1.956   6.528
 5588SOL    HW217652   3.614   2.050   6.511
 5589SOL     OW17653   3.070   3.466   5.622
 5589SOL    HW117654   3.059   3.374   5.646
 5589SOL    HW217655   3.008   3.479   5.549
 5590SOL     OW17656   2.687   2.862   6.956
 5590SOL    HW117657   2.726   2.863   6.869
 5590SOL    HW217658   2.681   2.955   6.981
 5591SOL     OW17659   2.785   2.770   5.878
 5591SOL    HW117660   2.841   2.806   5.809
 5591SOL    HW217661   2.840   2.706   5.922
 5592SOL     OW17662   3.350   3.494   5.628
 5592SOL    HW117663   3.256   3.481   5.612
 5592SOL    HW217664   3.389   3.498   5.541
 5593SOL     OW17665   2.231   3.170   7.083
 5593SOL    HW117666   2.222   3.246   7.026
 5593SOL    HW217667   2.156   3.115   7.062
 5594SOL     OW17668   3.464   3.142   6.863
 5594SOL    HW117669   3.530   3.133   6.932
 5594SOL    HW217670   3.406   3.211   6.896
 5595SOL     OW17671   2.923   2.973   6.289
 5595SOL    HW117672   2.851   2.924   6.327
 5595SOL    HW217673   2.986   2.907   6.261
 5596SOL     OW17674   2.466   3.353   6.064
 5596SOL    HW117675   2.513   3.301   5.999
 5596SOL    HW217676   2.398   3.399   6.015
 5597SOL     OW17677   3.586   2.253   6.963
 5597SOL    HW117678   3.658   2.315   6.961
 5597SOL    HW217679   3.614   2.180   6.908
 5598SOL     OW17680   2.120   3.207   5.875
 5598SOL    HW117681   2.028   3.213   5.849
 5598SOL    HW217682   2.122   3.244   5.963
 5599SOL     OW17683   1.885   2.261   5.625
 5599SOL    HW117684   1.820   2.218   5.570
 5599SOL    HW217685   1.932   2.319   5.565
 5600SOL     OW17686   3.288   2.721   6.984
 5600SOL    HW117687   3.239   2.783   6.930
 5600SOL    HW217688   3.377   2.723   6.948
 5601SOL     OW17689   3.040   3.200   5.703
 5601SOL    HW117690   2.949   3.169   5.705
 5601SOL    HW217691   3.067   3.199   5.795
 5602SOL     OW17692   3.347   3.644   6.569
 5602SOL    HW117693   3.371   3.697   6.493
 5602SOL    HW217694   3.431   3.612   6.603
 5603SOL     OW17695   3.335   3.060   7.217
 5603SOL    HW117696   3.324   3.074   7.311
 5603SOL    HW217697   3.428   3.075   7.201
 5604SOL     OW17698   2.237   3.603   7.151
 5604SOL    HW117699   2.152   3.644   7.135
 5604SOL    HW217700   2.217   3.518   7.190
 5605SOL     OW17701   3.527   2.743   6.845
 5605SOL    HW117702   3.526   2.657   6.801
 5605SOL    HW217703   3.520   2.806   6.773
 5606SOL     OW17704   3.104   2.196   6.032
 5606SOL    HW117705   3.156   2.116   6.032
 5606SOL    HW217706   3.124   2.237   6.117
 5607SOL     OW17707   3.620   2.227   7.235
 5607SOL    HW117708   3.603   2.241   7.142
 5607SOL    HW217709   3.550   2.169   7.264
 5608SOL     OW17710   3.619   2.791   7.099
 5608SOL    HW117711   3.608   2.884   7.117
 5608SOL    HW217712   3.594   2.781   7.007
 5609SOL     OW17713   2.726   3.231   5.625
 5609SOL    HW117714   2.685   3.258   5.707
 5609SOL    HW217715   2.741   3.312   5.578
 5610SOL     OW17716   2.522   3.651   6.526
 5610SOL    HW117717   2.502   3.742   6.504
 5610SOL    HW217718   2.618   3.646   6.521
 5611SOL     OW17719   2.741   2.835   6.444
 5611SOL    HW117720   2.800   2.770   6.481
 5611SOL    HW217721   2.718   2.891   6.518
 5612SOL     OW17722   2.942   2.854   5.675
 5612SOL    HW117723   2.919   2.903   5.597
 5612SOL    HW217724   3.015   2.798   5.648
 5613SOL     OW17725   3.712   3.416   6.427
 5613SOL    HW117726   3.633   3.397   6.377
 5613SOL    HW217727   3.715   3.349   6.495
 5614SOL     OW17728   2.088   3.165   7.448
 5614SOL    HW117729   2.001   3.131   7.430
 5614SOL    HW217730   2.089   3.180   7.543
 5615SOL     OW17731   1.944   3.090   6.248
 5615SOL    HW117732   1.958   3.053   6.335
 5615SOL    HW217733   2.017   3.056   6.196
 5616SOL     OW17734   2.542   3.270   7.209
 5616SOL    HW117735   2.470   3.222   7.250
 5616SOL    HW217736   2.540   3.356   7.251
 5617SOL     OW17737   3.676   2.041   6.824
 5617SOL    HW117738   3.666   1.946   6.828
 5617SOL    HW217739   3.690   2.060   6.731
 5618SOL     OW17740   3.558   3.352   6.682
 5618SOL    HW117741   3.479   3.328   6.633
 5618SOL    HW217742   3.569   3.281   6.746
 5619SOL     OW17743   2.691   3.442   6.261
 5619SOL    HW117744   2.672   3.493   6.182
 5619SOL    HW217745   2.617   3.382   6.269
 5620SOL     OW17746   3.296   2.088   6.706
 5620SOL    HW117747   3.315   2.001   6.742
 5620SOL    HW217748   3.248   2.133   6.775
 5621SOL     OW17749   2.888   1.898   6.708
 5621SOL    HW117750   2.815   1.836   6.696
 5621SOL    HW217751   2.966   1.843   6.707
 5622SOL     OW17752   2.634   3.194   5.905
 5622SOL    HW117753   2.604   3.103   5.908
 5622SOL    HW217754   2.716   3.195   5.953
 5623SOL     OW17755   2.482   3.416   6.869
 5623SOL    HW117756   2.483   3.498   6.920
 5623SOL    HW217757   2.570   3.409   6.834
 5624SOL     OW17758   3.218   1.916   5.753
 5624SOL    HW117759   3.248   1.849   5.692
 5624SOL    HW217760   3.131   1.887   5.779
 5625SOL     OW17761   3.153   2.322   6.272
 5625SOL    HW117762   3.106   2.405   6.277
 5625SOL    HW217763   3.154   2.289   6.361
 5626SOL     OW17764   3.444   2.060   6.463
 5626SOL    HW117765   3.391   2.085   6.539
 5626SOL    HW217766   3.446   2.140   6.409
 5627SOL     OW17767   1.888   2.956   5.887
 5627SOL    HW117768   1.984   2.952   5.887
 5627SOL    HW217769   1.860   2.866   5.871
 5628SOL     OW17770   2.748   3.521   5.929
 5628SOL    HW117771   2.677   3.502   5.868
 5628SOL    HW217772   2.717   3.596   5.979
 5629SOL     OW17773   1.870   2.236   8.087
 5629SOL    HW117774   1.800   2.301   8.079
 5629SOL    HW217775   1.865   2.185   8.007
 5630SOL     OW17776   2.428   3.153   8.625
 5630SOL    HW117777   2.342   3.160   8.586
 5630SOL    HW217778   2.446   3.241   8.660
 5631SOL     OW17779   3.426   3.374   8.156
 5631SOL    HW117780   3.383   3.352   8.239
 5631SOL    HW217781   3.354   3.378   8.093
 5632SOL     OW17782   2.984   2.563   8.149
 5632SOL    HW117783   3.038   2.639   8.130
 5632SOL    HW217784   2.946   2.581   8.235
 5633SOL     OW17785   3.626   2.468   7.678
 5633SOL    HW117786   3.608   2.461   7.584
 5633SOL    HW217787   3.594   2.386   7.715
 5634SOL     OW17788   2.611   3.001   8.490
 5634SOL    HW117789   2.544   3.038   8.548
 5634SOL    HW217790   2.650   3.078   8.447
 5635SOL     OW17791   2.731   2.631   9.271
 5635SOL    HW117792   2.721   2.702   9.335
 5635SOL    HW217793   2.755   2.676   9.189
 5636SOL     OW17794   2.541   2.848   8.110
 5636SOL    HW117795   2.609   2.846   8.177
 5636SOL    HW217796   2.476   2.910   8.144
 5637SOL     OW17797   2.575   3.013   9.262
 5637SOL    HW117798   2.622   3.091   9.291
 5637SOL    HW217799   2.493   3.047   9.225
 5638SOL     OW17800   2.194   3.282   8.515
 5638SOL    HW117801   2.119   3.246   8.468
 5638SOL    HW217802   2.240   3.336   8.450
 5639SOL     OW17803   3.321   3.363   8.805
 5639SOL    HW117804   3.375   3.441   8.815
 5639SOL    HW217805   3.256   3.370   8.875
 5640SOL     OW17806   3.472   2.307   8.192
 5640SOL    HW117807   3.403   2.331   8.131
 5640SOL    HW217808   3.488   2.387   8.242
 5641SOL     OW17809   2.084   3.577   7.927
 5641SOL    HW117810   2.113   3.637   7.995
 5641SOL    HW217811   2.156   3.575   7.864
 5642SOL     OW17812   2.999   3.204   9.142
 5642SOL    HW117813   3.041   3.197   9.228
 5642SOL    HW217814   2.947   3.124   9.134
 5643SOL     OW17815   2.091   3.302   7.980
 5643SOL    HW117816   2.076   3.396   7.985
 5643SOL    HW217817   2.033   3.264   8.046
 5644SOL     OW17818   2.128   2.958   8.342
 5644SOL    HW117819   2.116   2.870   8.377
 5644SOL    HW217820   2.066   3.012   8.392
 5645SOL     OW17821   2.470   3.648   8.876
 5645SOL    HW117822   2.389   3.633   8.924
 5645SOL    HW217823   2.497   3.736   8.900
 5646SOL     OW17824   3.456   1.988   8.914
 5646SOL    HW117825   3.472   2.069   8.866
 5646SOL    HW217826   3.442   2.015   9.004
 5647SOL     OW17827   3.700   3.613   7.790
 5647SOL    HW117828   3.771   3.588   7.849
 5647SOL    HW217829   3.719   3.704   7.766
 5648SOL     OW17830   1.893   3.452   7.570
 5648SOL    HW117831   1.875   3.361   7.593
 5648SOL    HW217832   1.872   3.501   7.650
 5649SOL     OW17833   3.549   2.780   8.094
 5649SOL    HW117834   3.632   2.736   8.075
 5649SOL    HW217835   3.530   2.829   8.015
 5650SOL     OW17836   3.503   2.966   7.881
 5650SOL    HW117837   3.588   2.970   7.836
 5650SOL    HW217838   3.510   3.029   7.952
 5651SOL     OW17839   1.987   2.595   9.039
 5651SOL    HW117840   2.079   2.616   9.052
 5651SOL    HW217841   1.941   2.678   9.049
 5652SOL     OW17842   2.478   3.252   8.182
 5652SOL    HW117843   2.432   3.168   8.192
 5652SOL    HW217844   2.461   3.278   8.092
 5653SOL     OW17845   3.149   3.099   8.871
 5653SOL    HW117846   3.181   3.032   8.810
 5653SOL    HW217847   3.208   3.094   8.946
 5654SOL     OW17848   2.705   1.880   7.990
 5654SOL    HW117849   2.724   1.938   7.916
 5654SOL    HW217850   2.619   1.844   7.971
 5655SOL     OW17851   2.052   2.828   8.724
 5655SOL    HW117852   2.135   2.785   8.704
 5655SOL    HW217853   1.986   2.777   8.676
 5656SOL     OW17854   3.392   2.858   7.648
 5656SOL    HW117855   3.323   2.800   7.679
 5656SOL    HW217856   3.432   2.893   7.727
 5657SOL     OW17857   3.080   3.666   9.075
 5657SOL    HW117858   3.056   3.727   9.005
 5657SOL    HW217859   3.081   3.580   9.033
 5658SOL     OW17860   3.327   3.283   8.396
 5658SOL    HW117861   3.260   3.297   8.464
 5658SOL    HW217862   3.316   3.191   8.371
 5659SOL     OW17863   3.509   3.606   8.028
 5659SOL    HW117864   3.501   3.572   7.939
 5659SOL    HW217865   3.492   3.531   8.085
 5660SOL     OW17866   3.137   2.220   8.383
 5660SOL    HW117867   3.050   2.182   8.392
 5660SOL    HW217868   3.192   2.167   8.441
 5661SOL     OW17869   3.436   3.539   7.756
 5661SOL    HW117870   3.528   3.562   7.751
 5661SOL    HW217871   3.411   3.519   7.666
 5662SOL     OW17872   2.655   2.479   8.896
 5662SOL    HW117873   2.632   2.456   8.987
 5662SOL    HW217874   2.607   2.415   8.843
 5663SOL     OW17875   3.256   2.336   9.126
 5663SOL    HW117876   3.259   2.380   9.211
 5663SOL    HW217877   3.314   2.260   9.136
 5664SOL     OW17878   2.813   2.748   9.032
 5664SOL    HW117879   2.870   2.680   8.995
 5664SOL    HW217880   2.767   2.784   8.956
 5665SOL     OW17881   2.859   2.278   8.684
 5665SOL    HW117882   2.777   2.297   8.730
 5665SOL    HW217883   2.833   2.226   8.608
 5666SOL     OW17884   2.912   2.558   7.876
 5666SOL    HW117885   2.933   2.557   7.969
 5666SOL    HW217886   2.832   2.506   7.868
 5667SOL     OW17887   1.952   2.695   8.218
 5667SOL    HW117888   2.033   2.686   8.268
 5667SOL    HW217889   1.909   2.772   8.256
 5668SOL     OW17890   1.983   3.708   9.024
 5668SOL    HW117891   1.986   3.687   9.118
 5668SOL    HW217892   1.890   3.705   9.002
 5669SOL     OW17893   3.571   2.435   9.277
 5669SOL    HW117894   3.533   2.509   9.228
 5669SOL    HW217895   3.596   2.372   9.210
 5670SOL     OW17896   3.238   3.002   7.989
 5670SOL    HW117897   3.318   2.989   7.938
 5670SOL    HW217898   3.186   3.065   7.938
 5671SOL     OW17899   2.452   2.063   8.358
 5671SOL    HW117900   2.358   2.066   8.372
 5671SOL    HW217901   2.473   2.146   8.316
 5672SOL     OW17902   2.867   3.311   7.917
 5672SOL    HW117903   2.832   3.387   7.871
 5672SOL    HW217904   2.845   3.326   8.009
 5673SOL     OW17905   2.213   3.673   8.286
 5673SOL    HW117906   2.263   3.594   8.305
 5673SOL    HW217907   2.272   3.745   8.310
 5674SOL     OW17908   3.667   2.922   8.316
 5674SOL    HW117909   3.614   2.897   8.240
 5674SOL    HW217910   3.605   2.926   8.388
 5675SOL     OW17911   3.089   3.399   8.960
 5675SOL    HW117912   3.076   3.327   9.021
 5675SOL    HW217913   3.022   3.387   8.893
 5676SOL     OW17914   3.340   2.609   8.177
 5676SOL    HW117915   3.338   2.566   8.262
 5676SOL    HW217916   3.419   2.663   8.178
 5677SOL     OW17917   2.329   3.127   9.185
 5677SOL    HW117918   2.303   3.132   9.093
 5677SOL    HW217919   2.247   3.125   9.234
 5678SOL     OW17920   2.976   3.643   7.670
 5678SOL    HW117921   2.912   3.597   7.723
 5678SOL    HW217922   3.006   3.578   7.607
 5679SOL     OW17923   3.486   3.247   7.537
 5679SOL    HW117924   3.443   3.331   7.519
 5679SOL    HW217925   3.420   3.181   7.517
 5680SOL     OW17926   2.329   3.596   7.773
 5680SOL    HW117927   2.367   3.662   7.832
 5680SOL    HW217928   2.401   3.572   7.715
 5681SOL     OW17929   3.266   1.967   7.888
 5681SOL    HW117930   3.262   1.946   7.795
 5681SOL    HW217931   3.359   1.976   7.906
 5682SOL     OW17932   2.122   3.654   8.671
 5682SOL    HW117933   2.169   3.583   8.717
 5682SOL    HW217934   2.106   3.619   8.584
 5683SOL     OW17935   2.800   3.563   8.348
 5683SOL    HW117936   2.879   3.511   8.368
 5683SOL    HW217937   2.757   3.513   8.278
 5684SOL     OW17938   3.395   2.087   9.173
 5684SOL    HW117939   3.405   2.107   9.266
 5684SOL    HW217940   3.327   2.019   9.171
 5685SOL     OW17941   2.627   2.145   9.203
 5685SOL    HW117942   2.705   2.089   9.199
 5685SOL    HW217943   2.577   2.113   9.277
 5686SOL     OW17944   2.738   3.382   8.643
 5686SOL    HW117945   2.722   3.347   8.555
 5686SOL    HW217946   2.808   3.328   8.678
 5687SOL     OW17947   3.202   2.452   8.881
 5687SOL    HW117948   3.233   2.420   8.966
 5687SOL    HW217949   3.239   2.539   8.873
 5688SOL     OW17950   2.679   3.253   8.391
 5688SOL    HW117951   2.764   3.243   8.347
 5688SOL    HW217952   2.616   3.259   8.319
 5689SOL     OW17953   2.790   2.367   8.357
 5689SOL    HW117954   2.772   2.361   8.263
 5689SOL    HW217955   2.823   2.280   8.380
 5690SOL     OW17956   3.290   3.062   7.489
 5690SOL    HW117957   3.321   2.986   7.538
 5690SOL    HW217958   3.203   3.079   7.524
 5691SOL     OW17959   2.944   2.545   8.907
 5691SOL    HW117960   2.879   2.476   8.915
 5691SOL    HW217961   3.028   2.499   8.902
 5692SOL     OW17962   3.082   3.434   8.243
 5692SOL    HW117963   3.098   3.500   8.176
 5692SOL    HW217964   3.153   3.445   8.306
 5693SOL     OW17965   2.332   3.015   8.179
 5693SOL    HW117966   2.266   2.998   8.245
 5693SOL    HW217967   2.286   3.004   8.095
 5694SOL     OW17968   3.128   3.657   8.056
 5694SOL    HW117969   3.174   3.721   8.003
 5694SOL    HW217970   3.055   3.706   8.095
 5695SOL     OW17971   2.924   2.426   7.453
 5695SOL    HW117972   2.870   2.505   7.452
 5695SOL    HW217973   2.961   2.423   7.541
 5696SOL     OW17974   1.938   2.425   8.833
 5696SOL    HW117975   2.032   2.418   8.814
 5696SOL    HW217976   1.933   2.483   8.908
 5697SOL     OW17977   2.875   1.920   8.203
 5697SOL    HW117978   2.817   1.912   8.127
 5697SOL    HW217979   2.856   1.843   8.256
 5698SOL     OW17980   3.302   3.024   8.305
 5698SOL    HW117981   3.230   2.961   8.303
 5698SOL    HW217982   3.329   3.033   8.214
 5699SOL     OW17983   3.326   2.471   8.423
 5699SOL    HW117984   3.276   2.389   8.425
 5699SOL    HW217985   3.386   2.464   8.497
 5700SOL     OW17986   3.723   2.679   7.823
 5700SOL    HW117987   3.767   2.623   7.887
 5700SOL    HW217988   3.685   2.618   7.759
 5701SOL     OW17989   2.353   3.282   7.603
 5701SOL    HW117990   2.276   3.252   7.652
 5701SOL    HW217991   2.350   3.232   7.521
 5702SOL     OW17992   3.529   3.127   8.093
 5702SOL    HW117993   3.624   3.129   8.102
 5702SOL    HW217994   3.501   3.216   8.113
 5703SOL     OW17995   3.259   2.434   7.519
 5703SOL    HW117996   3.192   2.415   7.585
 5703SOL    HW217997   3.339   2.397   7.555
 5704SOL     OW17998   3.613   3.096   9.014
 5704SOL    HW117999   3.700   3.061   8.996
 5704SOL    HW218000   3.629   3.186   9.043
 5705SOL     OW18001   2.919   3.213   8.779
 5705SOL    HW118002   2.844   3.183   8.831
 5705SOL    HW218003   2.995   3.173   8.821
 5706SOL     OW18004   3.469   3.491   9.105
 5706SOL    HW118005   3.459   3.524   9.015
 5706SOL    HW218006   3.549   3.440   9.103
 5707SOL     OW18007   2.991   3.065   8.551
 5707SOL    HW118008   2.935   3.107   8.616
 5707SOL    HW218009   2.962   3.103   8.468
 5708SOL     OW18010   3.490   2.958   8.523
 5708SOL    HW118011   3.481   3.019   8.596
 5708SOL    HW218012   3.413   2.975   8.468
 5709SOL     OW18013   2.789   1.955   8.842
 5709SOL    HW118014   2.811   1.936   8.751
 5709SOL    HW218015   2.868   1.994   8.878
 5710SOL     OW18016   2.846   2.977   9.171
 5710SOL    HW118017   2.755   2.993   9.193
 5710SOL    HW218018   2.843   2.898   9.116
 5711SOL     OW18019   2.621   2.964   7.871
 5711SOL    HW118020   2.597   2.921   7.953
 5711SOL    HW218021   2.678   2.902   7.827
 5712SOL     OW18022   2.280   2.672   8.698
 5712SOL    HW118023   2.348   2.688   8.763
 5712SOL    HW218024   2.242   2.588   8.723
 5713SOL     OW18025   3.129   2.239   8.726
 5713SOL    HW118026   3.161   2.316   8.772
 5713SOL    HW218027   3.039   2.261   8.703
 5714SOL     OW18028   1.934   3.435   8.802
 5714SOL    HW118029   1.906   3.510   8.749
 5714SOL    HW218030   2.030   3.437   8.797
 5715SOL     OW18031   2.205   2.978   7.935
 5715SOL    HW118032   2.210   3.055   7.879
 5715SOL    HW218033   2.251   2.910   7.886
 5716SOL     OW18034   2.423   2.382   8.300
 5716SOL    HW118035   2.427   2.450   8.233
 5716SOL    HW218036   2.470   2.419   8.375
 5717SOL     OW18037   3.110   3.210   7.839
 5717SOL    HW118038   3.166   3.282   7.870
 5717SOL    HW218039   3.023   3.232   7.871
 5718SOL     OW18040   3.147   3.322   8.597
 5718SOL    HW118041   3.204   3.326   8.673
 5718SOL    HW218042   3.091   3.246   8.613
 5719SOL     OW18043   3.442   2.481   7.933
 5719SOL    HW118044   3.393   2.538   7.992
 5719SOL    HW218045   3.483   2.541   7.870
 5720SOL     OW18046   2.207   3.391   8.760
 5720SOL    HW118047   2.196   3.347   8.676
 5720SOL    HW218048   2.302   3.402   8.768
 5721SOL     OW18049   2.284   2.605   9.057
 5721SOL    HW118050   2.342   2.649   8.995
 5721SOL    HW218051   2.333   2.529   9.086
 5722SOL     OW18052   3.466   2.641   9.131
 5722SOL    HW118053   3.381   2.684   9.125
 5722SOL    HW218054   3.519   2.684   9.064
 5723SOL     OW18055   2.855   1.990   9.196
 5723SOL    HW118056   2.916   2.061   9.177
 5723SOL    HW218057   2.905   1.911   9.174
 5724SOL     OW18058   2.360   1.899   9.210
 5724SOL    HW118059   2.312   1.849   9.145
 5724SOL    HW218060   2.299   1.967   9.238
 5725SOL     OW18061   2.447   2.737   8.479
 5725SOL    HW118062   2.482   2.826   8.478
 5725SOL    HW218063   2.391   2.733   8.557
 5726SOL     OW18064   3.216   2.721   8.475
 5726SOL    HW118065   3.134   2.710   8.428
 5726SOL    HW218066   3.260   2.637   8.468
 5727SOL     OW18067   3.065   2.392   7.710
 5727SOL    HW118068   3.077   2.315   7.764
 5727SOL    HW218069   3.024   2.457   7.768
 5728SOL     OW18070   1.909   3.173   8.724
 5728SOL    HW118071   1.941   3.119   8.796
 5728SOL    HW218072   1.914   3.262   8.757
 5729SOL     OW18073   2.577   2.488   8.503
 5729SOL    HW118074   2.658   2.474   8.453
 5729SOL    HW218075   2.555   2.580   8.487
 5730SOL     OW18076   3.592   2.822   9.309
 5730SOL    HW118077   3.552   2.757   9.251
 5730SOL    HW218078   3.529   2.835   9.379
 5731SOL     OW18079   3.483   2.239   7.812
 5731SOL    HW118080   3.509   2.173   7.877
 5731SOL    HW218081   3.459   2.315   7.865
 5732SOL     OW18082   2.890   2.619   8.410
 5732SOL    HW118083   2.886   2.639   8.503
 5732SOL    HW218084   2.867   2.526   8.404
 5733SOL     OW18085   2.847   3.430   9.169
 5733SOL    HW118086   2.828   3.471   9.084
 5733SOL    HW218087   2.889   3.347   9.146
 5734SOL     OW18088   3.705   3.361   9.046
 5734SOL    HW118089   3.729   3.390   8.958
 5734SOL    HW218090   3.785   3.371   9.097
 5735SOL     OW18091   2.215   2.777   9.260
 5735SOL    HW118092   2.297   2.800   9.304
 5735SOL    HW218093   2.241   2.718   9.190
 5736SOL     OW18094   3.394   2.138   7.574
 5736SOL    HW118095   3.331   2.070   7.600
 5736SOL    HW218096   3.426   2.173   7.657
 5737SOL     OW18097   3.153   2.690   7.481
 5737SOL    HW118098   3.190   2.602   7.482
 5737SOL    HW218099   3.183   2.728   7.398
 5738SOL     OW18100   2.930   3.199   8.305
 5738SOL    HW118101   2.934   3.127   8.242
 5738SOL    HW218102   2.989   3.265   8.269
 5739SOL     OW18103   2.174   2.681   8.390
 5739SOL    HW118104   2.266   2.706   8.383
 5739SOL    HW218105   2.175   2.598   8.436
 5740SOL     OW18106   2.996   2.238   9.130
 5740SOL    HW118107   2.948   2.291   9.193
 5740SOL    HW218108   3.083   2.277   9.128
 5741SOL     OW18109   3.026   2.064   8.918
 5741SOL    HW118110   3.014   2.126   8.990
 5741SOL    HW218111   3.069   2.115   8.849
 5742SOL     OW18112   1.864   3.181   7.641
 5742SOL    HW118113   1.777   3.199   7.604
 5742SOL    HW218114   1.857   3.092   7.677
 5743SOL     OW18115   1.959   3.640   8.386
 5743SOL    HW118116   1.928   3.562   8.341
 5743SOL    HW218117   2.044   3.659   8.346
 5744SOL     OW18118   2.356   3.438   8.353
 5744SOL    HW118119   2.423   3.501   8.378
 5744SOL    HW218120   2.401   3.376   8.296
 5745SOL     OW18121   2.840   2.651   8.674
 5745SOL    HW118122   2.902   2.632   8.744
 5745SOL    HW218123   2.756   2.618   8.707
 5746SOL     OW18124   1.885   2.394   8.566
 5746SOL    HW118125   1.964   2.394   8.512
 5746SOL    HW218126   1.917   2.411   8.655
 5747SOL     OW18127   3.241   2.799   9.106
 5747SOL    HW118128   3.262   2.892   9.103
 5747SOL    HW218129   3.238   2.772   9.014
 5748SOL     OW18130   3.502   2.463   8.632
 5748SOL    HW118131   3.492   2.403   8.705
 5748SOL    HW218132   3.588   2.443   8.596
 5749SOL     OW18133   2.105   3.411   9.173
 5749SOL    HW118134   2.081   3.478   9.237
 5749SOL    HW218135   2.107   3.329   9.223
 5750SOL     OW18136   2.537   2.321   8.712
 5750SOL    HW118137   2.521   2.233   8.677
 5750SOL    HW218138   2.548   2.376   8.634
 5751SOL     OW18139   2.789   3.534   8.917
 5751SOL    HW118140   2.762   3.496   8.833
 5751SOL    HW218141   2.781   3.628   8.905
 5752SOL     OW18142   2.006   3.004   8.923
 5752SOL    HW118143   2.006   2.953   9.004
 5752SOL    HW218144   2.023   2.940   8.854
 5753SOL     OW18145   3.183   2.907   8.670
 5753SOL    HW118146   3.208   2.844   8.602
 5753SOL    HW218147   3.115   2.961   8.630
 5754SOL     OW18148   3.177   2.717   7.754
 5754SOL    HW118149   3.098   2.691   7.802
 5754SOL    HW218150   3.154   2.705   7.662
 5755SOL     OW18151   3.639   3.603   8.603
 5755SOL    HW118152   3.697   3.629   8.531
 5755SOL    HW218153   3.612   3.514   8.580
 5756SOL     OW18154   3.106   3.595   8.557
 5756SOL    HW118155   3.189   3.617   8.514
 5756SOL    HW218156   3.112   3.502   8.577
 5757SOL     OW18157   1.949   3.132   8.459
 5757SOL    HW118158   1.931   3.144   8.553
 5757SOL    HW218159   1.879   3.075   8.428
 5758SOL     OW18160   2.540   3.526   9.181
 5758SOL    HW118161   2.484   3.603   9.185
 5758SOL    HW218162   2.601   3.546   9.109
 5759SOL     OW18163   3.571   2.012   7.960
 5759SOL    HW118164   3.639   2.000   7.893
 5759SOL    HW218165   3.562   1.925   8.000
 5760SOL     OW18166   3.252   3.431   7.936
 5760SOL    HW118167   3.311   3.463   7.868
 5760SOL    HW218168   3.204   3.508   7.966
 5761SOL     OW18169   1.997   3.652   9.286
 5761SOL    HW118170   1.945   3.588   9.336
 5761SOL    HW218171   2.045   3.700   9.353
 5762SOL     OW18172   3.137   2.785   8.116
 5762SOL    HW118173   3.212   2.727   8.128
 5762SOL    HW218174   3.171   2.858   8.064
 5763SOL     OW18175   2.672   3.136   8.876
 5763SOL    HW118176   2.644   3.176   8.959
 5763SOL    HW218177   2.604   3.160   8.814
 5764SOL     OW18178   2.535   3.483   7.606
 5764SOL    HW118179   2.546   3.500   7.512
 5764SOL    HW218180   2.479   3.406   7.611
 5765SOL     OW18181   3.481   3.589   8.838
 5765SOL    HW118182   3.537   3.592   8.760
 5765SOL    HW218183   3.469   3.680   8.862
 5766SOL     OW18184   3.699   2.043   8.415
 5766SOL    HW118185   3.731   1.956   8.390
 5766SOL    HW218186   3.614   2.050   8.374
 5767SOL     OW18187   3.069   3.466   7.484
 5767SOL    HW118188   3.059   3.374   7.509
 5767SOL    HW218189   3.008   3.478   7.411
 5768SOL     OW18190   2.686   2.868   8.820
 5768SOL    HW118191   2.732   2.865   8.737
 5768SOL    HW218192   2.683   2.961   8.843
 5769SOL     OW18193   2.788   2.784   7.750
 5769SOL    HW118194   2.843   2.816   7.679
 5769SOL    HW218195   2.834   2.707   7.783
 5770SOL     OW18196   3.349   3.495   7.490
 5770SOL    HW118197   3.256   3.481   7.474
 5770SOL    HW218198   3.389   3.499   7.403
 5771SOL     OW18199   2.231   3.165   8.939
 5771SOL    HW118200   2.217   3.243   8.884
 5771SOL    HW218201   2.153   3.111   8.925
 5772SOL     OW18202   3.462   3.141   8.725
 5772SOL    HW118203   3.532   3.134   8.790
 5772SOL    HW218204   3.406   3.211   8.759
 5773SOL     OW18205   2.919   2.971   8.160
 5773SOL    HW118206   2.847   2.918   8.196
 5773SOL    HW218207   2.980   2.906   8.125
 5774SOL     OW18208   2.881   2.103   8.413
 5774SOL    HW118209   2.879   2.053   8.331
 5774SOL    HW218210   2.879   2.036   8.482
 5775SOL     OW18211   2.465   3.351   7.928
 5775SOL    HW118212   2.515   3.304   7.861
 5775SOL    HW218213   2.399   3.400   7.878
 5776SOL     OW18214   3.586   2.252   8.826
 5776SOL    HW118215   3.658   2.315   8.823
 5776SOL    HW218216   3.614   2.180   8.770
 5777SOL     OW18217   2.119   3.200   7.735
 5777SOL    HW118218   2.026   3.202   7.713
 5777SOL    HW218219   2.123   3.242   7.821
 5778SOL     OW18220   1.975   2.886   9.169
 5778SOL    HW118221   1.898   2.862   9.220
 5778SOL    HW218222   2.049   2.847   9.216
 5779SOL     OW18223   2.550   2.043   8.942
 5779SOL    HW118224   2.637   2.021   8.910
 5779SOL    HW218225   2.565   2.087   9.026
 5780SOL     OW18226   1.898   2.251   7.418
 5780SOL    HW118227   1.831   2.238   7.351
 5780SOL    HW218228   1.913   2.346   7.420
 5781SOL     OW18229   3.288   2.720   8.847
 5781SOL    HW118230   3.239   2.782   8.793
 5781SOL    HW218231   3.377   2.722   8.810
 5782SOL     OW18232   3.040   3.200   7.566
 5782SOL    HW118233   2.952   3.161   7.566
 5782SOL    HW218234   3.067   3.198   7.658
 5783SOL     OW18235   2.481   2.692   8.879
 5783SOL    HW118236   2.537   2.769   8.866
 5783SOL    HW218237   2.543   2.620   8.890
 5784SOL     OW18238   3.347   3.643   8.430
 5784SOL    HW118239   3.371   3.697   8.355
 5784SOL    HW218240   3.431   3.612   8.465
 5785SOL     OW18241   2.575   2.425   9.149
 5785SOL    HW118242   2.620   2.483   9.210
 5785SOL    HW218243   2.595   2.337   9.181
 5786SOL     OW18244   3.335   3.060   9.078
 5786SOL    HW118245   3.324   3.074   9.172
 5786SOL    HW218246   3.428   3.075   9.062
 5787SOL     OW18247   2.237   3.602   9.013
 5787SOL    HW118248   2.153   3.644   8.997
 5787SOL    HW218249   2.215   3.519   9.054
 5788SOL     OW18250   3.526   2.742   8.707
 5788SOL    HW118251   3.526   2.657   8.663
 5788SOL    HW218252   3.520   2.806   8.635
 5789SOL     OW18253   3.096   2.193   7.899
 5789SOL    HW118254   3.149   2.113   7.896
 5789SOL    HW218255   3.121   2.236   7.980
 5790SOL     OW18256   2.448   2.589   8.118
 5790SOL    HW118257   2.493   2.673   8.115
 5790SOL    HW218258   2.377   2.597   8.054
 5791SOL     OW18259   3.621   2.228   9.098
 5791SOL    HW118260   3.604   2.241   9.005
 5791SOL    HW218261   3.550   2.169   9.127
 5792SOL     OW18262   3.618   2.790   8.961
 5792SOL    HW118263   3.609   2.884   8.979
 5792SOL    HW218264   3.594   2.781   8.869
 5793SOL     OW18265   2.720   3.233   7.484
 5793SOL    HW118266   2.686   3.257   7.570
 5793SOL    HW218267   2.740   3.316   7.441
 5794SOL     OW18268   2.523   3.651   8.387
 5794SOL    HW118269   2.501   3.742   8.366
 5794SOL    HW218270   2.618   3.647   8.382
 5795SOL     OW18271   2.731   2.828   8.307
 5795SOL    HW118272   2.784   2.759   8.346
 5795SOL    HW218273   2.697   2.878   8.381
 5796SOL     OW18274   2.951   2.866   7.546
 5796SOL    HW118275   2.921   2.908   7.465
 5796SOL    HW218276   3.017   2.803   7.517
 5797SOL     OW18277   3.712   3.417   8.289
 5797SOL    HW118278   3.633   3.397   8.238
 5797SOL    HW218279   3.716   3.348   8.355
 5798SOL     OW18280   2.088   3.163   9.304
 5798SOL    HW118281   2.021   3.102   9.272
 5798SOL    HW218282   2.067   3.176   9.396
 5799SOL     OW18283   1.948   3.096   8.115
 5799SOL    HW118284   1.942   3.046   8.197
 5799SOL    HW218285   2.016   3.051   8.065
 5800SOL     OW18286   2.545   3.266   9.078
 5800SOL    HW118287   2.465   3.224   9.109
 5800SOL    HW218288   2.542   3.355   9.115
 5801SOL     OW18289   3.673   2.040   8.686
 5801SOL    HW118290   3.667   1.945   8.689
 5801SOL    HW218291   3.688   2.060   8.594
 5802SOL     OW18292   3.557   3.352   8.545
 5802SOL    HW118293   3.479   3.328   8.496
 5802SOL    HW218294   3.570   3.281   8.607
 5803SOL     OW18295   2.200   2.406   8.734
 5803SOL    HW118296   2.197   2.327   8.787
 5803SOL    HW218297   2.272   2.393   8.673
 5804SOL     OW18298   2.691   3.441   8.125
 5804SOL    HW118299   2.674   3.494   8.047
 5804SOL    HW218300   2.616   3.381   8.130
 5805SOL     OW18301   3.293   2.090   8.564
 5805SOL    HW118302   3.316   2.008   8.607
 5805SOL    HW218303   3.243   2.138   8.630
 5806SOL     OW18304   2.873   1.882   8.587
 5806SOL    HW118305   2.817   1.814   8.548
 5806SOL    HW218306   2.960   1.842   8.588
 5807SOL     OW18307   2.644   3.212   7.763
 5807SOL    HW118308   2.620   3.122   7.783
 5807SOL    HW218309   2.727   3.225   7.809
 5808SOL     OW18310   2.482   3.415   8.733
 5808SOL    HW118311   2.482   3.496   8.783
 5808SOL    HW218312   2.570   3.409   8.696
 5809SOL     OW18313   3.233   1.916   7.615
 5809SOL    HW118314   3.262   1.856   7.546
 5809SOL    HW218315   3.154   1.876   7.651
 5810SOL     OW18316   3.158   2.325   8.131
 5810SOL    HW118317   3.109   2.407   8.140
 5810SOL    HW218318   3.155   2.286   8.219
 5811SOL     OW18319   3.443   2.060   8.326
 5811SOL    HW118320   3.388   2.084   8.400
 5811SOL    HW218321   3.445   2.138   8.271
 5812SOL     OW18322   1.892   2.930   7.751
 5812SOL    HW118323   1.987   2.931   7.753
 5812SOL    HW218324   1.869   2.838   7.762
 5813SOL     OW18325   2.748   3.523   7.791
 5813SOL    HW118326   2.677   3.503   7.730
 5813SOL    HW218327   2.716   3.598   7.841
 5814SOL     OW18328   2.088   2.505   9.443
 5814SOL    HW118329   2.002   2.482   9.479
 5814SOL    HW218330   2.079   2.490   9.348
 5815SOL     OW18331   1.857   2.278   9.928
 5815SOL    HW118332   1.770   2.276   9.968
 5815SOL    HW218333   1.863   2.197   9.877
 5816SOL     OW18334   2.429   3.154  10.488
 5816SOL    HW118335   2.342   3.160  10.448
 5816SOL    HW218336   2.445   3.242  10.522
 5817SOL     OW18337   3.425   3.374  10.019
 5817SOL    HW118338   3.383   3.352  10.102
 5817SOL    HW218339   3.354   3.378   9.955
 5818SOL     OW18340   2.991   2.561  10.008
 5818SOL    HW118341   3.041   2.641   9.994
 5818SOL    HW218342   2.946   2.575  10.091
 5819SOL     OW18343   3.628   2.468   9.539
 5819SOL    HW118344   3.609   2.460   9.446
 5819SOL    HW218345   3.595   2.387   9.578
 5820SOL     OW18346   2.611   3.001  10.353
 5820SOL    HW118347   2.544   3.038  10.410
 5820SOL    HW218348   2.650   3.077  10.309
 5821SOL     OW18349   2.731   2.631  11.133
 5821SOL    HW118350   2.721   2.702  11.197
 5821SOL    HW218351   2.755   2.676  11.051
 5822SOL     OW18352   2.547   2.860   9.955
 5822SOL    HW118353   2.613   2.851  10.024
 5822SOL    HW218354   2.479   2.914   9.994
 5823SOL     OW18355   2.574   3.013  11.124
 5823SOL    HW118356   2.622   3.091  11.153
 5823SOL    HW218357   2.493   3.047  11.087
 5824SOL     OW18358   2.194   3.283  10.377
 5824SOL    HW118359   2.119   3.247  10.329
 5824SOL    HW218360   2.241   3.336  10.312
 5825SOL     OW18361   3.321   3.363  10.667
 5825SOL    HW118362   3.375   3.441  10.677
 5825SOL    HW218363   3.256   3.370  10.736
 5826SOL     OW18364   3.472   2.308  10.054
 5826SOL    HW118365   3.400   2.330   9.995
 5826SOL    HW218366   3.484   2.386  10.107
 5827SOL     OW18367   2.084   3.578   9.789
 5827SOL    HW118368   2.114   3.638   9.857
 5827SOL    HW218369   2.155   3.575   9.725
 5828SOL     OW18370   2.999   3.204  11.004
 5828SOL    HW118371   3.040   3.197  11.090
 5828SOL    HW218372   2.947   3.124  10.996
 5829SOL     OW18373   2.091   3.304   9.846
 5829SOL    HW118374   2.074   3.398   9.849
 5829SOL    HW218375   2.032   3.266   9.911
 5830SOL     OW18376   2.122   2.957  10.200
 5830SOL    HW118377   2.118   2.870  10.239
 5830SOL    HW218378   2.064   3.011  10.254
 5831SOL     OW18379   2.470   3.648  10.738
 5831SOL    HW118380   2.389   3.633  10.786
 5831SOL    HW218381   2.497   3.736  10.762
 5832SOL     OW18382   2.446   2.848   9.445
 5832SOL    HW118383   2.493   2.895   9.376
 5832SOL    HW218384   2.484   2.880   9.526
 5833SOL     OW18385   3.457   1.988  10.776
 5833SOL    HW118386   3.471   2.069  10.728
 5833SOL    HW218387   3.442   2.015  10.866
 5834SOL     OW18388   1.986   2.517   9.871
 5834SOL    HW118389   1.946   2.431   9.886
 5834SOL    HW218390   1.972   2.565   9.952
 5835SOL     OW18391   3.700   3.613   9.652
 5835SOL    HW118392   3.771   3.588   9.711
 5835SOL    HW218393   3.719   3.704   9.628
 5836SOL     OW18394   1.892   3.453   9.432
 5836SOL    HW118395   1.876   3.361   9.453
 5836SOL    HW218396   1.871   3.500   9.512
 5837SOL     OW18397   3.550   2.782   9.956
 5837SOL    HW118398   3.633   2.738   9.938
 5837SOL    HW218399   3.531   2.830   9.876
 5838SOL     OW18400   3.503   2.966   9.741
 5838SOL    HW118401   3.588   2.971   9.698
 5838SOL    HW218402   3.510   3.029   9.813
 5839SOL     OW18403   1.987   2.595  10.900
 5839SOL    HW118404   2.079   2.615  10.914
 5839SOL    HW218405   1.941   2.678  10.912
 5840SOL     OW18406   2.477   3.251  10.044
 5840SOL    HW118407   2.432   3.167  10.054
 5840SOL    HW218408   2.460   3.278   9.954
 5841SOL     OW18409   3.149   3.099  10.733
 5841SOL    HW118410   3.181   3.032  10.672
 5841SOL    HW218411   3.208   3.094  10.808
 5842SOL     OW18412   2.691   1.863   9.822
 5842SOL    HW118413   2.730   1.948   9.799
 5842SOL    HW218414   2.597   1.879   9.821
 5843SOL     OW18415   2.052   2.829  10.584
 5843SOL    HW118416   2.135   2.786  10.567
 5843SOL    HW218417   1.987   2.776  10.538
 5844SOL     OW18418   3.390   2.858   9.510
 5844SOL    HW118419   3.321   2.801   9.544
 5844SOL    HW218420   3.432   2.893   9.589
 5845SOL     OW18421   3.080   3.666  10.937
 5845SOL    HW118422   3.056   3.727  10.867
 5845SOL    HW218423   3.081   3.580  10.895
 5846SOL     OW18424   3.327   3.282  10.259
 5846SOL    HW118425   3.261   3.297  10.326
 5846SOL    HW218426   3.316   3.191  10.233
 5847SOL     OW18427   3.509   3.606   9.890
 5847SOL    HW118428   3.501   3.572   9.801
 5847SOL    HW218429   3.492   3.531   9.947
 5848SOL     OW18430   2.467   2.599   9.583
 5848SOL    HW118431   2.470   2.677   9.528
 5848SOL    HW218432   2.401   2.619   9.649
 5849SOL     OW18433   3.139   2.220  10.244
 5849SOL    HW118434   3.051   2.185  10.252
 5849SOL    HW218435   3.192   2.167  10.302
 5850SOL     OW18436   3.436   3.538   9.618
 5850SOL    HW118437   3.528   3.562   9.614
 5850SOL    HW218438   3.412   3.518   9.528
 5851SOL     OW18439   2.655   2.478  10.758
 5851SOL    HW118440   2.631   2.456  10.848
 5851SOL    HW218441   2.606   2.415  10.705
 5852SOL     OW18442   3.256   2.336  10.988
 5852SOL    HW118443   3.259   2.380  11.073
 5852SOL    HW218444   3.314   2.261  10.998
 5853SOL     OW18445   2.813   2.748  10.894
 5853SOL    HW118446   2.869   2.680  10.857
 5853SOL    HW218447   2.767   2.784  10.818
 5854SOL     OW18448   2.861   2.277  10.546
 5854SOL    HW118449   2.777   2.296  10.589
 5854SOL    HW218450   2.837   2.230  10.466
 5855SOL     OW18451   2.914   2.561   9.735
 5855SOL    HW118452   2.931   2.554   9.829
 5855SOL    HW218453   2.831   2.514   9.723
 5856SOL     OW18454   1.950   2.682  10.088
 5856SOL    HW118455   2.033   2.682  10.136
 5856SOL    HW218456   1.904   2.760  10.121
 5857SOL     OW18457   1.983   3.707  10.886
 5857SOL    HW118458   1.986   3.687  10.980
 5857SOL    HW218459   1.890   3.706  10.864
 5858SOL     OW18460   2.759   2.215   9.511
 5858SOL    HW118461   2.803   2.269   9.445
 5858SOL    HW218462   2.735   2.135   9.464
 5859SOL     OW18463   3.571   2.435  11.139
 5859SOL    HW118464   3.533   2.509  11.090
 5859SOL    HW218465   3.596   2.372  11.071
 5860SOL     OW18466   3.239   3.003   9.850
 5860SOL    HW118467   3.319   2.991   9.799
 5860SOL    HW218468   3.187   3.066   9.799
 5861SOL     OW18469   2.446   2.063  10.218
 5861SOL    HW118470   2.351   2.072  10.228
 5861SOL    HW218471   2.474   2.143  10.174
 5862SOL     OW18472   2.865   3.307   9.780
 5862SOL    HW118473   2.829   3.381   9.732
 5862SOL    HW218474   2.845   3.326   9.872
 5863SOL     OW18475   2.213   3.673  10.149
 5863SOL    HW118476   2.263   3.594  10.168
 5863SOL    HW218477   2.272   3.745  10.172
 5864SOL     OW18478   3.667   2.923  10.178
 5864SOL    HW118479   3.614   2.897  10.102
 5864SOL    HW218480   3.605   2.926  10.250
 5865SOL     OW18481   3.089   3.399  10.822
 5865SOL    HW118482   3.076   3.327  10.883
 5865SOL    HW218483   3.022   3.386  10.755
 5866SOL     OW18484   2.181   2.818   9.563
 5866SOL    HW118485   2.261   2.838   9.515
 5866SOL    HW218486   2.148   2.738   9.523
 5867SOL     OW18487   3.341   2.608  10.036
 5867SOL    HW118488   3.336   2.566  10.122
 5867SOL    HW218489   3.420   2.663  10.041
 5868SOL     OW18490   2.329   3.127  11.047
 5868SOL    HW118491   2.303   3.132  10.955
 5868SOL    HW218492   2.247   3.125  11.096
 5869SOL     OW18493   2.976   3.643   9.532
 5869SOL    HW118494   2.912   3.597   9.586
 5869SOL    HW218495   3.006   3.578   9.469
 5870SOL     OW18496   3.486   3.247   9.399
 5870SOL    HW118497   3.443   3.330   9.381
 5870SOL    HW218498   3.420   3.181   9.379
 5871SOL     OW18499   2.329   3.597   9.635
 5871SOL    HW118500   2.367   3.662   9.694
 5871SOL    HW218501   2.402   3.572   9.578
 5872SOL     OW18502   3.263   1.969   9.746
 5872SOL    HW118503   3.255   1.944   9.654
 5872SOL    HW218504   3.357   1.975   9.762
 5873SOL     OW18505   2.122   3.653  10.533
 5873SOL    HW118506   2.169   3.584  10.579
 5873SOL    HW218507   2.107   3.619  10.445
 5874SOL     OW18508   2.800   3.563  10.209
 5874SOL    HW118509   2.878   3.511  10.231
 5874SOL    HW218510   2.756   3.513  10.140
 5875SOL     OW18511   2.255   2.548   9.787
 5875SOL    HW118512   2.266   2.459   9.753
 5875SOL    HW218513   2.163   2.554   9.812
 5876SOL     OW18514   3.395   2.087  11.035
 5876SOL    HW118515   3.405   2.107  11.128
 5876SOL    HW218516   3.327   2.019  11.032
 5877SOL     OW18517   2.526   1.989   9.409
 5877SOL    HW118518   2.569   1.909   9.439
 5877SOL    HW218519   2.460   1.959   9.346
 5878SOL     OW18520   2.628   2.145  11.065
 5878SOL    HW118521   2.705   2.089  11.061
 5878SOL    HW218522   2.577   2.113  11.139
 5879SOL     OW18523   2.738   3.382  10.505
 5879SOL    HW118524   2.721   3.347  10.417
 5879SOL    HW218525   2.808   3.328  10.540
 5880SOL     OW18526   3.202   2.452  10.743
 5880SOL    HW118527   3.233   2.420  10.828
 5880SOL    HW218528   3.239   2.540  10.735
 5881SOL     OW18529   2.679   3.254  10.253
 5881SOL    HW118530   2.763   3.242  10.209
 5881SOL    HW218531   2.615   3.258  10.181
 5882SOL     OW18532   2.787   2.369  10.212
 5882SOL    HW118533   2.764   2.362  10.120
 5882SOL    HW218534   2.822   2.283  10.235
 5883SOL     OW18535   2.427   1.917   9.803
 5883SOL    HW118536   2.372   1.903   9.881
 5883SOL    HW218537   2.405   2.006   9.774
 5884SOL     OW18538   3.290   3.062   9.350
 5884SOL    HW118539   3.320   2.986   9.400
 5884SOL    HW218540   3.204   3.082   9.388
 5885SOL     OW18541   2.804   2.112   9.768
 5885SOL    HW118542   2.781   2.149   9.682
 5885SOL    HW218543   2.898   2.125   9.774
 5886SOL     OW18544   2.944   2.545  10.769
 5886SOL    HW118545   2.878   2.476  10.776
 5886SOL    HW218546   3.027   2.499  10.763
 5887SOL     OW18547   3.083   3.433  10.104
 5887SOL    HW118548   3.099   3.500  10.038
 5887SOL    HW218549   3.153   3.445  10.168
 5888SOL     OW18550   2.333   3.013  10.040
 5888SOL    HW118551   2.264   2.996  10.104
 5888SOL    HW218552   2.291   2.998   9.955
 5889SOL     OW18553   3.128   3.656   9.918
 5889SOL    HW118554   3.174   3.721   9.865
 5889SOL    HW218555   3.055   3.705   9.957
 5890SOL     OW18556   2.887   2.401   9.333
 5890SOL    HW118557   2.843   2.484   9.315
 5890SOL    HW218558   2.951   2.422   9.401
 5891SOL     OW18559   1.938   2.425  10.694
 5891SOL    HW118560   2.032   2.419  10.674
 5891SOL    HW218561   1.933   2.483  10.769
 5892SOL     OW18562   2.725   2.319   9.948
 5892SOL    HW118563   2.689   2.376   9.880
 5892SOL    HW218564   2.752   2.240   9.901
 5893SOL     OW18565   2.875   1.916  10.060
 5893SOL    HW118566   2.819   1.906   9.983
 5893SOL    HW218567   2.854   1.841  10.115
 5894SOL     OW18568   3.301   3.024  10.167
 5894SOL    HW118569   3.231   2.959  10.166
 5894SOL    HW218570   3.327   3.033  10.075
 5895SOL     OW18571   3.327   2.470  10.283
 5895SOL    HW118572   3.275   2.390  10.285
 5895SOL    HW218573   3.386   2.463  10.358
 5896SOL     OW18574   3.723   2.678   9.685
 5896SOL    HW118575   3.767   2.623   9.749
 5896SOL    HW218576   3.686   2.617   9.621
 5897SOL     OW18577   2.352   3.280   9.464
 5897SOL    HW118578   2.277   3.253   9.516
 5897SOL    HW218579   2.339   3.238   9.379
 5898SOL     OW18580   3.529   3.127   9.954
 5898SOL    HW118581   3.624   3.129   9.964
 5898SOL    HW218582   3.501   3.216   9.975
 5899SOL     OW18583   3.256   2.434   9.381
 5899SOL    HW118584   3.194   2.414   9.452
 5899SOL    HW218585   3.340   2.402   9.414
 5900SOL     OW18586   3.613   3.096  10.876
 5900SOL    HW118587   3.700   3.061  10.858
 5900SOL    HW218588   3.629   3.186  10.905
 5901SOL     OW18589   2.919   3.214  10.642
 5901SOL    HW118590   2.844   3.183  10.693
 5901SOL    HW218591   2.995   3.173  10.684
 5902SOL     OW18592   3.469   3.491  10.967
 5902SOL    HW118593   3.459   3.524  10.877
 5902SOL    HW218594   3.549   3.440  10.965
 5903SOL     OW18595   2.993   3.067  10.413
 5903SOL    HW118596   2.935   3.106  10.478
 5903SOL    HW218597   2.962   3.102  10.330
 5904SOL     OW18598   3.490   2.958  10.385
 5904SOL    HW118599   3.482   3.019  10.458
 5904SOL    HW218600   3.413   2.974  10.330
 5905SOL     OW18601   2.789   1.954  10.704
 5905SOL    HW118602   2.810   1.936  10.613
 5905SOL    HW218603   2.868   1.994  10.740
 5906SOL     OW18604   2.846   2.977  11.033
 5906SOL    HW118605   2.755   2.993  11.055
 5906SOL    HW218606   2.843   2.898  10.978
 5907SOL     OW18607   2.571   2.923   9.681
 5907SOL    HW118608   2.557   2.905   9.774
 5907SOL    HW218609   2.646   2.870   9.657
 5908SOL     OW18610   2.279   2.674  10.561
 5908SOL    HW118611   2.348   2.689  10.626
 5908SOL    HW218612   2.242   2.589  10.584
 5909SOL     OW18613   3.130   2.238  10.589
 5909SOL    HW118614   3.162   2.316  10.634
 5909SOL    HW218615   3.039   2.260  10.565
 5910SOL     OW18616   1.934   3.435  10.663
 5910SOL    HW118617   1.906   3.510  10.612
 5910SOL    HW218618   2.030   3.437  10.659
 5911SOL     OW18619   2.207   2.975   9.799
 5911SOL    HW118620   2.211   3.049   9.739
 5911SOL    HW218621   2.203   2.898   9.742
 5912SOL     OW18622   2.406   2.393  10.171
 5912SOL    HW118623   2.418   2.456  10.100
 5912SOL    HW218624   2.467   2.421  10.239
 5913SOL     OW18625   3.109   3.211   9.699
 5913SOL    HW118626   3.165   3.282   9.731
 5913SOL    HW218627   3.022   3.232   9.733
 5914SOL     OW18628   3.146   3.322  10.458
 5914SOL    HW118629   3.203   3.326  10.535
 5914SOL    HW218630   3.091   3.245  10.473
 5915SOL     OW18631   3.440   2.482   9.792
 5915SOL    HW118632   3.393   2.535   9.856
 5915SOL    HW218633   3.483   2.545   9.735
 5916SOL     OW18634   2.207   3.391  10.622
 5916SOL    HW118635   2.196   3.347  10.538
 5916SOL    HW218636   2.302   3.402  10.630
 5917SOL     OW18637   2.284   2.605  10.919
 5917SOL    HW118638   2.342   2.649  10.857
 5917SOL    HW218639   2.334   2.529  10.949
 5918SOL     OW18640   3.466   2.641  10.993
 5918SOL    HW118641   3.381   2.683  10.987
 5918SOL    HW218642   3.519   2.684  10.926
 5919SOL     OW18643   2.856   1.990  11.058
 5919SOL    HW118644   2.916   2.062  11.039
 5919SOL    HW218645   2.905   1.911  11.036
 5920SOL     OW18646   2.361   1.898  11.070
 5920SOL    HW118647   2.313   1.849  11.003
 5920SOL    HW218648   2.302   1.970  11.093
 5921SOL     OW18649   2.451   2.736  10.343
 5921SOL    HW118650   2.484   2.825  10.341
 5921SOL    HW218651   2.392   2.734  10.419
 5922SOL     OW18652   3.216   2.721  10.336
 5922SOL    HW118653   3.132   2.708  10.291
 5922SOL    HW218654   3.260   2.636  10.329
 5923SOL     OW18655   3.064   2.390   9.574
 5923SOL    HW118656   3.072   2.311   9.628
 5923SOL    HW218657   3.022   2.454   9.631
 5924SOL     OW18658   1.908   3.173  10.586
 5924SOL    HW118659   1.941   3.119  10.657
 5924SOL    HW218660   1.914   3.263  10.619
 5925SOL     OW18661   2.581   2.486  10.365
 5925SOL    HW118662   2.657   2.470  10.309
 5925SOL    HW218663   2.557   2.577  10.346
 5926SOL     OW18664   3.592   2.822  11.171
 5926SOL    HW118665   3.552   2.757  11.113
 5926SOL    HW218666   3.529   2.835  11.241
 5927SOL     OW18667   3.481   2.238   9.674
 5927SOL    HW118668   3.508   2.173   9.739
 5927SOL    HW218669   3.458   2.315   9.726
 5928SOL     OW18670   2.889   2.620  10.269
 5928SOL    HW118671   2.884   2.637  10.363
 5928SOL    HW218672   2.863   2.528  10.260
 5929SOL     OW18673   2.847   3.430  11.030
 5929SOL    HW118674   2.828   3.471  10.946
 5929SOL    HW218675   2.889   3.347  11.008
 5930SOL     OW18676   3.705   3.361  10.908
 5930SOL    HW118677   3.729   3.390  10.820
 5930SOL    HW218678   3.785   3.371  10.959
 5931SOL     OW18679   2.215   2.777  11.122
 5931SOL    HW118680   2.297   2.800  11.166
 5931SOL    HW218681   2.241   2.717  11.051
 5932SOL     OW18682   3.391   2.135   9.437
 5932SOL    HW118683   3.326   2.069   9.464
 5932SOL    HW218684   3.424   2.170   9.519
 5933SOL     OW18685   3.151   2.687   9.339
 5933SOL    HW118686   3.194   2.602   9.344
 5933SOL    HW218687   3.184   2.726   9.259
 5934SOL     OW18688   2.929   3.199  10.165
 5934SOL    HW118689   2.933   3.126  10.103
 5934SOL    HW218690   2.989   3.264  10.130
 5935SOL     OW18691   2.175   2.681  10.253
 5935SOL    HW118692   2.266   2.705  10.234
 5935SOL    HW218693   2.182   2.597  10.299
 5936SOL     OW18694   2.996   2.238  10.992
 5936SOL    HW118695   2.948   2.291  11.056
 5936SOL    HW218696   3.083   2.276  10.990
 5937SOL     OW18697   3.026   2.064  10.780
 5937SOL    HW118698   3.014   2.126  10.852
 5937SOL    HW218699   3.068   2.115  10.711
 5938SOL     OW18700   1.868   3.180   9.504
 5938SOL    HW118701   1.781   3.196   9.468
 5938SOL    HW218702   1.864   3.091   9.539
 5939SOL     OW18703   1.959   3.640  10.248
 5939SOL    HW118704   1.928   3.562  10.203
 5939SOL    HW218705   2.044   3.659  10.208
 5940SOL     OW18706   2.356   3.438  10.215
 5940SOL    HW118707   2.423   3.501  10.240
 5940SOL    HW218708   2.401   3.375  10.158
 5941SOL     OW18709   2.841   2.651  10.535
 5941SOL    HW118710   2.901   2.631  10.607
 5941SOL    HW218711   2.756   2.617  10.564
 5942SOL     OW18712   1.887   2.397  10.428
 5942SOL    HW118713   1.968   2.399  10.376
 5942SOL    HW218714   1.915   2.412  10.518
 5943SOL     OW18715   3.241   2.799  10.968
 5943SOL    HW118716   3.262   2.892  10.965
 5943SOL    HW218717   3.238   2.772  10.876
 5944SOL     OW18718   2.678   2.431   9.679
 5944SOL    HW118719   2.686   2.359   9.617
 5944SOL    HW218720   2.607   2.485   9.643
 5945SOL     OW18721   3.502   2.464  10.494
 5945SOL    HW118722   3.491   2.403  10.567
 5945SOL    HW218723   3.588   2.442  10.458
 5946SOL     OW18724   2.104   3.411  11.035
 5946SOL    HW118725   2.081   3.478  11.099
 5946SOL    HW218726   2.107   3.329  11.085
 5947SOL     OW18727   2.532   2.323  10.573
 5947SOL    HW118728   2.523   2.234  10.539
 5947SOL    HW218729   2.548   2.377  10.496
 5948SOL     OW18730   2.789   3.534  10.779
 5948SOL    HW118731   2.762   3.496  10.695
 5948SOL    HW218732   2.781   3.628  10.766
 5949SOL     OW18733   2.331   2.376   9.521
 5949SOL    HW118734   2.392   2.449   9.531
 5949SOL    HW218735   2.249   2.417   9.493
 5950SOL     OW18736   2.006   3.004  10.785
 5950SOL    HW118737   2.006   2.953  10.866
 5950SOL    HW218738   2.023   2.940  10.716
 5951SOL     OW18739   3.184   2.907  10.532
 5951SOL    HW118740   3.207   2.844  10.464
 5951SOL    HW218741   3.116   2.961  10.492
 5952SOL     OW18742   3.174   2.718   9.615
 5952SOL    HW118743   3.100   2.687   9.666
 5952SOL    HW218744   3.149   2.704   9.524
 5953SOL     OW18745   3.639   3.603  10.465
 5953SOL    HW118746   3.697   3.629  10.393
 5953SOL    HW218747   3.612   3.514  10.442
 5954SOL     OW18748   3.106   3.595  10.419
 5954SOL    HW118749   3.189   3.617  10.376
 5954SOL    HW218750   3.112   3.502  10.439
 5955SOL     OW18751   1.947   3.128  10.322
 5955SOL    HW118752   1.932   3.143  10.415
 5955SOL    HW218753   1.873   3.074  10.294
 5956SOL     OW18754   2.540   3.526  11.043
 5956SOL    HW118755   2.484   3.603  11.047
 5956SOL    HW218756   2.601   3.546  10.971
 5957SOL     OW18757   3.572   2.012   9.821
 5957SOL    HW118758   3.640   2.000   9.755
 5957SOL    HW218759   3.561   1.926   9.861
 5958SOL     OW18760   3.252   3.430   9.797
 5958SOL    HW118761   3.311   3.464   9.730
 5958SOL    HW218762   3.204   3.508   9.828
 5959SOL     OW18763   1.997   3.652  11.148
 5959SOL    HW118764   1.945   3.588  11.198
 5959SOL    HW218765   2.045   3.700  11.215
 5960SOL     OW18766   3.139   2.788   9.981
 5960SOL    HW118767   3.213   2.728   9.990
 5960SOL    HW218768   3.173   2.860   9.928
 5961SOL     OW18769   2.672   3.136  10.738
 5961SOL    HW118770   2.644   3.176  10.820
 5961SOL    HW218771   2.603   3.160  10.676
 5962SOL     OW18772   2.537   3.479   9.468
 5962SOL    HW118773   2.546   3.497   9.374
 5962SOL    HW218774   2.478   3.404   9.472
 5963SOL     OW18775   3.481   3.589  10.700
 5963SOL    HW118776   3.537   3.592  10.622
 5963SOL    HW218777   3.469   3.680  10.724
 5964SOL     OW18778   3.700   2.043  10.277
 5964SOL    HW118779   3.731   1.956  10.252
 5964SOL    HW218780   3.614   2.051  10.236
 5965SOL     OW18781   3.069   3.466   9.346
 5965SOL    HW118782   3.059   3.374   9.370
 5965SOL    HW218783   3.008   3.479   9.273
 5966SOL     OW18784   2.686   2.868  10.683
 5966SOL    HW118785   2.731   2.864  10.598
 5966SOL    HW218786   2.683   2.961  10.704
 5967SOL     OW18787   2.778   2.773   9.600
 5967SOL    HW118788   2.839   2.805   9.534
 5967SOL    HW218789   2.827   2.704   9.646
 5968SOL     OW18790   3.350   3.494   9.352
 5968SOL    HW118791   3.256   3.481   9.336
 5968SOL    HW218792   3.389   3.498   9.265
 5969SOL     OW18793   2.231   3.165  10.801
 5969SOL    HW118794   2.217   3.243  10.746
 5969SOL    HW218795   2.153   3.111  10.787
 5970SOL     OW18796   3.462   3.141  10.588
 5970SOL    HW118797   3.531   3.133  10.653
 5970SOL    HW218798   3.406   3.211  10.620
 5971SOL     OW18799   2.918   2.970  10.018
 5971SOL    HW118800   2.846   2.919  10.056
 5971SOL    HW218801   2.982   2.905   9.989
 5972SOL     OW18802   2.883   2.103  10.276
 5972SOL    HW118803   2.878   2.055  10.193
 5972SOL    HW218804   2.880   2.034  10.343
 5973SOL     OW18805   2.466   3.352   9.790
 5973SOL    HW118806   2.512   3.302   9.723
 5973SOL    HW218807   2.397   3.398   9.742
 5974SOL     OW18808   3.586   2.252  10.688
 5974SOL    HW118809   3.658   2.315  10.685
 5974SOL    HW218810   3.615   2.180  10.632
 5975SOL     OW18811   2.122   3.205   9.600
 5975SOL    HW118812   2.030   3.202   9.577
 5975SOL    HW218813   2.124   3.244   9.688
 5976SOL     OW18814   1.975   2.885  11.030
 5976SOL    HW118815   1.898   2.862  11.082
 5976SOL    HW218816   2.049   2.847  11.078
 5977SOL     OW18817   2.550   2.043  10.806
 5977SOL    HW118818   2.637   2.021  10.773
 5977SOL    HW218819   2.566   2.087  10.889
 5978SOL     OW18820   1.889   2.266   9.331
 5978SOL    HW118821   1.812   2.215   9.307
 5978SOL    HW218822   1.917   2.308   9.250
 5979SOL     OW18823   3.288   2.720  10.709
 5979SOL    HW118824   3.239   2.782  10.655
 5979SOL    HW218825   3.377   2.722  10.672
 5980SOL     OW18826   3.040   3.199   9.427
 5980SOL    HW118827   2.949   3.170   9.429
 5980SOL    HW218828   3.067   3.199   9.519
 5981SOL     OW18829   2.482   2.692  10.742
 5981SOL    HW118830   2.537   2.769  10.728
 5981SOL    HW218831   2.543   2.619  10.751
 5982SOL     OW18832   3.347   3.643  10.292
 5982SOL    HW118833   3.371   3.697  10.217
 5982SOL    HW218834   3.431   3.612  10.327
 5983SOL     OW18835   2.575   2.425  11.011
 5983SOL    HW118836   2.620   2.484  11.072
 5983SOL    HW218837   2.595   2.337  11.043
 5984SOL     OW18838   3.335   3.060  10.940
 5984SOL    HW118839   3.324   3.074  11.034
 5984SOL    HW218840   3.428   3.075  10.924
 5985SOL     OW18841   2.237   3.602  10.875
 5985SOL    HW118842   2.152   3.644  10.859
 5985SOL    HW218843   2.215   3.519  10.916
 5986SOL     OW18844   3.527   2.742  10.569
 5986SOL    HW118845   3.525   2.657  10.526
 5986SOL    HW218846   3.520   2.805  10.497
 5987SOL     OW18847   3.079   2.181   9.768
 5987SOL    HW118848   3.141   2.109   9.760
 5987SOL    HW218849   3.108   2.230   9.844
 5988SOL     OW18850   2.444   2.597   9.985
 5988SOL    HW118851   2.488   2.681   9.968
 5988SOL    HW218852   2.380   2.589   9.915
 5989SOL     OW18853   3.621   2.228  10.960
 5989SOL    HW118854   3.604   2.241  10.867
 5989SOL    HW218855   3.550   2.169  10.989
 5990SOL     OW18856   3.618   2.790  10.823
 5990SOL    HW118857   3.609   2.884  10.841
 5990SOL    HW218858   3.594   2.781  10.731
 5991SOL     OW18859   2.725   3.229   9.349
 5991SOL    HW118860   2.685   3.257   9.431
 5991SOL    HW218861   2.741   3.310   9.300
 5992SOL     OW18862   2.522   3.651  10.249
 5992SOL    HW118863   2.501   3.742  10.228
 5992SOL    HW218864   2.618   3.646  10.244
 5993SOL     OW18865   2.730   2.830  10.164
 5993SOL    HW118866   2.780   2.758  10.203
 5993SOL    HW218867   2.695   2.878  10.240
 5994SOL     OW18868   2.939   2.850   9.398
 5994SOL    HW118869   2.919   2.902   9.320
 5994SOL    HW218870   3.014   2.796   9.372
 5995SOL     OW18871   3.712   3.416  10.150
 5995SOL    HW118872   3.633   3.397  10.101
 5995SOL    HW218873   3.715   3.349  10.218
 5996SOL     OW18874   2.088   3.163  11.166
 5996SOL    HW118875   2.021   3.103  11.135
 5996SOL    HW218876   2.068   3.176  11.258
 5997SOL     OW18877   1.947   3.093   9.975
 5997SOL    HW118878   1.956   3.047  10.059
 5997SOL    HW218879   2.015   3.054   9.919
 5998SOL     OW18880   2.545   3.266  10.940
 5998SOL    HW118881   2.465   3.224  10.971
 5998SOL    HW218882   2.542   3.355  10.977
 5999SOL     OW18883   3.674   2.040  10.548
 5999SOL    HW118884   3.667   1.945  10.551
 5999SOL    HW218885   3.689   2.060  10.456
 6000SOL     OW18886   3.558   3.352  10.406
 6000SOL    HW118887   3.479   3.327  10.357
 6000SOL    HW218888   3.570   3.281  10.469
 6001SOL     OW18889   2.200   2.408  10.591
 6001SOL    HW118890   2.195   2.326  10.640
 6001SOL    HW218891   2.275   2.397  10.533
 6002SOL     OW18892   2.690   3.441   9.987
 6002SOL    HW118893   2.673   3.493   9.909
 6002SOL    HW218894   2.616   3.381   9.992
 6003SOL     OW18895   3.293   2.089  10.426
 6003SOL    HW118896   3.314   2.006  10.469
 6003SOL    HW218897   3.243   2.138  10.492
 6004SOL     OW18898   2.873   1.880  10.449
 6004SOL    HW118899   2.817   1.813  10.408
 6004SOL    HW218900   2.960   1.841  10.450
 6005SOL     OW18901   2.635   3.194   9.629
 6005SOL    HW118902   2.605   3.104   9.635
 6005SOL    HW218903   2.717   3.196   9.677
 6006SOL     OW18904   2.482   3.415  10.595
 6006SOL    HW118905   2.482   3.496  10.645
 6006SOL    HW218906   2.570   3.409  10.558
 6007SOL     OW18907   3.217   1.915   9.477
 6007SOL    HW118908   3.247   1.846   9.418
 6007SOL    HW218909   3.128   1.888   9.502
 6008SOL     OW18910   3.157   2.324   9.990
 6008SOL    HW118911   3.105   2.404   9.996
 6008SOL    HW218912   3.154   2.286  10.077
 6009SOL     OW18913   3.444   2.060  10.188
 6009SOL    HW118914   3.388   2.084  10.262
 6009SOL    HW218915   3.445   2.138  10.132
 6010SOL     OW18916   1.905   2.930   9.618
 6010SOL    HW118917   1.998   2.923   9.600
 6010SOL    HW218918   1.877   2.841   9.640
 6011SOL     OW18919   2.748   3.521   9.653
 6011SOL    HW118920   2.677   3.502   9.592
 6011SOL    HW218921   2.717   3.596   9.703
 6012SOL     OW18922   2.087   2.505  11.305
 6012SOL    HW118923   2.001   2.482  11.341
 6012SOL    HW218924   2.077   2.494  11.211
 6013SOL     OW18925   1.853   2.282  11.788
 6013SOL    HW118926   1.767   2.281  11.829
 6013SOL    HW218927   1.856   2.200  11.738
 6014SOL     OW18928   2.429   3.154  12.350
 6014SOL    HW118929   2.342   3.160  12.310
 6014SOL    HW218930   2.445   3.242  12.384
 6015SOL     OW18931   3.425   3.374  11.881
 6015SOL    HW118932   3.383   3.352  11.964
 6015SOL    HW218933   3.354   3.378  11.817
 6016SOL     OW18934   2.991   2.561  11.870
 6016SOL    HW118935   3.041   2.641  11.856
 6016SOL    HW218936   2.946   2.575  11.953
 6017SOL     OW18937   3.629   2.468  11.401
 6017SOL    HW118938   3.609   2.460  11.308
 6017SOL    HW218939   3.595   2.387  11.440
 6018SOL     OW18940   2.612   3.001  12.215
 6018SOL    HW118941   2.544   3.038  12.272
 6018SOL    HW218942   2.650   3.077  12.171
 6019SOL     OW18943   2.731   2.631  12.994
 6019SOL    HW118944   2.721   2.703  13.058
 6019SOL    HW218945   2.755   2.675  12.913
 6020SOL     OW18946   2.547   2.860  11.817
 6020SOL    HW118947   2.613   2.851  11.886
 6020SOL    HW218948   2.479   2.914  11.856
 6021SOL     OW18949   2.574   3.013  12.986
 6021SOL    HW118950   2.622   3.091  13.015
 6021SOL    HW218951   2.493   3.047  12.949
 6022SOL     OW18952   2.194   3.283  12.239
 6022SOL    HW118953   2.119   3.247  12.191
 6022SOL    HW218954   2.240   3.336  12.174
 6023SOL     OW18955   3.321   3.363  12.529
 6023SOL    HW118956   3.375   3.441  12.539
 6023SOL    HW218957   3.256   3.370  12.598
 6024SOL     OW18958   3.472   2.308  11.916
 6024SOL    HW118959   3.399   2.330  11.857
 6024SOL    HW218960   3.484   2.386  11.969
 6025SOL     OW18961   2.083   3.578  11.651
 6025SOL    HW118962   2.114   3.638  11.719
 6025SOL    HW218963   2.155   3.575  11.588
 6026SOL     OW18964   2.999   3.204  12.865
 6026SOL    HW118965   3.040   3.198  12.952
 6026SOL    HW218966   2.947   3.124  12.858
 6027SOL     OW18967   2.091   3.304  11.708
 6027SOL    HW118968   2.074   3.398  11.711
 6027SOL    HW218969   2.033   3.266  11.773
 6028SOL     OW18970   2.123   2.957  12.062
 6028SOL    HW118971   2.118   2.870  12.101
 6028SOL    HW218972   2.065   3.011  12.116
 6029SOL     OW18973   2.470   3.648  12.600
 6029SOL    HW118974   2.389   3.633  12.648
 6029SOL    HW218975   2.496   3.736  12.624
 6030SOL     OW18976   2.446   2.847  11.307
 6030SOL    HW118977   2.493   2.894  11.238
 6030SOL    HW218978   2.484   2.880  11.389
 6031SOL     OW18979   3.457   1.988  12.638
 6031SOL    HW118980   3.471   2.069  12.590
 6031SOL    HW218981   3.442   2.015  12.728
 6032SOL     OW18982   1.986   2.517  11.733
 6032SOL    HW118983   1.945   2.433  11.747
 6032SOL    HW218984   1.972   2.566  11.814
 6033SOL     OW18985   3.700   3.613  11.514
 6033SOL    HW118986   3.771   3.588  11.573
 6033SOL    HW218987   3.719   3.704  11.490
 6034SOL     OW18988   1.892   3.453  11.294
 6034SOL    HW118989   1.876   3.361  11.315
 6034SOL    HW218990   1.871   3.500  11.374
 6035SOL     OW18991   3.550   2.782  11.818
 6035SOL    HW118992   3.633   2.738  11.800
 6035SOL    HW218993   3.531   2.830  11.738
 6036SOL     OW18994   3.503   2.966  11.603
 6036SOL    HW118995   3.588   2.971  11.560
 6036SOL    HW218996   3.510   3.029  11.675
 6037SOL     OW18997   1.987   2.598  12.757
 6037SOL    HW118998   2.080   2.617  12.775
 6037SOL    HW218999   1.943   2.681  12.773
 6038SOL     OW19000   2.477   3.251  11.907
 6038SOL    HW119001   2.432   3.167  11.916
 6038SOL    HW219002   2.460   3.278  11.816
 6039SOL     OW19003   3.149   3.099  12.595
 6039SOL    HW119004   3.181   3.032  12.534
 6039SOL    HW219005   3.208   3.094  12.670
 6040SOL     OW19006   2.693   1.863  11.684
 6040SOL    HW119007   2.731   1.947  11.661
 6040SOL    HW219008   2.599   1.878  11.683
 6041SOL     OW19009   2.052   2.830  12.446
 6041SOL    HW119010   2.135   2.786  12.429
 6041SOL    HW219011   1.987   2.774  12.402
 6042SOL     OW19012   3.390   2.858  11.372
 6042SOL    HW119013   3.321   2.801  11.406
 6042SOL    HW219014   3.432   2.893  11.451
 6043SOL     OW19015   3.080   3.666  12.799
 6043SOL    HW119016   3.056   3.726  12.729
 6043SOL    HW219017   3.081   3.580  12.757
 6044SOL     OW19018   3.327   3.282  12.121
 6044SOL    HW119019   3.261   3.297  12.188
 6044SOL    HW219020   3.316   3.191  12.095
 6045SOL     OW19021   3.509   3.606  11.752
 6045SOL    HW119022   3.501   3.572  11.663
 6045SOL    HW219023   3.492   3.531  11.809
 6046SOL     OW19024   2.466   2.597  11.444
 6046SOL    HW119025   2.470   2.676  11.390
 6046SOL    HW219026   2.401   2.618  11.511
 6047SOL     OW19027   3.139   2.220  12.106
 6047SOL    HW119028   3.051   2.185  12.114
 6047SOL    HW219029   3.192   2.167  12.164
 6048SOL     OW19030   3.436   3.538  11.480
 6048SOL    HW119031   3.528   3.562  11.476
 6048SOL    HW219032   3.412   3.518  11.390
 6049SOL     OW19033   2.655   2.479  12.621
 6049SOL    HW119034   2.632   2.456  12.711
 6049SOL    HW219035   2.608   2.415  12.567
 6050SOL     OW19036   3.256   2.336  12.850
 6050SOL    HW119037   3.259   2.380  12.935
 6050SOL    HW219038   3.314   2.260  12.860
 6051SOL     OW19039   2.814   2.748  12.756
 6051SOL    HW119040   2.870   2.680  12.719
 6051SOL    HW219041   2.767   2.784  12.680
 6052SOL     OW19042   2.860   2.277  12.408
 6052SOL    HW119043   2.776   2.296  12.450
 6052SOL    HW219044   2.837   2.230  12.328
 6053SOL     OW19045   2.914   2.561  11.597
 6053SOL    HW119046   2.931   2.554  11.691
 6053SOL    HW219047   2.831   2.514  11.585
 6054SOL     OW19048   1.950   2.683  11.950
 6054SOL    HW119049   2.033   2.682  11.998
 6054SOL    HW219050   1.904   2.760  11.983
 6055SOL     OW19051   1.983   3.708  12.748
 6055SOL    HW119052   1.986   3.687  12.842
 6055SOL    HW219053   1.890   3.705  12.726
 6056SOL     OW19054   2.760   2.215  11.372
 6056SOL    HW119055   2.803   2.270  11.307
 6056SOL    HW219056   2.737   2.135  11.325
 6057SOL     OW19057   3.571   2.436  13.001
 6057SOL    HW119058   3.533   2.509  12.952
 6057SOL    HW219059   3.595   2.372  12.934
 6058SOL     OW19060   3.239   3.003  11.712
 6058SOL    HW119061   3.319   2.991  11.661
 6058SOL    HW219062   3.187   3.066  11.661
 6059SOL     OW19063   2.448   2.062  12.082
 6059SOL    HW119064   2.353   2.070  12.094
 6059SOL    HW219065   2.472   2.141  12.034
 6060SOL     OW19066   2.865   3.307  11.642
 6060SOL    HW119067   2.829   3.381  11.594
 6060SOL    HW219068   2.845   3.326  11.734
 6061SOL     OW19069   2.213   3.673  12.011
 6061SOL    HW119070   2.263   3.594  12.029
 6061SOL    HW219071   2.272   3.745  12.034
 6062SOL     OW19072   3.667   2.923  12.040
 6062SOL    HW119073   3.614   2.897  11.964
 6062SOL    HW219074   3.605   2.926  12.112
 6063SOL     OW19075   3.089   3.399  12.684
 6063SOL    HW119076   3.076   3.327  12.745
 6063SOL    HW219077   3.022   3.386  12.617
 6064SOL     OW19078   2.181   2.818  11.425
 6064SOL    HW119079   2.261   2.838  11.377
 6064SOL    HW219080   2.148   2.737  11.385
 6065SOL     OW19081   3.341   2.608  11.898
 6065SOL    HW119082   3.336   2.566  11.984
 6065SOL    HW219083   3.420   2.663  11.903
 6066SOL     OW19084   2.329   3.127  12.909
 6066SOL    HW119085   2.303   3.132  12.817
 6066SOL    HW219086   2.247   3.125  12.958
 6067SOL     OW19087   2.976   3.643  11.394
 6067SOL    HW119088   2.912   3.597  11.448
 6067SOL    HW219089   3.006   3.578  11.331
 6068SOL     OW19090   3.486   3.247  11.261
 6068SOL    HW119091   3.443   3.330  11.243
 6068SOL    HW219092   3.420   3.181  11.241
 6069SOL     OW19093   2.329   3.597  11.497
 6069SOL    HW119094   2.367   3.662  11.556
 6069SOL    HW219095   2.402   3.572  11.440
 6070SOL     OW19096   3.263   1.969  11.608
 6070SOL    HW119097   3.255   1.944  11.516
 6070SOL    HW219098   3.357   1.975  11.624
 6071SOL     OW19099   2.122   3.653  12.395
 6071SOL    HW119100   2.169   3.584  12.441
 6071SOL    HW219101   2.107   3.619  12.307
 6072SOL     OW19102   2.800   3.563  12.071
 6072SOL    HW119103   2.877   3.511  12.093
 6072SOL    HW219104   2.756   3.513  12.002
 6073SOL     OW19105   2.255   2.548  11.649
 6073SOL    HW119106   2.265   2.459  11.615
 6073SOL    HW219107   2.163   2.554  11.674
 6074SOL     OW19108   3.395   2.087  12.897
 6074SOL    HW119109   3.405   2.107  12.990
 6074SOL    HW219110   3.327   2.020  12.894
 6075SOL     OW19111   2.524   1.989  11.271
 6075SOL    HW119112   2.569   1.909  11.301
 6075SOL    HW219113   2.460   1.957  11.207
 6076SOL     OW19114   2.628   2.146  12.927
 6076SOL    HW119115   2.705   2.089  12.923
 6076SOL    HW219116   2.578   2.113  13.001
 6077SOL     OW19117   2.738   3.382  12.367
 6077SOL    HW119118   2.721   3.347  12.279
 6077SOL    HW219119   2.808   3.328  12.402
 6078SOL     OW19120   3.202   2.452  12.605
 6078SOL    HW119121   3.233   2.420  12.690
 6078SOL    HW219122   3.239   2.540  12.597
 6079SOL     OW19123   2.679   3.254  12.115
 6079SOL    HW119124   2.763   3.242  12.071
 6079SOL    HW219125   2.615   3.258  12.043
 6080SOL     OW19126   2.787   2.369  12.074
 6080SOL    HW119127   2.764   2.362  11.982
 6080SOL    HW219128   2.822   2.283  12.097
 6081SOL     OW19129   2.429   1.914  11.665
 6081SOL    HW119130   2.374   1.901  11.743
 6081SOL    HW219131   2.407   2.002  11.635
 6082SOL     OW19132   3.290   3.062  11.212
 6082SOL    HW119133   3.320   2.986  11.262
 6082SOL    HW219134   3.204   3.082  11.250
 6083SOL     OW19135   2.804   2.112  11.629
 6083SOL    HW119136   2.781   2.149  11.544
 6083SOL    HW219137   2.898   2.125  11.636
 6084SOL     OW19138   2.944   2.545  12.631
 6084SOL    HW119139   2.878   2.476  12.638
 6084SOL    HW219140   3.027   2.499  12.625
 6085SOL     OW19141   3.083   3.433  11.966
 6085SOL    HW119142   3.099   3.500  11.900
 6085SOL    HW219143   3.153   3.445  12.030
 6086SOL     OW19144   2.333   3.013  11.902
 6086SOL    HW119145   2.264   2.996  11.966
 6086SOL    HW219146   2.291   2.998  11.817
 6087SOL     OW19147   3.128   3.656  11.780
 6087SOL    HW119148   3.174   3.721  11.727
 6087SOL    HW219149   3.055   3.705  11.819
 6088SOL     OW19150   2.887   2.401  11.195
 6088SOL    HW119151   2.843   2.484  11.177
 6088SOL    HW219152   2.951   2.422  11.263
 6089SOL     OW19153   1.938   2.425  12.555
 6089SOL    HW119154   2.031   2.420  12.536
 6089SOL    HW219155   1.932   2.483  12.631
 6090SOL     OW19156   2.725   2.319  11.810
 6090SOL    HW119157   2.689   2.377  11.742
 6090SOL    HW219158   2.752   2.240  11.763
 6091SOL     OW19159   2.875   1.916  11.922
 6091SOL    HW119160   2.820   1.905  11.845
 6091SOL    HW219161   2.854   1.841  11.977
 6092SOL     OW19162   3.301   3.024  12.029
 6092SOL    HW119163   3.231   2.959  12.028
 6092SOL    HW219164   3.327   3.033  11.937
 6093SOL     OW19165   3.327   2.470  12.145
 6093SOL    HW119166   3.275   2.390  12.147
 6093SOL    HW219167   3.386   2.463  12.220
 6094SOL     OW19168   3.723   2.678  11.547
 6094SOL    HW119169   3.767   2.623  11.611
 6094SOL    HW219170   3.686   2.617  11.483
 6095SOL     OW19171   2.352   3.280  11.326
 6095SOL    HW119172   2.277   3.253  11.378
 6095SOL    HW219173   2.340   3.237  11.241
 6096SOL     OW19174   3.529   3.127  11.816
 6096SOL    HW119175   3.624   3.129  11.825
 6096SOL    HW219176   3.501   3.216  11.837
 6097SOL     OW19177   3.256   2.434  11.244
 6097SOL    HW119178   3.194   2.414  11.314
 6097SOL    HW219179   3.340   2.401  11.276
 6098SOL     OW19180   3.613   3.096  12.738
 6098SOL    HW119181   3.700   3.061  12.720
 6098SOL    HW219182   3.629   3.186  12.767
 6099SOL     OW19183   2.919   3.214  12.504
 6099SOL    HW119184   2.844   3.183  12.555
 6099SOL    HW219185   2.995   3.173  12.546
 6100SOL     OW19186   3.469   3.491  12.828
 6100SOL    HW119187   3.460   3.524  12.739
 6100SOL    HW219188   3.549   3.440  12.827
 6101SOL     OW19189   2.993   3.067  12.275
 6101SOL    HW119190   2.935   3.106  12.340
 6101SOL    HW219191   2.962   3.102  12.192
 6102SOL     OW19192   3.490   2.958  12.247
 6102SOL    HW119193   3.482   3.019  12.320
 6102SOL    HW219194   3.413   2.974  12.193
 6103SOL     OW19195   2.788   1.955  12.566
 6103SOL    HW119196   2.809   1.936  12.475
 6103SOL    HW219197   2.867   1.994  12.602
 6104SOL     OW19198   2.846   2.977  12.895
 6104SOL    HW119199   2.755   2.993  12.917
 6104SOL    HW219200   2.844   2.898  12.840
 6105SOL     OW19201   2.571   2.923  11.543
 6105SOL    HW119202   2.557   2.905  11.636
 6105SOL    HW219203   2.646   2.870  11.519
 6106SOL     OW19204   2.279   2.674  12.423
 6106SOL    HW119205   2.348   2.689  12.488
 6106SOL    HW219206   2.242   2.589  12.446
 6107SOL     OW19207   3.129   2.238  12.450
 6107SOL    HW119208   3.161   2.316  12.496
 6107SOL    HW219209   3.039   2.260  12.427
 6108SOL     OW19210   1.934   3.435  12.526
 6108SOL    HW119211   1.906   3.510  12.474
 6108SOL    HW219212   2.030   3.437  12.521
 6109SOL     OW19213   2.207   2.975  11.661
 6109SOL    HW119214   2.211   3.049  11.601
 6109SOL    HW219215   2.203   2.898  11.604
 6110SOL     OW19216   2.405   2.394  12.033
 6110SOL    HW119217   2.417   2.457  11.962
 6110SOL    HW219218   2.466   2.422  12.101
 6111SOL     OW19219   3.109   3.211  11.561
 6111SOL    HW119220   3.165   3.282  11.593
 6111SOL    HW219221   3.022   3.232  11.595
 6112SOL     OW19222   3.146   3.322  12.320
 6112SOL    HW119223   3.203   3.326  12.397
 6112SOL    HW219224   3.091   3.245  12.335
 6113SOL     OW19225   3.440   2.482  11.654
 6113SOL    HW119226   3.392   2.535  11.718
 6113SOL    HW219227   3.483   2.546  11.597
 6114SOL     OW19228   2.207   3.391  12.484
 6114SOL    HW119229   2.196   3.347  12.400
 6114SOL    HW219230   2.302   3.402  12.492
 6115SOL     OW19231   2.283   2.606  12.781
 6115SOL    HW119232   2.342   2.649  12.719
 6115SOL    HW219233   2.332   2.529  12.810
 6116SOL     OW19234   3.466   2.641  12.855
 6116SOL    HW119235   3.381   2.684  12.849
 6116SOL    HW219236   3.519   2.684  12.788
 6117SOL     OW19237   2.856   1.990  12.920
 6117SOL    HW119238   2.916   2.062  12.900
 6117SOL    HW219239   2.905   1.911  12.898
 6118SOL     OW19240   2.355   1.904  12.933
 6118SOL    HW119241   2.310   1.854  12.864
 6118SOL    HW219242   2.294   1.976  12.953
 6119SOL     OW19243   2.451   2.736  12.205
 6119SOL    HW119244   2.483   2.825  12.203
 6119SOL    HW219245   2.392   2.734  12.281
 6120SOL     OW19246   3.216   2.721  12.198
 6120SOL    HW119247   3.132   2.708  12.154
 6120SOL    HW219248   3.260   2.636  12.191
 6121SOL     OW19249   3.064   2.390  11.436
 6121SOL    HW119250   3.072   2.311  11.490
 6121SOL    HW219251   3.022   2.454  11.493
 6122SOL     OW19252   1.909   3.173  12.447
 6122SOL    HW119253   1.941   3.119  12.519
 6122SOL    HW219254   1.914   3.263  12.481
 6123SOL     OW19255   2.581   2.486  12.227
 6123SOL    HW119256   2.657   2.470  12.171
 6123SOL    HW219257   2.557   2.577  12.208
 6124SOL     OW19258   3.593   2.820  13.034
 6124SOL    HW119259   3.552   2.756  12.976
 6124SOL    HW219260   3.529   2.834  13.104
 6125SOL     OW19261   3.481   2.238  11.536
 6125SOL    HW119262   3.508   2.173  11.601
 6125SOL    HW219263   3.458   2.315  11.588
 6126SOL     OW19264   2.889   2.620  12.131
 6126SOL    HW119265   2.884   2.637  12.225
 6126SOL    HW219266   2.863   2.528  12.122
 6127SOL     OW19267   2.847   3.430  12.892
 6127SOL    HW119268   2.828   3.471  12.808
 6127SOL    HW219269   2.889   3.347  12.870
 6128SOL     OW19270   3.705   3.361  12.770
 6128SOL    HW119271   3.729   3.390  12.682
 6128SOL    HW219272   3.785   3.371  12.821
 6129SOL     OW19273   2.215   2.777  12.985
 6129SOL    HW119274   2.297   2.800  13.028
 6129SOL    HW219275   2.240   2.718  12.914
 6130SOL     OW19276   3.391   2.135  11.299
 6130SOL    HW119277   3.326   2.069  11.326
 6130SOL    HW219278   3.424   2.170  11.382
 6131SOL     OW19279   3.151   2.687  11.202
 6131SOL    HW119280   3.194   2.602  11.206
 6131SOL    HW219281   3.183   2.726  11.121
 6132SOL     OW19282   2.929   3.199  12.027
 6132SOL    HW119283   2.933   3.126  11.964
 6132SOL    HW219284   2.989   3.264  11.992
 6133SOL     OW19285   2.175   2.681  12.114
 6133SOL    HW119286   2.266   2.705  12.096
 6133SOL    HW219287   2.181   2.599  12.162
 6134SOL     OW19288   2.996   2.238  12.854
 6134SOL    HW119289   2.948   2.291  12.917
 6134SOL    HW219290   3.083   2.276  12.852
 6135SOL     OW19291   3.026   2.063  12.642
 6135SOL    HW119292   3.013   2.126  12.714
 6135SOL    HW219293   3.068   2.115  12.573
 6136SOL     OW19294   1.868   3.180  11.366
 6136SOL    HW119295   1.780   3.196  11.330
 6136SOL    HW219296   1.864   3.091  11.401
 6137SOL     OW19297   1.959   3.640  12.110
 6137SOL    HW119298   1.928   3.562  12.065
 6137SOL    HW219299   2.044   3.659  12.070
 6138SOL     OW19300   2.356   3.438  12.077
 6138SOL    HW119301   2.423   3.501  12.102
 6138SOL    HW219302   2.401   3.375  12.020
 6139SOL     OW19303   2.841   2.651  12.397
 6139SOL    HW119304   2.901   2.631  12.469
 6139SOL    HW219305   2.756   2.617  12.427
 6140SOL     OW19306   1.887   2.397  12.289
 6140SOL    HW119307   1.969   2.399  12.240
 6140SOL    HW219308   1.914   2.411  12.380
 6141SOL     OW19309   3.241   2.799  12.830
 6141SOL    HW119310   3.262   2.892  12.827
 6141SOL    HW219311   3.238   2.772  12.738
 6142SOL     OW19312   2.677   2.431  11.540
 6142SOL    HW119313   2.686   2.359  11.479
 6142SOL    HW219314   2.607   2.485  11.505
 6143SOL     OW19315   3.502   2.464  12.356
 6143SOL    HW119316   3.491   2.403  12.429
 6143SOL    HW219317   3.588   2.442  12.320
 6144SOL     OW19318   2.104   3.411  12.897
 6144SOL    HW119319   2.081   3.478  12.961
 6144SOL    HW219320   2.108   3.330  12.947
 6145SOL     OW19321   2.538   2.322  12.436
 6145SOL    HW119322   2.523   2.234  12.401
 6145SOL    HW219323   2.550   2.376  12.358
 6146SOL     OW19324   2.789   3.534  12.641
 6146SOL    HW119325   2.762   3.496  12.557
 6146SOL    HW219326   2.781   3.628  12.628
 6147SOL     OW19327   2.329   2.376  11.379
 6147SOL    HW119328   2.390   2.448  11.390
 6147SOL    HW219329   2.246   2.418  11.354
 6148SOL     OW19330   2.006   3.004  12.646
 6148SOL    HW119331   2.006   2.953  12.727
 6148SOL    HW219332   2.023   2.940  12.577
 6149SOL     OW19333   3.184   2.907  12.394
 6149SOL    HW119334   3.207   2.844  12.326
 6149SOL    HW219335   3.116   2.961  12.354
 6150SOL     OW19336   3.174   2.718  11.477
 6150SOL    HW119337   3.100   2.687  11.528
 6150SOL    HW219338   3.149   2.704  11.386
 6151SOL     OW19339   3.639   3.603  12.327
 6151SOL    HW119340   3.697   3.629  12.255
 6151SOL    HW219341   3.612   3.514  12.304
 6152SOL     OW19342   3.106   3.595  12.281
 6152SOL    HW119343   3.189   3.617  12.238
 6152SOL    HW219344   3.112   3.502  12.301
 6153SOL     OW19345   1.947   3.128  12.184
 6153SOL    HW119346   1.932   3.143  12.277
 6153SOL    HW219347   1.873   3.074  12.156
 6154SOL     OW19348   2.540   3.526  12.904
 6154SOL    HW119349   2.484   3.603  12.909
 6154SOL    HW219350   2.602   3.545  12.833
 6155SOL     OW19351   3.572   2.012  11.684
 6155SOL    HW119352   3.640   2.000  11.617
 6155SOL    HW219353   3.561   1.926  11.723
 6156SOL     OW19354   3.252   3.430  11.659
 6156SOL    HW119355   3.311   3.464  11.592
 6156SOL    HW219356   3.204   3.508  11.690
 6157SOL     OW19357   1.996   3.652  13.010
 6157SOL    HW119358   1.944   3.588  13.060
 6157SOL    HW219359   2.045   3.700  13.077
 6158SOL     OW19360   3.139   2.788  11.843
 6158SOL    HW119361   3.213   2.728  11.852
 6158SOL    HW219362   3.173   2.860  11.790
 6159SOL     OW19363   2.672   3.136  12.600
 6159SOL    HW119364   2.644   3.176  12.682
 6159SOL    HW219365   2.603   3.159  12.538
 6160SOL     OW19366   2.537   3.479  11.330
 6160SOL    HW119367   2.546   3.497  11.236
 6160SOL    HW219368   2.478   3.404  11.334
 6161SOL     OW19369   3.481   3.589  12.562
 6161SOL    HW119370   3.537   3.592  12.484
 6161SOL    HW219371   3.469   3.680  12.586
 6162SOL     OW19372   3.700   2.043  12.139
 6162SOL    HW119373   3.731   1.956  12.114
 6162SOL    HW219374   3.614   2.051  12.098
 6163SOL     OW19375   3.069   3.466  11.208
 6163SOL    HW119376   3.059   3.374  11.232
 6163SOL    HW219377   3.008   3.479  11.135
 6164SOL     OW19378   2.686   2.868  12.545
 6164SOL    HW119379   2.731   2.864  12.460
 6164SOL    HW219380   2.684   2.961  12.566
 6165SOL     OW19381   2.778   2.773  11.462
 6165SOL    HW119382   2.839   2.805  11.396
 6165SOL    HW219383   2.827   2.704  11.508
 6166SOL     OW19384   3.350   3.494  11.214
 6166SOL    HW119385   3.256   3.481  11.198
 6166SOL    HW219386   3.389   3.498  11.127
 6167SOL     OW19387   2.231   3.165  12.663
 6167SOL    HW119388   2.217   3.243  12.608
 6167SOL    HW219389   2.153   3.111  12.648
 6168SOL     OW19390   3.463   3.141  12.450
 6168SOL    HW119391   3.531   3.133  12.516
 6168SOL    HW219392   3.406   3.211  12.482
 6169SOL     OW19393   2.918   2.970  11.880
 6169SOL    HW119394   2.846   2.919  11.918
 6169SOL    HW219395   2.982   2.905  11.851
 6170SOL     OW19396   2.883   2.103  12.138
 6170SOL    HW119397   2.878   2.056  12.055
 6170SOL    HW219398   2.880   2.034  12.205
 6171SOL     OW19399   2.466   3.352  11.652
 6171SOL    HW119400   2.512   3.302  11.585
 6171SOL    HW219401   2.397   3.398  11.604
 6172SOL     OW19402   3.586   2.252  12.551
 6172SOL    HW119403   3.658   2.315  12.547
 6172SOL    HW219404   3.615   2.179  12.494
 6173SOL     OW19405   2.122   3.205  11.462
 6173SOL    HW119406   2.029   3.202  11.439
 6173SOL    HW219407   2.124   3.244  11.550
 6174SOL     OW19408   1.975   2.884  12.892
 6174SOL    HW119409   1.898   2.862  12.944
 6174SOL    HW219410   2.049   2.847  12.940
 6175SOL     OW19411   2.548   2.043  12.668
 6175SOL    HW119412   2.635   2.022  12.635
 6175SOL    HW219413   2.564   2.088  12.751
 6176SOL     OW19414   1.885   2.268  11.194
 6176SOL    HW119415   1.808   2.219  11.166
 6176SOL    HW219416   1.921   2.304  11.113
 6177SOL     OW19417   3.288   2.720  12.571
 6177SOL    HW119418   3.239   2.782  12.517
 6177SOL    HW219419   3.377   2.722  12.534
 6178SOL     OW19420   3.040   3.199  11.289
 6178SOL    HW119421   2.949   3.169  11.291
 6178SOL    HW219422   3.067   3.199  11.381
 6179SOL     OW19423   2.482   2.692  12.604
 6179SOL    HW119424   2.537   2.769  12.590
 6179SOL    HW219425   2.543   2.619  12.614
 6180SOL     OW19426   3.347   3.643  12.154
 6180SOL    HW119427   3.371   3.697  12.079
 6180SOL    HW219428   3.431   3.612  12.189
 6181SOL     OW19429   2.575   2.425  12.873
 6181SOL    HW119430   2.620   2.483  12.934
 6181SOL    HW219431   2.596   2.337  12.905
 6182SOL     OW19432   3.335   3.060  12.803
 6182SOL    HW119433   3.324   3.074  12.897
 6182SOL    HW219434   3.428   3.075  12.786
 6183SOL     OW19435   2.237   3.602  12.737
 6183SOL    HW119436   2.152   3.644  12.721
 6183SOL    HW219437   2.215   3.519  12.778
 6184SOL     OW19438   3.527   2.742  12.431
 6184SOL    HW119439   3.525   2.657  12.388
 6184SOL    HW219440   3.520   2.805  12.359
 6185SOL     OW19441   3.078   2.181  11.630
 6185SOL    HW119442   3.141   2.109  11.622
 6185SOL    HW219443   3.108   2.230  11.706
 6186SOL     OW19444   2.444   2.597  11.847
 6186SOL    HW119445   2.488   2.681  11.830
 6186SOL    HW219446   2.380   2.589  11.777
 6187SOL     OW19447   3.620   2.228  12.822
 6187SOL    HW119448   3.604   2.241  12.729
 6187SOL    HW219449   3.550   2.170  12.851
 6188SOL     OW19450   3.618   2.790  12.685
 6188SOL    HW119451   3.609   2.884  12.703
 6188SOL    HW219452   3.594   2.781  12.593
 6189SOL     OW19453   2.725   3.229  11.211
 6189SOL    HW119454   2.685   3.257  11.293
 6189SOL    HW219455   2.741   3.310  11.162
 6190SOL     OW19456   2.522   3.651  12.111
 6190SOL    HW119457   2.501   3.742  12.090
 6190SOL    HW219458   2.618   3.646  12.106
 6191SOL     OW19459   2.730   2.830  12.026
 6191SOL    HW119460   2.780   2.758  12.065
 6191SOL    HW219461   2.695   2.878  12.102
 6192SOL     OW19462   2.939   2.850  11.260
 6192SOL    HW119463   2.919   2.902  11.182
 6192SOL    HW219464   3.014   2.796  11.234
 6193SOL     OW19465   3.712   3.416  12.012
 6193SOL    HW119466   3.633   3.397  11.963
 6193SOL    HW219467   3.715   3.349  12.080
 6194SOL     OW19468   2.088   3.163  13.028
 6194SOL    HW119469   2.021   3.103  12.996
 6194SOL    HW219470   2.067   3.177  13.120
 6195SOL     OW19471   1.947   3.093  11.837
 6195SOL    HW119472   1.956   3.047  11.921
 6195SOL    HW219473   2.015   3.054  11.781
 6196SOL     OW19474   2.545   3.266  12.802
 6196SOL    HW119475   2.465   3.224  12.833
 6196SOL    HW219476   2.542   3.354  12.839
 6197SOL     OW19477   3.674   2.040  12.410
 6197SOL    HW119478   3.667   1.945  12.413
 6197SOL    HW219479   3.689   2.060  12.318
 6198SOL     OW19480   3.558   3.352  12.268
 6198SOL    HW119481   3.479   3.327  12.219
 6198SOL    HW219482   3.570   3.281  12.331
 6199SOL     OW19483   2.198   2.409  12.448
 6199SOL    HW119484   2.191   2.326  12.495
 6199SOL    HW219485   2.274   2.397  12.391
 6200SOL     OW19486   2.690   3.440  11.849
 6200SOL    HW119487   2.673   3.493  11.771
 6200SOL    HW219488   2.616   3.381  11.855
 6201SOL     OW19489   3.293   2.090  12.288
 6201SOL    HW119490   3.313   2.006  12.331
 6201SOL    HW219491   3.243   2.138  12.354
 6202SOL     OW19492   2.872   1.880  12.311
 6202SOL    HW119493   2.817   1.813  12.270
 6202SOL    HW219494   2.960   1.841  12.312
 6203SOL     OW19495   2.635   3.194  11.491
 6203SOL    HW119496   2.605   3.104  11.497
 6203SOL    HW219497   2.717   3.196  11.539
 6204SOL     OW19498   2.482   3.415  12.457
 6204SOL    HW119499   2.482   3.497  12.507
 6204SOL    HW219500   2.570   3.409  12.420
 6205SOL     OW19501   3.217   1.915  11.339
 6205SOL    HW119502   3.247   1.847  11.279
 6205SOL    HW219503   3.128   1.888  11.364
 6206SOL     OW19504   3.157   2.324  11.852
 6206SOL    HW119505   3.105   2.404  11.858
 6206SOL    HW219506   3.154   2.286  11.939
 6207SOL     OW19507   3.444   2.060  12.050
 6207SOL    HW119508   3.388   2.084  12.124
 6207SOL    HW219509   3.445   2.138  11.994
 6208SOL     OW19510   1.905   2.930  11.480
 6208SOL    HW119511   1.998   2.923  11.462
 6208SOL    HW219512   1.877   2.841  11.502
 6209SOL     OW19513   2.748   3.521  11.515
 6209SOL    HW119514   2.677   3.502  11.454
 6209SOL    HW219515   2.717   3.596  11.565
 6210SOL     OW19516   2.081   2.507  13.163
 6210SOL    HW119517   1.993   2.497  13.200
 6210SOL    HW219518   2.069   2.495  13.069
 6211SOL     OW19519   1.866   2.260  13.654
 6211SOL    HW119520   1.772   2.271  13.672
 6211SOL    HW219521   1.869   2.199  13.580
 6212SOL     OW19522   3.385   3.358  13.728
 6212SOL    HW119523   3.330   3.290  13.766
 6212SOL    HW219524   3.341   3.381  13.646
 6213SOL     OW19525   2.989   2.561  13.730
 6213SOL    HW119526   3.043   2.638  13.708
 6213SOL    HW219527   2.945   2.585  13.811
 6214SOL     OW19528   3.639   2.466  13.261
 6214SOL    HW119529   3.614   2.459  13.169
 6214SOL    HW219530   3.596   2.391  13.303
 6215SOL     OW19531   2.545   2.871  13.672
 6215SOL    HW119532   2.600   2.852  13.748
 6215SOL    HW219533   2.471   2.921  13.707
 6216SOL     OW19534   3.484   2.322  13.755
 6216SOL    HW119535   3.397   2.313  13.717
 6216SOL    HW219536   3.477   2.397  13.814
 6217SOL     OW19537   2.085   3.578  13.519
 6217SOL    HW119538   2.121   3.627  13.593
 6217SOL    HW219539   2.156   3.578  13.454
 6218SOL     OW19540   2.093   3.303  13.570
 6218SOL    HW119541   2.074   3.397  13.573
 6218SOL    HW219542   2.033   3.264  13.633
 6219SOL     OW19543   2.103   2.970   0.028
 6219SOL    HW119544   2.122   2.907   0.097
 6219SOL    HW219545   2.033   3.025   0.063
 6220SOL     OW19546   2.445   2.847  13.167
 6220SOL    HW119547   2.492   2.894  13.098
 6220SOL    HW219548   2.483   2.880  13.249
 6221SOL     OW19549   1.985   2.513  13.595
 6221SOL    HW119550   1.948   2.426  13.612
 6221SOL    HW219551   1.965   2.563  13.675
 6222SOL     OW19552   3.699   3.613  13.374
 6222SOL    HW119553   3.771   3.587  13.431
 6222SOL    HW219554   3.716   3.705  13.354
 6223SOL     OW19555   1.891   3.453  13.156
 6223SOL    HW119556   1.876   3.361  13.178
 6223SOL    HW219557   1.872   3.500  13.237
 6224SOL     OW19558   3.548   2.778  13.670
 6224SOL    HW119559   3.635   2.744  13.649
 6224SOL    HW219560   3.525   2.834  13.595
 6225SOL     OW19561   3.504   2.966  13.463
 6225SOL    HW119562   3.588   2.969  13.418
 6225SOL    HW219563   3.511   3.030  13.533
 6226SOL     OW19564   2.467   3.245  13.759
 6226SOL    HW119565   2.423   3.161  13.766
 6226SOL    HW219566   2.445   3.277  13.672
 6227SOL     OW19567   2.695   1.862  13.545
 6227SOL    HW119568   2.730   1.948  13.522
 6227SOL    HW219569   2.600   1.874  13.545
 6228SOL     OW19570   3.389   2.857  13.234
 6228SOL    HW119571   3.320   2.800  13.268
 6228SOL    HW219572   3.430   2.894  13.313
 6229SOL     OW19573   3.512   3.599  13.615
 6229SOL    HW119574   3.497   3.569  13.525
 6229SOL    HW219575   3.506   3.519  13.667
 6230SOL     OW19576   2.465   2.598  13.304
 6230SOL    HW119577   2.468   2.676  13.250
 6230SOL    HW219578   2.399   2.618  13.371
 6231SOL     OW19579   3.118   2.190   0.045
 6231SOL    HW119580   3.040   2.140   0.070
 6231SOL    HW219581   3.191   2.143   0.086
 6232SOL     OW19582   3.436   3.541  13.340
 6232SOL    HW119583   3.529   3.564  13.337
 6232SOL    HW219584   3.413   3.519  13.250
 6233SOL     OW19585   2.911   2.559  13.458
 6233SOL    HW119586   2.927   2.549  13.552
 6233SOL    HW219587   2.829   2.512  13.443
 6234SOL     OW19588   1.946   2.684  13.808
 6234SOL    HW119589   2.025   2.685  13.860
 6234SOL    HW219590   1.894   2.757  13.842
 6235SOL     OW19591   2.760   2.214  13.234
 6235SOL    HW119592   2.803   2.269  13.169
 6235SOL    HW219593   2.738   2.134  13.187
 6236SOL     OW19594   3.225   2.997  13.552
 6236SOL    HW119595   3.314   2.995  13.519
 6236SOL    HW219596   3.183   3.068  13.504
 6237SOL     OW19597   2.862   3.303  13.502
 6237SOL    HW119598   2.829   3.379  13.455
 6237SOL    HW219599   2.831   3.316  13.592
 6238SOL     OW19600   2.255   3.666  13.799
 6238SOL    HW119601   2.213   3.596  13.849
 6238SOL    HW219602   2.313   3.709  13.861
 6239SOL     OW19603   3.651   2.916  13.899
 6239SOL    HW119604   3.595   2.904  13.823
 6239SOL    HW219605   3.592   2.909   0.074
 6240SOL     OW19606   2.182   2.818  13.288
 6240SOL    HW119607   2.261   2.840  13.240
 6240SOL    HW219608   2.149   2.739  13.246
 6241SOL     OW19609   3.351   2.596  13.745
 6241SOL    HW119610   3.342   2.556  13.832
 6241SOL    HW219611   3.424   2.657  13.754
 6242SOL     OW19612   2.976   3.644  13.255
 6242SOL    HW119613   2.913   3.598  13.310
 6242SOL    HW219614   3.006   3.578  13.193
 6243SOL     OW19615   3.487   3.246  13.122
 6243SOL    HW119616   3.444   3.330  13.105
 6243SOL    HW219617   3.420   3.181  13.102
 6244SOL     OW19618   2.329   3.596  13.358
 6244SOL    HW119619   2.366   3.660  13.418
 6244SOL    HW219620   2.402   3.572  13.301
 6245SOL     OW19621   3.264   1.975  13.466
 6245SOL    HW119622   3.255   1.947  13.375
 6245SOL    HW219623   3.359   1.975  13.483
 6246SOL     OW19624   2.794   3.547   0.009
 6246SOL    HW119625   2.809   3.480   0.075
 6246SOL    HW219626   2.749   3.500  13.838
 6247SOL     OW19627   2.254   2.549  13.509
 6247SOL    HW119628   2.268   2.460  13.479
 6247SOL    HW219629   2.161   2.553  13.534
 6248SOL     OW19630   2.522   1.990  13.131
 6248SOL    HW119631   2.565   1.910  13.163
 6248SOL    HW219632   2.457   1.959  13.068
 6249SOL     OW19633   2.429   1.904  13.528
 6249SOL    HW119634   2.382   1.890  13.610
 6249SOL    HW219635   2.407   1.994  13.503
 6250SOL     OW19636   3.290   3.061  13.074
 6250SOL    HW119637   3.320   2.986  13.125
 6250SOL    HW219638   3.204   3.082  13.112
 6251SOL     OW19639   2.803   2.111  13.491
 6251SOL    HW119640   2.780   2.149  13.407
 6251SOL    HW219641   2.898   2.124  13.498
 6252SOL     OW19642   2.325   3.006  13.769
 6252SOL    HW119643   2.253   2.993  13.831
 6252SOL    HW219644   2.286   2.994  13.683
 6253SOL     OW19645   3.130   3.660  13.629
 6253SOL    HW119646   3.175   3.728  13.579
 6253SOL    HW219647   3.061   3.707  13.677
 6254SOL     OW19648   2.887   2.401  13.057
 6254SOL    HW119649   2.843   2.484  13.039
 6254SOL    HW219650   2.951   2.422  13.125
 6255SOL     OW19651   2.747   2.330  13.669
 6255SOL    HW119652   2.697   2.381  13.605
 6255SOL    HW219653   2.763   2.246  13.626
 6256SOL     OW19654   2.886   1.900  13.774
 6256SOL    HW119655   2.828   1.903  13.698
 6256SOL    HW219656   2.861   1.820  13.819
 6257SOL     OW19657   3.728   2.677  13.410
 6257SOL    HW119658   3.776   2.622  13.472
 6257SOL    HW219659   3.692   2.615  13.346
 6258SOL     OW19660   2.352   3.280  13.188
 6258SOL    HW119661   2.277   3.253  13.240
 6258SOL    HW219662   2.339   3.238  13.103
 6259SOL     OW19663   3.540   3.132  13.665
 6259SOL    HW119664   3.634   3.134  13.682
 6259SOL    HW219665   3.507   3.215  13.701
 6260SOL     OW19666   3.256   2.434  13.105
 6260SOL    HW119667   3.194   2.414  13.175
 6260SOL    HW219668   3.340   2.401  13.138
 6261SOL     OW19669   2.571   2.925  13.400
 6261SOL    HW119670   2.556   2.909  13.493
 6261SOL    HW219671   2.647   2.871  13.378
 6262SOL     OW19672   2.209   2.974  13.524
 6262SOL    HW119673   2.211   3.050  13.465
 6262SOL    HW219674   2.205   2.899  13.465
 6263SOL     OW19675   2.412   2.419  13.882
 6263SOL    HW119676   2.428   2.481  13.811
 6263SOL    HW219677   2.497   2.411   0.026
 6264SOL     OW19678   3.107   3.214  13.418
 6264SOL    HW119679   3.162   3.287  13.446
 6264SOL    HW219680   3.021   3.234  13.454
 6265SOL     OW19681   3.443   2.486  13.501
 6265SOL    HW119682   3.400   2.526  13.577
 6265SOL    HW219683   3.477   2.561  13.451
 6266SOL     OW19684   3.064   2.390  13.298
 6266SOL    HW119685   3.071   2.311  13.351
 6266SOL    HW219686   3.021   2.454  13.355
 6267SOL     OW19687   3.482   2.238  13.397
 6267SOL    HW119688   3.506   2.174  13.465
 6267SOL    HW219689   3.459   2.317  13.446
 6268SOL     OW19690   3.391   2.134  13.161
 6268SOL    HW119691   3.326   2.070  13.187
 6268SOL    HW219692   3.424   2.170  13.243
 6269SOL     OW19693   3.150   2.686  13.063
 6269SOL    HW119694   3.194   2.602  13.067
 6269SOL    HW219695   3.183   2.726  12.982
 6270SOL     OW19696   1.868   3.180  13.228
 6270SOL    HW119697   1.781   3.196  13.191
 6270SOL    HW219698   1.864   3.091  13.263
 6271SOL     OW19699   2.676   2.432  13.398
 6271SOL    HW119700   2.684   2.358  13.337
 6271SOL    HW219701   2.604   2.484  13.363
 6272SOL     OW19702   2.326   2.377  13.243
 6272SOL    HW119703   2.389   2.448  13.252
 6272SOL    HW219704   2.245   2.419  13.215
 6273SOL     OW19705   3.176   2.714  13.338
 6273SOL    HW119706   3.099   2.688  13.388
 6273SOL    HW219707   3.150   2.701  13.246
 6274SOL     OW19708   3.576   2.011  13.548
 6274SOL    HW119709   3.642   1.999  13.479
 6274SOL    HW219710   3.564   1.923  13.585
 6275SOL     OW19711   3.244   3.436  13.508
 6275SOL    HW119712   3.304   3.473  13.444
 6275SOL    HW219713   3.199   3.512  13.545
 6276SOL     OW19714   3.149   2.775  13.684
 6276SOL    HW119715   3.226   2.720  13.671
 6276SOL    HW219716   3.172   2.858  13.642
 6277SOL     OW19717   2.537   3.479  13.191
 6277SOL    HW119718   2.546   3.497  13.098
 6277SOL    HW219719   2.478   3.404  13.196
 6278SOL     OW19720   3.681   2.022   0.087
 6278SOL    HW119721   3.694   1.936   0.048
 6278SOL    HW219722   3.587   2.037   0.080
 6279SOL     OW19723   3.070   3.466  13.070
 6279SOL    HW119724   3.059   3.374  13.093
 6279SOL    HW219725   3.008   3.479  12.997
 6280SOL     OW19726   2.781   2.775  13.329
 6280SOL    HW119727   2.840   2.805  13.259
 6280SOL    HW219728   2.828   2.702  13.370
 6281SOL     OW19729   3.350   3.494  13.076
 6281SOL    HW119730   3.256   3.481  13.060
 6281SOL    HW219731   3.389   3.498  12.989
 6282SOL     OW19732   2.912   2.953  13.754
 6282SOL    HW119733   2.827   2.913  13.740
 6282SOL    HW219734   2.969   2.914  13.687
 6283SOL     OW19735   2.461   3.353  13.506
 6283SOL    HW119736   2.508   3.303  13.439
 6283SOL    HW219737   2.395   3.402  13.457
 6284SOL     OW19738   2.123   3.204  13.324
 6284SOL    HW119739   2.030   3.202  13.301
 6284SOL    HW219740   2.125   3.244  13.411
 6285SOL     OW19741   3.039   3.199  13.149
 6285SOL    HW119742   2.948   3.170  13.151
 6285SOL    HW219743   3.066   3.200  13.241
 6286SOL     OW19744   3.079   2.182  13.491
 6286SOL    HW119745   3.141   2.110  13.481
 6286SOL    HW219746   3.110   2.230  13.568
 6287SOL     OW19747   2.454   2.607  13.690
 6287SOL    HW119748   2.490   2.694  13.672
 6287SOL    HW219749   2.383   2.597  13.626
 6288SOL     OW19750   2.726   3.229  13.072
 6288SOL    HW119751   2.685   3.256  13.154
 6288SOL    HW219752   2.741   3.310  13.024
 6289SOL     OW19753   2.513   3.714   0.067
 6289SOL    HW119754   2.508   3.808   0.084
 6289SOL    HW219755   2.605   3.692   0.079
 6290SOL     OW19756   2.689   2.828  13.896
 6290SOL    HW119757   2.718   2.744   0.032
 6290SOL    HW219758   2.721   2.893   0.058
 6291SOL     OW19759   2.938   2.848  13.122
 6291SOL    HW119760   2.918   2.901  13.045
 6291SOL    HW219761   3.013   2.795  13.096
 6292SOL     OW19762   1.953   3.092  13.700
 6292SOL    HW119763   1.948   3.036  13.777
 6292SOL    HW219764   2.020   3.052  13.645
 6293SOL     OW19765   3.542   3.322   0.347
 6293SOL    HW119766   3.511   3.294   0.261
 6293SOL    HW219767   3.629   3.284   0.355
 6294SOL     OW19768   2.679   3.411  13.708
 6294SOL    HW119769   2.653   3.463  13.631
 6294SOL    HW219770   2.603   3.356  13.726
 6295SOL     OW19771   2.634   3.195  13.349
 6295SOL    HW119772   2.605   3.104  13.356
 6295SOL    HW219773   2.716   3.198  13.399
 6296SOL     OW19774   3.216   1.915  13.200
 6296SOL    HW119775   3.247   1.846  13.141
 6296SOL    HW219776   3.128   1.888  13.225
 6297SOL     OW19777   3.166   2.322  13.712
 6297SOL    HW119778   3.112   2.401  13.718
 6297SOL    HW219779   3.151   2.276  13.795
 6298SOL     OW19780   1.906   2.930  13.341
 6298SOL    HW119781   1.999   2.922  13.323
 6298SOL    HW219782   1.878   2.841  13.363
 6299SOL     OW19783   2.748   3.520  13.377
 6299SOL    HW119784   2.677   3.503  13.316
 6299SOL    HW219785   2.718   3.594  13.429
 6300SOL     OW19786   2.094   3.982   0.984
 6300SOL    HW119787   2.117   3.962   1.074
 6300SOL    HW219788   2.003   3.953   0.975
 6301SOL     OW19789   1.877   0.063   0.712
 6301SOL    HW119790   1.799   0.107   0.677
 6301SOL    HW219791   1.912   0.013   0.638
 6302SOL     OW19792   3.660   0.360   0.255
 6302SOL    HW119793   3.637   0.305   0.180
 6302SOL    HW219794   3.580   0.364   0.307
 6303SOL     OW19795   2.301   0.095   1.506
 6303SOL    HW119796   2.374   0.053   1.459
 6303SOL    HW219797   2.225   0.042   1.485
 6304SOL     OW19798   3.458   3.850   1.460
 6304SOL    HW119799   3.462   3.937   1.420
 6304SOL    HW219800   3.444   3.868   1.553
 6305SOL     OW19801   2.668   3.727   0.506
 6305SOL    HW119802   2.696   3.818   0.497
 6305SOL    HW219803   2.573   3.732   0.516
 6306SOL     OW19804   3.130   0.062   0.936
 6306SOL    HW119805   3.057   0.008   0.905
 6306SOL    HW219806   3.185   0.002   0.986
 6307SOL     OW19807   2.416   3.904   0.892
 6307SOL    HW119808   2.410   3.924   0.985
 6307SOL    HW219809   2.411   3.989   0.848
 6308SOL     OW19810   2.053   3.983   1.489
 6308SOL    HW119811   2.001   0.063   1.499
 6308SOL    HW219812   2.014   3.922   1.551
 6309SOL     OW19813   3.270   3.839   0.429
 6309SOL    HW119814   3.263   3.798   0.343
 6309SOL    HW219815   3.360   3.822   0.457
 6310SOL     OW19816   3.398   3.938   1.724
 6310SOL    HW119817   3.423   3.941   1.816
 6310SOL    HW219818   3.329   3.872   1.719
 6311SOL     OW19819   2.635   3.958   1.743
 6311SOL    HW119820   2.687   3.928   1.818
 6311SOL    HW219821   2.548   3.975   1.780
 6312SOL     OW19822   2.397   3.782   0.515
 6312SOL    HW119823   2.347   3.782   0.597
 6312SOL    HW219824   2.406   3.875   0.493
 6313SOL     OW19825   2.134   3.744   0.209
 6313SOL    HW119826   2.166   3.831   0.186
 6313SOL    HW219827   2.213   3.695   0.234
 6314SOL     OW19828   2.419   3.944   1.169
 6314SOL    HW119829   2.462   3.872   1.216
 6314SOL    HW219830   2.328   3.939   1.196
 6315SOL     OW19831   2.882   3.767   0.734
 6315SOL    HW119832   2.817   3.756   0.666
 6315SOL    HW219833   2.859   3.702   0.801
 6316SOL     OW19834   2.785   3.803   1.398
 6316SOL    HW119835   2.814   3.782   1.309
 6316SOL    HW219836   2.858   3.851   1.436
 6317SOL     OW19837   3.129   0.075   1.265
 6317SOL    HW119838   3.140   0.143   1.331
 6317SOL    HW219839   3.061   0.109   1.207
 6318SOL     OW19840   2.371   3.749   1.756
 6318SOL    HW119841   2.315   3.704   1.693
 6318SOL    HW219842   2.341   3.840   1.754
 6319SOL     OW19843   2.156   3.920   1.251
 6319SOL    HW119844   2.112   3.939   1.334
 6319SOL    HW219845   2.145   3.826   1.238
 6320SOL     OW19846   3.461   3.936   0.156
 6320SOL    HW119847   3.381   3.885   0.156
 6320SOL    HW219848   3.436   0.021   0.192
 6321SOL     OW19849   3.025   3.922   1.473
 6321SOL    HW119850   3.028   3.996   1.534
 6321SOL    HW219851   3.067   3.954   1.393
 6322SOL     OW19852   2.782   3.823   0.150
 6322SOL    HW119853   2.812   3.816   0.059
 6322SOL    HW219854   2.842   3.769   0.200
 6323SOL     OW19855   3.588   3.862   0.532
 6323SOL    HW119856   3.656   3.849   0.466
 6323SOL    HW219857   3.568   3.775   0.564
 6324SOL     OW19858   3.697   3.895   0.963
 6324SOL    HW119859   3.730   3.808   0.939
 6324SOL    HW219860   3.611   3.900   0.921
 6325SOL     OW19861   2.538   3.910   1.490
 6325SOL    HW119862   2.621   3.901   1.443
 6325SOL    HW219863   2.564   3.932   1.580
 6326SOL     OW19864   1.925   3.857   0.341
 6326SOL    HW119865   1.910   3.939   0.294
 6326SOL    HW219866   2.006   3.822   0.302
 6327SOL     OW19867   3.052   0.009   0.466
 6327SOL    HW119868   3.117   3.939   0.468
 6327SOL    HW219869   3.074   0.064   0.542
 6328SOL     OW19870   3.647   0.048   1.629
 6328SOL    HW119871   3.604   0.081   1.550
 6328SOL    HW219872   3.577   0.003   1.677
 6329SOL     OW19873   3.677   3.910   1.235
 6329SOL    HW119874   3.666   3.818   1.259
 6329SOL    HW219875   3.687   3.909   1.140
 6330SOL     OW19876   3.301   3.932   1.117
 6330SOL    HW119877   3.329   3.851   1.159
 6330SOL    HW219878   3.243   3.973   1.181
 6331SOL     OW19879   2.877   3.736   1.148
 6331SOL    HW119880   2.820   3.681   1.095
 6331SOL    HW219881   2.963   3.693   1.143
 6332SOL     OW19882   3.215   3.783   0.151
 6332SOL    HW119883   3.254   3.711   0.101
 6332SOL    HW219884   3.131   3.747   0.182
 6333SOL     OW19885   3.146   0.163   0.679
 6333SOL    HW119886   3.143   0.258   0.687
 6333SOL    HW219887   3.149   0.132   0.770
 6334SOL     OW19888   3.441   3.930   0.880
 6334SOL    HW119889   3.389   3.931   0.961
 6334SOL    HW219890   3.437   0.020   0.847
 6335SOL     OW19891   2.095   3.980   2.844
 6335SOL    HW119892   2.118   3.962   2.936
 6335SOL    HW219893   2.003   3.953   2.837
 6336SOL     OW19894   1.875   0.061   2.577
 6336SOL    HW119895   1.803   0.112   2.540
 6336SOL    HW219896   1.910   0.012   2.502
 6337SOL     OW19897   3.634   0.319   2.044
 6337SOL    HW119898   3.557   0.303   1.989
 6337SOL    HW219899   3.597   0.342   2.130
 6338SOL     OW19900   2.301   0.095   3.368
 6338SOL    HW119901   2.374   0.053   3.322
 6338SOL    HW219902   2.225   0.042   3.347
 6339SOL     OW19903   3.458   3.850   3.322
 6339SOL    HW119904   3.461   3.937   3.282
 6339SOL    HW219905   3.444   3.868   3.415
 6340SOL     OW19906   2.668   3.729   2.367
 6340SOL    HW119907   2.695   3.821   2.361
 6340SOL    HW219908   2.573   3.732   2.376
 6341SOL     OW19909   3.129   0.062   2.800
 6341SOL    HW119910   3.057   0.008   2.767
 6341SOL    HW219911   3.185   0.001   2.849
 6342SOL     OW19912   2.416   3.904   2.753
 6342SOL    HW119913   2.410   3.924   2.847
 6342SOL    HW219914   2.411   3.990   2.711
 6343SOL     OW19915   2.053   3.983   3.351
 6343SOL    HW119916   2.001   0.063   3.361
 6343SOL    HW219917   2.014   3.922   3.413
 6344SOL     OW19918   3.268   3.833   2.292
 6344SOL    HW119919   3.259   3.799   2.203
 6344SOL    HW219920   3.360   3.819   2.314
 6345SOL     OW19921   3.398   3.938   3.586
 6345SOL    HW119922   3.423   3.941   3.678
 6345SOL    HW219923   3.329   3.872   3.581
 6346SOL     OW19924   2.490   3.848   1.990
 6346SOL    HW119925   2.581   3.819   1.989
 6346SOL    HW219926   2.449   3.801   1.917
 6347SOL     OW19927   2.635   3.958   3.605
 6347SOL    HW119928   2.687   3.928   3.680
 6347SOL    HW219929   2.548   3.975   3.642
 6348SOL     OW19930   2.397   3.785   2.377
 6348SOL    HW119931   2.349   3.787   2.460
 6348SOL    HW219932   2.405   3.877   2.351
 6349SOL     OW19933   2.148   3.759   2.041
 6349SOL    HW119934   2.188   3.845   2.033
 6349SOL    HW219935   2.216   3.704   2.080
 6350SOL     OW19936   2.419   3.943   3.031
 6350SOL    HW119937   2.462   3.872   3.079
 6350SOL    HW219938   2.328   3.939   3.058
 6351SOL     OW19939   2.882   3.767   2.597
 6351SOL    HW119940   2.817   3.754   2.527
 6351SOL    HW219941   2.859   3.702   2.663
 6352SOL     OW19942   2.785   3.803   3.260
 6352SOL    HW119943   2.814   3.782   3.171
 6352SOL    HW219944   2.858   3.851   3.298
 6353SOL     OW19945   3.129   0.075   3.127
 6353SOL    HW119946   3.140   0.143   3.193
 6353SOL    HW219947   3.061   0.108   3.068
 6354SOL     OW19948   2.371   3.749   3.618
 6354SOL    HW119949   2.315   3.704   3.555
 6354SOL    HW219950   2.341   3.840   3.616
 6355SOL     OW19951   2.156   3.920   3.113
 6355SOL    HW119952   2.112   3.939   3.195
 6355SOL    HW219953   2.144   3.826   3.100
 6356SOL     OW19954   3.444   3.954   1.985
 6356SOL    HW119955   3.379   3.898   2.027
 6356SOL    HW219956   3.457   0.026   2.047
 6357SOL     OW19957   3.025   3.922   3.335
 6357SOL    HW119958   3.028   3.995   3.396
 6357SOL    HW219959   3.067   3.954   3.255
 6358SOL     OW19960   2.763   3.811   1.964
 6358SOL    HW119961   2.823   3.772   1.901
 6358SOL    HW219962   2.803   3.795   2.049
 6359SOL     OW19963   3.590   3.859   2.387
 6359SOL    HW119964   3.659   3.845   2.321
 6359SOL    HW219965   3.570   3.772   2.419
 6360SOL     OW19966   3.697   3.896   2.825
 6360SOL    HW119967   3.730   3.809   2.802
 6360SOL    HW219968   3.611   3.900   2.783
 6361SOL     OW19969   2.538   3.910   3.352
 6361SOL    HW119970   2.621   3.901   3.305
 6361SOL    HW219971   2.563   3.932   3.442
 6362SOL     OW19972   1.907   0.053   1.896
 6362SOL    HW119973   1.868   0.029   1.812
 6362SOL    HW219974   1.937   0.143   1.885
 6363SOL     OW19975   1.924   3.865   2.171
 6363SOL    HW119976   1.913   3.954   2.140
 6363SOL    HW219977   2.005   3.835   2.130
 6364SOL     OW19978   3.055   0.012   2.327
 6364SOL    HW119979   3.123   3.944   2.327
 6364SOL    HW219980   3.077   0.066   2.404
 6365SOL     OW19981   3.647   0.048   3.491
 6365SOL    HW119982   3.604   0.081   3.412
 6365SOL    HW219983   3.577   0.003   3.539
 6366SOL     OW19984   3.677   3.910   3.098
 6366SOL    HW119985   3.666   3.818   3.121
 6366SOL    HW219986   3.687   3.910   3.002
 6367SOL     OW19987   3.301   3.932   2.979
 6367SOL    HW119988   3.329   3.851   3.022
 6367SOL    HW219989   3.243   3.973   3.043
 6368SOL     OW19990   2.877   3.736   3.010
 6368SOL    HW119991   2.820   3.681   2.957
 6368SOL    HW219992   2.963   3.693   3.005
 6369SOL     OW19993   3.217   3.771   2.021
 6369SOL    HW119994   3.250   3.700   1.966
 6369SOL    HW219995   3.129   3.742   2.047
 6370SOL     OW19996   3.144   0.162   2.544
 6370SOL    HW119997   3.145   0.257   2.549
 6370SOL    HW219998   3.148   0.133   2.636
 6371SOL     OW19999   3.440   3.930   2.742
 6371SOL    HW120000   3.390   3.931   2.823
 6371SOL    HW220001   3.437   0.020   2.709
 6372SOL     OW20002   2.094   3.980   4.706
 6372SOL    HW120003   2.118   3.962   4.798
 6372SOL    HW220004   2.003   3.953   4.699
 6373SOL     OW20005   1.875   0.061   4.439
 6373SOL    HW120006   1.803   0.112   4.402
 6373SOL    HW220007   1.910   0.012   4.364
 6374SOL     OW20008   3.634   0.319   3.906
 6374SOL    HW120009   3.558   0.303   3.851
 6374SOL    HW220010   3.597   0.341   3.992
 6375SOL     OW20011   2.302   0.095   5.230
 6375SOL    HW120012   2.374   0.053   5.184
 6375SOL    HW220013   2.225   0.042   5.209
 6376SOL     OW20014   3.458   3.850   5.184
 6376SOL    HW120015   3.461   3.937   5.144
 6376SOL    HW220016   3.444   3.868   5.277
 6377SOL     OW20017   2.668   3.729   4.229
 6377SOL    HW120018   2.695   3.821   4.223
 6377SOL    HW220019   2.573   3.732   4.238
 6378SOL     OW20020   3.129   0.062   4.663
 6378SOL    HW120021   3.057   0.008   4.629
 6378SOL    HW220022   3.185   0.001   4.711
 6379SOL     OW20023   2.416   3.904   4.615
 6379SOL    HW120024   2.410   3.924   4.709
 6379SOL    HW220025   2.411   3.990   4.573
 6380SOL     OW20026   2.053   3.983   5.213
 6380SOL    HW120027   2.001   0.063   5.223
 6380SOL    HW220028   2.014   3.921   5.274
 6381SOL     OW20029   3.268   3.833   4.154
 6381SOL    HW120030   3.259   3.799   4.065
 6381SOL    HW220031   3.360   3.819   4.176
 6382SOL     OW20032   3.398   3.938   5.448
 6382SOL    HW120033   3.423   3.941   5.540
 6382SOL    HW220034   3.329   3.872   5.443
 6383SOL     OW20035   2.490   3.848   3.852
 6383SOL    HW120036   2.581   3.819   3.851
 6383SOL    HW220037   2.449   3.801   3.779
 6384SOL     OW20038   2.635   3.958   5.468
 6384SOL    HW120039   2.687   3.928   5.542
 6384SOL    HW220040   2.548   3.975   5.504
 6385SOL     OW20041   2.397   3.785   4.239
 6385SOL    HW120042   2.349   3.787   4.322
 6385SOL    HW220043   2.405   3.877   4.213
 6386SOL     OW20044   2.148   3.759   3.903
 6386SOL    HW120045   2.188   3.845   3.895
 6386SOL    HW220046   2.216   3.704   3.942
 6387SOL     OW20047   2.419   3.943   4.893
 6387SOL    HW120048   2.462   3.872   4.940
 6387SOL    HW220049   2.328   3.939   4.920
 6388SOL     OW20050   2.882   3.767   4.459
 6388SOL    HW120051   2.817   3.754   4.389
 6388SOL    HW220052   2.859   3.702   4.525
 6389SOL     OW20053   2.785   3.803   5.122
 6389SOL    HW120054   2.814   3.782   5.033
 6389SOL    HW220055   2.858   3.851   5.160
 6390SOL     OW20056   3.129   0.075   4.989
 6390SOL    HW120057   3.139   0.144   5.055
 6390SOL    HW220058   3.061   0.108   4.930
 6391SOL     OW20059   2.371   3.750   5.480
 6391SOL    HW120060   2.315   3.704   5.417
 6391SOL    HW220061   2.341   3.840   5.478
 6392SOL     OW20062   2.156   3.920   4.975
 6392SOL    HW120063   2.112   3.939   5.057
 6392SOL    HW220064   2.144   3.826   4.962
 6393SOL     OW20065   3.444   3.954   3.847
 6393SOL    HW120066   3.379   3.898   3.889
 6393SOL    HW220067   3.457   0.026   3.909
 6394SOL     OW20068   3.025   3.922   5.197
 6394SOL    HW120069   3.028   3.995   5.258
 6394SOL    HW220070   3.067   3.955   5.117
 6395SOL     OW20071   2.763   3.811   3.826
 6395SOL    HW120072   2.823   3.772   3.763
 6395SOL    HW220073   2.803   3.795   3.911
 6396SOL     OW20074   3.590   3.859   4.249
 6396SOL    HW120075   3.659   3.845   4.183
 6396SOL    HW220076   3.570   3.772   4.281
 6397SOL     OW20077   3.697   3.895   4.687
 6397SOL    HW120078   3.730   3.809   4.664
 6397SOL    HW220079   3.611   3.901   4.645
 6398SOL     OW20080   2.538   3.910   5.214
 6398SOL    HW120081   2.621   3.901   5.167
 6398SOL    HW220082   2.564   3.932   5.304
 6399SOL     OW20083   1.907   0.053   3.758
 6399SOL    HW120084   1.868   0.029   3.673
 6399SOL    HW220085   1.937   0.143   3.747
 6400SOL     OW20086   1.924   3.865   4.033
 6400SOL    HW120087   1.913   3.954   4.002
 6400SOL    HW220088   2.005   3.835   3.992
 6401SOL     OW20089   3.055   0.012   4.190
 6401SOL    HW120090   3.123   3.944   4.189
 6401SOL    HW220091   3.077   0.066   4.266
 6402SOL     OW20092   3.647   0.048   5.353
 6402SOL    HW120093   3.604   0.081   5.274
 6402SOL    HW220094   3.577   0.003   5.401
 6403SOL     OW20095   3.678   3.910   4.960
 6403SOL    HW120096   3.666   3.818   4.983
 6403SOL    HW220097   3.687   3.910   4.864
 6404SOL     OW20098   3.301   3.932   4.841
 6404SOL    HW120099   3.329   3.850   4.883
 6404SOL    HW220100   3.243   3.973   4.905
 6405SOL     OW20101   2.877   3.736   4.872
 6405SOL    HW120102   2.820   3.681   4.819
 6405SOL    HW220103   2.963   3.693   4.867
 6406SOL     OW20104   3.217   3.770   3.883
 6406SOL    HW120105   3.250   3.700   3.828
 6406SOL    HW220106   3.129   3.742   3.908
 6407SOL     OW20107   3.144   0.162   4.406
 6407SOL    HW120108   3.145   0.257   4.411
 6407SOL    HW220109   3.148   0.133   4.498
 6408SOL     OW20110   3.440   3.930   4.603
 6408SOL    HW120111   3.390   3.932   4.685
 6408SOL    HW220112   3.437   0.020   4.571
 6409SOL     OW20113   2.094   3.980   6.569
 6409SOL    HW120114   2.118   3.962   6.660
 6409SOL    HW220115   2.003   3.953   6.561
 6410SOL     OW20116   1.875   0.060   6.301
 6410SOL    HW120117   1.803   0.112   6.264
 6410SOL    HW220118   1.911   0.012   6.226
 6411SOL     OW20119   3.634   0.320   5.768
 6411SOL    HW120120   3.558   0.303   5.713
 6411SOL    HW220121   3.597   0.341   5.854
 6412SOL     OW20122   2.302   0.095   7.092
 6412SOL    HW120123   2.374   0.052   7.046
 6412SOL    HW220124   2.225   0.042   7.071
 6413SOL     OW20125   3.458   3.850   7.046
 6413SOL    HW120126   3.461   3.937   7.005
 6413SOL    HW220127   3.444   3.868   7.139
 6414SOL     OW20128   2.668   3.730   6.090
 6414SOL    HW120129   2.694   3.822   6.085
 6414SOL    HW220130   2.573   3.733   6.100
 6415SOL     OW20131   3.128   0.062   6.525
 6415SOL    HW120132   3.058   0.008   6.491
 6415SOL    HW220133   3.185   0.002   6.573
 6416SOL     OW20134   2.416   3.905   6.477
 6416SOL    HW120135   2.410   3.924   6.571
 6416SOL    HW220136   2.411   3.990   6.435
 6417SOL     OW20137   2.053   3.984   7.075
 6417SOL    HW120138   2.001   0.064   7.083
 6417SOL    HW220139   2.014   3.924   7.139
 6418SOL     OW20140   3.267   3.833   6.016
 6418SOL    HW120141   3.259   3.800   5.927
 6418SOL    HW220142   3.359   3.819   6.038
 6419SOL     OW20143   3.398   3.939   7.310
 6419SOL    HW120144   3.422   3.941   7.402
 6419SOL    HW220145   3.329   3.872   7.305
 6420SOL     OW20146   2.490   3.848   5.714
 6420SOL    HW120147   2.581   3.819   5.713
 6420SOL    HW220148   2.449   3.801   5.641
 6421SOL     OW20149   2.635   3.959   7.330
 6421SOL    HW120150   2.687   3.928   7.404
 6421SOL    HW220151   2.548   3.974   7.367
 6422SOL     OW20152   2.397   3.785   6.100
 6422SOL    HW120153   2.349   3.787   6.184
 6422SOL    HW220154   2.405   3.877   6.075
 6423SOL     OW20155   2.148   3.759   5.766
 6423SOL    HW120156   2.189   3.845   5.757
 6423SOL    HW220157   2.216   3.704   5.804
 6424SOL     OW20158   2.419   3.944   6.755
 6424SOL    HW120159   2.462   3.871   6.801
 6424SOL    HW220160   2.328   3.939   6.782
 6425SOL     OW20161   2.882   3.767   6.321
 6425SOL    HW120162   2.818   3.754   6.251
 6425SOL    HW220163   2.859   3.702   6.387
 6426SOL     OW20164   2.784   3.804   6.983
 6426SOL    HW120165   2.813   3.782   6.894
 6426SOL    HW220166   2.858   3.851   7.022
 6427SOL     OW20167   3.129   0.074   6.851
 6427SOL    HW120168   3.139   0.143   6.917
 6427SOL    HW220169   3.061   0.107   6.792
 6428SOL     OW20170   2.371   3.750   7.342
 6428SOL    HW120171   2.315   3.705   7.279
 6428SOL    HW220172   2.341   3.841   7.340
 6429SOL     OW20173   2.156   3.920   6.837
 6429SOL    HW120174   2.112   3.938   6.920
 6429SOL    HW220175   2.144   3.825   6.824
 6430SOL     OW20176   3.444   3.954   5.709
 6430SOL    HW120177   3.379   3.897   5.751
 6430SOL    HW220178   3.457   0.026   5.771
 6431SOL     OW20179   3.024   3.922   7.059
 6431SOL    HW120180   3.029   3.995   7.120
 6431SOL    HW220181   3.067   3.954   6.979
 6432SOL     OW20182   2.763   3.811   5.688
 6432SOL    HW120183   2.823   3.772   5.625
 6432SOL    HW220184   2.803   3.795   5.773
 6433SOL     OW20185   3.590   3.860   6.111
 6433SOL    HW120186   3.659   3.845   6.045
 6433SOL    HW220187   3.570   3.772   6.143
 6434SOL     OW20188   3.697   3.895   6.549
 6434SOL    HW120189   3.730   3.809   6.526
 6434SOL    HW220190   3.611   3.900   6.507
 6435SOL     OW20191   2.538   3.910   7.076
 6435SOL    HW120192   2.621   3.900   7.029
 6435SOL    HW220193   2.564   3.933   7.166
 6436SOL     OW20194   1.906   0.053   5.621
 6436SOL    HW120195   1.868   0.029   5.536
 6436SOL    HW220196   1.936   0.143   5.609
 6437SOL     OW20197   1.924   3.865   5.895
 6437SOL    HW120198   1.913   3.954   5.863
 6437SOL    HW220199   2.005   3.835   5.854
 6438SOL     OW20200   3.055   0.012   6.052
 6438SOL    HW120201   3.123   3.944   6.050
 6438SOL    HW220202   3.077   0.066   6.128
 6439SOL     OW20203   3.646   0.048   7.215
 6439SOL    HW120204   3.604   0.081   7.136
 6439SOL    HW220205   3.577   0.003   7.263
 6440SOL     OW20206   3.678   3.910   6.822
 6440SOL    HW120207   3.666   3.818   6.845
 6440SOL    HW220208   3.687   3.909   6.727
 6441SOL     OW20209   3.302   3.932   6.703
 6441SOL    HW120210   3.328   3.850   6.744
 6441SOL    HW220211   3.243   3.973   6.767
 6442SOL     OW20212   2.877   3.736   6.734
 6442SOL    HW120213   2.819   3.681   6.682
 6442SOL    HW220214   2.963   3.693   6.729
 6443SOL     OW20215   3.217   3.770   5.745
 6443SOL    HW120216   3.250   3.699   5.690
 6443SOL    HW220217   3.129   3.742   5.770
 6444SOL     OW20218   3.144   0.162   6.269
 6444SOL    HW120219   3.145   0.257   6.273
 6444SOL    HW220220   3.148   0.133   6.360
 6445SOL     OW20221   3.441   3.930   6.465
 6445SOL    HW120222   3.390   3.932   6.546
 6445SOL    HW220223   3.438   0.020   6.433
 6446SOL     OW20224   2.095   3.980   8.430
 6446SOL    HW120225   2.118   3.962   8.522
 6446SOL    HW220226   2.003   3.953   8.423
 6447SOL     OW20227   1.875   0.061   8.163
 6447SOL    HW120228   1.803   0.112   8.127
 6447SOL    HW220229   1.909   0.012   8.088
 6448SOL     OW20230   3.634   0.320   7.630
 6448SOL    HW120231   3.558   0.304   7.574
 6448SOL    HW220232   3.596   0.341   7.716
 6449SOL     OW20233   2.302   0.095   8.954
 6449SOL    HW120234   2.373   0.052   8.907
 6449SOL    HW220235   2.225   0.042   8.933
 6450SOL     OW20236   3.458   3.850   8.908
 6450SOL    HW120237   3.462   3.937   8.867
 6450SOL    HW220238   3.444   3.868   9.001
 6451SOL     OW20239   2.668   3.730   7.954
 6451SOL    HW120240   2.694   3.822   7.948
 6451SOL    HW220241   2.573   3.733   7.963
 6452SOL     OW20242   3.129   0.062   8.387
 6452SOL    HW120243   3.058   0.007   8.353
 6452SOL    HW220244   3.185   0.001   8.435
 6453SOL     OW20245   2.416   3.904   8.339
 6453SOL    HW120246   2.410   3.924   8.433
 6453SOL    HW220247   2.411   3.990   8.297
 6454SOL     OW20248   2.053   3.983   8.937
 6454SOL    HW120249   2.001   0.063   8.947
 6454SOL    HW220250   2.014   3.922   8.999
 6455SOL     OW20251   3.267   3.833   7.878
 6455SOL    HW120252   3.259   3.799   7.789
 6455SOL    HW220253   3.359   3.819   7.900
 6456SOL     OW20254   3.398   3.938   9.172
 6456SOL    HW120255   3.423   3.941   9.264
 6456SOL    HW220256   3.329   3.872   9.167
 6457SOL     OW20257   2.490   3.848   7.575
 6457SOL    HW120258   2.581   3.819   7.575
 6457SOL    HW220259   2.449   3.801   7.503
 6458SOL     OW20260   2.635   3.958   9.191
 6458SOL    HW120261   2.687   3.928   9.266
 6458SOL    HW220262   2.548   3.975   9.228
 6459SOL     OW20263   2.397   3.785   7.962
 6459SOL    HW120264   2.349   3.787   8.045
 6459SOL    HW220265   2.405   3.877   7.937
 6460SOL     OW20266   2.148   3.759   7.627
 6460SOL    HW120267   2.188   3.845   7.619
 6460SOL    HW220268   2.216   3.704   7.666
 6461SOL     OW20269   2.419   3.943   8.617
 6461SOL    HW120270   2.462   3.872   8.665
 6461SOL    HW220271   2.328   3.939   8.644
 6462SOL     OW20272   2.882   3.767   8.183
 6462SOL    HW120273   2.817   3.754   8.114
 6462SOL    HW220274   2.859   3.702   8.250
 6463SOL     OW20275   2.785   3.803   8.846
 6463SOL    HW120276   2.814   3.782   8.757
 6463SOL    HW220277   2.858   3.851   8.884
 6464SOL     OW20278   3.129   0.075   8.713
 6464SOL    HW120279   3.140   0.143   8.779
 6464SOL    HW220280   3.062   0.108   8.654
 6465SOL     OW20281   2.371   3.749   9.204
 6465SOL    HW120282   2.315   3.704   9.141
 6465SOL    HW220283   2.341   3.840   9.202
 6466SOL     OW20284   2.156   3.920   8.699
 6466SOL    HW120285   2.112   3.939   8.781
 6466SOL    HW220286   2.145   3.826   8.686
 6467SOL     OW20287   3.444   3.954   7.571
 6467SOL    HW120288   3.380   3.896   7.613
 6467SOL    HW220289   3.458   0.024   7.634
 6468SOL     OW20290   3.025   3.922   8.921
 6468SOL    HW120291   3.028   3.995   8.982
 6468SOL    HW220292   3.067   3.954   8.842
 6469SOL     OW20293   2.763   3.811   7.550
 6469SOL    HW120294   2.822   3.770   7.486
 6469SOL    HW220295   2.804   3.794   7.635
 6470SOL     OW20296   3.590   3.860   7.972
 6470SOL    HW120297   3.659   3.845   7.907
 6470SOL    HW220298   3.570   3.772   8.005
 6471SOL     OW20299   3.697   3.895   8.411
 6471SOL    HW120300   3.730   3.809   8.388
 6471SOL    HW220301   3.611   3.900   8.369
 6472SOL     OW20302   2.538   3.910   8.938
 6472SOL    HW120303   2.621   3.901   8.891
 6472SOL    HW220304   2.563   3.932   9.028
 6473SOL     OW20305   1.908   0.053   7.481
 6473SOL    HW120306   1.869   0.029   7.397
 6473SOL    HW220307   1.937   0.143   7.470
 6474SOL     OW20308   1.924   3.865   7.757
 6474SOL    HW120309   1.913   3.955   7.726
 6474SOL    HW220310   2.005   3.835   7.716
 6475SOL     OW20311   3.055   0.012   7.914
 6475SOL    HW120312   3.123   3.944   7.912
 6475SOL    HW220313   3.077   0.066   7.990
 6476SOL     OW20314   3.647   0.048   9.077
 6476SOL    HW120315   3.604   0.081   8.998
 6476SOL    HW220316   3.577   0.003   9.125
 6477SOL     OW20317   3.677   3.910   8.684
 6477SOL    HW120318   3.667   3.818   8.707
 6477SOL    HW220319   3.687   3.910   8.588
 6478SOL     OW20320   3.301   3.932   8.565
 6478SOL    HW120321   3.329   3.851   8.607
 6478SOL    HW220322   3.243   3.973   8.629
 6479SOL     OW20323   2.877   3.736   8.596
 6479SOL    HW120324   2.820   3.681   8.543
 6479SOL    HW220325   2.963   3.693   8.591
 6480SOL     OW20326   3.217   3.770   7.607
 6480SOL    HW120327   3.251   3.699   7.552
 6480SOL    HW220328   3.129   3.741   7.632
 6481SOL     OW20329   3.144   0.162   8.130
 6481SOL    HW120330   3.145   0.258   8.136
 6481SOL    HW220331   3.148   0.133   8.222
 6482SOL     OW20332   3.440   3.930   8.327
 6482SOL    HW120333   3.390   3.931   8.408
 6482SOL    HW220334   3.437   0.020   8.295
 6483SOL     OW20335   2.095   3.980  10.292
 6483SOL    HW120336   2.118   3.962  10.384
 6483SOL    HW220337   2.003   3.953  10.285
 6484SOL     OW20338   1.875   0.061  10.025
 6484SOL    HW120339   1.803   0.112   9.988
 6484SOL    HW220340   1.910   0.012   9.950
 6485SOL     OW20341   3.634   0.319   9.492
 6485SOL    HW120342   3.558   0.303   9.437
 6485SOL    HW220343   3.597   0.342   9.578
 6486SOL     OW20344   2.301   0.095  10.816
 6486SOL    HW120345   2.374   0.053  10.769
 6486SOL    HW220346   2.225   0.042  10.795
 6487SOL     OW20347   3.458   3.850  10.770
 6487SOL    HW120348   3.462   3.937  10.730
 6487SOL    HW220349   3.444   3.868  10.863
 6488SOL     OW20350   2.668   3.729   9.815
 6488SOL    HW120351   2.695   3.821   9.809
 6488SOL    HW220352   2.573   3.732   9.824
 6489SOL     OW20353   3.129   0.062  10.249
 6489SOL    HW120354   3.058   0.008  10.215
 6489SOL    HW220355   3.185   0.001  10.297
 6490SOL     OW20356   2.416   3.904  10.201
 6490SOL    HW120357   2.410   3.924  10.295
 6490SOL    HW220358   2.411   3.990  10.159
 6491SOL     OW20359   2.053   3.983  10.799
 6491SOL    HW120360   2.001   0.063  10.808
 6491SOL    HW220361   2.014   3.922  10.862
 6492SOL     OW20362   3.268   3.833   9.740
 6492SOL    HW120363   3.259   3.799   9.651
 6492SOL    HW220364   3.360   3.819   9.762
 6493SOL     OW20365   3.398   3.938  11.034
 6493SOL    HW120366   3.423   3.941  11.126
 6493SOL    HW220367   3.329   3.872  11.029
 6494SOL     OW20368   2.490   3.848   9.438
 6494SOL    HW120369   2.581   3.819   9.437
 6494SOL    HW220370   2.449   3.801   9.365
 6495SOL     OW20371   2.635   3.958  11.053
 6495SOL    HW120372   2.687   3.928  11.128
 6495SOL    HW220373   2.548   3.975  11.090
 6496SOL     OW20374   2.397   3.785   9.825
 6496SOL    HW120375   2.349   3.787   9.908
 6496SOL    HW220376   2.405   3.877   9.799
 6497SOL     OW20377   2.148   3.759   9.489
 6497SOL    HW120378   2.188   3.846   9.481
 6497SOL    HW220379   2.216   3.704   9.528
 6498SOL     OW20380   2.419   3.943  10.479
 6498SOL    HW120381   2.462   3.872  10.527
 6498SOL    HW220382   2.328   3.939  10.506
 6499SOL     OW20383   2.882   3.767  10.045
 6499SOL    HW120384   2.817   3.754   9.975
 6499SOL    HW220385   2.859   3.702  10.111
 6500SOL     OW20386   2.785   3.803  10.708
 6500SOL    HW120387   2.814   3.782  10.619
 6500SOL    HW220388   2.858   3.851  10.746
 6501SOL     OW20389   3.129   0.075  10.575
 6501SOL    HW120390   3.140   0.143  10.641
 6501SOL    HW220391   3.061   0.108  10.516
 6502SOL     OW20392   2.371   3.749  11.066
 6502SOL    HW120393   2.315   3.704  11.003
 6502SOL    HW220394   2.341   3.840  11.064
 6503SOL     OW20395   2.156   3.920  10.561
 6503SOL    HW120396   2.112   3.939  10.643
 6503SOL    HW220397   2.144   3.826  10.548
 6504SOL     OW20398   3.444   3.954   9.433
 6504SOL    HW120399   3.379   3.897   9.475
 6504SOL    HW220400   3.458   0.026   9.495
 6505SOL     OW20401   3.025   3.922  10.783
 6505SOL    HW120402   3.028   3.996  10.844
 6505SOL    HW220403   3.067   3.954  10.704
 6506SOL     OW20404   2.763   3.811   9.412
 6506SOL    HW120405   2.823   3.772   9.349
 6506SOL    HW220406   2.803   3.795   9.497
 6507SOL     OW20407   3.590   3.860   9.834
 6507SOL    HW120408   3.659   3.845   9.769
 6507SOL    HW220409   3.570   3.772   9.867
 6508SOL     OW20410   3.697   3.895  10.273
 6508SOL    HW120411   3.730   3.809  10.250
 6508SOL    HW220412   3.611   3.900  10.231
 6509SOL     OW20413   2.538   3.910  10.800
 6509SOL    HW120414   2.621   3.901  10.753
 6509SOL    HW220415   2.563   3.932  10.890
 6510SOL     OW20416   1.907   0.053   9.344
 6510SOL    HW120417   1.869   0.029   9.260
 6510SOL    HW220418   1.937   0.143   9.332
 6511SOL     OW20419   1.924   3.865   9.619
 6511SOL    HW120420   1.913   3.954   9.588
 6511SOL    HW220421   2.005   3.835   9.578
 6512SOL     OW20422   3.055   0.011   9.776
 6512SOL    HW120423   3.123   3.944   9.775
 6512SOL    HW220424   3.077   0.066   9.852
 6513SOL     OW20425   3.647   0.048  10.939
 6513SOL    HW120426   3.604   0.081  10.860
 6513SOL    HW220427   3.577   0.003  10.987
 6514SOL     OW20428   3.677   3.910  10.546
 6514SOL    HW120429   3.666   3.818  10.569
 6514SOL    HW220430   3.687   3.910  10.450
 6515SOL     OW20431   3.301   3.932  10.427
 6515SOL    HW120432   3.329   3.851  10.470
 6515SOL    HW220433   3.243   3.973  10.491
 6516SOL     OW20434   2.877   3.736  10.458
 6516SOL    HW120435   2.820   3.681  10.405
 6516SOL    HW220436   2.963   3.693  10.453
 6517SOL     OW20437   3.217   3.770   9.469
 6517SOL    HW120438   3.250   3.700   9.414
 6517SOL    HW220439   3.129   3.742   9.495
 6518SOL     OW20440   3.144   0.162   9.992
 6518SOL    HW120441   3.145   0.257   9.997
 6518SOL    HW220442   3.148   0.133  10.084
 6519SOL     OW20443   3.440   3.930  10.189
 6519SOL    HW120444   3.390   3.932  10.271
 6519SOL    HW220445   3.437   0.020  10.157
 6520SOL     OW20446   2.095   3.980  12.154
 6520SOL    HW120447   2.118   3.962  12.246
 6520SOL    HW220448   2.003   3.953  12.147
 6521SOL     OW20449   1.875   0.061  11.887
 6521SOL    HW120450   1.803   0.112  11.850
 6521SOL    HW220451   1.910   0.012  11.812
 6522SOL     OW20452   3.634   0.319  11.354
 6522SOL    HW120453   3.558   0.303  11.299
 6522SOL    HW220454   3.597   0.341  11.440
 6523SOL     OW20455   2.302   0.095  12.678
 6523SOL    HW120456   2.373   0.052  12.631
 6523SOL    HW220457   2.225   0.042  12.657
 6524SOL     OW20458   3.458   3.850  12.632
 6524SOL    HW120459   3.461   3.937  12.592
 6524SOL    HW220460   3.444   3.868  12.725
 6525SOL     OW20461   2.668   3.729  11.677
 6525SOL    HW120462   2.695   3.821  11.671
 6525SOL    HW220463   2.573   3.732  11.686
 6526SOL     OW20464   3.129   0.062  12.111
 6526SOL    HW120465   3.057   0.008  12.077
 6526SOL    HW220466   3.185   0.001  12.159
 6527SOL     OW20467   2.416   3.904  12.063
 6527SOL    HW120468   2.410   3.924  12.157
 6527SOL    HW220469   2.411   3.990  12.021
 6528SOL     OW20470   2.053   3.983  12.661
 6528SOL    HW120471   2.000   0.063  12.671
 6528SOL    HW220472   2.015   3.921  12.723
 6529SOL     OW20473   3.268   3.833  11.602
 6529SOL    HW120474   3.259   3.799  11.513
 6529SOL    HW220475   3.360   3.819  11.624
 6530SOL     OW20476   3.398   3.939  12.896
 6530SOL    HW120477   3.421   3.943  12.989
 6530SOL    HW220478   3.329   3.872  12.892
 6531SOL     OW20479   2.490   3.848  11.300
 6531SOL    HW120480   2.581   3.819  11.299
 6531SOL    HW220481   2.449   3.801  11.227
 6532SOL     OW20482   2.635   3.958  12.915
 6532SOL    HW120483   2.687   3.928  12.990
 6532SOL    HW220484   2.548   3.974  12.952
 6533SOL     OW20485   2.397   3.785  11.687
 6533SOL    HW120486   2.349   3.787  11.770
 6533SOL    HW220487   2.405   3.877  11.661
 6534SOL     OW20488   2.148   3.759  11.351
 6534SOL    HW120489   2.188   3.846  11.343
 6534SOL    HW220490   2.216   3.704  11.390
 6535SOL     OW20491   2.419   3.943  12.341
 6535SOL    HW120492   2.462   3.872  12.389
 6535SOL    HW220493   2.328   3.939  12.368
 6536SOL     OW20494   2.882   3.767  11.907
 6536SOL    HW120495   2.817   3.754  11.837
 6536SOL    HW220496   2.859   3.702  11.973
 6537SOL     OW20497   2.785   3.803  12.570
 6537SOL    HW120498   2.814   3.782  12.481
 6537SOL    HW220499   2.858   3.851  12.608
 6538SOL     OW20500   3.129   0.075  12.437
 6538SOL    HW120501   3.140   0.143  12.503
 6538SOL    HW220502   3.061   0.108  12.378
 6539SOL     OW20503   2.371   3.749  12.928
 6539SOL    HW120504   2.315   3.704  12.865
 6539SOL    HW220505   2.340   3.840  12.926
 6540SOL     OW20506   2.156   3.920  12.423
 6540SOL    HW120507   2.112   3.939  12.506
 6540SOL    HW220508   2.144   3.826  12.410
 6541SOL     OW20509   3.444   3.954  11.295
 6541SOL    HW120510   3.379   3.898  11.337
 6541SOL    HW220511   3.457   0.026  11.357
 6542SOL     OW20512   3.025   3.922  12.645
 6542SOL    HW120513   3.028   3.995  12.706
 6542SOL    HW220514   3.067   3.955  12.565
 6543SOL     OW20515   2.763   3.811  11.274
 6543SOL    HW120516   2.823   3.772  11.211
 6543SOL    HW220517   2.803   3.795  11.359
 6544SOL     OW20518   3.590   3.859  11.697
 6544SOL    HW120519   3.659   3.845  11.631
 6544SOL    HW220520   3.570   3.772  11.729
 6545SOL     OW20521   3.697   3.895  12.135
 6545SOL    HW120522   3.730   3.809  12.112
 6545SOL    HW220523   3.611   3.900  12.093
 6546SOL     OW20524   2.538   3.910  12.662
 6546SOL    HW120525   2.621   3.901  12.615
 6546SOL    HW220526   2.563   3.932  12.751
 6547SOL     OW20527   1.907   0.052  11.206
 6547SOL    HW120528   1.869   0.029  11.121
 6547SOL    HW220529   1.937   0.143  11.194
 6548SOL     OW20530   1.924   3.865  11.481
 6548SOL    HW120531   1.913   3.954  11.450
 6548SOL    HW220532   2.005   3.835  11.440
 6549SOL     OW20533   3.055   0.012  11.638
 6549SOL    HW120534   3.123   3.944  11.637
 6549SOL    HW220535   3.077   0.066  11.714
 6550SOL     OW20536   3.647   0.048  12.800
 6550SOL    HW120537   3.603   0.081  12.721
 6550SOL    HW220538   3.577   0.003  12.849
 6551SOL     OW20539   3.678   3.910  12.408
 6551SOL    HW120540   3.666   3.818  12.431
 6551SOL    HW220541   3.687   3.910  12.312
 6552SOL     OW20542   3.301   3.932  12.289
 6552SOL    HW120543   3.329   3.850  12.331
 6552SOL    HW220544   3.243   3.973  12.353
 6553SOL     OW20545   2.877   3.736  12.320
 6553SOL    HW120546   2.820   3.681  12.267
 6553SOL    HW220547   2.963   3.693  12.315
 6554SOL     OW20548   3.217   3.770  11.331
 6554SOL    HW120549   3.250   3.700  11.276
 6554SOL    HW220550   3.129   3.742  11.357
 6555SOL     OW20551   3.144   0.162  11.854
 6555SOL    HW120552   3.145   0.257  11.859
 6555SOL    HW220553   3.148   0.133  11.946
 6556SOL     OW20554   3.440   3.930  12.051
 6556SOL    HW120555   3.390   3.932  12.133
 6556SOL    HW220556   3.437   0.020  12.019
 6557SOL     OW20557   1.880   0.089  13.687
 6557SOL    HW120558   1.799   0.110  13.733
 6557SOL    HW220559   1.868   3.999  13.657
 6558SOL     OW20560   3.633   0.317  13.216
 6558SOL    HW120561   3.557   0.302  13.160
 6558SOL    HW220562   3.597   0.335  13.303
 6559SOL     OW20563   3.465   0.174  13.766
 6559SOL    HW120564   3.376   0.152  13.738
 6559SOL    HW220565   3.457   0.262  13.802
 6560SOL     OW20566   2.670   3.730  13.540
 6560SOL    HW120567   2.694   3.823  13.533
 6560SOL    HW220568   2.575   3.731  13.549
 6561SOL     OW20569   3.268   3.836  13.462
 6561SOL    HW120570   3.263   3.800  13.373
 6561SOL    HW220571   3.361   3.828  13.486
 6562SOL     OW20572   2.490   3.849  13.161
 6562SOL    HW120573   2.581   3.819  13.161
 6562SOL    HW220574   2.449   3.801  13.089
 6563SOL     OW20575   2.398   3.780  13.548
 6563SOL    HW120576   2.345   3.770  13.627
 6563SOL    HW220577   2.401   3.874  13.533
 6564SOL     OW20578   2.147   3.759  13.213
 6564SOL    HW120579   2.188   3.845  13.205
 6564SOL    HW220580   2.215   3.704  13.253
 6565SOL     OW20581   2.874   3.763  13.771
 6565SOL    HW120582   2.817   3.757  13.694
 6565SOL    HW220583   2.854   3.684  13.821
 6566SOL     OW20584   3.443   3.958  13.158
 6566SOL    HW120585   3.385   3.896  13.201
 6566SOL    HW220586   3.477   0.013  13.228
 6567SOL     OW20587   2.763   3.811  13.136
 6567SOL    HW120588   2.823   3.772  13.073
 6567SOL    HW220589   2.803   3.793  13.221
 6568SOL     OW20590   3.590   3.858  13.566
 6568SOL    HW120591   3.659   3.847  13.500
 6568SOL    HW220592   3.573   3.769  13.597
 6569SOL     OW20593   3.712   3.894   0.046
 6569SOL    HW120594   3.746   3.805   0.056
 6569SOL    HW220595   3.624   3.891   0.082
 6570SOL     OW20596   1.908   0.052  13.065
 6570SOL    HW120597   1.869   0.030  12.980
 6570SOL    HW220598   1.937   0.143  13.055
 6571SOL     OW20599   1.921   3.866  13.343
 6571SOL    HW120600   1.915   3.959  13.321
 6571SOL    HW220601   2.002   3.837  13.300
 6572SOL     OW20602   3.050   0.002  13.516
 6572SOL    HW120603   3.123   3.943  13.497
 6572SOL    HW220604   3.083   0.061  13.584
 6573SOL     OW20605   3.218   3.770  13.192
 6573SOL    HW120606   3.250   3.699  13.137
 6573SOL    HW220607   3.130   3.743  13.219
 6574SOL     OW20608   3.174   0.156  13.735
 6574SOL    HW120609   3.139   0.243  13.717
 6574SOL    HW220610   3.155   0.141  13.827
 6575SOL     OW20611   3.954   0.630   0.127
 6575SOL    HW120612   3.892   0.631   0.199
 6575SOL    HW220613   3.913   0.575   0.060
 6576SOL     OW20614   3.954   0.298   0.993
 6576SOL    HW120615   3.964   0.273   1.085
 6576SOL    HW220616   3.868   0.263   0.968
 6577SOL     OW20617   3.731   0.394   0.638
 6577SOL    HW120618   3.644   0.408   0.674
 6577SOL    HW220619   3.722   0.317   0.581
 6578SOL     OW20620   0.012   1.525   1.050
 6578SOL    HW120621   3.960   1.446   1.037
 6578SOL    HW220622   0.080   1.521   0.982
 6579SOL     OW20623   3.947   1.717   0.474
 6579SOL    HW120624   3.945   1.791   0.534
 6579SOL    HW220625   0.040   1.706   0.454
 6580SOL     OW20626   3.936   1.438   0.507
 6580SOL    HW120627   3.926   1.533   0.510
 6580SOL    HW220628   3.883   1.405   0.580
 6581SOL     OW20629   3.807   0.649   0.557
 6581SOL    HW120630   3.791   0.558   0.582
 6581SOL    HW220631   3.811   0.696   0.640
 6582SOL     OW20632   3.695   1.617   0.099
 6582SOL    HW120633   3.730   1.530   0.117
 6582SOL    HW220634   3.699   1.662   0.184
 6583SOL     OW20635   3.825   0.751   1.577
 6583SOL    HW120636   3.906   0.795   1.599
 6583SOL    HW220637   3.760   0.821   1.570
 6584SOL     OW20638   3.804   0.818   0.771
 6584SOL    HW120639   3.898   0.814   0.791
 6584SOL    HW220640   3.772   0.891   0.825
 6585SOL     OW20641   3.847   1.873   1.569
 6585SOL    HW120642   3.848   1.844   1.660
 6585SOL    HW220643   3.767   1.836   1.532
 6586SOL     OW20644   3.924   0.310   1.520
 6586SOL    HW120645   3.850   0.359   1.484
 6586SOL    HW220646   3.884   0.247   1.580
 6587SOL     OW20647   3.808   0.548   1.391
 6587SOL    HW120648   3.903   0.546   1.379
 6587SOL    HW220649   3.793   0.624   1.448
 6588SOL     OW20650   3.791   1.573   1.350
 6588SOL    HW120651   3.764   1.636   1.282
 6588SOL    HW220652   3.887   1.580   1.352
 6589SOL     OW20653   0.070   1.096   0.536
 6589SOL    HW120654   0.081   1.151   0.459
 6589SOL    HW220655   0.144   1.035   0.532
 6590SOL     OW20656   0.005   0.215   1.247
 6590SOL    HW120657   3.977   0.239   1.335
 6590SOL    HW220658   0.004   0.119   1.247
 6591SOL     OW20659   3.752   1.312   1.277
 6591SOL    HW120660   3.794   1.262   1.347
 6591SOL    HW220661   3.765   1.404   1.302
 6592SOL     OW20662   3.743   1.318   0.171
 6592SOL    HW120663   3.659   1.333   0.127
 6592SOL    HW220664   3.731   1.235   0.218
 6593SOL     OW20665   3.801   1.794   0.938
 6593SOL    HW120666   3.778   1.713   0.892
 6593SOL    HW220667   3.895   1.804   0.924
 6594SOL     OW20668   0.212   1.551   0.867
 6594SOL    HW120669   0.291   1.604   0.867
 6594SOL    HW220670   0.226   1.488   0.796
 6595SOL     OW20671   3.752   0.535   1.117
 6595SOL    HW120672   3.832   0.529   1.064
 6595SOL    HW220673   3.784   0.545   1.207
 6596SOL     OW20674   3.904   0.531   1.713
 6596SOL    HW120675   3.941   0.477   1.643
 6596SOL    HW220676   3.862   0.604   1.668
 6597SOL     OW20677   3.942   1.532   1.726
 6597SOL    HW120678   3.931   1.615   1.773
 6597SOL    HW220679   3.989   1.476   1.788
 6598SOL     OW20680   3.860   1.134   1.473
 6598SOL    HW120681   3.933   1.130   1.534
 6598SOL    HW220682   3.892   1.092   1.393
 6599SOL     OW20683   3.811   1.268   1.012
 6599SOL    HW120684   3.783   1.279   1.103
 6599SOL    HW220685   3.751   1.202   0.977
 6600SOL     OW20686   3.843   1.790   1.825
 6600SOL    HW120687   3.791   1.726   1.873
 6600SOL    HW220688   3.894   1.835   1.893
 6601SOL     OW20689   3.802   0.405   0.003
 6601SOL    HW120690   3.764   0.324   0.038
 6601SOL    HW220691   3.775   0.406  13.811
 6602SOL     OW20692   3.793   0.145   0.350
 6602SOL    HW120693   3.757   0.222   0.306
 6602SOL    HW220694   3.888   0.159   0.348
 6603SOL     OW20695   3.800   1.235   0.665
 6603SOL    HW120696   3.792   1.187   0.747
 6603SOL    HW220697   3.884   1.205   0.628
 6604SOL     OW20698   3.753   1.080   0.306
 6604SOL    HW120699   3.848   1.086   0.310
 6604SOL    HW220700   3.734   0.989   0.327
 6605SOL     OW20701   3.956   0.631   1.970
 6605SOL    HW120702   3.875   0.635   2.020
 6605SOL    HW220703   3.930   0.599   1.884
 6606SOL     OW20704   3.954   0.295   2.854
 6606SOL    HW120705   3.964   0.273   2.947
 6606SOL    HW220706   3.868   0.262   2.830
 6607SOL     OW20707   3.731   0.393   2.500
 6607SOL    HW120708   3.644   0.408   2.536
 6607SOL    HW220709   3.721   0.317   2.443
 6608SOL     OW20710   0.012   1.525   2.912
 6608SOL    HW120711   3.960   1.446   2.899
 6608SOL    HW220712   0.079   1.521   2.844
 6609SOL     OW20713   3.942   1.720   2.337
 6609SOL    HW120714   3.945   1.792   2.400
 6609SOL    HW220715   0.033   1.704   2.313
 6610SOL     OW20716   3.944   1.439   2.370
 6610SOL    HW120717   3.923   1.532   2.371
 6610SOL    HW220718   3.887   1.401   2.437
 6611SOL     OW20719   3.806   0.649   2.421
 6611SOL    HW120720   3.791   0.558   2.446
 6611SOL    HW220721   3.810   0.696   2.504
 6612SOL     OW20722   3.757   1.596   1.991
 6612SOL    HW120723   3.736   1.504   2.008
 6612SOL    HW220724   3.726   1.643   2.068
 6613SOL     OW20725   3.825   0.751   3.439
 6613SOL    HW120726   3.906   0.795   3.461
 6613SOL    HW220727   3.760   0.821   3.432
 6614SOL     OW20728   3.804   0.818   2.635
 6614SOL    HW120729   3.898   0.814   2.653
 6614SOL    HW220730   3.772   0.891   2.687
 6615SOL     OW20731   3.847   1.873   3.431
 6615SOL    HW120732   3.848   1.844   3.522
 6615SOL    HW220733   3.767   1.837   3.394
 6616SOL     OW20734   3.924   0.310   3.382
 6616SOL    HW120735   3.850   0.359   3.346
 6616SOL    HW220736   3.884   0.248   3.443
 6617SOL     OW20737   3.808   0.548   3.254
 6617SOL    HW120738   3.903   0.546   3.241
 6617SOL    HW220739   3.793   0.624   3.310
 6618SOL     OW20740   0.267   0.291   2.195
 6618SOL    HW120741   0.316   0.226   2.146
 6618SOL    HW220742   0.304   0.375   2.167
 6619SOL     OW20743   3.791   1.573   3.212
 6619SOL    HW120744   3.764   1.636   3.144
 6619SOL    HW220745   3.887   1.580   3.214
 6620SOL     OW20746   0.065   1.095   2.392
 6620SOL    HW120747   0.062   1.136   2.306
 6620SOL    HW220748   0.130   1.024   2.382
 6621SOL     OW20749   0.005   0.215   3.109
 6621SOL    HW120750   3.977   0.240   3.197
 6621SOL    HW220751   0.004   0.119   3.109
 6622SOL     OW20752   3.752   1.312   3.139
 6622SOL    HW120753   3.794   1.262   3.209
 6622SOL    HW220754   3.765   1.403   3.164
 6623SOL     OW20755   3.728   1.326   2.049
 6623SOL    HW120756   3.642   1.340   2.009
 6623SOL    HW220757   3.720   1.243   2.095
 6624SOL     OW20758   3.801   1.794   2.800
 6624SOL    HW120759   3.778   1.714   2.754
 6624SOL    HW220760   3.895   1.804   2.787
 6625SOL     OW20761   0.212   1.551   2.729
 6625SOL    HW120762   0.292   1.603   2.729
 6625SOL    HW220763   0.226   1.487   2.658
 6626SOL     OW20764   3.753   0.535   2.979
 6626SOL    HW120765   3.832   0.529   2.926
 6626SOL    HW220766   3.784   0.545   3.069
 6627SOL     OW20767   3.904   0.531   3.575
 6627SOL    HW120768   3.942   0.478   3.505
 6627SOL    HW220769   3.861   0.604   3.530
 6628SOL     OW20770   3.942   1.532   3.588
 6628SOL    HW120771   3.931   1.615   3.635
 6628SOL    HW220772   3.989   1.476   3.650
 6629SOL     OW20773   3.860   1.134   3.335
 6629SOL    HW120774   3.934   1.130   3.396
 6629SOL    HW220775   3.892   1.092   3.255
 6630SOL     OW20776   3.810   1.268   2.874
 6630SOL    HW120777   3.782   1.279   2.965
 6630SOL    HW220778   3.751   1.202   2.839
 6631SOL     OW20779   3.843   1.790   3.687
 6631SOL    HW120780   3.791   1.725   3.735
 6631SOL    HW220781   3.894   1.835   3.755
 6632SOL     OW20782   3.823   0.316   1.857
 6632SOL    HW120783   3.755   0.333   1.922
 6632SOL    HW220784   3.822   0.393   1.800
 6633SOL     OW20785   3.777   0.151   2.206
 6633SOL    HW120786   3.744   0.207   2.136
 6633SOL    HW220787   3.872   0.154   2.198
 6634SOL     OW20788   3.801   1.237   2.527
 6634SOL    HW120789   3.794   1.188   2.609
 6634SOL    HW220790   3.879   1.201   2.485
 6635SOL     OW20791   3.752   1.082   2.173
 6635SOL    HW120792   3.843   1.083   2.141
 6635SOL    HW220793   3.735   0.990   2.193
 6636SOL     OW20794   3.956   0.631   3.832
 6636SOL    HW120795   3.875   0.635   3.882
 6636SOL    HW220796   3.929   0.599   3.746
 6637SOL     OW20797   3.954   0.295   4.716
 6637SOL    HW120798   3.964   0.273   4.809
 6637SOL    HW220799   3.868   0.262   4.692
 6638SOL     OW20800   3.731   0.393   4.362
 6638SOL    HW120801   3.644   0.408   4.398
 6638SOL    HW220802   3.720   0.317   4.304
 6639SOL     OW20803   0.012   1.525   4.774
 6639SOL    HW120804   3.960   1.446   4.761
 6639SOL    HW220805   0.080   1.521   4.706
 6640SOL     OW20806   3.942   1.720   4.199
 6640SOL    HW120807   3.945   1.792   4.262
 6640SOL    HW220808   0.033   1.704   4.175
 6641SOL     OW20809   3.944   1.439   4.232
 6641SOL    HW120810   3.923   1.532   4.233
 6641SOL    HW220811   3.886   1.401   4.299
 6642SOL     OW20812   3.806   0.649   4.283
 6642SOL    HW120813   3.791   0.558   4.308
 6642SOL    HW220814   3.810   0.696   4.366
 6643SOL     OW20815   3.757   1.596   3.853
 6643SOL    HW120816   3.736   1.504   3.870
 6643SOL    HW220817   3.726   1.643   3.930
 6644SOL     OW20818   3.825   0.751   5.301
 6644SOL    HW120819   3.906   0.795   5.323
 6644SOL    HW220820   3.760   0.821   5.294
 6645SOL     OW20821   3.804   0.818   4.497
 6645SOL    HW120822   3.898   0.814   4.515
 6645SOL    HW220823   3.772   0.891   4.549
 6646SOL     OW20824   3.847   1.874   5.293
 6646SOL    HW120825   3.847   1.844   5.384
 6646SOL    HW220826   3.767   1.837   5.256
 6647SOL     OW20827   3.924   0.310   5.244
 6647SOL    HW120828   3.850   0.359   5.208
 6647SOL    HW220829   3.884   0.248   5.304
 6648SOL     OW20830   3.808   0.548   5.116
 6648SOL    HW120831   3.903   0.546   5.103
 6648SOL    HW220832   3.793   0.624   5.172
 6649SOL     OW20833   0.267   0.291   4.057
 6649SOL    HW120834   0.316   0.226   4.008
 6649SOL    HW220835   0.304   0.375   4.029
 6650SOL     OW20836   3.791   1.573   5.074
 6650SOL    HW120837   3.764   1.636   5.006
 6650SOL    HW220838   3.887   1.580   5.076
 6651SOL     OW20839   0.065   1.095   4.254
 6651SOL    HW120840   0.062   1.137   4.168
 6651SOL    HW220841   0.130   1.025   4.244
 6652SOL     OW20842   0.005   0.215   4.971
 6652SOL    HW120843   3.977   0.240   5.059
 6652SOL    HW220844   0.004   0.119   4.971
 6653SOL     OW20845   3.752   1.312   5.002
 6653SOL    HW120846   3.795   1.262   5.071
 6653SOL    HW220847   3.765   1.404   5.025
 6654SOL     OW20848   3.728   1.326   3.911
 6654SOL    HW120849   3.642   1.340   3.871
 6654SOL    HW220850   3.720   1.243   3.957
 6655SOL     OW20851   3.801   1.794   4.662
 6655SOL    HW120852   3.778   1.714   4.616
 6655SOL    HW220853   3.895   1.804   4.649
 6656SOL     OW20854   0.212   1.551   4.591
 6656SOL    HW120855   0.292   1.604   4.591
 6656SOL    HW220856   0.226   1.487   4.520
 6657SOL     OW20857   3.753   0.535   4.841
 6657SOL    HW120858   3.832   0.529   4.788
 6657SOL    HW220859   3.784   0.545   4.931
 6658SOL     OW20860   3.904   0.531   5.437
 6658SOL    HW120861   3.942   0.478   5.367
 6658SOL    HW220862   3.862   0.604   5.392
 6659SOL     OW20863   3.942   1.532   5.450
 6659SOL    HW120864   3.932   1.615   5.496
 6659SOL    HW220865   3.989   1.476   5.512
 6660SOL     OW20866   3.860   1.134   5.197
 6660SOL    HW120867   3.934   1.130   5.257
 6660SOL    HW220868   3.892   1.092   5.117
 6661SOL     OW20869   3.810   1.268   4.736
 6661SOL    HW120870   3.782   1.279   4.827
 6661SOL    HW220871   3.751   1.202   4.701
 6662SOL     OW20872   3.843   1.790   5.549
 6662SOL    HW120873   3.791   1.725   5.597
 6662SOL    HW220874   3.894   1.835   5.617
 6663SOL     OW20875   3.823   0.316   3.719
 6663SOL    HW120876   3.755   0.333   3.784
 6663SOL    HW220877   3.822   0.393   3.662
 6664SOL     OW20878   3.777   0.151   4.069
 6664SOL    HW120879   3.744   0.207   3.998
 6664SOL    HW220880   3.872   0.154   4.060
 6665SOL     OW20881   3.801   1.237   4.389
 6665SOL    HW120882   3.794   1.188   4.471
 6665SOL    HW220883   3.879   1.201   4.347
 6666SOL     OW20884   3.752   1.082   4.035
 6666SOL    HW120885   3.843   1.083   4.003
 6666SOL    HW220886   3.735   0.990   4.055
 6667SOL     OW20887   3.956   0.631   5.694
 6667SOL    HW120888   3.875   0.635   5.744
 6667SOL    HW220889   3.930   0.599   5.608
 6668SOL     OW20890   3.954   0.295   6.578
 6668SOL    HW120891   3.964   0.273   6.671
 6668SOL    HW220892   3.868   0.262   6.554
 6669SOL     OW20893   3.731   0.393   6.224
 6669SOL    HW120894   3.644   0.407   6.260
 6669SOL    HW220895   3.721   0.317   6.166
 6670SOL     OW20896   0.012   1.525   6.636
 6670SOL    HW120897   3.960   1.446   6.623
 6670SOL    HW220898   0.080   1.521   6.568
 6671SOL     OW20899   3.942   1.720   6.061
 6671SOL    HW120900   3.945   1.792   6.124
 6671SOL    HW220901   0.033   1.704   6.037
 6672SOL     OW20902   3.944   1.439   6.095
 6672SOL    HW120903   3.923   1.532   6.095
 6672SOL    HW220904   3.886   1.401   6.161
 6673SOL     OW20905   3.806   0.649   6.145
 6673SOL    HW120906   3.792   0.558   6.170
 6673SOL    HW220907   3.810   0.696   6.228
 6674SOL     OW20908   3.758   1.596   5.715
 6674SOL    HW120909   3.736   1.504   5.732
 6674SOL    HW220910   3.726   1.643   5.792
 6675SOL     OW20911   3.825   0.751   7.163
 6675SOL    HW120912   3.907   0.795   7.184
 6675SOL    HW220913   3.761   0.822   7.157
 6676SOL     OW20914   3.804   0.818   6.359
 6676SOL    HW120915   3.898   0.814   6.377
 6676SOL    HW220916   3.772   0.891   6.411
 6677SOL     OW20917   3.847   1.873   7.155
 6677SOL    HW120918   3.848   1.843   7.246
 6677SOL    HW220919   3.766   1.838   7.119
 6678SOL     OW20920   3.924   0.310   7.106
 6678SOL    HW120921   3.850   0.359   7.070
 6678SOL    HW220922   3.884   0.247   7.166
 6679SOL     OW20923   3.808   0.548   6.978
 6679SOL    HW120924   3.903   0.546   6.965
 6679SOL    HW220925   3.793   0.624   7.034
 6680SOL     OW20926   0.267   0.291   5.919
 6680SOL    HW120927   0.316   0.225   5.870
 6680SOL    HW220928   0.304   0.375   5.891
 6681SOL     OW20929   3.791   1.573   6.935
 6681SOL    HW120930   3.764   1.636   6.869
 6681SOL    HW220931   3.887   1.580   6.938
 6682SOL     OW20932   0.065   1.095   6.116
 6682SOL    HW120933   0.063   1.137   6.030
 6682SOL    HW220934   0.131   1.025   6.106
 6683SOL     OW20935   0.004   0.215   6.833
 6683SOL    HW120936   3.978   0.240   6.921
 6683SOL    HW220937   0.004   0.119   6.833
 6684SOL     OW20938   3.750   1.312   6.864
 6684SOL    HW120939   3.795   1.262   6.933
 6684SOL    HW220940   3.764   1.404   6.887
 6685SOL     OW20941   3.728   1.326   5.773
 6685SOL    HW120942   3.642   1.340   5.733
 6685SOL    HW220943   3.720   1.243   5.819
 6686SOL     OW20944   3.801   1.794   6.524
 6686SOL    HW120945   3.778   1.714   6.478
 6686SOL    HW220946   3.896   1.804   6.510
 6687SOL     OW20947   0.213   1.551   6.453
 6687SOL    HW120948   0.293   1.603   6.453
 6687SOL    HW220949   0.226   1.487   6.382
 6688SOL     OW20950   3.753   0.535   6.703
 6688SOL    HW120951   3.832   0.529   6.650
 6688SOL    HW220952   3.784   0.545   6.793
 6689SOL     OW20953   3.904   0.531   7.299
 6689SOL    HW120954   3.942   0.478   7.229
 6689SOL    HW220955   3.862   0.604   7.254
 6690SOL     OW20956   3.942   1.532   7.312
 6690SOL    HW120957   3.931   1.615   7.358
 6690SOL    HW220958   3.991   1.477   7.373
 6691SOL     OW20959   3.860   1.133   7.059
 6691SOL    HW120960   3.934   1.131   7.119
 6691SOL    HW220961   3.892   1.092   6.979
 6692SOL     OW20962   3.810   1.268   6.599
 6692SOL    HW120963   3.782   1.279   6.689
 6692SOL    HW220964   3.751   1.202   6.563
 6693SOL     OW20965   3.844   1.790   7.411
 6693SOL    HW120966   3.792   1.725   7.459
 6693SOL    HW220967   3.894   1.835   7.479
 6694SOL     OW20968   3.823   0.316   5.581
 6694SOL    HW120969   3.755   0.334   5.646
 6694SOL    HW220970   3.822   0.393   5.524
 6695SOL     OW20971   3.777   0.152   5.931
 6695SOL    HW120972   3.745   0.207   5.860
 6695SOL    HW220973   3.872   0.154   5.922
 6696SOL     OW20974   3.801   1.237   6.251
 6696SOL    HW120975   3.794   1.189   6.333
 6696SOL    HW220976   3.879   1.202   6.208
 6697SOL     OW20977   3.752   1.082   5.897
 6697SOL    HW120978   3.842   1.083   5.865
 6697SOL    HW220979   3.735   0.990   5.917
 6698SOL     OW20980   3.956   0.631   7.556
 6698SOL    HW120981   3.875   0.635   7.606
 6698SOL    HW220982   3.930   0.599   7.469
 6699SOL     OW20983   3.954   0.296   8.440
 6699SOL    HW120984   3.964   0.273   8.533
 6699SOL    HW220985   3.868   0.262   8.416
 6700SOL     OW20986   3.731   0.393   8.086
 6700SOL    HW120987   3.644   0.407   8.122
 6700SOL    HW220988   3.721   0.316   8.029
 6701SOL     OW20989   0.012   1.524   8.498
 6701SOL    HW120990   3.960   1.445   8.484
 6701SOL    HW220991   0.080   1.521   8.431
 6702SOL     OW20992   3.942   1.719   7.923
 6702SOL    HW120993   3.945   1.792   7.986
 6702SOL    HW220994   0.033   1.704   7.898
 6703SOL     OW20995   3.944   1.439   7.957
 6703SOL    HW120996   3.924   1.532   7.956
 6703SOL    HW220997   3.886   1.402   8.024
 6704SOL     OW20998   3.805   0.649   8.007
 6704SOL    HW120999   3.792   0.558   8.032
 6704SOL    HW221000   3.810   0.696   8.090
 6705SOL     OW21001   3.757   1.596   7.577
 6705SOL    HW121002   3.736   1.504   7.595
 6705SOL    HW221003   3.726   1.643   7.655
 6706SOL     OW21004   3.825   0.751   9.025
 6706SOL    HW121005   3.907   0.795   9.047
 6706SOL    HW221006   3.760   0.821   9.019
 6707SOL     OW21007   3.804   0.818   8.221
 6707SOL    HW121008   3.898   0.814   8.239
 6707SOL    HW221009   3.773   0.892   8.274
 6708SOL     OW21010   3.847   1.874   9.017
 6708SOL    HW121011   3.847   1.844   9.108
 6708SOL    HW221012   3.767   1.836   8.980
 6709SOL     OW21013   3.924   0.310   8.968
 6709SOL    HW121014   3.850   0.359   8.932
 6709SOL    HW221015   3.884   0.248   9.028
 6710SOL     OW21016   3.808   0.548   8.840
 6710SOL    HW121017   3.903   0.546   8.827
 6710SOL    HW221018   3.793   0.624   8.896
 6711SOL     OW21019   0.266   0.292   7.780
 6711SOL    HW121020   0.316   0.226   7.732
 6711SOL    HW221021   0.304   0.375   7.753
 6712SOL     OW21022   3.792   1.573   8.798
 6712SOL    HW121023   3.765   1.636   8.730
 6712SOL    HW221024   3.887   1.580   8.800
 6713SOL     OW21025   0.066   1.094   7.978
 6713SOL    HW121026   0.064   1.138   7.892
 6713SOL    HW221027   0.133   1.026   7.968
 6714SOL     OW21028   0.004   0.215   8.695
 6714SOL    HW121029   3.977   0.240   8.783
 6714SOL    HW221030   0.004   0.119   8.695
 6715SOL     OW21031   3.751   1.312   8.726
 6715SOL    HW121032   3.795   1.262   8.795
 6715SOL    HW221033   3.765   1.404   8.749
 6716SOL     OW21034   3.728   1.327   7.636
 6716SOL    HW121035   3.642   1.340   7.596
 6716SOL    HW221036   3.720   1.243   7.682
 6717SOL     OW21037   3.801   1.795   8.387
 6717SOL    HW121038   3.778   1.714   8.340
 6717SOL    HW221039   3.896   1.804   8.373
 6718SOL     OW21040   0.212   1.551   8.315
 6718SOL    HW121041   0.292   1.604   8.315
 6718SOL    HW221042   0.226   1.488   8.244
 6719SOL     OW21043   3.752   0.535   8.565
 6719SOL    HW121044   3.832   0.529   8.512
 6719SOL    HW221045   3.784   0.545   8.655
 6720SOL     OW21046   3.904   0.531   9.161
 6720SOL    HW121047   3.942   0.478   9.091
 6720SOL    HW221048   3.861   0.604   9.116
 6721SOL     OW21049   3.942   1.532   9.174
 6721SOL    HW121050   3.932   1.615   9.221
 6721SOL    HW221051   3.990   1.476   9.235
 6722SOL     OW21052   3.860   1.134   8.921
 6722SOL    HW121053   3.933   1.130   8.982
 6722SOL    HW221054   3.893   1.092   8.841
 6723SOL     OW21055   3.810   1.269   8.460
 6723SOL    HW121056   3.782   1.279   8.551
 6723SOL    HW221057   3.751   1.202   8.425
 6724SOL     OW21058   3.843   1.790   9.273
 6724SOL    HW121059   3.791   1.726   9.321
 6724SOL    HW221060   3.893   1.835   9.341
 6725SOL     OW21061   3.823   0.316   7.443
 6725SOL    HW121062   3.755   0.334   7.508
 6725SOL    HW221063   3.822   0.393   7.386
 6726SOL     OW21064   3.777   0.152   7.793
 6726SOL    HW121065   3.745   0.208   7.722
 6726SOL    HW221066   3.872   0.154   7.784
 6727SOL     OW21067   3.800   1.237   8.113
 6727SOL    HW121068   3.795   1.189   8.195
 6727SOL    HW221069   3.879   1.203   8.070
 6728SOL     OW21070   3.752   1.082   7.759
 6728SOL    HW121071   3.842   1.083   7.727
 6728SOL    HW221072   3.735   0.990   7.779
 6729SOL     OW21073   3.956   0.631   9.418
 6729SOL    HW121074   3.875   0.635   9.468
 6729SOL    HW221075   3.930   0.599   9.332
 6730SOL     OW21076   3.954   0.295  10.302
 6730SOL    HW121077   3.964   0.273  10.395
 6730SOL    HW221078   3.868   0.262  10.278
 6731SOL     OW21079   3.731   0.393   9.948
 6731SOL    HW121080   3.644   0.408   9.984
 6731SOL    HW221081   3.721   0.317   9.890
 6732SOL     OW21082   0.012   1.525  10.360
 6732SOL    HW121083   3.960   1.445  10.347
 6732SOL    HW221084   0.080   1.521  10.292
 6733SOL     OW21085   3.942   1.720   9.785
 6733SOL    HW121086   3.945   1.792   9.848
 6733SOL    HW221087   0.033   1.704   9.761
 6734SOL     OW21088   3.944   1.439   9.819
 6734SOL    HW121089   3.923   1.532   9.819
 6734SOL    HW221090   3.887   1.401   9.885
 6735SOL     OW21091   3.806   0.649   9.869
 6735SOL    HW121092   3.791   0.558   9.894
 6735SOL    HW221093   3.810   0.696   9.952
 6736SOL     OW21094   3.757   1.596   9.439
 6736SOL    HW121095   3.736   1.504   9.456
 6736SOL    HW221096   3.726   1.643   9.516
 6737SOL     OW21097   3.825   0.751  10.887
 6737SOL    HW121098   3.906   0.795  10.909
 6737SOL    HW221099   3.760   0.821  10.880
 6738SOL     OW21100   3.804   0.818  10.083
 6738SOL    HW121101   3.898   0.814  10.101
 6738SOL    HW221102   3.772   0.891  10.135
 6739SOL     OW21103   3.847   1.874  10.879
 6739SOL    HW121104   3.847   1.844  10.970
 6739SOL    HW221105   3.767   1.836  10.842
 6740SOL     OW21106   3.924   0.310  10.830
 6740SOL    HW121107   3.850   0.359  10.794
 6740SOL    HW221108   3.884   0.248  10.891
 6741SOL     OW21109   3.808   0.548  10.702
 6741SOL    HW121110   3.903   0.546  10.689
 6741SOL    HW221111   3.793   0.624  10.758
 6742SOL     OW21112   0.267   0.292   9.643
 6742SOL    HW121113   0.316   0.226   9.594
 6742SOL    HW221114   0.304   0.375   9.615
 6743SOL     OW21115   3.791   1.573  10.660
 6743SOL    HW121116   3.764   1.636  10.592
 6743SOL    HW221117   3.887   1.580  10.662
 6744SOL     OW21118   0.065   1.095   9.840
 6744SOL    HW121119   0.063   1.137   9.754
 6744SOL    HW221120   0.130   1.025   9.831
 6745SOL     OW21121   0.005   0.215  10.557
 6745SOL    HW121122   3.977   0.240  10.645
 6745SOL    HW221123   0.004   0.119  10.557
 6746SOL     OW21124   3.751   1.312  10.588
 6746SOL    HW121125   3.794   1.262  10.657
 6746SOL    HW221126   3.765   1.404  10.612
 6747SOL     OW21127   3.728   1.327   9.497
 6747SOL    HW121128   3.642   1.340   9.457
 6747SOL    HW221129   3.720   1.243   9.543
 6748SOL     OW21130   3.801   1.794  10.248
 6748SOL    HW121131   3.778   1.714  10.202
 6748SOL    HW221132   3.895   1.804  10.235
 6749SOL     OW21133   0.212   1.551  10.177
 6749SOL    HW121134   0.292   1.603  10.177
 6749SOL    HW221135   0.226   1.487  10.106
 6750SOL     OW21136   3.753   0.535  10.427
 6750SOL    HW121137   3.832   0.529  10.374
 6750SOL    HW221138   3.784   0.545  10.517
 6751SOL     OW21139   3.904   0.531  11.023
 6751SOL    HW121140   3.942   0.478  10.953
 6751SOL    HW221141   3.861   0.604  10.978
 6752SOL     OW21142   3.942   1.532  11.036
 6752SOL    HW121143   3.932   1.615  11.083
 6752SOL    HW221144   3.990   1.476  11.097
 6753SOL     OW21145   3.860   1.134  10.783
 6753SOL    HW121146   3.934   1.130  10.844
 6753SOL    HW221147   3.892   1.092  10.703
 6754SOL     OW21148   3.810   1.268  10.322
 6754SOL    HW121149   3.782   1.279  10.413
 6754SOL    HW221150   3.751   1.202  10.287
 6755SOL     OW21151   3.843   1.790  11.135
 6755SOL    HW121152   3.791   1.726  11.183
 6755SOL    HW221153   3.893   1.835  11.203
 6756SOL     OW21154   3.823   0.316   9.305
 6756SOL    HW121155   3.755   0.333   9.370
 6756SOL    HW221156   3.822   0.393   9.248
 6757SOL     OW21157   3.777   0.151   9.655
 6757SOL    HW121158   3.744   0.207   9.584
 6757SOL    HW221159   3.872   0.154   9.646
 6758SOL     OW21160   3.801   1.237   9.975
 6758SOL    HW121161   3.794   1.188  10.057
 6758SOL    HW221162   3.879   1.202   9.932
 6759SOL     OW21163   3.752   1.082   9.621
 6759SOL    HW121164   3.843   1.083   9.589
 6759SOL    HW221165   3.735   0.990   9.641
 6760SOL     OW21166   3.956   0.631  11.280
 6760SOL    HW121167   3.875   0.635  11.330
 6760SOL    HW221168   3.930   0.599  11.194
 6761SOL     OW21169   3.954   0.295  12.164
 6761SOL    HW121170   3.964   0.273  12.257
 6761SOL    HW221171   3.868   0.262  12.141
 6762SOL     OW21172   3.731   0.393  11.810
 6762SOL    HW121173   3.644   0.408  11.846
 6762SOL    HW221174   3.721   0.317  11.752
 6763SOL     OW21175   0.012   1.525  12.222
 6763SOL    HW121176   3.960   1.445  12.209
 6763SOL    HW221177   0.080   1.521  12.154
 6764SOL     OW21178   3.942   1.720  11.647
 6764SOL    HW121179   3.945   1.792  11.710
 6764SOL    HW221180   0.033   1.704  11.623
 6765SOL     OW21181   3.944   1.439  11.681
 6765SOL    HW121182   3.923   1.532  11.681
 6765SOL    HW221183   3.886   1.401  11.747
 6766SOL     OW21184   3.806   0.649  11.731
 6766SOL    HW121185   3.791   0.558  11.756
 6766SOL    HW221186   3.810   0.696  11.814
 6767SOL     OW21187   3.757   1.596  11.301
 6767SOL    HW121188   3.736   1.504  11.318
 6767SOL    HW221189   3.726   1.643  11.378
 6768SOL     OW21190   3.825   0.751  12.749
 6768SOL    HW121191   3.906   0.795  12.770
 6768SOL    HW221192   3.760   0.821  12.742
 6769SOL     OW21193   3.804   0.818  11.945
 6769SOL    HW121194   3.898   0.814  11.963
 6769SOL    HW221195   3.772   0.891  11.997
 6770SOL     OW21196   3.847   1.873  12.742
 6770SOL    HW121197   3.848   1.844  12.833
 6770SOL    HW221198   3.767   1.836  12.705
 6771SOL     OW21199   3.924   0.310  12.692
 6771SOL    HW121200   3.850   0.359  12.656
 6771SOL    HW221201   3.884   0.247  12.752
 6772SOL     OW21202   3.808   0.548  12.564
 6772SOL    HW121203   3.903   0.546  12.551
 6772SOL    HW221204   3.793   0.624  12.620
 6773SOL     OW21205   0.267   0.292  11.504
 6773SOL    HW121206   0.316   0.226  11.456
 6773SOL    HW221207   0.304   0.375  11.477
 6774SOL     OW21208   3.791   1.573  12.522
 6774SOL    HW121209   3.764   1.636  12.454
 6774SOL    HW221210   3.887   1.580  12.524
 6775SOL     OW21211   0.065   1.095  11.702
 6775SOL    HW121212   0.062   1.137  11.616
 6775SOL    HW221213   0.131   1.025  11.693
 6776SOL     OW21214   0.005   0.215  12.419
 6776SOL    HW121215   3.977   0.240  12.507
 6776SOL    HW221216   0.004   0.119  12.419
 6777SOL     OW21217   3.751   1.312  12.450
 6777SOL    HW121218   3.795   1.262  12.519
 6777SOL    HW221219   3.765   1.404  12.473
 6778SOL     OW21220   3.728   1.327  11.359
 6778SOL    HW121221   3.642   1.340  11.319
 6778SOL    HW221222   3.720   1.243  11.405
 6779SOL     OW21223   3.801   1.794  12.110
 6779SOL    HW121224   3.778   1.714  12.064
 6779SOL    HW221225   3.895   1.804  12.097
 6780SOL     OW21226   0.212   1.551  12.039
 6780SOL    HW121227   0.292   1.604  12.039
 6780SOL    HW221228   0.226   1.488  11.968
 6781SOL     OW21229   3.752   0.535  12.289
 6781SOL    HW121230   3.832   0.529  12.236
 6781SOL    HW221231   3.784   0.545  12.379
 6782SOL     OW21232   3.905   0.531  12.885
 6782SOL    HW121233   3.941   0.478  12.815
 6782SOL    HW221234   3.862   0.604  12.841
 6783SOL     OW21235   3.942   1.532  12.899
 6783SOL    HW121236   3.932   1.615  12.946
 6783SOL    HW221237   3.988   1.476  12.960
 6784SOL     OW21238   3.860   1.134  12.645
 6784SOL    HW121239   3.934   1.131  12.705
 6784SOL    HW221240   3.892   1.092  12.565
 6785SOL     OW21241   3.810   1.268  12.184
 6785SOL    HW121242   3.782   1.279  12.275
 6785SOL    HW221243   3.751   1.202  12.148
 6786SOL     OW21244   3.844   1.791  12.999
 6786SOL    HW121245   3.792   1.726  13.046
 6786SOL    HW221246   3.893   1.836  13.067
 6787SOL     OW21247   3.823   0.316  11.167
 6787SOL    HW121248   3.755   0.333  11.232
 6787SOL    HW221249   3.822   0.393  11.110
 6788SOL     OW21250   3.777   0.151  11.517
 6788SOL    HW121251   3.744   0.207  11.446
 6788SOL    HW221252   3.872   0.154  11.508
 6789SOL     OW21253   3.801   1.237  11.837
 6789SOL    HW121254   3.794   1.188  11.919
 6789SOL    HW221255   3.879   1.202  11.794
 6790SOL     OW21256   3.752   1.082  11.483
 6790SOL    HW121257   3.843   1.083  11.451
 6790SOL    HW221258   3.735   0.990  11.503
 6791SOL     OW21259   3.954   0.630  13.143
 6791SOL    HW121260   3.871   0.634  13.190
 6791SOL    HW221261   3.931   0.598  13.056
 6792SOL     OW21262   3.721   0.388  13.646
 6792SOL    HW121263   3.630   0.406  13.671
 6792SOL    HW221264   3.720   0.297  13.616
 6793SOL     OW21265   3.941   1.715  13.503
 6793SOL    HW121266   3.941   1.790  13.563
 6793SOL    HW221267   0.033   1.701  13.483
 6794SOL     OW21268   3.943   1.435  13.539
 6794SOL    HW121269   3.924   1.529  13.540
 6794SOL    HW221270   3.885   1.399  13.606
 6795SOL     OW21271   3.946   1.096   0.005
 6795SOL    HW121272   3.983   1.051   0.081
 6795SOL    HW221273   3.860   1.126   0.033
 6796SOL     OW21274   3.824   0.647  13.594
 6796SOL    HW121275   3.781   0.564  13.610
 6796SOL    HW221276   3.813   0.696  13.676
 6797SOL     OW21277   3.755   1.596  13.162
 6797SOL    HW121278   3.735   1.504  13.180
 6797SOL    HW221279   3.725   1.643  13.240
 6798SOL     OW21280   3.797   0.809  13.812
 6798SOL    HW121281   3.891   0.816  13.827
 6798SOL    HW221282   3.760   0.888  13.851
 6799SOL     OW21283   0.098   1.810  13.884
 6799SOL    HW121284   0.057   1.735   0.028
 6799SOL    HW221285   0.168   1.837   0.044
 6800SOL     OW21286   0.267   0.294  13.368
 6800SOL    HW121287   0.315   0.223  13.325
 6800SOL    HW221288   0.310   0.374  13.338
 6801SOL     OW21289   0.068   1.095  13.557
 6801SOL    HW121290   0.066   1.140  13.472
 6801SOL    HW221291   0.136   1.028  13.547
 6802SOL     OW21292   3.728   1.327  13.220
 6802SOL    HW121293   3.642   1.340  13.180
 6802SOL    HW221294   3.720   1.244  13.268
 6803SOL     OW21295   0.313   1.534   0.014
 6803SOL    HW121296   0.257   1.606   0.044
 6803SOL    HW221297   0.255   1.481  13.860
 6804SOL     OW21298   3.823   0.317  13.029
 6804SOL    HW121299   3.754   0.333  13.093
 6804SOL    HW221300   3.821   0.393  12.972
 6805SOL     OW21301   3.787   0.152  13.372
 6805SOL    HW121302   3.751   0.208  13.303
 6805SOL    HW221303   3.881   0.154  13.358
 6806SOL     OW21304   3.808   1.232  13.690
 6806SOL    HW121305   3.798   1.170  13.762
 6806SOL    HW221306   3.886   1.202  13.643
 6807SOL     OW21307   3.752   1.081  13.343
 6807SOL    HW121308   3.842   1.083  13.309
 6807SOL    HW221309   3.737   0.989  13.364
 6808SOL     OW21310   3.954   2.496   0.130
 6808SOL    HW121311   3.885   2.498   0.195
 6808SOL    HW221312   3.918   2.446   0.057
 6809SOL     OW21313   3.961   2.126   0.986
 6809SOL    HW121314   3.966   2.121   1.082
 6809SOL    HW221315   3.869   2.112   0.967
 6810SOL     OW21316   3.724   2.245   0.636
 6810SOL    HW121317   3.644   2.267   0.683
 6810SOL    HW221318   3.706   2.161   0.594
 6811SOL     OW21319   0.013   3.383   1.052
 6811SOL    HW121320   3.961   3.305   1.033
 6811SOL    HW221321   0.079   3.385   0.983
 6812SOL     OW21322   3.939   3.575   0.479
 6812SOL    HW121323   3.951   3.649   0.539
 6812SOL    HW221324   0.026   3.561   0.441
 6813SOL     OW21325   3.934   3.297   0.508
 6813SOL    HW121326   3.926   3.393   0.507
 6813SOL    HW221327   3.882   3.269   0.583
 6814SOL     OW21328   3.814   2.503   0.559
 6814SOL    HW121329   3.784   2.415   0.584
 6814SOL    HW221330   3.811   2.553   0.640
 6815SOL     OW21331   3.746   3.468   0.116
 6815SOL    HW121332   3.726   3.376   0.135
 6815SOL    HW221333   3.713   3.516   0.192
 6816SOL     OW21334   3.825   2.604   1.583
 6816SOL    HW121335   3.908   2.646   1.606
 6816SOL    HW221336   3.762   2.676   1.576
 6817SOL     OW21337   3.804   2.679   0.769
 6817SOL    HW121338   3.897   2.676   0.790
 6817SOL    HW221339   3.770   2.751   0.822
 6818SOL     OW21340   3.849   3.723   1.568
 6818SOL    HW121341   3.848   3.695   1.660
 6818SOL    HW221342   3.762   3.700   1.535
 6819SOL     OW21343   3.923   2.153   1.515
 6819SOL    HW121344   3.841   2.196   1.489
 6819SOL    HW221345   3.895   2.070   1.552
 6820SOL     OW21346   3.809   2.410   1.390
 6820SOL    HW121347   3.904   2.405   1.380
 6820SOL    HW221348   3.794   2.483   1.450
 6821SOL     OW21349   3.792   3.435   1.349
 6821SOL    HW121350   3.766   3.499   1.283
 6821SOL    HW221351   3.887   3.442   1.353
 6822SOL     OW21352   0.073   2.954   0.535
 6822SOL    HW121353   0.080   3.014   0.460
 6822SOL    HW221354   0.152   2.901   0.530
 6823SOL     OW21355   0.006   2.074   1.251
 6823SOL    HW121356   3.976   2.105   1.337
 6823SOL    HW221357   0.011   1.979   1.260
 6824SOL     OW21358   3.751   3.174   1.277
 6824SOL    HW121359   3.794   3.124   1.346
 6824SOL    HW221360   3.765   3.266   1.300
 6825SOL     OW21361   3.994   1.921   0.654
 6825SOL    HW121362   0.014   2.014   0.667
 6825SOL    HW221363   0.017   1.880   0.737
 6826SOL     OW21364   3.740   3.177   0.174
 6826SOL    HW121365   3.657   3.188   0.127
 6826SOL    HW221366   3.729   3.093   0.220
 6827SOL     OW21367   3.803   3.651   0.938
 6827SOL    HW121368   3.781   3.571   0.892
 6827SOL    HW221369   3.897   3.661   0.926
 6828SOL     OW21370   0.212   3.419   0.868
 6828SOL    HW121371   0.279   3.488   0.864
 6828SOL    HW221372   0.236   3.358   0.798
 6829SOL     OW21373   3.756   2.402   1.118
 6829SOL    HW121374   3.839   2.398   1.071
 6829SOL    HW221375   3.781   2.407   1.211
 6830SOL     OW21376   3.900   2.377   1.722
 6830SOL    HW121377   3.927   2.316   1.654
 6830SOL    HW221378   3.858   2.450   1.676
 6831SOL     OW21379   3.941   3.392   1.727
 6831SOL    HW121380   3.931   3.478   1.769
 6831SOL    HW221381   3.990   3.340   1.791
 6832SOL     OW21382   3.859   2.996   1.473
 6832SOL    HW121383   3.932   2.992   1.535
 6832SOL    HW221384   3.894   2.956   1.393
 6833SOL     OW21385   3.810   3.129   1.012
 6833SOL    HW121386   3.783   3.142   1.103
 6833SOL    HW221387   3.750   3.063   0.977
 6834SOL     OW21388   3.840   3.648   1.824
 6834SOL    HW121389   3.790   3.583   1.874
 6834SOL    HW221390   3.888   3.698   1.891
 6835SOL     OW21391   3.777   2.271   0.030
 6835SOL    HW121392   3.742   2.187   0.061
 6835SOL    HW221393   3.759   2.271  13.836
 6836SOL     OW21394   3.785   2.020   0.347
 6836SOL    HW121395   3.760   2.044   0.258
 6836SOL    HW221396   3.881   2.022   0.347
 6837SOL     OW21397   3.798   3.095   0.666
 6837SOL    HW121398   3.793   3.049   0.749
 6837SOL    HW221399   3.884   3.072   0.630
 6838SOL     OW21400   3.751   2.937   0.308
 6838SOL    HW121401   3.847   2.944   0.310
 6838SOL    HW221402   3.733   2.845   0.326
 6839SOL     OW21403   3.954   2.495   1.972
 6839SOL    HW121404   3.873   2.491   2.023
 6839SOL    HW221405   3.930   2.458   1.887
 6840SOL     OW21406   3.961   2.125   2.849
 6840SOL    HW121407   3.966   2.121   2.944
 6840SOL    HW221408   3.869   2.112   2.829
 6841SOL     OW21409   3.724   2.242   2.498
 6841SOL    HW121410   3.644   2.268   2.545
 6841SOL    HW221411   3.702   2.159   2.457
 6842SOL     OW21412   0.011   3.384   2.913
 6842SOL    HW121413   3.962   3.304   2.896
 6842SOL    HW221414   0.079   3.385   2.845
 6843SOL     OW21415   3.941   3.582   2.338
 6843SOL    HW121416   3.951   3.655   2.398
 6843SOL    HW221417   0.031   3.563   2.310
 6844SOL     OW21418   3.941   3.301   2.369
 6844SOL    HW121419   3.924   3.395   2.373
 6844SOL    HW221420   3.886   3.264   2.438
 6845SOL     OW21421   3.816   2.502   2.422
 6845SOL    HW121422   3.785   2.415   2.446
 6845SOL    HW221423   3.811   2.552   2.504
 6846SOL     OW21424   3.754   3.457   1.992
 6846SOL    HW121425   3.735   3.365   2.009
 6846SOL    HW221426   3.724   3.503   2.071
 6847SOL     OW21427   3.825   2.604   3.445
 6847SOL    HW121428   3.908   2.646   3.468
 6847SOL    HW221429   3.762   2.676   3.438
 6848SOL     OW21430   3.804   2.678   2.633
 6848SOL    HW121431   3.898   2.675   2.652
 6848SOL    HW221432   3.771   2.751   2.685
 6849SOL     OW21433   3.849   3.723   3.430
 6849SOL    HW121434   3.848   3.695   3.522
 6849SOL    HW221435   3.762   3.700   3.398
 6850SOL     OW21436   3.922   2.153   3.378
 6850SOL    HW121437   3.841   2.196   3.351
 6850SOL    HW221438   3.894   2.070   3.414
 6851SOL     OW21439   0.001   1.887   2.024
 6851SOL    HW121440   0.034   1.976   2.010
 6851SOL    HW221441   0.062   1.847   2.086
 6852SOL     OW21442   3.809   2.409   3.252
 6852SOL    HW121443   3.904   2.405   3.242
 6852SOL    HW221444   3.794   2.483   3.312
 6853SOL     OW21445   0.280   2.150   2.184
 6853SOL    HW121446   0.298   2.076   2.126
 6853SOL    HW221447   0.318   2.225   2.138
 6854SOL     OW21448   3.792   3.435   3.211
 6854SOL    HW121449   3.766   3.499   3.145
 6854SOL    HW221450   3.887   3.442   3.215
 6855SOL     OW21451   0.067   2.955   2.391
 6855SOL    HW121452   0.062   3.000   2.307
 6855SOL    HW221453   0.135   2.889   2.380
 6856SOL     OW21454   0.006   2.074   3.114
 6856SOL    HW121455   3.976   2.105   3.200
 6856SOL    HW221456   0.011   1.979   3.122
 6857SOL     OW21457   3.751   3.174   3.139
 6857SOL    HW121458   3.794   3.124   3.209
 6857SOL    HW221459   3.766   3.265   3.163
 6858SOL     OW21460   3.998   1.921   2.515
 6858SOL    HW121461   0.010   2.015   2.529
 6858SOL    HW221462   0.019   1.881   2.600
 6859SOL     OW21463   3.728   3.188   2.050
 6859SOL    HW121464   3.642   3.201   2.010
 6859SOL    HW221465   3.720   3.104   2.096
 6860SOL     OW21466   3.803   3.652   2.800
 6860SOL    HW121467   3.780   3.571   2.754
 6860SOL    HW221468   3.897   3.661   2.788
 6861SOL     OW21469   0.212   3.419   2.730
 6861SOL    HW121470   0.280   3.486   2.725
 6861SOL    HW221471   0.235   3.356   2.661
 6862SOL     OW21472   3.756   2.402   2.980
 6862SOL    HW121473   3.839   2.398   2.933
 6862SOL    HW221474   3.781   2.407   3.073
 6863SOL     OW21475   3.901   2.377   3.584
 6863SOL    HW121476   3.927   2.316   3.516
 6863SOL    HW221477   3.858   2.450   3.538
 6864SOL     OW21478   3.941   3.392   3.589
 6864SOL    HW121479   3.932   3.478   3.632
 6864SOL    HW221480   3.990   3.340   3.652
 6865SOL     OW21481   3.859   2.996   3.335
 6865SOL    HW121482   3.932   2.992   3.397
 6865SOL    HW221483   3.893   2.955   3.255
 6866SOL     OW21484   3.810   3.131   2.874
 6866SOL    HW121485   3.782   3.142   2.965
 6866SOL    HW221486   3.750   3.064   2.839
 6867SOL     OW21487   3.840   3.648   3.687
 6867SOL    HW121488   3.790   3.583   3.736
 6867SOL    HW221489   3.888   3.698   3.753
 6868SOL     OW21490   3.801   2.196   1.905
 6868SOL    HW121491   3.717   2.161   1.876
 6868SOL    HW221492   3.820   2.267   1.844
 6869SOL     OW21493   3.763   2.023   2.175
 6869SOL    HW121494   3.755   2.086   2.104
 6869SOL    HW221495   3.855   2.029   2.202
 6870SOL     OW21496   3.800   3.100   2.528
 6870SOL    HW121497   3.794   3.051   2.610
 6870SOL    HW221498   3.879   3.066   2.486
 6871SOL     OW21499   3.751   2.940   2.173
 6871SOL    HW121500   3.841   2.943   2.141
 6871SOL    HW221501   3.735   2.848   2.192
 6872SOL     OW21502   3.954   2.495   3.834
 6872SOL    HW121503   3.873   2.491   3.885
 6872SOL    HW221504   3.931   2.458   3.749
 6873SOL     OW21505   3.961   2.125   4.711
 6873SOL    HW121506   3.966   2.121   4.806
 6873SOL    HW221507   3.869   2.112   4.691
 6874SOL     OW21508   3.724   2.242   4.360
 6874SOL    HW121509   3.644   2.268   4.407
 6874SOL    HW221510   3.702   2.159   4.319
 6875SOL     OW21511   0.012   3.384   4.775
 6875SOL    HW121512   3.962   3.304   4.758
 6875SOL    HW221513   0.079   3.385   4.707
 6876SOL     OW21514   3.941   3.582   4.200
 6876SOL    HW121515   3.951   3.655   4.260
 6876SOL    HW221516   0.031   3.563   4.172
 6877SOL     OW21517   3.941   3.301   4.231
 6877SOL    HW121518   3.924   3.395   4.235
 6877SOL    HW221519   3.886   3.263   4.300
 6878SOL     OW21520   3.815   2.502   4.284
 6878SOL    HW121521   3.785   2.415   4.308
 6878SOL    HW221522   3.811   2.552   4.366
 6879SOL     OW21523   3.754   3.457   3.854
 6879SOL    HW121524   3.735   3.365   3.871
 6879SOL    HW221525   3.724   3.503   3.933
 6880SOL     OW21526   3.825   2.604   5.307
 6880SOL    HW121527   3.908   2.646   5.330
 6880SOL    HW221528   3.762   2.675   5.300
 6881SOL     OW21529   3.804   2.678   4.495
 6881SOL    HW121530   3.898   2.675   4.514
 6881SOL    HW221531   3.771   2.751   4.547
 6882SOL     OW21532   3.849   3.723   5.292
 6882SOL    HW121533   3.848   3.695   5.384
 6882SOL    HW221534   3.762   3.699   5.259
 6883SOL     OW21535   3.922   2.153   5.240
 6883SOL    HW121536   3.841   2.196   5.212
 6883SOL    HW221537   3.894   2.069   5.276
 6884SOL     OW21538   0.001   1.887   3.886
 6884SOL    HW121539   0.035   1.976   3.872
 6884SOL    HW221540   0.062   1.848   3.948
 6885SOL     OW21541   3.809   2.409   5.114
 6885SOL    HW121542   3.904   2.405   5.104
 6885SOL    HW221543   3.794   2.483   5.174
 6886SOL     OW21544   0.280   2.150   4.046
 6886SOL    HW121545   0.298   2.076   3.988
 6886SOL    HW221546   0.318   2.225   4.000
 6887SOL     OW21547   3.792   3.435   5.073
 6887SOL    HW121548   3.766   3.499   5.007
 6887SOL    HW221549   3.887   3.442   5.077
 6888SOL     OW21550   0.066   2.955   4.253
 6888SOL    HW121551   0.062   3.000   4.169
 6888SOL    HW221552   0.135   2.889   4.242
 6889SOL     OW21553   0.006   2.074   4.976
 6889SOL    HW121554   3.976   2.104   5.062
 6889SOL    HW221555   0.011   1.979   4.984
 6890SOL     OW21556   3.751   3.174   5.001
 6890SOL    HW121557   3.794   3.124   5.071
 6890SOL    HW221558   3.766   3.266   5.025
 6891SOL     OW21559   3.998   1.920   4.377
 6891SOL    HW121560   0.010   2.015   4.391
 6891SOL    HW221561   0.019   1.881   4.462
 6892SOL     OW21562   3.728   3.188   3.912
 6892SOL    HW121563   3.642   3.201   3.872
 6892SOL    HW221564   3.720   3.104   3.958
 6893SOL     OW21565   3.803   3.652   4.662
 6893SOL    HW121566   3.780   3.571   4.616
 6893SOL    HW221567   3.897   3.661   4.650
 6894SOL     OW21568   0.212   3.419   4.592
 6894SOL    HW121569   0.280   3.486   4.587
 6894SOL    HW221570   0.235   3.356   4.523
 6895SOL     OW21571   3.756   2.402   4.842
 6895SOL    HW121572   3.839   2.398   4.795
 6895SOL    HW221573   3.781   2.407   4.935
 6896SOL     OW21574   3.901   2.377   5.446
 6896SOL    HW121575   3.926   2.316   5.378
 6896SOL    HW221576   3.858   2.449   5.400
 6897SOL     OW21577   3.941   3.393   5.451
 6897SOL    HW121578   3.932   3.478   5.494
 6897SOL    HW221579   3.990   3.340   5.514
 6898SOL     OW21580   3.859   2.997   5.197
 6898SOL    HW121581   3.932   2.992   5.258
 6898SOL    HW221582   3.893   2.955   5.117
 6899SOL     OW21583   3.810   3.131   4.736
 6899SOL    HW121584   3.782   3.142   4.827
 6899SOL    HW221585   3.751   3.064   4.701
 6900SOL     OW21586   3.841   3.648   5.549
 6900SOL    HW121587   3.790   3.584   5.598
 6900SOL    HW221588   3.888   3.698   5.615
 6901SOL     OW21589   3.801   2.196   3.767
 6901SOL    HW121590   3.717   2.161   3.737
 6901SOL    HW221591   3.820   2.267   3.706
 6902SOL     OW21592   3.763   2.023   4.037
 6902SOL    HW121593   3.755   2.086   3.966
 6902SOL    HW221594   3.855   2.029   4.064
 6903SOL     OW21595   3.800   3.100   4.390
 6903SOL    HW121596   3.794   3.051   4.472
 6903SOL    HW221597   3.879   3.066   4.348
 6904SOL     OW21598   3.751   2.940   4.035
 6904SOL    HW121599   3.841   2.943   4.003
 6904SOL    HW221600   3.735   2.848   4.054
 6905SOL     OW21601   3.954   2.495   5.696
 6905SOL    HW121602   3.873   2.491   5.747
 6905SOL    HW221603   3.931   2.458   5.611
 6906SOL     OW21604   3.961   2.125   6.573
 6906SOL    HW121605   3.966   2.121   6.668
 6906SOL    HW221606   3.869   2.112   6.553
 6907SOL     OW21607   3.724   2.242   6.222
 6907SOL    HW121608   3.645   2.266   6.270
 6907SOL    HW221609   3.702   2.159   6.181
 6908SOL     OW21610   0.012   3.385   6.637
 6908SOL    HW121611   3.961   3.305   6.621
 6908SOL    HW221612   0.079   3.385   6.569
 6909SOL     OW21613   3.941   3.582   6.062
 6909SOL    HW121614   3.951   3.655   6.122
 6909SOL    HW221615   0.031   3.562   6.033
 6910SOL     OW21616   3.941   3.301   6.093
 6910SOL    HW121617   3.924   3.395   6.097
 6910SOL    HW221618   3.886   3.264   6.162
 6911SOL     OW21619   3.816   2.502   6.146
 6911SOL    HW121620   3.786   2.414   6.170
 6911SOL    HW221621   3.811   2.552   6.228
 6912SOL     OW21622   3.754   3.457   5.716
 6912SOL    HW121623   3.735   3.365   5.733
 6912SOL    HW221624   3.724   3.503   5.795
 6913SOL     OW21625   3.825   2.604   7.168
 6913SOL    HW121626   3.907   2.646   7.193
 6913SOL    HW221627   3.762   2.675   7.162
 6914SOL     OW21628   3.803   2.678   6.357
 6914SOL    HW121629   3.897   2.675   6.376
 6914SOL    HW221630   3.770   2.751   6.409
 6915SOL     OW21631   3.849   3.723   7.155
 6915SOL    HW121632   3.848   3.696   7.246
 6915SOL    HW221633   3.763   3.698   7.121
 6916SOL     OW21634   3.922   2.154   7.101
 6916SOL    HW121635   3.841   2.196   7.075
 6916SOL    HW221636   3.895   2.070   7.138
 6917SOL     OW21637   0.001   1.888   5.749
 6917SOL    HW121638   0.036   1.976   5.733
 6917SOL    HW221639   0.063   1.848   5.809
 6918SOL     OW21640   3.809   2.410   6.976
 6918SOL    HW121641   3.904   2.405   6.966
 6918SOL    HW221642   3.794   2.483   7.035
 6919SOL     OW21643   0.281   2.150   5.908
 6919SOL    HW121644   0.298   2.076   5.851
 6919SOL    HW221645   0.319   2.225   5.862
 6920SOL     OW21646   3.791   3.435   6.935
 6920SOL    HW121647   3.765   3.499   6.869
 6920SOL    HW221648   3.887   3.442   6.939
 6921SOL     OW21649   0.067   2.955   6.115
 6921SOL    HW121650   0.062   3.000   6.031
 6921SOL    HW221651   0.134   2.888   6.103
 6922SOL     OW21652   0.006   2.074   6.838
 6922SOL    HW121653   3.975   2.105   6.923
 6922SOL    HW221654   0.011   1.979   6.847
 6923SOL     OW21655   3.753   3.174   6.863
 6923SOL    HW121656   3.794   3.124   6.933
 6923SOL    HW221657   3.766   3.265   6.887
 6924SOL     OW21658   3.996   1.920   6.239
 6924SOL    HW121659   0.009   2.014   6.252
 6924SOL    HW221660   0.019   1.881   6.324
 6925SOL     OW21661   3.728   3.188   5.774
 6925SOL    HW121662   3.642   3.201   5.734
 6925SOL    HW221663   3.720   3.104   5.820
 6926SOL     OW21664   3.803   3.652   6.524
 6926SOL    HW121665   3.780   3.571   6.478
 6926SOL    HW221666   3.897   3.661   6.512
 6927SOL     OW21667   0.212   3.419   6.454
 6927SOL    HW121668   0.280   3.486   6.449
 6927SOL    HW221669   0.235   3.356   6.385
 6928SOL     OW21670   3.756   2.402   6.704
 6928SOL    HW121671   3.839   2.398   6.657
 6928SOL    HW221672   3.781   2.407   6.796
 6929SOL     OW21673   3.901   2.377   7.308
 6929SOL    HW121674   3.926   2.316   7.240
 6929SOL    HW221675   3.858   2.449   7.262
 6930SOL     OW21676   3.941   3.393   7.313
 6930SOL    HW121677   3.932   3.478   7.356
 6930SOL    HW221678   3.990   3.339   7.376
 6931SOL     OW21679   3.859   2.997   7.059
 6931SOL    HW121680   3.932   2.992   7.121
 6931SOL    HW221681   3.893   2.955   6.979
 6932SOL     OW21682   3.810   3.130   6.598
 6932SOL    HW121683   3.783   3.142   6.689
 6932SOL    HW221684   3.750   3.064   6.563
 6933SOL     OW21685   3.840   3.649   7.411
 6933SOL    HW121686   3.790   3.584   7.460
 6933SOL    HW221687   3.888   3.698   7.478
 6934SOL     OW21688   3.801   2.196   5.629
 6934SOL    HW121689   3.717   2.161   5.599
 6934SOL    HW221690   3.820   2.267   5.568
 6935SOL     OW21691   3.763   2.023   5.899
 6935SOL    HW121692   3.755   2.086   5.827
 6935SOL    HW221693   3.855   2.029   5.926
 6936SOL     OW21694   3.800   3.100   6.252
 6936SOL    HW121695   3.794   3.051   6.334
 6936SOL    HW221696   3.880   3.066   6.210
 6937SOL     OW21697   3.751   2.940   5.897
 6937SOL    HW121698   3.841   2.943   5.865
 6937SOL    HW221699   3.735   2.848   5.916
 6938SOL     OW21700   3.954   2.495   7.558
 6938SOL    HW121701   3.873   2.491   7.608
 6938SOL    HW221702   3.931   2.458   7.473
 6939SOL     OW21703   3.961   2.125   8.435
 6939SOL    HW121704   3.966   2.121   8.530
 6939SOL    HW221705   3.868   2.113   8.415
 6940SOL     OW21706   3.724   2.242   8.084
 6940SOL    HW121707   3.644   2.266   8.131
 6940SOL    HW221708   3.703   2.159   8.043
 6941SOL     OW21709   0.012   3.384   8.499
 6941SOL    HW121710   3.962   3.304   8.482
 6941SOL    HW221711   0.079   3.385   8.431
 6942SOL     OW21712   3.941   3.582   7.924
 6942SOL    HW121713   3.951   3.655   7.984
 6942SOL    HW221714   0.031   3.563   7.895
 6943SOL     OW21715   3.941   3.301   7.955
 6943SOL    HW121716   3.924   3.395   7.959
 6943SOL    HW221717   3.886   3.264   8.024
 6944SOL     OW21718   3.815   2.502   8.009
 6944SOL    HW121719   3.785   2.414   8.032
 6944SOL    HW221720   3.811   2.552   8.091
 6945SOL     OW21721   3.754   3.457   7.579
 6945SOL    HW121722   3.735   3.365   7.595
 6945SOL    HW221723   3.724   3.502   7.657
 6946SOL     OW21724   3.826   2.604   9.031
 6946SOL    HW121725   3.909   2.646   9.053
 6946SOL    HW221726   3.763   2.676   9.025
 6947SOL     OW21727   3.804   2.677   8.220
 6947SOL    HW121728   3.898   2.675   8.238
 6947SOL    HW221729   3.771   2.751   8.271
 6948SOL     OW21730   3.849   3.723   9.016
 6948SOL    HW121731   3.848   3.695   9.108
 6948SOL    HW221732   3.762   3.699   8.983
 6949SOL     OW21733   3.923   2.153   8.964
 6949SOL    HW121734   3.842   2.197   8.937
 6949SOL    HW221735   3.894   2.069   9.000
 6950SOL     OW21736   0.001   1.888   7.611
 6950SOL    HW121737   0.035   1.976   7.595
 6950SOL    HW221738   0.064   1.848   7.671
 6951SOL     OW21739   3.809   2.409   8.839
 6951SOL    HW121740   3.904   2.405   8.828
 6951SOL    HW221741   3.794   2.483   8.898
 6952SOL     OW21742   0.276   2.151   7.767
 6952SOL    HW121743   0.298   2.077   7.711
 6952SOL    HW221744   0.321   2.226   7.726
 6953SOL     OW21745   3.792   3.435   8.797
 6953SOL    HW121746   3.766   3.499   8.731
 6953SOL    HW221747   3.887   3.442   8.801
 6954SOL     OW21748   0.066   2.955   7.977
 6954SOL    HW121749   0.062   2.999   7.893
 6954SOL    HW221750   0.135   2.889   7.966
 6955SOL     OW21751   0.005   2.074   8.700
 6955SOL    HW121752   3.976   2.104   8.786
 6955SOL    HW221753   0.012   1.979   8.709
 6956SOL     OW21754   3.750   3.174   8.725
 6956SOL    HW121755   3.794   3.124   8.794
 6956SOL    HW221756   3.765   3.266   8.748
 6957SOL     OW21757   3.997   1.920   8.101
 6957SOL    HW121758   0.010   2.014   8.113
 6957SOL    HW221759   0.019   1.882   8.186
 6958SOL     OW21760   3.727   3.188   7.636
 6958SOL    HW121761   3.642   3.201   7.596
 6958SOL    HW221762   3.719   3.104   7.682
 6959SOL     OW21763   3.803   3.652   8.386
 6959SOL    HW121764   3.780   3.571   8.340
 6959SOL    HW221765   3.898   3.661   8.374
 6960SOL     OW21766   0.212   3.419   8.316
 6960SOL    HW121767   0.280   3.485   8.311
 6960SOL    HW221768   0.235   3.356   8.247
 6961SOL     OW21769   3.756   2.401   8.567
 6961SOL    HW121770   3.838   2.397   8.518
 6961SOL    HW221771   3.782   2.407   8.659
 6962SOL     OW21772   3.900   2.377   9.171
 6962SOL    HW121773   3.927   2.317   9.102
 6962SOL    HW221774   3.859   2.450   9.124
 6963SOL     OW21775   3.941   3.392   9.175
 6963SOL    HW121776   3.932   3.477   9.218
 6963SOL    HW221777   3.991   3.339   9.238
 6964SOL     OW21778   3.859   2.996   8.921
 6964SOL    HW121779   3.932   2.992   8.983
 6964SOL    HW221780   3.894   2.955   8.841
 6965SOL     OW21781   3.809   3.131   8.460
 6965SOL    HW121782   3.782   3.142   8.551
 6965SOL    HW221783   3.751   3.064   8.425
 6966SOL     OW21784   3.840   3.648   9.273
 6966SOL    HW121785   3.790   3.584   9.322
 6966SOL    HW221786   3.888   3.698   9.340
 6967SOL     OW21787   3.801   2.196   7.491
 6967SOL    HW121788   3.717   2.161   7.461
 6967SOL    HW221789   3.820   2.268   7.431
 6968SOL     OW21790   3.762   2.023   7.761
 6968SOL    HW121791   3.754   2.086   7.689
 6968SOL    HW221792   3.854   2.030   7.788
 6969SOL     OW21793   3.800   3.100   8.113
 6969SOL    HW121794   3.795   3.051   8.196
 6969SOL    HW221795   3.879   3.066   8.071
 6970SOL     OW21796   3.751   2.941   7.760
 6970SOL    HW121797   3.841   2.943   7.726
 6970SOL    HW221798   3.734   2.848   7.778
 6971SOL     OW21799   3.954   2.495   9.420
 6971SOL    HW121800   3.873   2.491   9.471
 6971SOL    HW221801   3.931   2.458   9.335
 6972SOL     OW21802   3.961   2.125  10.297
 6972SOL    HW121803   3.966   2.121  10.392
 6972SOL    HW221804   3.869   2.112  10.277
 6973SOL     OW21805   3.724   2.242   9.946
 6973SOL    HW121806   3.644   2.268   9.993
 6973SOL    HW221807   3.702   2.159   9.905
 6974SOL     OW21808   0.012   3.384  10.361
 6974SOL    HW121809   3.962   3.304  10.344
 6974SOL    HW221810   0.079   3.385  10.293
 6975SOL     OW21811   3.941   3.582   9.786
 6975SOL    HW121812   3.951   3.655   9.846
 6975SOL    HW221813   0.031   3.563   9.758
 6976SOL     OW21814   3.941   3.301   9.817
 6976SOL    HW121815   3.924   3.395   9.821
 6976SOL    HW221816   3.886   3.264   9.886
 6977SOL     OW21817   3.815   2.502   9.870
 6977SOL    HW121818   3.785   2.414   9.894
 6977SOL    HW221819   3.811   2.552   9.952
 6978SOL     OW21820   3.754   3.457   9.440
 6978SOL    HW121821   3.735   3.365   9.457
 6978SOL    HW221822   3.724   3.503   9.519
 6979SOL     OW21823   3.825   2.604  10.893
 6979SOL    HW121824   3.908   2.646  10.916
 6979SOL    HW221825   3.763   2.676  10.887
 6980SOL     OW21826   3.804   2.678  10.081
 6980SOL    HW121827   3.898   2.675  10.100
 6980SOL    HW221828   3.771   2.751  10.133
 6981SOL     OW21829   3.849   3.723  10.878
 6981SOL    HW121830   3.848   3.695  10.970
 6981SOL    HW221831   3.762   3.700  10.846
 6982SOL     OW21832   3.923   2.153  10.826
 6982SOL    HW121833   3.841   2.196  10.799
 6982SOL    HW221834   3.894   2.069  10.862
 6983SOL     OW21835   0.001   1.888   9.473
 6983SOL    HW121836   0.035   1.976   9.457
 6983SOL    HW221837   0.063   1.848   9.533
 6984SOL     OW21838   3.809   2.409  10.700
 6984SOL    HW121839   3.904   2.405  10.690
 6984SOL    HW221840   3.794   2.483  10.760
 6985SOL     OW21841   0.280   2.150   9.632
 6985SOL    HW121842   0.298   2.076   9.574
 6985SOL    HW221843   0.318   2.225   9.587
 6986SOL     OW21844   3.792   3.435  10.659
 6986SOL    HW121845   3.766   3.499  10.593
 6986SOL    HW221846   3.887   3.442  10.663
 6987SOL     OW21847   0.067   2.955   9.839
 6987SOL    HW121848   0.062   3.000   9.755
 6987SOL    HW221849   0.135   2.889   9.828
 6988SOL     OW21850   0.006   2.074  10.562
 6988SOL    HW121851   3.976   2.104  10.648
 6988SOL    HW221852   0.011   1.979  10.570
 6989SOL     OW21853   3.751   3.174  10.587
 6989SOL    HW121854   3.794   3.124  10.656
 6989SOL    HW221855   3.765   3.266  10.611
 6990SOL     OW21856   3.998   1.920   9.963
 6990SOL    HW121857   0.010   2.014   9.976
 6990SOL    HW221858   0.019   1.881  10.048
 6991SOL     OW21859   3.728   3.188   9.498
 6991SOL    HW121860   3.642   3.201   9.458
 6991SOL    HW221861   3.720   3.104   9.544
 6992SOL     OW21862   3.803   3.652  10.248
 6992SOL    HW121863   3.780   3.571  10.202
 6992SOL    HW221864   3.897   3.661  10.236
 6993SOL     OW21865   0.212   3.419  10.178
 6993SOL    HW121866   0.280   3.486  10.173
 6993SOL    HW221867   0.235   3.356  10.109
 6994SOL     OW21868   3.756   2.401  10.429
 6994SOL    HW121869   3.839   2.398  10.381
 6994SOL    HW221870   3.781   2.407  10.521
 6995SOL     OW21871   3.900   2.377  11.032
 6995SOL    HW121872   3.927   2.316  10.964
 6995SOL    HW221873   3.859   2.450  10.986
 6996SOL     OW21874   3.941   3.392  11.037
 6996SOL    HW121875   3.932   3.478  11.080
 6996SOL    HW221876   3.990   3.340  11.100
 6997SOL     OW21877   3.859   2.996  10.783
 6997SOL    HW121878   3.932   2.992  10.845
 6997SOL    HW221879   3.893   2.955  10.703
 6998SOL     OW21880   3.810   3.131  10.322
 6998SOL    HW121881   3.782   3.142  10.413
 6998SOL    HW221882   3.751   3.064  10.287
 6999SOL     OW21883   3.840   3.648  11.135
 6999SOL    HW121884   3.790   3.583  11.184
 6999SOL    HW221885   3.888   3.698  11.201
 7000SOL     OW21886   3.801   2.196   9.353
 7000SOL    HW121887   3.717   2.161   9.323
 7000SOL    HW221888   3.821   2.267   9.292
 7001SOL     OW21889   3.763   2.023   9.623
 7001SOL    HW121890   3.755   2.086   9.552
 7001SOL    HW221891   3.855   2.029   9.650
 7002SOL     OW21892   3.800   3.100   9.976
 7002SOL    HW121893   3.794   3.051  10.058
 7002SOL    HW221894   3.879   3.066   9.934
 7003SOL     OW21895   3.751   2.940   9.621
 7003SOL    HW121896   3.841   2.943   9.589
 7003SOL    HW221897   3.735   2.848   9.640
 7004SOL     OW21898   3.954   2.495  11.282
 7004SOL    HW121899   3.873   2.491  11.333
 7004SOL    HW221900   3.931   2.458  11.197
 7005SOL     OW21901   3.961   2.125  12.159
 7005SOL    HW121902   3.966   2.121  12.254
 7005SOL    HW221903   3.869   2.112  12.139
 7006SOL     OW21904   3.724   2.242  11.808
 7006SOL    HW121905   3.644   2.268  11.855
 7006SOL    HW221906   3.702   2.159  11.767
 7007SOL     OW21907   0.012   3.384  12.223
 7007SOL    HW121908   3.962   3.304  12.206
 7007SOL    HW221909   0.079   3.385  12.155
 7008SOL     OW21910   3.941   3.582  11.648
 7008SOL    HW121911   3.951   3.655  11.708
 7008SOL    HW221912   0.031   3.563  11.620
 7009SOL     OW21913   3.941   3.301  11.679
 7009SOL    HW121914   3.924   3.395  11.683
 7009SOL    HW221915   3.886   3.264  11.748
 7010SOL     OW21916   3.815   2.502  11.732
 7010SOL    HW121917   3.785   2.415  11.756
 7010SOL    HW221918   3.811   2.552  11.814
 7011SOL     OW21919   3.754   3.457  11.302
 7011SOL    HW121920   3.735   3.365  11.319
 7011SOL    HW221921   3.724   3.503  11.381
 7012SOL     OW21922   3.825   2.604  12.755
 7012SOL    HW121923   3.908   2.646  12.778
 7012SOL    HW221924   3.763   2.676  12.749
 7013SOL     OW21925   3.804   2.678  11.943
 7013SOL    HW121926   3.898   2.675  11.962
 7013SOL    HW221927   3.771   2.751  11.995
 7014SOL     OW21928   3.849   3.723  12.742
 7014SOL    HW121929   3.848   3.696  12.833
 7014SOL    HW221930   3.762   3.699  12.709
 7015SOL     OW21931   3.923   2.153  12.688
 7015SOL    HW121932   3.841   2.196  12.661
 7015SOL    HW221933   3.894   2.069  12.724
 7016SOL     OW21934   0.001   1.888  11.335
 7016SOL    HW121935   0.035   1.976  11.320
 7016SOL    HW221936   0.063   1.848  11.395
 7017SOL     OW21937   3.809   2.409  12.562
 7017SOL    HW121938   3.904   2.405  12.552
 7017SOL    HW221939   3.794   2.483  12.622
 7018SOL     OW21940   0.280   2.150  11.494
 7018SOL    HW121941   0.298   2.076  11.436
 7018SOL    HW221942   0.318   2.225  11.449
 7019SOL     OW21943   3.792   3.435  12.521
 7019SOL    HW121944   3.766   3.499  12.455
 7019SOL    HW221945   3.887   3.442  12.525
 7020SOL     OW21946   0.067   2.955  11.701
 7020SOL    HW121947   0.062   3.000  11.617
 7020SOL    HW221948   0.135   2.889  11.690
 7021SOL     OW21949   0.006   2.074  12.424
 7021SOL    HW121950   3.976   2.104  12.510
 7021SOL    HW221951   0.011   1.979  12.432
 7022SOL     OW21952   3.751   3.174  12.449
 7022SOL    HW121953   3.794   3.124  12.519
 7022SOL    HW221954   3.766   3.266  12.473
 7023SOL     OW21955   3.998   1.920  11.825
 7023SOL    HW121956   0.010   2.014  11.838
 7023SOL    HW221957   0.019   1.881  11.910
 7024SOL     OW21958   3.728   3.188  11.360
 7024SOL    HW121959   3.642   3.201  11.320
 7024SOL    HW221960   3.720   3.104  11.406
 7025SOL     OW21961   3.803   3.652  12.110
 7025SOL    HW121962   3.780   3.571  12.064
 7025SOL    HW221963   3.897   3.661  12.098
 7026SOL     OW21964   0.212   3.419  12.040
 7026SOL    HW121965   0.280   3.486  12.035
 7026SOL    HW221966   0.235   3.356  11.971
 7027SOL     OW21967   3.756   2.401  12.291
 7027SOL    HW121968   3.839   2.398  12.243
 7027SOL    HW221969   3.781   2.407  12.383
 7028SOL     OW21970   3.901   2.378  12.895
 7028SOL    HW121971   3.927   2.316  12.826
 7028SOL    HW221972   3.859   2.450  12.848
 7029SOL     OW21973   3.941   3.393  12.900
 7029SOL    HW121974   3.931   3.478  12.943
 7029SOL    HW221975   3.988   3.339  12.963
 7030SOL     OW21976   3.859   2.996  12.644
 7030SOL    HW121977   3.932   2.992  12.706
 7030SOL    HW221978   3.893   2.955  12.565
 7031SOL     OW21979   3.810   3.131  12.184
 7031SOL    HW121980   3.782   3.142  12.275
 7031SOL    HW221981   3.751   3.064  12.149
 7032SOL     OW21982   3.842   3.650  12.999
 7032SOL    HW121983   3.791   3.585  13.047
 7032SOL    HW221984   3.888   3.700  13.066
 7033SOL     OW21985   3.801   2.196  11.215
 7033SOL    HW121986   3.717   2.161  11.185
 7033SOL    HW221987   3.821   2.267  11.154
 7034SOL     OW21988   3.763   2.023  11.485
 7034SOL    HW121989   3.755   2.086  11.414
 7034SOL    HW221990   3.855   2.029  11.512
 7035SOL     OW21991   3.800   3.100  11.838
 7035SOL    HW121992   3.794   3.051  11.920
 7035SOL    HW221993   3.879   3.066  11.796
 7036SOL     OW21994   3.751   2.940  11.483
 7036SOL    HW121995   3.841   2.943  11.451
 7036SOL    HW221996   3.735   2.848  11.502
 7037SOL     OW21997   3.952   2.494  13.145
 7037SOL    HW121998   3.870   2.490  13.194
 7037SOL    HW221999   3.931   2.457  13.059
 7038SOL     OW22000   3.722   2.244  13.661
 7038SOL    HW122001   3.635   2.274  13.687
 7038SOL    HW222002   3.707   2.159  13.619
 7039SOL     OW22003   3.942   3.578  13.502
 7039SOL    HW122004   3.939   3.656  13.558
 7039SOL    HW222005   0.035   3.565  13.484
 7040SOL     OW22006   3.941   3.297  13.538
 7040SOL    HW122007   3.927   3.392  13.540
 7040SOL    HW222008   3.884   3.263  13.607
 7041SOL     OW22009   3.946   2.956   0.004
 7041SOL    HW122010   3.983   2.914   0.082
 7041SOL    HW222011   3.861   2.988   0.032
 7042SOL     OW22012   3.832   2.503  13.597
 7042SOL    HW122013   3.782   2.423  13.612
 7042SOL    HW222014   3.816   2.556  13.675
 7043SOL     OW22015   3.751   3.458  13.162
 7043SOL    HW122016   3.734   3.365  13.180
 7043SOL    HW222017   3.722   3.503  13.241
 7044SOL     OW22018   3.800   2.673  13.807
 7044SOL    HW122019   3.894   2.682  13.824
 7044SOL    HW222020   3.761   2.749  13.850
 7045SOL     OW22021   0.115   3.636  13.843
 7045SOL    HW122022   0.072   3.578   0.005
 7045SOL    HW222023   0.186   3.676  13.892
 7046SOL     OW22024   0.001   1.890  13.198
 7046SOL    HW122025   0.042   1.974  13.176
 7046SOL    HW222026   0.063   1.849  13.258
 7047SOL     OW22027   0.278   2.151  13.349
 7047SOL    HW122028   0.300   2.075  13.295
 7047SOL    HW222029   0.324   2.224  13.307
 7048SOL     OW22030   0.068   2.956  13.557
 7048SOL    HW122031   0.066   3.004  13.474
 7048SOL    HW222032   0.139   2.893  13.546
 7049SOL     OW22033   3.982   1.925  13.670
 7049SOL    HW122034   0.007   2.017  13.682
 7049SOL    HW222035   0.023   1.880  13.745
 7050SOL     OW22036   3.728   3.188  13.221
 7050SOL    HW122037   3.642   3.202  13.181
 7050SOL    HW222038   3.719   3.105  13.268
 7051SOL     OW22039   0.321   3.404   0.010
 7051SOL    HW122040   0.262   3.473   0.042
 7051SOL    HW222041   0.266   3.347  13.857
 7052SOL     OW22042   3.801   2.195  13.077
 7052SOL    HW122043   3.717   2.161  13.047
 7052SOL    HW222044   3.821   2.267  13.016
 7053SOL     OW22045   3.764   2.024  13.347
 7053SOL    HW122046   3.756   2.085  13.274
 7053SOL    HW222047   3.856   2.031  13.374
 7054SOL     OW22048   3.807   3.094  13.691
 7054SOL    HW122049   3.797   3.030  13.762
 7054SOL    HW222050   3.885   3.065  13.643
 7055SOL     OW22051   3.751   2.940  13.344
 7055SOL    HW122052   3.841   2.943  13.310
 7055SOL    HW222053   3.736   2.847  13.363
 7056SOL     OW22054   3.963   3.975   0.989
 7056SOL    HW122055   3.966   3.968   1.085
 7056SOL    HW222056   3.873   3.952   0.967
 7057SOL     OW22057   3.749   0.059   0.689
 7057SOL    HW122058   3.672   0.116   0.691
 7057SOL    HW222059   3.719   3.979   0.645
 7058SOL     OW22060   3.913   0.001   1.509
 7058SOL    HW122061   3.823   0.034   1.507
 7058SOL    HW222062   3.909   3.925   1.567
 7059SOL     OW22063   3.979   3.771   0.180
 7059SOL    HW122064   0.015   3.837   0.120
 7059SOL    HW222065   0.049   3.706   0.189
 7060SOL     OW22066   3.999   3.934   1.256
 7060SOL    HW122067   3.962   3.943   1.344
 7060SOL    HW222068   0.028   3.843   1.252
 7061SOL     OW22069   0.023   3.776   0.648
 7061SOL    HW122070   0.044   3.870   0.651
 7061SOL    HW222071   0.032   3.747   0.739
 7062SOL     OW22072   3.786   3.868   0.343
 7062SOL    HW122073   3.788   3.963   0.330
 7062SOL    HW222074   3.862   3.836   0.294
 7063SOL     OW22075   3.964   3.973   2.850
 7063SOL    HW122076   3.967   3.968   2.946
 7063SOL    HW222077   3.873   3.951   2.828
 7064SOL     OW22078   3.747   0.057   2.555
 7064SOL    HW122079   3.672   0.116   2.555
 7064SOL    HW222080   3.716   3.979   2.509
 7065SOL     OW22081   3.913   0.001   3.371
 7065SOL    HW122082   3.824   0.035   3.369
 7065SOL    HW222083   3.909   3.925   3.428
 7066SOL     OW22084   3.989   3.760   2.022
 7066SOL    HW122085   0.028   3.835   1.979
 7066SOL    HW222086   0.058   3.726   2.079
 7067SOL     OW22087   3.999   3.935   3.118
 7067SOL    HW122088   3.962   3.944   3.206
 7067SOL    HW222089   0.028   3.844   3.114
 7068SOL     OW22090   0.017   3.778   2.514
 7068SOL    HW122091   0.047   3.868   2.518
 7068SOL    HW222092   0.029   3.744   2.603
 7069SOL     OW22093   3.805   0.050   1.891
 7069SOL    HW122094   3.740   0.018   1.828
 7069SOL    HW222095   3.806   0.145   1.879
 7070SOL     OW22096   3.782   3.869   2.187
 7070SOL    HW122097   3.778   3.962   2.166
 7070SOL    HW222098   3.869   3.842   2.156
 7071SOL     OW22099   3.964   3.973   4.712
 7071SOL    HW122100   3.967   3.968   4.808
 7071SOL    HW222101   3.873   3.951   4.690
 7072SOL     OW22102   3.747   0.057   4.417
 7072SOL    HW122103   3.672   0.116   4.417
 7072SOL    HW222104   3.716   3.979   4.371
 7073SOL     OW22105   3.913   0.001   5.233
 7073SOL    HW122106   3.824   0.035   5.230
 7073SOL    HW222107   3.908   3.924   5.290
 7074SOL     OW22108   3.989   3.760   3.884
 7074SOL    HW122109   0.028   3.835   3.841
 7074SOL    HW222110   0.058   3.726   3.941
 7075SOL     OW22111   3.999   3.935   4.980
 7075SOL    HW122112   3.962   3.944   5.068
 7075SOL    HW222113   0.028   3.844   4.975
 7076SOL     OW22114   0.017   3.778   4.376
 7076SOL    HW122115   0.047   3.868   4.380
 7076SOL    HW222116   0.029   3.744   4.465
 7077SOL     OW22117   3.805   0.050   3.753
 7077SOL    HW122118   3.740   0.018   3.691
 7077SOL    HW222119   3.806   0.145   3.741
 7078SOL     OW22120   3.782   3.869   4.049
 7078SOL    HW122121   3.778   3.962   4.028
 7078SOL    HW222122   3.869   3.842   4.018
 7079SOL     OW22123   3.964   3.973   6.574
 7079SOL    HW122124   3.967   3.968   6.670
 7079SOL    HW222125   3.874   3.951   6.552
 7080SOL     OW22126   3.747   0.057   6.279
 7080SOL    HW122127   3.672   0.116   6.279
 7080SOL    HW222128   3.717   3.979   6.233
 7081SOL     OW22129   3.913   0.001   7.095
 7081SOL    HW122130   3.823   0.034   7.092
 7081SOL    HW222131   3.908   3.924   7.151
 7082SOL     OW22132   3.988   3.760   5.746
 7082SOL    HW122133   0.028   3.836   5.703
 7082SOL    HW222134   0.058   3.726   5.803
 7083SOL     OW22135   3.999   3.935   6.842
 7083SOL    HW122136   3.962   3.944   6.930
 7083SOL    HW222137   0.028   3.844   6.837
 7084SOL     OW22138   0.017   3.777   6.238
 7084SOL    HW122139   0.047   3.868   6.242
 7084SOL    HW222140   0.029   3.744   6.327
 7085SOL     OW22141   3.805   0.050   5.616
 7085SOL    HW122142   3.740   0.018   5.552
 7085SOL    HW222143   3.806   0.145   5.603
 7086SOL     OW22144   3.782   3.869   5.910
 7086SOL    HW122145   3.778   3.962   5.889
 7086SOL    HW222146   3.868   3.842   5.880
 7087SOL     OW22147   3.964   3.973   8.436
 7087SOL    HW122148   3.967   3.968   8.532
 7087SOL    HW222149   3.873   3.951   8.414
 7088SOL     OW22150   3.747   0.057   8.141
 7088SOL    HW122151   3.671   0.116   8.141
 7088SOL    HW222152   3.717   3.979   8.095
 7089SOL     OW22153   3.913   0.001   8.957
 7089SOL    HW122154   3.824   0.035   8.955
 7089SOL    HW222155   3.909   3.924   9.014
 7090SOL     OW22156   3.988   3.760   7.609
 7090SOL    HW122157   0.028   3.835   7.565
 7090SOL    HW222158   0.058   3.726   7.665
 7091SOL     OW22159   3.999   3.935   8.704
 7091SOL    HW122160   3.962   3.944   8.792
 7091SOL    HW222161   0.028   3.844   8.699
 7092SOL     OW22162   0.016   3.778   8.101
 7092SOL    HW122163   0.047   3.868   8.104
 7092SOL    HW222164   0.029   3.744   8.189
 7093SOL     OW22165   3.804   0.050   7.478
 7093SOL    HW122166   3.741   0.018   7.414
 7093SOL    HW222167   3.806   0.145   7.465
 7094SOL     OW22168   3.782   3.869   7.772
 7094SOL    HW122169   3.778   3.962   7.751
 7094SOL    HW222170   3.868   3.842   7.741
 7095SOL     OW22171   3.964   3.973  10.298
 7095SOL    HW122172   3.967   3.968  10.394
 7095SOL    HW222173   3.873   3.951  10.276
 7096SOL     OW22174   3.747   0.057  10.003
 7096SOL    HW122175   3.672   0.116  10.003
 7096SOL    HW222176   3.717   3.979   9.957
 7097SOL     OW22177   3.913   0.001  10.819
 7097SOL    HW122178   3.824   0.035  10.817
 7097SOL    HW222179   3.909   3.924  10.876
 7098SOL     OW22180   3.989   3.760   9.471
 7098SOL    HW122181   0.028   3.835   9.427
 7098SOL    HW222182   0.058   3.726   9.527
 7099SOL     OW22183   3.999   3.935  10.566
 7099SOL    HW122184   3.962   3.944  10.654
 7099SOL    HW222185   0.028   3.844  10.562
 7100SOL     OW22186   0.017   3.778   9.962
 7100SOL    HW122187   0.047   3.868   9.966
 7100SOL    HW222188   0.029   3.744  10.051
 7101SOL     OW22189   3.805   0.050   9.340
 7101SOL    HW122190   3.740   0.018   9.276
 7101SOL    HW222191   3.806   0.145   9.327
 7102SOL     OW22192   3.782   3.869   9.635
 7102SOL    HW122193   3.778   3.962   9.613
 7102SOL    HW222194   3.869   3.842   9.604
 7103SOL     OW22195   3.964   3.973  12.160
 7103SOL    HW122196   3.967   3.968  12.256
 7103SOL    HW222197   3.873   3.951  12.138
 7104SOL     OW22198   3.747   0.057  11.865
 7104SOL    HW122199   3.672   0.116  11.865
 7104SOL    HW222200   3.717   3.979  11.819
 7105SOL     OW22201   3.913   0.001  12.681
 7105SOL    HW122202   3.823   0.034  12.679
 7105SOL    HW222203   3.908   3.924  12.738
 7106SOL     OW22204   3.989   3.760  11.332
 7106SOL    HW122205   0.028   3.835  11.289
 7106SOL    HW222206   0.058   3.726  11.389
 7107SOL     OW22207   3.999   3.935  12.428
 7107SOL    HW122208   3.961   3.944  12.516
 7107SOL    HW222209   0.028   3.844  12.423
 7108SOL     OW22210   0.017   3.778  11.824
 7108SOL    HW122211   0.047   3.868  11.828
 7108SOL    HW222212   0.029   3.744  11.913
 7109SOL     OW22213   3.805   0.050  11.202
 7109SOL    HW122214   3.740   0.018  11.138
 7109SOL    HW222215   3.806   0.145  11.189
 7110SOL     OW22216   3.782   3.869  11.497
 7110SOL    HW122217   3.778   3.962  11.475
 7110SOL    HW222218   3.869   3.842  11.466
 7111SOL     OW22219   3.741   0.081  13.685
 7111SOL    HW122220   3.670   0.110  13.743
 7111SOL    HW222221   3.719   3.990  13.665
 7112SOL     OW22222   3.990   3.764  13.199
 7112SOL    HW122223   0.033   3.835  13.151
 7112SOL    HW222224   0.058   3.727  13.255
 7113SOL     OW22225   3.979   3.791  13.670
 7113SOL    HW122226   0.025   3.874  13.676
 7113SOL    HW222227   0.023   3.734  13.733
 7114SOL     OW22228   3.806   0.050  13.062
 7114SOL    HW122229   3.740   0.018  13.000
 7114SOL    HW222230   3.807   0.145  13.050
 7115SOL     OW22231   3.779   3.870  13.357
 7115SOL    HW122232   3.777   3.965  13.342
 7115SOL    HW222233   3.863   3.842  13.323
   4.00000   4.00000  13.90000
