2gCDOH_1PEG_l8
22143
    1LIG      O    1   2.774   2.597   8.077
    1LIG      C    2   2.756   2.625   0.135
    1LIG     C1    3   2.623   2.562   0.186
    1LIG     O1    4   2.561   2.651   0.279
    1LIG     C2    5   2.589   2.617   0.413
    1LIG     C3    6   2.738   2.653   0.445
    1LIG     O2    7   2.769   2.610   0.577
    1LIG     C4    8   2.709   2.696   0.672
    1LIG     C5    9   2.580   2.628   0.727
    1LIG     O3   10   2.539   2.699   0.842
    1LIG     C6   11   2.590   2.645   0.963
    1LIG     C7   12   2.739   2.684   0.992
    1LIG     O4   13   2.786   2.628   1.114
    1LIG     C8   14   2.725   2.685   1.229
    1LIG     C9   15   2.601   2.596   1.266
    1LIG     O5   16   2.519   2.657   1.365
    1LIG    C10   17   2.578   2.631   1.492
    1LIG    C11   18   2.683   2.739   1.525
    1LIG     O6   19   2.641   2.793   1.647
    1LIG    C12   20   2.685   2.718   1.759
    1LIG    C13   21   2.602   2.590   1.792
    1LIG     O7   22   2.662   2.526   1.905
    1LIG    C14   23   2.622   2.586   2.028
    1LIG    C15   24   2.717   2.702   2.071
    1LIG     O8   25   2.646   2.790   2.157
    1LIG    C16   26   2.665   2.750   2.291
    1LIG    C17   27   2.554   2.649   2.333
    1LIG     O9   28   2.609   2.553   2.423
    1LIG    C18   29   2.589   2.595   2.558
    1LIG    C19   30   2.689   2.709   2.594
    1LIG    O10   31   2.654   2.765   2.717
    1LIG    C20   32   2.714   2.695   2.824
    1LIG    C21   33   2.611   2.593   2.881
    1LIG    O11   34   2.661   2.529   2.998
    1LIG    C22   35   2.623   2.596   3.117
    1LIG    C23   36   2.716   2.719   3.145
    1LIG    O12   37   2.666   2.802   3.250
    1LIG    C24   38   2.698   2.751   3.377
    1LIG    C25   39   2.594   2.642   3.412
    1LIG    O13   40   2.521   2.679   3.530
    1LIG    C26   41   2.571   2.614   3.645
    1LIG    C27   42   2.700   2.690   3.683
    1LIG    O14   43   2.774   2.625   3.784
    1LIG    C28   44   2.732   2.658   3.915
    1LIG    C29   45   2.616   2.563   3.950
    1LIG    O15   46   2.631   2.518   4.084
    1LIG    C30   47   2.562   2.606   4.172
    1LIG    C31   48   2.662   2.714   4.225
    1LIG    O16   49   2.602   2.788   4.332
    1LIG    C32   50   2.646   2.741   4.459
    1LIG    C33   51   2.574   2.610   4.495
    1LIG    O17   52   2.643   2.537   4.595
    1LIG    C34   53   2.628   2.597   4.719
    1LIG    C35   54   2.744   2.696   4.746
    1LIG    O18   55   2.805   2.663   4.870
    1LIG    C36   56   2.731   2.712   4.982
    1LIG    C37   57   2.600   2.626   5.008
    1LIG    O19   58   2.522   2.670   5.117
    1LIG    C38   59   2.578   2.625   5.238
    1LIG    C39   60   2.690   2.723   5.277
    1LIG    O20   61   2.651   2.783   5.395
    1LIG    C40   62   2.696   2.711   5.506
    1LIG    C41   63   2.607   2.588   5.541
    1LIG    O21   64   2.662   2.528   5.657
    1LIG    C42   65   2.617   2.593   5.776
    1LIG    C43   66   2.710   2.712   5.819
    1LIG    O22   67   2.642   2.790   5.915
    1LIG    C44   68   2.671   2.744   6.044
    1LIG    C45   69   2.561   2.643   6.087
    1LIG    O23   70   2.619   2.548   6.177
    1LIG    C46   71   2.596   2.590   6.311
    1LIG    C47   72   2.689   2.709   6.348
    1LIG    O24   73   2.654   2.760   6.473
    1LIG    C48   74   2.717   2.692   6.578
    1LIG    C49   75   2.615   2.592   6.637
    1LIG    O25   76   2.668   2.531   6.753
    1LIG    C50   77   2.626   2.597   6.872
    1LIG    C51   78   2.705   2.730   6.899
    1LIG    O26   79   2.648   2.801   7.008
    1LIG    C52   80   2.680   2.744   7.134
    1LIG    C53   81   2.579   2.631   7.163
    1LIG    O27   82   2.519   2.652   7.289
    1LIG    C54   83   2.590   2.586   7.392
    1LIG    C55   84   2.718   2.668   7.435
    1LIG    O28   85   2.782   2.606   7.549
    1LIG    C56   86   2.739   2.660   7.675
    1LIG    C57   87   2.597   2.604   7.709
    1LIG    O29   88   2.539   2.666   7.822
    1LIG    C58   89   2.572   2.600   7.942
    1LIG    C59   90   2.689   2.682   8.000
    1LIG      H   91   2.753   2.734   0.152
    1LIG     H1   92   2.842   2.585   0.190
    1LIG     H2   93   2.641   2.464   0.231
    1LIG     H3   94   2.551   2.546   0.105
    1LIG     H4   95   2.570   2.510   0.430
    1LIG     H5   96   2.521   2.676   0.473
    1LIG     H6   97   2.753   2.761   0.436
    1LIG     H7   98   2.807   2.602   0.379
    1LIG     H8   99   2.685   2.794   0.631
    1LIG     H9  100   2.784   2.713   0.748
    1LIG    H10  101   2.597   2.522   0.749
    1LIG    H11  102   2.498   2.634   0.657
    1LIG    H12  103   2.579   2.536   0.964
    1LIG    H13  104   2.524   2.688   1.039
    1LIG    H14  105   2.750   2.793   0.993
    1LIG    H15  106   2.805   2.642   0.917
    1LIG    H16  107   2.698   2.790   1.212
    1LIG    H17  108   2.798   2.681   1.310
    1LIG    H18  109   2.640   2.500   1.301
    1LIG    H19  110   2.535   2.572   1.184
    1LIG    H20  111   2.623   2.531   1.496
    1LIG    H21  112   2.498   2.633   1.565
    1LIG    H22  113   2.685   2.819   1.451
    1LIG    H23  114   2.783   2.696   1.535
    1LIG    H24  115   2.670   2.790   1.838
    1LIG    H25  116   2.792   2.692   1.750
    1LIG    H26  117   2.604   2.517   1.710
    1LIG    H27  118   2.497   2.616   1.811
    1LIG    H28  119   2.625   2.509   2.104
    1LIG    H29  120   2.517   2.620   2.022
    1LIG    H30  121   2.753   2.765   1.992
    1LIG    H31  122   2.809   2.661   2.116
    1LIG    H32  123   2.661   2.842   2.350
    1LIG    H33  124   2.765   2.705   2.306
    1LIG    H34  125   2.515   2.593   2.248
    1LIG    H35  126   2.469   2.703   2.377
    1LIG    H36  127   2.607   2.508   2.620
    1LIG    H37  128   2.486   2.628   2.573
    1LIG    H38  129   2.682   2.794   2.527
    1LIG    H39  130   2.793   2.674   2.593
    1LIG    H40  131   2.743   2.775   2.890
    1LIG    H41  132   2.807   2.645   2.795
    1LIG    H42  133   2.595   2.513   2.809
    1LIG    H43  134   2.513   2.639   2.899
    1LIG    H44  135   2.631   2.522   3.197
    1LIG    H45  136   2.518   2.627   3.110
    1LIG    H46  137   2.716   2.789   3.063
    1LIG    H47  138   2.819   2.686   3.163
    1LIG    H48  139   2.692   2.834   3.447
    1LIG    H49  140   2.800   2.710   3.378
    1LIG    H50  141   2.641   2.544   3.422
    1LIG    H51  142   2.521   2.636   3.332
    1LIG    H52  143   2.590   2.508   3.625
    1LIG    H53  144   2.495   2.622   3.724
    1LIG    H54  145   2.673   2.791   3.713
    1LIG    H55  146   2.767   2.692   3.598
    1LIG    H56  147   2.701   2.763   3.921
    1LIG    H57  148   2.816   2.642   3.982
    1LIG    H58  149   2.616   2.476   3.884
    1LIG    H59  150   2.520   2.615   3.936
    1LIG    H60  151   2.519   2.540   4.246
    1LIG    H61  152   2.476   2.654   4.126
    1LIG    H62  153   2.689   2.783   4.145
    1LIG    H63  154   2.756   2.668   4.259
    1LIG    H64  155   2.626   2.817   4.536
    1LIG    H65  156   2.754   2.721   4.459
    1LIG    H66  157   2.574   2.538   4.415
    1LIG    H67  158   2.471   2.634   4.522
    1LIG    H68  159   2.626   2.515   4.792
    1LIG    H69  160   2.532   2.651   4.725
    1LIG    H70  161   2.706   2.799   4.749
    1LIG    H71  162   2.819   2.690   4.667
    1LIG    H72  163   2.706   2.818   4.970
    1LIG    H73  164   2.800   2.703   5.066
    1LIG    H74  165   2.629   2.522   5.020
    1LIG    H75  166   2.529   2.635   4.926
    1LIG    H76  167   2.616   2.522   5.230
    1LIG    H77  168   2.500   2.625   5.314
    1LIG    H78  169   2.700   2.805   5.206
    1LIG    H79  170   2.786   2.672   5.288
    1LIG    H80  171   2.686   2.788   5.580
    1LIG    H81  172   2.801   2.681   5.496
    1LIG    H82  173   2.610   2.513   5.461
    1LIG    H83  174   2.502   2.618   5.556
    1LIG    H84  175   2.619   2.518   5.854
    1LIG    H85  176   2.512   2.625   5.767
    1LIG    H86  177   2.734   2.785   5.746
    1LIG    H87  178   2.807   2.674   5.854
    1LIG    H88  179   2.674   2.833   6.105
    1LIG    H89  180   2.771   2.697   6.049
    1LIG    H90  181   2.521   2.586   6.004
    1LIG    H91  182   2.477   2.696   6.132
    1LIG    H92  183   2.618   2.504   6.375
    1LIG    H93  184   2.491   2.617   6.325
    1LIG    H94  185   2.675   2.794   6.283
    1LIG    H95  186   2.795   2.680   6.344
    1LIG    H96  187   2.751   2.769   6.647
    1LIG    H97  188   2.808   2.640   6.545
    1LIG    H98  189   2.596   2.512   6.566
    1LIG    H99  190   2.518   2.640   6.657
    1LIG   H100  191   2.644   2.525   6.953
    1LIG   H101  192   2.518   2.617   6.868
    1LIG   H102  193   2.694   2.799   6.816
    1LIG   H103  194   2.811   2.709   6.916
    1LIG   H104  195   2.671   2.822   7.210
    1LIG   H105  196   2.783   2.707   7.134
    1LIG   H106  197   2.629   2.533   7.160
    1LIG   H107  198   2.499   2.630   7.089
    1LIG   H108  199   2.619   2.485   7.362
    1LIG   H109  200   2.516   2.571   7.469
    1LIG   H110  201   2.695   2.773   7.456
    1LIG   H111  202   2.791   2.666   7.354
    1LIG   H112  203   2.736   2.770   7.672
    1LIG   H113  204   2.811   2.630   7.752
    1LIG   H114  205   2.598   2.495   7.716
    1LIG   H115  206   2.527   2.635   7.633
    1LIG   H116  207   2.600   2.495   7.925
    1LIG   H117  208   2.484   2.602   8.008
    1LIG   H118  209   2.748   2.727   7.921
    1LIG   H119  210   2.649   2.765   8.058
    2MOL     C1  211   3.333   2.848   3.549
    2MOL     H1  212   3.435   2.811   3.541
    2MOL     O1  213   3.294   2.906   3.423
    2MOL     C2  214   3.160   2.961   3.419
    2MOL     H2  215   3.087   2.883   3.442
    2MOL     C3  216   3.131   3.011   3.275
    2MOL     H3  217   3.023   3.027   3.263
    2MOL     H4  218   3.161   2.932   3.205
    2MOL     O2  219   3.202   3.131   3.246
    2MOL     H5  220   3.223   3.126   3.151
    2MOL     C4  221   3.326   2.955   3.661
    2MOL     H6  222   3.398   3.034   3.637
    2MOL     O3  223   3.360   2.898   3.787
    2MOL     H7  224   3.323   2.806   3.790
    2MOL     C5  225   3.186   3.018   3.667
    2MOL     H8  226   3.114   2.938   3.687
    2MOL     O4  227   3.177   3.120   3.769
    2MOL     H9  228   3.186   3.072   3.855
    2MOL     C6  229   3.150   3.074   3.526
    2MOL    H10  230   3.219   3.155   3.502
    2MOL     O5  231   3.014   3.121   3.533
    2MOL     C7  232   2.985   3.250   3.475
    2MOL    H11  233   3.076   3.297   3.436
    2MOL     O6  234   2.890   3.230   3.367
    2MOL     C8  235   2.763   3.171   3.406
    2MOL    H12  236   2.781   3.074   3.450
    2MOL     C9  237   2.675   3.143   3.282
    2MOL    H13  238   2.597   3.070   3.309
    2MOL    H14  239   2.736   3.096   3.203
    2MOL     O7  240   2.612   3.260   3.232
    2MOL    H15  241   2.533   3.275   3.289
    2MOL    C10  242   2.924   3.340   3.587
    2MOL    H16  243   2.906   3.440   3.546
    2MOL     O8  244   3.015   3.348   3.697
    2MOL    H17  245   3.052   3.257   3.708
    2MOL    C11  246   2.790   3.281   3.635
    2MOL    H18  247   2.809   3.181   3.678
    2MOL     O9  248   2.728   3.364   3.735
    2MOL    H19  249   2.798   3.399   3.793
    2MOL    C12  250   2.699   3.265   3.511
    2MOL    H20  251   2.687   3.364   3.465
    2MOL    O10  252   2.572   3.212   3.554
    2MOL    C13  253   2.462   3.301   3.527
    2MOL    H21  254   2.497   3.402   3.503
    2MOL    O11  255   2.386   3.247   3.415
    2MOL    C14  256   2.328   3.116   3.439
    2MOL    H22  257   2.407   3.045   3.466
    2MOL    C15  258   2.258   3.062   3.310
    2MOL    H23  259   2.267   2.953   3.308
    2MOL    H24  260   2.311   3.101   3.223
    2MOL    O12  261   2.118   3.095   3.301
    2MOL    H25  262   2.075   3.034   3.366
    2MOL    C16  263   2.373   3.315   3.654
    2MOL    H26  264   2.302   3.395   3.634
    2MOL    O13  265   2.452   3.351   3.767
    2MOL    H27  266   2.546   3.353   3.738
    2MOL    C17  267   2.296   3.185   3.684
    2MOL    H28  268   2.368   3.111   3.720
    2MOL    O14  269   2.195   3.209   3.783
    2MOL    H29  270   2.242   3.232   3.868
    2MOL    C18  271   2.229   3.129   3.557
    2MOL    H30  272   2.150   3.198   3.526
    2MOL    O15  273   2.176   3.000   3.588
    2MOL    C19  274   2.033   2.989   3.589
    2MOL    H31  275   1.986   3.089   3.591
    2MOL    O16  276   1.992   2.915   3.471
    2MOL    C20  277   2.049   2.780   3.464
    2MOL    H32  278   2.158   2.790   3.473
    2MOL    C21  279   2.024   2.713   3.324
    2MOL    H33  280   2.109   2.650   3.298
    2MOL    H34  281   2.018   2.791   3.247
    2MOL    O17  282   1.908   2.629   3.318
    2MOL    H35  283   1.928   2.552   3.376
    2MOL    C22  284   1.990   2.915   3.718
    2MOL    H36  285   1.882   2.921   3.724
    2MOL    O18  286   2.048   2.980   3.830
    2MOL    H37  287   2.107   3.049   3.794
    2MOL    C23  288   2.037   2.768   3.718
    2MOL    H38  289   2.147   2.769   3.721
    2MOL    O19  290   1.985   2.697   3.834
    2MOL    H39  291   1.899   2.739   3.857
    2MOL    C24  292   1.998   2.697   3.585
    2MOL    H40  293   1.889   2.689   3.579
    2MOL    O20  294   2.061   2.567   3.588
    2MOL    C25  295   1.972   2.454   3.580
    2MOL    H41  296   1.868   2.486   3.591
    2MOL    O21  297   1.989   2.391   3.450
    2MOL    C26  298   2.119   2.331   3.423
    2MOL    H42  299   2.195   2.408   3.424
    2MOL    C27  300   2.120   2.269   3.281
    2MOL    H43  301   2.223   2.244   3.254
    2MOL    H44  302   2.085   2.344   3.209
    2MOL    O22  303   2.037   2.152   3.275
    2MOL    H45  304   2.011   2.133   3.183
    2MOL    C28  305   2.003   2.353   3.694
    2MOL    H46  306   1.927   2.273   3.692
    2MOL    O23  307   2.003   2.416   3.821
    2MOL    H47  308   1.986   2.512   3.805
    2MOL    C29  309   2.141   2.288   3.675
    2MOL    H48  310   2.215   2.369   3.686
    2MOL    O24  311   2.162   2.188   3.776
    2MOL    H49  312   2.128   2.227   3.859
    2MOL    C30  313   2.156   2.229   3.534
    2MOL    H50  314   2.093   2.140   3.526
    2MOL    O25  315   2.296   2.197   3.523
    2MOL    C31  316   2.328   2.069   3.467
    2MOL    H51  317   2.239   2.023   3.421
    2MOL    O26  318   2.429   2.089   3.364
    2MOL    C32  319   2.555   2.144   3.412
    2MOL    H52  320   2.537   2.239   3.464
    2MOL    C33  321   2.647   2.171   3.292
    2MOL    H53  322   2.733   2.230   3.326
    2MOL    H54  323   2.592   2.232   3.219
    2MOL    O27  324   2.691   2.050   3.230
    2MOL    H55  325   2.790   2.053   3.228
    2MOL    C34  326   2.382   1.976   3.578
    2MOL    H56  327   2.396   1.876   3.536
    2MOL    O28  328   2.292   1.969   3.687
    2MOL    H57  329   2.254   2.060   3.694
    2MOL    C35  330   2.519   2.022   3.633
    2MOL    H58  331   2.504   2.120   3.681
    2MOL    O29  332   2.570   1.927   3.728
    2MOL    H59  333   2.492   1.893   3.777
    2MOL    C36  334   2.614   2.041   3.513
    2MOL    H60  335   2.627   1.946   3.461
    2MOL    O30  336   2.740   2.089   3.563
    2MOL    C37  337   2.845   1.990   3.560
    2MOL    H61  338   2.805   1.889   3.547
    2MOL    O31  339   2.933   2.022   3.449
    2MOL    C38  340   2.999   2.153   3.455
    2MOL    H62  341   2.925   2.233   3.455
    2MOL    C39  342   3.091   2.169   3.331
    2MOL    H63  343   3.179   2.104   3.344
    2MOL    H64  344   3.127   2.272   3.325
    2MOL    O32  345   3.025   2.133   3.209
    2MOL    H65  346   2.972   2.209   3.176
    2MOL    C40  347   2.923   1.993   3.694
    2MOL    H66  348   2.996   1.911   3.695
    2MOL    O33  349   2.830   1.978   3.802
    2MOL    H67  350   2.742   1.957   3.761
    2MOL    C41  351   2.995   2.126   3.709
    2MOL    H68  352   2.914   2.198   3.713
    2MOL    O34  353   3.071   2.130   3.830
    2MOL    H69  354   3.020   2.076   3.894
    2MOL    C42  355   3.082   2.161   3.586
    2MOL    H70  356   3.165   2.090   3.580
    2MOL    O35  357   3.128   2.297   3.603
    2MOL    C43  358   3.271   2.317   3.609
    2MOL    H71  359   3.322   2.221   3.617
    2MOL    O36  360   3.311   2.385   3.488
    2MOL    C44  361   3.257   2.519   3.469
    2MOL    H72  362   3.147   2.515   3.470
    2MOL    C45  363   3.304   2.571   3.330
    2MOL    H73  364   3.412   2.557   3.322
    2MOL    H74  365   3.284   2.678   3.322
    2MOL    O37  366   3.237   2.503   3.223
    2MOL    H75  367   3.290   2.522   3.143
    2MOL    C46  368   3.309   2.402   3.733
    2MOL    H76  369   3.418   2.405   3.737
    2MOL    O38  370   3.260   2.343   3.853
    2MOL    H77  371   3.182   2.289   3.826
    2MOL    C47  372   3.257   2.546   3.721
    2MOL    H78  373   3.147   2.542   3.721
    2MOL    O39  374   3.303   2.624   3.832
    2MOL    H79  375   3.333   2.560   3.900
    2MOL    C48  376   3.303   2.608   3.588
    2MOL    H80  377   3.413   2.613   3.587
    2MOL    O40  378   3.243   2.739   3.579
    3MOL     C1  379   1.965   2.847   4.533
    3MOL     H1  380   1.860   2.818   4.541
    3MOL     O1  381   2.008   2.907   4.659
    3MOL     C2  382   2.142   2.966   4.664
    3MOL     H2  383   2.216   2.888   4.647
    3MOL     C3  384   2.167   3.030   4.805
    3MOL     H3  385   2.275   3.042   4.819
    3MOL     H4  386   2.133   2.961   4.882
    3MOL     O2  387   2.102   3.158   4.821
    3MOL     H5  388   2.023   3.145   4.881
    3MOL     C4  389   1.980   2.949   4.418
    3MOL     H6  390   1.908   3.030   4.435
    3MOL     O3  391   1.953   2.886   4.293
    3MOL     H7  392   1.997   2.798   4.299
    3MOL     C5  393   2.122   3.010   4.415
    3MOL     H8  394   2.194   2.928   4.395
    3MOL     O4  395   2.134   3.111   4.314
    3MOL     H9  396   2.082   3.082   4.235
    3MOL     C6  397   2.157   3.071   4.551
    3MOL    H10  398   2.089   3.155   4.570
    3MOL     O5  399   2.294   3.115   4.544
    3MOL     C7  400   2.322   3.245   4.601
    3MOL    H11  401   2.231   3.290   4.642
    3MOL     O6  402   2.419   3.228   4.708
    3MOL     C8  403   2.548   3.177   4.669
    3MOL    H12  404   2.536   3.079   4.621
    3MOL     C9  405   2.634   3.157   4.797
    3MOL    H13  406   2.716   3.087   4.775
    3MOL    H14  407   2.571   3.109   4.873
    3MOL     O7  408   2.688   3.280   4.848
    3MOL    H15  409   2.777   3.287   4.807
    3MOL    C10  410   2.379   3.338   4.491
    3MOL    H16  411   2.390   3.439   4.532
    3MOL     O8  412   2.289   3.340   4.381
    3MOL    H17  413   2.261   3.245   4.371
    3MOL    C11  414   2.518   3.290   4.443
    3MOL    H18  415   2.506   3.190   4.398
    3MOL     O9  416   2.573   3.381   4.346
    3MOL    H19  417   2.503   3.396   4.280
    3MOL    C12  418   2.609   3.277   4.567
    3MOL    H20  419   2.616   3.375   4.614
    3MOL    O10  420   2.737   3.232   4.521
    3MOL    C13  421   2.849   3.318   4.553
    3MOL    H21  422   2.815   3.418   4.580
    3MOL    O11  423   2.921   3.256   4.663
    3MOL    C14  424   2.968   3.121   4.633
    3MOL    H22  425   2.883   3.059   4.602
    3MOL    C15  426   3.028   3.054   4.761
    3MOL    H23  427   3.008   2.946   4.756
    3MOL    H24  428   2.975   3.092   4.850
    3MOL    O12  429   3.169   3.072   4.775
    3MOL    H25  430   3.207   3.015   4.704
    3MOL    C16  431   2.940   3.330   4.427
    3MOL    H26  432   3.021   3.401   4.448
    3MOL    O13  433   2.861   3.379   4.319
    3MOL    H27  434   2.768   3.354   4.340
    3MOL    C17  435   3.001   3.193   4.390
    3MOL    H28  436   2.917   3.130   4.359
    3MOL    O14  437   3.095   3.203   4.283
    3MOL    H29  438   3.070   3.282   4.228
    3MOL    C18  439   3.068   3.132   4.515
    3MOL    H30  440   3.150   3.198   4.545
    3MOL    O15  441   3.116   3.000   4.483
    3MOL    C19  442   3.259   2.984   4.485
    3MOL    H31  443   3.311   3.081   4.483
    3MOL    O16  444   3.293   2.908   4.604
    3MOL    C20  445   3.237   2.773   4.607
    3MOL    H32  446   3.128   2.778   4.597
    3MOL    C21  447   3.268   2.706   4.743
    3MOL    H33  448   3.203   2.620   4.758
    3MOL    H34  449   3.247   2.778   4.823
    3MOL    O17  450   3.405   2.665   4.751
    3MOL    H35  451   3.405   2.569   4.771
    3MOL    C22  452   3.304   2.910   4.356
    3MOL    H36  453   3.412   2.915   4.354
    3MOL    O18  454   3.249   2.976   4.242
    3MOL    H37  455   3.196   3.051   4.273
    3MOL    C23  456   3.261   2.762   4.354
    3MOL    H38  457   3.152   2.761   4.342
    3MOL    O19  458   3.322   2.690   4.246
    3MOL    H39  459   3.284   2.733   4.164
    3MOL    C24  460   3.296   2.693   4.488
    3MOL    H40  461   3.405   2.689   4.498
    3MOL    O20  462   3.238   2.561   4.483
    3MOL    C25  463   3.330   2.450   4.492
    3MOL    H41  464   3.434   2.485   4.482
    3MOL    O21  465   3.311   2.387   4.620
    3MOL    C26  466   3.176   2.338   4.647
    3MOL    H42  467   3.106   2.422   4.645
    3MOL    C27  468   3.173   2.277   4.790
    3MOL    H43  469   3.070   2.253   4.816
    3MOL    H44  470   3.207   2.354   4.861
    3MOL    O22  471   3.256   2.160   4.802
    3MOL    H45  472   3.238   2.123   4.890
    3MOL    C28  473   3.301   2.347   4.379
    3MOL    H46  474   3.370   2.263   4.391
    3MOL    O23  475   3.321   2.407   4.251
    3MOL    H47  476   3.314   2.505   4.263
    3MOL    C29  477   3.156   2.293   4.392
    3MOL    H48  478   3.087   2.377   4.380
    3MOL    O24  479   3.124   2.191   4.294
    3MOL    H49  480   3.200   2.174   4.234
    3MOL    C30  481   3.137   2.236   4.535
    3MOL    H50  482   3.200   2.147   4.545
    3MOL    O25  483   2.998   2.201   4.549
    3MOL    C31  484   2.971   2.076   4.617
    3MOL    H51  485   3.061   2.037   4.666
    3MOL    O26  486   2.870   2.100   4.717
    3MOL    C32  487   2.741   2.145   4.666
    3MOL    H52  488   2.755   2.237   4.608
    3MOL    C33  489   2.650   2.179   4.786
    3MOL    H53  490   2.572   2.249   4.753
    3MOL    H54  491   2.711   2.232   4.861
    3MOL    O27  492   2.590   2.065   4.846
    3MOL    H55  493   2.496   2.064   4.818
    3MOL    C34  494   2.921   1.969   4.516
    3MOL    H56  495   2.914   1.874   4.569
    3MOL    O28  496   3.015   1.956   4.409
    3MOL    H57  497   3.039   2.049   4.384
    3MOL    C35  498   2.783   2.007   4.458
    3MOL    H58  499   2.796   2.102   4.407
    3MOL    O29  500   2.735   1.907   4.366
    3MOL    H59  501   2.809   1.896   4.302
    3MOL    C36  502   2.684   2.034   4.574
    3MOL    H60  503   2.668   1.942   4.632
    3MOL    O30  504   2.560   2.080   4.513
    3MOL    C37  505   2.453   1.984   4.510
    3MOL    H61  506   2.493   1.882   4.522
    3MOL    O31  507   2.360   2.015   4.617
    3MOL    C38  508   2.302   2.148   4.608
    3MOL    H62  509   2.383   2.220   4.601
    3MOL    C39  510   2.223   2.179   4.737
    3MOL    H63  511   2.145   2.103   4.751
    3MOL    H64  512   2.174   2.276   4.728
    3MOL    O32  513   2.312   2.179   4.848
    3MOL    H65  514   2.262   2.129   4.919
    3MOL    C40  515   2.378   1.991   4.374
    3MOL    H66  516   2.302   1.913   4.372
    3MOL    O33  517   2.472   1.967   4.268
    3MOL    H67  518   2.561   1.980   4.309
    3MOL    C41  519   2.306   2.128   4.355
    3MOL    H68  520   2.382   2.206   4.349
    3MOL    O34  521   2.226   2.129   4.235
    3MOL    H69  522   2.288   2.112   4.159
    3MOL    C42  523   2.216   2.158   4.479
    3MOL    H70  524   2.135   2.085   4.485
    3MOL    O35  525   2.164   2.294   4.465
    3MOL    C43  526   2.020   2.308   4.460
    3MOL    H71  527   1.971   2.210   4.453
    3MOL    O36  528   1.973   2.376   4.580
    3MOL    C44  529   2.022   2.511   4.603
    3MOL    H72  530   2.131   2.509   4.608
    3MOL    C45  531   1.967   2.563   4.738
    3MOL    H73  532   1.859   2.543   4.744
    3MOL    H74  533   1.981   2.671   4.745
    3MOL    O37  534   2.036   2.501   4.846
    3MOL    H75  535   1.983   2.511   4.928
    3MOL    C46  536   1.979   2.394   4.336
    3MOL    H76  537   1.870   2.394   4.331
    3MOL    O38  538   2.033   2.337   4.216
    3MOL    H77  539   2.100   2.270   4.243
    3MOL    C47  540   2.028   2.540   4.350
    3MOL    H78  541   2.138   2.539   4.351
    3MOL    O39  542   1.981   2.617   4.239
    3MOL    H79  543   1.977   2.552   4.165
    3MOL    C48  544   1.981   2.603   4.485
    3MOL    H80  545   1.872   2.613   4.483
    3MOL    O40  546   2.048   2.731   4.502
    4SOL     OW  547   0.222   0.621   0.109
    4SOL    HW1  548   0.169   0.575   0.174
    4SOL    HW2  549   0.248   0.553   0.047
    5SOL     OW  550   0.233   0.281   0.990
    5SOL    HW1  551   0.252   0.242   1.075
    5SOL    HW2  552   0.152   0.238   0.961
    6SOL     OW  553   0.001   0.407   0.662
    6SOL    HW1  554   5.208   0.430   0.668
    6SOL    HW2  555   0.002   0.316   0.632
    7SOL     OW  556   0.575   1.286   1.184
    7SOL    HW1  557   0.493   1.294   1.136
    7SOL    HW2  558   0.591   1.374   1.219
    8SOL     OW  559   1.562   1.512   0.708
    8SOL    HW1  560   1.520   1.491   0.791
    8SOL    HW2  561   1.491   1.515   0.644
    9SOL     OW  562   1.132   0.698   0.701
    9SOL    HW1  563   1.180   0.779   0.687
    9SOL    HW2  564   1.084   0.712   0.783
   10SOL     OW  565   1.772   0.599   0.231
   10SOL    HW1  566   1.727   0.605   0.146
   10SOL    HW2  567   1.730   0.525   0.275
   11SOL     OW  568   0.754   1.140   1.041
   11SOL    HW1  569   0.688   1.175   1.100
   11SOL    HW2  570   0.790   1.218   0.997
   12SOL     OW  571   0.867   0.776   1.822
   12SOL    HW1  572   0.859   0.847   1.885
   12SOL    HW2  573   0.891   0.818   1.740
   13SOL     OW  574   0.684   1.000   0.649
   13SOL    HW1  575   0.750   0.990   0.717
   13SOL    HW2  576   0.617   1.055   0.690
   14SOL     OW  577   0.710   1.150   1.814
   14SOL    HW1  578   0.759   1.228   1.841
   14SOL    HW2  579   0.629   1.184   1.777
   15SOL     OW  580   0.358   1.404   1.061
   15SOL    HW1  581   0.271   1.401   1.022
   15SOL    HW2  582   0.406   1.466   1.006
   16SOL     OW  583   1.460   1.500   1.356
   16SOL    HW1  584   1.512   1.580   1.365
   16SOL    HW2  585   1.396   1.504   1.427
   17SOL     OW  586   0.450   0.399   1.488
   17SOL    HW1  587   0.530   0.346   1.483
   17SOL    HW2  588   0.379   0.336   1.496
   18SOL     OW  589   1.610   0.451   0.738
   18SOL    HW1  590   1.531   0.471   0.687
   18SOL    HW2  591   1.625   0.530   0.790
   19SOL     OW  592   0.217   1.731   0.464
   19SOL    HW1  593   0.258   1.787   0.531
   19SOL    HW2  594   0.288   1.708   0.405
   20SOL     OW  595   1.137   1.342   1.693
   20SOL    HW1  596   1.178   1.336   1.779
   20SOL    HW2  597   1.085   1.262   1.686
   21SOL     OW  598   0.220   1.450   0.532
   21SOL    HW1  599   0.199   1.543   0.539
   21SOL    HW2  600   0.160   1.407   0.592
   22SOL     OW  601   0.255   1.078   0.878
   22SOL    HW1  602   0.261   0.991   0.917
   22SOL    HW2  603   0.200   1.127   0.938
   23SOL     OW  604   0.612   1.790   1.432
   23SOL    HW1  605   0.528   1.773   1.475
   23SOL    HW2  606   0.633   1.881   1.455
   24SOL     OW  607   0.619   0.958   0.140
   24SOL    HW1  608   0.575   1.038   0.110
   24SOL    HW2  609   0.677   0.988   0.210
   25SOL     OW  610   1.587   0.136   1.455
   25SOL    HW1  611   1.611   0.220   1.417
   25SOL    HW2  612   1.582   0.153   1.550
   26SOL     OW  613   0.128   0.640   0.583
   26SOL    HW1  614   0.093   0.555   0.610
   26SOL    HW2  615   0.098   0.701   0.650
   27SOL     OW  616   1.846   1.758   0.330
   27SOL    HW1  617   1.911   1.728   0.393
   27SOL    HW2  618   1.870   1.848   0.312
   28SOL     OW  619   0.032   1.583   0.104
   28SOL    HW1  620   0.024   1.498   0.147
   28SOL    HW2  621   0.007   1.646   0.171
   29SOL     OW  622   1.689   0.919   0.645
   29SOL    HW1  623   1.770   0.875   0.621
   29SOL    HW2  624   1.666   0.971   0.568
   30SOL     OW  625   1.646   1.104   0.434
   30SOL    HW1  626   1.727   1.117   0.385
   30SOL    HW2  627   1.652   1.167   0.507
   31SOL     OW  628   0.131   0.750   1.586
   31SOL    HW1  629   0.225   0.764   1.585
   31SOL    HW2  630   0.094   0.836   1.601
   32SOL     OW  631   0.616   1.387   0.734
   32SOL    HW1  632   0.568   1.305   0.745
   32SOL    HW2  633   0.599   1.413   0.643
   33SOL     OW  634   1.288   1.238   1.423
   33SOL    HW1  635   1.320   1.170   1.363
   33SOL    HW2  636   1.346   1.232   1.499
   34SOL     OW  637   0.817   0.030   0.529
   34SOL    HW1  638   0.845   0.116   0.499
   34SOL    HW2  639   0.722   0.032   0.522
   35SOL     OW  640   0.174   0.943   1.279
   35SOL    HW1  641   0.265   0.914   1.270
   35SOL    HW2  642   0.134   0.925   1.194
   36SOL     OW  643   1.508   1.008   0.213
   36SOL    HW1  644   1.446   0.944   0.247
   36SOL    HW2  645   1.561   1.033   0.289
   37SOL     OW  646   1.185   1.807   1.623
   37SOL    HW1  647   1.194   1.867   1.548
   37SOL    HW2  648   1.202   1.721   1.587
   38SOL     OW  649   0.329   0.278   1.797
   38SOL    HW1  650   0.388   0.338   1.844
   38SOL    HW2  651   0.248   0.280   1.848
   39SOL     OW  652   1.467   1.419   0.951
   39SOL    HW1  653   1.399   1.435   1.016
   39SOL    HW2  654   1.454   1.328   0.924
   40SOL     OW  655   1.659   1.743   0.582
   40SOL    HW1  656   1.638   1.714   0.493
   40SOL    HW2  657   1.634   1.669   0.637
   41SOL     OW  658   0.596   0.713   0.280
   41SOL    HW1  659   0.616   0.794   0.234
   41SOL    HW2  660   0.535   0.739   0.349
   42SOL     OW  661   1.277   0.349   0.932
   42SOL    HW1  662   1.187   0.319   0.944
   42SOL    HW2  663   1.327   0.298   0.996
   43SOL     OW  664   1.587   1.671   0.320
   43SOL    HW1  665   1.678   1.700   0.312
   43SOL    HW2  666   1.559   1.655   0.230
   44SOL     OW  667   0.794   0.618   1.450
   44SOL    HW1  668   0.766   0.596   1.539
   44SOL    HW2  669   0.753   0.552   1.395
   45SOL     OW  670   1.394   0.475   1.678
   45SOL    HW1  671   1.397   0.520   1.763
   45SOL    HW2  672   1.458   0.404   1.687
   46SOL     OW  673   0.954   0.887   1.583
   46SOL    HW1  674   1.008   0.817   1.547
   46SOL    HW2  675   0.906   0.921   1.508
   47SOL     OW  676   0.993   0.417   1.234
   47SOL    HW1  677   0.907   0.437   1.271
   47SOL    HW2  678   0.975   0.369   1.154
   48SOL     OW  679   1.053   0.699   0.428
   48SOL    HW1  680   1.069   0.691   0.522
   48SOL    HW2  681   0.970   0.653   0.414
   49SOL     OW  682   0.066   0.791   0.816
   49SOL    HW1  683   0.149   0.794   0.865
   49SOL    HW2  684   0.068   0.869   0.760
   50SOL     OW  685   0.129   1.885   1.585
   50SOL    HW1  686   0.133   1.857   1.677
   50SOL    HW2  687   0.060   1.831   1.546
   51SOL     OW  688   0.887   0.360   0.203
   51SOL    HW1  689   0.931   0.407   0.132
   51SOL    HW2  690   0.868   0.273   0.166
   52SOL     OW  691   1.706   0.573   1.828
   52SOL    HW1  692   1.670   0.647   1.779
   52SOL    HW2  693   1.737   0.513   1.760
   53SOL     OW  694   1.377   1.142   0.541
   53SOL    HW1  695   1.455   1.129   0.488
   53SOL    HW2  696   1.324   1.204   0.492
   54SOL     OW  697   0.536   0.201   0.884
   54SOL    HW1  698   0.553   0.221   0.976
   54SOL    HW2  699   0.548   0.285   0.839
   55SOL     OW  700   1.003   1.444   0.472
   55SOL    HW1  701   0.967   1.517   0.422
   55SOL    HW2  702   0.983   1.465   0.563
   56SOL     OW  703   0.358   1.803   0.869
   56SOL    HW1  704   0.398   1.717   0.883
   56SOL    HW2  705   0.423   1.865   0.902
   57SOL     OW  706   1.800   1.057   0.869
   57SOL    HW1  707   1.746   1.036   0.792
   57SOL    HW2  708   1.737   1.062   0.941
   58SOL     OW  709   1.228   1.539   1.513
   58SOL    HW1  710   1.214   1.466   1.574
   58SOL    HW2  711   1.163   1.525   1.444
   59SOL     OW  712   0.327   0.949   0.251
   59SOL    HW1  713   0.407   0.966   0.202
   59SOL    HW2  714   0.318   0.854   0.251
   60SOL     OW  715   1.479   0.745   0.726
   60SOL    HW1  716   1.471   0.702   0.811
   60SOL    HW2  717   1.557   0.800   0.734
   61SOL     OW  718   0.465   1.264   1.738
   61SOL    HW1  719   0.439   1.271   1.646
   61SOL    HW2  720   0.383   1.265   1.787
   62SOL     OW  721   1.107   1.781   0.223
   62SOL    HW1  722   1.051   1.741   0.289
   62SOL    HW2  723   1.128   1.710   0.163
   63SOL     OW  724   0.198   0.280   1.494
   63SOL    HW1  725   0.160   0.368   1.487
   63SOL    HW2  726   0.208   0.266   1.588
   64SOL     OW  727   1.634   1.373   0.083
   64SOL    HW1  728   1.593   1.459   0.083
   64SOL    HW2  729   1.563   1.312   0.064
   65SOL     OW  730   0.470   1.733   0.325
   65SOL    HW1  731   0.513   1.794   0.385
   65SOL    HW2  732   0.540   1.707   0.264
   66SOL     OW  733   1.416   0.100   0.446
   66SOL    HW1  734   1.409   0.080   0.353
   66SOL    HW2  735   1.508   0.127   0.458
   67SOL     OW  736   0.278   1.801   1.211
   67SOL    HW1  737   0.306   1.723   1.258
   67SOL    HW2  738   0.224   1.767   1.139
   68SOL     OW  739   0.939   1.699   0.898
   68SOL    HW1  740   1.016   1.647   0.920
   68SOL    HW2  741   0.895   1.649   0.829
   69SOL     OW  742   0.380   0.698   0.474
   69SOL    HW1  743   0.412   0.609   0.485
   69SOL    HW2  744   0.288   0.694   0.503
   70SOL     OW  745   1.538   0.228   1.723
   70SOL    HW1  746   1.546   0.245   1.817
   70SOL    HW2  747   1.462   0.170   1.715
   71SOL     OW  748   0.625   0.139   0.122
   71SOL    HW1  749   0.716   0.110   0.133
   71SOL    HW2  750   0.597   0.097   0.040
   72SOL     OW  751   0.780   0.313   1.767
   72SOL    HW1  752   0.840   0.238   1.766
   72SOL    HW2  753   0.735   0.307   1.851
   73SOL     OW  754   0.877   1.522   1.193
   73SOL    HW1  755   0.861   1.485   1.107
   73SOL    HW2  756   0.947   1.467   1.230
   74SOL     OW  757   1.340   0.589   1.432
   74SOL    HW1  758   1.371   0.558   1.517
   74SOL    HW2  759   1.376   0.677   1.424
   75SOL     OW  760   0.816   1.393   0.941
   75SOL    HW1  761   0.901   1.382   0.897
   75SOL    HW2  762   0.752   1.396   0.870
   76SOL     OW  763   0.928   0.511   0.902
   76SOL    HW1  764   0.904   0.502   0.810
   76SOL    HW2  765   0.958   0.423   0.927
   77SOL     OW  766   0.549   0.058   0.508
   77SOL    HW1  767   0.469   0.057   0.561
   77SOL    HW2  768   0.536   0.127   0.444
   78SOL     OW  769   1.433   1.199   0.035
   78SOL    HW1  770   1.457   1.126   0.092
   78SOL    HW2  771   1.345   1.225   0.065
   79SOL     OW  772   0.319   0.075   0.198
   79SOL    HW1  773   0.382   0.143   0.175
   79SOL    HW2  774   0.368   5.293   0.189
   80SOL     OW  775   0.946   0.260   0.454
   80SOL    HW1  776   0.920   0.305   0.373
   80SOL    HW2  777   1.038   0.283   0.465
   81SOL     OW  778   1.081   0.682   1.459
   81SOL    HW1  779   1.013   0.615   1.464
   81SOL    HW2  780   1.163   0.633   1.452
   82SOL     OW  781   1.223   1.570   0.794
   82SOL    HW1  782   1.238   1.636   0.727
   82SOL    HW2  783   1.291   1.585   0.859
   83SOL     OW  784   0.469   1.152   0.731
   83SOL    HW1  785   0.400   1.131   0.794
   83SOL    HW2  786   0.428   1.136   0.645
   84SOL     OW  787   1.267   1.794   0.608
   84SOL    HW1  788   1.317   1.857   0.557
   84SOL    HW2  789   1.199   1.846   0.651
   85SOL     OW  790   1.029   0.527   0.032
   85SOL    HW1  791   0.992   0.610   0.003
   85SOL    HW2  792   1.093   0.551   0.099
   86SOL     OW  793   0.101   0.529   1.413
   86SOL    HW1  794   0.180   0.549   1.364
   86SOL    HW2  795   0.079   0.611   1.458
   87SOL     OW  796   0.560   0.240   1.159
   87SOL    HW1  797   0.592   0.154   1.185
   87SOL    HW2  798   0.467   0.239   1.183
   88SOL     OW  799   0.868   0.461   0.640
   88SOL    HW1  800   0.824   0.515   0.573
   88SOL    HW2  801   0.889   0.380   0.594
   89SOL     OW  802   0.977   0.061   0.763
   89SOL    HW1  803   0.914   0.057   0.692
   89SOL    HW2  804   0.986   5.271   0.792
   90SOL     OW  805   1.437   1.162   0.857
   90SOL    HW1  806   1.368   1.097   0.856
   90SOL    HW2  807   1.461   1.172   0.764
   91SOL     OW  808   1.466   0.607   0.976
   91SOL    HW1  809   1.415   0.526   0.979
   91SOL    HW2  810   1.526   0.601   1.050
   92SOL     OW  811   1.848   0.814   0.387
   92SOL    HW1  812   1.900   0.762   0.448
   92SOL    HW2  813   1.818   0.751   0.322
   93SOL     OW  814   0.483   1.441   0.173
   93SOL    HW1  815   0.410   1.402   0.222
   93SOL    HW2  816   0.489   1.389   0.093
   94SOL     OW  817   1.672   1.265   0.646
   94SOL    HW1  818   1.767   1.268   0.660
   94SOL    HW2  819   1.642   1.354   0.667
   95SOL     OW  820   1.399   0.577   0.088
   95SOL    HW1  821   1.336   0.559   0.158
   95SOL    HW2  822   1.452   0.497   0.083
   96SOL     OW  823   0.523   0.269   0.328
   96SOL    HW1  824   0.566   0.214   0.263
   96SOL    HW2  825   0.506   0.351   0.282
   97SOL     OW  826   1.752   1.240   1.571
   97SOL    HW1  827   1.839   1.201   1.568
   97SOL    HW2  828   1.767   1.330   1.600
   98SOL     OW  829   1.058   1.353   1.333
   98SOL    HW1  830   0.983   1.322   1.384
   98SOL    HW2  831   1.134   1.312   1.374
   99SOL     OW  832   1.608   1.626   1.655
   99SOL    HW1  833   1.602   1.660   1.565
   99SOL    HW2  834   1.691   1.578   1.656
  100SOL     OW  835   1.130   1.205   1.105
  100SOL    HW1  836   1.071   1.242   1.169
  100SOL    HW2  837   1.098   1.237   1.021
  101SOL     OW  838   1.627   1.098   1.077
  101SOL    HW1  839   1.622   1.160   1.150
  101SOL    HW2  840   1.549   1.115   1.025
  102SOL     OW  841   0.905   0.107   1.388
  102SOL    HW1  842   0.936   0.073   1.304
  102SOL    HW2  843   0.982   0.150   1.426
  103SOL     OW  844   0.984   1.115   1.723
  103SOL    HW1  845   0.892   1.131   1.744
  103SOL    HW2  846   0.983   1.037   1.667
  104SOL     OW  847   0.715   1.063   0.382
  104SOL    HW1  848   0.698   1.045   0.474
  104SOL    HW2  849   0.793   1.011   0.361
  105SOL     OW  850   0.421   0.822   1.253
  105SOL    HW1  851   0.490   0.827   1.319
  105SOL    HW2  852   0.386   0.733   1.262
  106SOL     OW  853   1.266   0.378   1.274
  106SOL    HW1  854   1.299   0.455   1.320
  106SOL    HW2  855   1.176   0.401   1.251
  107SOL     OW  856   0.103   1.624   1.366
  107SOL    HW1  857   0.080   1.629   1.273
  107SOL    HW2  858   0.189   1.582   1.368
  108SOL     OW  859   0.344   1.110   0.487
  108SOL    HW1  860   0.342   1.189   0.433
  108SOL    HW2  861   0.358   1.038   0.424
  109SOL     OW  862   0.555   0.536   0.860
  109SOL    HW1  863   0.570   0.595   0.785
  109SOL    HW2  864   0.621   0.562   0.924
  110SOL     OW  865   1.247   1.347   0.394
  110SOL    HW1  866   1.303   1.420   0.423
  110SOL    HW2  867   1.160   1.370   0.426
  111SOL     OW  868   1.283   1.458   1.147
  111SOL    HW1  869   1.338   1.461   1.225
  111SOL    HW2  870   1.227   1.381   1.160
  112SOL     OW  871   1.581   0.625   0.482
  112SOL    HW1  872   1.531   0.673   0.548
  112SOL    HW2  873   1.615   0.692   0.424
  113SOL     OW  874   0.352   1.520   1.310
  113SOL    HW1  875   0.341   1.476   1.225
  113SOL    HW2  876   0.446   1.537   1.316
  114SOL     OW  877   0.416   0.740   1.603
  114SOL    HW1  878   0.474   0.789   1.544
  114SOL    HW2  879   0.461   0.658   1.619
  115SOL     OW  880   1.603   0.779   1.682
  115SOL    HW1  881   1.517   0.820   1.676
  115SOL    HW2  882   1.655   0.821   1.614
  116SOL     OW  883   1.048   0.118   1.784
  116SOL    HW1  884   1.075   0.197   1.737
  116SOL    HW2  885   1.052   0.048   1.719
  117SOL     OW  886   0.483   0.059   1.737
  117SOL    HW1  887   0.425   5.292   1.702
  117SOL    HW2  888   0.426   0.134   1.754
  118SOL     OW  889   0.586   0.874   1.033
  118SOL    HW1  890   0.617   0.964   1.032
  118SOL    HW2  891   0.529   0.869   1.109
  119SOL     OW  892   1.356   0.859   1.028
  119SOL    HW1  893   1.273   0.848   0.983
  119SOL    HW2  894   1.398   0.773   1.022
  120SOL     OW  895   1.201   0.527   0.269
  120SOL    HW1  896   1.210   0.448   0.322
  120SOL    HW2  897   1.159   0.590   0.328
  121SOL     OW  898   0.304   0.205   1.246
  121SOL    HW1  899   0.262   0.236   1.326
  121SOL    HW2  900   0.296   0.109   1.250
  122SOL     OW  901   0.067   1.318   1.280
  122SOL    HW1  902   0.091   1.259   1.351
  122SOL    HW2  903   5.295   1.371   1.315
  123SOL     OW  904   0.726   0.632   1.060
  123SOL    HW1  905   0.800   0.615   1.001
  123SOL    HW2  906   0.697   0.721   1.037
  124SOL     OW  907   1.735   0.959   1.853
  124SOL    HW1  908   1.690   0.896   1.798
  124SOL    HW2  909   1.676   0.974   1.927
  125SOL     OW  910   0.318   0.066   0.656
  125SOL    HW1  911   0.300   0.160   0.662
  125SOL    HW2  912   0.324   0.037   0.747
  126SOL     OW  913   1.623   0.380   0.366
  126SOL    HW1  914   1.649   0.313   0.429
  126SOL    HW2  915   1.597   0.454   0.420
  127SOL     OW  916   1.028   0.759   0.960
  127SOL    HW1  917   1.024   0.777   1.054
  127SOL    HW2  918   1.001   0.668   0.951
  128SOL     OW  919   0.982   1.566   1.718
  128SOL    HW1  920   0.967   1.610   1.634
  128SOL    HW2  921   1.026   1.484   1.694
  129SOL     OW  922   1.854   1.505   1.605
  129SOL    HW1  923   1.873   1.531   1.515
  129SOL    HW2  924   1.935   1.522   1.653
  130SOL     OW  925   0.354   0.917   1.807
  130SOL    HW1  926   0.435   0.938   1.854
  130SOL    HW2  927   0.380   0.852   1.741
  131SOL     OW  928   1.519   0.306   0.126
  131SOL    HW1  929   1.485   0.217   0.139
  131SOL    HW2  930   1.560   0.328   0.209
  132SOL     OW  931   1.295   0.823   0.021
  132SOL    HW1  932   1.333   0.737   0.038
  132SOL    HW2  933   1.357   0.865   8.041
  133SOL     OW  934   1.067   1.336   0.855
  133SOL    HW1  935   1.070   1.264   0.792
  133SOL    HW2  936   1.127   1.401   0.819
  134SOL     OW  937   0.313   0.809   0.949
  134SOL    HW1  938   0.407   0.827   0.945
  134SOL    HW2  939   0.308   0.718   0.980
  135SOL     OW  940   0.336   0.527   1.015
  135SOL    HW1  941   0.299   0.440   1.000
  135SOL    HW2  942   0.411   0.531   0.956
  136SOL     OW  943   1.135   0.377   1.689
  136SOL    HW1  944   1.087   0.432   1.752
  136SOL    HW2  945   1.222   0.417   1.685
  137SOL     OW  946   1.133   0.223   1.466
  137SOL    HW1  947   1.137   0.282   1.542
  137SOL    HW2  948   1.188   0.264   1.400
  138SOL     OW  949   0.011   1.326   0.201
  138SOL    HW1  950   5.239   1.311   0.140
  138SOL    HW2  951   0.015   1.247   0.254
  139SOL     OW  952   0.094   1.782   0.949
  139SOL    HW1  953   0.059   1.712   0.895
  139SOL    HW2  954   0.182   1.798   0.915
  140SOL     OW  955   0.505   1.573   0.907
  140SOL    HW1  956   0.572   1.639   0.928
  140SOL    HW2  957   0.548   1.513   0.847
  141SOL     OW  958   0.981   0.792   1.226
  141SOL    HW1  959   1.038   0.769   1.300
  141SOL    HW2  960   0.897   0.753   1.248
  142SOL     OW  961   0.036   0.570   1.121
  142SOL    HW1  962   0.115   0.537   1.080
  142SOL    HW2  963   0.037   0.532   1.209
  143SOL     OW  964   0.166   0.516   1.717
  143SOL    HW1  965   0.251   0.495   1.677
  143SOL    HW2  966   0.137   0.595   1.671
  144SOL     OW  967   1.378   0.938   1.658
  144SOL    HW1  968   1.399   1.031   1.656
  144SOL    HW2  969   1.375   0.912   1.566
  145SOL     OW  970   0.819   0.571   0.368
  145SOL    HW1  971   0.829   0.499   0.306
  145SOL    HW2  972   0.741   0.618   0.337
  146SOL     OW  973   1.642   0.601   1.185
  146SOL    HW1  974   1.631   0.542   1.259
  146SOL    HW2  975   1.729   0.582   1.151
  147SOL     OW  976   0.256   1.556   1.734
  147SOL    HW1  977   0.234   1.619   1.803
  147SOL    HW2  978   0.250   1.470   1.778
  148SOL     OW  979   0.701   0.452   1.260
  148SOL    HW1  980   0.650   0.378   1.227
  148SOL    HW2  981   0.699   0.516   1.189
  149SOL     OW  982   0.928   1.679   1.468
  149SOL    HW1  983   0.901   1.643   1.383
  149SOL    HW2  984   0.921   1.774   1.457
  150SOL     OW  985   0.470   0.491   0.175
  150SOL    HW1  986   0.537   0.555   0.195
  150SOL    HW2  987   0.387   0.535   0.195
  151SOL     OW  988   0.147   1.137   1.471
  151SOL    HW1  989   0.144   1.089   1.554
  151SOL    HW2  990   0.158   1.069   1.404
  152SOL     OW  991   1.325   1.046   1.222
  152SOL    HW1  992   1.348   0.983   1.155
  152SOL    HW2  993   1.255   1.099   1.183
  153SOL     OW  994   1.306   0.849   0.308
  153SOL    HW1  995   1.229   0.818   0.357
  153SOL    HW2  996   1.282   0.836   0.216
  154SOL     OW  997   1.773   1.743   1.151
  154SOL    HW1  998   1.833   1.769   1.081
  154SOL    HW2  999   1.748   1.653   1.130
  155SOL     OW 1000   1.241   1.733   1.112
  155SOL    HW1 1001   1.323   1.754   1.067
  155SOL    HW2 1002   1.247   1.639   1.130
  156SOL     OW 1003   0.082   1.214   1.027
  156SOL    HW1 1004   0.069   1.241   1.118
  156SOL    HW2 1005   5.294   1.204   0.992
  157SOL     OW 1006   0.678   1.667   1.731
  157SOL    HW1 1007   0.621   1.744   1.725
  157SOL    HW2 1008   0.743   1.679   1.662
  158SOL     OW 1009   0.893   0.086   0.139
  158SOL    HW1 1010   0.943   0.075   0.058
  158SOL    HW2 1011   0.908   0.004   0.187
  159SOL     OW 1012   1.712   0.150   0.503
  159SOL    HW1 1013   1.786   0.129   0.446
  159SOL    HW2 1014   1.705   0.075   0.563
  160SOL     OW 1015   1.390   1.568   0.487
  160SOL    HW1 1016   1.453   1.601   0.423
  160SOL    HW2 1017   1.342   1.646   0.516
  161SOL     OW 1018   0.146   1.798   1.842
  161SOL    HW1 1019   0.091   1.735   1.889
  161SOL    HW2 1020   0.193   1.845   1.911
  162SOL     OW 1021   1.277   0.926   0.672
  162SOL    HW1 1022   1.351   0.866   0.679
  162SOL    HW2 1023   1.311   0.999   0.619
  163SOL     OW 1024   0.813   1.274   1.429
  163SOL    HW1 1025   0.784   1.314   1.511
  163SOL    HW2 1026   0.743   1.294   1.367
  164SOL     OW 1027   0.678   1.621   0.156
  164SOL    HW1 1028   0.682   1.629   0.060
  164SOL    HW2 1029   0.617   1.549   0.171
  165SOL     OW 1030   1.624   1.727   1.391
  165SOL    HW1 1031   1.675   1.733   1.310
  165SOL    HW2 1032   1.611   1.817   1.418
  166SOL     OW 1033   1.846   0.155   0.956
  166SOL    HW1 1034   1.843   0.060   0.949
  166SOL    HW2 1035   1.760   0.184   0.927
  167SOL     OW 1036   0.271   0.329   0.718
  167SOL    HW1 1037   0.184   0.365   0.703
  167SOL    HW2 1038   0.274   0.314   0.813
  168SOL     OW 1039   1.157   1.580   0.051
  168SOL    HW1 1040   1.171   1.488   0.072
  168SOL    HW2 1041   1.169   1.586   8.036
  169SOL     OW 1042   0.824   1.006   1.373
  169SOL    HW1 1043   0.868   1.001   1.288
  169SOL    HW2 1044   0.823   1.099   1.394
  170SOL     OW 1045   0.918   0.913   0.297
  170SOL    HW1 1046   0.972   0.937   0.222
  170SOL    HW2 1047   0.966   0.842   0.340
  171SOL     OW 1048   1.510   1.623   0.061
  171SOL    HW1 1049   1.415   1.624   0.049
  171SOL    HW2 1050   1.545   1.626   8.052
  172SOL     OW 1051   0.367   1.304   1.493
  172SOL    HW1 1052   0.359   1.378   1.433
  172SOL    HW2 1053   0.291   1.249   1.473
  173SOL     OW 1054   1.610   1.283   1.280
  173SOL    HW1 1055   1.670   1.271   1.354
  173SOL    HW2 1056   1.550   1.351   1.309
  174SOL     OW 1057   1.053   1.108   0.707
  174SOL    HW1 1058   0.983   1.056   0.746
  174SOL    HW2 1059   1.116   1.042   0.676
  175SOL     OW 1060   1.019   0.243   0.969
  175SOL    HW1 1061   0.999   0.198   0.887
  175SOL    HW2 1062   1.012   0.176   1.036
  176SOL     OW 1063   0.603   1.486   0.478
  176SOL    HW1 1064   0.646   1.437   0.409
  176SOL    HW2 1065   0.534   1.536   0.434
  177SOL     OW 1066   1.725   0.386   1.378
  177SOL    HW1 1067   1.796   0.451   1.377
  177SOL    HW2 1068   1.757   0.317   1.320
  178SOL     OW 1069   0.270   1.324   0.300
  178SOL    HW1 1070   0.185   1.334   0.258
  178SOL    HW2 1071   0.261   1.372   0.383
  179SOL     OW 1072   0.117   1.016   1.717
  179SOL    HW1 1073   0.046   0.982   1.771
  179SOL    HW2 1074   0.197   0.985   1.760
  180SOL     OW 1075   0.675   0.217   1.491
  180SOL    HW1 1076   0.758   0.200   1.446
  180SOL    HW2 1077   0.700   0.262   1.571
  181SOL     OW 1078   0.085   0.355   8.079
  181SOL    HW1 1079   0.005   0.320   0.038
  181SOL    HW2 1080   0.061   0.443   8.050
  182SOL     OW 1081   1.429   0.858   1.400
  182SOL    HW1 1082   1.380   0.919   1.344
  182SOL    HW2 1083   1.518   0.861   1.365
  183SOL     OW 1084   0.080   0.142   0.287
  183SOL    HW1 1085   0.079   0.238   0.281
  183SOL    HW2 1086   0.169   0.118   0.263
  184SOL     OW 1087   1.184   1.316   0.121
  184SOL    HW1 1088   1.089   1.306   0.120
  184SOL    HW2 1089   1.207   1.318   0.214
  185SOL     OW 1090   0.620   0.831   1.436
  185SOL    HW1 1091   0.675   0.907   1.420
  185SOL    HW2 1092   0.681   0.758   1.443
  186SOL     OW 1093   1.483   1.778   0.979
  186SOL    HW1 1094   1.507   1.838   0.909
  186SOL    HW2 1095   1.567   1.757   1.022
  187SOL     OW 1096   0.713   0.573   1.703
  187SOL    HW1 1097   0.757   0.636   1.760
  187SOL    HW2 1098   0.743   0.488   1.733
  188SOL     OW 1099   1.472   1.199   1.631
  188SOL    HW1 1100   1.460   1.213   1.725
  188SOL    HW2 1101   1.565   1.215   1.617
  189SOL     OW 1102   0.376   1.743   1.564
  189SOL    HW1 1103   0.294   1.789   1.548
  189SOL    HW2 1104   0.351   1.663   1.609
  190SOL     OW 1105   1.668   0.881   1.255
  190SOL    HW1 1106   1.663   0.796   1.212
  190SOL    HW2 1107   1.659   0.944   1.184
  191SOL     OW 1108   1.216   0.328   0.473
  191SOL    HW1 1109   1.274   0.253   0.458
  191SOL    HW2 1110   1.255   0.374   0.547
  192SOL     OW 1111   0.588   0.736   0.669
  192SOL    HW1 1112   0.627   0.822   0.656
  192SOL    HW2 1113   0.518   0.731   0.604
  193SOL     OW 1114   1.766   0.362   1.649
  193SOL    HW1 1115   1.747   0.377   1.556
  193SOL    HW2 1116   1.694   0.306   1.679
  194SOL     OW 1117   1.745   0.934   1.512
  194SOL    HW1 1118   1.741   1.028   1.525
  194SOL    HW2 1119   1.730   0.922   1.418
  195SOL     OW 1120   0.896   1.371   0.038
  195SOL    HW1 1121   0.833   1.362   0.110
  195SOL    HW2 1122   0.878   1.458   0.002
  196SOL     OW 1123   0.664   1.793   0.942
  196SOL    HW1 1124   0.643   1.884   0.920
  196SOL    HW2 1125   0.759   1.787   0.936
  197SOL     OW 1126   0.868   0.967   0.854
  197SOL    HW1 1127   0.918   0.896   0.893
  197SOL    HW2 1128   0.833   1.015   0.929
  198SOL     OW 1129   1.076   0.975   0.085
  198SOL    HW1 1130   1.068   1.041   0.016
  198SOL    HW2 1131   1.154   0.924   0.061
  199SOL     OW 1132   1.853   1.554   0.844
  199SOL    HW1 1133   1.774   1.542   0.791
  199SOL    HW2 1134   1.845   1.488   0.913
  200SOL     OW 1135   0.226   1.304   1.861
  200SOL    HW1 1136   0.158   1.242   1.835
  200SOL    HW2 1137   0.215   1.314   1.955
  201SOL     OW 1138   0.097   1.234   0.661
  201SOL    HW1 1139   0.099   1.188   0.745
  201SOL    HW2 1140   0.173   1.201   0.613
  202SOL     OW 1141   0.682   1.403   1.629
  202SOL    HW1 1142   0.601   1.361   1.659
  202SOL    HW2 1143   0.678   1.492   1.665
  203SOL     OW 1144   1.812   0.176   1.232
  203SOL    HW1 1145   1.777   0.087   1.235
  203SOL    HW2 1146   1.833   0.190   1.139
  204SOL     OW 1147   0.430   0.440   0.521
  204SOL    HW1 1148   0.466   0.367   0.472
  204SOL    HW2 1149   0.386   0.400   0.596
  205SOL     OW 1150   1.700   1.489   1.095
  205SOL    HW1 1151   1.619   1.466   1.049
  205SOL    HW2 1152   1.710   1.420   1.160
  206SOL     OW 1153   0.338   0.562   1.289
  206SOL    HW1 1154   0.394   0.504   1.339
  206SOL    HW2 1155   0.350   0.535   1.198
  207SOL     OW 1156   0.829   1.577   0.677
  207SOL    HW1 1157   0.814   1.634   0.601
  207SOL    HW2 1158   0.753   1.519   0.679
  208SOL     OW 1159   1.428   0.219   1.117
  208SOL    HW1 1160   1.463   0.143   1.164
  208SOL    HW2 1161   1.379   0.268   1.183
  209SOL     OW 1162   1.001   0.020   1.140
  209SOL    HW1 1163   0.951   5.253   1.094
  209SOL    HW2 1164   1.088   5.281   1.153
  210SOL     OW 1165   0.772   1.326   0.308
  210SOL    HW1 1166   0.741   1.237   0.325
  210SOL    HW2 1167   0.852   1.334   0.359
  211SOL     OW 1168   0.623   1.555   1.288
  211SOL    HW1 1169   0.624   1.638   1.337
  211SOL    HW2 1170   0.710   1.550   1.248
  212SOL     OW 1171   1.395   0.047   0.168
  212SOL    HW1 1172   1.384   0.027   0.075
  212SOL    HW2 1173   1.309   0.077   0.197
  213SOL     OW 1174   1.308   0.468   0.689
  213SOL    HW1 1175   1.251   0.544   0.692
  213SOL    HW2 1176   1.297   0.426   0.774
  214SOL     OW 1177   1.595   0.216   0.883
  214SOL    HW1 1178   1.529   0.227   0.951
  214SOL    HW2 1179   1.587   0.294   0.829
  215SOL     OW 1180   0.047   1.074   0.318
  215SOL    HW1 1181   0.135   1.048   0.292
  215SOL    HW2 1182   5.297   0.992   0.320
  216SOL     OW 1183   0.884   1.654   0.346
  216SOL    HW1 1184   0.815   1.639   0.282
  216SOL    HW2 1185   0.853   1.730   0.397
  217SOL     OW 1186   0.232   0.632   1.980
  217SOL    HW1 1187   0.158   0.603   2.033
  217SOL    HW2 1188   0.212   0.602   1.891
  218SOL     OW 1189   0.233   0.281   2.852
  218SOL    HW1 1190   0.252   0.243   2.937
  218SOL    HW2 1191   0.153   0.238   2.823
  219SOL     OW 1192   5.299   0.407   2.528
  219SOL    HW1 1193   5.206   0.429   2.530
  219SOL    HW2 1194   0.001   0.317   2.495
  220SOL     OW 1195   0.575   1.286   3.046
  220SOL    HW1 1196   0.493   1.294   2.998
  220SOL    HW2 1197   0.591   1.374   3.081
  221SOL     OW 1198   1.563   1.512   2.569
  221SOL    HW1 1199   1.520   1.492   2.652
  221SOL    HW2 1200   1.491   1.516   2.506
  222SOL     OW 1201   1.132   0.698   2.562
  222SOL    HW1 1202   1.180   0.779   2.548
  222SOL    HW2 1203   1.084   0.712   2.644
  223SOL     OW 1204   1.768   0.605   2.090
  223SOL    HW1 1205   1.747   0.598   1.997
  223SOL    HW2 1206   1.732   0.525   2.129
  224SOL     OW 1207   0.754   1.140   2.902
  224SOL    HW1 1208   0.688   1.175   2.962
  224SOL    HW2 1209   0.790   1.217   2.859
  225SOL     OW 1210   0.867   0.776   3.684
  225SOL    HW1 1211   0.859   0.847   3.747
  225SOL    HW2 1212   0.891   0.818   3.602
  226SOL     OW 1213   0.685   1.001   2.508
  226SOL    HW1 1214   0.752   0.990   2.577
  226SOL    HW2 1215   0.618   1.055   2.550
  227SOL     OW 1216   0.710   1.150   3.676
  227SOL    HW1 1217   0.759   1.228   3.704
  227SOL    HW2 1218   0.629   1.184   3.639
  228SOL     OW 1219   0.359   1.404   2.922
  228SOL    HW1 1220   0.270   1.405   2.886
  228SOL    HW2 1221   0.407   1.466   2.867
  229SOL     OW 1222   1.460   1.500   3.217
  229SOL    HW1 1223   1.513   1.580   3.227
  229SOL    HW2 1224   1.397   1.505   3.289
  230SOL     OW 1225   0.451   0.399   3.349
  230SOL    HW1 1226   0.530   0.346   3.345
  230SOL    HW2 1227   0.380   0.336   3.358
  231SOL     OW 1228   1.610   0.451   2.600
  231SOL    HW1 1229   1.534   0.474   2.546
  231SOL    HW2 1230   1.626   0.530   2.652
  232SOL     OW 1231   0.232   1.714   2.339
  232SOL    HW1 1232   0.264   1.783   2.397
  232SOL    HW2 1233   0.295   1.711   2.267
  233SOL     OW 1234   1.137   1.342   3.555
  233SOL    HW1 1235   1.178   1.336   3.641
  233SOL    HW2 1236   1.085   1.262   3.548
  234SOL     OW 1237   0.222   1.445   2.402
  234SOL    HW1 1238   0.217   1.540   2.396
  234SOL    HW2 1239   0.151   1.422   2.462
  235SOL     OW 1240   0.250   1.077   2.736
  235SOL    HW1 1241   0.262   0.991   2.778
  235SOL    HW2 1242   0.198   1.127   2.799
  236SOL     OW 1243   0.612   1.790   3.294
  236SOL    HW1 1244   0.528   1.773   3.337
  236SOL    HW2 1245   0.633   1.880   3.317
  237SOL     OW 1246   0.581   0.984   1.998
  237SOL    HW1 1247   0.629   1.031   1.929
  237SOL    HW2 1248   0.622   1.014   2.079
  238SOL     OW 1249   1.586   0.136   3.317
  238SOL    HW1 1250   1.611   0.220   3.279
  238SOL    HW2 1251   1.582   0.153   3.411
  239SOL     OW 1252   0.124   0.636   2.439
  239SOL    HW1 1253   0.090   0.553   2.474
  239SOL    HW2 1254   0.098   0.701   2.505
  240SOL     OW 1255   1.842   1.758   2.196
  240SOL    HW1 1256   1.908   1.730   2.260
  240SOL    HW2 1257   1.865   1.849   2.177
  241SOL     OW 1258   0.038   1.599   1.995
  241SOL    HW1 1259   0.025   1.508   2.020
  241SOL    HW2 1260   5.282   1.649   2.054
  242SOL     OW 1261   1.689   0.918   2.504
  242SOL    HW1 1262   1.772   0.875   2.482
  242SOL    HW2 1263   1.667   0.969   2.426
  243SOL     OW 1264   1.647   1.106   2.291
  243SOL    HW1 1265   1.733   1.111   2.249
  243SOL    HW2 1266   1.652   1.168   2.364
  244SOL     OW 1267   0.131   0.750   3.447
  244SOL    HW1 1268   0.226   0.764   3.446
  244SOL    HW2 1269   0.094   0.836   3.464
  245SOL     OW 1270   0.616   1.386   2.596
  245SOL    HW1 1271   0.568   1.304   2.607
  245SOL    HW2 1272   0.598   1.413   2.506
  246SOL     OW 1273   1.288   1.237   3.285
  246SOL    HW1 1274   1.320   1.170   3.225
  246SOL    HW2 1275   1.346   1.232   3.361
  247SOL     OW 1276   0.816   0.029   2.391
  247SOL    HW1 1277   0.843   0.117   2.365
  247SOL    HW2 1278   0.720   0.031   2.383
  248SOL     OW 1279   0.174   0.943   3.141
  248SOL    HW1 1280   0.265   0.914   3.133
  248SOL    HW2 1281   0.135   0.924   3.056
  249SOL     OW 1282   1.531   0.994   2.061
  249SOL    HW1 1283   1.461   0.937   2.093
  249SOL    HW2 1284   1.573   1.029   2.140
  250SOL     OW 1285   1.184   1.807   3.485
  250SOL    HW1 1286   1.195   1.867   3.411
  250SOL    HW2 1287   1.202   1.721   3.448
  251SOL     OW 1288   0.329   0.279   3.659
  251SOL    HW1 1289   0.388   0.337   3.706
  251SOL    HW2 1290   0.248   0.280   3.710
  252SOL     OW 1291   1.467   1.419   2.813
  252SOL    HW1 1292   1.399   1.435   2.878
  252SOL    HW2 1293   1.454   1.328   2.786
  253SOL     OW 1294   1.657   1.742   2.440
  253SOL    HW1 1295   1.639   1.712   2.351
  253SOL    HW2 1296   1.633   1.668   2.496
  254SOL     OW 1297   0.594   0.720   2.128
  254SOL    HW1 1298   0.602   0.801   2.079
  254SOL    HW2 1299   0.530   0.739   2.196
  255SOL     OW 1300   1.278   0.348   2.793
  255SOL    HW1 1301   1.187   0.320   2.805
  255SOL    HW2 1302   1.328   0.298   2.857
  256SOL     OW 1303   1.580   1.671   2.171
  256SOL    HW1 1304   1.671   1.701   2.164
  256SOL    HW2 1305   1.553   1.654   2.081
  257SOL     OW 1306   0.794   0.618   3.312
  257SOL    HW1 1307   0.766   0.597   3.401
  257SOL    HW2 1308   0.752   0.552   3.257
  258SOL     OW 1309   1.394   0.475   3.540
  258SOL    HW1 1310   1.397   0.520   3.625
  258SOL    HW2 1311   1.458   0.404   3.549
  259SOL     OW 1312   0.953   0.887   3.445
  259SOL    HW1 1313   1.008   0.817   3.409
  259SOL    HW2 1314   0.906   0.922   3.369
  260SOL     OW 1315   0.993   0.417   3.097
  260SOL    HW1 1316   0.907   0.438   3.133
  260SOL    HW2 1317   0.974   0.369   3.016
  261SOL     OW 1318   1.051   0.698   2.288
  261SOL    HW1 1319   1.067   0.691   2.382
  261SOL    HW2 1320   0.968   0.652   2.275
  262SOL     OW 1321   0.070   0.789   2.673
  262SOL    HW1 1322   0.151   0.793   2.724
  262SOL    HW2 1323   0.066   0.873   2.628
  263SOL     OW 1324   0.129   1.885   3.447
  263SOL    HW1 1325   0.133   1.857   3.539
  263SOL    HW2 1326   0.060   1.831   3.409
  264SOL     OW 1327   0.875   0.366   2.050
  264SOL    HW1 1328   0.915   0.425   1.986
  264SOL    HW2 1329   0.932   0.289   2.050
  265SOL     OW 1330   1.706   0.573   3.690
  265SOL    HW1 1331   1.670   0.647   3.641
  265SOL    HW2 1332   1.737   0.513   3.622
  266SOL     OW 1333   1.377   1.142   2.403
  266SOL    HW1 1334   1.456   1.130   2.350
  266SOL    HW2 1335   1.325   1.204   2.353
  267SOL     OW 1336   0.536   0.203   2.744
  267SOL    HW1 1337   0.552   0.220   2.837
  267SOL    HW2 1338   0.549   0.287   2.701
  268SOL     OW 1339   1.004   1.443   2.333
  268SOL    HW1 1340   0.969   1.517   2.284
  268SOL    HW2 1341   0.986   1.465   2.425
  269SOL     OW 1342   0.357   1.803   2.732
  269SOL    HW1 1343   0.398   1.718   2.745
  269SOL    HW2 1344   0.423   1.866   2.763
  270SOL     OW 1345   1.799   1.055   2.731
  270SOL    HW1 1346   1.745   1.037   2.654
  270SOL    HW2 1347   1.737   1.062   2.803
  271SOL     OW 1348   1.228   1.539   3.375
  271SOL    HW1 1349   1.214   1.466   3.436
  271SOL    HW2 1350   1.163   1.525   3.306
  272SOL     OW 1351   0.315   0.952   2.110
  272SOL    HW1 1352   0.397   0.976   2.067
  272SOL    HW2 1353   0.294   0.866   2.075
  273SOL     OW 1354   1.479   0.744   2.588
  273SOL    HW1 1355   1.472   0.702   2.674
  273SOL    HW2 1356   1.557   0.800   2.595
  274SOL     OW 1357   0.465   1.264   3.600
  274SOL    HW1 1358   0.439   1.270   3.508
  274SOL    HW2 1359   0.383   1.265   3.649
  275SOL     OW 1360   1.122   1.778   2.092
  275SOL    HW1 1361   1.049   1.736   2.138
  275SOL    HW2 1362   1.146   1.716   2.023
  276SOL     OW 1363   0.198   0.281   3.356
  276SOL    HW1 1364   0.160   0.368   3.350
  276SOL    HW2 1365   0.208   0.266   3.451
  277SOL     OW 1366   1.628   1.380   1.950
  277SOL    HW1 1367   1.587   1.465   1.935
  277SOL    HW2 1368   1.559   1.316   1.930
  278SOL     OW 1369   0.471   1.734   2.181
  278SOL    HW1 1370   0.514   1.792   2.244
  278SOL    HW2 1371   0.542   1.703   2.125
  279SOL     OW 1372   1.407   0.101   2.293
  279SOL    HW1 1373   1.400   0.081   2.200
  279SOL    HW2 1374   1.500   0.121   2.306
  280SOL     OW 1375   0.277   1.801   3.073
  280SOL    HW1 1376   0.307   1.723   3.119
  280SOL    HW2 1377   0.225   1.767   3.000
  281SOL     OW 1378   0.939   1.699   2.761
  281SOL    HW1 1379   1.017   1.648   2.782
  281SOL    HW2 1380   0.895   1.649   2.692
  282SOL     OW 1381   0.385   0.696   2.340
  282SOL    HW1 1382   0.415   0.605   2.349
  282SOL    HW2 1383   0.292   0.693   2.362
  283SOL     OW 1384   1.538   0.227   3.585
  283SOL    HW1 1385   1.546   0.245   3.679
  283SOL    HW2 1386   1.462   0.170   3.577
  284SOL     OW 1387   0.621   0.132   1.969
  284SOL    HW1 1388   0.685   0.066   1.995
  284SOL    HW2 1389   0.574   0.092   1.896
  285SOL     OW 1390   0.780   0.313   3.629
  285SOL    HW1 1391   0.840   0.238   3.628
  285SOL    HW2 1392   0.735   0.307   3.713
  286SOL     OW 1393   0.877   1.522   3.055
  286SOL    HW1 1394   0.861   1.485   2.968
  286SOL    HW2 1395   0.947   1.467   3.091
  287SOL     OW 1396   1.340   0.589   3.294
  287SOL    HW1 1397   1.371   0.558   3.380
  287SOL    HW2 1398   1.376   0.677   3.286
  288SOL     OW 1399   0.816   1.393   2.803
  288SOL    HW1 1400   0.901   1.382   2.759
  288SOL    HW2 1401   0.753   1.396   2.732
  289SOL     OW 1402   0.928   0.510   2.765
  289SOL    HW1 1403   0.904   0.503   2.673
  289SOL    HW2 1404   0.958   0.423   2.790
  290SOL     OW 1405   0.548   0.058   2.366
  290SOL    HW1 1406   0.469   0.059   2.421
  290SOL    HW2 1407   0.534   0.129   2.303
  291SOL     OW 1408   1.428   1.198   1.902
  291SOL    HW1 1409   1.458   1.123   1.953
  291SOL    HW2 1410   1.343   1.220   1.940
  292SOL     OW 1411   0.316   0.066   2.047
  292SOL    HW1 1412   0.383   0.132   2.029
  292SOL    HW2 1413   0.365   5.284   2.053
  293SOL     OW 1414   0.940   0.265   2.324
  293SOL    HW1 1415   0.913   0.300   2.240
  293SOL    HW2 1416   1.035   0.276   2.325
  294SOL     OW 1417   1.081   0.682   3.321
  294SOL    HW1 1418   1.013   0.615   3.326
  294SOL    HW2 1419   1.163   0.633   3.314
  295SOL     OW 1420   1.223   1.570   2.656
  295SOL    HW1 1421   1.238   1.637   2.589
  295SOL    HW2 1422   1.291   1.585   2.721
  296SOL     OW 1423   0.468   1.151   2.592
  296SOL    HW1 1424   0.399   1.130   2.655
  296SOL    HW2 1425   0.428   1.133   2.507
  297SOL     OW 1426   1.268   1.793   2.471
  297SOL    HW1 1427   1.314   1.855   2.414
  297SOL    HW2 1428   1.201   1.846   2.514
  298SOL     OW 1429   1.025   0.545   1.885
  298SOL    HW1 1430   0.983   0.629   1.867
  298SOL    HW2 1431   1.089   0.565   1.954
  299SOL     OW 1432   0.100   0.530   3.275
  299SOL    HW1 1433   0.180   0.549   3.226
  299SOL    HW2 1434   0.079   0.611   3.320
  300SOL     OW 1435   0.560   0.239   3.020
  300SOL    HW1 1436   0.592   0.153   3.047
  300SOL    HW2 1437   0.467   0.239   3.045
  301SOL     OW 1438   0.867   0.464   2.503
  301SOL    HW1 1439   0.820   0.517   2.439
  301SOL    HW2 1440   0.890   0.384   2.456
  302SOL     OW 1441   0.979   0.060   2.625
  302SOL    HW1 1442   0.914   0.057   2.555
  302SOL    HW2 1443   0.987   5.270   2.655
  303SOL     OW 1444   1.438   1.162   2.719
  303SOL    HW1 1445   1.368   1.097   2.718
  303SOL    HW2 1446   1.462   1.173   2.627
  304SOL     OW 1447   1.466   0.607   2.838
  304SOL    HW1 1448   1.415   0.526   2.841
  304SOL    HW2 1449   1.526   0.601   2.912
  305SOL     OW 1450   1.844   0.816   2.245
  305SOL    HW1 1451   1.901   0.765   2.303
  305SOL    HW2 1452   1.817   0.753   2.178
  306SOL     OW 1453   0.491   1.419   2.019
  306SOL    HW1 1454   0.416   1.391   2.071
  306SOL    HW2 1455   0.477   1.379   1.933
  307SOL     OW 1456   1.671   1.264   2.507
  307SOL    HW1 1457   1.766   1.266   2.521
  307SOL    HW2 1458   1.641   1.353   2.528
  308SOL     OW 1459   1.394   0.572   1.933
  308SOL    HW1 1460   1.333   0.552   2.004
  308SOL    HW2 1461   1.479   0.542   1.966
  309SOL     OW 1462   0.522   0.265   2.182
  309SOL    HW1 1463   0.570   0.217   2.114
  309SOL    HW2 1464   0.501   0.350   2.142
  310SOL     OW 1465   1.752   1.240   3.434
  310SOL    HW1 1466   1.840   1.201   3.429
  310SOL    HW2 1467   1.768   1.330   3.461
  311SOL     OW 1468   1.058   1.353   3.194
  311SOL    HW1 1469   0.983   1.322   3.246
  311SOL    HW2 1470   1.134   1.312   3.236
  312SOL     OW 1471   1.608   1.624   3.516
  312SOL    HW1 1472   1.602   1.660   3.427
  312SOL    HW2 1473   1.692   1.578   3.518
  313SOL     OW 1474   1.129   1.203   2.966
  313SOL    HW1 1475   1.071   1.242   3.032
  313SOL    HW2 1476   1.098   1.237   2.883
  314SOL     OW 1477   1.627   1.098   2.939
  314SOL    HW1 1478   1.622   1.160   3.012
  314SOL    HW2 1479   1.549   1.115   2.887
  315SOL     OW 1480   0.905   0.107   3.250
  315SOL    HW1 1481   0.936   0.073   3.166
  315SOL    HW2 1482   0.982   0.150   3.288
  316SOL     OW 1483   0.984   1.115   3.585
  316SOL    HW1 1484   0.892   1.131   3.606
  316SOL    HW2 1485   0.983   1.037   3.529
  317SOL     OW 1486   0.708   1.060   2.234
  317SOL    HW1 1487   0.696   1.044   2.328
  317SOL    HW2 1488   0.784   1.007   2.210
  318SOL     OW 1489   0.421   0.821   3.115
  318SOL    HW1 1490   0.490   0.827   3.181
  318SOL    HW2 1491   0.386   0.732   3.124
  319SOL     OW 1492   1.266   0.378   3.135
  319SOL    HW1 1493   1.299   0.455   3.182
  319SOL    HW2 1494   1.176   0.401   3.113
  320SOL     OW 1495   0.102   1.623   3.228
  320SOL    HW1 1496   0.081   1.631   3.135
  320SOL    HW2 1497   0.189   1.582   3.230
  321SOL     OW 1498   0.342   1.108   2.349
  321SOL    HW1 1499   0.350   1.187   2.295
  321SOL    HW2 1500   0.350   1.036   2.286
  322SOL     OW 1501   0.555   0.536   2.721
  322SOL    HW1 1502   0.569   0.595   2.647
  322SOL    HW2 1503   0.620   0.562   2.786
  323SOL     OW 1504   1.248   1.349   2.251
  323SOL    HW1 1505   1.304   1.420   2.282
  323SOL    HW2 1506   1.161   1.370   2.285
  324SOL     OW 1507   1.283   1.458   3.009
  324SOL    HW1 1508   1.339   1.462   3.087
  324SOL    HW2 1509   1.227   1.382   3.024
  325SOL     OW 1510   1.581   0.622   2.342
  325SOL    HW1 1511   1.534   0.675   2.406
  325SOL    HW2 1512   1.626   0.686   2.286
  326SOL     OW 1513   0.352   1.520   3.172
  326SOL    HW1 1514   0.341   1.476   3.087
  326SOL    HW2 1515   0.446   1.537   3.178
  327SOL     OW 1516   0.416   0.740   3.465
  327SOL    HW1 1517   0.474   0.789   3.406
  327SOL    HW2 1518   0.461   0.658   3.481
  328SOL     OW 1519   1.603   0.779   3.544
  328SOL    HW1 1520   1.517   0.821   3.538
  328SOL    HW2 1521   1.655   0.821   3.476
  329SOL     OW 1522   1.048   0.118   3.646
  329SOL    HW1 1523   1.075   0.197   3.599
  329SOL    HW2 1524   1.052   0.049   3.580
  330SOL     OW 1525   0.483   0.059   3.599
  330SOL    HW1 1526   0.425   5.292   3.564
  330SOL    HW2 1527   0.426   0.134   3.616
  331SOL     OW 1528   0.586   0.874   2.894
  331SOL    HW1 1529   0.618   0.964   2.894
  331SOL    HW2 1530   0.529   0.870   2.972
  332SOL     OW 1531   1.356   0.859   2.890
  332SOL    HW1 1532   1.272   0.848   2.845
  332SOL    HW2 1533   1.398   0.773   2.884
  333SOL     OW 1534   1.204   0.528   2.128
  333SOL    HW1 1535   1.210   0.448   2.180
  333SOL    HW2 1536   1.162   0.591   2.186
  334SOL     OW 1537   0.304   0.205   3.108
  334SOL    HW1 1538   0.263   0.237   3.188
  334SOL    HW2 1539   0.293   0.110   3.112
  335SOL     OW 1540   0.066   1.317   3.142
  335SOL    HW1 1541   0.091   1.259   3.213
  335SOL    HW2 1542   5.295   1.371   3.178
  336SOL     OW 1543   0.725   0.632   2.921
  336SOL    HW1 1544   0.800   0.615   2.863
  336SOL    HW2 1545   0.697   0.721   2.899
  337SOL     OW 1546   1.736   0.959   3.716
  337SOL    HW1 1547   1.690   0.897   3.659
  337SOL    HW2 1548   1.676   0.974   3.789
  338SOL     OW 1549   0.319   0.067   2.518
  338SOL    HW1 1550   0.299   0.161   2.525
  338SOL    HW2 1551   0.326   0.038   2.609
  339SOL     OW 1552   1.613   0.376   2.225
  339SOL    HW1 1553   1.646   0.312   2.288
  339SOL    HW2 1554   1.593   0.453   2.278
  340SOL     OW 1555   1.028   0.759   2.822
  340SOL    HW1 1556   1.024   0.777   2.916
  340SOL    HW2 1557   1.001   0.668   2.813
  341SOL     OW 1558   0.981   1.565   3.580
  341SOL    HW1 1559   0.967   1.610   3.497
  341SOL    HW2 1560   1.026   1.484   3.556
  342SOL     OW 1561   1.856   1.504   3.467
  342SOL    HW1 1562   1.872   1.532   3.377
  342SOL    HW2 1563   1.936   1.525   3.514
  343SOL     OW 1564   0.354   0.917   3.669
  343SOL    HW1 1565   0.435   0.938   3.716
  343SOL    HW2 1566   0.381   0.852   3.603
  344SOL     OW 1567   1.525   0.271   1.988
  344SOL    HW1 1568   1.461   0.208   2.019
  344SOL    HW2 1569   1.562   0.310   2.067
  345SOL     OW 1570   1.290   0.826   1.893
  345SOL    HW1 1571   1.333   0.740   1.896
  345SOL    HW2 1572   1.322   0.865   1.811
  346SOL     OW 1573   1.067   1.336   2.716
  346SOL    HW1 1574   1.070   1.264   2.653
  346SOL    HW2 1575   1.127   1.401   2.682
  347SOL     OW 1576   0.314   0.810   2.812
  347SOL    HW1 1577   0.408   0.828   2.808
  347SOL    HW2 1578   0.308   0.719   2.842
  348SOL     OW 1579   0.336   0.527   2.877
  348SOL    HW1 1580   0.299   0.440   2.862
  348SOL    HW2 1581   0.411   0.531   2.818
  349SOL     OW 1582   1.135   0.377   3.551
  349SOL    HW1 1583   1.087   0.432   3.614
  349SOL    HW2 1584   1.222   0.417   3.547
  350SOL     OW 1585   1.133   0.223   3.328
  350SOL    HW1 1586   1.137   0.282   3.404
  350SOL    HW2 1587   1.188   0.264   3.262
  351SOL     OW 1588   0.002   1.329   2.072
  351SOL    HW1 1589   5.230   1.317   2.011
  351SOL    HW2 1590   0.012   1.243   2.114
  352SOL     OW 1591   0.094   1.781   2.814
  352SOL    HW1 1592   0.060   1.712   2.757
  352SOL    HW2 1593   0.181   1.801   2.779
  353SOL     OW 1594   0.505   1.574   2.770
  353SOL    HW1 1595   0.572   1.639   2.790
  353SOL    HW2 1596   0.548   1.513   2.710
  354SOL     OW 1597   0.981   0.791   3.088
  354SOL    HW1 1598   1.038   0.769   3.162
  354SOL    HW2 1599   0.897   0.754   3.111
  355SOL     OW 1600   0.036   0.569   2.982
  355SOL    HW1 1601   0.117   0.537   2.942
  355SOL    HW2 1602   0.037   0.533   3.071
  356SOL     OW 1603   0.166   0.517   3.579
  356SOL    HW1 1604   0.251   0.495   3.540
  356SOL    HW2 1605   0.137   0.595   3.533
  357SOL     OW 1606   1.378   0.938   3.520
  357SOL    HW1 1607   1.399   1.031   3.518
  357SOL    HW2 1608   1.375   0.912   3.428
  358SOL     OW 1609   0.814   0.572   2.225
  358SOL    HW1 1610   0.819   0.499   2.165
  358SOL    HW2 1611   0.740   0.625   2.194
  359SOL     OW 1612   1.642   0.601   3.047
  359SOL    HW1 1613   1.631   0.542   3.121
  359SOL    HW2 1614   1.729   0.581   3.013
  360SOL     OW 1615   0.256   1.556   3.596
  360SOL    HW1 1616   0.234   1.619   3.664
  360SOL    HW2 1617   0.250   1.471   3.640
  361SOL     OW 1618   0.700   0.452   3.122
  361SOL    HW1 1619   0.650   0.378   3.088
  361SOL    HW2 1620   0.699   0.516   3.051
  362SOL     OW 1621   0.927   1.679   3.330
  362SOL    HW1 1622   0.901   1.644   3.245
  362SOL    HW2 1623   0.922   1.774   3.320
  363SOL     OW 1624   0.463   0.492   2.041
  363SOL    HW1 1625   0.526   0.560   2.065
  363SOL    HW2 1626   0.380   0.539   2.032
  364SOL     OW 1627   0.147   1.137   3.333
  364SOL    HW1 1628   0.144   1.090   3.416
  364SOL    HW2 1629   0.158   1.069   3.266
  365SOL     OW 1630   1.325   1.046   3.085
  365SOL    HW1 1631   1.348   0.983   3.017
  365SOL    HW2 1632   1.255   1.099   3.045
  366SOL     OW 1633   1.312   0.857   2.168
  366SOL    HW1 1634   1.237   0.826   2.218
  366SOL    HW2 1635   1.287   0.843   2.076
  367SOL     OW 1636   1.769   1.745   3.010
  367SOL    HW1 1637   1.833   1.769   2.943
  367SOL    HW2 1638   1.747   1.654   2.991
  368SOL     OW 1639   1.241   1.733   2.973
  368SOL    HW1 1640   1.323   1.754   2.929
  368SOL    HW2 1641   1.248   1.639   2.992
  369SOL     OW 1642   0.082   1.214   2.889
  369SOL    HW1 1643   0.070   1.241   2.980
  369SOL    HW2 1644   5.293   1.204   2.855
  370SOL     OW 1645   0.678   1.667   3.593
  370SOL    HW1 1646   0.622   1.744   3.587
  370SOL    HW2 1647   0.743   1.679   3.524
  371SOL     OW 1648   1.711   0.150   2.363
  371SOL    HW1 1649   1.787   0.129   2.308
  371SOL    HW2 1650   1.705   0.076   2.424
  372SOL     OW 1651   1.391   1.568   2.348
  372SOL    HW1 1652   1.451   1.601   2.281
  372SOL    HW2 1653   1.342   1.645   2.376
  373SOL     OW 1654   0.146   1.798   3.704
  373SOL    HW1 1655   0.091   1.735   3.752
  373SOL    HW2 1656   0.193   1.845   3.773
  374SOL     OW 1657   1.277   0.926   2.533
  374SOL    HW1 1658   1.351   0.866   2.541
  374SOL    HW2 1659   1.311   0.998   2.480
  375SOL     OW 1660   0.813   1.273   3.291
  375SOL    HW1 1661   0.784   1.313   3.373
  375SOL    HW2 1662   0.744   1.295   3.229
  376SOL     OW 1663   0.672   1.620   2.017
  376SOL    HW1 1664   0.683   1.634   1.923
  376SOL    HW2 1665   0.617   1.543   2.024
  377SOL     OW 1666   1.623   1.727   3.252
  377SOL    HW1 1667   1.674   1.733   3.172
  377SOL    HW2 1668   1.610   1.818   3.280
  378SOL     OW 1669   1.846   0.155   2.819
  378SOL    HW1 1670   1.843   0.060   2.812
  378SOL    HW2 1671   1.760   0.185   2.789
  379SOL     OW 1672   0.270   0.329   2.580
  379SOL    HW1 1673   0.183   0.366   2.566
  379SOL    HW2 1674   0.274   0.314   2.674
  380SOL     OW 1675   1.207   1.605   1.894
  380SOL    HW1 1676   1.197   1.514   1.920
  380SOL    HW2 1677   1.142   1.618   1.825
  381SOL     OW 1678   0.824   1.006   3.235
  381SOL    HW1 1679   0.868   1.001   3.150
  381SOL    HW2 1680   0.823   1.099   3.256
  382SOL     OW 1681   0.915   0.910   2.152
  382SOL    HW1 1682   0.976   0.942   2.086
  382SOL    HW2 1683   0.964   0.841   2.198
  383SOL     OW 1684   1.491   1.626   1.905
  383SOL    HW1 1685   1.397   1.619   1.891
  383SOL    HW2 1686   1.528   1.632   1.817
  384SOL     OW 1687   0.367   1.304   3.355
  384SOL    HW1 1688   0.359   1.378   3.295
  384SOL    HW2 1689   0.291   1.249   3.335
  385SOL     OW 1690   1.610   1.283   3.142
  385SOL    HW1 1691   1.671   1.272   3.215
  385SOL    HW2 1692   1.550   1.352   3.171
  386SOL     OW 1693   1.054   1.108   2.569
  386SOL    HW1 1694   0.983   1.056   2.608
  386SOL    HW2 1695   1.117   1.042   2.539
  387SOL     OW 1696   1.019   0.243   2.831
  387SOL    HW1 1697   0.999   0.198   2.749
  387SOL    HW2 1698   1.012   0.176   2.898
  388SOL     OW 1699   0.602   1.487   2.343
  388SOL    HW1 1700   0.648   1.439   2.274
  388SOL    HW2 1701   0.534   1.536   2.296
  389SOL     OW 1702   1.725   0.386   3.240
  389SOL    HW1 1703   1.795   0.451   3.239
  389SOL    HW2 1704   1.757   0.317   3.182
  390SOL     OW 1705   0.261   1.348   2.155
  390SOL    HW1 1706   0.168   1.350   2.132
  390SOL    HW2 1707   0.264   1.385   2.243
  391SOL     OW 1708   0.117   1.015   3.578
  391SOL    HW1 1709   0.046   0.983   3.634
  391SOL    HW2 1710   0.197   0.985   3.621
  392SOL     OW 1711   0.675   0.217   3.353
  392SOL    HW1 1712   0.758   0.200   3.308
  392SOL    HW2 1713   0.700   0.262   3.433
  393SOL     OW 1714   0.079   0.335   1.899
  393SOL    HW1 1715   5.287   0.311   1.890
  393SOL    HW2 1716   0.093   0.404   1.834
  394SOL     OW 1717   1.429   0.858   3.262
  394SOL    HW1 1718   1.380   0.919   3.207
  394SOL    HW2 1719   1.518   0.861   3.227
  395SOL     OW 1720   0.084   0.142   2.155
  395SOL    HW1 1721   0.078   0.236   2.136
  395SOL    HW2 1722   0.171   0.117   2.124
  396SOL     OW 1723   1.179   1.338   1.979
  396SOL    HW1 1724   1.088   1.308   1.982
  396SOL    HW2 1725   1.206   1.339   2.071
  397SOL     OW 1726   0.620   0.831   3.298
  397SOL    HW1 1727   0.675   0.907   3.282
  397SOL    HW2 1728   0.681   0.758   3.305
  398SOL     OW 1729   1.484   1.777   2.842
  398SOL    HW1 1730   1.507   1.837   2.771
  398SOL    HW2 1731   1.567   1.758   2.885
  399SOL     OW 1732   0.713   0.573   3.565
  399SOL    HW1 1733   0.757   0.636   3.622
  399SOL    HW2 1734   0.743   0.488   3.595
  400SOL     OW 1735   1.472   1.199   3.493
  400SOL    HW1 1736   1.460   1.213   3.587
  400SOL    HW2 1737   1.565   1.215   3.478
  401SOL     OW 1738   0.376   1.743   3.426
  401SOL    HW1 1739   0.294   1.789   3.410
  401SOL    HW2 1740   0.350   1.663   3.471
  402SOL     OW 1741   1.668   0.881   3.117
  402SOL    HW1 1742   1.663   0.796   3.074
  402SOL    HW2 1743   1.659   0.945   3.046
  403SOL     OW 1744   1.220   0.318   2.327
  403SOL    HW1 1745   1.283   0.246   2.321
  403SOL    HW2 1746   1.250   0.370   2.401
  404SOL     OW 1747   0.589   0.737   2.532
  404SOL    HW1 1748   0.628   0.823   2.516
  404SOL    HW2 1749   0.520   0.730   2.465
  405SOL     OW 1750   1.766   0.362   3.511
  405SOL    HW1 1751   1.747   0.377   3.418
  405SOL    HW2 1752   1.694   0.306   3.541
  406SOL     OW 1753   1.745   0.934   3.374
  406SOL    HW1 1754   1.741   1.029   3.387
  406SOL    HW2 1755   1.730   0.922   3.280
  407SOL     OW 1756   0.862   1.367   1.897
  407SOL    HW1 1757   0.825   1.396   1.980
  407SOL    HW2 1758   0.881   1.447   1.850
  408SOL     OW 1759   0.664   1.793   2.804
  408SOL    HW1 1760   0.643   1.883   2.782
  408SOL    HW2 1761   0.759   1.788   2.798
  409SOL     OW 1762   0.868   0.967   2.716
  409SOL    HW1 1763   0.918   0.896   2.755
  409SOL    HW2 1764   0.833   1.016   2.790
  410SOL     OW 1765   1.077   0.987   1.950
  410SOL    HW1 1766   1.057   1.039   1.872
  410SOL    HW2 1767   1.153   0.934   1.925
  411SOL     OW 1768   1.853   1.554   2.706
  411SOL    HW1 1769   1.774   1.542   2.653
  411SOL    HW2 1770   1.844   1.489   2.776
  412SOL     OW 1771   0.226   1.304   3.723
  412SOL    HW1 1772   0.157   1.243   3.698
  412SOL    HW2 1773   0.216   1.315   3.817
  413SOL     OW 1774   0.088   1.217   2.516
  413SOL    HW1 1775   0.103   1.187   2.606
  413SOL    HW2 1776   0.175   1.218   2.477
  414SOL     OW 1777   0.681   1.403   3.491
  414SOL    HW1 1778   0.601   1.361   3.521
  414SOL    HW2 1779   0.678   1.492   3.527
  415SOL     OW 1780   1.812   0.176   3.094
  415SOL    HW1 1781   1.777   0.087   3.097
  415SOL    HW2 1782   1.833   0.190   3.001
  416SOL     OW 1783   0.433   0.436   2.384
  416SOL    HW1 1784   0.465   0.363   2.332
  416SOL    HW2 1785   0.387   0.396   2.457
  417SOL     OW 1786   1.700   1.489   2.956
  417SOL    HW1 1787   1.619   1.466   2.911
  417SOL    HW2 1788   1.711   1.420   3.022
  418SOL     OW 1789   0.338   0.562   3.151
  418SOL    HW1 1790   0.394   0.504   3.202
  418SOL    HW2 1791   0.351   0.534   3.060
  419SOL     OW 1792   0.829   1.577   2.539
  419SOL    HW1 1793   0.814   1.635   2.464
  419SOL    HW2 1794   0.753   1.520   2.541
  420SOL     OW 1795   1.427   0.219   2.978
  420SOL    HW1 1796   1.464   0.144   3.026
  420SOL    HW2 1797   1.379   0.268   3.044
  421SOL     OW 1798   1.002   0.020   3.002
  421SOL    HW1 1799   0.951   5.252   2.957
  421SOL    HW2 1800   1.088   5.281   3.016
  422SOL     OW 1801   0.772   1.333   2.178
  422SOL    HW1 1802   0.743   1.242   2.185
  422SOL    HW2 1803   0.854   1.335   2.228
  423SOL     OW 1804   0.623   1.555   3.150
  423SOL    HW1 1805   0.624   1.638   3.199
  423SOL    HW2 1806   0.710   1.550   3.110
  424SOL     OW 1807   1.354   0.037   2.025
  424SOL    HW1 1808   1.390   5.296   1.946
  424SOL    HW2 1809   1.276   5.285   2.045
  425SOL     OW 1810   1.301   0.464   2.546
  425SOL    HW1 1811   1.246   0.543   2.551
  425SOL    HW2 1812   1.294   0.424   2.633
  426SOL     OW 1813   1.594   0.215   2.745
  426SOL    HW1 1814   1.529   0.227   2.813
  426SOL    HW2 1815   1.587   0.294   2.691
  427SOL     OW 1816   0.048   1.068   2.152
  427SOL    HW1 1817   0.137   1.035   2.141
  427SOL    HW2 1818   5.300   0.994   2.188
  428SOL     OW 1819   0.886   1.653   2.203
  428SOL    HW1 1820   0.813   1.638   2.143
  428SOL    HW2 1821   0.859   1.728   2.256
  429SOL     OW 1822   0.232   0.632   3.842
  429SOL    HW1 1823   0.158   0.604   3.895
  429SOL    HW2 1824   0.212   0.602   3.753
  430SOL     OW 1825   0.233   0.281   4.714
  430SOL    HW1 1826   0.252   0.243   4.799
  430SOL    HW2 1827   0.153   0.238   4.685
  431SOL     OW 1828   5.299   0.407   4.390
  431SOL    HW1 1829   5.206   0.429   4.393
  431SOL    HW2 1830   0.001   0.317   4.357
  432SOL     OW 1831   0.575   1.286   4.908
  432SOL    HW1 1832   0.492   1.294   4.860
  432SOL    HW2 1833   0.591   1.374   4.943
  433SOL     OW 1834   1.561   1.510   4.431
  433SOL    HW1 1835   1.518   1.491   4.515
  433SOL    HW2 1836   1.489   1.516   4.368
  434SOL     OW 1837   1.132   0.698   4.424
  434SOL    HW1 1838   1.180   0.779   4.410
  434SOL    HW2 1839   1.084   0.712   4.506
  435SOL     OW 1840   1.768   0.605   3.952
  435SOL    HW1 1841   1.747   0.598   3.859
  435SOL    HW2 1842   1.732   0.525   3.991
  436SOL     OW 1843   0.753   1.140   4.764
  436SOL    HW1 1844   0.687   1.175   4.824
  436SOL    HW2 1845   0.790   1.217   4.721
  437SOL     OW 1846   0.867   0.776   5.546
  437SOL    HW1 1847   0.859   0.847   5.609
  437SOL    HW2 1848   0.891   0.818   5.464
  438SOL     OW 1849   0.685   1.001   4.370
  438SOL    HW1 1850   0.752   0.990   4.439
  438SOL    HW2 1851   0.618   1.055   4.412
  439SOL     OW 1852   0.710   1.150   5.538
  439SOL    HW1 1853   0.759   1.228   5.566
  439SOL    HW2 1854   0.629   1.184   5.501
  440SOL     OW 1855   0.359   1.404   4.784
  440SOL    HW1 1856   0.270   1.406   4.748
  440SOL    HW2 1857   0.407   1.466   4.729
  441SOL     OW 1858   1.461   1.500   5.079
  441SOL    HW1 1859   1.513   1.580   5.088
  441SOL    HW2 1860   1.397   1.505   5.151
  442SOL     OW 1861   0.451   0.399   5.211
  442SOL    HW1 1862   0.530   0.346   5.207
  442SOL    HW2 1863   0.380   0.336   5.220
  443SOL     OW 1864   1.610   0.451   4.462
  443SOL    HW1 1865   1.534   0.474   4.408
  443SOL    HW2 1866   1.626   0.530   4.514
  444SOL     OW 1867   0.233   1.713   4.201
  444SOL    HW1 1868   0.264   1.783   4.259
  444SOL    HW2 1869   0.296   1.711   4.129
  445SOL     OW 1870   1.137   1.342   5.417
  445SOL    HW1 1871   1.178   1.336   5.503
  445SOL    HW2 1872   1.085   1.262   5.410
  446SOL     OW 1873   0.221   1.445   4.264
  446SOL    HW1 1874   0.218   1.540   4.257
  446SOL    HW2 1875   0.150   1.423   4.324
  447SOL     OW 1876   0.250   1.077   4.598
  447SOL    HW1 1877   0.262   0.991   4.639
  447SOL    HW2 1878   0.198   1.127   4.661
  448SOL     OW 1879   0.612   1.790   5.156
  448SOL    HW1 1880   0.528   1.774   5.199
  448SOL    HW2 1881   0.633   1.881   5.179
  449SOL     OW 1882   0.581   0.984   3.860
  449SOL    HW1 1883   0.628   1.031   3.791
  449SOL    HW2 1884   0.622   1.014   3.941
  450SOL     OW 1885   1.586   0.136   5.179
  450SOL    HW1 1886   1.611   0.220   5.141
  450SOL    HW2 1887   1.582   0.153   5.273
  451SOL     OW 1888   0.124   0.636   4.301
  451SOL    HW1 1889   0.090   0.553   4.336
  451SOL    HW2 1890   0.098   0.701   4.366
  452SOL     OW 1891   1.842   1.753   4.058
  452SOL    HW1 1892   1.902   1.727   4.128
  452SOL    HW2 1893   1.860   1.846   4.045
  453SOL     OW 1894   0.038   1.599   3.857
  453SOL    HW1 1895   0.025   1.508   3.882
  453SOL    HW2 1896   5.282   1.649   3.916
  454SOL     OW 1897   1.689   0.918   4.366
  454SOL    HW1 1898   1.772   0.875   4.344
  454SOL    HW2 1899   1.667   0.969   4.288
  455SOL     OW 1900   1.647   1.106   4.153
  455SOL    HW1 1901   1.732   1.111   4.111
  455SOL    HW2 1902   1.652   1.168   4.226
  456SOL     OW 1903   0.131   0.750   5.309
  456SOL    HW1 1904   0.226   0.764   5.308
  456SOL    HW2 1905   0.094   0.836   5.326
  457SOL     OW 1906   0.616   1.386   4.458
  457SOL    HW1 1907   0.568   1.304   4.469
  457SOL    HW2 1908   0.598   1.413   4.368
  458SOL     OW 1909   1.288   1.237   5.147
  458SOL    HW1 1910   1.320   1.170   5.087
  458SOL    HW2 1911   1.346   1.232   5.223
  459SOL     OW 1912   0.816   0.029   4.253
  459SOL    HW1 1913   0.843   0.117   4.227
  459SOL    HW2 1914   0.720   0.031   4.245
  460SOL     OW 1915   0.174   0.943   5.003
  460SOL    HW1 1916   0.265   0.914   4.995
  460SOL    HW2 1917   0.135   0.924   4.918
  461SOL     OW 1918   1.531   0.994   3.923
  461SOL    HW1 1919   1.461   0.937   3.956
  461SOL    HW2 1920   1.573   1.029   4.002
  462SOL     OW 1921   1.184   1.807   5.347
  462SOL    HW1 1922   1.194   1.867   5.273
  462SOL    HW2 1923   1.202   1.721   5.310
  463SOL     OW 1924   0.329   0.279   5.521
  463SOL    HW1 1925   0.388   0.337   5.568
  463SOL    HW2 1926   0.248   0.280   5.572
  464SOL     OW 1927   1.467   1.419   4.676
  464SOL    HW1 1928   1.399   1.435   4.741
  464SOL    HW2 1929   1.454   1.328   4.649
  465SOL     OW 1930   1.664   1.733   4.303
  465SOL    HW1 1931   1.640   1.707   4.214
  465SOL    HW2 1932   1.635   1.660   4.358
  466SOL     OW 1933   0.594   0.720   3.990
  466SOL    HW1 1934   0.602   0.801   3.941
  466SOL    HW2 1935   0.530   0.739   4.058
  467SOL     OW 1936   1.278   0.348   4.655
  467SOL    HW1 1937   1.187   0.320   4.667
  467SOL    HW2 1938   1.328   0.298   4.719
  468SOL     OW 1939   1.580   1.668   4.034
  468SOL    HW1 1940   1.670   1.700   4.027
  468SOL    HW2 1941   1.552   1.654   3.943
  469SOL     OW 1942   0.794   0.618   5.174
  469SOL    HW1 1943   0.766   0.596   5.263
  469SOL    HW2 1944   0.752   0.552   5.119
  470SOL     OW 1945   1.394   0.475   5.402
  470SOL    HW1 1946   1.397   0.520   5.487
  470SOL    HW2 1947   1.458   0.404   5.411
  471SOL     OW 1948   0.953   0.887   5.307
  471SOL    HW1 1949   1.008   0.817   5.271
  471SOL    HW2 1950   0.906   0.922   5.231
  472SOL     OW 1951   0.993   0.417   4.959
  472SOL    HW1 1952   0.907   0.438   4.995
  472SOL    HW2 1953   0.974   0.369   4.878
  473SOL     OW 1954   1.051   0.698   4.150
  473SOL    HW1 1955   1.067   0.691   4.244
  473SOL    HW2 1956   0.968   0.652   4.137
  474SOL     OW 1957   0.070   0.789   4.535
  474SOL    HW1 1958   0.151   0.793   4.586
  474SOL    HW2 1959   0.066   0.873   4.490
  475SOL     OW 1960   0.129   1.885   5.309
  475SOL    HW1 1961   0.133   1.857   5.401
  475SOL    HW2 1962   0.060   1.831   5.270
  476SOL     OW 1963   0.875   0.366   3.912
  476SOL    HW1 1964   0.915   0.425   3.848
  476SOL    HW2 1965   0.931   0.289   3.912
  477SOL     OW 1966   1.706   0.573   5.552
  477SOL    HW1 1967   1.670   0.647   5.503
  477SOL    HW2 1968   1.738   0.513   5.484
  478SOL     OW 1969   1.377   1.142   4.265
  478SOL    HW1 1970   1.456   1.130   4.212
  478SOL    HW2 1971   1.325   1.204   4.215
  479SOL     OW 1972   0.536   0.203   4.606
  479SOL    HW1 1973   0.552   0.220   4.699
  479SOL    HW2 1974   0.549   0.287   4.563
  480SOL     OW 1975   1.004   1.443   4.195
  480SOL    HW1 1976   0.968   1.517   4.146
  480SOL    HW2 1977   0.986   1.465   4.287
  481SOL     OW 1978   0.357   1.804   4.594
  481SOL    HW1 1979   0.398   1.718   4.607
  481SOL    HW2 1980   0.423   1.866   4.625
  482SOL     OW 1981   1.800   1.056   4.592
  482SOL    HW1 1982   1.745   1.038   4.515
  482SOL    HW2 1983   1.738   1.062   4.665
  483SOL     OW 1984   1.228   1.539   5.237
  483SOL    HW1 1985   1.214   1.466   5.297
  483SOL    HW2 1986   1.164   1.525   5.168
  484SOL     OW 1987   0.316   0.952   3.972
  484SOL    HW1 1988   0.397   0.977   3.929
  484SOL    HW2 1989   0.294   0.866   3.937
  485SOL     OW 1990   1.479   0.744   4.450
  485SOL    HW1 1991   1.472   0.702   4.536
  485SOL    HW2 1992   1.557   0.800   4.457
  486SOL     OW 1993   0.465   1.264   5.462
  486SOL    HW1 1994   0.439   1.270   5.370
  486SOL    HW2 1995   0.383   1.265   5.511
  487SOL     OW 1996   1.121   1.778   3.954
  487SOL    HW1 1997   1.048   1.735   3.999
  487SOL    HW2 1998   1.145   1.716   3.885
  488SOL     OW 1999   0.198   0.281   5.218
  488SOL    HW1 2000   0.160   0.368   5.212
  488SOL    HW2 2001   0.208   0.266   5.313
  489SOL     OW 2002   1.629   1.380   3.813
  489SOL    HW1 2003   1.588   1.465   3.798
  489SOL    HW2 2004   1.560   1.316   3.792
  490SOL     OW 2005   0.471   1.734   4.044
  490SOL    HW1 2006   0.514   1.792   4.106
  490SOL    HW2 2007   0.542   1.703   3.987
  491SOL     OW 2008   1.407   0.101   4.155
  491SOL    HW1 2009   1.400   0.081   4.062
  491SOL    HW2 2010   1.500   0.121   4.168
  492SOL     OW 2011   0.277   1.801   4.935
  492SOL    HW1 2012   0.307   1.722   4.981
  492SOL    HW2 2013   0.225   1.767   4.862
  493SOL     OW 2014   0.939   1.698   4.623
  493SOL    HW1 2015   1.018   1.648   4.643
  493SOL    HW2 2016   0.895   1.649   4.554
  494SOL     OW 2017   0.385   0.696   4.202
  494SOL    HW1 2018   0.414   0.605   4.211
  494SOL    HW2 2019   0.292   0.693   4.224
  495SOL     OW 2020   1.538   0.227   5.447
  495SOL    HW1 2021   1.546   0.245   5.541
  495SOL    HW2 2022   1.462   0.170   5.439
  496SOL     OW 2023   0.621   0.132   3.831
  496SOL    HW1 2024   0.686   0.067   3.857
  496SOL    HW2 2025   0.574   0.092   3.758
  497SOL     OW 2026   0.780   0.312   5.491
  497SOL    HW1 2027   0.840   0.238   5.490
  497SOL    HW2 2028   0.735   0.307   5.575
  498SOL     OW 2029   0.877   1.521   4.918
  498SOL    HW1 2030   0.861   1.485   4.830
  498SOL    HW2 2031   0.947   1.467   4.953
  499SOL     OW 2032   1.340   0.589   5.156
  499SOL    HW1 2033   1.371   0.558   5.241
  499SOL    HW2 2034   1.376   0.677   5.148
  500SOL     OW 2035   0.816   1.392   4.665
  500SOL    HW1 2036   0.901   1.382   4.621
  500SOL    HW2 2037   0.753   1.396   4.593
  501SOL     OW 2038   0.928   0.510   4.627
  501SOL    HW1 2039   0.903   0.503   4.535
  501SOL    HW2 2040   0.958   0.423   4.652
  502SOL     OW 2041   0.548   0.058   4.228
  502SOL    HW1 2042   0.469   0.059   4.283
  502SOL    HW2 2043   0.534   0.129   4.165
  503SOL     OW 2044   1.428   1.199   3.764
  503SOL    HW1 2045   1.458   1.123   3.815
  503SOL    HW2 2046   1.343   1.221   3.802
  504SOL     OW 2047   0.316   0.066   3.909
  504SOL    HW1 2048   0.384   0.132   3.892
  504SOL    HW2 2049   0.365   5.284   3.915
  505SOL     OW 2050   0.940   0.265   4.187
  505SOL    HW1 2051   0.913   0.300   4.102
  505SOL    HW2 2052   1.035   0.276   4.187
  506SOL     OW 2053   1.081   0.682   5.183
  506SOL    HW1 2054   1.013   0.615   5.188
  506SOL    HW2 2055   1.163   0.633   5.176
  507SOL     OW 2056   1.223   1.570   4.518
  507SOL    HW1 2057   1.238   1.637   4.451
  507SOL    HW2 2058   1.291   1.587   4.583
  508SOL     OW 2059   0.468   1.151   4.454
  508SOL    HW1 2060   0.399   1.130   4.517
  508SOL    HW2 2061   0.428   1.133   4.369
  509SOL     OW 2062   1.268   1.794   4.333
  509SOL    HW1 2063   1.316   1.854   4.276
  509SOL    HW2 2064   1.202   1.848   4.376
  510SOL     OW 2065   1.025   0.545   3.747
  510SOL    HW1 2066   0.983   0.629   3.729
  510SOL    HW2 2067   1.089   0.565   3.816
  511SOL     OW 2068   0.100   0.530   5.137
  511SOL    HW1 2069   0.180   0.549   5.088
  511SOL    HW2 2070   0.079   0.611   5.182
  512SOL     OW 2071   0.560   0.239   4.882
  512SOL    HW1 2072   0.592   0.153   4.909
  512SOL    HW2 2073   0.467   0.239   4.907
  513SOL     OW 2074   0.867   0.464   4.365
  513SOL    HW1 2075   0.820   0.517   4.301
  513SOL    HW2 2076   0.890   0.384   4.318
  514SOL     OW 2077   0.979   0.060   4.487
  514SOL    HW1 2078   0.914   0.057   4.417
  514SOL    HW2 2079   0.987   5.270   4.517
  515SOL     OW 2080   1.438   1.162   4.581
  515SOL    HW1 2081   1.368   1.097   4.580
  515SOL    HW2 2082   1.463   1.173   4.490
  516SOL     OW 2083   1.466   0.607   4.700
  516SOL    HW1 2084   1.415   0.526   4.703
  516SOL    HW2 2085   1.526   0.601   4.774
  517SOL     OW 2086   1.845   0.815   4.107
  517SOL    HW1 2087   1.901   0.764   4.165
  517SOL    HW2 2088   1.817   0.753   4.040
  518SOL     OW 2089   0.491   1.419   3.881
  518SOL    HW1 2090   0.416   1.391   3.933
  518SOL    HW2 2091   0.477   1.379   3.795
  519SOL     OW 2092   1.671   1.264   4.369
  519SOL    HW1 2093   1.766   1.268   4.383
  519SOL    HW2 2094   1.640   1.352   4.390
  520SOL     OW 2095   1.394   0.572   3.795
  520SOL    HW1 2096   1.333   0.552   3.866
  520SOL    HW2 2097   1.479   0.542   3.828
  521SOL     OW 2098   0.521   0.265   4.044
  521SOL    HW1 2099   0.570   0.218   3.976
  521SOL    HW2 2100   0.501   0.350   4.004
  522SOL     OW 2101   1.752   1.240   5.296
  522SOL    HW1 2102   1.839   1.201   5.291
  522SOL    HW2 2103   1.767   1.330   5.324
  523SOL     OW 2104   1.058   1.352   5.056
  523SOL    HW1 2105   0.983   1.322   5.108
  523SOL    HW2 2106   1.134   1.312   5.098
  524SOL     OW 2107   1.608   1.625   5.379
  524SOL    HW1 2108   1.601   1.660   5.290
  524SOL    HW2 2109   1.691   1.578   5.380
  525SOL     OW 2110   1.129   1.203   4.828
  525SOL    HW1 2111   1.071   1.243   4.893
  525SOL    HW2 2112   1.098   1.237   4.745
  526SOL     OW 2113   1.627   1.098   4.801
  526SOL    HW1 2114   1.622   1.160   4.873
  526SOL    HW2 2115   1.549   1.115   4.748
  527SOL     OW 2116   0.905   0.107   5.112
  527SOL    HW1 2117   0.936   0.074   5.028
  527SOL    HW2 2118   0.982   0.150   5.150
  528SOL     OW 2119   0.984   1.115   5.447
  528SOL    HW1 2120   0.892   1.131   5.468
  528SOL    HW2 2121   0.983   1.037   5.391
  529SOL     OW 2122   0.707   1.060   4.096
  529SOL    HW1 2123   0.696   1.044   4.190
  529SOL    HW2 2124   0.784   1.007   4.072
  530SOL     OW 2125   0.420   0.821   4.977
  530SOL    HW1 2126   0.490   0.827   5.043
  530SOL    HW2 2127   0.386   0.732   4.986
  531SOL     OW 2128   1.266   0.378   4.997
  531SOL    HW1 2129   1.299   0.455   5.044
  531SOL    HW2 2130   1.176   0.401   4.975
  532SOL     OW 2131   0.102   1.623   5.091
  532SOL    HW1 2132   0.081   1.631   4.998
  532SOL    HW2 2133   0.189   1.582   5.092
  533SOL     OW 2134   0.342   1.108   4.211
  533SOL    HW1 2135   0.351   1.187   4.158
  533SOL    HW2 2136   0.349   1.036   4.148
  534SOL     OW 2137   0.555   0.536   4.583
  534SOL    HW1 2138   0.569   0.595   4.509
  534SOL    HW2 2139   0.620   0.562   4.648
  535SOL     OW 2140   1.248   1.349   4.113
  535SOL    HW1 2141   1.304   1.420   4.144
  535SOL    HW2 2142   1.161   1.370   4.147
  536SOL     OW 2143   1.283   1.458   4.872
  536SOL    HW1 2144   1.339   1.462   4.949
  536SOL    HW2 2145   1.227   1.381   4.886
  537SOL     OW 2146   1.581   0.622   4.204
  537SOL    HW1 2147   1.534   0.675   4.268
  537SOL    HW2 2148   1.626   0.686   4.148
  538SOL     OW 2149   0.352   1.520   5.034
  538SOL    HW1 2150   0.341   1.476   4.949
  538SOL    HW2 2151   0.446   1.537   5.040
  539SOL     OW 2152   0.416   0.740   5.327
  539SOL    HW1 2153   0.474   0.789   5.268
  539SOL    HW2 2154   0.461   0.658   5.343
  540SOL     OW 2155   1.602   0.779   5.406
  540SOL    HW1 2156   1.516   0.821   5.400
  540SOL    HW2 2157   1.655   0.821   5.338
  541SOL     OW 2158   1.047   0.118   5.508
  541SOL    HW1 2159   1.075   0.197   5.461
  541SOL    HW2 2160   1.053   0.049   5.442
  542SOL     OW 2161   0.483   0.059   5.461
  542SOL    HW1 2162   0.424   5.292   5.426
  542SOL    HW2 2163   0.426   0.134   5.478
  543SOL     OW 2164   0.586   0.874   4.756
  543SOL    HW1 2165   0.619   0.964   4.756
  543SOL    HW2 2166   0.529   0.870   4.834
  544SOL     OW 2167   1.356   0.859   4.752
  544SOL    HW1 2168   1.273   0.848   4.707
  544SOL    HW2 2169   1.398   0.773   4.746
  545SOL     OW 2170   1.204   0.528   3.990
  545SOL    HW1 2171   1.210   0.448   4.042
  545SOL    HW2 2172   1.162   0.591   4.048
  546SOL     OW 2173   0.304   0.205   4.970
  546SOL    HW1 2174   0.263   0.237   5.050
  546SOL    HW2 2175   0.293   0.110   4.974
  547SOL     OW 2176   0.066   1.317   5.004
  547SOL    HW1 2177   0.091   1.259   5.075
  547SOL    HW2 2178   5.295   1.371   5.040
  548SOL     OW 2179   0.725   0.632   4.783
  548SOL    HW1 2180   0.800   0.615   4.725
  548SOL    HW2 2181   0.697   0.721   4.761
  549SOL     OW 2182   1.735   0.959   5.578
  549SOL    HW1 2183   1.690   0.897   5.521
  549SOL    HW2 2184   1.676   0.974   5.651
  550SOL     OW 2185   0.319   0.067   4.380
  550SOL    HW1 2186   0.299   0.161   4.387
  550SOL    HW2 2187   0.326   0.038   4.471
  551SOL     OW 2188   1.613   0.376   4.087
  551SOL    HW1 2189   1.646   0.312   4.150
  551SOL    HW2 2190   1.593   0.453   4.140
  552SOL     OW 2191   1.028   0.759   4.684
  552SOL    HW1 2192   1.024   0.777   4.778
  552SOL    HW2 2193   1.001   0.668   4.675
  553SOL     OW 2194   0.981   1.565   5.442
  553SOL    HW1 2195   0.967   1.610   5.359
  553SOL    HW2 2196   1.026   1.484   5.418
  554SOL     OW 2197   1.854   1.505   5.329
  554SOL    HW1 2198   1.873   1.531   5.239
  554SOL    HW2 2199   1.935   1.522   5.376
  555SOL     OW 2200   0.354   0.917   5.531
  555SOL    HW1 2201   0.435   0.938   5.578
  555SOL    HW2 2202   0.381   0.852   5.465
  556SOL     OW 2203   1.526   0.271   3.850
  556SOL    HW1 2204   1.460   0.208   3.882
  556SOL    HW2 2205   1.562   0.310   3.929
  557SOL     OW 2206   1.290   0.826   3.754
  557SOL    HW1 2207   1.333   0.741   3.758
  557SOL    HW2 2208   1.322   0.865   3.673
  558SOL     OW 2209   1.067   1.336   4.579
  558SOL    HW1 2210   1.070   1.264   4.516
  558SOL    HW2 2211   1.128   1.401   4.544
  559SOL     OW 2212   0.314   0.810   4.674
  559SOL    HW1 2213   0.408   0.828   4.670
  559SOL    HW2 2214   0.308   0.719   4.704
  560SOL     OW 2215   0.336   0.527   4.739
  560SOL    HW1 2216   0.299   0.440   4.724
  560SOL    HW2 2217   0.411   0.532   4.680
  561SOL     OW 2218   1.135   0.377   5.413
  561SOL    HW1 2219   1.087   0.432   5.476
  561SOL    HW2 2220   1.222   0.417   5.409
  562SOL     OW 2221   1.133   0.223   5.190
  562SOL    HW1 2222   1.137   0.282   5.266
  562SOL    HW2 2223   1.188   0.264   5.124
  563SOL     OW 2224   0.002   1.329   3.934
  563SOL    HW1 2225   5.229   1.317   3.873
  563SOL    HW2 2226   0.012   1.243   3.976
  564SOL     OW 2227   0.094   1.781   4.676
  564SOL    HW1 2228   0.060   1.712   4.619
  564SOL    HW2 2229   0.181   1.801   4.641
  565SOL     OW 2230   0.505   1.574   4.632
  565SOL    HW1 2231   0.572   1.639   4.652
  565SOL    HW2 2232   0.548   1.513   4.572
  566SOL     OW 2233   0.981   0.791   4.950
  566SOL    HW1 2234   1.038   0.769   5.024
  566SOL    HW2 2235   0.897   0.754   4.973
  567SOL     OW 2236   0.036   0.569   4.844
  567SOL    HW1 2237   0.117   0.537   4.804
  567SOL    HW2 2238   0.037   0.533   4.933
  568SOL     OW 2239   0.166   0.517   5.441
  568SOL    HW1 2240   0.251   0.495   5.402
  568SOL    HW2 2241   0.137   0.595   5.395
  569SOL     OW 2242   1.378   0.938   5.382
  569SOL    HW1 2243   1.399   1.031   5.380
  569SOL    HW2 2244   1.375   0.912   5.290
  570SOL     OW 2245   0.814   0.572   4.087
  570SOL    HW1 2246   0.819   0.498   4.027
  570SOL    HW2 2247   0.740   0.625   4.056
  571SOL     OW 2248   1.642   0.601   4.908
  571SOL    HW1 2249   1.631   0.542   4.983
  571SOL    HW2 2250   1.729   0.581   4.875
  572SOL     OW 2251   0.256   1.556   5.458
  572SOL    HW1 2252   0.234   1.619   5.527
  572SOL    HW2 2253   0.250   1.470   5.502
  573SOL     OW 2254   0.700   0.452   4.984
  573SOL    HW1 2255   0.650   0.378   4.950
  573SOL    HW2 2256   0.699   0.516   4.913
  574SOL     OW 2257   0.927   1.679   5.192
  574SOL    HW1 2258   0.901   1.643   5.107
  574SOL    HW2 2259   0.922   1.774   5.181
  575SOL     OW 2260   0.463   0.492   3.902
  575SOL    HW1 2261   0.526   0.560   3.927
  575SOL    HW2 2262   0.380   0.539   3.894
  576SOL     OW 2263   0.147   1.137   5.195
  576SOL    HW1 2264   0.144   1.090   5.278
  576SOL    HW2 2265   0.158   1.069   5.128
  577SOL     OW 2266   1.324   1.046   4.947
  577SOL    HW1 2267   1.348   0.983   4.879
  577SOL    HW2 2268   1.255   1.099   4.907
  578SOL     OW 2269   1.312   0.856   4.030
  578SOL    HW1 2270   1.237   0.826   4.080
  578SOL    HW2 2271   1.287   0.843   3.938
  579SOL     OW 2272   1.770   1.743   4.875
  579SOL    HW1 2273   1.830   1.772   4.806
  579SOL    HW2 2274   1.749   1.652   4.852
  580SOL     OW 2275   1.241   1.733   4.835
  580SOL    HW1 2276   1.323   1.755   4.791
  580SOL    HW2 2277   1.248   1.639   4.853
  581SOL     OW 2278   0.082   1.214   4.751
  581SOL    HW1 2279   0.070   1.241   4.842
  581SOL    HW2 2280   5.293   1.204   4.717
  582SOL     OW 2281   0.678   1.667   5.455
  582SOL    HW1 2282   0.621   1.744   5.448
  582SOL    HW2 2283   0.743   1.679   5.386
  583SOL     OW 2284   1.711   0.150   4.225
  583SOL    HW1 2285   1.787   0.129   4.170
  583SOL    HW2 2286   1.705   0.076   4.286
  584SOL     OW 2287   1.390   1.568   4.210
  584SOL    HW1 2288   1.450   1.600   4.143
  584SOL    HW2 2289   1.342   1.645   4.238
  585SOL     OW 2290   0.146   1.798   5.566
  585SOL    HW1 2291   0.091   1.735   5.614
  585SOL    HW2 2292   0.193   1.845   5.635
  586SOL     OW 2293   1.277   0.926   4.395
  586SOL    HW1 2294   1.351   0.866   4.403
  586SOL    HW2 2295   1.311   0.998   4.342
  587SOL     OW 2296   0.813   1.273   5.153
  587SOL    HW1 2297   0.784   1.313   5.236
  587SOL    HW2 2298   0.744   1.295   5.091
  588SOL     OW 2299   0.672   1.620   3.879
  588SOL    HW1 2300   0.683   1.634   3.785
  588SOL    HW2 2301   0.617   1.542   3.886
  589SOL     OW 2302   1.624   1.726   5.115
  589SOL    HW1 2303   1.675   1.733   5.034
  589SOL    HW2 2304   1.610   1.817   5.142
  590SOL     OW 2305   1.846   0.155   4.680
  590SOL    HW1 2306   1.842   0.060   4.674
  590SOL    HW2 2307   1.760   0.185   4.651
  591SOL     OW 2308   0.270   0.329   4.442
  591SOL    HW1 2309   0.183   0.366   4.428
  591SOL    HW2 2310   0.274   0.314   4.536
  592SOL     OW 2311   1.207   1.605   3.756
  592SOL    HW1 2312   1.198   1.514   3.782
  592SOL    HW2 2313   1.142   1.618   3.687
  593SOL     OW 2314   0.824   1.006   5.097
  593SOL    HW1 2315   0.868   1.001   5.012
  593SOL    HW2 2316   0.823   1.099   5.118
  594SOL     OW 2317   0.915   0.910   4.014
  594SOL    HW1 2318   0.976   0.942   3.948
  594SOL    HW2 2319   0.964   0.841   4.060
  595SOL     OW 2320   1.491   1.624   3.767
  595SOL    HW1 2321   1.397   1.619   3.753
  595SOL    HW2 2322   1.528   1.631   3.679
  596SOL     OW 2323   0.367   1.304   5.217
  596SOL    HW1 2324   0.359   1.378   5.157
  596SOL    HW2 2325   0.291   1.249   5.197
  597SOL     OW 2326   1.610   1.283   5.004
  597SOL    HW1 2327   1.671   1.272   5.077
  597SOL    HW2 2328   1.550   1.352   5.033
  598SOL     OW 2329   1.054   1.108   4.431
  598SOL    HW1 2330   0.983   1.056   4.470
  598SOL    HW2 2331   1.117   1.042   4.401
  599SOL     OW 2332   1.019   0.243   4.693
  599SOL    HW1 2333   0.999   0.198   4.611
  599SOL    HW2 2334   1.012   0.176   4.760
  600SOL     OW 2335   0.601   1.486   4.205
  600SOL    HW1 2336   0.648   1.439   4.136
  600SOL    HW2 2337   0.535   1.537   4.158
  601SOL     OW 2338   1.725   0.386   5.102
  601SOL    HW1 2339   1.795   0.451   5.101
  601SOL    HW2 2340   1.757   0.317   5.044
  602SOL     OW 2341   0.261   1.348   4.017
  602SOL    HW1 2342   0.168   1.350   3.994
  602SOL    HW2 2343   0.265   1.385   4.105
  603SOL     OW 2344   0.117   1.015   5.440
  603SOL    HW1 2345   0.046   0.983   5.496
  603SOL    HW2 2346   0.197   0.985   5.484
  604SOL     OW 2347   0.675   0.217   5.215
  604SOL    HW1 2348   0.758   0.200   5.170
  604SOL    HW2 2349   0.700   0.262   5.295
  605SOL     OW 2350   0.079   0.334   3.760
  605SOL    HW1 2351   5.286   0.312   3.752
  605SOL    HW2 2352   0.092   0.404   3.696
  606SOL     OW 2353   1.429   0.858   5.124
  606SOL    HW1 2354   1.380   0.919   5.068
  606SOL    HW2 2355   1.518   0.861   5.089
  607SOL     OW 2356   0.084   0.142   4.016
  607SOL    HW1 2357   0.078   0.236   3.999
  607SOL    HW2 2358   0.171   0.117   3.986
  608SOL     OW 2359   1.179   1.338   3.841
  608SOL    HW1 2360   1.088   1.309   3.844
  608SOL    HW2 2361   1.207   1.339   3.933
  609SOL     OW 2362   0.620   0.831   5.160
  609SOL    HW1 2363   0.675   0.907   5.144
  609SOL    HW2 2364   0.681   0.758   5.167
  610SOL     OW 2365   1.484   1.778   4.702
  610SOL    HW1 2366   1.506   1.841   4.634
  610SOL    HW2 2367   1.568   1.761   4.747
  611SOL     OW 2368   0.713   0.573   5.427
  611SOL    HW1 2369   0.757   0.636   5.484
  611SOL    HW2 2370   0.743   0.488   5.457
  612SOL     OW 2371   1.472   1.199   5.355
  612SOL    HW1 2372   1.460   1.213   5.449
  612SOL    HW2 2373   1.566   1.215   5.340
  613SOL     OW 2374   0.376   1.743   5.289
  613SOL    HW1 2375   0.294   1.789   5.272
  613SOL    HW2 2376   0.350   1.663   5.333
  614SOL     OW 2377   1.668   0.881   4.979
  614SOL    HW1 2378   1.663   0.796   4.936
  614SOL    HW2 2379   1.659   0.945   4.908
  615SOL     OW 2380   1.220   0.318   4.189
  615SOL    HW1 2381   1.283   0.246   4.183
  615SOL    HW2 2382   1.250   0.370   4.263
  616SOL     OW 2383   0.589   0.737   4.394
  616SOL    HW1 2384   0.628   0.823   4.378
  616SOL    HW2 2385   0.521   0.730   4.327
  617SOL     OW 2386   1.766   0.362   5.373
  617SOL    HW1 2387   1.747   0.377   5.280
  617SOL    HW2 2388   1.694   0.306   5.403
  618SOL     OW 2389   1.745   0.934   5.236
  618SOL    HW1 2390   1.742   1.028   5.249
  618SOL    HW2 2391   1.730   0.922   5.142
  619SOL     OW 2392   0.862   1.366   3.759
  619SOL    HW1 2393   0.825   1.396   3.842
  619SOL    HW2 2394   0.881   1.447   3.711
  620SOL     OW 2395   0.664   1.793   4.666
  620SOL    HW1 2396   0.643   1.883   4.644
  620SOL    HW2 2397   0.759   1.788   4.660
  621SOL     OW 2398   0.868   0.967   4.578
  621SOL    HW1 2399   0.918   0.896   4.617
  621SOL    HW2 2400   0.833   1.016   4.652
  622SOL     OW 2401   1.077   0.986   3.812
  622SOL    HW1 2402   1.057   1.039   3.735
  622SOL    HW2 2403   1.153   0.934   3.787
  623SOL     OW 2404   1.853   1.551   4.567
  623SOL    HW1 2405   1.774   1.544   4.514
  623SOL    HW2 2406   1.839   1.490   4.640
  624SOL     OW 2407   0.226   1.304   5.585
  624SOL    HW1 2408   0.157   1.243   5.559
  624SOL    HW2 2409   0.215   1.315   5.679
  625SOL     OW 2410   0.088   1.216   4.378
  625SOL    HW1 2411   0.103   1.186   4.467
  625SOL    HW2 2412   0.175   1.219   4.338
  626SOL     OW 2413   0.682   1.403   5.353
  626SOL    HW1 2414   0.601   1.361   5.383
  626SOL    HW2 2415   0.678   1.492   5.389
  627SOL     OW 2416   1.812   0.176   4.956
  627SOL    HW1 2417   1.777   0.087   4.959
  627SOL    HW2 2418   1.833   0.190   4.863
  628SOL     OW 2419   0.433   0.436   4.246
  628SOL    HW1 2420   0.465   0.362   4.194
  628SOL    HW2 2421   0.387   0.396   4.319
  629SOL     OW 2422   1.702   1.487   4.816
  629SOL    HW1 2423   1.620   1.466   4.771
  629SOL    HW2 2424   1.711   1.419   4.883
  630SOL     OW 2425   0.338   0.562   5.013
  630SOL    HW1 2426   0.394   0.504   5.064
  630SOL    HW2 2427   0.351   0.535   4.922
  631SOL     OW 2428   0.829   1.577   4.401
  631SOL    HW1 2429   0.815   1.636   4.327
  631SOL    HW2 2430   0.753   1.520   4.402
  632SOL     OW 2431   1.428   0.219   4.840
  632SOL    HW1 2432   1.464   0.144   4.888
  632SOL    HW2 2433   1.379   0.268   4.906
  633SOL     OW 2434   1.002   0.020   4.863
  633SOL    HW1 2435   0.952   5.252   4.819
  633SOL    HW2 2436   1.088   5.281   4.878
  634SOL     OW 2437   0.772   1.333   4.041
  634SOL    HW1 2438   0.743   1.242   4.047
  634SOL    HW2 2439   0.854   1.336   4.090
  635SOL     OW 2440   0.623   1.555   5.012
  635SOL    HW1 2441   0.624   1.638   5.061
  635SOL    HW2 2442   0.710   1.550   4.972
  636SOL     OW 2443   1.353   0.037   3.887
  636SOL    HW1 2444   1.390   5.297   3.808
  636SOL    HW2 2445   1.276   5.284   3.907
  637SOL     OW 2446   1.300   0.464   4.408
  637SOL    HW1 2447   1.246   0.543   4.413
  637SOL    HW2 2448   1.294   0.424   4.494
  638SOL     OW 2449   1.594   0.215   4.606
  638SOL    HW1 2450   1.529   0.227   4.675
  638SOL    HW2 2451   1.587   0.294   4.553
  639SOL     OW 2452   0.048   1.068   4.013
  639SOL    HW1 2453   0.137   1.035   4.003
  639SOL    HW2 2454   5.300   0.994   4.051
  640SOL     OW 2455   0.886   1.653   4.065
  640SOL    HW1 2456   0.812   1.638   4.005
  640SOL    HW2 2457   0.859   1.728   4.118
  641SOL     OW 2458   0.232   0.632   5.704
  641SOL    HW1 2459   0.158   0.604   5.757
  641SOL    HW2 2460   0.212   0.602   5.615
  642SOL     OW 2461   0.233   0.281   6.576
  642SOL    HW1 2462   0.252   0.242   6.661
  642SOL    HW2 2463   0.153   0.238   6.547
  643SOL     OW 2464   5.299   0.407   6.252
  643SOL    HW1 2465   5.206   0.429   6.255
  643SOL    HW2 2466   0.001   0.317   6.219
  644SOL     OW 2467   0.575   1.286   6.770
  644SOL    HW1 2468   0.493   1.294   6.722
  644SOL    HW2 2469   0.591   1.374   6.805
  645SOL     OW 2470   1.563   1.512   6.293
  645SOL    HW1 2471   1.520   1.491   6.376
  645SOL    HW2 2472   1.491   1.516   6.229
  646SOL     OW 2473   1.132   0.698   6.286
  646SOL    HW1 2474   1.180   0.779   6.272
  646SOL    HW2 2475   1.084   0.712   6.368
  647SOL     OW 2476   1.768   0.605   5.814
  647SOL    HW1 2477   1.747   0.598   5.721
  647SOL    HW2 2478   1.732   0.525   5.853
  648SOL     OW 2479   0.753   1.140   6.626
  648SOL    HW1 2480   0.687   1.175   6.686
  648SOL    HW2 2481   0.790   1.217   6.583
  649SOL     OW 2482   0.865   0.777   7.406
  649SOL    HW1 2483   0.859   0.852   7.466
  649SOL    HW2 2484   0.892   0.816   7.322
  650SOL     OW 2485   0.685   1.001   6.232
  650SOL    HW1 2486   0.752   0.990   6.301
  650SOL    HW2 2487   0.618   1.055   6.274
  651SOL     OW 2488   0.710   1.151   7.400
  651SOL    HW1 2489   0.759   1.229   7.427
  651SOL    HW2 2490   0.629   1.185   7.362
  652SOL     OW 2491   0.359   1.404   6.646
  652SOL    HW1 2492   0.270   1.405   6.610
  652SOL    HW2 2493   0.407   1.466   6.591
  653SOL     OW 2494   1.460   1.500   6.942
  653SOL    HW1 2495   1.512   1.580   6.951
  653SOL    HW2 2496   1.397   1.504   7.013
  654SOL     OW 2497   0.450   0.399   7.076
  654SOL    HW1 2498   0.530   0.347   7.071
  654SOL    HW2 2499   0.379   0.335   7.080
  655SOL     OW 2500   1.610   0.451   6.325
  655SOL    HW1 2501   1.534   0.474   6.270
  655SOL    HW2 2502   1.627   0.530   6.376
  656SOL     OW 2503   0.233   1.713   6.063
  656SOL    HW1 2504   0.264   1.783   6.121
  656SOL    HW2 2505   0.296   1.711   5.991
  657SOL     OW 2506   1.136   1.341   7.276
  657SOL    HW1 2507   1.177   1.338   7.363
  657SOL    HW2 2508   1.085   1.261   7.271
  658SOL     OW 2509   0.221   1.445   6.126
  658SOL    HW1 2510   0.218   1.540   6.120
  658SOL    HW2 2511   0.150   1.422   6.186
  659SOL     OW 2512   0.250   1.077   6.460
  659SOL    HW1 2513   0.262   0.991   6.502
  659SOL    HW2 2514   0.198   1.127   6.523
  660SOL     OW 2515   0.612   1.790   7.017
  660SOL    HW1 2516   0.528   1.773   7.061
  660SOL    HW2 2517   0.633   1.881   7.040
  661SOL     OW 2518   0.581   0.984   5.722
  661SOL    HW1 2519   0.628   1.031   5.653
  661SOL    HW2 2520   0.622   1.014   5.803
  662SOL     OW 2521   1.586   0.136   7.042
  662SOL    HW1 2522   1.611   0.221   7.003
  662SOL    HW2 2523   1.582   0.153   7.136
  663SOL     OW 2524   0.124   0.636   6.163
  663SOL    HW1 2525   0.090   0.553   6.198
  663SOL    HW2 2526   0.098   0.701   6.228
  664SOL     OW 2527   1.843   1.758   5.921
  664SOL    HW1 2528   1.909   1.730   5.984
  664SOL    HW2 2529   1.866   1.849   5.901
  665SOL     OW 2530   0.038   1.599   5.719
  665SOL    HW1 2531   0.025   1.508   5.744
  665SOL    HW2 2532   5.282   1.649   5.778
  666SOL     OW 2533   1.689   0.918   6.228
  666SOL    HW1 2534   1.772   0.875   6.206
  666SOL    HW2 2535   1.667   0.969   6.150
  667SOL     OW 2536   1.647   1.106   6.015
  667SOL    HW1 2537   1.732   1.111   5.973
  667SOL    HW2 2538   1.652   1.168   6.088
  668SOL     OW 2539   0.131   0.749   7.172
  668SOL    HW1 2540   0.225   0.764   7.170
  668SOL    HW2 2541   0.093   0.836   7.189
  669SOL     OW 2542   0.616   1.386   6.320
  669SOL    HW1 2543   0.568   1.304   6.331
  669SOL    HW2 2544   0.598   1.413   6.230
  670SOL     OW 2545   1.288   1.238   7.009
  670SOL    HW1 2546   1.320   1.170   6.949
  670SOL    HW2 2547   1.346   1.232   7.085
  671SOL     OW 2548   0.816   0.029   6.115
  671SOL    HW1 2549   0.843   0.117   6.089
  671SOL    HW2 2550   0.720   0.031   6.107
  672SOL     OW 2551   0.174   0.943   6.865
  672SOL    HW1 2552   0.265   0.914   6.856
  672SOL    HW2 2553   0.134   0.925   6.780
  673SOL     OW 2554   1.531   0.994   5.785
  673SOL    HW1 2555   1.461   0.937   5.818
  673SOL    HW2 2556   1.573   1.029   5.864
  674SOL     OW 2557   1.185   1.807   7.209
  674SOL    HW1 2558   1.194   1.867   7.134
  674SOL    HW2 2559   1.202   1.721   7.172
  675SOL     OW 2560   0.328   0.275   7.389
  675SOL    HW1 2561   0.388   0.337   7.430
  675SOL    HW2 2562   0.247   0.284   7.439
  676SOL     OW 2563   1.467   1.419   6.537
  676SOL    HW1 2564   1.399   1.435   6.602
  676SOL    HW2 2565   1.454   1.328   6.510
  677SOL     OW 2566   1.657   1.742   6.164
  677SOL    HW1 2567   1.639   1.712   6.075
  677SOL    HW2 2568   1.633   1.668   6.220
  678SOL     OW 2569   0.594   0.720   5.852
  678SOL    HW1 2570   0.602   0.801   5.803
  678SOL    HW2 2571   0.530   0.739   5.920
  679SOL     OW 2572   1.278   0.348   6.517
  679SOL    HW1 2573   1.187   0.320   6.530
  679SOL    HW2 2574   1.328   0.298   6.581
  680SOL     OW 2575   1.580   1.671   5.895
  680SOL    HW1 2576   1.671   1.701   5.888
  680SOL    HW2 2577   1.553   1.654   5.805
  681SOL     OW 2578   0.794   0.618   7.036
  681SOL    HW1 2579   0.765   0.597   7.125
  681SOL    HW2 2580   0.752   0.552   6.981
  682SOL     OW 2581   1.394   0.475   7.264
  682SOL    HW1 2582   1.397   0.520   7.349
  682SOL    HW2 2583   1.458   0.404   7.273
  683SOL     OW 2584   0.954   0.887   7.168
  683SOL    HW1 2585   1.009   0.818   7.132
  683SOL    HW2 2586   0.906   0.922   7.093
  684SOL     OW 2587   0.993   0.417   6.820
  684SOL    HW1 2588   0.907   0.438   6.857
  684SOL    HW2 2589   0.974   0.369   6.740
  685SOL     OW 2590   1.051   0.698   6.012
  685SOL    HW1 2591   1.067   0.691   6.106
  685SOL    HW2 2592   0.968   0.652   5.999
  686SOL     OW 2593   0.070   0.789   6.397
  686SOL    HW1 2594   0.151   0.793   6.448
  686SOL    HW2 2595   0.066   0.873   6.352
  687SOL     OW 2596   0.128   1.886   7.171
  687SOL    HW1 2597   0.131   1.858   7.262
  687SOL    HW2 2598   0.060   1.830   7.132
  688SOL     OW 2599   0.875   0.366   5.774
  688SOL    HW1 2600   0.915   0.425   5.710
  688SOL    HW2 2601   0.931   0.289   5.774
  689SOL     OW 2602   1.708   0.574   7.415
  689SOL    HW1 2603   1.670   0.648   7.367
  689SOL    HW2 2604   1.737   0.514   7.347
  690SOL     OW 2605   1.377   1.142   6.127
  690SOL    HW1 2606   1.457   1.130   6.074
  690SOL    HW2 2607   1.325   1.204   6.077
  691SOL     OW 2608   0.536   0.203   6.468
  691SOL    HW1 2609   0.552   0.221   6.561
  691SOL    HW2 2610   0.549   0.287   6.425
  692SOL     OW 2611   1.004   1.443   6.057
  692SOL    HW1 2612   0.968   1.517   6.008
  692SOL    HW2 2613   0.986   1.465   6.149
  693SOL     OW 2614   0.357   1.804   6.456
  693SOL    HW1 2615   0.398   1.718   6.469
  693SOL    HW2 2616   0.423   1.866   6.487
  694SOL     OW 2617   1.799   1.055   6.455
  694SOL    HW1 2618   1.746   1.038   6.378
  694SOL    HW2 2619   1.737   1.061   6.527
  695SOL     OW 2620   1.228   1.539   7.099
  695SOL    HW1 2621   1.214   1.466   7.159
  695SOL    HW2 2622   1.163   1.525   7.030
  696SOL     OW 2623   0.316   0.952   5.834
  696SOL    HW1 2624   0.397   0.977   5.791
  696SOL    HW2 2625   0.294   0.866   5.799
  697SOL     OW 2626   1.479   0.744   6.312
  697SOL    HW1 2627   1.472   0.702   6.398
  697SOL    HW2 2628   1.557   0.800   6.319
  698SOL     OW 2629   0.465   1.263   7.323
  698SOL    HW1 2630   0.438   1.270   7.232
  698SOL    HW2 2631   0.382   1.264   7.372
  699SOL     OW 2632   1.122   1.778   5.817
  699SOL    HW1 2633   1.049   1.736   5.862
  699SOL    HW2 2634   1.146   1.716   5.747
  700SOL     OW 2635   0.198   0.280   7.080
  700SOL    HW1 2636   0.160   0.368   7.072
  700SOL    HW2 2637   0.207   0.266   7.174
  701SOL     OW 2638   1.628   1.380   5.675
  701SOL    HW1 2639   1.587   1.465   5.659
  701SOL    HW2 2640   1.559   1.316   5.654
  702SOL     OW 2641   0.471   1.734   5.905
  702SOL    HW1 2642   0.514   1.792   5.968
  702SOL    HW2 2643   0.542   1.703   5.849
  703SOL     OW 2644   1.407   0.101   6.017
  703SOL    HW1 2645   1.400   0.081   5.924
  703SOL    HW2 2646   1.500   0.122   6.030
  704SOL     OW 2647   0.277   1.801   6.797
  704SOL    HW1 2648   0.307   1.723   6.843
  704SOL    HW2 2649   0.225   1.768   6.724
  705SOL     OW 2650   0.939   1.699   6.485
  705SOL    HW1 2651   1.017   1.648   6.505
  705SOL    HW2 2652   0.895   1.649   6.416
  706SOL     OW 2653   0.385   0.696   6.064
  706SOL    HW1 2654   0.415   0.605   6.073
  706SOL    HW2 2655   0.292   0.693   6.086
  707SOL     OW 2656   1.538   0.227   7.310
  707SOL    HW1 2657   1.545   0.245   7.404
  707SOL    HW2 2658   1.462   0.170   7.302
  708SOL     OW 2659   0.620   0.132   5.693
  708SOL    HW1 2660   0.686   0.067   5.719
  708SOL    HW2 2661   0.574   0.092   5.620
  709SOL     OW 2662   0.779   0.312   7.350
  709SOL    HW1 2663   0.842   0.240   7.351
  709SOL    HW2 2664   0.742   0.313   7.438
  710SOL     OW 2665   0.877   1.522   6.779
  710SOL    HW1 2666   0.861   1.485   6.692
  710SOL    HW2 2667   0.947   1.467   6.815
  711SOL     OW 2668   1.340   0.589   7.018
  711SOL    HW1 2669   1.371   0.558   7.103
  711SOL    HW2 2670   1.377   0.677   7.010
  712SOL     OW 2671   0.816   1.393   6.527
  712SOL    HW1 2672   0.901   1.382   6.483
  712SOL    HW2 2673   0.753   1.396   6.456
  713SOL     OW 2674   0.928   0.510   6.489
  713SOL    HW1 2675   0.903   0.503   6.397
  713SOL    HW2 2676   0.958   0.423   6.514
  714SOL     OW 2677   0.548   0.058   6.090
  714SOL    HW1 2678   0.469   0.059   6.145
  714SOL    HW2 2679   0.535   0.129   6.027
  715SOL     OW 2680   1.428   1.198   5.626
  715SOL    HW1 2681   1.458   1.123   5.677
  715SOL    HW2 2682   1.343   1.220   5.664
  716SOL     OW 2683   0.316   0.066   5.771
  716SOL    HW1 2684   0.383   0.132   5.754
  716SOL    HW2 2685   0.365   5.284   5.777
  717SOL     OW 2686   0.940   0.265   6.049
  717SOL    HW1 2687   0.913   0.300   5.964
  717SOL    HW2 2688   1.035   0.276   6.049
  718SOL     OW 2689   1.081   0.682   7.045
  718SOL    HW1 2690   1.013   0.614   7.050
  718SOL    HW2 2691   1.163   0.633   7.038
  719SOL     OW 2692   1.223   1.570   6.380
  719SOL    HW1 2693   1.238   1.637   6.313
  719SOL    HW2 2694   1.291   1.586   6.445
  720SOL     OW 2695   0.468   1.151   6.316
  720SOL    HW1 2696   0.399   1.130   6.379
  720SOL    HW2 2697   0.428   1.133   6.231
  721SOL     OW 2698   1.268   1.793   6.195
  721SOL    HW1 2699   1.315   1.855   6.138
  721SOL    HW2 2700   1.201   1.847   6.238
  722SOL     OW 2701   1.025   0.545   5.609
  722SOL    HW1 2702   0.983   0.629   5.591
  722SOL    HW2 2703   1.089   0.565   5.678
  723SOL     OW 2704   0.100   0.529   6.999
  723SOL    HW1 2705   0.180   0.549   6.950
  723SOL    HW2 2706   0.078   0.611   7.043
  724SOL     OW 2707   0.560   0.239   6.744
  724SOL    HW1 2708   0.592   0.153   6.771
  724SOL    HW2 2709   0.467   0.239   6.768
  725SOL     OW 2710   0.866   0.464   6.227
  725SOL    HW1 2711   0.820   0.517   6.163
  725SOL    HW2 2712   0.890   0.384   6.180
  726SOL     OW 2713   0.979   0.061   6.349
  726SOL    HW1 2714   0.914   0.057   6.279
  726SOL    HW2 2715   0.987   5.270   6.379
  727SOL     OW 2716   1.438   1.162   6.443
  727SOL    HW1 2717   1.368   1.097   6.441
  727SOL    HW2 2718   1.463   1.173   6.351
  728SOL     OW 2719   1.466   0.607   6.562
  728SOL    HW1 2720   1.416   0.526   6.565
  728SOL    HW2 2721   1.526   0.601   6.636
  729SOL     OW 2722   1.844   0.815   5.969
  729SOL    HW1 2723   1.901   0.765   6.027
  729SOL    HW2 2724   1.817   0.753   5.902
  730SOL     OW 2725   0.491   1.419   5.743
  730SOL    HW1 2726   0.416   1.391   5.795
  730SOL    HW2 2727   0.477   1.379   5.657
  731SOL     OW 2728   1.671   1.264   6.232
  731SOL    HW1 2729   1.766   1.266   6.245
  731SOL    HW2 2730   1.641   1.352   6.252
  732SOL     OW 2731   1.394   0.572   5.657
  732SOL    HW1 2732   1.333   0.552   5.728
  732SOL    HW2 2733   1.479   0.543   5.690
  733SOL     OW 2734   0.521   0.265   5.906
  733SOL    HW1 2735   0.570   0.217   5.838
  733SOL    HW2 2736   0.501   0.350   5.866
  734SOL     OW 2737   1.752   1.240   7.157
  734SOL    HW1 2738   1.839   1.201   7.152
  734SOL    HW2 2739   1.767   1.330   7.186
  735SOL     OW 2740   1.058   1.352   6.918
  735SOL    HW1 2741   0.983   1.322   6.970
  735SOL    HW2 2742   1.134   1.312   6.960
  736SOL     OW 2743   1.608   1.625   7.239
  736SOL    HW1 2744   1.602   1.660   7.150
  736SOL    HW2 2745   1.691   1.577   7.241
  737SOL     OW 2746   1.129   1.203   6.690
  737SOL    HW1 2747   1.071   1.243   6.756
  737SOL    HW2 2748   1.098   1.237   6.607
  738SOL     OW 2749   1.627   1.098   6.663
  738SOL    HW1 2750   1.622   1.160   6.736
  738SOL    HW2 2751   1.549   1.115   6.611
  739SOL     OW 2752   0.905   0.107   6.974
  739SOL    HW1 2753   0.935   0.073   6.890
  739SOL    HW2 2754   0.982   0.150   7.012
  740SOL     OW 2755   0.984   1.114   7.311
  740SOL    HW1 2756   0.892   1.132   7.329
  740SOL    HW2 2757   0.983   1.037   7.254
  741SOL     OW 2758   0.707   1.060   5.958
  741SOL    HW1 2759   0.696   1.044   6.052
  741SOL    HW2 2760   0.784   1.007   5.934
  742SOL     OW 2761   0.420   0.821   6.839
  742SOL    HW1 2762   0.490   0.827   6.905
  742SOL    HW2 2763   0.386   0.732   6.848
  743SOL     OW 2764   1.266   0.378   6.860
  743SOL    HW1 2765   1.299   0.455   6.906
  743SOL    HW2 2766   1.176   0.401   6.837
  744SOL     OW 2767   0.103   1.623   6.952
  744SOL    HW1 2768   0.081   1.630   6.859
  744SOL    HW2 2769   0.189   1.582   6.954
  745SOL     OW 2770   0.342   1.108   6.073
  745SOL    HW1 2771   0.350   1.187   6.020
  745SOL    HW2 2772   0.350   1.036   6.010
  746SOL     OW 2773   0.555   0.536   6.446
  746SOL    HW1 2774   0.569   0.595   6.371
  746SOL    HW2 2775   0.620   0.562   6.510
  747SOL     OW 2776   1.248   1.349   5.975
  747SOL    HW1 2777   1.304   1.420   6.006
  747SOL    HW2 2778   1.161   1.370   6.009
  748SOL     OW 2779   1.283   1.458   6.733
  748SOL    HW1 2780   1.339   1.462   6.811
  748SOL    HW2 2781   1.227   1.382   6.747
  749SOL     OW 2782   1.581   0.622   6.066
  749SOL    HW1 2783   1.534   0.675   6.129
  749SOL    HW2 2784   1.627   0.685   6.010
  750SOL     OW 2785   0.352   1.519   6.896
  750SOL    HW1 2786   0.341   1.476   6.811
  750SOL    HW2 2787   0.446   1.537   6.902
  751SOL     OW 2788   0.416   0.740   7.189
  751SOL    HW1 2789   0.474   0.789   7.130
  751SOL    HW2 2790   0.462   0.658   7.205
  752SOL     OW 2791   1.602   0.778   7.269
  752SOL    HW1 2792   1.516   0.820   7.262
  752SOL    HW2 2793   1.655   0.821   7.201
  753SOL     OW 2794   1.045   0.117   7.371
  753SOL    HW1 2795   1.075   0.196   7.327
  753SOL    HW2 2796   1.053   0.048   7.305
  754SOL     OW 2797   0.482   0.059   7.323
  754SOL    HW1 2798   0.424   5.292   7.288
  754SOL    HW2 2799   0.425   0.134   7.340
  755SOL     OW 2800   0.586   0.874   6.618
  755SOL    HW1 2801   0.619   0.964   6.618
  755SOL    HW2 2802   0.529   0.870   6.695
  756SOL     OW 2803   1.356   0.859   6.614
  756SOL    HW1 2804   1.273   0.848   6.569
  756SOL    HW2 2805   1.398   0.773   6.608
  757SOL     OW 2806   1.204   0.528   5.852
  757SOL    HW1 2807   1.210   0.448   5.904
  757SOL    HW2 2808   1.162   0.591   5.910
  758SOL     OW 2809   0.304   0.205   6.832
  758SOL    HW1 2810   0.262   0.237   6.911
  758SOL    HW2 2811   0.293   0.110   6.835
  759SOL     OW 2812   0.066   1.317   6.866
  759SOL    HW1 2813   0.091   1.259   6.937
  759SOL    HW2 2814   5.295   1.370   6.902
  760SOL     OW 2815   0.726   0.632   6.645
  760SOL    HW1 2816   0.800   0.615   6.587
  760SOL    HW2 2817   0.697   0.721   6.623
  761SOL     OW 2818   1.736   0.959   7.439
  761SOL    HW1 2819   1.688   0.897   7.384
  761SOL    HW2 2820   1.678   0.975   7.514
  762SOL     OW 2821   0.319   0.067   6.242
  762SOL    HW1 2822   0.299   0.161   6.249
  762SOL    HW2 2823   0.326   0.038   6.333
  763SOL     OW 2824   1.613   0.376   5.949
  763SOL    HW1 2825   1.646   0.312   6.012
  763SOL    HW2 2826   1.593   0.453   6.002
  764SOL     OW 2827   1.028   0.759   6.546
  764SOL    HW1 2828   1.024   0.777   6.640
  764SOL    HW2 2829   1.001   0.668   6.537
  765SOL     OW 2830   0.981   1.565   7.303
  765SOL    HW1 2831   0.967   1.610   7.220
  765SOL    HW2 2832   1.026   1.484   7.279
  766SOL     OW 2833   1.854   1.505   7.191
  766SOL    HW1 2834   1.873   1.531   7.101
  766SOL    HW2 2835   1.935   1.522   7.239
  767SOL     OW 2836   0.354   0.914   7.395
  767SOL    HW1 2837   0.435   0.938   7.439
  767SOL    HW2 2838   0.380   0.852   7.327
  768SOL     OW 2839   1.525   0.271   5.712
  768SOL    HW1 2840   1.460   0.208   5.744
  768SOL    HW2 2841   1.562   0.310   5.791
  769SOL     OW 2842   1.290   0.826   5.617
  769SOL    HW1 2843   1.333   0.741   5.620
  769SOL    HW2 2844   1.322   0.865   5.535
  770SOL     OW 2845   1.067   1.336   6.441
  770SOL    HW1 2846   1.070   1.264   6.378
  770SOL    HW2 2847   1.127   1.401   6.406
  771SOL     OW 2848   0.314   0.810   6.536
  771SOL    HW1 2849   0.408   0.828   6.531
  771SOL    HW2 2850   0.308   0.719   6.566
  772SOL     OW 2851   0.336   0.527   6.601
  772SOL    HW1 2852   0.299   0.440   6.586
  772SOL    HW2 2853   0.411   0.532   6.542
  773SOL     OW 2854   1.135   0.377   7.275
  773SOL    HW1 2855   1.088   0.431   7.338
  773SOL    HW2 2856   1.223   0.416   7.270
  774SOL     OW 2857   1.132   0.222   7.052
  774SOL    HW1 2858   1.137   0.281   7.127
  774SOL    HW2 2859   1.188   0.264   6.986
  775SOL     OW 2860   0.002   1.329   5.796
  775SOL    HW1 2861   5.229   1.317   5.735
  775SOL    HW2 2862   0.012   1.243   5.838
  776SOL     OW 2863   0.094   1.781   6.538
  776SOL    HW1 2864   0.060   1.712   6.481
  776SOL    HW2 2865   0.181   1.801   6.503
  777SOL     OW 2866   0.505   1.574   6.494
  777SOL    HW1 2867   0.572   1.639   6.514
  777SOL    HW2 2868   0.548   1.513   6.433
  778SOL     OW 2869   0.981   0.791   6.812
  778SOL    HW1 2870   1.038   0.769   6.885
  778SOL    HW2 2871   0.897   0.754   6.835
  779SOL     OW 2872   0.036   0.569   6.706
  779SOL    HW1 2873   0.117   0.537   6.666
  779SOL    HW2 2874   0.037   0.532   6.795
  780SOL     OW 2875   0.170   0.515   7.300
  780SOL    HW1 2876   0.253   0.496   7.258
  780SOL    HW2 2877   0.138   0.594   7.256
  781SOL     OW 2878   1.377   0.938   7.245
  781SOL    HW1 2879   1.399   1.031   7.243
  781SOL    HW2 2880   1.375   0.912   7.152
  782SOL     OW 2881   0.814   0.572   5.950
  782SOL    HW1 2882   0.819   0.499   5.889
  782SOL    HW2 2883   0.740   0.625   5.918
  783SOL     OW 2884   1.642   0.601   6.771
  783SOL    HW1 2885   1.631   0.542   6.845
  783SOL    HW2 2886   1.729   0.581   6.737
  784SOL     OW 2887   0.255   1.556   7.321
  784SOL    HW1 2888   0.234   1.618   7.390
  784SOL    HW2 2889   0.250   1.470   7.363
  785SOL     OW 2890   0.699   0.452   6.846
  785SOL    HW1 2891   0.649   0.378   6.812
  785SOL    HW2 2892   0.698   0.516   6.775
  786SOL     OW 2893   0.927   1.679   7.054
  786SOL    HW1 2894   0.901   1.644   6.969
  786SOL    HW2 2895   0.922   1.774   7.043
  787SOL     OW 2896   0.463   0.492   5.765
  787SOL    HW1 2897   0.526   0.560   5.789
  787SOL    HW2 2898   0.380   0.539   5.756
  788SOL     OW 2899   0.148   1.137   7.057
  788SOL    HW1 2900   0.144   1.089   7.139
  788SOL    HW2 2901   0.158   1.069   6.990
  789SOL     OW 2902   1.325   1.046   6.809
  789SOL    HW1 2903   1.348   0.983   6.741
  789SOL    HW2 2904   1.255   1.099   6.769
  790SOL     OW 2905   1.312   0.856   5.892
  790SOL    HW1 2906   1.237   0.826   5.942
  790SOL    HW2 2907   1.287   0.843   5.800
  791SOL     OW 2908   1.773   1.743   6.737
  791SOL    HW1 2909   1.833   1.769   6.667
  791SOL    HW2 2910   1.749   1.653   6.715
  792SOL     OW 2911   1.241   1.733   6.697
  792SOL    HW1 2912   1.323   1.755   6.653
  792SOL    HW2 2913   1.248   1.639   6.716
  793SOL     OW 2914   0.082   1.214   6.614
  793SOL    HW1 2915   0.070   1.241   6.704
  793SOL    HW2 2916   5.293   1.204   6.579
  794SOL     OW 2917   0.677   1.666   7.316
  794SOL    HW1 2918   0.622   1.744   7.312
  794SOL    HW2 2919   0.744   1.679   7.248
  795SOL     OW 2920   1.711   0.150   6.087
  795SOL    HW1 2921   1.787   0.130   6.032
  795SOL    HW2 2922   1.705   0.076   6.147
  796SOL     OW 2923   1.391   1.568   6.072
  796SOL    HW1 2924   1.451   1.600   6.005
  796SOL    HW2 2925   1.342   1.645   6.100
  797SOL     OW 2926   0.142   1.799   7.429
  797SOL    HW1 2927   0.090   1.735   7.478
  797SOL    HW2 2928   0.196   1.842   7.495
  798SOL     OW 2929   1.277   0.926   6.257
  798SOL    HW1 2930   1.351   0.866   6.265
  798SOL    HW2 2931   1.311   0.998   6.204
  799SOL     OW 2932   0.813   1.273   7.015
  799SOL    HW1 2933   0.784   1.314   7.097
  799SOL    HW2 2934   0.744   1.295   6.953
  800SOL     OW 2935   0.672   1.620   5.741
  800SOL    HW1 2936   0.683   1.634   5.647
  800SOL    HW2 2937   0.617   1.543   5.748
  801SOL     OW 2938   1.625   1.727   6.976
  801SOL    HW1 2939   1.675   1.733   6.896
  801SOL    HW2 2940   1.611   1.817   7.004
  802SOL     OW 2941   1.846   0.155   6.543
  802SOL    HW1 2942   1.843   0.060   6.535
  802SOL    HW2 2943   1.760   0.185   6.513
  803SOL     OW 2944   0.270   0.329   6.304
  803SOL    HW1 2945   0.183   0.366   6.290
  803SOL    HW2 2946   0.274   0.314   6.398
  804SOL     OW 2947   1.207   1.605   5.618
  804SOL    HW1 2948   1.197   1.514   5.644
  804SOL    HW2 2949   1.143   1.618   5.549
  805SOL     OW 2950   0.824   1.006   6.959
  805SOL    HW1 2951   0.868   1.001   6.874
  805SOL    HW2 2952   0.823   1.099   6.980
  806SOL     OW 2953   0.915   0.910   5.876
  806SOL    HW1 2954   0.976   0.942   5.810
  806SOL    HW2 2955   0.964   0.841   5.922
  807SOL     OW 2956   1.491   1.625   5.629
  807SOL    HW1 2957   1.397   1.619   5.614
  807SOL    HW2 2958   1.529   1.631   5.541
  808SOL     OW 2959   0.367   1.304   7.079
  808SOL    HW1 2960   0.359   1.378   7.019
  808SOL    HW2 2961   0.291   1.249   7.059
  809SOL     OW 2962   1.610   1.283   6.866
  809SOL    HW1 2963   1.670   1.271   6.940
  809SOL    HW2 2964   1.550   1.351   6.895
  810SOL     OW 2965   1.053   1.108   6.293
  810SOL    HW1 2966   0.983   1.056   6.332
  810SOL    HW2 2967   1.117   1.042   6.263
  811SOL     OW 2968   1.019   0.243   6.555
  811SOL    HW1 2969   0.999   0.198   6.473
  811SOL    HW2 2970   1.012   0.176   6.622
  812SOL     OW 2971   0.601   1.487   6.067
  812SOL    HW1 2972   0.648   1.439   5.998
  812SOL    HW2 2973   0.535   1.537   6.020
  813SOL     OW 2974   1.726   0.386   6.965
  813SOL    HW1 2975   1.796   0.451   6.963
  813SOL    HW2 2976   1.757   0.316   6.906
  814SOL     OW 2977   0.261   1.348   5.879
  814SOL    HW1 2978   0.168   1.350   5.856
  814SOL    HW2 2979   0.264   1.385   5.967
  815SOL     OW 2980   0.117   1.014   7.301
  815SOL    HW1 2981   0.045   0.986   7.358
  815SOL    HW2 2982   0.196   0.984   7.346
  816SOL     OW 2983   0.676   0.217   7.078
  816SOL    HW1 2984   0.758   0.200   7.033
  816SOL    HW2 2985   0.701   0.262   7.159
  817SOL     OW 2986   0.079   0.334   5.622
  817SOL    HW1 2987   5.287   0.312   5.614
  817SOL    HW2 2988   0.093   0.404   5.558
  818SOL     OW 2989   1.429   0.858   6.986
  818SOL    HW1 2990   1.380   0.919   6.931
  818SOL    HW2 2991   1.518   0.861   6.952
  819SOL     OW 2992   0.084   0.142   5.879
  819SOL    HW1 2993   0.078   0.236   5.861
  819SOL    HW2 2994   0.171   0.117   5.848
  820SOL     OW 2995   1.179   1.338   5.703
  820SOL    HW1 2996   1.088   1.309   5.706
  820SOL    HW2 2997   1.207   1.339   5.795
  821SOL     OW 2998   0.620   0.831   7.022
  821SOL    HW1 2999   0.675   0.907   7.005
  821SOL    HW2 3000   0.681   0.758   7.029
  822SOL     OW 3001   1.483   1.777   6.566
  822SOL    HW1 3002   1.506   1.838   6.495
  822SOL    HW2 3003   1.567   1.758   6.608
  823SOL     OW 3004   0.711   0.574   7.289
  823SOL    HW1 3005   0.756   0.636   7.346
  823SOL    HW2 3006   0.742   0.488   7.318
  824SOL     OW 3007   1.472   1.199   7.218
  824SOL    HW1 3008   1.460   1.212   7.311
  824SOL    HW2 3009   1.565   1.215   7.203
  825SOL     OW 3010   0.376   1.743   7.150
  825SOL    HW1 3011   0.294   1.789   7.134
  825SOL    HW2 3012   0.350   1.663   7.195
  826SOL     OW 3013   1.668   0.881   6.841
  826SOL    HW1 3014   1.663   0.796   6.798
  826SOL    HW2 3015   1.659   0.945   6.770
  827SOL     OW 3016   1.220   0.318   6.051
  827SOL    HW1 3017   1.283   0.246   6.045
  827SOL    HW2 3018   1.250   0.370   6.125
  828SOL     OW 3019   0.589   0.737   6.256
  828SOL    HW1 3020   0.628   0.823   6.240
  828SOL    HW2 3021   0.520   0.730   6.189
  829SOL     OW 3022   1.765   0.361   7.236
  829SOL    HW1 3023   1.747   0.377   7.144
  829SOL    HW2 3024   1.693   0.306   7.266
  830SOL     OW 3025   1.745   0.933   7.098
  830SOL    HW1 3026   1.741   1.028   7.112
  830SOL    HW2 3027   1.730   0.922   7.004
  831SOL     OW 3028   0.862   1.366   5.621
  831SOL    HW1 3029   0.824   1.396   5.704
  831SOL    HW2 3030   0.881   1.447   5.573
  832SOL     OW 3031   0.664   1.793   6.528
  832SOL    HW1 3032   0.643   1.883   6.506
  832SOL    HW2 3033   0.759   1.788   6.522
  833SOL     OW 3034   0.868   0.967   6.440
  833SOL    HW1 3035   0.918   0.896   6.479
  833SOL    HW2 3036   0.833   1.016   6.514
  834SOL     OW 3037   1.077   0.987   5.674
  834SOL    HW1 3038   1.057   1.039   5.596
  834SOL    HW2 3039   1.153   0.934   5.649
  835SOL     OW 3040   1.853   1.554   6.430
  835SOL    HW1 3041   1.775   1.542   6.376
  835SOL    HW2 3042   1.845   1.488   6.499
  836SOL     OW 3043   0.226   1.304   7.447
  836SOL    HW1 3044   0.155   1.245   7.421
  836SOL    HW2 3045   0.214   1.316   7.541
  837SOL     OW 3046   0.088   1.216   6.239
  837SOL    HW1 3047   0.103   1.187   6.329
  837SOL    HW2 3048   0.175   1.218   6.200
  838SOL     OW 3049   0.681   1.402   7.215
  838SOL    HW1 3050   0.600   1.362   7.245
  838SOL    HW2 3051   0.678   1.491   7.250
  839SOL     OW 3052   1.812   0.176   6.818
  839SOL    HW1 3053   1.777   0.087   6.821
  839SOL    HW2 3054   1.833   0.190   6.726
  840SOL     OW 3055   0.433   0.436   6.108
  840SOL    HW1 3056   0.465   0.363   6.056
  840SOL    HW2 3057   0.387   0.396   6.181
  841SOL     OW 3058   1.700   1.489   6.681
  841SOL    HW1 3059   1.619   1.466   6.635
  841SOL    HW2 3060   1.710   1.419   6.747
  842SOL     OW 3061   0.338   0.562   6.875
  842SOL    HW1 3062   0.395   0.504   6.925
  842SOL    HW2 3063   0.351   0.535   6.784
  843SOL     OW 3064   0.829   1.577   6.263
  843SOL    HW1 3065   0.815   1.635   6.188
  843SOL    HW2 3066   0.753   1.520   6.264
  844SOL     OW 3067   1.427   0.219   6.702
  844SOL    HW1 3068   1.464   0.144   6.750
  844SOL    HW2 3069   1.379   0.268   6.768
  845SOL     OW 3070   1.001   0.020   6.726
  845SOL    HW1 3071   0.952   5.252   6.680
  845SOL    HW2 3072   1.088   5.281   6.740
  846SOL     OW 3073   0.772   1.333   5.903
  846SOL    HW1 3074   0.743   1.242   5.909
  846SOL    HW2 3075   0.854   1.335   5.952
  847SOL     OW 3076   0.623   1.555   6.874
  847SOL    HW1 3077   0.624   1.638   6.922
  847SOL    HW2 3078   0.710   1.550   6.834
  848SOL     OW 3079   1.353   0.037   5.749
  848SOL    HW1 3080   1.391   5.297   5.670
  848SOL    HW2 3081   1.276   5.283   5.769
  849SOL     OW 3082   1.300   0.464   6.270
  849SOL    HW1 3083   1.246   0.543   6.275
  849SOL    HW2 3084   1.294   0.424   6.356
  850SOL     OW 3085   1.594   0.215   6.468
  850SOL    HW1 3086   1.529   0.227   6.537
  850SOL    HW2 3087   1.587   0.294   6.415
  851SOL     OW 3088   0.048   1.068   5.876
  851SOL    HW1 3089   0.137   1.035   5.865
  851SOL    HW2 3090   5.300   0.994   5.912
  852SOL     OW 3091   0.886   1.653   5.927
  852SOL    HW1 3092   0.813   1.638   5.867
  852SOL    HW2 3093   0.859   1.728   5.980
  853SOL     OW 3094   0.227   0.630   7.567
  853SOL    HW1 3095   0.152   0.590   7.610
  853SOL    HW2 3096   0.218   0.606   7.475
  854SOL     OW 3097   1.768   0.597   7.679
  854SOL    HW1 3098   1.747   0.592   7.586
  854SOL    HW2 3099   1.727   0.519   7.716
  855SOL     OW 3100   0.232   1.703   7.922
  855SOL    HW1 3101   0.264   1.751   7.998
  855SOL    HW2 3102   0.301   1.713   7.857
  856SOL     OW 3103   0.216   1.436   7.992
  856SOL    HW1 3104   0.211   1.530   7.981
  856SOL    HW2 3105   0.153   1.416   8.061
  857SOL     OW 3106   0.582   0.985   7.581
  857SOL    HW1 3107   0.628   1.032   7.512
  857SOL    HW2 3108   0.623   1.015   7.662
  858SOL     OW 3109   1.837   1.759   7.797
  858SOL    HW1 3110   1.909   1.729   7.853
  858SOL    HW2 3111   1.863   1.847   7.771
  859SOL     OW 3112   0.036   1.602   7.584
  859SOL    HW1 3113   0.028   1.509   7.604
  859SOL    HW2 3114   5.275   1.646   7.643
  860SOL     OW 3115   1.683   0.864   8.032
  860SOL    HW1 3116   1.761   0.876   0.005
  860SOL    HW2 3117   1.669   0.948   7.989
  861SOL     OW 3118   1.656   1.098   7.878
  861SOL    HW1 3119   1.743   1.124   7.849
  861SOL    HW2 3120   1.626   1.170   7.933
  862SOL     OW 3121   0.810   5.287   7.942
  862SOL    HW1 3122   0.853   0.072   7.930
  862SOL    HW2 3123   0.717   0.007   7.942
  863SOL     OW 3124   1.533   0.995   7.650
  863SOL    HW1 3125   1.466   0.937   7.684
  863SOL    HW2 3126   1.577   1.029   7.728
  864SOL     OW 3127   0.587   0.723   7.707
  864SOL    HW1 3128   0.596   0.805   7.659
  864SOL    HW2 3129   0.534   0.744   7.784
  865SOL     OW 3130   1.574   1.672   7.757
  865SOL    HW1 3131   1.665   1.700   7.766
  865SOL    HW2 3132   1.562   1.659   7.663
  866SOL     OW 3133   0.050   0.817   0.196
  866SOL    HW1 3134   0.121   0.763   0.162
  866SOL    HW2 3135   0.030   0.878   0.125
  867SOL     OW 3136   0.870   0.360   7.629
  867SOL    HW1 3137   0.913   0.423   7.571
  867SOL    HW2 3138   0.934   0.291   7.641
  868SOL     OW 3139   0.318   0.948   7.694
  868SOL    HW1 3140   0.398   0.976   7.650
  868SOL    HW2 3141   0.296   0.864   7.653
  869SOL     OW 3142   1.124   1.776   7.682
  869SOL    HW1 3143   1.047   1.736   7.722
  869SOL    HW2 3144   1.149   1.715   7.612
  870SOL     OW 3145   1.628   1.381   7.534
  870SOL    HW1 3146   1.586   1.466   7.520
  870SOL    HW2 3147   1.560   1.317   7.516
  871SOL     OW 3148   0.470   1.737   7.769
  871SOL    HW1 3149   0.516   1.791   7.834
  871SOL    HW2 3150   0.539   1.703   7.713
  872SOL     OW 3151   1.411   0.107   7.883
  872SOL    HW1 3152   1.407   0.083   7.790
  872SOL    HW2 3153   1.505   0.112   7.902
  873SOL     OW 3154   0.378   0.697   7.923
  873SOL    HW1 3155   0.399   0.603   7.926
  873SOL    HW2 3156   0.288   0.702   7.955
  874SOL     OW 3157   0.614   0.131   7.559
  874SOL    HW1 3158   0.689   0.075   7.580
  874SOL    HW2 3159   0.572   0.090   7.484
  875SOL     OW 3160   0.548   0.062   7.950
  875SOL    HW1 3161   0.456   0.046   7.974
  875SOL    HW2 3162   0.544   0.136   7.890
  876SOL     OW 3163   1.428   1.198   7.489
  876SOL    HW1 3164   1.459   1.124   7.542
  876SOL    HW2 3165   1.344   1.222   7.527
  877SOL     OW 3166   0.315   0.072   7.653
  877SOL    HW1 3167   0.374   0.129   7.604
  877SOL    HW2 3168   0.360   5.287   7.656
  878SOL     OW 3169   0.949   0.227   7.909
  878SOL    HW1 3170   0.900   0.299   7.869
  878SOL    HW2 3171   1.038   0.262   7.919
  879SOL     OW 3172   0.446   1.158   0.090
  879SOL    HW1 3173   0.374   1.186   0.147
  879SOL    HW2 3174   0.404   1.141   0.006
  880SOL     OW 3175   1.291   1.812   8.014
  880SOL    HW1 3176   1.328   1.881   7.958
  880SOL    HW2 3177   1.205   1.845   8.040
  881SOL     OW 3178   1.025   0.545   7.469
  881SOL    HW1 3179   0.982   0.629   7.454
  881SOL    HW2 3180   1.085   0.561   7.542
  882SOL     OW 3181   1.874   0.815   7.801
  882SOL    HW1 3182   1.860   0.793   7.893
  882SOL    HW2 3183   1.834   0.743   7.753
  883SOL     OW 3184   0.489   1.417   7.604
  883SOL    HW1 3185   0.415   1.389   7.657
  883SOL    HW2 3186   0.473   1.378   7.517
  884SOL     OW 3187   1.393   0.572   7.519
  884SOL    HW1 3188   1.331   0.551   7.589
  884SOL    HW2 3189   1.477   0.540   7.552
  885SOL     OW 3190   0.524   0.272   7.773
  885SOL    HW1 3191   0.566   0.219   7.706
  885SOL    HW2 3192   0.502   0.354   7.730
  886SOL     OW 3193   0.710   1.061   7.813
  886SOL    HW1 3194   0.692   1.049   7.906
  886SOL    HW2 3195   0.788   1.009   7.797
  887SOL     OW 3196   0.344   1.096   7.927
  887SOL    HW1 3197   0.342   1.180   7.882
  887SOL    HW2 3198   0.346   1.031   7.856
  888SOL     OW 3199   1.222   1.357   7.821
  888SOL    HW1 3200   1.283   1.427   7.844
  888SOL    HW2 3201   1.188   1.325   7.905
  889SOL     OW 3202   1.589   0.625   7.921
  889SOL    HW1 3203   1.575   0.682   7.996
  889SOL    HW2 3204   1.625   0.681   7.853
  890SOL     OW 3205   1.202   0.525   7.714
  890SOL    HW1 3206   1.203   0.438   7.754
  890SOL    HW2 3207   1.183   0.584   7.786
  891SOL     OW 3208   1.618   0.376   7.813
  891SOL    HW1 3209   1.638   0.309   7.877
  891SOL    HW2 3210   1.594   0.453   7.865
  892SOL     OW 3211   1.528   0.272   7.575
  892SOL    HW1 3212   1.464   0.207   7.605
  892SOL    HW2 3213   1.564   0.309   7.655
  893SOL     OW 3214   1.293   0.827   7.480
  893SOL    HW1 3215   1.334   0.741   7.482
  893SOL    HW2 3216   1.323   0.867   7.399
  894SOL     OW 3217   0.004   1.333   7.656
  894SOL    HW1 3218   5.222   1.330   7.606
  894SOL    HW2 3219   0.013   1.244   7.691
  895SOL     OW 3220   0.839   0.605   7.762
  895SOL    HW1 3221   0.832   0.515   7.732
  895SOL    HW2 3222   0.749   0.638   7.763
  896SOL     OW 3223   0.459   0.493   7.631
  896SOL    HW1 3224   0.522   0.562   7.650
  896SOL    HW2 3225   0.376   0.540   7.620
  897SOL     OW 3226   1.313   0.852   7.754
  897SOL    HW1 3227   1.226   0.857   7.794
  897SOL    HW2 3228   1.295   0.841   7.660
  898SOL     OW 3229   1.709   0.132   7.944
  898SOL    HW1 3230   1.783   0.132   7.884
  898SOL    HW2 3231   1.742   0.086   8.022
  899SOL     OW 3232   1.363   1.577   7.895
  899SOL    HW1 3233   1.438   1.598   7.839
  899SOL    HW2 3234   1.332   1.663   7.926
  900SOL     OW 3235   0.668   1.620   7.603
  900SOL    HW1 3236   0.680   1.632   7.509
  900SOL    HW2 3237   0.615   1.541   7.610
  901SOL     OW 3238   1.210   1.606   7.478
  901SOL    HW1 3239   1.198   1.515   7.505
  901SOL    HW2 3240   1.143   1.620   7.411
  902SOL     OW 3241   0.923   0.908   7.754
  902SOL    HW1 3242   0.978   0.932   7.680
  902SOL    HW2 3243   0.920   0.812   7.752
  903SOL     OW 3244   1.493   1.627   7.489
  903SOL    HW1 3245   1.398   1.619   7.476
  903SOL    HW2 3246   1.528   1.632   7.400
  904SOL     OW 3247   0.607   1.506   7.935
  904SOL    HW1 3248   0.652   1.447   7.875
  904SOL    HW2 3249   0.534   1.541   7.884
  905SOL     OW 3250   0.260   1.346   7.743
  905SOL    HW1 3251   0.168   1.351   7.718
  905SOL    HW2 3252   0.263   1.382   7.832
  906SOL     OW 3253   0.079   0.341   7.486
  906SOL    HW1 3254   5.289   0.309   7.472
  906SOL    HW2 3255   0.092   0.407   7.418
  907SOL     OW 3256   0.068   0.143   7.735
  907SOL    HW1 3257   0.068   0.238   7.722
  907SOL    HW2 3258   0.157   0.116   7.713
  908SOL     OW 3259   1.176   1.338   7.556
  908SOL    HW1 3260   1.083   1.313   7.555
  908SOL    HW2 3261   1.198   1.344   7.649
  909SOL     OW 3262   1.222   0.318   7.916
  909SOL    HW1 3263   1.288   0.249   7.910
  909SOL    HW2 3264   1.245   0.366   7.995
  910SOL     OW 3265   0.625   0.744   8.042
  910SOL    HW1 3266   0.629   0.818   0.023
  910SOL    HW2 3267   0.533   0.737   8.018
  911SOL     OW 3268   0.863   1.367   7.484
  911SOL    HW1 3269   0.825   1.397   7.567
  911SOL    HW2 3270   0.881   1.447   7.436
  912SOL     OW 3271   1.070   0.976   7.537
  912SOL    HW1 3272   1.053   1.035   7.463
  912SOL    HW2 3273   1.150   0.929   7.511
  913SOL     OW 3274   0.400   0.430   7.982
  913SOL    HW1 3275   0.447   0.368   7.926
  913SOL    HW2 3276   0.443   0.421   8.068
  914SOL     OW 3277   0.765   1.336   7.764
  914SOL    HW1 3278   0.736   1.245   7.765
  914SOL    HW2 3279   0.847   1.336   7.813
  915SOL     OW 3280   1.363   0.036   7.612
  915SOL    HW1 3281   1.378   5.290   7.530
  915SOL    HW2 3282   1.283   5.298   7.647
  916SOL     OW 3283   0.048   1.069   7.721
  916SOL    HW1 3284   0.138   1.035   7.719
  916SOL    HW2 3285   0.001   1.010   7.779
  917SOL     OW 3286   0.893   1.653   7.779
  917SOL    HW1 3287   0.817   1.629   7.727
  917SOL    HW2 3288   0.859   1.715   7.844
  918SOL     OW 3289   0.222   2.482   0.118
  918SOL    HW1 3290   0.154   2.433   0.165
  918SOL    HW2 3291   0.231   2.437   0.035
  919SOL     OW 3292   0.242   2.137   0.988
  919SOL    HW1 3293   0.256   2.103   1.077
  919SOL    HW2 3294   0.158   2.100   0.962
  920SOL     OW 3295   5.296   2.260   0.647
  920SOL    HW1 3296   5.205   2.288   0.657
  920SOL    HW2 3297   5.291   2.167   0.628
  921SOL     OW 3298   0.575   3.148   1.184
  921SOL    HW1 3299   0.493   3.156   1.136
  921SOL    HW2 3300   0.591   3.236   1.219
  922SOL     OW 3301   1.562   3.374   0.708
  922SOL    HW1 3302   1.520   3.353   0.791
  922SOL    HW2 3303   1.491   3.378   0.644
  923SOL     OW 3304   1.131   2.560   0.700
  923SOL    HW1 3305   1.180   2.641   0.686
  923SOL    HW2 3306   1.084   2.574   0.782
  924SOL     OW 3307   1.772   2.461   0.232
  924SOL    HW1 3308   1.729   2.469   0.147
  924SOL    HW2 3309   1.730   2.385   0.274
  925SOL     OW 3310   0.755   3.002   1.041
  925SOL    HW1 3311   0.688   3.037   1.100
  925SOL    HW2 3312   0.790   3.080   0.997
  926SOL     OW 3313   0.868   2.634   1.822
  926SOL    HW1 3314   0.858   2.706   1.885
  926SOL    HW2 3315   0.891   2.678   1.740
  927SOL     OW 3316   0.684   2.861   0.650
  927SOL    HW1 3317   0.750   2.852   0.718
  927SOL    HW2 3318   0.616   2.916   0.689
  928SOL     OW 3319   0.710   3.012   1.814
  928SOL    HW1 3320   0.759   3.090   1.841
  928SOL    HW2 3321   0.629   3.046   1.777
  929SOL     OW 3322   0.358   3.266   1.061
  929SOL    HW1 3323   0.271   3.263   1.022
  929SOL    HW2 3324   0.406   3.328   1.005
  930SOL     OW 3325   1.461   3.362   1.356
  930SOL    HW1 3326   1.512   3.442   1.365
  930SOL    HW2 3327   1.397   3.367   1.427
  931SOL     OW 3328   0.451   2.262   1.491
  931SOL    HW1 3329   0.525   2.201   1.493
  931SOL    HW2 3330   0.374   2.206   1.501
  932SOL     OW 3331   1.611   2.309   0.741
  932SOL    HW1 3332   1.536   2.330   0.686
  932SOL    HW2 3333   1.623   2.387   0.796
  933SOL     OW 3334   0.217   3.593   0.464
  933SOL    HW1 3335   0.258   3.649   0.531
  933SOL    HW2 3336   0.289   3.570   0.405
  934SOL     OW 3337   1.137   3.204   1.693
  934SOL    HW1 3338   1.178   3.198   1.779
  934SOL    HW2 3339   1.085   3.124   1.686
  935SOL     OW 3340   0.220   3.312   0.532
  935SOL    HW1 3341   0.200   3.405   0.539
  935SOL    HW2 3342   0.160   3.269   0.593
  936SOL     OW 3343   0.255   2.940   0.878
  936SOL    HW1 3344   0.261   2.853   0.917
  936SOL    HW2 3345   0.200   2.990   0.938
  937SOL     OW 3346   0.613   3.652   1.433
  937SOL    HW1 3347   0.528   3.635   1.475
  937SOL    HW2 3348   0.633   3.743   1.455
  938SOL     OW 3349   0.619   2.821   0.139
  938SOL    HW1 3350   0.575   2.901   0.109
  938SOL    HW2 3351   0.676   2.850   0.210
  939SOL     OW 3352   1.596   1.986   1.467
  939SOL    HW1 3353   1.605   2.067   1.417
  939SOL    HW2 3354   1.581   2.015   1.557
  940SOL     OW 3355   0.129   2.497   0.583
  940SOL    HW1 3356   0.087   2.414   0.607
  940SOL    HW2 3357   0.099   2.558   0.650
  941SOL     OW 3358   1.846   3.619   0.330
  941SOL    HW1 3359   1.912   3.590   0.394
  941SOL    HW2 3360   1.870   3.710   0.312
  942SOL     OW 3361   0.032   3.445   0.104
  942SOL    HW1 3362   0.023   3.360   0.147
  942SOL    HW2 3363   0.007   3.508   0.172
  943SOL     OW 3364   1.687   2.780   0.644
  943SOL    HW1 3365   1.769   2.738   0.620
  943SOL    HW2 3366   1.664   2.833   0.567
  944SOL     OW 3367   1.646   2.966   0.435
  944SOL    HW1 3368   1.726   2.980   0.384
  944SOL    HW2 3369   1.652   3.029   0.507
  945SOL     OW 3370   0.132   2.611   1.584
  945SOL    HW1 3371   0.227   2.625   1.585
  945SOL    HW2 3372   0.095   2.697   1.601
  946SOL     OW 3373   0.616   3.249   0.734
  946SOL    HW1 3374   0.568   3.167   0.744
  946SOL    HW2 3375   0.599   3.275   0.643
  947SOL     OW 3376   1.288   3.100   1.423
  947SOL    HW1 3377   1.320   3.032   1.363
  947SOL    HW2 3378   1.346   3.094   1.499
  948SOL     OW 3379   0.825   1.865   0.514
  948SOL    HW1 3380   0.864   1.949   0.490
  948SOL    HW2 3381   0.731   1.882   0.518
  949SOL     OW 3382   0.175   2.806   1.279
  949SOL    HW1 3383   0.266   2.776   1.270
  949SOL    HW2 3384   0.135   2.786   1.194
  950SOL     OW 3385   1.508   2.870   0.214
  950SOL    HW1 3386   1.446   2.805   0.247
  950SOL    HW2 3387   1.561   2.895   0.290
  951SOL     OW 3388   1.185   3.670   1.623
  951SOL    HW1 3389   1.194   3.729   1.549
  951SOL    HW2 3390   1.202   3.583   1.587
  952SOL     OW 3391   0.339   2.116   1.820
  952SOL    HW1 3392   0.385   2.198   1.833
  952SOL    HW2 3393   0.250   2.132   1.853
  953SOL     OW 3394   1.467   3.281   0.951
  953SOL    HW1 3395   1.399   3.297   1.016
  953SOL    HW2 3396   1.454   3.190   0.924
  954SOL     OW 3397   1.658   3.605   0.582
  954SOL    HW1 3398   1.638   3.576   0.493
  954SOL    HW2 3399   1.634   3.531   0.637
  955SOL     OW 3400   0.597   2.574   0.282
  955SOL    HW1 3401   0.616   2.654   0.233
  955SOL    HW2 3402   0.534   2.602   0.348
  956SOL     OW 3403   1.279   2.216   0.933
  956SOL    HW1 3404   1.190   2.184   0.941
  956SOL    HW2 3405   1.330   2.163   0.993
  957SOL     OW 3406   1.587   3.533   0.320
  957SOL    HW1 3407   1.678   3.562   0.313
  957SOL    HW2 3408   1.559   3.516   0.230
  958SOL     OW 3409   0.792   2.479   1.451
  958SOL    HW1 3410   0.765   2.455   1.539
  958SOL    HW2 3411   0.753   2.412   1.395
  959SOL     OW 3412   1.393   2.336   1.678
  959SOL    HW1 3413   1.396   2.381   1.762
  959SOL    HW2 3414   1.454   2.262   1.688
  960SOL     OW 3415   0.954   2.749   1.583
  960SOL    HW1 3416   1.008   2.679   1.547
  960SOL    HW2 3417   0.906   2.784   1.508
  961SOL     OW 3418   0.992   2.274   1.238
  961SOL    HW1 3419   0.906   2.295   1.274
  961SOL    HW2 3420   0.974   2.229   1.156
  962SOL     OW 3421   1.053   2.561   0.427
  962SOL    HW1 3422   1.069   2.554   0.521
  962SOL    HW2 3423   0.970   2.515   0.414
  963SOL     OW 3424   0.067   2.651   0.815
  963SOL    HW1 3425   0.149   2.655   0.864
  963SOL    HW2 3426   0.069   2.729   0.759
  964SOL     OW 3427   0.129   3.747   1.585
  964SOL    HW1 3428   0.133   3.719   1.676
  964SOL    HW2 3429   0.060   3.693   1.546
  965SOL     OW 3430   0.885   2.219   0.202
  965SOL    HW1 3431   0.930   2.270   0.135
  965SOL    HW2 3432   0.886   2.129   0.170
  966SOL     OW 3433   1.708   2.436   1.828
  966SOL    HW1 3434   1.671   2.509   1.780
  966SOL    HW2 3435   1.736   2.374   1.760
  967SOL     OW 3436   1.377   3.003   0.541
  967SOL    HW1 3437   1.455   2.991   0.487
  967SOL    HW2 3438   1.324   3.066   0.492
  968SOL     OW 3439   0.556   2.045   0.894
  968SOL    HW1 3440   0.553   2.073   0.985
  968SOL    HW2 3441   0.553   2.127   0.844
  969SOL     OW 3442   1.003   3.306   0.472
  969SOL    HW1 3443   0.967   3.379   0.422
  969SOL    HW2 3444   0.983   3.327   0.563
  970SOL     OW 3445   0.358   3.665   0.869
  970SOL    HW1 3446   0.398   3.579   0.883
  970SOL    HW2 3447   0.423   3.727   0.902
  971SOL     OW 3448   1.799   2.916   0.870
  971SOL    HW1 3449   1.744   2.899   0.793
  971SOL    HW2 3450   1.737   2.923   0.942
  972SOL     OW 3451   1.228   3.401   1.513
  972SOL    HW1 3452   1.214   3.328   1.573
  972SOL    HW2 3453   1.163   3.387   1.444
  973SOL     OW 3454   0.331   2.814   0.254
  973SOL    HW1 3455   0.411   2.824   0.203
  973SOL    HW2 3456   0.312   2.720   0.249
  974SOL     OW 3457   1.479   2.604   0.726
  974SOL    HW1 3458   1.471   2.564   0.812
  974SOL    HW2 3459   1.556   2.661   0.733
  975SOL     OW 3460   0.466   3.127   1.738
  975SOL    HW1 3461   0.439   3.133   1.646
  975SOL    HW2 3462   0.383   3.127   1.787
  976SOL     OW 3463   1.107   3.643   0.223
  976SOL    HW1 3464   1.051   3.603   0.289
  976SOL    HW2 3465   1.128   3.572   0.163
  977SOL     OW 3466   0.205   2.141   1.497
  977SOL    HW1 3467   0.127   2.193   1.481
  977SOL    HW2 3468   0.173   2.061   1.539
  978SOL     OW 3469   1.634   3.234   0.083
  978SOL    HW1 3470   1.593   3.321   0.083
  978SOL    HW2 3471   1.562   3.174   0.064
  979SOL     OW 3472   0.470   3.595   0.325
  979SOL    HW1 3473   0.513   3.656   0.385
  979SOL    HW2 3474   0.539   3.569   0.264
  980SOL     OW 3475   1.407   1.973   0.446
  980SOL    HW1 3476   1.398   1.952   0.353
  980SOL    HW2 3477   1.502   1.980   0.460
  981SOL     OW 3478   0.278   3.663   1.211
  981SOL    HW1 3479   0.306   3.585   1.258
  981SOL    HW2 3480   0.224   3.629   1.139
  982SOL     OW 3481   0.939   3.561   0.898
  982SOL    HW1 3482   1.016   3.509   0.920
  982SOL    HW2 3483   0.895   3.511   0.829
  983SOL     OW 3484   0.381   2.560   0.476
  983SOL    HW1 3485   0.413   2.471   0.485
  983SOL    HW2 3486   0.289   2.556   0.502
  984SOL     OW 3487   1.534   2.087   1.725
  984SOL    HW1 3488   1.544   2.108   1.818
  984SOL    HW2 3489   1.465   2.021   1.722
  985SOL     OW 3490   0.629   1.971   0.138
  985SOL    HW1 3491   0.724   1.960   0.142
  985SOL    HW2 3492   0.607   1.953   0.046
  986SOL     OW 3493   0.766   2.140   1.755
  986SOL    HW1 3494   0.843   2.083   1.755
  986SOL    HW2 3495   0.718   2.116   1.834
  987SOL     OW 3496   0.877   3.384   1.193
  987SOL    HW1 3497   0.860   3.347   1.106
  987SOL    HW2 3498   0.947   3.329   1.229
  988SOL     OW 3499   1.340   2.451   1.432
  988SOL    HW1 3500   1.371   2.420   1.517
  988SOL    HW2 3501   1.376   2.539   1.424
  989SOL     OW 3502   0.816   3.255   0.941
  989SOL    HW1 3503   0.901   3.244   0.897
  989SOL    HW2 3504   0.752   3.258   0.870
  990SOL     OW 3505   0.928   2.371   0.902
  990SOL    HW1 3506   0.904   2.363   0.810
  990SOL    HW2 3507   0.959   2.284   0.927
  991SOL     OW 3508   0.561   1.924   0.499
  991SOL    HW1 3509   0.486   1.923   0.559
  991SOL    HW2 3510   0.550   2.003   0.447
  992SOL     OW 3511   1.433   3.061   0.035
  992SOL    HW1 3512   1.456   2.988   0.092
  992SOL    HW2 3513   1.345   3.087   0.065
  993SOL     OW 3514   0.314   1.910   0.177
  993SOL    HW1 3515   0.380   1.980   0.181
  993SOL    HW2 3516   0.356   1.835   0.219
  994SOL     OW 3517   0.942   2.110   0.458
  994SOL    HW1 3518   0.914   2.151   0.376
  994SOL    HW2 3519   1.036   2.127   0.462
  995SOL     OW 3520   1.080   2.543   1.459
  995SOL    HW1 3521   1.011   2.476   1.463
  995SOL    HW2 3522   1.161   2.494   1.453
  996SOL     OW 3523   1.223   3.432   0.794
  996SOL    HW1 3524   1.238   3.498   0.727
  996SOL    HW2 3525   1.291   3.448   0.859
  997SOL     OW 3526   0.469   3.013   0.731
  997SOL    HW1 3527   0.400   2.993   0.794
  997SOL    HW2 3528   0.429   2.998   0.645
  998SOL     OW 3529   1.267   3.656   0.608
  998SOL    HW1 3530   1.317   3.719   0.557
  998SOL    HW2 3531   1.200   3.708   0.651
  999SOL     OW 3532   1.030   2.388   0.033
  999SOL    HW1 3533   0.991   2.470   0.001
  999SOL    HW2 3534   1.094   2.416   0.099
 1000SOL     OW 3535   0.089   2.406   1.399
 1000SOL    HW1 3536   0.177   2.414   1.361
 1000SOL    HW2 3537   0.080   2.483   1.456
 1001SOL     OW 3538   0.560   2.090   1.167
 1001SOL    HW1 3539   0.598   2.010   1.205
 1001SOL    HW2 3540   0.468   2.088   1.194
 1002SOL     OW 3541   0.867   2.320   0.639
 1002SOL    HW1 3542   0.825   2.376   0.573
 1002SOL    HW2 3543   0.889   2.240   0.591
 1003SOL     OW 3544   1.016   1.915   0.749
 1003SOL    HW1 3545   0.957   1.908   0.675
 1003SOL    HW2 3546   0.994   1.840   0.805
 1004SOL     OW 3547   1.438   3.024   0.857
 1004SOL    HW1 3548   1.367   2.959   0.856
 1004SOL    HW2 3549   1.462   3.035   0.765
 1005SOL     OW 3550   1.466   2.468   0.975
 1005SOL    HW1 3551   1.413   2.388   0.978
 1005SOL    HW2 3552   1.525   2.462   1.050
 1006SOL     OW 3553   1.851   2.676   0.389
 1006SOL    HW1 3554   1.902   2.622   0.449
 1006SOL    HW2 3555   1.819   2.614   0.323
 1007SOL     OW 3556   0.483   3.303   0.173
 1007SOL    HW1 3557   0.410   3.264   0.222
 1007SOL    HW2 3558   0.489   3.250   0.094
 1008SOL     OW 3559   1.671   3.127   0.647
 1008SOL    HW1 3560   1.766   3.129   0.661
 1008SOL    HW2 3561   1.642   3.215   0.667
 1009SOL     OW 3562   1.399   2.439   0.087
 1009SOL    HW1 3563   1.336   2.421   0.158
 1009SOL    HW2 3564   1.452   2.360   0.082
 1010SOL     OW 3565   0.514   2.126   0.323
 1010SOL    HW1 3566   0.565   2.074   0.261
 1010SOL    HW2 3567   0.500   2.209   0.279
 1011SOL     OW 3568   1.752   3.102   1.572
 1011SOL    HW1 3569   1.839   3.064   1.565
 1011SOL    HW2 3570   1.767   3.192   1.600
 1012SOL     OW 3571   1.058   3.215   1.333
 1012SOL    HW1 3572   0.983   3.184   1.384
 1012SOL    HW2 3573   1.133   3.174   1.374
 1013SOL     OW 3574   1.608   3.488   1.655
 1013SOL    HW1 3575   1.602   3.522   1.565
 1013SOL    HW2 3576   1.691   3.440   1.656
 1014SOL     OW 3577   1.130   3.066   1.105
 1014SOL    HW1 3578   1.071   3.104   1.169
 1014SOL    HW2 3579   1.098   3.099   1.021
 1015SOL     OW 3580   1.627   2.959   1.077
 1015SOL    HW1 3581   1.622   3.022   1.150
 1015SOL    HW2 3582   1.549   2.977   1.025
 1016SOL     OW 3583   0.919   1.958   1.396
 1016SOL    HW1 3584   0.941   1.940   1.305
 1016SOL    HW2 3585   0.998   1.998   1.432
 1017SOL     OW 3586   0.984   2.977   1.723
 1017SOL    HW1 3587   0.892   2.993   1.744
 1017SOL    HW2 3588   0.982   2.899   1.667
 1018SOL     OW 3589   0.716   2.925   0.381
 1018SOL    HW1 3590   0.698   2.907   0.473
 1018SOL    HW2 3591   0.793   2.873   0.361
 1019SOL     OW 3592   0.421   2.682   1.253
 1019SOL    HW1 3593   0.490   2.689   1.319
 1019SOL    HW2 3594   0.386   2.593   1.263
 1020SOL     OW 3595   1.265   2.238   1.276
 1020SOL    HW1 3596   1.298   2.316   1.322
 1020SOL    HW2 3597   1.174   2.260   1.254
 1021SOL     OW 3598   0.102   3.485   1.366
 1021SOL    HW1 3599   0.080   3.491   1.273
 1021SOL    HW2 3600   0.189   3.444   1.368
 1022SOL     OW 3601   0.346   2.972   0.487
 1022SOL    HW1 3602   0.343   3.051   0.434
 1022SOL    HW2 3603   0.357   2.901   0.423
 1023SOL     OW 3604   0.553   2.396   0.859
 1023SOL    HW1 3605   0.568   2.455   0.785
 1023SOL    HW2 3606   0.618   2.423   0.924
 1024SOL     OW 3607   1.247   3.209   0.394
 1024SOL    HW1 3608   1.303   3.282   0.423
 1024SOL    HW2 3609   1.160   3.232   0.426
 1025SOL     OW 3610   1.283   3.320   1.147
 1025SOL    HW1 3611   1.338   3.323   1.225
 1025SOL    HW2 3612   1.227   3.244   1.161
 1026SOL     OW 3613   1.582   2.485   0.483
 1026SOL    HW1 3614   1.532   2.533   0.548
 1026SOL    HW2 3615   1.615   2.552   0.423
 1027SOL     OW 3616   0.352   3.382   1.310
 1027SOL    HW1 3617   0.341   3.338   1.225
 1027SOL    HW2 3618   0.446   3.399   1.316
 1028SOL     OW 3619   0.414   2.604   1.602
 1028SOL    HW1 3620   0.476   2.650   1.545
 1028SOL    HW2 3621   0.454   2.518   1.615
 1029SOL     OW 3622   1.603   2.641   1.683
 1029SOL    HW1 3623   1.517   2.682   1.676
 1029SOL    HW2 3624   1.655   2.683   1.614
 1030SOL     OW 3625   0.996   1.987   1.755
 1030SOL    HW1 3626   1.053   2.059   1.728
 1030SOL    HW2 3627   1.044   1.908   1.729
 1031SOL     OW 3628   0.497   1.903   1.748
 1031SOL    HW1 3629   0.454   1.849   1.682
 1031SOL    HW2 3630   0.438   1.977   1.761
 1032SOL     OW 3631   0.586   2.736   1.033
 1032SOL    HW1 3632   0.617   2.826   1.032
 1032SOL    HW2 3633   0.529   2.731   1.110
 1033SOL     OW 3634   1.356   2.720   1.028
 1033SOL    HW1 3635   1.272   2.711   0.983
 1033SOL    HW2 3636   1.398   2.634   1.021
 1034SOL     OW 3637   1.203   2.389   0.271
 1034SOL    HW1 3638   1.210   2.311   0.325
 1034SOL    HW2 3639   1.160   2.453   0.327
 1035SOL     OW 3640   0.301   2.065   1.247
 1035SOL    HW1 3641   0.267   2.089   1.333
 1035SOL    HW2 3642   0.290   1.970   1.242
 1036SOL     OW 3643   0.067   3.179   1.280
 1036SOL    HW1 3644   0.091   3.121   1.351
 1036SOL    HW2 3645   5.296   3.233   1.316
 1037SOL     OW 3646   0.723   2.492   1.057
 1037SOL    HW1 3647   0.799   2.478   1.000
 1037SOL    HW2 3648   0.695   2.582   1.037
 1038SOL     OW 3649   1.735   2.821   1.854
 1038SOL    HW1 3650   1.689   2.758   1.798
 1038SOL    HW2 3651   1.675   2.836   1.927
 1039SOL     OW 3652   0.325   1.925   0.635
 1039SOL    HW1 3653   0.309   2.015   0.664
 1039SOL    HW2 3654   0.332   1.875   0.716
 1040SOL     OW 3655   1.623   2.238   0.369
 1040SOL    HW1 3656   1.646   2.173   0.435
 1040SOL    HW2 3657   1.597   2.315   0.419
 1041SOL     OW 3658   1.028   2.621   0.960
 1041SOL    HW1 3659   1.024   2.638   1.054
 1041SOL    HW2 3660   1.001   2.529   0.951
 1042SOL     OW 3661   0.982   3.428   1.718
 1042SOL    HW1 3662   0.967   3.472   1.634
 1042SOL    HW2 3663   1.026   3.346   1.694
 1043SOL     OW 3664   1.854   3.367   1.605
 1043SOL    HW1 3665   1.873   3.393   1.515
 1043SOL    HW2 3666   1.935   3.384   1.653
 1044SOL     OW 3667   0.354   2.780   1.806
 1044SOL    HW1 3668   0.435   2.800   1.853
 1044SOL    HW2 3669   0.380   2.715   1.741
 1045SOL     OW 3670   1.516   2.165   0.127
 1045SOL    HW1 3671   1.467   2.084   0.143
 1045SOL    HW2 3672   1.557   2.185   0.211
 1046SOL     OW 3673   1.296   2.685   0.021
 1046SOL    HW1 3674   1.334   2.599   0.038
 1046SOL    HW2 3675   1.357   2.728   8.041
 1047SOL     OW 3676   1.067   3.198   0.855
 1047SOL    HW1 3677   1.070   3.126   0.792
 1047SOL    HW2 3678   1.127   3.263   0.819
 1048SOL     OW 3679   0.313   2.671   0.950
 1048SOL    HW1 3680   0.407   2.690   0.945
 1048SOL    HW2 3681   0.308   2.580   0.981
 1049SOL     OW 3682   0.334   2.388   1.015
 1049SOL    HW1 3683   0.299   2.300   1.001
 1049SOL    HW2 3684   0.409   2.393   0.956
 1050SOL     OW 3685   1.134   2.237   1.683
 1050SOL    HW1 3686   1.086   2.292   1.745
 1050SOL    HW2 3687   1.221   2.276   1.679
 1051SOL     OW 3688   1.161   2.064   1.470
 1051SOL    HW1 3689   1.150   2.127   1.542
 1051SOL    HW2 3690   1.201   2.115   1.400
 1052SOL     OW 3691   0.011   3.188   0.201
 1052SOL    HW1 3692   5.240   3.171   0.140
 1052SOL    HW2 3693   0.014   3.110   0.256
 1053SOL     OW 3694   0.094   3.644   0.950
 1053SOL    HW1 3695   0.059   3.574   0.895
 1053SOL    HW2 3696   0.182   3.661   0.915
 1054SOL     OW 3697   0.505   3.435   0.908
 1054SOL    HW1 3698   0.572   3.501   0.928
 1054SOL    HW2 3699   0.548   3.375   0.847
 1055SOL     OW 3700   0.981   2.652   1.226
 1055SOL    HW1 3701   1.038   2.631   1.300
 1055SOL    HW2 3702   0.896   2.616   1.249
 1056SOL     OW 3703   0.032   2.421   1.116
 1056SOL    HW1 3704   0.120   2.402   1.084
 1056SOL    HW2 3705   0.036   2.405   1.210
 1057SOL     OW 3706   0.173   2.375   1.712
 1057SOL    HW1 3707   0.238   2.337   1.652
 1057SOL    HW2 3708   0.147   2.457   1.669
 1058SOL     OW 3709   1.378   2.800   1.658
 1058SOL    HW1 3710   1.399   2.893   1.656
 1058SOL    HW2 3711   1.374   2.774   1.566
 1059SOL     OW 3712   0.819   2.431   0.369
 1059SOL    HW1 3713   0.829   2.360   0.306
 1059SOL    HW2 3714   0.743   2.480   0.338
 1060SOL     OW 3715   1.641   2.463   1.185
 1060SOL    HW1 3716   1.630   2.405   1.260
 1060SOL    HW2 3717   1.728   2.443   1.150
 1061SOL     OW 3718   0.256   3.418   1.734
 1061SOL    HW1 3719   0.234   3.481   1.803
 1061SOL    HW2 3720   0.250   3.332   1.777
 1062SOL     OW 3721   0.704   2.311   1.258
 1062SOL    HW1 3722   0.650   2.237   1.230
 1062SOL    HW2 3723   0.698   2.374   1.187
 1063SOL     OW 3724   0.928   3.541   1.468
 1063SOL    HW1 3725   0.901   3.505   1.383
 1063SOL    HW2 3726   0.922   3.636   1.457
 1064SOL     OW 3727   0.467   2.352   0.178
 1064SOL    HW1 3728   0.532   2.418   0.200
 1064SOL    HW2 3729   0.383   2.398   0.181
 1065SOL     OW 3730   0.147   2.999   1.471
 1065SOL    HW1 3731   0.145   2.951   1.554
 1065SOL    HW2 3732   0.159   2.931   1.404
 1066SOL     OW 3733   1.325   2.908   1.223
 1066SOL    HW1 3734   1.348   2.845   1.154
 1066SOL    HW2 3735   1.255   2.961   1.183
 1067SOL     OW 3736   1.306   2.709   0.308
 1067SOL    HW1 3737   1.229   2.681   0.357
 1067SOL    HW2 3738   1.283   2.698   0.216
 1068SOL     OW 3739   1.773   3.605   1.151
 1068SOL    HW1 3740   1.833   3.631   1.082
 1068SOL    HW2 3741   1.749   3.515   1.129
 1069SOL     OW 3742   1.241   3.595   1.111
 1069SOL    HW1 3743   1.323   3.616   1.067
 1069SOL    HW2 3744   1.247   3.501   1.130
 1070SOL     OW 3745   0.082   3.076   1.027
 1070SOL    HW1 3746   0.069   3.103   1.118
 1070SOL    HW2 3747   5.294   3.067   0.992
 1071SOL     OW 3748   0.678   3.529   1.731
 1071SOL    HW1 3749   0.621   3.606   1.725
 1071SOL    HW2 3750   0.743   3.541   1.662
 1072SOL     OW 3751   0.905   1.953   0.132
 1072SOL    HW1 3752   0.922   1.937   0.039
 1072SOL    HW2 3753   0.970   1.901   0.177
 1073SOL     OW 3754   1.721   2.009   0.510
 1073SOL    HW1 3755   1.792   1.992   0.448
 1073SOL    HW2 3756   1.704   1.924   0.551
 1074SOL     OW 3757   1.390   3.430   0.487
 1074SOL    HW1 3758   1.453   3.463   0.423
 1074SOL    HW2 3759   1.342   3.508   0.516
 1075SOL     OW 3760   0.146   3.660   1.842
 1075SOL    HW1 3761   0.091   3.597   1.890
 1075SOL    HW2 3762   0.193   3.707   1.911
 1076SOL     OW 3763   1.277   2.788   0.671
 1076SOL    HW1 3764   1.351   2.727   0.678
 1076SOL    HW2 3765   1.311   2.860   0.619
 1077SOL     OW 3766   0.813   3.135   1.429
 1077SOL    HW1 3767   0.784   3.176   1.511
 1077SOL    HW2 3768   0.743   3.156   1.367
 1078SOL     OW 3769   0.678   3.483   0.156
 1078SOL    HW1 3770   0.682   3.491   0.060
 1078SOL    HW2 3771   0.616   3.411   0.171
 1079SOL     OW 3772   1.624   3.589   1.391
 1079SOL    HW1 3773   1.675   3.595   1.310
 1079SOL    HW2 3774   1.611   3.679   1.418
 1080SOL     OW 3775   1.841   2.034   0.966
 1080SOL    HW1 3776   1.869   1.947   0.940
 1080SOL    HW2 3777   1.754   2.044   0.927
 1081SOL     OW 3778   0.270   2.178   0.716
 1081SOL    HW1 3779   0.187   2.222   0.698
 1081SOL    HW2 3780   0.272   2.168   0.811
 1082SOL     OW 3781   1.158   3.442   0.051
 1082SOL    HW1 3782   1.172   3.350   0.072
 1082SOL    HW2 3783   1.169   3.448   8.036
 1083SOL     OW 3784   0.824   2.868   1.373
 1083SOL    HW1 3785   0.867   2.863   1.287
 1083SOL    HW2 3786   0.823   2.961   1.394
 1084SOL     OW 3787   0.919   2.775   0.298
 1084SOL    HW1 3788   0.972   2.799   0.222
 1084SOL    HW2 3789   0.967   2.704   0.340
 1085SOL     OW 3790   1.510   3.485   0.061
 1085SOL    HW1 3791   1.415   3.486   0.049
 1085SOL    HW2 3792   1.546   3.488   8.052
 1086SOL     OW 3793   0.367   3.166   1.493
 1086SOL    HW1 3794   0.359   3.240   1.433
 1086SOL    HW2 3795   0.292   3.111   1.474
 1087SOL     OW 3796   1.610   3.145   1.280
 1087SOL    HW1 3797   1.670   3.134   1.353
 1087SOL    HW2 3798   1.550   3.213   1.309
 1088SOL     OW 3799   1.054   2.970   0.707
 1088SOL    HW1 3800   0.983   2.919   0.746
 1088SOL    HW2 3801   1.116   2.904   0.676
 1089SOL     OW 3802   1.022   2.102   0.966
 1089SOL    HW1 3803   1.017   2.055   0.883
 1089SOL    HW2 3804   1.016   2.034   1.033
 1090SOL     OW 3805   0.603   3.348   0.479
 1090SOL    HW1 3806   0.646   3.299   0.409
 1090SOL    HW2 3807   0.534   3.398   0.434
 1091SOL     OW 3808   1.723   2.254   1.380
 1091SOL    HW1 3809   1.795   2.318   1.379
 1091SOL    HW2 3810   1.753   2.183   1.324
 1092SOL     OW 3811   0.270   3.187   0.300
 1092SOL    HW1 3812   0.185   3.196   0.258
 1092SOL    HW2 3813   0.261   3.234   0.383
 1093SOL     OW 3814   0.117   2.878   1.717
 1093SOL    HW1 3815   0.046   2.843   1.772
 1093SOL    HW2 3816   0.197   2.848   1.759
 1094SOL     OW 3817   0.675   2.058   1.499
 1094SOL    HW1 3818   0.759   2.038   1.458
 1094SOL    HW2 3819   0.698   2.090   1.587
 1095SOL     OW 3820   0.042   2.252   0.027
 1095SOL    HW1 3821   0.019   2.167   0.065
 1095SOL    HW2 3822   0.124   2.236   8.061
 1096SOL     OW 3823   1.429   2.720   1.400
 1096SOL    HW1 3824   1.380   2.781   1.344
 1096SOL    HW2 3825   1.518   2.723   1.365
 1097SOL     OW 3826   0.053   1.997   0.213
 1097SOL    HW1 3827   0.055   2.083   0.256
 1097SOL    HW2 3828   0.145   1.973   0.204
 1098SOL     OW 3829   1.184   3.178   0.122
 1098SOL    HW1 3830   1.088   3.169   0.120
 1098SOL    HW2 3831   1.206   3.180   0.215
 1099SOL     OW 3832   0.620   2.693   1.436
 1099SOL    HW1 3833   0.676   2.768   1.420
 1099SOL    HW2 3834   0.680   2.619   1.443
 1100SOL     OW 3835   1.484   3.639   0.979
 1100SOL    HW1 3836   1.507   3.700   0.909
 1100SOL    HW2 3837   1.567   3.620   1.022
 1101SOL     OW 3838   0.717   2.425   1.704
 1101SOL    HW1 3839   0.759   2.487   1.763
 1101SOL    HW2 3840   0.743   2.339   1.737
 1102SOL     OW 3841   1.472   3.061   1.631
 1102SOL    HW1 3842   1.460   3.075   1.725
 1102SOL    HW2 3843   1.565   3.077   1.617
 1103SOL     OW 3844   0.377   3.605   1.565
 1103SOL    HW1 3845   0.294   3.651   1.548
 1103SOL    HW2 3846   0.350   3.524   1.609
 1104SOL     OW 3847   1.669   2.743   1.255
 1104SOL    HW1 3848   1.662   2.658   1.212
 1104SOL    HW2 3849   1.658   2.807   1.184
 1105SOL     OW 3850   1.217   2.180   0.460
 1105SOL    HW1 3851   1.282   2.109   0.454
 1105SOL    HW2 3852   1.244   2.231   0.536
 1106SOL     OW 3853   0.588   2.598   0.669
 1106SOL    HW1 3854   0.628   2.684   0.656
 1106SOL    HW2 3855   0.518   2.593   0.604
 1107SOL     OW 3856   1.761   2.225   1.650
 1107SOL    HW1 3857   1.744   2.240   1.557
 1107SOL    HW2 3858   1.690   2.168   1.679
 1108SOL     OW 3859   1.746   2.795   1.512
 1108SOL    HW1 3860   1.741   2.890   1.526
 1108SOL    HW2 3861   1.730   2.784   1.418
 1109SOL     OW 3862   0.896   3.233   0.039
 1109SOL    HW1 3863   0.834   3.223   0.110
 1109SOL    HW2 3864   0.877   3.320   0.002
 1110SOL     OW 3865   0.664   3.655   0.942
 1110SOL    HW1 3866   0.643   3.746   0.920
 1110SOL    HW2 3867   0.759   3.650   0.936
 1111SOL     OW 3868   0.868   2.829   0.854
 1111SOL    HW1 3869   0.918   2.758   0.894
 1111SOL    HW2 3870   0.833   2.878   0.929
 1112SOL     OW 3871   1.076   2.836   0.085
 1112SOL    HW1 3872   1.068   2.903   0.017
 1112SOL    HW2 3873   1.154   2.786   0.060
 1113SOL     OW 3874   1.853   3.415   0.843
 1113SOL    HW1 3875   1.774   3.405   0.791
 1113SOL    HW2 3876   1.844   3.351   0.913
 1114SOL     OW 3877   0.226   3.166   1.860
 1114SOL    HW1 3878   0.158   3.104   1.835
 1114SOL    HW2 3879   0.214   3.176   1.955
 1115SOL     OW 3880   0.096   3.096   0.662
 1115SOL    HW1 3881   0.101   3.050   0.746
 1115SOL    HW2 3882   0.170   3.062   0.612
 1116SOL     OW 3883   0.682   3.265   1.629
 1116SOL    HW1 3884   0.601   3.223   1.659
 1116SOL    HW2 3885   0.678   3.354   1.665
 1117SOL     OW 3886   1.814   2.046   1.237
 1117SOL    HW1 3887   1.821   1.952   1.251
 1117SOL    HW2 3888   1.823   2.057   1.143
 1118SOL     OW 3889   0.432   2.301   0.523
 1118SOL    HW1 3890   0.462   2.229   0.469
 1118SOL    HW2 3891   0.387   2.259   0.596
 1119SOL     OW 3892   1.700   3.350   1.095
 1119SOL    HW1 3893   1.619   3.328   1.049
 1119SOL    HW2 3894   1.711   3.281   1.160
 1120SOL     OW 3895   0.338   2.422   1.292
 1120SOL    HW1 3896   0.391   2.363   1.345
 1120SOL    HW2 3897   0.351   2.392   1.202
 1121SOL     OW 3898   0.829   3.439   0.677
 1121SOL    HW1 3899   0.814   3.496   0.602
 1121SOL    HW2 3900   0.753   3.381   0.679
 1122SOL     OW 3901   1.432   2.088   1.118
 1122SOL    HW1 3902   1.454   2.007   1.163
 1122SOL    HW2 3903   1.380   2.137   1.181
 1123SOL     OW 3904   1.009   1.880   1.141
 1123SOL    HW1 3905   0.954   1.813   1.101
 1123SOL    HW2 3906   1.097   1.842   1.143
 1124SOL     OW 3907   0.772   3.188   0.308
 1124SOL    HW1 3908   0.741   3.099   0.324
 1124SOL    HW2 3909   0.852   3.196   0.359
 1125SOL     OW 3910   0.623   3.417   1.288
 1125SOL    HW1 3911   0.624   3.500   1.337
 1125SOL    HW2 3912   0.710   3.412   1.248
 1126SOL     OW 3913   1.356   1.916   0.185
 1126SOL    HW1 3914   1.377   1.870   0.104
 1126SOL    HW2 3915   1.270   1.884   0.211
 1127SOL     OW 3916   1.297   2.324   0.681
 1127SOL    HW1 3917   1.244   2.403   0.687
 1127SOL    HW2 3918   1.292   2.285   0.768
 1128SOL     OW 3919   1.586   2.063   0.879
 1128SOL    HW1 3920   1.526   2.084   0.950
 1128SOL    HW2 3921   1.585   2.141   0.823
 1129SOL     OW 3922   0.047   2.938   0.324
 1129SOL    HW1 3923   0.135   2.915   0.293
 1129SOL    HW2 3924   5.298   2.856   0.318
 1130SOL     OW 3925   0.884   3.516   0.346
 1130SOL    HW1 3926   0.815   3.501   0.282
 1130SOL    HW2 3927   0.853   3.592   0.397
 1131SOL     OW 3928   0.233   2.493   1.979
 1131SOL    HW1 3929   0.161   2.457   2.031
 1131SOL    HW2 3930   0.217   2.460   1.890
 1132SOL     OW 3931   0.243   2.137   2.851
 1132SOL    HW1 3932   0.256   2.103   2.939
 1132SOL    HW2 3933   0.158   2.102   2.824
 1133SOL     OW 3934   5.298   2.261   2.515
 1133SOL    HW1 3935   5.205   2.283   2.520
 1133SOL    HW2 3936   5.299   2.171   2.483
 1134SOL     OW 3937   0.575   3.149   3.046
 1134SOL    HW1 3938   0.493   3.156   2.998
 1134SOL    HW2 3939   0.591   3.236   3.081
 1135SOL     OW 3940   1.563   3.374   2.569
 1135SOL    HW1 3941   1.520   3.353   2.652
 1135SOL    HW2 3942   1.491   3.378   2.506
 1136SOL     OW 3943   1.130   2.560   2.561
 1136SOL    HW1 3944   1.179   2.641   2.548
 1136SOL    HW2 3945   1.084   2.574   2.644
 1137SOL     OW 3946   1.770   2.466   2.090
 1137SOL    HW1 3947   1.748   2.459   1.997
 1137SOL    HW2 3948   1.732   2.388   2.130
 1138SOL     OW 3949   0.754   3.002   2.902
 1138SOL    HW1 3950   0.688   3.037   2.962
 1138SOL    HW2 3951   0.790   3.079   2.858
 1139SOL     OW 3952   0.868   2.635   3.684
 1139SOL    HW1 3953   0.859   2.706   3.747
 1139SOL    HW2 3954   0.891   2.678   3.602
 1140SOL     OW 3955   0.685   2.863   2.509
 1140SOL    HW1 3956   0.751   2.852   2.577
 1140SOL    HW2 3957   0.617   2.917   2.550
 1141SOL     OW 3958   0.710   3.012   3.676
 1141SOL    HW1 3959   0.759   3.090   3.703
 1141SOL    HW2 3960   0.629   3.046   3.639
 1142SOL     OW 3961   0.358   3.266   2.922
 1142SOL    HW1 3962   0.270   3.266   2.886
 1142SOL    HW2 3963   0.407   3.328   2.867
 1143SOL     OW 3964   1.460   3.362   3.218
 1143SOL    HW1 3965   1.512   3.442   3.227
 1143SOL    HW2 3966   1.396   3.366   3.289
 1144SOL     OW 3967   0.451   2.262   3.353
 1144SOL    HW1 3968   0.525   2.202   3.356
 1144SOL    HW2 3969   0.374   2.206   3.363
 1145SOL     OW 3970   1.611   2.310   2.603
 1145SOL    HW1 3971   1.536   2.330   2.547
 1145SOL    HW2 3972   1.622   2.388   2.658
 1146SOL     OW 3973   0.233   3.576   2.339
 1146SOL    HW1 3974   0.264   3.645   2.397
 1146SOL    HW2 3975   0.295   3.573   2.267
 1147SOL     OW 3976   1.136   3.204   3.555
 1147SOL    HW1 3977   1.178   3.198   3.641
 1147SOL    HW2 3978   1.084   3.124   3.548
 1148SOL     OW 3979   0.222   3.307   2.402
 1148SOL    HW1 3980   0.217   3.402   2.396
 1148SOL    HW2 3981   0.151   3.283   2.462
 1149SOL     OW 3982   0.250   2.939   2.736
 1149SOL    HW1 3983   0.262   2.853   2.778
 1149SOL    HW2 3984   0.199   2.989   2.799
 1150SOL     OW 3985   0.612   3.652   3.294
 1150SOL    HW1 3986   0.528   3.635   3.337
 1150SOL    HW2 3987   0.633   3.743   3.317
 1151SOL     OW 3988   0.582   2.846   1.998
 1151SOL    HW1 3989   0.629   2.893   1.929
 1151SOL    HW2 3990   0.623   2.876   2.079
 1152SOL     OW 3991   1.596   1.988   3.328
 1152SOL    HW1 3992   1.606   2.072   3.284
 1152SOL    HW2 3993   1.579   2.010   3.419
 1153SOL     OW 3994   0.126   2.495   2.442
 1153SOL    HW1 3995   0.089   2.412   2.471
 1153SOL    HW2 3996   0.099   2.559   2.508
 1154SOL     OW 3997   1.842   3.620   2.196
 1154SOL    HW1 3998   1.908   3.592   2.260
 1154SOL    HW2 3999   1.865   3.711   2.177
 1155SOL     OW 4000   0.038   3.461   1.995
 1155SOL    HW1 4001   0.025   3.370   2.020
 1155SOL    HW2 4002   5.282   3.511   2.054
 1156SOL     OW 4003   1.688   2.780   2.503
 1156SOL    HW1 4004   1.772   2.738   2.482
 1156SOL    HW2 4005   1.666   2.831   2.425
 1157SOL     OW 4006   1.647   2.968   2.291
 1157SOL    HW1 4007   1.733   2.973   2.249
 1157SOL    HW2 4008   1.652   3.030   2.364
 1158SOL     OW 4009   0.132   2.611   3.446
 1158SOL    HW1 4010   0.227   2.624   3.447
 1158SOL    HW2 4011   0.096   2.697   3.464
 1159SOL     OW 4012   0.616   3.248   2.596
 1159SOL    HW1 4013   0.568   3.166   2.607
 1159SOL    HW2 4014   0.598   3.275   2.506
 1160SOL     OW 4015   1.288   3.100   3.284
 1160SOL    HW1 4016   1.320   3.032   3.224
 1160SOL    HW2 4017   1.345   3.094   3.360
 1161SOL     OW 4018   0.824   1.862   2.372
 1161SOL    HW1 4019   0.864   1.946   2.352
 1161SOL    HW2 4020   0.730   1.880   2.378
 1162SOL     OW 4021   0.175   2.806   3.141
 1162SOL    HW1 4022   0.266   2.776   3.133
 1162SOL    HW2 4023   0.135   2.784   3.057
 1163SOL     OW 4024   1.531   2.856   2.061
 1163SOL    HW1 4025   1.462   2.799   2.094
 1163SOL    HW2 4026   1.573   2.891   2.140
 1164SOL     OW 4027   1.185   3.669   3.485
 1164SOL    HW1 4028   1.194   3.729   3.410
 1164SOL    HW2 4029   1.202   3.582   3.449
 1165SOL     OW 4030   0.338   2.116   3.681
 1165SOL    HW1 4031   0.386   2.198   3.695
 1165SOL    HW2 4032   0.251   2.132   3.715
 1166SOL     OW 4033   1.467   3.282   2.813
 1166SOL    HW1 4034   1.399   3.297   2.878
 1166SOL    HW2 4035   1.455   3.191   2.786
 1167SOL     OW 4036   1.657   3.604   2.440
 1167SOL    HW1 4037   1.639   3.574   2.351
 1167SOL    HW2 4038   1.633   3.530   2.496
 1168SOL     OW 4039   0.595   2.582   2.129
 1168SOL    HW1 4040   0.602   2.664   2.079
 1168SOL    HW2 4041   0.531   2.601   2.197
 1169SOL     OW 4042   1.279   2.216   2.795
 1169SOL    HW1 4043   1.190   2.183   2.803
 1169SOL    HW2 4044   1.330   2.163   2.856
 1170SOL     OW 4045   1.580   3.533   2.171
 1170SOL    HW1 4046   1.671   3.563   2.164
 1170SOL    HW2 4047   1.553   3.516   2.081
 1171SOL     OW 4048   0.791   2.480   3.313
 1171SOL    HW1 4049   0.765   2.455   3.401
 1171SOL    HW2 4050   0.752   2.412   3.257
 1172SOL     OW 4051   1.392   2.334   3.540
 1172SOL    HW1 4052   1.394   2.379   3.624
 1172SOL    HW2 4053   1.456   2.263   3.548
 1173SOL     OW 4054   0.954   2.749   3.445
 1173SOL    HW1 4055   1.008   2.679   3.409
 1173SOL    HW2 4056   0.906   2.783   3.370
 1174SOL     OW 4057   0.992   2.274   3.100
 1174SOL    HW1 4058   0.906   2.295   3.136
 1174SOL    HW2 4059   0.974   2.228   3.018
 1175SOL     OW 4060   1.051   2.560   2.288
 1175SOL    HW1 4061   1.068   2.554   2.382
 1175SOL    HW2 4062   0.969   2.514   2.274
 1176SOL     OW 4063   0.071   2.649   2.672
 1176SOL    HW1 4064   0.152   2.654   2.723
 1176SOL    HW2 4065   0.065   2.734   2.628
 1177SOL     OW 4066   0.129   3.747   3.447
 1177SOL    HW1 4067   0.133   3.719   3.539
 1177SOL    HW2 4068   0.060   3.693   3.408
 1178SOL     OW 4069   0.895   2.211   2.056
 1178SOL    HW1 4070   0.934   2.274   1.995
 1178SOL    HW2 4071   0.910   2.126   2.016
 1179SOL     OW 4072   1.670   2.431   3.707
 1179SOL    HW1 4073   1.638   2.502   3.651
 1179SOL    HW2 4074   1.697   2.362   3.646
 1180SOL     OW 4075   1.377   3.004   2.403
 1180SOL    HW1 4076   1.457   2.992   2.350
 1180SOL    HW2 4077   1.325   3.066   2.353
 1181SOL     OW 4078   0.556   2.045   2.756
 1181SOL    HW1 4079   0.553   2.073   2.847
 1181SOL    HW2 4080   0.552   2.126   2.706
 1182SOL     OW 4081   1.004   3.305   2.333
 1182SOL    HW1 4082   0.969   3.379   2.284
 1182SOL    HW2 4083   0.986   3.327   2.425
 1183SOL     OW 4084   0.357   3.665   2.732
 1183SOL    HW1 4085   0.397   3.580   2.745
 1183SOL    HW2 4086   0.423   3.728   2.763
 1184SOL     OW 4087   1.799   2.917   2.730
 1184SOL    HW1 4088   1.744   2.900   2.653
 1184SOL    HW2 4089   1.737   2.923   2.802
 1185SOL     OW 4090   1.228   3.401   3.375
 1185SOL    HW1 4091   1.214   3.328   3.436
 1185SOL    HW2 4092   1.163   3.387   3.306
 1186SOL     OW 4093   0.315   2.814   2.110
 1186SOL    HW1 4094   0.397   2.838   2.066
 1186SOL    HW2 4095   0.293   2.728   2.075
 1187SOL     OW 4096   1.479   2.605   2.588
 1187SOL    HW1 4097   1.471   2.564   2.674
 1187SOL    HW2 4098   1.556   2.661   2.595
 1188SOL     OW 4099   0.466   3.127   3.600
 1188SOL    HW1 4100   0.439   3.133   3.508
 1188SOL    HW2 4101   0.383   3.127   3.649
 1189SOL     OW 4102   1.122   3.640   2.093
 1189SOL    HW1 4103   1.049   3.598   2.138
 1189SOL    HW2 4104   1.146   3.578   2.023
 1190SOL     OW 4105   0.205   2.141   3.359
 1190SOL    HW1 4106   0.127   2.193   3.343
 1190SOL    HW2 4107   0.173   2.061   3.401
 1191SOL     OW 4108   1.628   3.242   1.950
 1191SOL    HW1 4109   1.587   3.327   1.935
 1191SOL    HW2 4110   1.560   3.178   1.931
 1192SOL     OW 4111   0.471   3.596   2.181
 1192SOL    HW1 4112   0.514   3.654   2.244
 1192SOL    HW2 4113   0.542   3.565   2.125
 1193SOL     OW 4114   1.401   1.969   2.296
 1193SOL    HW1 4115   1.391   1.944   2.204
 1193SOL    HW2 4116   1.496   1.975   2.309
 1194SOL     OW 4117   0.277   3.663   3.073
 1194SOL    HW1 4118   0.307   3.584   3.119
 1194SOL    HW2 4119   0.225   3.630   3.000
 1195SOL     OW 4120   0.939   3.561   2.761
 1195SOL    HW1 4121   1.017   3.509   2.782
 1195SOL    HW2 4122   0.895   3.511   2.692
 1196SOL     OW 4123   0.386   2.558   2.340
 1196SOL    HW1 4124   0.415   2.467   2.350
 1196SOL    HW2 4125   0.293   2.555   2.361
 1197SOL     OW 4126   1.530   2.078   3.588
 1197SOL    HW1 4127   1.542   2.101   3.680
 1197SOL    HW2 4128   1.457   2.016   3.589
 1198SOL     OW 4129   0.635   1.984   1.966
 1198SOL    HW1 4130   0.704   1.918   1.979
 1198SOL    HW2 4131   0.586   1.953   1.890
 1199SOL     OW 4132   0.766   2.140   3.616
 1199SOL    HW1 4133   0.843   2.083   3.616
 1199SOL    HW2 4134   0.719   2.118   3.696
 1200SOL     OW 4135   0.877   3.384   3.055
 1200SOL    HW1 4136   0.861   3.347   2.969
 1200SOL    HW2 4137   0.947   3.329   3.092
 1201SOL     OW 4138   1.340   2.450   3.294
 1201SOL    HW1 4139   1.372   2.419   3.379
 1201SOL    HW2 4140   1.376   2.539   3.286
 1202SOL     OW 4141   0.816   3.255   2.803
 1202SOL    HW1 4142   0.901   3.244   2.759
 1202SOL    HW2 4143   0.752   3.258   2.732
 1203SOL     OW 4144   0.928   2.371   2.765
 1203SOL    HW1 4145   0.904   2.363   2.672
 1203SOL    HW2 4146   0.959   2.284   2.790
 1204SOL     OW 4147   0.561   1.923   2.357
 1204SOL    HW1 4148   0.486   1.923   2.417
 1204SOL    HW2 4149   0.550   2.002   2.304
 1205SOL     OW 4150   1.428   3.060   1.903
 1205SOL    HW1 4151   1.458   2.985   1.953
 1205SOL    HW2 4152   1.343   3.082   1.940
 1206SOL     OW 4153   0.306   1.909   2.041
 1206SOL    HW1 4154   0.368   1.973   2.006
 1206SOL    HW2 4155   0.360   1.845   2.086
 1207SOL     OW 4156   0.940   2.110   2.321
 1207SOL    HW1 4157   0.914   2.151   2.238
 1207SOL    HW2 4158   1.035   2.125   2.326
 1208SOL     OW 4159   1.080   2.543   3.321
 1208SOL    HW1 4160   1.013   2.475   3.326
 1208SOL    HW2 4161   1.163   2.495   3.315
 1209SOL     OW 4162   1.223   3.432   2.656
 1209SOL    HW1 4163   1.238   3.499   2.589
 1209SOL    HW2 4164   1.291   3.447   2.721
 1210SOL     OW 4165   0.468   3.013   2.592
 1210SOL    HW1 4166   0.399   2.992   2.655
 1210SOL    HW2 4167   0.428   2.995   2.507
 1211SOL     OW 4168   1.268   3.655   2.471
 1211SOL    HW1 4169   1.315   3.717   2.414
 1211SOL    HW2 4170   1.201   3.708   2.514
 1212SOL     OW 4171   1.023   2.402   1.886
 1212SOL    HW1 4172   0.980   2.486   1.866
 1212SOL    HW2 4173   1.089   2.424   1.952
 1213SOL     OW 4174   0.089   2.406   3.261
 1213SOL    HW1 4175   0.176   2.414   3.223
 1213SOL    HW2 4176   0.080   2.483   3.318
 1214SOL     OW 4177   0.560   2.090   3.029
 1214SOL    HW1 4178   0.598   2.011   3.068
 1214SOL    HW2 4179   0.468   2.088   3.056
 1215SOL     OW 4180   0.868   2.321   2.501
 1215SOL    HW1 4181   0.822   2.375   2.437
 1215SOL    HW2 4182   0.889   2.241   2.454
 1216SOL     OW 4183   1.016   1.915   2.612
 1216SOL    HW1 4184   0.957   1.908   2.537
 1216SOL    HW2 4185   0.994   1.840   2.668
 1217SOL     OW 4186   1.437   3.025   2.719
 1217SOL    HW1 4187   1.368   2.959   2.719
 1217SOL    HW2 4188   1.460   3.035   2.626
 1218SOL     OW 4189   1.467   2.468   2.837
 1218SOL    HW1 4190   1.414   2.389   2.841
 1218SOL    HW2 4191   1.527   2.461   2.911
 1219SOL     OW 4192   1.845   2.677   2.245
 1219SOL    HW1 4193   1.902   2.626   2.303
 1219SOL    HW2 4194   1.817   2.614   2.179
 1220SOL     OW 4195   0.491   3.281   2.019
 1220SOL    HW1 4196   0.416   3.253   2.071
 1220SOL    HW2 4197   0.477   3.242   1.933
 1221SOL     OW 4198   1.671   3.126   2.507
 1221SOL    HW1 4199   1.766   3.128   2.521
 1221SOL    HW2 4200   1.641   3.214   2.528
 1222SOL     OW 4201   1.394   2.434   1.933
 1222SOL    HW1 4202   1.332   2.414   2.004
 1222SOL    HW2 4203   1.478   2.402   1.965
 1223SOL     OW 4204   0.524   2.125   2.178
 1223SOL    HW1 4205   0.571   2.079   2.108
 1223SOL    HW2 4206   0.501   2.209   2.139
 1224SOL     OW 4207   1.747   3.100   3.435
 1224SOL    HW1 4208   1.830   3.054   3.451
 1224SOL    HW2 4209   1.767   3.192   3.450
 1225SOL     OW 4210   1.058   3.215   3.195
 1225SOL    HW1 4211   0.983   3.184   3.246
 1225SOL    HW2 4212   1.134   3.174   3.236
 1226SOL     OW 4213   1.607   3.490   3.517
 1226SOL    HW1 4214   1.600   3.524   3.428
 1226SOL    HW2 4215   1.686   3.436   3.516
 1227SOL     OW 4216   1.129   3.066   2.966
 1227SOL    HW1 4217   1.070   3.105   3.031
 1227SOL    HW2 4218   1.097   3.100   2.882
 1228SOL     OW 4219   1.628   2.961   2.938
 1228SOL    HW1 4220   1.623   3.022   3.011
 1228SOL    HW2 4221   1.549   2.977   2.887
 1229SOL     OW 4222   0.919   1.958   3.258
 1229SOL    HW1 4223   0.941   1.940   3.167
 1229SOL    HW2 4224   0.998   1.998   3.295
 1230SOL     OW 4225   0.984   2.977   3.584
 1230SOL    HW1 4226   0.892   2.993   3.606
 1230SOL    HW2 4227   0.983   2.899   3.529
 1231SOL     OW 4228   0.708   2.922   2.234
 1231SOL    HW1 4229   0.696   2.906   2.328
 1231SOL    HW2 4230   0.784   2.869   2.210
 1232SOL     OW 4231   0.421   2.682   3.115
 1232SOL    HW1 4232   0.490   2.689   3.181
 1232SOL    HW2 4233   0.387   2.593   3.125
 1233SOL     OW 4234   1.265   2.239   3.138
 1233SOL    HW1 4235   1.297   2.316   3.184
 1233SOL    HW2 4236   1.174   2.261   3.116
 1234SOL     OW 4237   0.102   3.485   3.228
 1234SOL    HW1 4238   0.081   3.492   3.135
 1234SOL    HW2 4239   0.189   3.444   3.230
 1235SOL     OW 4240   0.342   2.970   2.348
 1235SOL    HW1 4241   0.350   3.049   2.295
 1235SOL    HW2 4242   0.349   2.897   2.286
 1236SOL     OW 4243   0.553   2.397   2.721
 1236SOL    HW1 4244   0.568   2.456   2.647
 1236SOL    HW2 4245   0.618   2.423   2.786
 1237SOL     OW 4246   1.248   3.210   2.251
 1237SOL    HW1 4247   1.304   3.282   2.282
 1237SOL    HW2 4248   1.161   3.232   2.285
 1238SOL     OW 4249   1.283   3.320   3.009
 1238SOL    HW1 4250   1.339   3.323   3.087
 1238SOL    HW2 4251   1.227   3.243   3.023
 1239SOL     OW 4252   1.581   2.484   2.341
 1239SOL    HW1 4253   1.533   2.535   2.407
 1239SOL    HW2 4254   1.625   2.550   2.287
 1240SOL     OW 4255   0.352   3.382   3.172
 1240SOL    HW1 4256   0.341   3.338   3.087
 1240SOL    HW2 4257   0.446   3.399   3.178
 1241SOL     OW 4258   0.415   2.604   3.464
 1241SOL    HW1 4259   0.476   2.650   3.407
 1241SOL    HW2 4260   0.454   2.518   3.478
 1242SOL     OW 4261   1.588   2.621   3.529
 1242SOL    HW1 4262   1.500   2.660   3.527
 1242SOL    HW2 4263   1.639   2.676   3.470
 1243SOL     OW 4264   0.996   1.987   3.617
 1243SOL    HW1 4265   1.052   2.060   3.591
 1243SOL    HW2 4266   1.044   1.909   3.591
 1244SOL     OW 4267   0.497   1.902   3.610
 1244SOL    HW1 4268   0.454   1.849   3.544
 1244SOL    HW2 4269   0.438   1.977   3.623
 1245SOL     OW 4270   0.585   2.736   2.894
 1245SOL    HW1 4271   0.618   2.826   2.895
 1245SOL    HW2 4272   0.529   2.731   2.972
 1246SOL     OW 4273   1.356   2.722   2.888
 1246SOL    HW1 4274   1.271   2.709   2.845
 1246SOL    HW2 4275   1.398   2.636   2.884
 1247SOL     OW 4276   1.204   2.390   2.128
 1247SOL    HW1 4277   1.212   2.312   2.183
 1247SOL    HW2 4278   1.161   2.455   2.184
 1248SOL     OW 4279   0.301   2.065   3.110
 1248SOL    HW1 4280   0.267   2.089   3.196
 1248SOL    HW2 4281   0.289   1.970   3.105
 1249SOL     OW 4282   0.066   3.179   3.142
 1249SOL    HW1 4283   0.091   3.121   3.213
 1249SOL    HW2 4284   5.296   3.233   3.178
 1250SOL     OW 4285   0.723   2.493   2.919
 1250SOL    HW1 4286   0.799   2.477   2.862
 1250SOL    HW2 4287   0.696   2.582   2.898
 1251SOL     OW 4288   1.697   2.778   3.738
 1251SOL    HW1 4289   1.648   2.748   3.662
 1251SOL    HW2 4290   1.630   2.805   3.801
 1252SOL     OW 4291   0.327   1.924   2.496
 1252SOL    HW1 4292   0.307   2.013   2.523
 1252SOL    HW2 4293   0.333   1.875   2.578
 1253SOL     OW 4294   1.617   2.237   2.228
 1253SOL    HW1 4295   1.645   2.173   2.293
 1253SOL    HW2 4296   1.595   2.315   2.278
 1254SOL     OW 4297   1.028   2.621   2.822
 1254SOL    HW1 4298   1.024   2.638   2.916
 1254SOL    HW2 4299   1.002   2.529   2.814
 1255SOL     OW 4300   0.982   3.428   3.580
 1255SOL    HW1 4301   0.967   3.472   3.496
 1255SOL    HW2 4302   1.026   3.346   3.556
 1256SOL     OW 4303   1.844   3.356   3.458
 1256SOL    HW1 4304   1.867   3.389   3.371
 1256SOL    HW2 4305   1.919   3.379   3.513
 1257SOL     OW 4306   0.354   2.780   3.668
 1257SOL    HW1 4307   0.435   2.800   3.716
 1257SOL    HW2 4308   0.380   2.715   3.603
 1258SOL     OW 4309   1.529   2.134   1.989
 1258SOL    HW1 4310   1.464   2.070   2.016
 1258SOL    HW2 4311   1.562   2.170   2.071
 1259SOL     OW 4312   1.290   2.688   1.892
 1259SOL    HW1 4313   1.334   2.602   1.896
 1259SOL    HW2 4314   1.322   2.727   1.811
 1260SOL     OW 4315   1.066   3.198   2.716
 1260SOL    HW1 4316   1.070   3.126   2.653
 1260SOL    HW2 4317   1.127   3.263   2.681
 1261SOL     OW 4318   0.313   2.671   2.812
 1261SOL    HW1 4319   0.407   2.690   2.809
 1261SOL    HW2 4320   0.308   2.581   2.843
 1262SOL     OW 4321   0.334   2.388   2.877
 1262SOL    HW1 4322   0.299   2.300   2.863
 1262SOL    HW2 4323   0.409   2.394   2.818
 1263SOL     OW 4324   1.133   2.236   3.545
 1263SOL    HW1 4325   1.086   2.292   3.608
 1263SOL    HW2 4326   1.221   2.274   3.542
 1264SOL     OW 4327   1.161   2.064   3.332
 1264SOL    HW1 4328   1.150   2.127   3.404
 1264SOL    HW2 4329   1.201   2.115   3.262
 1265SOL     OW 4330   0.002   3.191   2.072
 1265SOL    HW1 4331   5.230   3.178   2.011
 1265SOL    HW2 4332   0.013   3.105   2.114
 1266SOL     OW 4333   0.094   3.643   2.814
 1266SOL    HW1 4334   0.060   3.574   2.757
 1266SOL    HW2 4335   0.181   3.663   2.779
 1267SOL     OW 4336   0.505   3.436   2.770
 1267SOL    HW1 4337   0.572   3.501   2.790
 1267SOL    HW2 4338   0.548   3.375   2.710
 1268SOL     OW 4339   0.981   2.653   3.088
 1268SOL    HW1 4340   1.039   2.631   3.161
 1268SOL    HW2 4341   0.896   2.615   3.112
 1269SOL     OW 4342   0.032   2.425   2.978
 1269SOL    HW1 4343   0.118   2.401   2.945
 1269SOL    HW2 4344   0.037   2.406   3.072
 1270SOL     OW 4345   0.173   2.375   3.574
 1270SOL    HW1 4346   0.238   2.337   3.515
 1270SOL    HW2 4347   0.147   2.457   3.531
 1271SOL     OW 4348   1.376   2.800   3.520
 1271SOL    HW1 4349   1.400   2.893   3.519
 1271SOL    HW2 4350   1.375   2.774   3.428
 1272SOL     OW 4351   0.816   2.431   2.224
 1272SOL    HW1 4352   0.821   2.357   2.163
 1272SOL    HW2 4353   0.743   2.483   2.192
 1273SOL     OW 4354   1.645   2.457   3.045
 1273SOL    HW1 4355   1.626   2.403   3.121
 1273SOL    HW2 4356   1.734   2.433   3.020
 1274SOL     OW 4357   0.256   3.417   3.596
 1274SOL    HW1 4358   0.234   3.481   3.665
 1274SOL    HW2 4359   0.250   3.332   3.639
 1275SOL     OW 4360   0.704   2.311   3.120
 1275SOL    HW1 4361   0.650   2.237   3.092
 1275SOL    HW2 4362   0.698   2.374   3.049
 1276SOL     OW 4363   0.927   3.541   3.330
 1276SOL    HW1 4364   0.901   3.505   3.245
 1276SOL    HW2 4365   0.921   3.636   3.319
 1277SOL     OW 4366   0.464   2.355   2.046
 1277SOL    HW1 4367   0.525   2.426   2.069
 1277SOL    HW2 4368   0.380   2.398   2.033
 1278SOL     OW 4369   0.147   2.999   3.333
 1278SOL    HW1 4370   0.145   2.951   3.416
 1278SOL    HW2 4371   0.159   2.931   3.266
 1279SOL     OW 4372   1.325   2.909   3.083
 1279SOL    HW1 4373   1.348   2.846   3.016
 1279SOL    HW2 4374   1.255   2.962   3.044
 1280SOL     OW 4375   1.313   2.718   2.168
 1280SOL    HW1 4376   1.237   2.689   2.218
 1280SOL    HW2 4377   1.287   2.705   2.076
 1281SOL     OW 4378   1.772   3.605   3.012
 1281SOL    HW1 4379   1.833   3.631   2.943
 1281SOL    HW2 4380   1.748   3.515   2.991
 1282SOL     OW 4381   1.241   3.595   2.974
 1282SOL    HW1 4382   1.323   3.616   2.929
 1282SOL    HW2 4383   1.247   3.501   2.992
 1283SOL     OW 4384   0.082   3.077   2.889
 1283SOL    HW1 4385   0.070   3.103   2.980
 1283SOL    HW2 4386   5.294   3.066   2.855
 1284SOL     OW 4387   0.678   3.529   3.593
 1284SOL    HW1 4388   0.621   3.606   3.586
 1284SOL    HW2 4389   0.743   3.541   3.524
 1285SOL     OW 4390   1.720   2.010   2.371
 1285SOL    HW1 4391   1.792   1.995   2.310
 1285SOL    HW2 4392   1.704   1.925   2.411
 1286SOL     OW 4393   1.391   3.430   2.348
 1286SOL    HW1 4394   1.451   3.462   2.281
 1286SOL    HW2 4395   1.342   3.507   2.376
 1287SOL     OW 4396   0.146   3.660   3.704
 1287SOL    HW1 4397   0.091   3.597   3.751
 1287SOL    HW2 4398   0.193   3.707   3.773
 1288SOL     OW 4399   1.277   2.788   2.532
 1288SOL    HW1 4400   1.351   2.727   2.540
 1288SOL    HW2 4401   1.311   2.860   2.480
 1289SOL     OW 4402   0.813   3.135   3.291
 1289SOL    HW1 4403   0.784   3.175   3.373
 1289SOL    HW2 4404   0.743   3.156   3.229
 1290SOL     OW 4405   0.672   3.482   2.017
 1290SOL    HW1 4406   0.683   3.496   1.923
 1290SOL    HW2 4407   0.617   3.405   2.024
 1291SOL     OW 4408   1.624   3.589   3.253
 1291SOL    HW1 4409   1.675   3.595   3.172
 1291SOL    HW2 4410   1.611   3.680   3.279
 1292SOL     OW 4411   1.841   2.035   2.823
 1292SOL    HW1 4412   1.868   1.947   2.798
 1292SOL    HW2 4413   1.754   2.045   2.786
 1293SOL     OW 4414   0.273   2.179   2.579
 1293SOL    HW1 4415   0.188   2.217   2.560
 1293SOL    HW2 4416   0.273   2.168   2.674
 1294SOL     OW 4417   1.208   3.467   1.894
 1294SOL    HW1 4418   1.197   3.376   1.920
 1294SOL    HW2 4419   1.142   3.480   1.825
 1295SOL     OW 4420   0.824   2.868   3.235
 1295SOL    HW1 4421   0.868   2.863   3.150
 1295SOL    HW2 4422   0.823   2.961   3.256
 1296SOL     OW 4423   0.915   2.772   2.152
 1296SOL    HW1 4424   0.976   2.805   2.086
 1296SOL    HW2 4425   0.964   2.704   2.198
 1297SOL     OW 4426   1.491   3.487   1.905
 1297SOL    HW1 4427   1.397   3.481   1.891
 1297SOL    HW2 4428   1.528   3.493   1.817
 1298SOL     OW 4429   0.367   3.166   3.355
 1298SOL    HW1 4430   0.359   3.240   3.295
 1298SOL    HW2 4431   0.291   3.111   3.336
 1299SOL     OW 4432   1.611   3.147   3.140
 1299SOL    HW1 4433   1.672   3.134   3.213
 1299SOL    HW2 4434   1.550   3.213   3.171
 1300SOL     OW 4435   1.054   2.969   2.569
 1300SOL    HW1 4436   0.983   2.918   2.608
 1300SOL    HW2 4437   1.117   2.904   2.539
 1301SOL     OW 4438   1.022   2.103   2.828
 1301SOL    HW1 4439   1.017   2.055   2.745
 1301SOL    HW2 4440   1.016   2.035   2.895
 1302SOL     OW 4441   0.602   3.349   2.343
 1302SOL    HW1 4442   0.648   3.301   2.274
 1302SOL    HW2 4443   0.534   3.398   2.296
 1303SOL     OW 4444   1.722   2.245   3.242
 1303SOL    HW1 4445   1.793   2.310   3.247
 1303SOL    HW2 4446   1.757   2.176   3.186
 1304SOL     OW 4447   0.261   3.210   2.155
 1304SOL    HW1 4448   0.168   3.212   2.132
 1304SOL    HW2 4449   0.264   3.247   2.243
 1305SOL     OW 4450   0.117   2.878   3.579
 1305SOL    HW1 4451   0.046   2.843   3.634
 1305SOL    HW2 4452   0.197   2.848   3.621
 1306SOL     OW 4453   0.675   2.058   3.361
 1306SOL    HW1 4454   0.759   2.038   3.320
 1306SOL    HW2 4455   0.697   2.090   3.449
 1307SOL     OW 4456   0.084   2.210   1.903
 1307SOL    HW1 4457   0.004   2.162   1.880
 1307SOL    HW2 4458   0.099   2.269   1.829
 1308SOL     OW 4459   1.423   2.719   3.262
 1308SOL    HW1 4460   1.377   2.781   3.205
 1308SOL    HW2 4461   1.514   2.725   3.234
 1309SOL     OW 4462   0.056   1.995   2.105
 1309SOL    HW1 4463   0.055   2.090   2.094
 1309SOL    HW2 4464   0.145   1.969   2.082
 1310SOL     OW 4465   1.179   3.200   1.979
 1310SOL    HW1 4466   1.088   3.171   1.981
 1310SOL    HW2 4467   1.206   3.201   2.071
 1311SOL     OW 4468   0.619   2.693   3.298
 1311SOL    HW1 4469   0.676   2.768   3.282
 1311SOL    HW2 4470   0.680   2.619   3.305
 1312SOL     OW 4471   1.484   3.640   2.842
 1312SOL    HW1 4472   1.506   3.700   2.771
 1312SOL    HW2 4473   1.567   3.621   2.885
 1313SOL     OW 4474   0.717   2.426   3.566
 1313SOL    HW1 4475   0.760   2.488   3.625
 1313SOL    HW2 4476   0.744   2.340   3.599
 1314SOL     OW 4477   1.469   3.063   3.494
 1314SOL    HW1 4478   1.457   3.076   3.588
 1314SOL    HW2 4479   1.562   3.077   3.479
 1315SOL     OW 4480   0.376   3.605   3.427
 1315SOL    HW1 4481   0.294   3.651   3.410
 1315SOL    HW2 4482   0.350   3.524   3.472
 1316SOL     OW 4483   1.663   2.743   3.120
 1316SOL    HW1 4484   1.665   2.657   3.077
 1316SOL    HW2 4485   1.659   2.806   3.047
 1317SOL     OW 4486   1.216   2.181   2.320
 1317SOL    HW1 4487   1.279   2.109   2.312
 1317SOL    HW2 4488   1.245   2.230   2.397
 1318SOL     OW 4489   0.590   2.598   2.531
 1318SOL    HW1 4490   0.629   2.685   2.517
 1318SOL    HW2 4491   0.521   2.592   2.465
 1319SOL     OW 4492   1.740   2.237   3.522
 1319SOL    HW1 4493   1.744   2.234   3.427
 1319SOL    HW2 4494   1.680   2.166   3.546
 1320SOL     OW 4495   1.698   2.820   3.386
 1320SOL    HW1 4496   1.713   2.914   3.383
 1320SOL    HW2 4497   1.715   2.791   3.296
 1321SOL     OW 4498   0.863   3.229   1.898
 1321SOL    HW1 4499   0.825   3.257   1.980
 1321SOL    HW2 4500   0.881   3.309   1.850
 1322SOL     OW 4501   0.664   3.655   2.804
 1322SOL    HW1 4502   0.643   3.745   2.782
 1322SOL    HW2 4503   0.759   3.650   2.798
 1323SOL     OW 4504   0.868   2.829   2.716
 1323SOL    HW1 4505   0.918   2.758   2.755
 1323SOL    HW2 4506   0.833   2.878   2.790
 1324SOL     OW 4507   1.078   2.849   1.951
 1324SOL    HW1 4508   1.057   2.901   1.873
 1324SOL    HW2 4509   1.153   2.796   1.924
 1325SOL     OW 4510   1.852   3.416   2.706
 1325SOL    HW1 4511   1.774   3.405   2.652
 1325SOL    HW2 4512   1.843   3.351   2.775
 1326SOL     OW 4513   0.226   3.166   3.722
 1326SOL    HW1 4514   0.158   3.103   3.697
 1326SOL    HW2 4515   0.215   3.176   3.817
 1327SOL     OW 4516   0.088   3.080   2.517
 1327SOL    HW1 4517   0.103   3.049   2.606
 1327SOL    HW2 4518   0.175   3.079   2.476
 1328SOL     OW 4519   0.682   3.265   3.491
 1328SOL    HW1 4520   0.601   3.223   3.521
 1328SOL    HW2 4521   0.677   3.354   3.527
 1329SOL     OW 4522   1.832   2.047   3.094
 1329SOL    HW1 4523   1.828   1.953   3.112
 1329SOL    HW2 4524   1.829   2.053   2.998
 1330SOL     OW 4525   0.435   2.298   2.386
 1330SOL    HW1 4526   0.463   2.225   2.330
 1330SOL    HW2 4527   0.388   2.256   2.458
 1331SOL     OW 4528   1.699   3.350   2.957
 1331SOL    HW1 4529   1.619   3.330   2.908
 1331SOL    HW2 4530   1.704   3.281   3.023
 1332SOL     OW 4531   0.337   2.422   3.154
 1332SOL    HW1 4532   0.390   2.364   3.207
 1332SOL    HW2 4533   0.351   2.392   3.064
 1333SOL     OW 4534   0.829   3.439   2.539
 1333SOL    HW1 4535   0.814   3.497   2.464
 1333SOL    HW2 4536   0.753   3.382   2.541
 1334SOL     OW 4537   1.432   2.088   2.981
 1334SOL    HW1 4538   1.454   2.007   3.027
 1334SOL    HW2 4539   1.380   2.138   3.044
 1335SOL     OW 4540   1.009   1.880   3.003
 1335SOL    HW1 4541   0.955   1.813   2.962
 1335SOL    HW2 4542   1.097   1.842   3.005
 1336SOL     OW 4543   0.772   3.195   2.178
 1336SOL    HW1 4544   0.743   3.104   2.185
 1336SOL    HW2 4545   0.854   3.197   2.228
 1337SOL     OW 4546   0.623   3.417   3.150
 1337SOL    HW1 4547   0.624   3.500   3.199
 1337SOL    HW2 4548   0.710   3.412   3.110
 1338SOL     OW 4549   1.353   1.916   2.028
 1338SOL    HW1 4550   1.382   1.850   1.964
 1338SOL    HW2 4551   1.265   1.887   2.054
 1339SOL     OW 4552   1.297   2.323   2.542
 1339SOL    HW1 4553   1.244   2.402   2.549
 1339SOL    HW2 4554   1.292   2.284   2.630
 1340SOL     OW 4555   1.586   2.064   2.741
 1340SOL    HW1 4556   1.526   2.084   2.813
 1340SOL    HW2 4557   1.584   2.142   2.685
 1341SOL     OW 4558   0.048   2.930   2.152
 1341SOL    HW1 4559   0.137   2.897   2.141
 1341SOL    HW2 4560   5.300   2.856   2.188
 1342SOL     OW 4561   0.886   3.515   2.203
 1342SOL    HW1 4562   0.813   3.500   2.143
 1342SOL    HW2 4563   0.859   3.590   2.256
 1343SOL     OW 4564   0.232   2.493   3.841
 1343SOL    HW1 4565   0.161   2.457   3.893
 1343SOL    HW2 4566   0.217   2.460   3.752
 1344SOL     OW 4567   0.243   2.137   4.713
 1344SOL    HW1 4568   0.256   2.103   4.801
 1344SOL    HW2 4569   0.158   2.102   4.686
 1345SOL     OW 4570   5.298   2.261   4.377
 1345SOL    HW1 4571   5.205   2.283   4.382
 1345SOL    HW2 4572   5.300   2.171   4.345
 1346SOL     OW 4573   0.575   3.149   4.908
 1346SOL    HW1 4574   0.493   3.156   4.860
 1346SOL    HW2 4575   0.591   3.236   4.943
 1347SOL     OW 4576   1.557   3.375   4.431
 1347SOL    HW1 4577   1.515   3.354   4.514
 1347SOL    HW2 4578   1.485   3.381   4.368
 1348SOL     OW 4579   1.127   2.561   4.423
 1348SOL    HW1 4580   1.178   2.641   4.409
 1348SOL    HW2 4581   1.083   2.575   4.507
 1349SOL     OW 4582   1.733   2.478   3.975
 1349SOL    HW1 4583   1.724   2.475   3.880
 1349SOL    HW2 4584   1.723   2.388   4.004
 1350SOL     OW 4585   0.754   3.002   4.764
 1350SOL    HW1 4586   0.688   3.037   4.824
 1350SOL    HW2 4587   0.790   3.079   4.721
 1351SOL     OW 4588   0.868   2.634   5.546
 1351SOL    HW1 4589   0.858   2.706   5.609
 1351SOL    HW2 4590   0.891   2.677   5.464
 1352SOL     OW 4591   0.685   2.863   4.370
 1352SOL    HW1 4592   0.752   2.852   4.438
 1352SOL    HW2 4593   0.618   2.917   4.412
 1353SOL     OW 4594   0.710   3.012   5.538
 1353SOL    HW1 4595   0.759   3.090   5.565
 1353SOL    HW2 4596   0.629   3.046   5.501
 1354SOL     OW 4597   0.358   3.266   4.784
 1354SOL    HW1 4598   0.270   3.266   4.747
 1354SOL    HW2 4599   0.407   3.328   4.729
 1355SOL     OW 4600   1.460   3.363   5.080
 1355SOL    HW1 4601   1.512   3.443   5.090
 1355SOL    HW2 4602   1.396   3.365   5.151
 1356SOL     OW 4603   0.451   2.262   5.216
 1356SOL    HW1 4604   0.525   2.202   5.218
 1356SOL    HW2 4605   0.374   2.206   5.226
 1357SOL     OW 4606   1.592   2.302   4.472
 1357SOL    HW1 4607   1.528   2.332   4.408
 1357SOL    HW2 4608   1.647   2.378   4.489
 1358SOL     OW 4609   0.232   3.576   4.201
 1358SOL    HW1 4610   0.264   3.646   4.259
 1358SOL    HW2 4611   0.295   3.573   4.129
 1359SOL     OW 4612   1.137   3.204   5.417
 1359SOL    HW1 4613   1.178   3.198   5.503
 1359SOL    HW2 4614   1.085   3.124   5.410
 1360SOL     OW 4615   0.222   3.307   4.264
 1360SOL    HW1 4616   0.217   3.403   4.258
 1360SOL    HW2 4617   0.152   3.283   4.324
 1361SOL     OW 4618   0.250   2.938   4.598
 1361SOL    HW1 4619   0.262   2.853   4.640
 1361SOL    HW2 4620   0.198   2.989   4.661
 1362SOL     OW 4621   0.612   3.652   5.156
 1362SOL    HW1 4622   0.528   3.635   5.199
 1362SOL    HW2 4623   0.633   3.743   5.179
 1363SOL     OW 4624   0.582   2.846   3.860
 1363SOL    HW1 4625   0.629   2.892   3.791
 1363SOL    HW2 4626   0.623   2.876   3.941
 1364SOL     OW 4627   1.595   1.985   5.192
 1364SOL    HW1 4628   1.608   2.065   5.140
 1364SOL    HW2 4629   1.580   2.017   5.281
 1365SOL     OW 4630   0.126   2.496   4.304
 1365SOL    HW1 4631   0.089   2.412   4.333
 1365SOL    HW2 4632   0.098   2.559   4.370
 1366SOL     OW 4633   1.840   3.623   4.061
 1366SOL    HW1 4634   1.906   3.593   4.123
 1366SOL    HW2 4635   1.865   3.713   4.041
 1367SOL     OW 4636   0.038   3.461   3.856
 1367SOL    HW1 4637   0.025   3.370   3.882
 1367SOL    HW2 4638   5.282   3.511   3.916
 1368SOL     OW 4639   1.688   2.758   4.347
 1368SOL    HW1 4640   1.780   2.758   4.323
 1368SOL    HW2 4641   1.648   2.824   4.291
 1369SOL     OW 4642   1.633   2.969   4.162
 1369SOL    HW1 4643   1.713   2.968   4.110
 1369SOL    HW2 4644   1.649   3.033   4.231
 1370SOL     OW 4645   0.132   2.611   5.308
 1370SOL    HW1 4646   0.227   2.624   5.309
 1370SOL    HW2 4647   0.096   2.697   5.326
 1371SOL     OW 4648   0.616   3.248   4.458
 1371SOL    HW1 4649   0.569   3.166   4.469
 1371SOL    HW2 4650   0.598   3.275   4.368
 1372SOL     OW 4651   1.288   3.101   5.147
 1372SOL    HW1 4652   1.318   3.032   5.087
 1372SOL    HW2 4653   1.347   3.094   5.223
 1373SOL     OW 4654   0.824   1.861   4.234
 1373SOL    HW1 4655   0.864   1.946   4.214
 1373SOL    HW2 4656   0.730   1.881   4.240
 1374SOL     OW 4657   0.175   2.806   5.003
 1374SOL    HW1 4658   0.266   2.776   4.995
 1374SOL    HW2 4659   0.135   2.784   4.919
 1375SOL     OW 4660   1.516   2.861   3.929
 1375SOL    HW1 4661   1.449   2.803   3.963
 1375SOL    HW2 4662   1.561   2.894   4.007
 1376SOL     OW 4663   1.185   3.669   5.347
 1376SOL    HW1 4664   1.194   3.729   5.272
 1376SOL    HW2 4665   1.202   3.582   5.311
 1377SOL     OW 4666   0.338   2.115   5.544
 1377SOL    HW1 4667   0.385   2.198   5.556
 1377SOL    HW2 4668   0.250   2.132   5.578
 1378SOL     OW 4669   1.466   3.283   4.675
 1378SOL    HW1 4670   1.399   3.298   4.741
 1378SOL    HW2 4671   1.455   3.192   4.649
 1379SOL     OW 4672   1.656   3.604   4.304
 1379SOL    HW1 4673   1.642   3.575   4.214
 1379SOL    HW2 4674   1.631   3.529   4.358
 1380SOL     OW 4675   0.595   2.582   3.990
 1380SOL    HW1 4676   0.603   2.663   3.940
 1380SOL    HW2 4677   0.531   2.602   4.059
 1381SOL     OW 4678   1.278   2.219   4.657
 1381SOL    HW1 4679   1.190   2.184   4.666
 1381SOL    HW2 4680   1.331   2.165   4.716
 1382SOL     OW 4681   1.579   3.533   4.033
 1382SOL    HW1 4682   1.670   3.562   4.027
 1382SOL    HW2 4683   1.553   3.516   3.943
 1383SOL     OW 4684   0.791   2.480   5.175
 1383SOL    HW1 4685   0.764   2.455   5.263
 1383SOL    HW2 4686   0.752   2.412   5.119
 1384SOL     OW 4687   1.393   2.336   5.402
 1384SOL    HW1 4688   1.396   2.381   5.486
 1384SOL    HW2 4689   1.453   2.263   5.411
 1385SOL     OW 4690   0.954   2.749   5.307
 1385SOL    HW1 4691   1.008   2.679   5.271
 1385SOL    HW2 4692   0.906   2.783   5.232
 1386SOL     OW 4693   0.992   2.274   4.962
 1386SOL    HW1 4694   0.904   2.294   4.996
 1386SOL    HW2 4695   0.975   2.229   4.879
 1387SOL     OW 4696   1.051   2.561   4.150
 1387SOL    HW1 4697   1.068   2.555   4.244
 1387SOL    HW2 4698   0.969   2.514   4.137
 1388SOL     OW 4699   0.070   2.650   4.535
 1388SOL    HW1 4700   0.151   2.654   4.586
 1388SOL    HW2 4701   0.066   2.734   4.489
 1389SOL     OW 4702   0.129   3.747   5.309
 1389SOL    HW1 4703   0.133   3.719   5.401
 1389SOL    HW2 4704   0.060   3.693   5.270
 1390SOL     OW 4705   0.894   2.211   3.918
 1390SOL    HW1 4706   0.934   2.274   3.858
 1390SOL    HW2 4707   0.913   2.126   3.879
 1391SOL     OW 4708   1.707   2.435   5.552
 1391SOL    HW1 4709   1.670   2.509   5.504
 1391SOL    HW2 4710   1.737   2.375   5.484
 1392SOL     OW 4711   1.376   3.007   4.268
 1392SOL    HW1 4712   1.455   2.992   4.216
 1392SOL    HW2 4713   1.323   3.067   4.216
 1393SOL     OW 4714   0.556   2.044   4.618
 1393SOL    HW1 4715   0.553   2.073   4.709
 1393SOL    HW2 4716   0.552   2.125   4.567
 1394SOL     OW 4717   1.004   3.305   4.195
 1394SOL    HW1 4718   0.968   3.379   4.146
 1394SOL    HW2 4719   0.986   3.326   4.287
 1395SOL     OW 4720   0.357   3.665   4.594
 1395SOL    HW1 4721   0.397   3.579   4.607
 1395SOL    HW2 4722   0.423   3.728   4.625
 1396SOL     OW 4723   1.228   3.401   5.237
 1396SOL    HW1 4724   1.214   3.328   5.298
 1396SOL    HW2 4725   1.164   3.386   5.167
 1397SOL     OW 4726   0.315   2.814   3.972
 1397SOL    HW1 4727   0.397   2.837   3.928
 1397SOL    HW2 4728   0.293   2.728   3.937
 1398SOL     OW 4729   1.470   2.612   4.458
 1398SOL    HW1 4730   1.470   2.562   4.539
 1398SOL    HW2 4731   1.555   2.656   4.456
 1399SOL     OW 4732   0.466   3.127   5.462
 1399SOL    HW1 4733   0.439   3.133   5.370
 1399SOL    HW2 4734   0.383   3.127   5.511
 1400SOL     OW 4735   1.122   3.640   3.955
 1400SOL    HW1 4736   1.049   3.598   4.000
 1400SOL    HW2 4737   1.146   3.578   3.885
 1401SOL     OW 4738   0.205   2.141   5.221
 1401SOL    HW1 4739   0.127   2.193   5.205
 1401SOL    HW2 4740   0.173   2.061   5.263
 1402SOL     OW 4741   1.626   3.243   3.806
 1402SOL    HW1 4742   1.584   3.328   3.794
 1402SOL    HW2 4743   1.557   3.179   3.790
 1403SOL     OW 4744   0.471   3.597   4.043
 1403SOL    HW1 4745   0.514   3.654   4.106
 1403SOL    HW2 4746   0.542   3.565   3.987
 1404SOL     OW 4747   1.404   1.969   4.160
 1404SOL    HW1 4748   1.397   1.944   4.068
 1404SOL    HW2 4749   1.498   1.979   4.175
 1405SOL     OW 4750   0.277   3.663   4.935
 1405SOL    HW1 4751   0.307   3.584   4.981
 1405SOL    HW2 4752   0.224   3.630   4.862
 1406SOL     OW 4753   0.939   3.561   4.622
 1406SOL    HW1 4754   1.017   3.509   4.643
 1406SOL    HW2 4755   0.895   3.511   4.554
 1407SOL     OW 4756   0.386   2.558   4.202
 1407SOL    HW1 4757   0.415   2.467   4.211
 1407SOL    HW2 4758   0.292   2.555   4.223
 1408SOL     OW 4759   1.534   2.088   5.449
 1408SOL    HW1 4760   1.544   2.108   5.542
 1408SOL    HW2 4761   1.466   2.022   5.446
 1409SOL     OW 4762   0.634   1.983   3.830
 1409SOL    HW1 4763   0.704   1.919   3.841
 1409SOL    HW2 4764   0.586   1.952   3.753
 1410SOL     OW 4765   0.766   2.140   5.478
 1410SOL    HW1 4766   0.843   2.083   5.478
 1410SOL    HW2 4767   0.718   2.116   5.558
 1411SOL     OW 4768   0.877   3.384   4.918
 1411SOL    HW1 4769   0.861   3.348   4.831
 1411SOL    HW2 4770   0.947   3.330   4.954
 1412SOL     OW 4771   1.341   2.451   5.155
 1412SOL    HW1 4772   1.371   2.421   5.241
 1412SOL    HW2 4773   1.376   2.540   5.148
 1413SOL     OW 4774   0.816   3.255   4.665
 1413SOL    HW1 4775   0.901   3.244   4.621
 1413SOL    HW2 4776   0.752   3.258   4.594
 1414SOL     OW 4777   0.927   2.371   4.627
 1414SOL    HW1 4778   0.904   2.363   4.534
 1414SOL    HW2 4779   0.959   2.284   4.651
 1415SOL     OW 4780   0.561   1.923   4.219
 1415SOL    HW1 4781   0.486   1.923   4.279
 1415SOL    HW2 4782   0.550   2.002   4.167
 1416SOL     OW 4783   1.425   3.062   3.765
 1416SOL    HW1 4784   1.453   2.988   3.818
 1416SOL    HW2 4785   1.339   3.086   3.800
 1417SOL     OW 4786   0.306   1.909   3.903
 1417SOL    HW1 4787   0.368   1.973   3.868
 1417SOL    HW2 4788   0.360   1.845   3.948
 1418SOL     OW 4789   0.941   2.109   4.183
 1418SOL    HW1 4790   0.914   2.151   4.101
 1418SOL    HW2 4791   1.035   2.124   4.188
 1419SOL     OW 4792   1.080   2.543   5.184
 1419SOL    HW1 4793   1.012   2.475   5.187
 1419SOL    HW2 4794   1.162   2.494   5.176
 1420SOL     OW 4795   1.223   3.432   4.518
 1420SOL    HW1 4796   1.238   3.499   4.451
 1420SOL    HW2 4797   1.291   3.447   4.583
 1421SOL     OW 4798   0.468   3.013   4.454
 1421SOL    HW1 4799   0.399   2.992   4.517
 1421SOL    HW2 4800   0.428   2.995   4.369
 1422SOL     OW 4801   1.268   3.656   4.334
 1422SOL    HW1 4802   1.315   3.717   4.276
 1422SOL    HW2 4803   1.200   3.709   4.375
 1423SOL     OW 4804   1.023   2.402   3.749
 1423SOL    HW1 4805   0.982   2.486   3.729
 1423SOL    HW2 4806   1.090   2.423   3.813
 1424SOL     OW 4807   0.089   2.406   5.123
 1424SOL    HW1 4808   0.176   2.413   5.085
 1424SOL    HW2 4809   0.080   2.482   5.180
 1425SOL     OW 4810   0.560   2.090   4.891
 1425SOL    HW1 4811   0.598   2.011   4.929
 1425SOL    HW2 4812   0.468   2.088   4.919
 1426SOL     OW 4813   0.866   2.320   4.364
 1426SOL    HW1 4814   0.823   2.375   4.298
 1426SOL    HW2 4815   0.889   2.240   4.316
 1427SOL     OW 4816   1.015   1.916   4.476
 1427SOL    HW1 4817   0.958   1.908   4.399
 1427SOL    HW2 4818   0.993   1.840   4.530
 1428SOL     OW 4819   1.438   3.028   4.580
 1428SOL    HW1 4820   1.372   2.958   4.589
 1428SOL    HW2 4821   1.455   3.032   4.486
 1429SOL     OW 4822   1.464   2.473   4.706
 1429SOL    HW1 4823   1.420   2.388   4.698
 1429SOL    HW2 4824   1.527   2.459   4.777
 1430SOL     OW 4825   0.491   3.281   3.881
 1430SOL    HW1 4826   0.416   3.253   3.933
 1430SOL    HW2 4827   0.477   3.241   3.795
 1431SOL     OW 4828   1.680   3.139   4.367
 1431SOL    HW1 4829   1.770   3.166   4.384
 1431SOL    HW2 4830   1.627   3.216   4.386
 1432SOL     OW 4831   1.390   2.438   3.792
 1432SOL    HW1 4832   1.337   2.412   3.868
 1432SOL    HW2 4833   1.479   2.413   3.817
 1433SOL     OW 4834   0.524   2.125   4.040
 1433SOL    HW1 4835   0.570   2.078   3.971
 1433SOL    HW2 4836   0.501   2.209   4.001
 1434SOL     OW 4837   1.750   3.103   5.296
 1434SOL    HW1 4838   1.836   3.061   5.300
 1434SOL    HW2 4839   1.767   3.193   5.324
 1435SOL     OW 4840   1.057   3.216   5.058
 1435SOL    HW1 4841   0.983   3.184   5.109
 1435SOL    HW2 4842   1.133   3.174   5.098
 1436SOL     OW 4843   1.608   3.488   5.379
 1436SOL    HW1 4844   1.602   3.522   5.290
 1436SOL    HW2 4845   1.691   3.439   5.381
 1437SOL     OW 4846   1.130   3.068   4.829
 1437SOL    HW1 4847   1.070   3.105   4.893
 1437SOL    HW2 4848   1.098   3.099   4.744
 1438SOL     OW 4849   1.628   2.948   4.807
 1438SOL    HW1 4850   1.624   3.020   4.870
 1438SOL    HW2 4851   1.567   2.974   4.738
 1439SOL     OW 4852   0.919   1.958   5.120
 1439SOL    HW1 4853   0.941   1.940   5.029
 1439SOL    HW2 4854   0.998   1.998   5.156
 1440SOL     OW 4855   0.984   2.977   5.447
 1440SOL    HW1 4856   0.892   2.993   5.468
 1440SOL    HW2 4857   0.983   2.899   5.391
 1441SOL     OW 4858   0.708   2.922   4.096
 1441SOL    HW1 4859   0.696   2.906   4.190
 1441SOL    HW2 4860   0.784   2.869   4.072
 1442SOL     OW 4861   0.420   2.682   4.977
 1442SOL    HW1 4862   0.490   2.689   5.043
 1442SOL    HW2 4863   0.387   2.593   4.987
 1443SOL     OW 4864   1.264   2.237   5.002
 1443SOL    HW1 4865   1.298   2.316   5.046
 1443SOL    HW2 4866   1.175   2.260   4.978
 1444SOL     OW 4867   0.102   3.485   5.090
 1444SOL    HW1 4868   0.081   3.492   4.997
 1444SOL    HW2 4869   0.189   3.444   5.092
 1445SOL     OW 4870   0.341   2.969   4.211
 1445SOL    HW1 4871   0.350   3.048   4.157
 1445SOL    HW2 4872   0.350   2.897   4.148
 1446SOL     OW 4873   0.553   2.397   4.583
 1446SOL    HW1 4874   0.568   2.456   4.509
 1446SOL    HW2 4875   0.619   2.423   4.648
 1447SOL     OW 4876   1.248   3.211   4.113
 1447SOL    HW1 4877   1.303   3.282   4.144
 1447SOL    HW2 4878   1.161   3.232   4.147
 1448SOL     OW 4879   1.282   3.320   4.871
 1448SOL    HW1 4880   1.338   3.322   4.949
 1448SOL    HW2 4881   1.228   3.242   4.883
 1449SOL     OW 4882   1.587   2.477   4.218
 1449SOL    HW1 4883   1.541   2.549   4.262
 1449SOL    HW2 4884   1.627   2.518   4.141
 1450SOL     OW 4885   0.352   3.382   5.034
 1450SOL    HW1 4886   0.341   3.338   4.949
 1450SOL    HW2 4887   0.446   3.399   5.040
 1451SOL     OW 4888   0.415   2.604   5.326
 1451SOL    HW1 4889   0.476   2.650   5.269
 1451SOL    HW2 4890   0.454   2.518   5.339
 1452SOL     OW 4891   1.602   2.641   5.407
 1452SOL    HW1 4892   1.516   2.683   5.400
 1452SOL    HW2 4893   1.654   2.683   5.339
 1453SOL     OW 4894   0.996   1.987   5.479
 1453SOL    HW1 4895   1.052   2.060   5.453
 1453SOL    HW2 4896   1.044   1.909   5.453
 1454SOL     OW 4897   0.497   1.902   5.473
 1454SOL    HW1 4898   0.454   1.849   5.406
 1454SOL    HW2 4899   0.438   1.977   5.485
 1455SOL     OW 4900   0.585   2.737   4.756
 1455SOL    HW1 4901   0.618   2.826   4.757
 1455SOL    HW2 4902   0.529   2.731   4.834
 1456SOL     OW 4903   1.353   2.721   4.754
 1456SOL    HW1 4904   1.271   2.710   4.706
 1456SOL    HW2 4905   1.397   2.636   4.746
 1457SOL     OW 4906   1.204   2.389   3.991
 1457SOL    HW1 4907   1.212   2.311   4.046
 1457SOL    HW2 4908   1.161   2.453   4.048
 1458SOL     OW 4909   0.301   2.065   4.972
 1458SOL    HW1 4910   0.267   2.089   5.058
 1458SOL    HW2 4911   0.289   1.970   4.967
 1459SOL     OW 4912   0.066   3.179   5.004
 1459SOL    HW1 4913   0.091   3.121   5.075
 1459SOL    HW2 4914   5.296   3.233   5.040
 1460SOL     OW 4915   0.723   2.493   4.781
 1460SOL    HW1 4916   0.799   2.477   4.725
 1460SOL    HW2 4917   0.696   2.582   4.760
 1461SOL     OW 4918   1.735   2.821   5.577
 1461SOL    HW1 4919   1.690   2.758   5.521
 1461SOL    HW2 4920   1.674   2.835   5.650
 1462SOL     OW 4921   0.327   1.924   4.358
 1462SOL    HW1 4922   0.307   2.013   4.385
 1462SOL    HW2 4923   0.333   1.874   4.440
 1463SOL     OW 4924   1.620   2.235   4.092
 1463SOL    HW1 4925   1.640   2.165   4.153
 1463SOL    HW2 4926   1.595   2.309   4.147
 1464SOL     OW 4927   1.027   2.621   4.684
 1464SOL    HW1 4928   1.023   2.639   4.778
 1464SOL    HW2 4929   1.001   2.529   4.676
 1465SOL     OW 4930   0.981   3.428   5.442
 1465SOL    HW1 4931   0.967   3.472   5.358
 1465SOL    HW2 4932   1.026   3.346   5.418
 1466SOL     OW 4933   1.854   3.367   5.330
 1466SOL    HW1 4934   1.873   3.396   5.240
 1466SOL    HW2 4935   1.935   3.384   5.378
 1467SOL     OW 4936   0.354   2.780   5.530
 1467SOL    HW1 4937   0.435   2.800   5.577
 1467SOL    HW2 4938   0.380   2.715   5.465
 1468SOL     OW 4939   1.527   2.134   3.851
 1468SOL    HW1 4940   1.463   2.069   3.880
 1468SOL    HW2 4941   1.562   2.171   3.932
 1469SOL     OW 4942   1.290   2.690   3.755
 1469SOL    HW1 4943   1.330   2.603   3.759
 1469SOL    HW2 4944   1.321   2.728   3.673
 1470SOL     OW 4945   1.066   3.198   4.578
 1470SOL    HW1 4946   1.070   3.125   4.515
 1470SOL    HW2 4947   1.127   3.263   4.543
 1471SOL     OW 4948   0.313   2.671   4.674
 1471SOL    HW1 4949   0.407   2.690   4.670
 1471SOL    HW2 4950   0.308   2.581   4.705
 1472SOL     OW 4951   0.334   2.389   4.739
 1472SOL    HW1 4952   0.299   2.300   4.725
 1472SOL    HW2 4953   0.409   2.394   4.680
 1473SOL     OW 4954   1.134   2.237   5.408
 1473SOL    HW1 4955   1.086   2.292   5.469
 1473SOL    HW2 4956   1.221   2.276   5.403
 1474SOL     OW 4957   1.161   2.063   5.195
 1474SOL    HW1 4958   1.150   2.127   5.266
 1474SOL    HW2 4959   1.201   2.114   5.124
 1475SOL     OW 4960   0.002   3.191   3.934
 1475SOL    HW1 4961   5.230   3.178   3.873
 1475SOL    HW2 4962   0.012   3.105   3.977
 1476SOL     OW 4963   0.094   3.644   4.676
 1476SOL    HW1 4964   0.060   3.574   4.619
 1476SOL    HW2 4965   0.181   3.662   4.641
 1477SOL     OW 4966   0.505   3.436   4.632
 1477SOL    HW1 4967   0.572   3.501   4.652
 1477SOL    HW2 4968   0.548   3.375   4.572
 1478SOL     OW 4969   0.981   2.653   4.950
 1478SOL    HW1 4970   1.038   2.632   5.024
 1478SOL    HW2 4971   0.896   2.614   4.974
 1479SOL     OW 4972   0.032   2.425   4.840
 1479SOL    HW1 4973   0.118   2.401   4.807
 1479SOL    HW2 4974   0.037   2.406   4.934
 1480SOL     OW 4975   0.174   2.375   5.436
 1480SOL    HW1 4976   0.238   2.337   5.376
 1480SOL    HW2 4977   0.147   2.457   5.393
 1481SOL     OW 4978   1.377   2.800   5.382
 1481SOL    HW1 4979   1.399   2.893   5.379
 1481SOL    HW2 4980   1.375   2.774   5.290
 1482SOL     OW 4981   0.816   2.430   4.086
 1482SOL    HW1 4982   0.822   2.356   4.025
 1482SOL    HW2 4983   0.743   2.482   4.054
 1483SOL     OW 4984   1.654   2.458   4.909
 1483SOL    HW1 4985   1.627   2.410   4.988
 1483SOL    HW2 4986   1.740   2.422   4.887
 1484SOL     OW 4987   0.256   3.417   5.458
 1484SOL    HW1 4988   0.234   3.481   5.527
 1484SOL    HW2 4989   0.250   3.332   5.501
 1485SOL     OW 4990   0.703   2.311   4.983
 1485SOL    HW1 4991   0.650   2.237   4.953
 1485SOL    HW2 4992   0.698   2.374   4.911
 1486SOL     OW 4993   0.927   3.541   5.192
 1486SOL    HW1 4994   0.901   3.505   5.108
 1486SOL    HW2 4995   0.921   3.636   5.181
 1487SOL     OW 4996   0.464   2.355   3.908
 1487SOL    HW1 4997   0.525   2.425   3.931
 1487SOL    HW2 4998   0.380   2.399   3.895
 1488SOL     OW 4999   0.147   2.999   5.195
 1488SOL    HW1 5000   0.145   2.951   5.278
 1488SOL    HW2 5001   0.159   2.931   5.128
 1489SOL     OW 5002   1.322   2.908   4.949
 1489SOL    HW1 5003   1.350   2.847   4.881
 1489SOL    HW2 5004   1.254   2.961   4.908
 1490SOL     OW 5005   1.308   2.717   4.032
 1490SOL    HW1 5006   1.233   2.685   4.082
 1490SOL    HW2 5007   1.284   2.702   3.940
 1491SOL     OW 5008   1.773   3.603   4.875
 1491SOL    HW1 5009   1.833   3.630   4.806
 1491SOL    HW2 5010   1.749   3.513   4.853
 1492SOL     OW 5011   1.241   3.595   4.836
 1492SOL    HW1 5012   1.323   3.616   4.791
 1492SOL    HW2 5013   1.247   3.502   4.855
 1493SOL     OW 5014   0.082   3.077   4.751
 1493SOL    HW1 5015   0.070   3.103   4.842
 1493SOL    HW2 5016   5.294   3.066   4.717
 1494SOL     OW 5017   0.678   3.529   5.455
 1494SOL    HW1 5018   0.621   3.606   5.448
 1494SOL    HW2 5019   0.743   3.541   5.386
 1495SOL     OW 5020   1.691   1.997   4.219
 1495SOL    HW1 5021   1.778   1.998   4.179
 1495SOL    HW2 5022   1.689   1.914   4.268
 1496SOL     OW 5023   1.390   3.430   4.209
 1496SOL    HW1 5024   1.451   3.462   4.143
 1496SOL    HW2 5025   1.341   3.507   4.237
 1497SOL     OW 5026   0.146   3.660   5.566
 1497SOL    HW1 5027   0.091   3.597   5.613
 1497SOL    HW2 5028   0.193   3.707   5.635
 1498SOL     OW 5029   1.273   2.789   4.394
 1498SOL    HW1 5030   1.346   2.729   4.407
 1498SOL    HW2 5031   1.309   2.861   4.342
 1499SOL     OW 5032   0.813   3.135   5.153
 1499SOL    HW1 5033   0.784   3.175   5.235
 1499SOL    HW2 5034   0.743   3.156   5.091
 1500SOL     OW 5035   0.672   3.483   3.879
 1500SOL    HW1 5036   0.683   3.496   3.785
 1500SOL    HW2 5037   0.617   3.405   3.886
 1501SOL     OW 5038   1.625   3.589   5.116
 1501SOL    HW1 5039   1.675   3.596   5.034
 1501SOL    HW2 5040   1.611   3.680   5.143
 1502SOL     OW 5041   1.845   2.042   4.691
 1502SOL    HW1 5042   1.878   1.956   4.666
 1502SOL    HW2 5043   1.759   2.048   4.649
 1503SOL     OW 5044   0.273   2.178   4.441
 1503SOL    HW1 5045   0.188   2.217   4.422
 1503SOL    HW2 5046   0.273   2.168   4.536
 1504SOL     OW 5047   1.207   3.467   3.756
 1504SOL    HW1 5048   1.197   3.376   3.782
 1504SOL    HW2 5049   1.142   3.480   3.687
 1505SOL     OW 5050   0.824   2.867   5.097
 1505SOL    HW1 5051   0.868   2.862   5.013
 1505SOL    HW2 5052   0.823   2.961   5.118
 1506SOL     OW 5053   0.915   2.772   4.014
 1506SOL    HW1 5054   0.976   2.804   3.947
 1506SOL    HW2 5055   0.963   2.704   4.060
 1507SOL     OW 5056   1.490   3.488   3.767
 1507SOL    HW1 5057   1.396   3.481   3.753
 1507SOL    HW2 5058   1.527   3.495   3.679
 1508SOL     OW 5059   0.367   3.166   5.217
 1508SOL    HW1 5060   0.359   3.240   5.157
 1508SOL    HW2 5061   0.291   3.111   5.198
 1509SOL     OW 5062   1.613   3.150   5.000
 1509SOL    HW1 5063   1.668   3.131   5.076
 1509SOL    HW2 5064   1.552   3.216   5.030
 1510SOL     OW 5065   1.053   2.970   4.430
 1510SOL    HW1 5066   0.982   2.918   4.470
 1510SOL    HW2 5067   1.117   2.904   4.402
 1511SOL     OW 5068   1.021   2.103   4.691
 1511SOL    HW1 5069   1.017   2.056   4.608
 1511SOL    HW2 5070   1.016   2.035   4.758
 1512SOL     OW 5071   0.602   3.349   4.205
 1512SOL    HW1 5072   0.648   3.301   4.136
 1512SOL    HW2 5073   0.534   3.398   4.158
 1513SOL     OW 5074   1.727   2.254   5.106
 1513SOL    HW1 5075   1.798   2.317   5.102
 1513SOL    HW2 5076   1.755   2.182   5.050
 1514SOL     OW 5077   0.261   3.210   4.017
 1514SOL    HW1 5078   0.168   3.212   3.994
 1514SOL    HW2 5079   0.264   3.247   4.105
 1515SOL     OW 5080   0.117   2.878   5.441
 1515SOL    HW1 5081   0.046   2.843   5.496
 1515SOL    HW2 5082   0.197   2.848   5.483
 1516SOL     OW 5083   0.675   2.058   5.223
 1516SOL    HW1 5084   0.759   2.038   5.182
 1516SOL    HW2 5085   0.698   2.090   5.310
 1517SOL     OW 5086   0.083   2.211   3.765
 1517SOL    HW1 5087   0.004   2.162   3.742
 1517SOL    HW2 5088   0.099   2.269   3.691
 1518SOL     OW 5089   1.430   2.720   5.124
 1518SOL    HW1 5090   1.381   2.780   5.068
 1518SOL    HW2 5091   1.519   2.724   5.090
 1519SOL     OW 5092   0.056   1.995   3.967
 1519SOL    HW1 5093   0.055   2.090   3.956
 1519SOL    HW2 5094   0.146   1.969   3.944
 1520SOL     OW 5095   1.179   3.200   3.841
 1520SOL    HW1 5096   1.088   3.170   3.843
 1520SOL    HW2 5097   1.206   3.201   3.933
 1521SOL     OW 5098   0.620   2.693   5.160
 1521SOL    HW1 5099   0.676   2.768   5.144
 1521SOL    HW2 5100   0.680   2.619   5.167
 1522SOL     OW 5101   1.483   3.640   4.703
 1522SOL    HW1 5102   1.505   3.700   4.632
 1522SOL    HW2 5103   1.567   3.622   4.747
 1523SOL     OW 5104   0.717   2.426   5.428
 1523SOL    HW1 5105   0.760   2.488   5.487
 1523SOL    HW2 5106   0.743   2.339   5.460
 1524SOL     OW 5107   1.472   3.061   5.355
 1524SOL    HW1 5108   1.460   3.075   5.449
 1524SOL    HW2 5109   1.565   3.077   5.340
 1525SOL     OW 5110   0.376   3.605   5.289
 1525SOL    HW1 5111   0.294   3.651   5.272
 1525SOL    HW2 5112   0.350   3.525   5.333
 1526SOL     OW 5113   1.669   2.740   4.979
 1526SOL    HW1 5114   1.661   2.657   4.932
 1526SOL    HW2 5115   1.660   2.808   4.912
 1527SOL     OW 5116   1.216   2.179   4.180
 1527SOL    HW1 5117   1.280   2.108   4.174
 1527SOL    HW2 5118   1.243   2.229   4.258
 1528SOL     OW 5119   0.589   2.599   4.394
 1528SOL    HW1 5120   0.629   2.685   4.379
 1528SOL    HW2 5121   0.520   2.592   4.327
 1529SOL     OW 5122   1.762   2.223   5.375
 1529SOL    HW1 5123   1.745   2.240   5.282
 1529SOL    HW2 5124   1.690   2.168   5.404
 1530SOL     OW 5125   1.746   2.795   5.237
 1530SOL    HW1 5126   1.740   2.890   5.247
 1530SOL    HW2 5127   1.735   2.780   5.143
 1531SOL     OW 5128   0.862   3.229   3.759
 1531SOL    HW1 5129   0.824   3.258   3.842
 1531SOL    HW2 5130   0.880   3.310   3.712
 1532SOL     OW 5131   0.664   3.655   4.666
 1532SOL    HW1 5132   0.643   3.745   4.644
 1532SOL    HW2 5133   0.759   3.650   4.660
 1533SOL     OW 5134   0.867   2.829   4.578
 1533SOL    HW1 5135   0.918   2.757   4.617
 1533SOL    HW2 5136   0.833   2.877   4.653
 1534SOL     OW 5137   1.077   2.850   3.812
 1534SOL    HW1 5138   1.057   2.901   3.734
 1534SOL    HW2 5139   1.153   2.797   3.787
 1535SOL     OW 5140   1.854   3.408   4.574
 1535SOL    HW1 5141   1.782   3.407   4.511
 1535SOL    HW2 5142   1.818   3.365   4.651
 1536SOL     OW 5143   0.226   3.166   5.584
 1536SOL    HW1 5144   0.158   3.103   5.559
 1536SOL    HW2 5145   0.214   3.176   5.679
 1537SOL     OW 5146   0.088   3.081   4.379
 1537SOL    HW1 5147   0.103   3.048   4.468
 1537SOL    HW2 5148   0.175   3.079   4.338
 1538SOL     OW 5149   0.682   3.265   5.353
 1538SOL    HW1 5150   0.601   3.223   5.383
 1538SOL    HW2 5151   0.678   3.354   5.389
 1539SOL     OW 5152   1.812   2.047   4.960
 1539SOL    HW1 5153   1.824   1.953   4.972
 1539SOL    HW2 5154   1.829   2.062   4.867
 1540SOL     OW 5155   0.434   2.298   4.248
 1540SOL    HW1 5156   0.463   2.226   4.192
 1540SOL    HW2 5157   0.388   2.256   4.320
 1541SOL     OW 5158   1.706   3.347   4.810
 1541SOL    HW1 5159   1.621   3.327   4.770
 1541SOL    HW2 5160   1.718   3.279   4.876
 1542SOL     OW 5161   0.337   2.422   5.016
 1542SOL    HW1 5162   0.391   2.363   5.069
 1542SOL    HW2 5163   0.351   2.392   4.926
 1543SOL     OW 5164   0.829   3.440   4.401
 1543SOL    HW1 5165   0.814   3.497   4.326
 1543SOL    HW2 5166   0.753   3.382   4.403
 1544SOL     OW 5167   1.431   2.088   4.842
 1544SOL    HW1 5168   1.459   2.009   4.888
 1544SOL    HW2 5169   1.378   2.136   4.905
 1545SOL     OW 5170   1.009   1.880   4.865
 1545SOL    HW1 5171   0.955   1.812   4.823
 1545SOL    HW2 5172   1.097   1.842   4.867
 1546SOL     OW 5173   0.772   3.195   4.041
 1546SOL    HW1 5174   0.743   3.104   4.047
 1546SOL    HW2 5175   0.854   3.197   4.090
 1547SOL     OW 5176   0.623   3.417   5.012
 1547SOL    HW1 5177   0.624   3.500   5.061
 1547SOL    HW2 5178   0.710   3.412   4.972
 1548SOL     OW 5179   1.352   1.915   3.891
 1548SOL    HW1 5180   1.381   1.851   3.826
 1548SOL    HW2 5181   1.265   1.886   3.918
 1549SOL     OW 5182   1.287   2.322   4.401
 1549SOL    HW1 5183   1.237   2.404   4.412
 1549SOL    HW2 5184   1.291   2.285   4.490
 1550SOL     OW 5185   1.586   2.058   4.603
 1550SOL    HW1 5186   1.527   2.081   4.675
 1550SOL    HW2 5187   1.586   2.136   4.547
 1551SOL     OW 5188   0.048   2.930   4.014
 1551SOL    HW1 5189   0.138   2.897   4.002
 1551SOL    HW2 5190   5.300   2.856   4.049
 1552SOL     OW 5191   0.886   3.515   4.065
 1552SOL    HW1 5192   0.813   3.500   4.005
 1552SOL    HW2 5193   0.859   3.590   4.118
 1553SOL     OW 5194   0.233   2.493   5.703
 1553SOL    HW1 5195   0.161   2.457   5.755
 1553SOL    HW2 5196   0.217   2.460   5.614
 1554SOL     OW 5197   0.243   2.137   6.575
 1554SOL    HW1 5198   0.256   2.103   6.663
 1554SOL    HW2 5199   0.158   2.102   6.548
 1555SOL     OW 5200   5.298   2.261   6.239
 1555SOL    HW1 5201   5.205   2.283   6.244
 1555SOL    HW2 5202   5.299   2.171   6.207
 1556SOL     OW 5203   0.575   3.148   6.770
 1556SOL    HW1 5204   0.493   3.156   6.722
 1556SOL    HW2 5205   0.591   3.236   6.805
 1557SOL     OW 5206   1.563   3.374   6.293
 1557SOL    HW1 5207   1.520   3.353   6.376
 1557SOL    HW2 5208   1.491   3.378   6.230
 1558SOL     OW 5209   1.130   2.560   6.286
 1558SOL    HW1 5210   1.179   2.641   6.272
 1558SOL    HW2 5211   1.084   2.574   6.368
 1559SOL     OW 5212   1.768   2.467   5.814
 1559SOL    HW1 5213   1.747   2.460   5.721
 1559SOL    HW2 5214   1.732   2.387   5.853
 1560SOL     OW 5215   0.754   3.002   6.626
 1560SOL    HW1 5216   0.688   3.037   6.686
 1560SOL    HW2 5217   0.790   3.079   6.583
 1561SOL     OW 5218   0.867   2.636   7.406
 1561SOL    HW1 5219   0.857   2.711   7.465
 1561SOL    HW2 5220   0.892   2.675   7.322
 1562SOL     OW 5221   0.685   2.863   6.233
 1562SOL    HW1 5222   0.751   2.852   6.301
 1562SOL    HW2 5223   0.618   2.917   6.274
 1563SOL     OW 5224   0.710   3.013   7.400
 1563SOL    HW1 5225   0.759   3.091   7.427
 1563SOL    HW2 5226   0.629   3.047   7.362
 1564SOL     OW 5227   0.358   3.266   6.646
 1564SOL    HW1 5228   0.270   3.266   6.610
 1564SOL    HW2 5229   0.407   3.328   6.591
 1565SOL     OW 5230   1.460   3.362   6.941
 1565SOL    HW1 5231   1.513   3.442   6.951
 1565SOL    HW2 5232   1.397   3.366   7.013
 1566SOL     OW 5233   0.451   2.262   7.078
 1566SOL    HW1 5234   0.525   2.202   7.080
 1566SOL    HW2 5235   0.374   2.206   7.088
 1567SOL     OW 5236   1.611   2.309   6.327
 1567SOL    HW1 5237   1.537   2.331   6.271
 1567SOL    HW2 5238   1.624   2.387   6.381
 1568SOL     OW 5239   0.232   3.576   6.063
 1568SOL    HW1 5240   0.264   3.646   6.121
 1568SOL    HW2 5241   0.295   3.573   5.991
 1569SOL     OW 5242   1.136   3.203   7.276
 1569SOL    HW1 5243   1.177   3.200   7.363
 1569SOL    HW2 5244   1.085   3.123   7.271
 1570SOL     OW 5245   0.222   3.307   6.126
 1570SOL    HW1 5246   0.217   3.403   6.120
 1570SOL    HW2 5247   0.152   3.283   6.186
 1571SOL     OW 5248   0.250   2.939   6.460
 1571SOL    HW1 5249   0.262   2.853   6.502
 1571SOL    HW2 5250   0.199   2.989   6.523
 1572SOL     OW 5251   0.612   3.652   7.017
 1572SOL    HW1 5252   0.528   3.635   7.061
 1572SOL    HW2 5253   0.633   3.743   7.041
 1573SOL     OW 5254   0.582   2.846   5.722
 1573SOL    HW1 5255   0.629   2.892   5.653
 1573SOL    HW2 5256   0.623   2.876   5.803
 1574SOL     OW 5257   1.596   1.986   7.053
 1574SOL    HW1 5258   1.606   2.067   7.003
 1574SOL    HW2 5259   1.581   2.015   7.143
 1575SOL     OW 5260   0.126   2.495   6.166
 1575SOL    HW1 5261   0.089   2.412   6.195
 1575SOL    HW2 5262   0.099   2.559   6.232
 1576SOL     OW 5263   1.842   3.620   5.920
 1576SOL    HW1 5264   1.908   3.592   5.984
 1576SOL    HW2 5265   1.865   3.711   5.901
 1577SOL     OW 5266   0.038   3.461   5.719
 1577SOL    HW1 5267   0.025   3.370   5.744
 1577SOL    HW2 5268   5.282   3.511   5.778
 1578SOL     OW 5269   1.688   2.780   6.227
 1578SOL    HW1 5270   1.772   2.738   6.206
 1578SOL    HW2 5271   1.666   2.831   6.149
 1579SOL     OW 5272   1.647   2.968   6.015
 1579SOL    HW1 5273   1.733   2.973   5.973
 1579SOL    HW2 5274   1.652   3.030   6.088
 1580SOL     OW 5275   0.132   2.609   7.172
 1580SOL    HW1 5276   0.227   2.623   7.171
 1580SOL    HW2 5277   0.095   2.696   7.189
 1581SOL     OW 5278   0.616   3.248   6.320
 1581SOL    HW1 5279   0.568   3.166   6.331
 1581SOL    HW2 5280   0.598   3.275   6.230
 1582SOL     OW 5281   1.288   3.100   7.009
 1582SOL    HW1 5282   1.320   3.032   6.949
 1582SOL    HW2 5283   1.346   3.094   7.085
 1583SOL     OW 5284   0.824   1.862   6.097
 1583SOL    HW1 5285   0.864   1.946   6.076
 1583SOL    HW2 5286   0.730   1.881   6.102
 1584SOL     OW 5287   0.175   2.806   6.865
 1584SOL    HW1 5288   0.266   2.776   6.857
 1584SOL    HW2 5289   0.135   2.784   6.781
 1585SOL     OW 5290   1.531   2.856   5.785
 1585SOL    HW1 5291   1.462   2.799   5.817
 1585SOL    HW2 5292   1.573   2.891   5.864
 1586SOL     OW 5293   1.185   3.669   7.209
 1586SOL    HW1 5294   1.194   3.728   7.134
 1586SOL    HW2 5295   1.202   3.582   7.173
 1587SOL     OW 5296   0.339   2.115   7.404
 1587SOL    HW1 5297   0.385   2.197   7.418
 1587SOL    HW2 5298   0.251   2.130   7.438
 1588SOL     OW 5299   1.467   3.282   6.537
 1588SOL    HW1 5300   1.399   3.297   6.602
 1588SOL    HW2 5301   1.454   3.190   6.510
 1589SOL     OW 5302   1.657   3.604   6.164
 1589SOL    HW1 5303   1.638   3.574   6.075
 1589SOL    HW2 5304   1.634   3.530   6.220
 1590SOL     OW 5305   0.595   2.582   5.853
 1590SOL    HW1 5306   0.602   2.664   5.802
 1590SOL    HW2 5307   0.531   2.602   5.921
 1591SOL     OW 5308   1.279   2.217   6.519
 1591SOL    HW1 5309   1.189   2.183   6.527
 1591SOL    HW2 5310   1.330   2.163   6.579
 1592SOL     OW 5311   1.580   3.533   5.895
 1592SOL    HW1 5312   1.671   3.563   5.888
 1592SOL    HW2 5313   1.553   3.516   5.805
 1593SOL     OW 5314   0.791   2.480   7.037
 1593SOL    HW1 5315   0.764   2.455   7.126
 1593SOL    HW2 5316   0.752   2.412   6.981
 1594SOL     OW 5317   1.393   2.336   7.263
 1594SOL    HW1 5318   1.396   2.381   7.348
 1594SOL    HW2 5319   1.454   2.262   7.273
 1595SOL     OW 5320   0.954   2.749   7.169
 1595SOL    HW1 5321   1.008   2.679   7.132
 1595SOL    HW2 5322   0.906   2.784   7.093
 1596SOL     OW 5323   0.992   2.274   6.824
 1596SOL    HW1 5324   0.906   2.294   6.859
 1596SOL    HW2 5325   0.974   2.229   6.742
 1597SOL     OW 5326   1.051   2.560   6.012
 1597SOL    HW1 5327   1.068   2.554   6.106
 1597SOL    HW2 5328   0.969   2.514   5.998
 1598SOL     OW 5329   0.070   2.650   6.397
 1598SOL    HW1 5330   0.151   2.654   6.448
 1598SOL    HW2 5331   0.066   2.734   6.351
 1599SOL     OW 5332   0.128   3.748   7.171
 1599SOL    HW1 5333   0.131   3.720   7.262
 1599SOL    HW2 5334   0.061   3.692   7.131
 1600SOL     OW 5335   0.895   2.211   5.780
 1600SOL    HW1 5336   0.934   2.274   5.720
 1600SOL    HW2 5337   0.911   2.126   5.740
 1601SOL     OW 5338   1.708   2.436   7.416
 1601SOL    HW1 5339   1.671   2.510   7.368
 1601SOL    HW2 5340   1.736   2.375   7.347
 1602SOL     OW 5341   1.377   3.004   6.127
 1602SOL    HW1 5342   1.457   2.992   6.074
 1602SOL    HW2 5343   1.325   3.066   6.077
 1603SOL     OW 5344   0.556   2.045   6.480
 1603SOL    HW1 5345   0.553   2.073   6.571
 1603SOL    HW2 5346   0.552   2.126   6.429
 1604SOL     OW 5347   1.004   3.305   6.057
 1604SOL    HW1 5348   0.969   3.379   6.008
 1604SOL    HW2 5349   0.986   3.327   6.149
 1605SOL     OW 5350   0.357   3.665   6.456
 1605SOL    HW1 5351   0.397   3.580   6.469
 1605SOL    HW2 5352   0.423   3.728   6.487
 1606SOL     OW 5353   1.798   2.917   6.455
 1606SOL    HW1 5354   1.744   2.900   6.378
 1606SOL    HW2 5355   1.736   2.923   6.528
 1607SOL     OW 5356   1.228   3.401   7.099
 1607SOL    HW1 5357   1.214   3.328   7.159
 1607SOL    HW2 5358   1.163   3.387   7.030
 1608SOL     OW 5359   0.315   2.814   5.834
 1608SOL    HW1 5360   0.397   2.838   5.790
 1608SOL    HW2 5361   0.293   2.728   5.798
 1609SOL     OW 5362   1.479   2.606   6.312
 1609SOL    HW1 5363   1.472   2.564   6.398
 1609SOL    HW2 5364   1.557   2.661   6.319
 1610SOL     OW 5365   0.465   3.125   7.324
 1610SOL    HW1 5366   0.438   3.132   7.232
 1610SOL    HW2 5367   0.383   3.126   7.372
 1611SOL     OW 5368   1.122   3.640   5.816
 1611SOL    HW1 5369   1.049   3.598   5.862
 1611SOL    HW2 5370   1.146   3.578   5.747
 1612SOL     OW 5371   0.205   2.141   7.084
 1612SOL    HW1 5372   0.126   2.192   7.066
 1612SOL    HW2 5373   0.172   2.060   7.124
 1613SOL     OW 5374   1.629   3.242   5.674
 1613SOL    HW1 5375   1.587   3.327   5.659
 1613SOL    HW2 5376   1.560   3.178   5.655
 1614SOL     OW 5377   0.471   3.597   5.905
 1614SOL    HW1 5378   0.514   3.654   5.968
 1614SOL    HW2 5379   0.542   3.565   5.849
 1615SOL     OW 5380   1.401   1.969   6.020
 1615SOL    HW1 5381   1.391   1.944   5.928
 1615SOL    HW2 5382   1.495   1.976   6.033
 1616SOL     OW 5383   0.277   3.663   6.797
 1616SOL    HW1 5384   0.307   3.585   6.843
 1616SOL    HW2 5385   0.224   3.630   6.725
 1617SOL     OW 5386   0.939   3.561   6.485
 1617SOL    HW1 5387   1.017   3.510   6.506
 1617SOL    HW2 5388   0.895   3.511   6.416
 1618SOL     OW 5389   0.386   2.558   6.065
 1618SOL    HW1 5390   0.415   2.467   6.074
 1618SOL    HW2 5391   0.292   2.555   6.085
 1619SOL     OW 5392   1.534   2.087   7.311
 1619SOL    HW1 5393   1.544   2.108   7.404
 1619SOL    HW2 5394   1.465   2.021   7.309
 1620SOL     OW 5395   0.635   1.983   5.691
 1620SOL    HW1 5396   0.704   1.918   5.703
 1620SOL    HW2 5397   0.586   1.953   5.615
 1621SOL     OW 5398   0.765   2.139   7.340
 1621SOL    HW1 5399   0.843   2.083   7.340
 1621SOL    HW2 5400   0.723   2.123   7.424
 1622SOL     OW 5401   0.877   3.384   6.779
 1622SOL    HW1 5402   0.861   3.347   6.692
 1622SOL    HW2 5403   0.947   3.329   6.815
 1623SOL     OW 5404   1.340   2.451   7.018
 1623SOL    HW1 5405   1.371   2.420   7.103
 1623SOL    HW2 5406   1.376   2.539   7.010
 1624SOL     OW 5407   0.816   3.255   6.527
 1624SOL    HW1 5408   0.901   3.244   6.483
 1624SOL    HW2 5409   0.753   3.258   6.456
 1625SOL     OW 5410   0.928   2.371   6.489
 1625SOL    HW1 5411   0.904   2.363   6.396
 1625SOL    HW2 5412   0.959   2.284   6.513
 1626SOL     OW 5413   0.561   1.923   6.081
 1626SOL    HW1 5414   0.486   1.923   6.141
 1626SOL    HW2 5415   0.550   2.002   6.028
 1627SOL     OW 5416   1.428   3.061   5.627
 1627SOL    HW1 5417   1.458   2.985   5.677
 1627SOL    HW2 5418   1.343   3.082   5.664
 1628SOL     OW 5419   0.306   1.909   5.765
 1628SOL    HW1 5420   0.368   1.973   5.729
 1628SOL    HW2 5421   0.360   1.845   5.810
 1629SOL     OW 5422   0.940   2.110   6.045
 1629SOL    HW1 5423   0.914   2.151   5.962
 1629SOL    HW2 5424   1.035   2.125   6.049
 1630SOL     OW 5425   1.080   2.543   7.045
 1630SOL    HW1 5426   1.012   2.475   7.050
 1630SOL    HW2 5427   1.162   2.495   7.039
 1631SOL     OW 5428   1.223   3.432   6.380
 1631SOL    HW1 5429   1.238   3.499   6.313
 1631SOL    HW2 5430   1.291   3.447   6.445
 1632SOL     OW 5431   0.468   3.013   6.316
 1632SOL    HW1 5432   0.399   2.992   6.379
 1632SOL    HW2 5433   0.428   2.995   6.231
 1633SOL     OW 5434   1.268   3.655   6.195
 1633SOL    HW1 5435   1.315   3.717   6.138
 1633SOL    HW2 5436   1.201   3.709   6.238
 1634SOL     OW 5437   1.023   2.402   5.610
 1634SOL    HW1 5438   0.981   2.486   5.590
 1634SOL    HW2 5439   1.089   2.424   5.676
 1635SOL     OW 5440   0.089   2.405   6.986
 1635SOL    HW1 5441   0.176   2.413   6.948
 1635SOL    HW2 5442   0.080   2.482   7.042
 1636SOL     OW 5443   0.560   2.090   6.753
 1636SOL    HW1 5444   0.598   2.011   6.791
 1636SOL    HW2 5445   0.469   2.088   6.781
 1637SOL     OW 5446   0.867   2.321   6.225
 1637SOL    HW1 5447   0.822   2.375   6.161
 1637SOL    HW2 5448   0.889   2.241   6.178
 1638SOL     OW 5449   1.016   1.915   6.337
 1638SOL    HW1 5450   0.957   1.908   6.261
 1638SOL    HW2 5451   0.994   1.840   6.392
 1639SOL     OW 5452   1.438   3.024   6.443
 1639SOL    HW1 5453   1.368   2.959   6.442
 1639SOL    HW2 5454   1.463   3.035   6.351
 1640SOL     OW 5455   1.466   2.468   6.561
 1640SOL    HW1 5456   1.414   2.388   6.564
 1640SOL    HW2 5457   1.525   2.462   6.636
 1641SOL     OW 5458   1.845   2.677   5.970
 1641SOL    HW1 5459   1.902   2.626   6.027
 1641SOL    HW2 5460   1.817   2.615   5.903
 1642SOL     OW 5461   0.491   3.281   5.743
 1642SOL    HW1 5462   0.416   3.253   5.795
 1642SOL    HW2 5463   0.477   3.241   5.657
 1643SOL     OW 5464   1.671   3.126   6.231
 1643SOL    HW1 5465   1.766   3.128   6.245
 1643SOL    HW2 5466   1.642   3.214   6.252
 1644SOL     OW 5467   1.394   2.434   5.657
 1644SOL    HW1 5468   1.333   2.414   5.728
 1644SOL    HW2 5469   1.479   2.402   5.688
 1645SOL     OW 5470   0.524   2.125   5.902
 1645SOL    HW1 5471   0.570   2.078   5.832
 1645SOL    HW2 5472   0.501   2.209   5.863
 1646SOL     OW 5473   1.752   3.102   7.158
 1646SOL    HW1 5474   1.839   3.064   7.151
 1646SOL    HW2 5475   1.767   3.192   7.187
 1647SOL     OW 5476   1.058   3.215   6.918
 1647SOL    HW1 5477   0.983   3.184   6.970
 1647SOL    HW2 5478   1.134   3.174   6.960
 1648SOL     OW 5479   1.608   3.488   7.239
 1648SOL    HW1 5480   1.602   3.522   7.150
 1648SOL    HW2 5481   1.691   3.440   7.241
 1649SOL     OW 5482   1.130   3.066   6.690
 1649SOL    HW1 5483   1.071   3.104   6.756
 1649SOL    HW2 5484   1.098   3.099   6.607
 1650SOL     OW 5485   1.627   2.959   6.663
 1650SOL    HW1 5486   1.622   3.021   6.736
 1650SOL    HW2 5487   1.548   2.977   6.611
 1651SOL     OW 5488   0.919   1.958   6.982
 1651SOL    HW1 5489   0.941   1.940   6.891
 1651SOL    HW2 5490   0.997   1.998   7.018
 1652SOL     OW 5491   0.984   2.976   7.311
 1652SOL    HW1 5492   0.892   2.993   7.330
 1652SOL    HW2 5493   0.983   2.898   7.255
 1653SOL     OW 5494   0.708   2.922   5.958
 1653SOL    HW1 5495   0.696   2.906   6.052
 1653SOL    HW2 5496   0.784   2.870   5.934
 1654SOL     OW 5497   0.421   2.682   6.839
 1654SOL    HW1 5498   0.490   2.689   6.905
 1654SOL    HW2 5499   0.387   2.593   6.849
 1655SOL     OW 5500   1.265   2.239   6.862
 1655SOL    HW1 5501   1.298   2.316   6.908
 1655SOL    HW2 5502   1.174   2.260   6.840
 1656SOL     OW 5503   0.103   3.485   6.952
 1656SOL    HW1 5504   0.081   3.492   6.859
 1656SOL    HW2 5505   0.189   3.444   6.954
 1657SOL     OW 5506   0.342   2.969   6.072
 1657SOL    HW1 5507   0.350   3.049   6.019
 1657SOL    HW2 5508   0.350   2.897   6.010
 1658SOL     OW 5509   0.553   2.397   6.445
 1658SOL    HW1 5510   0.568   2.456   6.371
 1658SOL    HW2 5511   0.618   2.423   6.510
 1659SOL     OW 5512   1.248   3.210   5.975
 1659SOL    HW1 5513   1.304   3.282   6.006
 1659SOL    HW2 5514   1.161   3.232   6.009
 1660SOL     OW 5515   1.283   3.320   6.733
 1660SOL    HW1 5516   1.339   3.324   6.811
 1660SOL    HW2 5517   1.227   3.243   6.747
 1661SOL     OW 5518   1.582   2.484   6.066
 1661SOL    HW1 5519   1.534   2.536   6.130
 1661SOL    HW2 5520   1.626   2.548   6.010
 1662SOL     OW 5521   0.352   3.382   6.896
 1662SOL    HW1 5522   0.341   3.338   6.811
 1662SOL    HW2 5523   0.446   3.399   6.902
 1663SOL     OW 5524   0.415   2.604   7.188
 1663SOL    HW1 5525   0.476   2.650   7.131
 1663SOL    HW2 5526   0.453   2.518   7.200
 1664SOL     OW 5527   1.602   2.641   7.269
 1664SOL    HW1 5528   1.516   2.683   7.262
 1664SOL    HW2 5529   1.655   2.683   7.201
 1665SOL     OW 5530   0.996   1.987   7.340
 1665SOL    HW1 5531   1.053   2.060   7.314
 1665SOL    HW2 5532   1.044   1.909   7.315
 1666SOL     OW 5533   0.498   1.902   7.334
 1666SOL    HW1 5534   0.455   1.848   7.267
 1666SOL    HW2 5535   0.440   1.977   7.346
 1667SOL     OW 5536   0.585   2.736   6.618
 1667SOL    HW1 5537   0.618   2.826   6.618
 1667SOL    HW2 5538   0.529   2.731   6.696
 1668SOL     OW 5539   1.356   2.721   6.614
 1668SOL    HW1 5540   1.272   2.710   6.569
 1668SOL    HW2 5541   1.398   2.635   6.608
 1669SOL     OW 5542   1.204   2.390   5.852
 1669SOL    HW1 5543   1.212   2.312   5.907
 1669SOL    HW2 5544   1.161   2.455   5.908
 1670SOL     OW 5545   0.301   2.065   6.834
 1670SOL    HW1 5546   0.268   2.089   6.920
 1670SOL    HW2 5547   0.290   1.970   6.829
 1671SOL     OW 5548   0.066   3.179   6.866
 1671SOL    HW1 5549   0.091   3.121   6.937
 1671SOL    HW2 5550   5.295   3.232   6.902
 1672SOL     OW 5551   0.723   2.493   6.643
 1672SOL    HW1 5552   0.799   2.477   6.586
 1672SOL    HW2 5553   0.696   2.582   6.622
 1673SOL     OW 5554   1.735   2.822   7.439
 1673SOL    HW1 5555   1.688   2.759   7.384
 1673SOL    HW2 5556   1.678   2.836   7.514
 1674SOL     OW 5557   0.327   1.924   6.220
 1674SOL    HW1 5558   0.307   2.013   6.247
 1674SOL    HW2 5559   0.333   1.875   6.302
 1675SOL     OW 5560   1.617   2.237   5.952
 1675SOL    HW1 5561   1.645   2.173   6.018
 1675SOL    HW2 5562   1.595   2.315   6.003
 1676SOL     OW 5563   1.028   2.621   6.546
 1676SOL    HW1 5564   1.024   2.638   6.640
 1676SOL    HW2 5565   1.002   2.529   6.537
 1677SOL     OW 5566   0.981   3.427   7.303
 1677SOL    HW1 5567   0.967   3.472   7.220
 1677SOL    HW2 5568   1.026   3.346   7.279
 1678SOL     OW 5569   1.854   3.367   7.191
 1678SOL    HW1 5570   1.874   3.393   7.101
 1678SOL    HW2 5571   1.935   3.384   7.239
 1679SOL     OW 5572   0.354   2.777   7.394
 1679SOL    HW1 5573   0.436   2.800   7.438
 1679SOL    HW2 5574   0.379   2.714   7.327
 1680SOL     OW 5575   1.528   2.135   5.713
 1680SOL    HW1 5576   1.463   2.070   5.740
 1680SOL    HW2 5577   1.562   2.170   5.796
 1681SOL     OW 5578   1.291   2.688   5.616
 1681SOL    HW1 5579   1.334   2.603   5.620
 1681SOL    HW2 5580   1.322   2.727   5.535
 1682SOL     OW 5581   1.067   3.198   6.440
 1682SOL    HW1 5582   1.070   3.126   6.378
 1682SOL    HW2 5583   1.127   3.263   6.406
 1683SOL     OW 5584   0.313   2.671   6.536
 1683SOL    HW1 5585   0.407   2.690   6.532
 1683SOL    HW2 5586   0.308   2.581   6.567
 1684SOL     OW 5587   0.334   2.388   6.601
 1684SOL    HW1 5588   0.300   2.300   6.587
 1684SOL    HW2 5589   0.409   2.394   6.542
 1685SOL     OW 5590   1.134   2.237   7.268
 1685SOL    HW1 5591   1.086   2.292   7.330
 1685SOL    HW2 5592   1.222   2.275   7.264
 1686SOL     OW 5593   1.161   2.064   7.056
 1686SOL    HW1 5594   1.150   2.126   7.127
 1686SOL    HW2 5595   1.201   2.114   6.985
 1687SOL     OW 5596   0.002   3.191   5.796
 1687SOL    HW1 5597   5.230   3.178   5.735
 1687SOL    HW2 5598   0.012   3.105   5.839
 1688SOL     OW 5599   0.094   3.643   6.538
 1688SOL    HW1 5600   0.060   3.575   6.481
 1688SOL    HW2 5601   0.181   3.663   6.503
 1689SOL     OW 5602   0.505   3.435   6.494
 1689SOL    HW1 5603   0.572   3.501   6.514
 1689SOL    HW2 5604   0.548   3.375   6.434
 1690SOL     OW 5605   0.981   2.653   6.812
 1690SOL    HW1 5606   1.038   2.631   6.886
 1690SOL    HW2 5607   0.896   2.615   6.835
 1691SOL     OW 5608   0.032   2.426   6.703
 1691SOL    HW1 5609   0.118   2.401   6.669
 1691SOL    HW2 5610   0.037   2.405   6.796
 1692SOL     OW 5611   0.174   2.375   7.303
 1692SOL    HW1 5612   0.236   2.334   7.242
 1692SOL    HW2 5613   0.147   2.456   7.259
 1693SOL     OW 5614   1.377   2.800   7.245
 1693SOL    HW1 5615   1.399   2.893   7.243
 1693SOL    HW2 5616   1.374   2.774   7.153
 1694SOL     OW 5617   0.816   2.431   5.948
 1694SOL    HW1 5618   0.821   2.357   5.887
 1694SOL    HW2 5619   0.743   2.483   5.916
 1695SOL     OW 5620   1.641   2.463   6.771
 1695SOL    HW1 5621   1.631   2.405   6.846
 1695SOL    HW2 5622   1.728   2.443   6.736
 1696SOL     OW 5623   0.255   3.418   7.321
 1696SOL    HW1 5624   0.233   3.479   7.391
 1696SOL    HW2 5625   0.250   3.332   7.363
 1697SOL     OW 5626   0.703   2.311   6.845
 1697SOL    HW1 5627   0.650   2.237   6.816
 1697SOL    HW2 5628   0.698   2.374   6.773
 1698SOL     OW 5629   0.927   3.541   7.054
 1698SOL    HW1 5630   0.901   3.506   6.969
 1698SOL    HW2 5631   0.922   3.636   7.043
 1699SOL     OW 5632   0.464   2.355   5.770
 1699SOL    HW1 5633   0.525   2.426   5.793
 1699SOL    HW2 5634   0.380   2.399   5.757
 1700SOL     OW 5635   0.148   2.999   7.057
 1700SOL    HW1 5636   0.144   2.951   7.139
 1700SOL    HW2 5637   0.159   2.931   6.990
 1701SOL     OW 5638   1.325   2.908   6.809
 1701SOL    HW1 5639   1.348   2.845   6.741
 1701SOL    HW2 5640   1.255   2.961   6.769
 1702SOL     OW 5641   1.312   2.718   5.892
 1702SOL    HW1 5642   1.237   2.688   5.942
 1702SOL    HW2 5643   1.287   2.705   5.800
 1703SOL     OW 5644   1.773   3.605   6.737
 1703SOL    HW1 5645   1.833   3.631   6.667
 1703SOL    HW2 5646   1.749   3.515   6.715
 1704SOL     OW 5647   1.241   3.595   6.697
 1704SOL    HW1 5648   1.323   3.617   6.653
 1704SOL    HW2 5649   1.247   3.501   6.716
 1705SOL     OW 5650   0.082   3.077   6.613
 1705SOL    HW1 5651   0.070   3.103   6.704
 1705SOL    HW2 5652   5.294   3.066   6.579
 1706SOL     OW 5653   0.677   3.528   7.316
 1706SOL    HW1 5654   0.622   3.606   7.311
 1706SOL    HW2 5655   0.744   3.541   7.248
 1707SOL     OW 5656   1.721   2.010   6.095
 1707SOL    HW1 5657   1.792   1.995   6.033
 1707SOL    HW2 5658   1.704   1.925   6.135
 1708SOL     OW 5659   1.391   3.430   6.072
 1708SOL    HW1 5660   1.451   3.462   6.005
 1708SOL    HW2 5661   1.342   3.507   6.100
 1709SOL     OW 5662   0.142   3.661   7.429
 1709SOL    HW1 5663   0.090   3.598   7.478
 1709SOL    HW2 5664   0.196   3.704   7.495
 1710SOL     OW 5665   1.277   2.788   6.257
 1710SOL    HW1 5666   1.351   2.727   6.265
 1710SOL    HW2 5667   1.311   2.860   6.204
 1711SOL     OW 5668   0.813   3.135   7.015
 1711SOL    HW1 5669   0.784   3.176   7.097
 1711SOL    HW2 5670   0.744   3.157   6.953
 1712SOL     OW 5671   0.672   3.483   5.741
 1712SOL    HW1 5672   0.683   3.496   5.647
 1712SOL    HW2 5673   0.617   3.405   5.748
 1713SOL     OW 5674   1.624   3.589   6.976
 1713SOL    HW1 5675   1.675   3.595   6.896
 1713SOL    HW2 5676   1.611   3.679   7.004
 1714SOL     OW 5677   1.841   2.035   6.552
 1714SOL    HW1 5678   1.869   1.947   6.526
 1714SOL    HW2 5679   1.754   2.045   6.513
 1715SOL     OW 5680   0.273   2.178   6.303
 1715SOL    HW1 5681   0.188   2.217   6.283
 1715SOL    HW2 5682   0.273   2.168   6.398
 1716SOL     OW 5683   1.207   3.467   5.618
 1716SOL    HW1 5684   1.197   3.376   5.644
 1716SOL    HW2 5685   1.142   3.480   5.549
 1717SOL     OW 5686   0.824   2.868   6.959
 1717SOL    HW1 5687   0.868   2.863   6.874
 1717SOL    HW2 5688   0.823   2.961   6.980
 1718SOL     OW 5689   0.915   2.772   5.876
 1718SOL    HW1 5690   0.976   2.805   5.810
 1718SOL    HW2 5691   0.964   2.704   5.922
 1719SOL     OW 5692   1.491   3.488   5.629
 1719SOL    HW1 5693   1.396   3.481   5.615
 1719SOL    HW2 5694   1.528   3.494   5.541
 1720SOL     OW 5695   0.367   3.166   7.079
 1720SOL    HW1 5696   0.359   3.240   7.019
 1720SOL    HW2 5697   0.291   3.111   7.060
 1721SOL     OW 5698   1.609   3.144   6.866
 1721SOL    HW1 5699   1.670   3.133   6.939
 1721SOL    HW2 5700   1.550   3.213   6.895
 1722SOL     OW 5701   1.054   2.969   6.293
 1722SOL    HW1 5702   0.983   2.918   6.332
 1722SOL    HW2 5703   1.117   2.904   6.263
 1723SOL     OW 5704   1.022   2.103   6.552
 1723SOL    HW1 5705   1.017   2.055   6.469
 1723SOL    HW2 5706   1.016   2.035   6.619
 1724SOL     OW 5707   0.602   3.349   6.067
 1724SOL    HW1 5708   0.648   3.301   5.998
 1724SOL    HW2 5709   0.534   3.398   6.020
 1725SOL     OW 5710   1.723   2.254   6.967
 1725SOL    HW1 5711   1.795   2.318   6.965
 1725SOL    HW2 5712   1.753   2.183   6.910
 1726SOL     OW 5713   0.261   3.210   5.879
 1726SOL    HW1 5714   0.168   3.212   5.856
 1726SOL    HW2 5715   0.265   3.247   5.967
 1727SOL     OW 5716   0.117   2.876   7.302
 1727SOL    HW1 5717   0.046   2.846   7.358
 1727SOL    HW2 5718   0.196   2.846   7.346
 1728SOL     OW 5719   0.674   2.058   7.085
 1728SOL    HW1 5720   0.758   2.038   7.044
 1728SOL    HW2 5721   0.697   2.088   7.173
 1729SOL     OW 5722   0.083   2.211   5.627
 1729SOL    HW1 5723   0.004   2.162   5.603
 1729SOL    HW2 5724   0.099   2.269   5.552
 1730SOL     OW 5725   1.429   2.720   6.986
 1730SOL    HW1 5726   1.380   2.782   6.931
 1730SOL    HW2 5727   1.518   2.723   6.952
 1731SOL     OW 5728   0.056   1.995   5.830
 1731SOL    HW1 5729   0.055   2.090   5.818
 1731SOL    HW2 5730   0.145   1.969   5.806
 1732SOL     OW 5731   1.179   3.200   5.703
 1732SOL    HW1 5732   1.088   3.170   5.705
 1732SOL    HW2 5733   1.206   3.201   5.795
 1733SOL     OW 5734   0.620   2.693   7.022
 1733SOL    HW1 5735   0.676   2.768   7.006
 1733SOL    HW2 5736   0.680   2.619   7.029
 1734SOL     OW 5737   1.483   3.640   6.566
 1734SOL    HW1 5738   1.507   3.700   6.495
 1734SOL    HW2 5739   1.567   3.619   6.608
 1735SOL     OW 5740   0.717   2.425   7.291
 1735SOL    HW1 5741   0.759   2.487   7.350
 1735SOL    HW2 5742   0.744   2.339   7.322
 1736SOL     OW 5743   1.472   3.061   7.217
 1736SOL    HW1 5744   1.460   3.074   7.311
 1736SOL    HW2 5745   1.565   3.077   7.203
 1737SOL     OW 5746   0.376   3.605   7.150
 1737SOL    HW1 5747   0.294   3.651   7.134
 1737SOL    HW2 5748   0.350   3.525   7.195
 1738SOL     OW 5749   1.669   2.743   6.841
 1738SOL    HW1 5750   1.662   2.658   6.798
 1738SOL    HW2 5751   1.659   2.807   6.770
 1739SOL     OW 5752   1.216   2.181   6.044
 1739SOL    HW1 5753   1.279   2.109   6.036
 1739SOL    HW2 5754   1.245   2.230   6.121
 1740SOL     OW 5755   0.589   2.599   6.256
 1740SOL    HW1 5756   0.629   2.685   6.241
 1740SOL    HW2 5757   0.521   2.592   6.189
 1741SOL     OW 5758   1.761   2.224   7.238
 1741SOL    HW1 5759   1.745   2.240   7.145
 1741SOL    HW2 5760   1.689   2.167   7.265
 1742SOL     OW 5761   1.744   2.795   7.098
 1742SOL    HW1 5762   1.741   2.890   7.112
 1742SOL    HW2 5763   1.729   2.784   7.004
 1743SOL     OW 5764   0.862   3.229   5.621
 1743SOL    HW1 5765   0.824   3.258   5.704
 1743SOL    HW2 5766   0.881   3.309   5.573
 1744SOL     OW 5767   0.664   3.655   6.528
 1744SOL    HW1 5768   0.643   3.745   6.506
 1744SOL    HW2 5769   0.759   3.650   6.522
 1745SOL     OW 5770   0.868   2.829   6.440
 1745SOL    HW1 5771   0.918   2.758   6.479
 1745SOL    HW2 5772   0.833   2.878   6.514
 1746SOL     OW 5773   1.078   2.849   5.674
 1746SOL    HW1 5774   1.057   2.901   5.597
 1746SOL    HW2 5775   1.153   2.796   5.649
 1747SOL     OW 5776   1.853   3.416   6.430
 1747SOL    HW1 5777   1.774   3.404   6.377
 1747SOL    HW2 5778   1.846   3.350   6.498
 1748SOL     OW 5779   0.226   3.166   7.447
 1748SOL    HW1 5780   0.156   3.106   7.420
 1748SOL    HW2 5781   0.213   3.177   7.541
 1749SOL     OW 5782   0.088   3.081   6.241
 1749SOL    HW1 5783   0.103   3.048   6.330
 1749SOL    HW2 5784   0.175   3.079   6.200
 1750SOL     OW 5785   0.682   3.264   7.215
 1750SOL    HW1 5786   0.600   3.223   7.245
 1750SOL    HW2 5787   0.678   3.353   7.251
 1751SOL     OW 5788   1.813   2.046   6.824
 1751SOL    HW1 5789   1.821   1.952   6.837
 1751SOL    HW2 5790   1.822   2.057   6.729
 1752SOL     OW 5791   0.435   2.298   6.110
 1752SOL    HW1 5792   0.463   2.226   6.054
 1752SOL    HW2 5793   0.388   2.256   6.182
 1753SOL     OW 5794   1.700   3.351   6.682
 1753SOL    HW1 5795   1.619   3.328   6.635
 1753SOL    HW2 5796   1.711   3.281   6.746
 1754SOL     OW 5797   0.337   2.422   6.878
 1754SOL    HW1 5798   0.391   2.363   6.931
 1754SOL    HW2 5799   0.351   2.392   6.788
 1755SOL     OW 5800   0.829   3.439   6.263
 1755SOL    HW1 5801   0.814   3.497   6.188
 1755SOL    HW2 5802   0.753   3.382   6.265
 1756SOL     OW 5803   1.431   2.088   6.704
 1756SOL    HW1 5804   1.455   2.007   6.750
 1756SOL    HW2 5805   1.380   2.137   6.768
 1757SOL     OW 5806   1.009   1.880   6.727
 1757SOL    HW1 5807   0.955   1.813   6.686
 1757SOL    HW2 5808   1.097   1.842   6.729
 1758SOL     OW 5809   0.772   3.195   5.903
 1758SOL    HW1 5810   0.743   3.104   5.909
 1758SOL    HW2 5811   0.854   3.197   5.952
 1759SOL     OW 5812   0.623   3.417   6.874
 1759SOL    HW1 5813   0.624   3.500   6.922
 1759SOL    HW2 5814   0.710   3.412   6.834
 1760SOL     OW 5815   1.353   1.916   5.752
 1760SOL    HW1 5816   1.382   1.851   5.688
 1760SOL    HW2 5817   1.265   1.886   5.778
 1761SOL     OW 5818   1.296   2.323   6.266
 1761SOL    HW1 5819   1.243   2.403   6.273
 1761SOL    HW2 5820   1.292   2.284   6.354
 1762SOL     OW 5821   1.586   2.063   6.465
 1762SOL    HW1 5822   1.526   2.084   6.536
 1762SOL    HW2 5823   1.586   2.141   6.409
 1763SOL     OW 5824   0.048   2.930   5.876
 1763SOL    HW1 5825   0.137   2.897   5.865
 1763SOL    HW2 5826   5.300   2.855   5.911
 1764SOL     OW 5827   0.886   3.515   5.927
 1764SOL    HW1 5828   0.813   3.500   5.867
 1764SOL    HW2 5829   0.859   3.590   5.980
 1765SOL     OW 5830   0.229   2.491   7.567
 1765SOL    HW1 5831   0.156   2.448   7.612
 1765SOL    HW2 5832   0.220   2.464   7.476
 1766SOL     OW 5833   1.768   2.459   7.679
 1766SOL    HW1 5834   1.748   2.455   7.585
 1766SOL    HW2 5835   1.726   2.380   7.715
 1767SOL     OW 5836   0.232   3.565   7.922
 1767SOL    HW1 5837   0.264   3.612   7.999
 1767SOL    HW2 5838   0.301   3.575   7.857
 1768SOL     OW 5839   0.216   3.298   7.992
 1768SOL    HW1 5840   0.211   3.393   7.981
 1768SOL    HW2 5841   0.153   3.278   8.062
 1769SOL     OW 5842   0.582   2.847   7.581
 1769SOL    HW1 5843   0.628   2.894   7.512
 1769SOL    HW2 5844   0.623   2.877   7.662
 1770SOL     OW 5845   1.837   3.620   7.797
 1770SOL    HW1 5846   1.909   3.591   7.853
 1770SOL    HW2 5847   1.862   3.709   7.771
 1771SOL     OW 5848   0.036   3.464   7.583
 1771SOL    HW1 5849   0.028   3.371   7.604
 1771SOL    HW2 5850   5.276   3.507   7.644
 1772SOL     OW 5851   1.680   2.726   8.036
 1772SOL    HW1 5852   1.761   2.737   0.005
 1772SOL    HW2 5853   1.669   2.809   7.989
 1773SOL     OW 5854   1.656   2.959   7.878
 1773SOL    HW1 5855   1.743   2.985   7.848
 1773SOL    HW2 5856   1.627   3.032   7.932
 1774SOL     OW 5857   0.799   1.857   7.937
 1774SOL    HW1 5858   0.849   1.937   7.921
 1774SOL    HW2 5859   0.709   1.887   7.948
 1775SOL     OW 5860   1.533   2.857   7.650
 1775SOL    HW1 5861   1.466   2.797   7.685
 1775SOL    HW2 5862   1.577   2.891   7.728
 1776SOL     OW 5863   0.588   2.585   7.708
 1776SOL    HW1 5864   0.595   2.667   7.659
 1776SOL    HW2 5865   0.534   2.607   7.783
 1777SOL     OW 5866   1.574   3.534   7.757
 1777SOL    HW1 5867   1.665   3.561   7.766
 1777SOL    HW2 5868   1.562   3.520   7.663
 1778SOL     OW 5869   0.057   2.688   0.199
 1778SOL    HW1 5870   0.121   2.622   0.171
 1778SOL    HW2 5871   0.033   2.733   0.119
 1779SOL     OW 5872   0.883   2.210   7.637
 1779SOL    HW1 5873   0.927   2.270   7.576
 1779SOL    HW2 5874   0.919   2.124   7.614
 1780SOL     OW 5875   0.317   2.809   7.694
 1780SOL    HW1 5876   0.397   2.837   7.650
 1780SOL    HW2 5877   0.295   2.726   7.652
 1781SOL     OW 5878   1.124   3.638   7.681
 1781SOL    HW1 5879   1.047   3.598   7.722
 1781SOL    HW2 5880   1.149   3.577   7.612
 1782SOL     OW 5881   1.628   3.243   7.534
 1782SOL    HW1 5882   1.586   3.328   7.520
 1782SOL    HW2 5883   1.559   3.179   7.516
 1783SOL     OW 5884   0.470   3.600   7.769
 1783SOL    HW1 5885   0.516   3.653   7.834
 1783SOL    HW2 5886   0.539   3.565   7.713
 1784SOL     OW 5887   1.417   1.994   7.864
 1784SOL    HW1 5888   1.405   1.960   7.775
 1784SOL    HW2 5889   1.511   1.994   7.877
 1785SOL     OW 5890   0.379   2.562   7.923
 1785SOL    HW1 5891   0.397   2.468   7.929
 1785SOL    HW2 5892   0.284   2.569   7.934
 1786SOL     OW 5893   0.629   1.980   7.559
 1786SOL    HW1 5894   0.704   1.922   7.568
 1786SOL    HW2 5895   0.585   1.950   7.479
 1787SOL     OW 5896   0.526   1.938   7.961
 1787SOL    HW1 5897   0.438   1.944   7.999
 1787SOL    HW2 5898   0.528   2.008   7.896
 1788SOL     OW 5899   1.428   3.060   7.489
 1788SOL    HW1 5900   1.458   2.986   7.542
 1788SOL    HW2 5901   1.344   3.084   7.527
 1789SOL     OW 5902   0.307   1.905   7.619
 1789SOL    HW1 5903   0.368   1.969   7.583
 1789SOL    HW2 5904   0.362   1.843   7.667
 1790SOL     OW 5905   0.944   2.087   7.910
 1790SOL    HW1 5906   0.900   2.152   7.855
 1790SOL    HW2 5907   1.035   2.117   7.914
 1791SOL     OW 5908   0.447   3.022   0.088
 1791SOL    HW1 5909   0.376   3.045   0.148
 1791SOL    HW2 5910   0.404   3.004   0.005
 1792SOL     OW 5911   1.291   3.674   8.014
 1792SOL    HW1 5912   1.327   3.743   7.958
 1792SOL    HW2 5913   1.206   3.707   8.040
 1793SOL     OW 5914   1.024   2.402   7.468
 1793SOL    HW1 5915   0.980   2.485   7.451
 1793SOL    HW2 5916   1.085   2.422   7.539
 1794SOL     OW 5917   1.869   2.679   7.800
 1794SOL    HW1 5918   1.868   2.651   7.891
 1794SOL    HW2 5919   1.831   2.606   7.751
 1795SOL     OW 5920   0.489   3.279   7.604
 1795SOL    HW1 5921   0.415   3.251   7.656
 1795SOL    HW2 5922   0.474   3.240   7.517
 1796SOL     OW 5923   1.394   2.434   7.519
 1796SOL    HW1 5924   1.333   2.413   7.589
 1796SOL    HW2 5925   1.478   2.402   7.550
 1797SOL     OW 5926   0.526   2.128   7.769
 1797SOL    HW1 5927   0.571   2.078   7.701
 1797SOL    HW2 5928   0.502   2.210   7.728
 1798SOL     OW 5929   0.711   2.923   7.813
 1798SOL    HW1 5930   0.692   2.912   7.906
 1798SOL    HW2 5931   0.789   2.871   7.797
 1799SOL     OW 5932   0.344   2.958   7.926
 1799SOL    HW1 5933   0.342   3.042   7.881
 1799SOL    HW2 5934   0.346   2.893   7.856
 1800SOL     OW 5935   1.222   3.218   7.821
 1800SOL    HW1 5936   1.283   3.288   7.844
 1800SOL    HW2 5937   1.188   3.188   7.905
 1801SOL     OW 5938   1.589   2.488   7.921
 1801SOL    HW1 5939   1.577   2.548   7.995
 1801SOL    HW2 5940   1.626   2.543   7.852
 1802SOL     OW 5941   1.203   2.387   7.713
 1802SOL    HW1 5942   1.204   2.305   7.762
 1802SOL    HW2 5943   1.183   2.454   7.779
 1803SOL     OW 5944   1.619   2.241   7.813
 1803SOL    HW1 5945   1.641   2.175   7.879
 1803SOL    HW2 5946   1.595   2.319   7.864
 1804SOL     OW 5947   1.529   2.136   7.575
 1804SOL    HW1 5948   1.464   2.071   7.601
 1804SOL    HW2 5949   1.562   2.172   7.658
 1805SOL     OW 5950   1.293   2.689   7.480
 1805SOL    HW1 5951   1.335   2.603   7.482
 1805SOL    HW2 5952   1.323   2.729   7.399
 1806SOL     OW 5953   0.004   3.195   7.656
 1806SOL    HW1 5954   5.223   3.191   7.605
 1806SOL    HW2 5955   0.014   3.107   7.692
 1807SOL     OW 5956   0.841   2.465   7.759
 1807SOL    HW1 5957   0.834   2.373   7.733
 1807SOL    HW2 5958   0.750   2.496   7.761
 1808SOL     OW 5959   0.461   2.355   7.638
 1808SOL    HW1 5960   0.522   2.426   7.655
 1808SOL    HW2 5961   0.377   2.398   7.622
 1809SOL     OW 5962   1.311   2.711   7.754
 1809SOL    HW1 5963   1.224   2.725   7.792
 1809SOL    HW2 5964   1.294   2.702   7.660
 1810SOL     OW 5965   1.712   2.010   7.946
 1810SOL    HW1 5966   1.789   2.003   7.889
 1810SOL    HW2 5967   1.715   1.931   8.001
 1811SOL     OW 5968   1.363   3.439   7.895
 1811SOL    HW1 5969   1.438   3.459   7.839
 1811SOL    HW2 5970   1.332   3.524   7.926
 1812SOL     OW 5971   0.668   3.482   7.603
 1812SOL    HW1 5972   0.680   3.494   7.509
 1812SOL    HW2 5973   0.615   3.403   7.610
 1813SOL     OW 5974   1.209   3.468   7.478
 1813SOL    HW1 5975   1.198   3.377   7.505
 1813SOL    HW2 5976   1.143   3.482   7.411
 1814SOL     OW 5977   0.924   2.770   7.755
 1814SOL    HW1 5978   0.979   2.795   7.680
 1814SOL    HW2 5979   0.920   2.674   7.751
 1815SOL     OW 5980   1.493   3.489   7.488
 1815SOL    HW1 5981   1.398   3.481   7.476
 1815SOL    HW2 5982   1.528   3.494   7.400
 1816SOL     OW 5983   0.608   3.369   7.935
 1816SOL    HW1 5984   0.653   3.309   7.875
 1816SOL    HW2 5985   0.534   3.402   7.885
 1817SOL     OW 5986   0.261   3.208   7.743
 1817SOL    HW1 5987   0.168   3.212   7.718
 1817SOL    HW2 5988   0.263   3.244   7.832
 1818SOL     OW 5989   0.083   2.200   7.487
 1818SOL    HW1 5990   5.298   2.162   7.464
 1818SOL    HW2 5991   0.100   2.265   7.419
 1819SOL     OW 5992   0.083   2.000   7.739
 1819SOL    HW1 5993   0.068   2.086   7.700
 1819SOL    HW2 5994   0.154   1.963   7.687
 1820SOL     OW 5995   1.176   3.200   7.556
 1820SOL    HW1 5996   1.083   3.175   7.555
 1820SOL    HW2 5997   1.198   3.206   7.649
 1821SOL     OW 5998   1.214   2.180   7.904
 1821SOL    HW1 5999   1.288   2.120   7.892
 1821SOL    HW2 6000   1.235   2.228   7.984
 1822SOL     OW 6001   0.625   2.603   8.047
 1822SOL    HW1 6002   0.628   2.679   0.024
 1822SOL    HW2 6003   0.533   2.598   8.018
 1823SOL     OW 6004   0.863   3.229   7.485
 1823SOL    HW1 6005   0.825   3.259   7.567
 1823SOL    HW2 6006   0.882   3.309   7.436
 1824SOL     OW 6007   1.071   2.839   7.538
 1824SOL    HW1 6008   1.053   2.897   7.464
 1824SOL    HW2 6009   1.150   2.791   7.511
 1825SOL     OW 6010   0.392   2.294   7.981
 1825SOL    HW1 6011   0.435   2.234   7.920
 1825SOL    HW2 6012   0.438   2.282   8.064
 1826SOL     OW 6013   0.765   3.198   7.764
 1826SOL    HW1 6014   0.736   3.107   7.764
 1826SOL    HW2 6015   0.847   3.197   7.812
 1827SOL     OW 6016   1.353   1.914   7.610
 1827SOL    HW1 6017   1.383   1.847   7.549
 1827SOL    HW2 6018   1.266   1.885   7.638
 1828SOL     OW 6019   0.048   2.932   7.721
 1828SOL    HW1 6020   0.138   2.897   7.719
 1828SOL    HW2 6021   0.001   2.872   7.779
 1829SOL     OW 6022   0.893   3.515   7.779
 1829SOL    HW1 6023   0.817   3.491   7.727
 1829SOL    HW2 6024   0.859   3.577   7.844
 1830SOL     OW 6025   0.224   4.345   0.116
 1830SOL    HW1 6026   0.155   4.301   0.165
 1830SOL    HW2 6027   0.230   4.296   0.034
 1831SOL     OW 6028   0.242   3.998   0.988
 1831SOL    HW1 6029   0.256   3.965   1.076
 1831SOL    HW2 6030   0.158   3.963   0.961
 1832SOL     OW 6031   5.295   4.121   0.649
 1832SOL    HW1 6032   5.204   4.149   0.658
 1832SOL    HW2 6033   5.290   4.028   0.628
 1833SOL     OW 6034   0.575   5.001   1.185
 1833SOL    HW1 6035   0.496   5.007   1.132
 1833SOL    HW2 6036   0.593   5.092   1.210
 1834SOL     OW 6037   1.557   5.233   0.688
 1834SOL    HW1 6038   1.535   5.230   0.781
 1834SOL    HW2 6039   1.478   5.269   0.646
 1835SOL     OW 6040   1.131   4.422   0.700
 1835SOL    HW1 6041   1.179   4.503   0.687
 1835SOL    HW2 6042   1.084   4.435   0.782
 1836SOL     OW 6043   1.770   4.324   0.232
 1836SOL    HW1 6044   1.731   4.326   0.145
 1836SOL    HW2 6045   1.730   4.248   0.275
 1837SOL     OW 6046   0.757   4.866   1.038
 1837SOL    HW1 6047   0.691   4.896   1.100
 1837SOL    HW2 6048   0.786   4.946   0.992
 1838SOL     OW 6049   0.869   4.496   1.822
 1838SOL    HW1 6050   0.856   4.568   1.885
 1838SOL    HW2 6051   0.892   4.540   1.740
 1839SOL     OW 6052   0.684   4.723   0.651
 1839SOL    HW1 6053   0.750   4.714   0.719
 1839SOL    HW2 6054   0.617   4.780   0.689
 1840SOL     OW 6055   0.708   4.871   1.813
 1840SOL    HW1 6056   0.756   4.950   1.837
 1840SOL    HW2 6057   0.626   4.903   1.777
 1841SOL     OW 6058   0.378   5.147   1.053
 1841SOL    HW1 6059   0.283   5.157   1.041
 1841SOL    HW2 6060   0.417   5.196   0.981
 1842SOL     OW 6061   1.454   5.221   1.348
 1842SOL    HW1 6062   1.509   5.293   1.379
 1842SOL    HW2 6063   1.387   5.211   1.415
 1843SOL     OW 6064   0.451   4.124   1.491
 1843SOL    HW1 6065   0.525   4.063   1.493
 1843SOL    HW2 6066   0.374   4.068   1.501
 1844SOL     OW 6067   1.611   4.171   0.741
 1844SOL    HW1 6068   1.536   4.193   0.686
 1844SOL    HW2 6069   1.624   4.248   0.796
 1845SOL     OW 6070   1.133   5.073   1.702
 1845SOL    HW1 6071   1.163   5.074   1.793
 1845SOL    HW2 6072   1.080   4.994   1.695
 1846SOL     OW 6073   0.209   5.150   0.531
 1846SOL    HW1 6074   0.253   5.229   0.565
 1846SOL    HW2 6075   0.128   5.145   0.581
 1847SOL     OW 6076   0.255   4.800   0.877
 1847SOL    HW1 6077   0.264   4.711   0.912
 1847SOL    HW2 6078   0.196   4.844   0.938
 1848SOL     OW 6079   0.619   4.683   0.138
 1848SOL    HW1 6080   0.575   4.763   0.108
 1848SOL    HW2 6081   0.674   4.712   0.211
 1849SOL     OW 6082   1.596   3.848   1.467
 1849SOL    HW1 6083   1.607   3.929   1.417
 1849SOL    HW2 6084   1.581   3.877   1.557
 1850SOL     OW 6085   0.132   4.353   0.582
 1850SOL    HW1 6086   0.086   4.274   0.610
 1850SOL    HW2 6087   0.100   4.422   0.640
 1851SOL     OW 6088   0.014   5.293   0.070
 1851SOL    HW1 6089   0.021   5.209   0.115
 1851SOL    HW2 6090   0.043   0.057   0.134
 1852SOL     OW 6091   1.687   4.642   0.644
 1852SOL    HW1 6092   1.769   4.599   0.621
 1852SOL    HW2 6093   1.665   4.694   0.567
 1853SOL     OW 6094   1.646   4.829   0.434
 1853SOL    HW1 6095   1.728   4.839   0.386
 1853SOL    HW2 6096   1.653   4.891   0.507
 1854SOL     OW 6097   0.132   4.472   1.585
 1854SOL    HW1 6098   0.226   4.487   1.585
 1854SOL    HW2 6099   0.094   4.559   1.598
 1855SOL     OW 6100   0.627   5.098   0.737
 1855SOL    HW1 6101   0.570   5.021   0.735
 1855SOL    HW2 6102   0.603   5.148   0.659
 1856SOL     OW 6103   1.288   4.953   1.426
 1856SOL    HW1 6104   1.322   4.888   1.365
 1856SOL    HW2 6105   1.349   4.951   1.500
 1857SOL     OW 6106   0.825   3.727   0.514
 1857SOL    HW1 6107   0.863   3.811   0.490
 1857SOL    HW2 6108   0.731   3.744   0.518
 1858SOL     OW 6109   0.174   4.665   1.283
 1858SOL    HW1 6110   0.264   4.634   1.270
 1858SOL    HW2 6111   0.134   4.661   1.196
 1859SOL     OW 6112   1.507   4.736   0.211
 1859SOL    HW1 6113   1.447   4.669   0.244
 1859SOL    HW2 6114   1.561   4.759   0.287
 1860SOL     OW 6115   0.339   3.977   1.820
 1860SOL    HW1 6116   0.385   4.060   1.833
 1860SOL    HW2 6117   0.250   3.994   1.853
 1861SOL     OW 6118   1.478   5.147   0.963
 1861SOL    HW1 6119   1.405   5.160   1.022
 1861SOL    HW2 6120   1.466   5.058   0.928
 1862SOL     OW 6121   0.597   4.436   0.281
 1862SOL    HW1 6122   0.617   4.517   0.234
 1862SOL    HW2 6123   0.535   4.462   0.349
 1863SOL     OW 6124   1.279   4.078   0.933
 1863SOL    HW1 6125   1.189   4.045   0.941
 1863SOL    HW2 6126   1.330   4.025   0.993
 1864SOL     OW 6127   0.792   4.341   1.451
 1864SOL    HW1 6128   0.765   4.317   1.539
 1864SOL    HW2 6129   0.753   4.274   1.395
 1865SOL     OW 6130   1.393   4.198   1.678
 1865SOL    HW1 6131   1.396   4.243   1.762
 1865SOL    HW2 6132   1.454   4.124   1.687
 1866SOL     OW 6133   0.954   4.612   1.583
 1866SOL    HW1 6134   1.008   4.541   1.548
 1866SOL    HW2 6135   0.906   4.645   1.508
 1867SOL     OW 6136   0.992   4.136   1.238
 1867SOL    HW1 6137   0.906   4.157   1.273
 1867SOL    HW2 6138   0.974   4.091   1.156
 1868SOL     OW 6139   1.053   4.423   0.427
 1868SOL    HW1 6140   1.069   4.416   0.522
 1868SOL    HW2 6141   0.970   4.377   0.414
 1869SOL     OW 6142   0.066   4.512   0.818
 1869SOL    HW1 6143   0.149   4.516   0.864
 1869SOL    HW2 6144   0.066   4.589   0.761
 1870SOL     OW 6145   0.885   4.081   0.202
 1870SOL    HW1 6146   0.931   4.131   0.134
 1870SOL    HW2 6147   0.886   3.991   0.170
 1871SOL     OW 6148   1.708   4.298   1.828
 1871SOL    HW1 6149   1.670   4.371   1.780
 1871SOL    HW2 6150   1.736   4.236   1.760
 1872SOL     OW 6151   1.377   4.863   0.539
 1872SOL    HW1 6152   1.458   4.851   0.489
 1872SOL    HW2 6153   1.326   4.926   0.487
 1873SOL     OW 6154   0.556   3.907   0.894
 1873SOL    HW1 6155   0.553   3.935   0.985
 1873SOL    HW2 6156   0.553   3.989   0.844
 1874SOL     OW 6157   1.018   5.162   0.471
 1874SOL    HW1 6158   0.944   5.223   0.471
 1874SOL    HW2 6159   1.040   5.150   0.563
 1875SOL     OW 6160   1.801   4.780   0.867
 1875SOL    HW1 6161   1.744   4.761   0.792
 1875SOL    HW2 6162   1.741   4.787   0.941
 1876SOL     OW 6163   1.251   5.240   1.525
 1876SOL    HW1 6164   1.215   5.173   1.584
 1876SOL    HW2 6165   1.179   5.261   1.466
 1877SOL     OW 6166   0.330   4.674   0.250
 1877SOL    HW1 6167   0.412   4.684   0.202
 1877SOL    HW2 6168   0.314   4.579   0.251
 1878SOL     OW 6169   1.479   4.466   0.726
 1878SOL    HW1 6170   1.471   4.425   0.812
 1878SOL    HW2 6171   1.556   4.523   0.733
 1879SOL     OW 6172   0.463   4.989   1.743
 1879SOL    HW1 6173   0.438   4.992   1.651
 1879SOL    HW2 6174   0.380   4.989   1.791
 1880SOL     OW 6175   1.159   0.157   0.236
 1880SOL    HW1 6176   1.077   0.177   0.280
 1880SOL    HW2 6177   1.134   0.136   0.146
 1881SOL     OW 6178   0.205   4.003   1.497
 1881SOL    HW1 6179   0.127   4.055   1.480
 1881SOL    HW2 6180   0.173   3.923   1.538
 1882SOL     OW 6181   1.630   5.094   0.077
 1882SOL    HW1 6182   1.591   5.180   0.095
 1882SOL    HW2 6183   1.555   5.036   0.062
 1883SOL     OW 6184   1.407   3.835   0.446
 1883SOL    HW1 6185   1.399   3.814   0.353
 1883SOL    HW2 6186   1.502   3.842   0.460
 1884SOL     OW 6187   0.382   4.423   0.475
 1884SOL    HW1 6188   0.413   4.333   0.485
 1884SOL    HW2 6189   0.290   4.420   0.501
 1885SOL     OW 6190   1.534   3.949   1.725
 1885SOL    HW1 6191   1.544   3.970   1.818
 1885SOL    HW2 6192   1.465   3.883   1.722
 1886SOL     OW 6193   0.629   3.834   0.138
 1886SOL    HW1 6194   0.724   3.822   0.142
 1886SOL    HW2 6195   0.607   3.815   0.046
 1887SOL     OW 6196   0.766   4.003   1.755
 1887SOL    HW1 6197   0.843   3.945   1.755
 1887SOL    HW2 6198   0.718   3.978   1.833
 1888SOL     OW 6199   1.340   4.313   1.432
 1888SOL    HW1 6200   1.371   4.282   1.517
 1888SOL    HW2 6201   1.376   4.401   1.424
 1889SOL     OW 6202   0.815   5.118   0.937
 1889SOL    HW1 6203   0.895   5.105   0.888
 1889SOL    HW2 6204   0.746   5.125   0.871
 1890SOL     OW 6205   0.928   4.233   0.902
 1890SOL    HW1 6206   0.904   4.225   0.810
 1890SOL    HW2 6207   0.959   4.146   0.927
 1891SOL     OW 6208   0.561   3.786   0.499
 1891SOL    HW1 6209   0.486   3.785   0.559
 1891SOL    HW2 6210   0.549   3.865   0.447
 1892SOL     OW 6211   1.425   4.926   0.035
 1892SOL    HW1 6212   1.453   4.852   0.089
 1892SOL    HW2 6213   1.339   4.949   0.069
 1893SOL     OW 6214   0.314   3.772   0.176
 1893SOL    HW1 6215   0.380   3.842   0.182
 1893SOL    HW2 6216   0.356   3.697   0.219
 1894SOL     OW 6217   0.942   3.972   0.458
 1894SOL    HW1 6218   0.914   4.013   0.376
 1894SOL    HW2 6219   1.036   3.989   0.462
 1895SOL     OW 6220   1.080   4.405   1.460
 1895SOL    HW1 6221   1.011   4.338   1.463
 1895SOL    HW2 6222   1.161   4.356   1.453
 1896SOL     OW 6223   1.263   5.265   0.780
 1896SOL    HW1 6224   1.220   0.045   0.749
 1896SOL    HW2 6225   1.307   5.291   0.860
 1897SOL     OW 6226   0.466   4.875   0.727
 1897SOL    HW1 6227   0.398   4.854   0.791
 1897SOL    HW2 6228   0.426   4.857   0.642
 1898SOL     OW 6229   1.031   4.250   0.032
 1898SOL    HW1 6230   0.990   4.332   0.003
 1898SOL    HW2 6231   1.094   4.278   0.099
 1899SOL     OW 6232   0.089   4.268   1.399
 1899SOL    HW1 6233   0.177   4.276   1.361
 1899SOL    HW2 6234   0.079   4.345   1.455
 1900SOL     OW 6235   0.560   3.952   1.167
 1900SOL    HW1 6236   0.598   3.872   1.205
 1900SOL    HW2 6237   0.468   3.950   1.194
 1901SOL     OW 6238   0.867   4.182   0.639
 1901SOL    HW1 6239   0.825   4.238   0.574
 1901SOL    HW2 6240   0.889   4.102   0.591
 1902SOL     OW 6241   1.016   3.777   0.749
 1902SOL    HW1 6242   0.956   3.770   0.675
 1902SOL    HW2 6243   0.994   3.702   0.805
 1903SOL     OW 6244   1.439   4.890   0.859
 1903SOL    HW1 6245   1.370   4.822   0.856
 1903SOL    HW2 6246   1.463   4.903   0.767
 1904SOL     OW 6247   1.466   4.330   0.975
 1904SOL    HW1 6248   1.414   4.250   0.979
 1904SOL    HW2 6249   1.525   4.323   1.050
 1905SOL     OW 6250   1.848   4.538   0.388
 1905SOL    HW1 6251   1.901   4.486   0.448
 1905SOL    HW2 6252   1.817   4.476   0.322
 1906SOL     OW 6253   0.473   5.158   0.156
 1906SOL    HW1 6254   0.421   5.110   0.220
 1906SOL    HW2 6255   0.504   5.092   0.095
 1907SOL     OW 6256   1.671   4.988   0.647
 1907SOL    HW1 6257   1.764   4.995   0.665
 1907SOL    HW2 6258   1.636   5.076   0.663
 1908SOL     OW 6259   1.398   4.302   0.088
 1908SOL    HW1 6260   1.336   4.283   0.158
 1908SOL    HW2 6261   1.452   4.223   0.082
 1909SOL     OW 6262   0.514   3.987   0.323
 1909SOL    HW1 6263   0.565   3.936   0.260
 1909SOL    HW2 6264   0.500   4.071   0.279
 1910SOL     OW 6265   1.751   4.960   1.574
 1910SOL    HW1 6266   1.836   4.917   1.574
 1910SOL    HW2 6267   1.770   5.053   1.586
 1911SOL     OW 6268   1.064   5.075   1.331
 1911SOL    HW1 6269   0.985   5.048   1.378
 1911SOL    HW2 6270   1.136   5.035   1.380
 1912SOL     OW 6271   1.128   4.927   1.107
 1912SOL    HW1 6272   1.077   4.968   1.177
 1912SOL    HW2 6273   1.082   4.951   1.027
 1913SOL     OW 6274   1.628   4.822   1.076
 1913SOL    HW1 6275   1.623   4.883   1.149
 1913SOL    HW2 6276   1.551   4.841   1.023
 1914SOL     OW 6277   0.919   3.820   1.396
 1914SOL    HW1 6278   0.941   3.802   1.305
 1914SOL    HW2 6279   0.998   3.860   1.432
 1915SOL     OW 6280   0.984   4.839   1.726
 1915SOL    HW1 6281   0.892   4.855   1.744
 1915SOL    HW2 6282   0.984   4.762   1.668
 1916SOL     OW 6283   0.710   4.783   0.381
 1916SOL    HW1 6284   0.694   4.766   0.474
 1916SOL    HW2 6285   0.790   4.734   0.362
 1917SOL     OW 6286   0.421   4.543   1.252
 1917SOL    HW1 6287   0.490   4.550   1.318
 1917SOL    HW2 6288   0.386   4.455   1.263
 1918SOL     OW 6289   1.265   4.100   1.276
 1918SOL    HW1 6290   1.297   4.178   1.322
 1918SOL    HW2 6291   1.174   4.122   1.254
 1919SOL     OW 6292   0.112   5.289   1.319
 1919SOL    HW1 6293   0.051   0.045   1.367
 1919SOL    HW2 6294   0.190   5.284   1.375
 1920SOL     OW 6295   0.346   4.829   0.486
 1920SOL    HW1 6296   0.338   4.908   0.432
 1920SOL    HW2 6297   0.356   4.758   0.423
 1921SOL     OW 6298   0.553   4.258   0.859
 1921SOL    HW1 6299   0.568   4.317   0.785
 1921SOL    HW2 6300   0.618   4.285   0.924
 1922SOL     OW 6301   1.258   5.073   0.385
 1922SOL    HW1 6302   1.312   5.148   0.410
 1922SOL    HW2 6303   1.169   5.097   0.412
 1923SOL     OW 6304   1.270   5.183   1.141
 1923SOL    HW1 6305   1.329   5.196   1.216
 1923SOL    HW2 6306   1.226   5.100   1.160
 1924SOL     OW 6307   1.582   4.347   0.483
 1924SOL    HW1 6308   1.532   4.396   0.548
 1924SOL    HW2 6309   1.616   4.413   0.423
 1925SOL     OW 6310   0.382   5.231   1.314
 1925SOL    HW1 6311   0.366   5.193   1.228
 1925SOL    HW2 6312   0.474   5.256   1.312
 1926SOL     OW 6313   0.415   4.466   1.602
 1926SOL    HW1 6314   0.476   4.512   1.545
 1926SOL    HW2 6315   0.453   4.380   1.615
 1927SOL     OW 6316   1.603   4.503   1.683
 1927SOL    HW1 6317   1.517   4.544   1.676
 1927SOL    HW2 6318   1.655   4.545   1.614
 1928SOL     OW 6319   0.996   3.849   1.755
 1928SOL    HW1 6320   1.052   3.922   1.728
 1928SOL    HW2 6321   1.044   3.770   1.729
 1929SOL     OW 6322   0.497   3.765   1.748
 1929SOL    HW1 6323   0.454   3.711   1.682
 1929SOL    HW2 6324   0.438   3.839   1.761
 1930SOL     OW 6325   0.586   4.597   1.033
 1930SOL    HW1 6326   0.615   4.688   1.030
 1930SOL    HW2 6327   0.529   4.592   1.109
 1931SOL     OW 6328   1.356   4.582   1.027
 1931SOL    HW1 6329   1.272   4.571   0.983
 1931SOL    HW2 6330   1.398   4.496   1.021
 1932SOL     OW 6331   1.202   4.252   0.270
 1932SOL    HW1 6332   1.210   4.173   0.324
 1932SOL    HW2 6333   1.159   4.315   0.327
 1933SOL     OW 6334   0.301   3.927   1.247
 1933SOL    HW1 6335   0.267   3.951   1.333
 1933SOL    HW2 6336   0.289   3.832   1.242
 1934SOL     OW 6337   0.042   5.021   1.276
 1934SOL    HW1 6338   0.073   4.972   1.352
 1934SOL    HW2 6339   0.045   5.113   1.304
 1935SOL     OW 6340   0.723   4.354   1.057
 1935SOL    HW1 6341   0.799   4.340   0.999
 1935SOL    HW2 6342   0.695   4.444   1.037
 1936SOL     OW 6343   1.735   4.684   1.853
 1936SOL    HW1 6344   1.690   4.620   1.797
 1936SOL    HW2 6345   1.675   4.698   1.926
 1937SOL     OW 6346   0.325   3.787   0.635
 1937SOL    HW1 6347   0.309   3.877   0.664
 1937SOL    HW2 6348   0.332   3.737   0.716
 1938SOL     OW 6349   1.623   4.100   0.369
 1938SOL    HW1 6350   1.646   4.035   0.434
 1938SOL    HW2 6351   1.597   4.177   0.420
 1939SOL     OW 6352   1.028   4.483   0.960
 1939SOL    HW1 6353   1.024   4.500   1.054
 1939SOL    HW2 6354   1.002   4.391   0.951
 1940SOL     OW 6355   1.854   5.213   1.583
 1940SOL    HW1 6356   1.846   5.290   1.527
 1940SOL    HW2 6357   1.924   5.236   1.645
 1941SOL     OW 6358   0.355   4.643   1.806
 1941SOL    HW1 6359   0.436   4.660   1.854
 1941SOL    HW2 6360   0.380   4.577   1.741
 1942SOL     OW 6361   1.515   4.027   0.127
 1942SOL    HW1 6362   1.467   3.946   0.143
 1942SOL    HW2 6363   1.556   4.048   0.211
 1943SOL     OW 6364   1.295   4.547   0.019
 1943SOL    HW1 6365   1.333   4.461   0.037
 1943SOL    HW2 6366   1.357   4.587   8.038
 1944SOL     OW 6367   1.058   5.080   0.825
 1944SOL    HW1 6368   1.064   4.994   0.782
 1944SOL    HW2 6369   1.144   5.119   0.812
 1945SOL     OW 6370   0.314   4.532   0.948
 1945SOL    HW1 6371   0.408   4.550   0.945
 1945SOL    HW2 6372   0.308   4.442   0.981
 1946SOL     OW 6373   0.334   4.250   1.016
 1946SOL    HW1 6374   0.299   4.162   1.001
 1946SOL    HW2 6375   0.409   4.255   0.956
 1947SOL     OW 6376   1.134   4.099   1.683
 1947SOL    HW1 6377   1.086   4.154   1.745
 1947SOL    HW2 6378   1.221   4.138   1.679
 1948SOL     OW 6379   1.161   3.926   1.470
 1948SOL    HW1 6380   1.150   3.989   1.542
 1948SOL    HW2 6381   1.201   3.976   1.400
 1949SOL     OW 6382   0.012   5.051   0.197
 1949SOL    HW1 6383   5.222   5.054   0.166
 1949SOL    HW2 6384   0.018   4.967   0.243
 1950SOL     OW 6385   0.981   4.515   1.226
 1950SOL    HW1 6386   1.038   4.493   1.300
 1950SOL    HW2 6387   0.896   4.477   1.249
 1951SOL     OW 6388   0.031   4.278   1.115
 1951SOL    HW1 6389   0.121   4.265   1.084
 1951SOL    HW2 6390   0.037   4.266   1.210
 1952SOL     OW 6391   0.174   4.237   1.712
 1952SOL    HW1 6392   0.238   4.199   1.652
 1952SOL    HW2 6393   0.147   4.319   1.670
 1953SOL     OW 6394   1.377   4.662   1.658
 1953SOL    HW1 6395   1.398   4.755   1.655
 1953SOL    HW2 6396   1.374   4.635   1.566
 1954SOL     OW 6397   0.819   4.294   0.368
 1954SOL    HW1 6398   0.829   4.222   0.306
 1954SOL    HW2 6399   0.743   4.342   0.337
 1955SOL     OW 6400   1.642   4.325   1.185
 1955SOL    HW1 6401   1.631   4.267   1.259
 1955SOL    HW2 6402   1.729   4.306   1.150
 1956SOL     OW 6403   0.209   5.279   1.731
 1956SOL    HW1 6404   0.171   0.021   1.809
 1956SOL    HW2 6405   0.212   5.186   1.754
 1957SOL     OW 6406   0.704   4.173   1.258
 1957SOL    HW1 6407   0.650   4.099   1.230
 1957SOL    HW2 6408   0.699   4.236   1.187
 1958SOL     OW 6409   0.467   4.214   0.178
 1958SOL    HW1 6410   0.532   4.280   0.201
 1958SOL    HW2 6411   0.383   4.260   0.180
 1959SOL     OW 6412   0.150   4.861   1.472
 1959SOL    HW1 6413   0.146   4.812   1.555
 1959SOL    HW2 6414   0.159   4.793   1.405
 1960SOL     OW 6415   1.326   4.769   1.222
 1960SOL    HW1 6416   1.348   4.706   1.153
 1960SOL    HW2 6417   1.256   4.822   1.184
 1961SOL     OW 6418   1.307   4.573   0.307
 1961SOL    HW1 6419   1.231   4.544   0.357
 1961SOL    HW2 6420   1.281   4.560   0.216
 1962SOL     OW 6421   0.074   4.915   1.031
 1962SOL    HW1 6422   0.062   4.957   1.116
 1962SOL    HW2 6423   5.289   4.921   0.989
 1963SOL     OW 6424   0.753   0.037   1.709
 1963SOL    HW1 6425   0.660   0.059   1.718
 1963SOL    HW2 6426   0.774   0.060   1.618
 1964SOL     OW 6427   0.905   3.816   0.132
 1964SOL    HW1 6428   0.921   3.799   0.039
 1964SOL    HW2 6429   0.970   3.763   0.178
 1965SOL     OW 6430   1.719   3.870   0.509
 1965SOL    HW1 6431   1.791   3.854   0.448
 1965SOL    HW2 6432   1.704   3.786   0.551
 1966SOL     OW 6433   1.277   4.650   0.672
 1966SOL    HW1 6434   1.351   4.589   0.679
 1966SOL    HW2 6435   1.311   4.722   0.618
 1967SOL     OW 6436   0.817   4.993   1.418
 1967SOL    HW1 6437   0.785   5.029   1.500
 1967SOL    HW2 6438   0.742   5.000   1.358
 1968SOL     OW 6439   1.841   3.896   0.966
 1968SOL    HW1 6440   1.870   3.809   0.940
 1968SOL    HW2 6441   1.754   3.906   0.927
 1969SOL     OW 6442   0.270   4.040   0.716
 1969SOL    HW1 6443   0.188   4.085   0.698
 1969SOL    HW2 6444   0.272   4.030   0.811
 1970SOL     OW 6445   1.139   0.018   0.002
 1970SOL    HW1 6446   1.154   5.229   0.033
 1970SOL    HW2 6447   1.145   0.012   7.987
 1971SOL     OW 6448   0.825   4.727   1.371
 1971SOL    HW1 6449   0.870   4.720   1.287
 1971SOL    HW2 6450   0.828   4.820   1.392
 1972SOL     OW 6451   0.918   4.638   0.299
 1972SOL    HW1 6452   0.973   4.664   0.225
 1972SOL    HW2 6453   0.967   4.567   0.340
 1973SOL     OW 6454   0.365   5.029   1.501
 1973SOL    HW1 6455   0.367   5.097   1.434
 1973SOL    HW2 6456   0.291   4.974   1.477
 1974SOL     OW 6457   1.613   5.004   1.282
 1974SOL    HW1 6458   1.668   4.996   1.359
 1974SOL    HW2 6459   1.550   5.073   1.305
 1975SOL     OW 6460   1.056   4.834   0.713
 1975SOL    HW1 6461   0.984   4.783   0.749
 1975SOL    HW2 6462   1.118   4.769   0.680
 1976SOL     OW 6463   1.022   3.965   0.966
 1976SOL    HW1 6464   1.017   3.917   0.883
 1976SOL    HW2 6465   1.016   3.897   1.033
 1977SOL     OW 6466   1.723   4.116   1.380
 1977SOL    HW1 6467   1.795   4.179   1.379
 1977SOL    HW2 6468   1.752   4.045   1.324
 1978SOL     OW 6469   0.271   5.034   0.296
 1978SOL    HW1 6470   0.189   5.047   0.248
 1978SOL    HW2 6471   0.258   5.082   0.379
 1979SOL     OW 6472   0.117   4.742   1.719
 1979SOL    HW1 6473   0.046   4.704   1.771
 1979SOL    HW2 6474   0.197   4.709   1.760
 1980SOL     OW 6475   0.675   3.920   1.499
 1980SOL    HW1 6476   0.759   3.900   1.458
 1980SOL    HW2 6477   0.698   3.952   1.587
 1981SOL     OW 6478   0.043   4.114   0.026
 1981SOL    HW1 6479   0.019   4.030   0.066
 1981SOL    HW2 6480   0.125   4.096   8.060
 1982SOL     OW 6481   1.429   4.582   1.400
 1982SOL    HW1 6482   1.380   4.642   1.344
 1982SOL    HW2 6483   1.518   4.584   1.365
 1983SOL     OW 6484   0.053   3.859   0.213
 1983SOL    HW1 6485   0.054   3.944   0.257
 1983SOL    HW2 6486   0.145   3.835   0.204
 1984SOL     OW 6487   1.182   5.063   0.111
 1984SOL    HW1 6488   1.088   5.049   0.108
 1984SOL    HW2 6489   1.204   5.059   0.204
 1985SOL     OW 6490   0.620   4.555   1.436
 1985SOL    HW1 6491   0.676   4.630   1.419
 1985SOL    HW2 6492   0.680   4.481   1.444
 1986SOL     OW 6493   0.718   4.287   1.704
 1986SOL    HW1 6494   0.760   4.349   1.764
 1986SOL    HW2 6495   0.743   4.201   1.736
 1987SOL     OW 6496   1.475   4.922   1.630
 1987SOL    HW1 6497   1.461   4.934   1.724
 1987SOL    HW2 6498   1.568   4.936   1.618
 1988SOL     OW 6499   1.669   4.605   1.255
 1988SOL    HW1 6500   1.662   4.520   1.212
 1988SOL    HW2 6501   1.658   4.669   1.184
 1989SOL     OW 6502   1.217   4.042   0.460
 1989SOL    HW1 6503   1.282   3.972   0.453
 1989SOL    HW2 6504   1.244   4.093   0.536
 1990SOL     OW 6505   0.588   4.460   0.669
 1990SOL    HW1 6506   0.627   4.546   0.657
 1990SOL    HW2 6507   0.518   4.455   0.604
 1991SOL     OW 6508   1.761   4.086   1.651
 1991SOL    HW1 6509   1.745   4.102   1.558
 1991SOL    HW2 6510   1.689   4.030   1.679
 1992SOL     OW 6511   1.746   4.657   1.512
 1992SOL    HW1 6512   1.739   4.752   1.524
 1992SOL    HW2 6513   1.730   4.645   1.418
 1993SOL     OW 6514   0.911   5.095   0.036
 1993SOL    HW1 6515   0.852   5.076   0.109
 1993SOL    HW2 6516   0.863   5.158   8.062
 1994SOL     OW 6517   0.869   4.692   0.855
 1994SOL    HW1 6518   0.918   4.620   0.895
 1994SOL    HW2 6519   0.833   4.741   0.929
 1995SOL     OW 6520   1.079   4.701   0.088
 1995SOL    HW1 6521   1.061   4.758   0.013
 1995SOL    HW2 6522   1.156   4.650   0.061
 1996SOL     OW 6523   0.219   5.024   1.855
 1996SOL    HW1 6524   0.155   4.955   1.836
 1996SOL    HW2 6525   0.216   5.034   1.950
 1997SOL     OW 6526   0.082   4.926   0.656
 1997SOL    HW1 6527   0.107   4.902   0.746
 1997SOL    HW2 6528   0.165   4.948   0.614
 1998SOL     OW 6529   0.673   5.103   1.610
 1998SOL    HW1 6530   0.595   5.073   1.656
 1998SOL    HW2 6531   0.705   5.176   1.663
 1999SOL     OW 6532   1.812   3.908   1.237
 1999SOL    HW1 6533   1.822   3.814   1.251
 1999SOL    HW2 6534   1.822   3.919   1.143
 2000SOL     OW 6535   0.433   4.163   0.524
 2000SOL    HW1 6536   0.462   4.090   0.469
 2000SOL    HW2 6537   0.387   4.122   0.596
 2001SOL     OW 6538   1.707   5.224   1.119
 2001SOL    HW1 6539   1.633   5.208   1.060
 2001SOL    HW2 6540   1.713   5.145   1.172
 2002SOL     OW 6541   0.338   4.285   1.292
 2002SOL    HW1 6542   0.391   4.225   1.345
 2002SOL    HW2 6543   0.351   4.254   1.202
 2003SOL     OW 6544   1.432   3.950   1.118
 2003SOL    HW1 6545   1.455   3.869   1.164
 2003SOL    HW2 6546   1.380   3.999   1.181
 2004SOL     OW 6547   1.009   3.742   1.141
 2004SOL    HW1 6548   0.954   3.675   1.100
 2004SOL    HW2 6549   1.097   3.704   1.143
 2005SOL     OW 6550   0.798   5.038   0.281
 2005SOL    HW1 6551   0.743   4.965   0.308
 2005SOL    HW2 6552   0.854   5.056   0.357
 2006SOL     OW 6553   0.641   0.003   1.288
 2006SOL    HW1 6554   0.644   0.058   1.367
 2006SOL    HW2 6555   0.733   5.286   1.267
 2007SOL     OW 6556   1.356   3.779   0.185
 2007SOL    HW1 6557   1.377   3.731   0.105
 2007SOL    HW2 6558   1.270   3.746   0.211
 2008SOL     OW 6559   1.296   4.186   0.681
 2008SOL    HW1 6560   1.243   4.265   0.687
 2008SOL    HW2 6561   1.292   4.146   0.768
 2009SOL     OW 6562   1.586   3.925   0.879
 2009SOL    HW1 6563   1.527   3.946   0.951
 2009SOL    HW2 6564   1.585   4.003   0.823
 2010SOL     OW 6565   0.042   4.802   0.308
 2010SOL    HW1 6566   0.133   4.776   0.294
 2010SOL    HW2 6567   5.295   4.719   0.321
 2011SOL     OW 6568   0.233   4.355   1.978
 2011SOL    HW1 6569   0.161   4.320   2.031
 2011SOL    HW2 6570   0.217   4.322   1.890
 2012SOL     OW 6571   0.243   3.999   2.851
 2012SOL    HW1 6572   0.256   3.964   2.939
 2012SOL    HW2 6573   0.158   3.964   2.824
 2013SOL     OW 6574   5.298   4.123   2.516
 2013SOL    HW1 6575   5.205   4.145   2.520
 2013SOL    HW2 6576   5.299   4.033   2.483
 2014SOL     OW 6577   0.575   5.001   3.047
 2014SOL    HW1 6578   0.496   5.007   2.994
 2014SOL    HW2 6579   0.593   5.092   3.073
 2015SOL     OW 6580   1.556   5.232   2.551
 2015SOL    HW1 6581   1.538   5.228   2.645
 2015SOL    HW2 6582   1.476   5.268   2.513
 2016SOL     OW 6583   1.131   4.422   2.562
 2016SOL    HW1 6584   1.179   4.503   2.548
 2016SOL    HW2 6585   1.084   4.435   2.644
 2017SOL     OW 6586   1.768   4.328   2.090
 2017SOL    HW1 6587   1.747   4.321   1.997
 2017SOL    HW2 6588   1.732   4.249   2.129
 2018SOL     OW 6589   0.757   4.866   2.900
 2018SOL    HW1 6590   0.691   4.896   2.962
 2018SOL    HW2 6591   0.786   4.946   2.855
 2019SOL     OW 6592   0.869   4.497   3.685
 2019SOL    HW1 6593   0.857   4.568   3.747
 2019SOL    HW2 6594   0.892   4.540   3.602
 2020SOL     OW 6595   0.685   4.725   2.509
 2020SOL    HW1 6596   0.751   4.715   2.578
 2020SOL    HW2 6597   0.618   4.780   2.549
 2021SOL     OW 6598   0.708   4.871   3.675
 2021SOL    HW1 6599   0.756   4.951   3.699
 2021SOL    HW2 6600   0.626   4.903   3.639
 2022SOL     OW 6601   0.378   5.146   2.915
 2022SOL    HW1 6602   0.283   5.157   2.903
 2022SOL    HW2 6603   0.417   5.196   2.844
 2023SOL     OW 6604   1.454   5.221   3.210
 2023SOL    HW1 6605   1.509   5.293   3.241
 2023SOL    HW2 6606   1.387   5.211   3.277
 2024SOL     OW 6607   0.451   4.124   3.353
 2024SOL    HW1 6608   0.525   4.063   3.355
 2024SOL    HW2 6609   0.374   4.068   3.363
 2025SOL     OW 6610   1.611   4.171   2.603
 2025SOL    HW1 6611   1.536   4.193   2.547
 2025SOL    HW2 6612   1.624   4.249   2.657
 2026SOL     OW 6613   1.133   5.073   3.564
 2026SOL    HW1 6614   1.163   5.074   3.655
 2026SOL    HW2 6615   1.080   4.994   3.557
 2027SOL     OW 6616   0.212   5.151   2.396
 2027SOL    HW1 6617   0.253   5.230   2.431
 2027SOL    HW2 6618   0.130   5.142   2.445
 2028SOL     OW 6619   0.253   4.798   2.737
 2028SOL    HW1 6620   0.265   4.711   2.775
 2028SOL    HW2 6621   0.196   4.844   2.799
 2029SOL     OW 6622   0.581   4.707   1.998
 2029SOL    HW1 6623   0.629   4.753   1.929
 2029SOL    HW2 6624   0.621   4.736   2.080
 2030SOL     OW 6625   1.596   3.848   3.329
 2030SOL    HW1 6626   1.606   3.929   3.279
 2030SOL    HW2 6627   1.581   3.877   3.419
 2031SOL     OW 6628   0.127   4.355   2.441
 2031SOL    HW1 6629   0.088   4.273   2.473
 2031SOL    HW2 6630   0.100   4.420   2.505
 2032SOL     OW 6631   5.299   5.299   1.944
 2032SOL    HW1 6632   0.013   5.210   1.978
 2032SOL    HW2 6633   0.026   0.057   2.015
 2033SOL     OW 6634   1.689   4.642   2.503
 2033SOL    HW1 6635   1.772   4.599   2.482
 2033SOL    HW2 6636   1.667   4.693   2.425
 2034SOL     OW 6637   1.646   4.830   2.291
 2034SOL    HW1 6638   1.732   4.834   2.249
 2034SOL    HW2 6639   1.653   4.891   2.364
 2035SOL     OW 6640   0.132   4.472   3.447
 2035SOL    HW1 6641   0.227   4.487   3.447
 2035SOL    HW2 6642   0.094   4.559   3.461
 2036SOL     OW 6643   0.627   5.097   2.599
 2036SOL    HW1 6644   0.570   5.020   2.597
 2036SOL    HW2 6645   0.602   5.146   2.520
 2037SOL     OW 6646   1.288   4.953   3.287
 2037SOL    HW1 6647   1.322   4.888   3.227
 2037SOL    HW2 6648   1.349   4.951   3.362
 2038SOL     OW 6649   0.824   3.724   2.373
 2038SOL    HW1 6650   0.864   3.808   2.352
 2038SOL    HW2 6651   0.730   3.742   2.378
 2039SOL     OW 6652   0.175   4.665   3.145
 2039SOL    HW1 6653   0.264   4.634   3.132
 2039SOL    HW2 6654   0.135   4.659   3.058
 2040SOL     OW 6655   1.531   4.720   2.060
 2040SOL    HW1 6656   1.461   4.662   2.092
 2040SOL    HW2 6657   1.572   4.754   2.139
 2041SOL     OW 6658   0.339   3.978   3.682
 2041SOL    HW1 6659   0.385   4.060   3.695
 2041SOL    HW2 6660   0.250   3.994   3.715
 2042SOL     OW 6661   1.478   5.147   2.824
 2042SOL    HW1 6662   1.405   5.160   2.885
 2042SOL    HW2 6663   1.465   5.059   2.790
 2043SOL     OW 6664   0.595   4.444   2.129
 2043SOL    HW1 6665   0.602   4.526   2.079
 2043SOL    HW2 6666   0.531   4.463   2.197
 2044SOL     OW 6667   1.279   4.079   2.795
 2044SOL    HW1 6668   1.189   4.045   2.803
 2044SOL    HW2 6669   1.330   4.025   2.855
 2045SOL     OW 6670   0.792   4.342   3.313
 2045SOL    HW1 6671   0.765   4.317   3.401
 2045SOL    HW2 6672   0.753   4.274   3.257
 2046SOL     OW 6673   1.393   4.198   3.540
 2046SOL    HW1 6674   1.396   4.243   3.624
 2046SOL    HW2 6675   1.454   4.124   3.549
 2047SOL     OW 6676   0.954   4.612   3.445
 2047SOL    HW1 6677   1.008   4.541   3.410
 2047SOL    HW2 6678   0.906   4.645   3.370
 2048SOL     OW 6679   0.992   4.136   3.100
 2048SOL    HW1 6680   0.905   4.156   3.135
 2048SOL    HW2 6681   0.975   4.090   3.018
 2049SOL     OW 6682   1.051   4.422   2.288
 2049SOL    HW1 6683   1.068   4.415   2.382
 2049SOL    HW2 6684   0.969   4.376   2.274
 2050SOL     OW 6685   0.072   4.510   2.671
 2050SOL    HW1 6686   0.152   4.515   2.723
 2050SOL    HW2 6687   0.063   4.597   2.633
 2051SOL     OW 6688   0.895   4.073   2.056
 2051SOL    HW1 6689   0.934   4.136   1.995
 2051SOL    HW2 6690   0.909   3.988   2.016
 2052SOL     OW 6691   1.708   4.298   3.690
 2052SOL    HW1 6692   1.670   4.371   3.642
 2052SOL    HW2 6693   1.736   4.236   3.622
 2053SOL     OW 6694   1.378   4.863   2.401
 2053SOL    HW1 6695   1.460   4.850   2.352
 2053SOL    HW2 6696   1.328   4.925   2.347
 2054SOL     OW 6697   0.557   3.907   2.756
 2054SOL    HW1 6698   0.553   3.935   2.847
 2054SOL    HW2 6699   0.551   3.988   2.705
 2055SOL     OW 6700   1.023   5.168   2.334
 2055SOL    HW1 6701   0.946   5.225   2.331
 2055SOL    HW2 6702   1.038   5.153   2.427
 2056SOL     OW 6703   1.801   4.780   2.729
 2056SOL    HW1 6704   1.744   4.762   2.653
 2056SOL    HW2 6705   1.740   4.787   2.803
 2057SOL     OW 6706   1.251   5.240   3.387
 2057SOL    HW1 6707   1.215   5.173   3.446
 2057SOL    HW2 6708   1.178   5.261   3.328
 2058SOL     OW 6709   0.316   4.676   2.110
 2058SOL    HW1 6710   0.398   4.698   2.065
 2058SOL    HW2 6711   0.292   4.590   2.075
 2059SOL     OW 6712   1.479   4.468   2.588
 2059SOL    HW1 6713   1.471   4.425   2.674
 2059SOL    HW2 6714   1.557   4.523   2.596
 2060SOL     OW 6715   0.463   4.989   3.606
 2060SOL    HW1 6716   0.438   4.992   3.513
 2060SOL    HW2 6717   0.380   4.989   3.653
 2061SOL     OW 6718   1.065   0.178   2.067
 2061SOL    HW1 6719   1.082   0.105   2.126
 2061SOL    HW2 6720   1.096   0.147   1.982
 2062SOL     OW 6721   0.205   4.003   3.359
 2062SOL    HW1 6722   0.127   4.055   3.343
 2062SOL    HW2 6723   0.173   3.923   3.401
 2063SOL     OW 6724   1.622   5.101   1.971
 2063SOL    HW1 6725   1.623   5.175   1.910
 2063SOL    HW2 6726   1.554   5.043   1.937
 2064SOL     OW 6727   1.401   3.831   2.296
 2064SOL    HW1 6728   1.391   3.806   2.204
 2064SOL    HW2 6729   1.496   3.838   2.309
 2065SOL     OW 6730   0.387   4.419   2.341
 2065SOL    HW1 6731   0.415   4.329   2.350
 2065SOL    HW2 6732   0.293   4.417   2.361
 2066SOL     OW 6733   1.534   3.949   3.587
 2066SOL    HW1 6734   1.544   3.970   3.680
 2066SOL    HW2 6735   1.465   3.883   3.584
 2067SOL     OW 6736   0.636   3.846   1.966
 2067SOL    HW1 6737   0.704   3.780   1.979
 2067SOL    HW2 6738   0.586   3.815   1.891
 2068SOL     OW 6739   0.766   4.003   3.617
 2068SOL    HW1 6740   0.843   3.945   3.617
 2068SOL    HW2 6741   0.717   3.977   3.695
 2069SOL     OW 6742   1.340   4.313   3.294
 2069SOL    HW1 6743   1.371   4.282   3.379
 2069SOL    HW2 6744   1.376   4.401   3.286
 2070SOL     OW 6745   0.815   5.118   2.799
 2070SOL    HW1 6746   0.895   5.105   2.749
 2070SOL    HW2 6747   0.746   5.125   2.733
 2071SOL     OW 6748   0.929   4.234   2.764
 2071SOL    HW1 6749   0.904   4.225   2.672
 2071SOL    HW2 6750   0.959   4.146   2.789
 2072SOL     OW 6751   0.561   3.785   2.357
 2072SOL    HW1 6752   0.486   3.785   2.417
 2072SOL    HW2 6753   0.550   3.864   2.304
 2073SOL     OW 6754   1.428   4.924   1.900
 2073SOL    HW1 6755   1.458   4.849   1.951
 2073SOL    HW2 6756   1.340   4.942   1.933
 2074SOL     OW 6757   0.305   3.771   2.041
 2074SOL    HW1 6758   0.367   3.835   2.006
 2074SOL    HW2 6759   0.360   3.707   2.086
 2075SOL     OW 6760   0.940   3.972   2.321
 2075SOL    HW1 6761   0.914   4.012   2.238
 2075SOL    HW2 6762   1.035   3.987   2.325
 2076SOL     OW 6763   1.080   4.405   3.321
 2076SOL    HW1 6764   1.011   4.338   3.325
 2076SOL    HW2 6765   1.161   4.356   3.314
 2077SOL     OW 6766   1.264   5.266   2.639
 2077SOL    HW1 6767   1.218   0.046   2.615
 2077SOL    HW2 6768   1.309   5.289   2.721
 2078SOL     OW 6769   0.466   4.874   2.589
 2078SOL    HW1 6770   0.398   4.853   2.653
 2078SOL    HW2 6771   0.426   4.854   2.504
 2079SOL     OW 6772   1.023   4.264   1.886
 2079SOL    HW1 6773   0.980   4.348   1.866
 2079SOL    HW2 6774   1.089   4.286   1.952
 2080SOL     OW 6775   0.089   4.268   3.261
 2080SOL    HW1 6776   0.176   4.276   3.223
 2080SOL    HW2 6777   0.080   4.344   3.317
 2081SOL     OW 6778   0.560   3.952   3.029
 2081SOL    HW1 6779   0.598   3.872   3.067
 2081SOL    HW2 6780   0.468   3.950   3.056
 2082SOL     OW 6781   0.868   4.183   2.501
 2082SOL    HW1 6782   0.822   4.237   2.437
 2082SOL    HW2 6783   0.889   4.103   2.454
 2083SOL     OW 6784   1.016   3.777   2.612
 2083SOL    HW1 6785   0.957   3.770   2.537
 2083SOL    HW2 6786   0.994   3.702   2.667
 2084SOL     OW 6787   1.438   4.890   2.721
 2084SOL    HW1 6788   1.371   4.822   2.718
 2084SOL    HW2 6789   1.464   4.902   2.629
 2085SOL     OW 6790   1.466   4.330   2.837
 2085SOL    HW1 6791   1.414   4.250   2.840
 2085SOL    HW2 6792   1.525   4.323   2.912
 2086SOL     OW 6793   1.845   4.539   2.245
 2086SOL    HW1 6794   1.901   4.488   2.303
 2086SOL    HW2 6795   1.817   4.476   2.178
 2087SOL     OW 6796   0.482   5.145   2.013
 2087SOL    HW1 6797   0.421   5.095   2.066
 2087SOL    HW2 6798   0.485   5.099   1.929
 2088SOL     OW 6799   1.670   4.987   2.508
 2088SOL    HW1 6800   1.764   4.993   2.525
 2088SOL    HW2 6801   1.636   5.075   2.524
 2089SOL     OW 6802   1.394   4.296   1.933
 2089SOL    HW1 6803   1.333   4.276   2.004
 2089SOL    HW2 6804   1.478   4.264   1.965
 2090SOL     OW 6805   0.524   3.987   2.178
 2090SOL    HW1 6806   0.570   3.941   2.108
 2090SOL    HW2 6807   0.501   4.071   2.139
 2091SOL     OW 6808   1.750   4.960   3.436
 2091SOL    HW1 6809   1.836   4.917   3.437
 2091SOL    HW2 6810   1.770   5.053   3.447
 2092SOL     OW 6811   1.064   5.074   3.193
 2092SOL    HW1 6812   0.985   5.048   3.240
 2092SOL    HW2 6813   1.136   5.035   3.242
 2093SOL     OW 6814   1.128   4.927   2.969
 2093SOL    HW1 6815   1.077   4.967   3.040
 2093SOL    HW2 6816   1.081   4.950   2.889
 2094SOL     OW 6817   1.628   4.822   2.938
 2094SOL    HW1 6818   1.623   4.883   3.011
 2094SOL    HW2 6819   1.550   4.841   2.886
 2095SOL     OW 6820   0.919   3.820   3.258
 2095SOL    HW1 6821   0.941   3.802   3.167
 2095SOL    HW2 6822   0.998   3.860   3.294
 2096SOL     OW 6823   0.984   4.839   3.587
 2096SOL    HW1 6824   0.892   4.855   3.606
 2096SOL    HW2 6825   0.984   4.762   3.530
 2097SOL     OW 6826   0.704   4.782   2.234
 2097SOL    HW1 6827   0.693   4.766   2.328
 2097SOL    HW2 6828   0.781   4.732   2.210
 2098SOL     OW 6829   0.421   4.543   3.114
 2098SOL    HW1 6830   0.490   4.550   3.181
 2098SOL    HW2 6831   0.387   4.455   3.124
 2099SOL     OW 6832   1.265   4.100   3.138
 2099SOL    HW1 6833   1.297   4.178   3.184
 2099SOL    HW2 6834   1.174   4.122   3.116
 2100SOL     OW 6835   0.113   5.292   3.179
 2100SOL    HW1 6836   0.050   0.044   3.230
 2100SOL    HW2 6837   0.189   5.284   3.236
 2101SOL     OW 6838   0.344   4.829   2.348
 2101SOL    HW1 6839   0.347   4.908   2.293
 2101SOL    HW2 6840   0.348   4.756   2.285
 2102SOL     OW 6841   0.553   4.259   2.721
 2102SOL    HW1 6842   0.568   4.318   2.647
 2102SOL    HW2 6843   0.618   4.285   2.786
 2103SOL     OW 6844   1.261   5.078   2.247
 2103SOL    HW1 6845   1.317   5.144   2.286
 2103SOL    HW2 6846   1.173   5.101   2.277
 2104SOL     OW 6847   1.270   5.182   3.003
 2104SOL    HW1 6848   1.329   5.196   3.077
 2104SOL    HW2 6849   1.227   5.100   3.023
 2105SOL     OW 6850   1.581   4.346   2.342
 2105SOL    HW1 6851   1.533   4.398   2.406
 2105SOL    HW2 6852   1.626   4.410   2.287
 2106SOL     OW 6853   0.382   5.229   3.177
 2106SOL    HW1 6854   0.366   5.192   3.090
 2106SOL    HW2 6855   0.474   5.256   3.175
 2107SOL     OW 6856   0.415   4.466   3.464
 2107SOL    HW1 6857   0.476   4.512   3.407
 2107SOL    HW2 6858   0.453   4.380   3.477
 2108SOL     OW 6859   1.603   4.503   3.545
 2108SOL    HW1 6860   1.517   4.544   3.538
 2108SOL    HW2 6861   1.655   4.545   3.476
 2109SOL     OW 6862   0.996   3.849   3.617
 2109SOL    HW1 6863   1.053   3.921   3.590
 2109SOL    HW2 6864   1.044   3.770   3.591
 2110SOL     OW 6865   0.497   3.765   3.610
 2110SOL    HW1 6866   0.454   3.711   3.544
 2110SOL    HW2 6867   0.438   3.839   3.623
 2111SOL     OW 6868   0.586   4.597   2.894
 2111SOL    HW1 6869   0.615   4.688   2.893
 2111SOL    HW2 6870   0.529   4.591   2.971
 2112SOL     OW 6871   1.356   4.582   2.889
 2112SOL    HW1 6872   1.272   4.571   2.845
 2112SOL    HW2 6873   1.398   4.496   2.883
 2113SOL     OW 6874   1.204   4.252   2.128
 2113SOL    HW1 6875   1.212   4.174   2.183
 2113SOL    HW2 6876   1.161   4.317   2.184
 2114SOL     OW 6877   0.301   3.927   3.110
 2114SOL    HW1 6878   0.267   3.951   3.196
 2114SOL    HW2 6879   0.289   3.832   3.105
 2115SOL     OW 6880   0.044   5.022   3.137
 2115SOL    HW1 6881   0.074   4.973   3.214
 2115SOL    HW2 6882   0.043   5.113   3.166
 2116SOL     OW 6883   0.724   4.355   2.919
 2116SOL    HW1 6884   0.799   4.339   2.862
 2116SOL    HW2 6885   0.695   4.444   2.899
 2117SOL     OW 6886   1.735   4.684   3.715
 2117SOL    HW1 6887   1.690   4.620   3.659
 2117SOL    HW2 6888   1.675   4.698   3.788
 2118SOL     OW 6889   0.328   3.786   2.496
 2118SOL    HW1 6890   0.307   3.875   2.523
 2118SOL    HW2 6891   0.333   3.737   2.578
 2119SOL     OW 6892   1.617   4.099   2.228
 2119SOL    HW1 6893   1.645   4.035   2.293
 2119SOL    HW2 6894   1.595   4.177   2.278
 2120SOL     OW 6895   1.028   4.483   2.822
 2120SOL    HW1 6896   1.023   4.500   2.916
 2120SOL    HW2 6897   1.002   4.391   2.813
 2121SOL     OW 6898   1.854   5.213   3.445
 2121SOL    HW1 6899   1.846   5.290   3.389
 2121SOL    HW2 6900   1.924   5.236   3.507
 2122SOL     OW 6901   0.355   4.643   3.668
 2122SOL    HW1 6902   0.436   4.660   3.716
 2122SOL    HW2 6903   0.380   4.577   3.603
 2123SOL     OW 6904   1.528   3.997   1.989
 2123SOL    HW1 6905   1.463   3.932   2.016
 2123SOL    HW2 6906   1.562   4.032   2.071
 2124SOL     OW 6907   1.291   4.550   1.892
 2124SOL    HW1 6908   1.334   4.464   1.896
 2124SOL    HW2 6909   1.322   4.589   1.811
 2125SOL     OW 6910   1.058   5.080   2.685
 2125SOL    HW1 6911   1.063   4.994   2.643
 2125SOL    HW2 6912   1.145   5.118   2.673
 2126SOL     OW 6913   0.314   4.532   2.811
 2126SOL    HW1 6914   0.408   4.550   2.807
 2126SOL    HW2 6915   0.307   4.442   2.843
 2127SOL     OW 6916   0.334   4.250   2.877
 2127SOL    HW1 6917   0.299   4.162   2.863
 2127SOL    HW2 6918   0.409   4.256   2.818
 2128SOL     OW 6919   1.134   4.099   3.545
 2128SOL    HW1 6920   1.086   4.154   3.607
 2128SOL    HW2 6921   1.221   4.138   3.541
 2129SOL     OW 6922   1.161   3.926   3.332
 2129SOL    HW1 6923   1.150   3.989   3.404
 2129SOL    HW2 6924   1.201   3.976   3.262
 2130SOL     OW 6925   0.002   5.046   2.069
 2130SOL    HW1 6926   5.227   5.032   2.011
 2130SOL    HW2 6927   0.014   4.962   2.113
 2131SOL     OW 6928   0.981   4.515   3.088
 2131SOL    HW1 6929   1.038   4.493   3.162
 2131SOL    HW2 6930   0.896   4.476   3.111
 2132SOL     OW 6931   0.032   4.285   2.978
 2132SOL    HW1 6932   0.119   4.263   2.945
 2132SOL    HW2 6933   0.037   4.267   3.072
 2133SOL     OW 6934   0.174   4.237   3.574
 2133SOL    HW1 6935   0.238   4.199   3.514
 2133SOL    HW2 6936   0.147   4.319   3.531
 2134SOL     OW 6937   1.377   4.662   3.520
 2134SOL    HW1 6938   1.398   4.755   3.517
 2134SOL    HW2 6939   1.374   4.635   3.428
 2135SOL     OW 6940   0.817   4.293   2.223
 2135SOL    HW1 6941   0.821   4.219   2.163
 2135SOL    HW2 6942   0.742   4.345   2.192
 2136SOL     OW 6943   1.642   4.325   3.047
 2136SOL    HW1 6944   1.631   4.266   3.121
 2136SOL    HW2 6945   1.729   4.306   3.012
 2137SOL     OW 6946   0.209   5.278   3.593
 2137SOL    HW1 6947   0.172   0.021   3.671
 2137SOL    HW2 6948   0.212   5.186   3.616
 2138SOL     OW 6949   0.704   4.173   3.121
 2138SOL    HW1 6950   0.650   4.099   3.092
 2138SOL    HW2 6951   0.698   4.236   3.049
 2139SOL     OW 6952   0.465   4.217   2.046
 2139SOL    HW1 6953   0.525   4.288   2.069
 2139SOL    HW2 6954   0.380   4.260   2.033
 2140SOL     OW 6955   0.150   4.861   3.334
 2140SOL    HW1 6956   0.146   4.812   3.417
 2140SOL    HW2 6957   0.159   4.793   3.267
 2141SOL     OW 6958   1.326   4.768   3.084
 2141SOL    HW1 6959   1.348   4.706   3.015
 2141SOL    HW2 6960   1.256   4.822   3.046
 2142SOL     OW 6961   1.311   4.582   2.168
 2142SOL    HW1 6962   1.237   4.550   2.218
 2142SOL    HW2 6963   1.287   4.567   2.076
 2143SOL     OW 6964   0.075   4.915   2.892
 2143SOL    HW1 6965   0.064   4.957   2.978
 2143SOL    HW2 6966   5.288   4.921   2.852
 2144SOL     OW 6967   0.753   0.036   3.571
 2144SOL    HW1 6968   0.660   0.059   3.580
 2144SOL    HW2 6969   0.774   0.060   3.480
 2145SOL     OW 6970   1.719   3.872   2.370
 2145SOL    HW1 6971   1.792   3.857   2.310
 2145SOL    HW2 6972   1.704   3.786   2.411
 2146SOL     OW 6973   1.277   4.650   2.534
 2146SOL    HW1 6974   1.350   4.589   2.542
 2146SOL    HW2 6975   1.312   4.722   2.480
 2147SOL     OW 6976   0.817   4.993   3.279
 2147SOL    HW1 6977   0.785   5.029   3.362
 2147SOL    HW2 6978   0.742   4.999   3.221
 2148SOL     OW 6979   1.841   3.896   2.829
 2148SOL    HW1 6980   1.870   3.809   2.802
 2148SOL    HW2 6981   1.755   3.906   2.789
 2149SOL     OW 6982   0.273   4.041   2.579
 2149SOL    HW1 6983   0.188   4.079   2.559
 2149SOL    HW2 6984   0.273   4.029   2.674
 2150SOL     OW 6985   0.825   4.727   3.233
 2150SOL    HW1 6986   0.871   4.719   3.149
 2150SOL    HW2 6987   0.828   4.820   3.254
 2151SOL     OW 6988   0.916   4.636   2.153
 2151SOL    HW1 6989   0.976   4.668   2.086
 2151SOL    HW2 6990   0.964   4.566   2.197
 2152SOL     OW 6991   0.366   5.028   3.363
 2152SOL    HW1 6992   0.367   5.097   3.296
 2152SOL    HW2 6993   0.291   4.973   3.339
 2153SOL     OW 6994   1.612   5.004   3.144
 2153SOL    HW1 6995   1.669   4.996   3.221
 2153SOL    HW2 6996   1.549   5.073   3.167
 2154SOL     OW 6997   1.056   4.834   2.574
 2154SOL    HW1 6998   0.984   4.783   2.610
 2154SOL    HW2 6999   1.118   4.768   2.543
 2155SOL     OW 7000   1.022   3.965   2.828
 2155SOL    HW1 7001   1.017   3.917   2.745
 2155SOL    HW2 7002   1.016   3.897   2.895
 2156SOL     OW 7003   1.723   4.116   3.242
 2156SOL    HW1 7004   1.795   4.179   3.241
 2156SOL    HW2 7005   1.752   4.045   3.186
 2157SOL     OW 7006   0.259   5.059   2.149
 2157SOL    HW1 7007   0.167   5.062   2.125
 2157SOL    HW2 7008   0.262   5.097   2.237
 2158SOL     OW 7009   0.117   4.742   3.581
 2158SOL    HW1 7010   0.046   4.704   3.633
 2158SOL    HW2 7011   0.197   4.710   3.622
 2159SOL     OW 7012   0.675   3.920   3.362
 2159SOL    HW1 7013   0.759   3.900   3.320
 2159SOL    HW2 7014   0.698   3.952   3.449
 2160SOL     OW 7015   0.084   4.071   1.902
 2160SOL    HW1 7016   0.003   4.025   1.880
 2160SOL    HW2 7017   0.099   4.130   1.829
 2161SOL     OW 7018   1.429   4.582   3.262
 2161SOL    HW1 7019   1.380   4.642   3.206
 2161SOL    HW2 7020   1.518   4.584   3.227
 2162SOL     OW 7021   0.056   3.857   2.106
 2162SOL    HW1 7022   0.055   3.952   2.094
 2162SOL    HW2 7023   0.145   3.831   2.082
 2163SOL     OW 7024   1.182   5.063   1.983
 2163SOL    HW1 7025   1.091   5.034   1.984
 2163SOL    HW2 7026   1.210   5.055   2.074
 2164SOL     OW 7027   0.620   4.555   3.298
 2164SOL    HW1 7028   0.677   4.630   3.281
 2164SOL    HW2 7029   0.679   4.480   3.306
 2165SOL     OW 7030   0.718   4.287   3.566
 2165SOL    HW1 7031   0.760   4.349   3.626
 2165SOL    HW2 7032   0.743   4.201   3.598
 2166SOL     OW 7033   1.474   4.922   3.492
 2166SOL    HW1 7034   1.461   4.934   3.586
 2166SOL    HW2 7035   1.568   4.936   3.480
 2167SOL     OW 7036   1.669   4.605   3.117
 2167SOL    HW1 7037   1.663   4.520   3.074
 2167SOL    HW2 7038   1.659   4.668   3.046
 2168SOL     OW 7039   1.217   4.043   2.320
 2168SOL    HW1 7040   1.279   3.971   2.312
 2168SOL    HW2 7041   1.246   4.092   2.397
 2169SOL     OW 7042   0.590   4.461   2.532
 2169SOL    HW1 7043   0.628   4.547   2.517
 2169SOL    HW2 7044   0.521   4.453   2.466
 2170SOL     OW 7045   1.761   4.086   3.513
 2170SOL    HW1 7046   1.745   4.102   3.420
 2170SOL    HW2 7047   1.689   4.030   3.541
 2171SOL     OW 7048   1.746   4.657   3.374
 2171SOL    HW1 7049   1.739   4.752   3.386
 2171SOL    HW2 7050   1.730   4.645   3.280
 2172SOL     OW 7051   0.848   5.094   1.882
 2172SOL    HW1 7052   0.831   5.094   1.976
 2172SOL    HW2 7053   0.863   5.186   1.860
 2173SOL     OW 7054   0.869   4.692   2.716
 2173SOL    HW1 7055   0.918   4.620   2.756
 2173SOL    HW2 7056   0.833   4.741   2.790
 2174SOL     OW 7057   1.080   4.713   1.952
 2174SOL    HW1 7058   1.057   4.763   1.873
 2174SOL    HW2 7059   1.154   4.659   1.925
 2175SOL     OW 7060   0.219   5.024   3.717
 2175SOL    HW1 7061   0.155   4.955   3.698
 2175SOL    HW2 7062   0.217   5.034   3.812
 2176SOL     OW 7063   0.084   4.925   2.517
 2176SOL    HW1 7064   0.104   4.906   2.608
 2176SOL    HW2 7065   0.169   4.945   2.477
 2177SOL     OW 7066   0.672   5.103   3.471
 2177SOL    HW1 7067   0.595   5.073   3.518
 2177SOL    HW2 7068   0.705   5.176   3.524
 2178SOL     OW 7069   1.813   3.908   3.099
 2178SOL    HW1 7070   1.821   3.814   3.113
 2178SOL    HW2 7071   1.822   3.920   3.005
 2179SOL     OW 7072   0.436   4.160   2.386
 2179SOL    HW1 7073   0.463   4.087   2.330
 2179SOL    HW2 7074   0.388   4.118   2.458
 2180SOL     OW 7075   1.707   5.224   2.981
 2180SOL    HW1 7076   1.633   5.208   2.922
 2180SOL    HW2 7077   1.713   5.145   3.034
 2181SOL     OW 7078   0.338   4.285   3.154
 2181SOL    HW1 7079   0.391   4.225   3.207
 2181SOL    HW2 7080   0.351   4.254   3.064
 2182SOL     OW 7081   1.432   3.950   2.980
 2182SOL    HW1 7082   1.455   3.869   3.025
 2182SOL    HW2 7083   1.380   3.999   3.043
 2183SOL     OW 7084   1.009   3.742   3.003
 2183SOL    HW1 7085   0.954   3.675   2.963
 2183SOL    HW2 7086   1.097   3.704   3.005
 2184SOL     OW 7087   0.805   5.046   2.146
 2184SOL    HW1 7088   0.745   4.974   2.166
 2184SOL    HW2 7089   0.859   5.056   2.225
 2185SOL     OW 7090   0.641   0.003   3.151
 2185SOL    HW1 7091   0.644   0.058   3.229
 2185SOL    HW2 7092   0.733   5.286   3.130
 2186SOL     OW 7093   1.353   3.778   2.028
 2186SOL    HW1 7094   1.382   3.713   1.964
 2186SOL    HW2 7095   1.265   3.749   2.054
 2187SOL     OW 7096   1.296   4.185   2.542
 2187SOL    HW1 7097   1.243   4.265   2.549
 2187SOL    HW2 7098   1.292   4.146   2.630
 2188SOL     OW 7099   1.586   3.925   2.741
 2188SOL    HW1 7100   1.527   3.946   2.812
 2188SOL    HW2 7101   1.586   4.003   2.685
 2189SOL     OW 7102   0.048   4.789   2.151
 2189SOL    HW1 7103   0.138   4.758   2.142
 2189SOL    HW2 7104   0.000   4.716   2.191
 2190SOL     OW 7105   0.233   4.355   3.840
 2190SOL    HW1 7106   0.161   4.320   3.893
 2190SOL    HW2 7107   0.217   4.322   3.752
 2191SOL     OW 7108   0.243   3.999   4.713
 2191SOL    HW1 7109   0.256   3.964   4.801
 2191SOL    HW2 7110   0.158   3.964   4.686
 2192SOL     OW 7111   5.298   4.123   4.378
 2192SOL    HW1 7112   5.205   4.145   4.382
 2192SOL    HW2 7113   5.299   4.033   4.345
 2193SOL     OW 7114   0.575   5.001   4.909
 2193SOL    HW1 7115   0.496   5.007   4.856
 2193SOL    HW2 7116   0.593   5.092   4.935
 2194SOL     OW 7117   1.556   5.232   4.413
 2194SOL    HW1 7118   1.538   5.228   4.507
 2194SOL    HW2 7119   1.476   5.268   4.375
 2195SOL     OW 7120   1.131   4.422   4.424
 2195SOL    HW1 7121   1.179   4.503   4.410
 2195SOL    HW2 7122   1.084   4.435   4.506
 2196SOL     OW 7123   1.768   4.328   3.952
 2196SOL    HW1 7124   1.746   4.321   3.859
 2196SOL    HW2 7125   1.732   4.249   3.991
 2197SOL     OW 7126   0.757   4.866   4.762
 2197SOL    HW1 7127   0.691   4.896   4.824
 2197SOL    HW2 7128   0.785   4.946   4.717
 2198SOL     OW 7129   0.869   4.497   5.547
 2198SOL    HW1 7130   0.857   4.568   5.609
 2198SOL    HW2 7131   0.892   4.540   5.464
 2199SOL     OW 7132   0.685   4.725   4.371
 2199SOL    HW1 7133   0.751   4.715   4.440
 2199SOL    HW2 7134   0.618   4.780   4.411
 2200SOL     OW 7135   0.708   4.871   5.537
 2200SOL    HW1 7136   0.756   4.950   5.561
 2200SOL    HW2 7137   0.626   4.903   5.501
 2201SOL     OW 7138   0.378   5.146   4.777
 2201SOL    HW1 7139   0.283   5.157   4.765
 2201SOL    HW2 7140   0.417   5.196   4.706
 2202SOL     OW 7141   1.454   5.221   5.072
 2202SOL    HW1 7142   1.509   5.293   5.103
 2202SOL    HW2 7143   1.387   5.211   5.139
 2203SOL     OW 7144   0.451   4.124   5.215
 2203SOL    HW1 7145   0.525   4.063   5.217
 2203SOL    HW2 7146   0.374   4.068   5.225
 2204SOL     OW 7147   1.611   4.171   4.465
 2204SOL    HW1 7148   1.536   4.193   4.409
 2204SOL    HW2 7149   1.624   4.249   4.519
 2205SOL     OW 7150   1.133   5.073   5.426
 2205SOL    HW1 7151   1.163   5.074   5.517
 2205SOL    HW2 7152   1.080   4.994   5.419
 2206SOL     OW 7153   0.212   5.151   4.258
 2206SOL    HW1 7154   0.253   5.230   4.293
 2206SOL    HW2 7155   0.130   5.142   4.307
 2207SOL     OW 7156   0.253   4.798   4.599
 2207SOL    HW1 7157   0.265   4.711   4.637
 2207SOL    HW2 7158   0.196   4.844   4.661
 2208SOL     OW 7159   0.581   4.707   3.860
 2208SOL    HW1 7160   0.629   4.753   3.791
 2208SOL    HW2 7161   0.621   4.736   3.941
 2209SOL     OW 7162   1.596   3.848   5.191
 2209SOL    HW1 7163   1.606   3.929   5.141
 2209SOL    HW2 7164   1.581   3.877   5.281
 2210SOL     OW 7165   0.127   4.355   4.303
 2210SOL    HW1 7166   0.088   4.273   4.335
 2210SOL    HW2 7167   0.100   4.420   4.367
 2211SOL     OW 7168   5.298   5.298   3.806
 2211SOL    HW1 7169   0.013   5.210   3.841
 2211SOL    HW2 7170   0.026   0.057   3.876
 2212SOL     OW 7171   1.689   4.642   4.365
 2212SOL    HW1 7172   1.772   4.599   4.344
 2212SOL    HW2 7173   1.667   4.693   4.287
 2213SOL     OW 7174   1.646   4.830   4.153
 2213SOL    HW1 7175   1.732   4.834   4.111
 2213SOL    HW2 7176   1.653   4.891   4.226
 2214SOL     OW 7177   0.132   4.472   5.309
 2214SOL    HW1 7178   0.227   4.487   5.309
 2214SOL    HW2 7179   0.094   4.559   5.323
 2215SOL     OW 7180   0.627   5.097   4.461
 2215SOL    HW1 7181   0.570   5.020   4.459
 2215SOL    HW2 7182   0.602   5.146   4.382
 2216SOL     OW 7183   1.288   4.953   5.150
 2216SOL    HW1 7184   1.322   4.888   5.089
 2216SOL    HW2 7185   1.349   4.951   5.224
 2217SOL     OW 7186   0.824   3.724   4.235
 2217SOL    HW1 7187   0.864   3.808   4.214
 2217SOL    HW2 7188   0.730   3.743   4.240
 2218SOL     OW 7189   0.175   4.665   5.007
 2218SOL    HW1 7190   0.264   4.634   4.994
 2218SOL    HW2 7191   0.135   4.659   4.920
 2219SOL     OW 7192   1.531   4.720   3.922
 2219SOL    HW1 7193   1.461   4.662   3.954
 2219SOL    HW2 7194   1.572   4.754   4.001
 2220SOL     OW 7195   0.339   3.978   5.544
 2220SOL    HW1 7196   0.385   4.060   5.557
 2220SOL    HW2 7197   0.250   3.994   5.577
 2221SOL     OW 7198   1.478   5.147   4.686
 2221SOL    HW1 7199   1.405   5.160   4.747
 2221SOL    HW2 7200   1.465   5.059   4.652
 2222SOL     OW 7201   0.595   4.444   3.991
 2222SOL    HW1 7202   0.602   4.526   3.941
 2222SOL    HW2 7203   0.531   4.463   4.059
 2223SOL     OW 7204   1.279   4.078   4.657
 2223SOL    HW1 7205   1.190   4.045   4.665
 2223SOL    HW2 7206   1.330   4.025   4.717
 2224SOL     OW 7207   0.792   4.342   5.175
 2224SOL    HW1 7208   0.765   4.317   5.263
 2224SOL    HW2 7209   0.753   4.274   5.119
 2225SOL     OW 7210   1.393   4.198   5.402
 2225SOL    HW1 7211   1.396   4.243   5.487
 2225SOL    HW2 7212   1.454   4.124   5.411
 2226SOL     OW 7213   0.954   4.612   5.307
 2226SOL    HW1 7214   1.008   4.541   5.272
 2226SOL    HW2 7215   0.906   4.645   5.232
 2227SOL     OW 7216   0.992   4.136   4.962
 2227SOL    HW1 7217   0.905   4.156   4.997
 2227SOL    HW2 7218   0.975   4.090   4.880
 2228SOL     OW 7219   1.051   4.422   4.150
 2228SOL    HW1 7220   1.068   4.415   4.244
 2228SOL    HW2 7221   0.969   4.376   4.136
 2229SOL     OW 7222   0.072   4.510   4.533
 2229SOL    HW1 7223   0.152   4.515   4.585
 2229SOL    HW2 7224   0.063   4.597   4.495
 2230SOL     OW 7225   0.895   4.073   3.919
 2230SOL    HW1 7226   0.934   4.135   3.857
 2230SOL    HW2 7227   0.909   3.988   3.878
 2231SOL     OW 7228   1.708   4.298   5.552
 2231SOL    HW1 7229   1.670   4.371   5.504
 2231SOL    HW2 7230   1.736   4.236   5.484
 2232SOL     OW 7231   1.378   4.863   4.263
 2232SOL    HW1 7232   1.460   4.850   4.214
 2232SOL    HW2 7233   1.328   4.925   4.209
 2233SOL     OW 7234   0.557   3.907   4.618
 2233SOL    HW1 7235   0.553   3.935   4.709
 2233SOL    HW2 7236   0.551   3.988   4.567
 2234SOL     OW 7237   1.023   5.168   4.196
 2234SOL    HW1 7238   0.946   5.225   4.193
 2234SOL    HW2 7239   1.038   5.153   4.289
 2235SOL     OW 7240   1.801   4.780   4.591
 2235SOL    HW1 7241   1.744   4.762   4.515
 2235SOL    HW2 7242   1.740   4.787   4.665
 2236SOL     OW 7243   1.251   5.240   5.249
 2236SOL    HW1 7244   1.215   5.173   5.308
 2236SOL    HW2 7245   1.178   5.261   5.190
 2237SOL     OW 7246   0.316   4.676   3.972
 2237SOL    HW1 7247   0.398   4.698   3.927
 2237SOL    HW2 7248   0.292   4.590   3.937
 2238SOL     OW 7249   1.479   4.468   4.450
 2238SOL    HW1 7250   1.471   4.425   4.536
 2238SOL    HW2 7251   1.557   4.523   4.458
 2239SOL     OW 7252   0.463   4.989   5.468
 2239SOL    HW1 7253   0.438   4.992   5.375
 2239SOL    HW2 7254   0.380   4.989   5.515
 2240SOL     OW 7255   1.064   0.177   3.929
 2240SOL    HW1 7256   1.083   0.105   3.989
 2240SOL    HW2 7257   1.097   0.147   3.844
 2241SOL     OW 7258   0.205   4.003   5.221
 2241SOL    HW1 7259   0.127   4.055   5.204
 2241SOL    HW2 7260   0.173   3.923   5.263
 2242SOL     OW 7261   1.622   5.102   3.833
 2242SOL    HW1 7262   1.623   5.175   3.772
 2242SOL    HW2 7263   1.554   5.043   3.799
 2243SOL     OW 7264   1.401   3.831   4.158
 2243SOL    HW1 7265   1.391   3.806   4.066
 2243SOL    HW2 7266   1.495   3.837   4.171
 2244SOL     OW 7267   0.387   4.419   4.202
 2244SOL    HW1 7268   0.415   4.329   4.212
 2244SOL    HW2 7269   0.293   4.417   4.223
 2245SOL     OW 7270   1.534   3.949   5.449
 2245SOL    HW1 7271   1.544   3.970   5.542
 2245SOL    HW2 7272   1.465   3.883   5.446
 2246SOL     OW 7273   0.636   3.846   3.828
 2246SOL    HW1 7274   0.703   3.779   3.841
 2246SOL    HW2 7275   0.586   3.815   3.752
 2247SOL     OW 7276   0.766   4.003   5.479
 2247SOL    HW1 7277   0.843   3.945   5.479
 2247SOL    HW2 7278   0.718   3.978   5.557
 2248SOL     OW 7279   1.340   4.313   5.156
 2248SOL    HW1 7280   1.371   4.282   5.241
 2248SOL    HW2 7281   1.376   4.401   5.148
 2249SOL     OW 7282   0.815   5.118   4.661
 2249SOL    HW1 7283   0.895   5.105   4.611
 2249SOL    HW2 7284   0.746   5.125   4.595
 2250SOL     OW 7285   0.929   4.234   4.626
 2250SOL    HW1 7286   0.904   4.225   4.534
 2250SOL    HW2 7287   0.959   4.146   4.651
 2251SOL     OW 7288   0.561   3.785   4.219
 2251SOL    HW1 7289   0.486   3.785   4.279
 2251SOL    HW2 7290   0.550   3.864   4.166
 2252SOL     OW 7291   1.428   4.924   3.762
 2252SOL    HW1 7292   1.458   4.849   3.812
 2252SOL    HW2 7293   1.340   4.942   3.795
 2253SOL     OW 7294   0.305   3.771   3.902
 2253SOL    HW1 7295   0.368   3.835   3.868
 2253SOL    HW2 7296   0.360   3.707   3.948
 2254SOL     OW 7297   0.940   3.972   4.183
 2254SOL    HW1 7298   0.914   4.012   4.100
 2254SOL    HW2 7299   1.035   3.987   4.187
 2255SOL     OW 7300   1.080   4.405   5.183
 2255SOL    HW1 7301   1.011   4.338   5.187
 2255SOL    HW2 7302   1.161   4.356   5.177
 2256SOL     OW 7303   1.264   5.267   4.501
 2256SOL    HW1 7304   1.218   0.046   4.477
 2256SOL    HW2 7305   1.309   5.289   4.583
 2257SOL     OW 7306   0.466   4.874   4.451
 2257SOL    HW1 7307   0.398   4.853   4.515
 2257SOL    HW2 7308   0.425   4.854   4.366
 2258SOL     OW 7309   1.023   4.264   3.748
 2258SOL    HW1 7310   0.980   4.348   3.728
 2258SOL    HW2 7311   1.089   4.286   3.814
 2259SOL     OW 7312   0.089   4.268   5.123
 2259SOL    HW1 7313   0.176   4.276   5.085
 2259SOL    HW2 7314   0.080   4.344   5.179
 2260SOL     OW 7315   0.560   3.952   4.891
 2260SOL    HW1 7316   0.598   3.872   4.928
 2260SOL    HW2 7317   0.468   3.950   4.919
 2261SOL     OW 7318   0.868   4.183   4.363
 2261SOL    HW1 7319   0.822   4.237   4.299
 2261SOL    HW2 7320   0.889   4.103   4.316
 2262SOL     OW 7321   1.016   3.777   4.474
 2262SOL    HW1 7322   0.957   3.770   4.399
 2262SOL    HW2 7323   0.994   3.702   4.529
 2263SOL     OW 7324   1.438   4.890   4.583
 2263SOL    HW1 7325   1.371   4.822   4.580
 2263SOL    HW2 7326   1.464   4.902   4.491
 2264SOL     OW 7327   1.466   4.330   4.699
 2264SOL    HW1 7328   1.414   4.250   4.702
 2264SOL    HW2 7329   1.525   4.323   4.774
 2265SOL     OW 7330   1.845   4.539   4.107
 2265SOL    HW1 7331   1.901   4.488   4.165
 2265SOL    HW2 7332   1.817   4.476   4.040
 2266SOL     OW 7333   0.482   5.145   3.875
 2266SOL    HW1 7334   0.421   5.095   3.928
 2266SOL    HW2 7335   0.485   5.099   3.791
 2267SOL     OW 7336   1.670   4.987   4.370
 2267SOL    HW1 7337   1.764   4.993   4.387
 2267SOL    HW2 7338   1.636   5.075   4.386
 2268SOL     OW 7339   1.394   4.296   3.795
 2268SOL    HW1 7340   1.333   4.276   3.866
 2268SOL    HW2 7341   1.478   4.263   3.827
 2269SOL     OW 7342   0.524   3.987   4.040
 2269SOL    HW1 7343   0.571   3.941   3.970
 2269SOL    HW2 7344   0.501   4.071   4.001
 2270SOL     OW 7345   1.751   4.960   5.298
 2270SOL    HW1 7346   1.836   4.917   5.298
 2270SOL    HW2 7347   1.770   5.053   5.309
 2271SOL     OW 7348   1.064   5.074   5.055
 2271SOL    HW1 7349   0.985   5.048   5.102
 2271SOL    HW2 7350   1.136   5.035   5.104
 2272SOL     OW 7351   1.128   4.926   4.831
 2272SOL    HW1 7352   1.077   4.967   4.902
 2272SOL    HW2 7353   1.081   4.951   4.751
 2273SOL     OW 7354   1.628   4.822   4.800
 2273SOL    HW1 7355   1.623   4.883   4.873
 2273SOL    HW2 7356   1.550   4.841   4.748
 2274SOL     OW 7357   0.919   3.820   5.120
 2274SOL    HW1 7358   0.941   3.802   5.029
 2274SOL    HW2 7359   0.998   3.860   5.156
 2275SOL     OW 7360   0.984   4.839   5.449
 2275SOL    HW1 7361   0.892   4.855   5.468
 2275SOL    HW2 7362   0.984   4.762   5.392
 2276SOL     OW 7363   0.703   4.782   4.096
 2276SOL    HW1 7364   0.693   4.766   4.190
 2276SOL    HW2 7365   0.781   4.731   4.072
 2277SOL     OW 7366   0.421   4.543   4.976
 2277SOL    HW1 7367   0.490   4.550   5.043
 2277SOL    HW2 7368   0.387   4.455   4.986
 2278SOL     OW 7369   1.265   4.100   5.000
 2278SOL    HW1 7370   1.297   4.178   5.046
 2278SOL    HW2 7371   1.174   4.122   4.978
 2279SOL     OW 7372   0.113   5.292   5.041
 2279SOL    HW1 7373   0.050   0.044   5.092
 2279SOL    HW2 7374   0.189   5.284   5.098
 2280SOL     OW 7375   0.344   4.829   4.210
 2280SOL    HW1 7376   0.347   4.908   4.155
 2280SOL    HW2 7377   0.348   4.756   4.147
 2281SOL     OW 7378   0.553   4.259   4.583
 2281SOL    HW1 7379   0.568   4.318   4.509
 2281SOL    HW2 7380   0.619   4.285   4.648
 2282SOL     OW 7381   1.261   5.078   4.109
 2282SOL    HW1 7382   1.318   5.144   4.149
 2282SOL    HW2 7383   1.173   5.101   4.139
 2283SOL     OW 7384   1.270   5.182   4.865
 2283SOL    HW1 7385   1.329   5.196   4.939
 2283SOL    HW2 7386   1.227   5.100   4.885
 2284SOL     OW 7387   1.581   4.346   4.204
 2284SOL    HW1 7388   1.533   4.398   4.268
 2284SOL    HW2 7389   1.626   4.410   4.149
 2285SOL     OW 7390   0.382   5.229   5.039
 2285SOL    HW1 7391   0.366   5.192   4.952
 2285SOL    HW2 7392   0.474   5.256   5.037
 2286SOL     OW 7393   0.415   4.466   5.326
 2286SOL    HW1 7394   0.476   4.512   5.269
 2286SOL    HW2 7395   0.453   4.380   5.339
 2287SOL     OW 7396   1.603   4.503   5.407
 2287SOL    HW1 7397   1.517   4.544   5.400
 2287SOL    HW2 7398   1.655   4.545   5.338
 2288SOL     OW 7399   0.996   3.849   5.479
 2288SOL    HW1 7400   1.053   3.921   5.452
 2288SOL    HW2 7401   1.044   3.770   5.453
 2289SOL     OW 7402   0.497   3.765   5.472
 2289SOL    HW1 7403   0.454   3.711   5.406
 2289SOL    HW2 7404   0.438   3.839   5.485
 2290SOL     OW 7405   0.586   4.597   4.756
 2290SOL    HW1 7406   0.615   4.688   4.755
 2290SOL    HW2 7407   0.529   4.591   4.833
 2291SOL     OW 7408   1.356   4.582   4.751
 2291SOL    HW1 7409   1.272   4.571   4.707
 2291SOL    HW2 7410   1.398   4.496   4.745
 2292SOL     OW 7411   1.204   4.252   3.990
 2292SOL    HW1 7412   1.212   4.174   4.044
 2292SOL    HW2 7413   1.160   4.317   4.046
 2293SOL     OW 7414   0.301   3.927   4.972
 2293SOL    HW1 7415   0.267   3.951   5.058
 2293SOL    HW2 7416   0.289   3.832   4.967
 2294SOL     OW 7417   0.044   5.022   4.999
 2294SOL    HW1 7418   0.074   4.973   5.076
 2294SOL    HW2 7419   0.043   5.113   5.028
 2295SOL     OW 7420   0.724   4.355   4.781
 2295SOL    HW1 7421   0.799   4.339   4.724
 2295SOL    HW2 7422   0.695   4.444   4.761
 2296SOL     OW 7423   1.735   4.684   5.577
 2296SOL    HW1 7424   1.690   4.620   5.521
 2296SOL    HW2 7425   1.675   4.698   5.650
 2297SOL     OW 7426   0.328   3.786   4.358
 2297SOL    HW1 7427   0.307   3.875   4.385
 2297SOL    HW2 7428   0.333   3.737   4.440
 2298SOL     OW 7429   1.618   4.099   4.090
 2298SOL    HW1 7430   1.645   4.035   4.155
 2298SOL    HW2 7431   1.595   4.177   4.141
 2299SOL     OW 7432   1.028   4.483   4.684
 2299SOL    HW1 7433   1.023   4.500   4.778
 2299SOL    HW2 7434   1.002   4.391   4.675
 2300SOL     OW 7435   1.854   5.213   5.307
 2300SOL    HW1 7436   1.846   5.291   5.251
 2300SOL    HW2 7437   1.924   5.236   5.369
 2301SOL     OW 7438   0.355   4.643   5.530
 2301SOL    HW1 7439   0.436   4.660   5.578
 2301SOL    HW2 7440   0.380   4.577   5.465
 2302SOL     OW 7441   1.528   3.997   3.851
 2302SOL    HW1 7442   1.463   3.932   3.878
 2302SOL    HW2 7443   1.562   4.032   3.933
 2303SOL     OW 7444   1.291   4.550   3.755
 2303SOL    HW1 7445   1.334   4.464   3.758
 2303SOL    HW2 7446   1.322   4.589   3.673
 2304SOL     OW 7447   1.058   5.080   4.547
 2304SOL    HW1 7448   1.063   4.994   4.505
 2304SOL    HW2 7449   1.145   5.118   4.535
 2305SOL     OW 7450   0.314   4.532   4.673
 2305SOL    HW1 7451   0.408   4.550   4.669
 2305SOL    HW2 7452   0.307   4.442   4.705
 2306SOL     OW 7453   0.335   4.250   4.739
 2306SOL    HW1 7454   0.299   4.162   4.725
 2306SOL    HW2 7455   0.409   4.256   4.680
 2307SOL     OW 7456   1.134   4.099   5.407
 2307SOL    HW1 7457   1.086   4.154   5.469
 2307SOL    HW2 7458   1.221   4.138   5.403
 2308SOL     OW 7459   1.161   3.926   5.194
 2308SOL    HW1 7460   1.150   3.989   5.266
 2308SOL    HW2 7461   1.201   3.977   5.124
 2309SOL     OW 7462   0.002   5.046   3.931
 2309SOL    HW1 7463   5.227   5.032   3.873
 2309SOL    HW2 7464   0.014   4.962   3.975
 2310SOL     OW 7465   0.981   4.515   4.950
 2310SOL    HW1 7466   1.038   4.493   5.024
 2310SOL    HW2 7467   0.896   4.476   4.973
 2311SOL     OW 7468   0.032   4.285   4.840
 2311SOL    HW1 7469   0.119   4.263   4.807
 2311SOL    HW2 7470   0.036   4.267   4.934
 2312SOL     OW 7471   0.174   4.237   5.436
 2312SOL    HW1 7472   0.238   4.199   5.376
 2312SOL    HW2 7473   0.147   4.319   5.394
 2313SOL     OW 7474   1.377   4.662   5.382
 2313SOL    HW1 7475   1.398   4.755   5.379
 2313SOL    HW2 7476   1.374   4.635   5.290
 2314SOL     OW 7477   0.817   4.293   4.085
 2314SOL    HW1 7478   0.821   4.219   4.025
 2314SOL    HW2 7479   0.742   4.345   4.054
 2315SOL     OW 7480   1.642   4.325   4.909
 2315SOL    HW1 7481   1.631   4.267   4.983
 2315SOL    HW2 7482   1.729   4.306   4.874
 2316SOL     OW 7483   0.209   5.278   5.455
 2316SOL    HW1 7484   0.171   0.021   5.532
 2316SOL    HW2 7485   0.212   5.186   5.478
 2317SOL     OW 7486   0.704   4.173   4.983
 2317SOL    HW1 7487   0.650   4.099   4.954
 2317SOL    HW2 7488   0.698   4.236   4.911
 2318SOL     OW 7489   0.464   4.217   3.908
 2318SOL    HW1 7490   0.524   4.288   3.931
 2318SOL    HW2 7491   0.380   4.260   3.895
 2319SOL     OW 7492   0.150   4.861   5.196
 2319SOL    HW1 7493   0.146   4.812   5.279
 2319SOL    HW2 7494   0.159   4.793   5.129
 2320SOL     OW 7495   1.326   4.768   4.946
 2320SOL    HW1 7496   1.348   4.706   4.877
 2320SOL    HW2 7497   1.256   4.822   4.908
 2321SOL     OW 7498   1.311   4.582   4.030
 2321SOL    HW1 7499   1.237   4.549   4.080
 2321SOL    HW2 7500   1.287   4.567   3.938
 2322SOL     OW 7501   0.075   4.915   4.754
 2322SOL    HW1 7502   0.064   4.957   4.840
 2322SOL    HW2 7503   5.288   4.921   4.714
 2323SOL     OW 7504   0.753   0.036   5.433
 2323SOL    HW1 7505   0.660   0.059   5.442
 2323SOL    HW2 7506   0.774   0.060   5.343
 2324SOL     OW 7507   1.720   3.872   4.233
 2324SOL    HW1 7508   1.792   3.857   4.172
 2324SOL    HW2 7509   1.704   3.787   4.273
 2325SOL     OW 7510   1.277   4.650   4.396
 2325SOL    HW1 7511   1.350   4.589   4.404
 2325SOL    HW2 7512   1.312   4.722   4.342
 2326SOL     OW 7513   0.817   4.993   5.141
 2326SOL    HW1 7514   0.785   5.029   5.225
 2326SOL    HW2 7515   0.742   4.999   5.083
 2327SOL     OW 7516   1.841   3.895   4.691
 2327SOL    HW1 7517   1.869   3.808   4.663
 2327SOL    HW2 7518   1.755   3.907   4.651
 2328SOL     OW 7519   0.273   4.041   4.441
 2328SOL    HW1 7520   0.188   4.079   4.421
 2328SOL    HW2 7521   0.273   4.029   4.536
 2329SOL     OW 7522   0.825   4.727   5.095
 2329SOL    HW1 7523   0.871   4.719   5.011
 2329SOL    HW2 7524   0.828   4.820   5.116
 2330SOL     OW 7525   0.916   4.636   4.014
 2330SOL    HW1 7526   0.977   4.668   3.948
 2330SOL    HW2 7527   0.964   4.566   4.059
 2331SOL     OW 7528   0.366   5.028   5.225
 2331SOL    HW1 7529   0.367   5.097   5.159
 2331SOL    HW2 7530   0.291   4.973   5.201
 2332SOL     OW 7531   1.612   5.004   5.006
 2332SOL    HW1 7532   1.669   4.996   5.083
 2332SOL    HW2 7533   1.550   5.073   5.029
 2333SOL     OW 7534   1.056   4.834   4.436
 2333SOL    HW1 7535   0.984   4.783   4.472
 2333SOL    HW2 7536   1.118   4.768   4.405
 2334SOL     OW 7537   1.022   3.965   4.690
 2334SOL    HW1 7538   1.017   3.917   4.607
 2334SOL    HW2 7539   1.016   3.897   4.757
 2335SOL     OW 7540   1.723   4.116   5.104
 2335SOL    HW1 7541   1.794   4.180   5.103
 2335SOL    HW2 7542   1.752   4.045   5.048
 2336SOL     OW 7543   0.259   5.059   4.011
 2336SOL    HW1 7544   0.167   5.062   3.987
 2336SOL    HW2 7545   0.262   5.097   4.099
 2337SOL     OW 7546   0.117   4.742   5.443
 2337SOL    HW1 7547   0.046   4.704   5.495
 2337SOL    HW2 7548   0.197   4.710   5.484
 2338SOL     OW 7549   0.675   3.920   5.224
 2338SOL    HW1 7550   0.759   3.900   5.182
 2338SOL    HW2 7551   0.698   3.952   5.311
 2339SOL     OW 7552   0.084   4.072   3.765
 2339SOL    HW1 7553   0.004   4.024   3.742
 2339SOL    HW2 7554   0.099   4.131   3.691
 2340SOL     OW 7555   1.429   4.582   5.124
 2340SOL    HW1 7556   1.380   4.642   5.068
 2340SOL    HW2 7557   1.518   4.584   5.089
 2341SOL     OW 7558   0.056   3.857   3.968
 2341SOL    HW1 7559   0.055   3.952   3.956
 2341SOL    HW2 7560   0.145   3.831   3.944
 2342SOL     OW 7561   1.182   5.063   3.845
 2342SOL    HW1 7562   1.091   5.034   3.846
 2342SOL    HW2 7563   1.210   5.055   3.936
 2343SOL     OW 7564   0.620   4.555   5.160
 2343SOL    HW1 7565   0.677   4.630   5.143
 2343SOL    HW2 7566   0.679   4.480   5.168
 2344SOL     OW 7567   0.718   4.287   5.428
 2344SOL    HW1 7568   0.760   4.349   5.488
 2344SOL    HW2 7569   0.743   4.201   5.460
 2345SOL     OW 7570   1.474   4.922   5.354
 2345SOL    HW1 7571   1.461   4.934   5.448
 2345SOL    HW2 7572   1.568   4.936   5.342
 2346SOL     OW 7573   1.669   4.605   4.979
 2346SOL    HW1 7574   1.663   4.520   4.936
 2346SOL    HW2 7575   1.658   4.668   4.908
 2347SOL     OW 7576   1.217   4.043   4.182
 2347SOL    HW1 7577   1.279   3.971   4.174
 2347SOL    HW2 7578   1.246   4.092   4.259
 2348SOL     OW 7579   0.590   4.461   4.394
 2348SOL    HW1 7580   0.628   4.547   4.379
 2348SOL    HW2 7581   0.521   4.453   4.328
 2349SOL     OW 7582   1.761   4.086   5.375
 2349SOL    HW1 7583   1.744   4.101   5.282
 2349SOL    HW2 7584   1.689   4.029   5.403
 2350SOL     OW 7585   1.745   4.657   5.236
 2350SOL    HW1 7586   1.739   4.752   5.248
 2350SOL    HW2 7587   1.730   4.645   5.142
 2351SOL     OW 7588   0.848   5.094   3.744
 2351SOL    HW1 7589   0.831   5.094   3.838
 2351SOL    HW2 7590   0.863   5.186   3.722
 2352SOL     OW 7591   0.869   4.692   4.578
 2352SOL    HW1 7592   0.918   4.620   4.618
 2352SOL    HW2 7593   0.833   4.741   4.652
 2353SOL     OW 7594   1.080   4.714   3.814
 2353SOL    HW1 7595   1.057   4.763   3.735
 2353SOL    HW2 7596   1.154   4.659   3.787
 2354SOL     OW 7597   0.219   5.024   5.579
 2354SOL    HW1 7598   0.155   4.955   5.560
 2354SOL    HW2 7599   0.217   5.034   5.674
 2355SOL     OW 7600   0.084   4.925   4.379
 2355SOL    HW1 7601   0.104   4.906   4.470
 2355SOL    HW2 7602   0.169   4.945   4.339
 2356SOL     OW 7603   0.672   5.103   5.333
 2356SOL    HW1 7604   0.595   5.073   5.380
 2356SOL    HW2 7605   0.705   5.176   5.386
 2357SOL     OW 7606   1.813   3.908   4.962
 2357SOL    HW1 7607   1.821   3.814   4.976
 2357SOL    HW2 7608   1.822   3.919   4.867
 2358SOL     OW 7609   0.436   4.160   4.248
 2358SOL    HW1 7610   0.463   4.087   4.192
 2358SOL    HW2 7611   0.388   4.118   4.320
 2359SOL     OW 7612   1.707   5.224   4.842
 2359SOL    HW1 7613   1.633   5.208   4.784
 2359SOL    HW2 7614   1.713   5.145   4.896
 2360SOL     OW 7615   0.338   4.285   5.016
 2360SOL    HW1 7616   0.391   4.225   5.069
 2360SOL    HW2 7617   0.351   4.254   4.926
 2361SOL     OW 7618   1.432   3.950   4.842
 2361SOL    HW1 7619   1.454   3.869   4.887
 2361SOL    HW2 7620   1.380   3.999   4.905
 2362SOL     OW 7621   1.009   3.742   4.865
 2362SOL    HW1 7622   0.954   3.675   4.824
 2362SOL    HW2 7623   1.097   3.704   4.867
 2363SOL     OW 7624   0.805   5.046   4.008
 2363SOL    HW1 7625   0.746   4.974   4.028
 2363SOL    HW2 7626   0.859   5.056   4.087
 2364SOL     OW 7627   0.641   0.003   5.013
 2364SOL    HW1 7628   0.644   0.058   5.091
 2364SOL    HW2 7629   0.733   5.286   4.992
 2365SOL     OW 7630   1.353   3.778   3.890
 2365SOL    HW1 7631   1.382   3.712   3.827
 2365SOL    HW2 7632   1.265   3.749   3.915
 2366SOL     OW 7633   1.297   4.185   4.404
 2366SOL    HW1 7634   1.243   4.264   4.411
 2366SOL    HW2 7635   1.292   4.146   4.492
 2367SOL     OW 7636   1.587   3.925   4.603
 2367SOL    HW1 7637   1.527   3.946   4.675
 2367SOL    HW2 7638   1.586   4.003   4.547
 2368SOL     OW 7639   0.048   4.789   4.013
 2368SOL    HW1 7640   0.138   4.757   4.004
 2368SOL    HW2 7641   0.000   4.716   4.053
 2369SOL     OW 7642   0.233   4.355   5.702
 2369SOL    HW1 7643   0.161   4.320   5.755
 2369SOL    HW2 7644   0.217   4.322   5.614
 2370SOL     OW 7645   0.243   3.999   6.575
 2370SOL    HW1 7646   0.256   3.964   6.663
 2370SOL    HW2 7647   0.158   3.964   6.548
 2371SOL     OW 7648   5.298   4.123   6.240
 2371SOL    HW1 7649   5.205   4.145   6.244
 2371SOL    HW2 7650   5.299   4.033   6.207
 2372SOL     OW 7651   0.575   5.001   6.772
 2372SOL    HW1 7652   0.496   5.007   6.718
 2372SOL    HW2 7653   0.594   5.092   6.796
 2373SOL     OW 7654   1.556   5.232   6.275
 2373SOL    HW1 7655   1.538   5.228   6.369
 2373SOL    HW2 7656   1.476   5.268   6.237
 2374SOL     OW 7657   1.130   4.422   6.286
 2374SOL    HW1 7658   1.179   4.503   6.272
 2374SOL    HW2 7659   1.084   4.435   6.368
 2375SOL     OW 7660   1.768   4.328   5.814
 2375SOL    HW1 7661   1.747   4.321   5.721
 2375SOL    HW2 7662   1.732   4.249   5.853
 2376SOL     OW 7663   0.757   4.866   6.624
 2376SOL    HW1 7664   0.691   4.896   6.686
 2376SOL    HW2 7665   0.785   4.946   6.579
 2377SOL     OW 7666   0.868   4.498   7.406
 2377SOL    HW1 7667   0.854   4.573   7.464
 2377SOL    HW2 7668   0.893   4.537   7.322
 2378SOL     OW 7669   0.685   4.725   6.233
 2378SOL    HW1 7670   0.751   4.714   6.302
 2378SOL    HW2 7671   0.618   4.780   6.273
 2379SOL     OW 7672   0.708   4.872   7.399
 2379SOL    HW1 7673   0.757   4.951   7.422
 2379SOL    HW2 7674   0.626   4.904   7.362
 2380SOL     OW 7675   0.378   5.146   6.639
 2380SOL    HW1 7676   0.283   5.157   6.627
 2380SOL    HW2 7677   0.417   5.196   6.568
 2381SOL     OW 7678   1.454   5.221   6.934
 2381SOL    HW1 7679   1.509   5.293   6.965
 2381SOL    HW2 7680   1.387   5.211   7.001
 2382SOL     OW 7681   0.451   4.124   7.078
 2382SOL    HW1 7682   0.525   4.064   7.080
 2382SOL    HW2 7683   0.374   4.068   7.088
 2383SOL     OW 7684   1.611   4.171   6.327
 2383SOL    HW1 7685   1.536   4.193   6.271
 2383SOL    HW2 7686   1.624   4.249   6.381
 2384SOL     OW 7687   1.133   5.072   7.287
 2384SOL    HW1 7688   1.165   5.072   7.377
 2384SOL    HW2 7689   1.079   4.993   7.280
 2385SOL     OW 7690   0.212   5.151   6.120
 2385SOL    HW1 7691   0.253   5.230   6.155
 2385SOL    HW2 7692   0.131   5.142   6.169
 2386SOL     OW 7693   0.253   4.798   6.461
 2386SOL    HW1 7694   0.265   4.711   6.499
 2386SOL    HW2 7695   0.196   4.843   6.523
 2387SOL     OW 7696   0.581   4.707   5.722
 2387SOL    HW1 7697   0.629   4.753   5.653
 2387SOL    HW2 7698   0.621   4.736   5.804
 2388SOL     OW 7699   1.596   3.848   7.053
 2388SOL    HW1 7700   1.606   3.929   7.003
 2388SOL    HW2 7701   1.580   3.877   7.143
 2389SOL     OW 7702   0.127   4.355   6.165
 2389SOL    HW1 7703   0.088   4.273   6.197
 2389SOL    HW2 7704   0.100   4.420   6.229
 2390SOL     OW 7705   5.298   5.298   5.668
 2390SOL    HW1 7706   0.013   5.210   5.702
 2390SOL    HW2 7707   0.026   0.057   5.738
 2391SOL     OW 7708   1.689   4.642   6.228
 2391SOL    HW1 7709   1.772   4.599   6.206
 2391SOL    HW2 7710   1.667   4.692   6.149
 2392SOL     OW 7711   1.646   4.830   6.015
 2392SOL    HW1 7712   1.732   4.834   5.973
 2392SOL    HW2 7713   1.653   4.891   6.089
 2393SOL     OW 7714   0.132   4.471   7.173
 2393SOL    HW1 7715   0.227   4.486   7.171
 2393SOL    HW2 7716   0.094   4.558   7.184
 2394SOL     OW 7717   0.627   5.097   6.323
 2394SOL    HW1 7718   0.570   5.020   6.321
 2394SOL    HW2 7719   0.603   5.146   6.244
 2395SOL     OW 7720   1.288   4.953   7.012
 2395SOL    HW1 7721   1.322   4.888   6.951
 2395SOL    HW2 7722   1.349   4.951   7.086
 2396SOL     OW 7723   0.824   3.724   6.097
 2396SOL    HW1 7724   0.864   3.808   6.076
 2396SOL    HW2 7725   0.730   3.743   6.102
 2397SOL     OW 7726   0.174   4.665   6.869
 2397SOL    HW1 7727   0.264   4.634   6.856
 2397SOL    HW2 7728   0.135   4.659   6.782
 2398SOL     OW 7729   1.531   4.720   5.784
 2398SOL    HW1 7730   1.461   4.662   5.816
 2398SOL    HW2 7731   1.572   4.754   5.863
 2399SOL     OW 7732   0.339   3.977   7.404
 2399SOL    HW1 7733   0.385   4.060   7.418
 2399SOL    HW2 7734   0.251   3.992   7.438
 2400SOL     OW 7735   1.478   5.147   6.548
 2400SOL    HW1 7736   1.405   5.160   6.609
 2400SOL    HW2 7737   1.465   5.059   6.514
 2401SOL     OW 7738   0.595   4.444   5.853
 2401SOL    HW1 7739   0.602   4.526   5.803
 2401SOL    HW2 7740   0.531   4.463   5.921
 2402SOL     OW 7741   1.279   4.079   6.519
 2402SOL    HW1 7742   1.189   4.045   6.527
 2402SOL    HW2 7743   1.330   4.025   6.579
 2403SOL     OW 7744   0.791   4.342   7.037
 2403SOL    HW1 7745   0.765   4.317   7.126
 2403SOL    HW2 7746   0.752   4.274   6.981
 2404SOL     OW 7747   1.394   4.198   7.263
 2404SOL    HW1 7748   1.396   4.243   7.348
 2404SOL    HW2 7749   1.453   4.124   7.273
 2405SOL     OW 7750   0.955   4.612   7.169
 2405SOL    HW1 7751   1.009   4.541   7.133
 2405SOL    HW2 7752   0.906   4.645   7.094
 2406SOL     OW 7753   0.992   4.137   6.824
 2406SOL    HW1 7754   0.905   4.156   6.859
 2406SOL    HW2 7755   0.975   4.090   6.742
 2407SOL     OW 7756   1.051   4.423   6.012
 2407SOL    HW1 7757   1.068   4.415   6.106
 2407SOL    HW2 7758   0.969   4.376   5.998
 2408SOL     OW 7759   0.071   4.510   6.396
 2408SOL    HW1 7760   0.152   4.515   6.447
 2408SOL    HW2 7761   0.063   4.597   6.356
 2409SOL     OW 7762   0.895   4.073   5.781
 2409SOL    HW1 7763   0.934   4.135   5.719
 2409SOL    HW2 7764   0.909   3.988   5.740
 2410SOL     OW 7765   1.708   4.299   7.416
 2410SOL    HW1 7766   1.671   4.372   7.367
 2410SOL    HW2 7767   1.736   4.237   7.348
 2411SOL     OW 7768   1.378   4.863   6.125
 2411SOL    HW1 7769   1.460   4.850   6.076
 2411SOL    HW2 7770   1.328   4.925   6.071
 2412SOL     OW 7771   0.557   3.907   6.480
 2412SOL    HW1 7772   0.553   3.935   6.571
 2412SOL    HW2 7773   0.551   3.988   6.429
 2413SOL     OW 7774   1.023   5.168   6.058
 2413SOL    HW1 7775   0.946   5.225   6.055
 2413SOL    HW2 7776   1.038   5.153   6.151
 2414SOL     OW 7777   1.801   4.780   6.453
 2414SOL    HW1 7778   1.745   4.762   6.378
 2414SOL    HW2 7779   1.740   4.787   6.527
 2415SOL     OW 7780   1.251   5.240   7.111
 2415SOL    HW1 7781   1.215   5.173   7.169
 2415SOL    HW2 7782   1.179   5.262   7.052
 2416SOL     OW 7783   0.316   4.676   5.834
 2416SOL    HW1 7784   0.397   4.698   5.789
 2416SOL    HW2 7785   0.292   4.590   5.799
 2417SOL     OW 7786   1.479   4.468   6.313
 2417SOL    HW1 7787   1.471   4.425   6.398
 2417SOL    HW2 7788   1.557   4.523   6.320
 2418SOL     OW 7789   0.462   4.989   7.331
 2418SOL    HW1 7790   0.437   4.992   7.238
 2418SOL    HW2 7791   0.379   4.989   7.379
 2419SOL     OW 7792   1.064   0.177   5.791
 2419SOL    HW1 7793   1.083   0.105   5.851
 2419SOL    HW2 7794   1.097   0.148   5.707
 2420SOL     OW 7795   0.205   4.003   7.085
 2420SOL    HW1 7796   0.126   4.054   7.065
 2420SOL    HW2 7797   0.173   3.922   7.124
 2421SOL     OW 7798   1.622   5.102   5.695
 2421SOL    HW1 7799   1.623   5.175   5.634
 2421SOL    HW2 7800   1.554   5.043   5.661
 2422SOL     OW 7801   1.401   3.831   6.020
 2422SOL    HW1 7802   1.391   3.806   5.928
 2422SOL    HW2 7803   1.496   3.837   6.033
 2423SOL     OW 7804   0.386   4.419   6.065
 2423SOL    HW1 7805   0.415   4.329   6.074
 2423SOL    HW2 7806   0.293   4.417   6.085
 2424SOL     OW 7807   1.534   3.949   7.311
 2424SOL    HW1 7808   1.543   3.970   7.404
 2424SOL    HW2 7809   1.465   3.882   7.309
 2425SOL     OW 7810   0.636   3.846   5.690
 2425SOL    HW1 7811   0.703   3.779   5.703
 2425SOL    HW2 7812   0.586   3.815   5.614
 2426SOL     OW 7813   0.765   4.002   7.340
 2426SOL    HW1 7814   0.843   3.945   7.340
 2426SOL    HW2 7815   0.722   3.984   7.424
 2427SOL     OW 7816   1.340   4.313   7.018
 2427SOL    HW1 7817   1.371   4.281   7.103
 2427SOL    HW2 7818   1.376   4.401   7.010
 2428SOL     OW 7819   0.815   5.118   6.523
 2428SOL    HW1 7820   0.895   5.105   6.473
 2428SOL    HW2 7821   0.746   5.125   6.457
 2429SOL     OW 7822   0.928   4.234   6.488
 2429SOL    HW1 7823   0.904   4.225   6.396
 2429SOL    HW2 7824   0.959   4.146   6.513
 2430SOL     OW 7825   0.561   3.785   6.081
 2430SOL    HW1 7826   0.486   3.785   6.141
 2430SOL    HW2 7827   0.550   3.864   6.028
 2431SOL     OW 7828   1.428   4.924   5.624
 2431SOL    HW1 7829   1.458   4.849   5.674
 2431SOL    HW2 7830   1.340   4.942   5.657
 2432SOL     OW 7831   0.305   3.771   5.764
 2432SOL    HW1 7832   0.368   3.835   5.729
 2432SOL    HW2 7833   0.360   3.707   5.810
 2433SOL     OW 7834   0.940   3.972   6.045
 2433SOL    HW1 7835   0.914   4.012   5.962
 2433SOL    HW2 7836   1.035   3.987   6.050
 2434SOL     OW 7837   1.080   4.405   7.045
 2434SOL    HW1 7838   1.012   4.338   7.050
 2434SOL    HW2 7839   1.162   4.356   7.039
 2435SOL     OW 7840   1.264   5.266   6.363
 2435SOL    HW1 7841   1.218   0.047   6.339
 2435SOL    HW2 7842   1.309   5.289   6.445
 2436SOL     OW 7843   0.466   4.874   6.313
 2436SOL    HW1 7844   0.398   4.853   6.377
 2436SOL    HW2 7845   0.426   4.854   6.228
 2437SOL     OW 7846   1.023   4.264   5.610
 2437SOL    HW1 7847   0.980   4.348   5.590
 2437SOL    HW2 7848   1.089   4.286   5.676
 2438SOL     OW 7849   0.089   4.267   6.986
 2438SOL    HW1 7850   0.177   4.275   6.948
 2438SOL    HW2 7851   0.080   4.344   7.042
 2439SOL     OW 7852   0.560   3.952   6.753
 2439SOL    HW1 7853   0.598   3.872   6.791
 2439SOL    HW2 7854   0.469   3.950   6.781
 2440SOL     OW 7855   0.868   4.183   6.225
 2440SOL    HW1 7856   0.822   4.237   6.161
 2440SOL    HW2 7857   0.889   4.103   6.178
 2441SOL     OW 7858   1.016   3.777   6.337
 2441SOL    HW1 7859   0.957   3.770   6.261
 2441SOL    HW2 7860   0.994   3.702   6.392
 2442SOL     OW 7861   1.438   4.890   6.445
 2442SOL    HW1 7862   1.371   4.822   6.442
 2442SOL    HW2 7863   1.464   4.902   6.353
 2443SOL     OW 7864   1.466   4.330   6.561
 2443SOL    HW1 7865   1.414   4.250   6.564
 2443SOL    HW2 7866   1.525   4.323   6.636
 2444SOL     OW 7867   1.845   4.539   5.969
 2444SOL    HW1 7868   1.901   4.488   6.027
 2444SOL    HW2 7869   1.817   4.476   5.902
 2445SOL     OW 7870   0.482   5.145   5.737
 2445SOL    HW1 7871   0.421   5.095   5.790
 2445SOL    HW2 7872   0.485   5.099   5.653
 2446SOL     OW 7873   1.670   4.987   6.232
 2446SOL    HW1 7874   1.764   4.993   6.249
 2446SOL    HW2 7875   1.636   5.075   6.248
 2447SOL     OW 7876   1.394   4.296   5.657
 2447SOL    HW1 7877   1.333   4.276   5.728
 2447SOL    HW2 7878   1.478   4.263   5.689
 2448SOL     OW 7879   0.524   3.987   5.902
 2448SOL    HW1 7880   0.571   3.941   5.832
 2448SOL    HW2 7881   0.501   4.071   5.863
 2449SOL     OW 7882   1.750   4.960   7.159
 2449SOL    HW1 7883   1.836   4.917   7.160
 2449SOL    HW2 7884   1.769   5.053   7.171
 2450SOL     OW 7885   1.064   5.074   6.917
 2450SOL    HW1 7886   0.986   5.048   6.964
 2450SOL    HW2 7887   1.136   5.035   6.966
 2451SOL     OW 7888   1.128   4.927   6.693
 2451SOL    HW1 7889   1.077   4.968   6.764
 2451SOL    HW2 7890   1.081   4.951   6.613
 2452SOL     OW 7891   1.628   4.822   6.662
 2452SOL    HW1 7892   1.623   4.883   6.735
 2452SOL    HW2 7893   1.550   4.841   6.610
 2453SOL     OW 7894   0.918   3.820   6.982
 2453SOL    HW1 7895   0.941   3.802   6.891
 2453SOL    HW2 7896   0.998   3.859   7.018
 2454SOL     OW 7897   0.985   4.838   7.313
 2454SOL    HW1 7898   0.892   4.855   7.330
 2454SOL    HW2 7899   0.985   4.762   7.255
 2455SOL     OW 7900   0.703   4.782   5.958
 2455SOL    HW1 7901   0.693   4.766   6.052
 2455SOL    HW2 7902   0.781   4.732   5.934
 2456SOL     OW 7903   0.421   4.544   6.838
 2456SOL    HW1 7904   0.490   4.550   6.905
 2456SOL    HW2 7905   0.387   4.455   6.848
 2457SOL     OW 7906   1.265   4.101   6.862
 2457SOL    HW1 7907   1.297   4.178   6.908
 2457SOL    HW2 7908   1.174   4.122   6.840
 2458SOL     OW 7909   0.113   5.292   6.903
 2458SOL    HW1 7910   0.050   0.044   6.954
 2458SOL    HW2 7911   0.189   5.284   6.960
 2459SOL     OW 7912   0.344   4.829   6.071
 2459SOL    HW1 7913   0.347   4.908   6.017
 2459SOL    HW2 7914   0.348   4.756   6.009
 2460SOL     OW 7915   0.553   4.259   6.445
 2460SOL    HW1 7916   0.568   4.318   6.371
 2460SOL    HW2 7917   0.619   4.285   6.510
 2461SOL     OW 7918   1.261   5.078   5.971
 2461SOL    HW1 7919   1.318   5.144   6.010
 2461SOL    HW2 7920   1.173   5.101   6.001
 2462SOL     OW 7921   1.270   5.182   6.727
 2462SOL    HW1 7922   1.329   5.196   6.801
 2462SOL    HW2 7923   1.227   5.099   6.747
 2463SOL     OW 7924   1.581   4.346   6.066
 2463SOL    HW1 7925   1.533   4.399   6.130
 2463SOL    HW2 7926   1.626   4.410   6.011
 2464SOL     OW 7927   0.382   5.229   6.901
 2464SOL    HW1 7928   0.366   5.192   6.814
 2464SOL    HW2 7929   0.474   5.256   6.899
 2465SOL     OW 7930   0.415   4.466   7.188
 2465SOL    HW1 7931   0.476   4.512   7.131
 2465SOL    HW2 7932   0.452   4.379   7.200
 2466SOL     OW 7933   1.602   4.503   7.269
 2466SOL    HW1 7934   1.516   4.545   7.262
 2466SOL    HW2 7935   1.655   4.545   7.201
 2467SOL     OW 7936   0.996   3.850   7.340
 2467SOL    HW1 7937   1.053   3.922   7.313
 2467SOL    HW2 7938   1.044   3.770   7.315
 2468SOL     OW 7939   0.498   3.764   7.334
 2468SOL    HW1 7940   0.455   3.710   7.267
 2468SOL    HW2 7941   0.440   3.839   7.346
 2469SOL     OW 7942   0.586   4.597   6.618
 2469SOL    HW1 7943   0.615   4.688   6.617
 2469SOL    HW2 7944   0.529   4.591   6.695
 2470SOL     OW 7945   1.356   4.582   6.613
 2470SOL    HW1 7946   1.272   4.571   6.568
 2470SOL    HW2 7947   1.398   4.496   6.607
 2471SOL     OW 7948   1.204   4.252   5.852
 2471SOL    HW1 7949   1.212   4.174   5.906
 2471SOL    HW2 7950   1.160   4.316   5.908
 2472SOL     OW 7951   0.301   3.927   6.834
 2472SOL    HW1 7952   0.268   3.951   6.920
 2472SOL    HW2 7953   0.290   3.832   6.829
 2473SOL     OW 7954   0.044   5.021   6.861
 2473SOL    HW1 7955   0.074   4.973   6.938
 2473SOL    HW2 7956   0.043   5.113   6.890
 2474SOL     OW 7957   0.724   4.355   6.643
 2474SOL    HW1 7958   0.799   4.339   6.586
 2474SOL    HW2 7959   0.696   4.444   6.622
 2475SOL     OW 7960   1.736   4.685   7.438
 2475SOL    HW1 7961   1.689   4.621   7.384
 2475SOL    HW2 7962   1.678   4.699   7.513
 2476SOL     OW 7963   0.328   3.786   6.220
 2476SOL    HW1 7964   0.307   3.875   6.247
 2476SOL    HW2 7965   0.333   3.737   6.302
 2477SOL     OW 7966   1.617   4.099   5.952
 2477SOL    HW1 7967   1.645   4.035   6.017
 2477SOL    HW2 7968   1.595   4.177   6.003
 2478SOL     OW 7969   1.028   4.483   6.546
 2478SOL    HW1 7970   1.023   4.500   6.640
 2478SOL    HW2 7971   1.002   4.391   6.537
 2479SOL     OW 7972   1.853   5.213   7.168
 2479SOL    HW1 7973   1.845   5.290   7.112
 2479SOL    HW2 7974   1.924   5.235   7.229
 2480SOL     OW 7975   0.355   4.641   7.393
 2480SOL    HW1 7976   0.436   4.660   7.439
 2480SOL    HW2 7977   0.379   4.576   7.326
 2481SOL     OW 7978   1.528   3.997   5.713
 2481SOL    HW1 7979   1.464   3.932   5.740
 2481SOL    HW2 7980   1.562   4.032   5.795
 2482SOL     OW 7981   1.291   4.550   5.617
 2482SOL    HW1 7982   1.334   4.464   5.620
 2482SOL    HW2 7983   1.322   4.589   5.535
 2483SOL     OW 7984   1.058   5.080   6.409
 2483SOL    HW1 7985   1.063   4.994   6.367
 2483SOL    HW2 7986   1.145   5.119   6.398
 2484SOL     OW 7987   0.314   4.532   6.535
 2484SOL    HW1 7988   0.408   4.550   6.531
 2484SOL    HW2 7989   0.307   4.443   6.567
 2485SOL     OW 7990   0.335   4.250   6.602
 2485SOL    HW1 7991   0.299   4.162   6.588
 2485SOL    HW2 7992   0.409   4.256   6.542
 2486SOL     OW 7993   1.134   4.099   7.268
 2486SOL    HW1 7994   1.087   4.154   7.330
 2486SOL    HW2 7995   1.222   4.138   7.264
 2487SOL     OW 7996   1.161   3.926   7.056
 2487SOL    HW1 7997   1.150   3.988   7.127
 2487SOL    HW2 7998   1.201   3.976   6.985
 2488SOL     OW 7999   0.002   5.046   5.793
 2488SOL    HW1 8000   5.227   5.032   5.735
 2488SOL    HW2 8001   0.014   4.962   5.837
 2489SOL     OW 8002   0.981   4.515   6.812
 2489SOL    HW1 8003   1.038   4.493   6.886
 2489SOL    HW2 8004   0.896   4.476   6.834
 2490SOL     OW 8005   0.032   4.286   6.702
 2490SOL    HW1 8006   0.118   4.263   6.669
 2490SOL    HW2 8007   0.037   4.267   6.796
 2491SOL     OW 8008   0.174   4.237   7.303
 2491SOL    HW1 8009   0.235   4.195   7.242
 2491SOL    HW2 8010   0.147   4.317   7.259
 2492SOL     OW 8011   1.377   4.662   7.244
 2492SOL    HW1 8012   1.398   4.755   7.241
 2492SOL    HW2 8013   1.373   4.635   7.153
 2493SOL     OW 8014   0.817   4.293   5.947
 2493SOL    HW1 8015   0.821   4.219   5.887
 2493SOL    HW2 8016   0.742   4.345   5.916
 2494SOL     OW 8017   1.642   4.325   6.771
 2494SOL    HW1 8018   1.631   4.266   6.845
 2494SOL    HW2 8019   1.729   4.306   6.737
 2495SOL     OW 8020   0.208   5.278   7.318
 2495SOL    HW1 8021   0.157   0.015   7.390
 2495SOL    HW2 8022   0.215   5.185   7.340
 2496SOL     OW 8023   0.704   4.173   6.845
 2496SOL    HW1 8024   0.650   4.099   6.816
 2496SOL    HW2 8025   0.698   4.236   6.773
 2497SOL     OW 8026   0.464   4.217   5.770
 2497SOL    HW1 8027   0.524   4.288   5.793
 2497SOL    HW2 8028   0.380   4.260   5.757
 2498SOL     OW 8029   0.150   4.861   7.058
 2498SOL    HW1 8030   0.146   4.812   7.140
 2498SOL    HW2 8031   0.159   4.793   6.991
 2499SOL     OW 8032   1.326   4.769   6.808
 2499SOL    HW1 8033   1.348   4.706   6.739
 2499SOL    HW2 8034   1.256   4.822   6.770
 2500SOL     OW 8035   1.311   4.582   5.892
 2500SOL    HW1 8036   1.237   4.549   5.942
 2500SOL    HW2 8037   1.287   4.567   5.800
 2501SOL     OW 8038   0.075   4.914   6.616
 2501SOL    HW1 8039   0.064   4.957   6.702
 2501SOL    HW2 8040   5.288   4.921   6.576
 2502SOL     OW 8041   0.752   0.035   7.297
 2502SOL    HW1 8042   0.660   0.059   7.305
 2502SOL    HW2 8043   0.776   0.061   7.208
 2503SOL     OW 8044   1.719   3.872   6.094
 2503SOL    HW1 8045   1.792   3.857   6.034
 2503SOL    HW2 8046   1.704   3.787   6.135
 2504SOL     OW 8047   1.277   4.650   6.258
 2504SOL    HW1 8048   1.350   4.589   6.266
 2504SOL    HW2 8049   1.312   4.722   6.204
 2505SOL     OW 8050   0.817   4.993   7.003
 2505SOL    HW1 8051   0.785   5.029   7.086
 2505SOL    HW2 8052   0.742   5.000   6.944
 2506SOL     OW 8053   1.841   3.897   6.553
 2506SOL    HW1 8054   1.870   3.809   6.526
 2506SOL    HW2 8055   1.755   3.906   6.513
 2507SOL     OW 8056   0.273   4.041   6.303
 2507SOL    HW1 8057   0.188   4.079   6.283
 2507SOL    HW2 8058   0.273   4.030   6.398
 2508SOL     OW 8059   0.825   4.727   6.957
 2508SOL    HW1 8060   0.871   4.718   6.874
 2508SOL    HW2 8061   0.828   4.820   6.977
 2509SOL     OW 8062   0.916   4.636   5.877
 2509SOL    HW1 8063   0.977   4.668   5.810
 2509SOL    HW2 8064   0.964   4.566   5.921
 2510SOL     OW 8065   0.365   5.029   7.088
 2510SOL    HW1 8066   0.368   5.097   7.021
 2510SOL    HW2 8067   0.291   4.973   7.063
 2511SOL     OW 8068   1.612   5.004   6.868
 2511SOL    HW1 8069   1.669   4.996   6.945
 2511SOL    HW2 8070   1.549   5.073   6.891
 2512SOL     OW 8071   1.056   4.834   6.298
 2512SOL    HW1 8072   0.984   4.783   6.334
 2512SOL    HW2 8073   1.118   4.768   6.267
 2513SOL     OW 8074   1.022   3.965   6.552
 2513SOL    HW1 8075   1.017   3.917   6.469
 2513SOL    HW2 8076   1.016   3.897   6.619
 2514SOL     OW 8077   1.723   4.116   6.967
 2514SOL    HW1 8078   1.795   4.179   6.965
 2514SOL    HW2 8079   1.752   4.045   6.910
 2515SOL     OW 8080   0.259   5.059   5.873
 2515SOL    HW1 8081   0.167   5.062   5.849
 2515SOL    HW2 8082   0.262   5.097   5.961
 2516SOL     OW 8083   0.117   4.743   7.306
 2516SOL    HW1 8084   0.046   4.705   7.357
 2516SOL    HW2 8085   0.197   4.709   7.347
 2517SOL     OW 8086   0.674   3.920   7.085
 2517SOL    HW1 8087   0.758   3.900   7.044
 2517SOL    HW2 8088   0.697   3.951   7.173
 2518SOL     OW 8089   0.083   4.072   5.627
 2518SOL    HW1 8090   0.004   4.024   5.604
 2518SOL    HW2 8091   0.099   4.131   5.553
 2519SOL     OW 8092   1.429   4.582   6.986
 2519SOL    HW1 8093   1.380   4.643   6.930
 2519SOL    HW2 8094   1.518   4.584   6.951
 2520SOL     OW 8095   0.056   3.857   5.830
 2520SOL    HW1 8096   0.055   3.952   5.818
 2520SOL    HW2 8097   0.145   3.831   5.806
 2521SOL     OW 8098   1.182   5.063   5.707
 2521SOL    HW1 8099   1.091   5.034   5.708
 2521SOL    HW2 8100   1.210   5.055   5.798
 2522SOL     OW 8101   0.619   4.555   7.022
 2522SOL    HW1 8102   0.677   4.630   7.005
 2522SOL    HW2 8103   0.679   4.481   7.030
 2523SOL     OW 8104   0.717   4.287   7.290
 2523SOL    HW1 8105   0.759   4.348   7.351
 2523SOL    HW2 8106   0.743   4.200   7.322
 2524SOL     OW 8107   1.474   4.922   7.217
 2524SOL    HW1 8108   1.461   4.934   7.311
 2524SOL    HW2 8109   1.568   4.936   7.204
 2525SOL     OW 8110   1.668   4.605   6.841
 2525SOL    HW1 8111   1.663   4.520   6.798
 2525SOL    HW2 8112   1.658   4.668   6.770
 2526SOL     OW 8113   1.217   4.043   6.044
 2526SOL    HW1 8114   1.279   3.971   6.036
 2526SOL    HW2 8115   1.246   4.092   6.121
 2527SOL     OW 8116   0.590   4.461   6.256
 2527SOL    HW1 8117   0.628   4.547   6.241
 2527SOL    HW2 8118   0.521   4.453   6.190
 2528SOL     OW 8119   1.760   4.087   7.238
 2528SOL    HW1 8120   1.745   4.102   7.145
 2528SOL    HW2 8121   1.689   4.030   7.266
 2529SOL     OW 8122   1.746   4.657   7.098
 2529SOL    HW1 8123   1.739   4.752   7.111
 2529SOL    HW2 8124   1.730   4.645   7.004
 2530SOL     OW 8125   0.848   5.094   5.606
 2530SOL    HW1 8126   0.831   5.094   5.700
 2530SOL    HW2 8127   0.863   5.186   5.584
 2531SOL     OW 8128   0.869   4.692   6.440
 2531SOL    HW1 8129   0.918   4.620   6.480
 2531SOL    HW2 8130   0.833   4.741   6.514
 2532SOL     OW 8131   1.080   4.713   5.676
 2532SOL    HW1 8132   1.057   4.763   5.597
 2532SOL    HW2 8133   1.153   4.659   5.649
 2533SOL     OW 8134   0.218   5.023   7.442
 2533SOL    HW1 8135   0.155   4.954   7.420
 2533SOL    HW2 8136   0.209   5.034   7.537
 2534SOL     OW 8137   0.084   4.926   6.241
 2534SOL    HW1 8138   0.104   4.906   6.332
 2534SOL    HW2 8139   0.169   4.945   6.201
 2535SOL     OW 8140   0.672   5.102   7.196
 2535SOL    HW1 8141   0.594   5.073   7.242
 2535SOL    HW2 8142   0.705   5.176   7.247
 2536SOL     OW 8143   1.812   3.908   6.824
 2536SOL    HW1 8144   1.822   3.814   6.838
 2536SOL    HW2 8145   1.822   3.919   6.729
 2537SOL     OW 8146   0.436   4.160   6.110
 2537SOL    HW1 8147   0.463   4.087   6.054
 2537SOL    HW2 8148   0.388   4.118   6.182
 2538SOL     OW 8149   1.706   5.225   6.705
 2538SOL    HW1 8150   1.633   5.208   6.646
 2538SOL    HW2 8151   1.713   5.145   6.758
 2539SOL     OW 8152   0.338   4.285   6.878
 2539SOL    HW1 8153   0.391   4.225   6.931
 2539SOL    HW2 8154   0.351   4.254   6.788
 2540SOL     OW 8155   1.432   3.950   6.704
 2540SOL    HW1 8156   1.455   3.869   6.749
 2540SOL    HW2 8157   1.380   3.999   6.768
 2541SOL     OW 8158   1.009   3.742   6.727
 2541SOL    HW1 8159   0.955   3.675   6.686
 2541SOL    HW2 8160   1.097   3.704   6.729
 2542SOL     OW 8161   0.805   5.046   5.870
 2542SOL    HW1 8162   0.746   4.974   5.890
 2542SOL    HW2 8163   0.859   5.056   5.949
 2543SOL     OW 8164   0.641   0.003   6.875
 2543SOL    HW1 8165   0.644   0.058   6.953
 2543SOL    HW2 8166   0.733   5.286   6.853
 2544SOL     OW 8167   1.353   3.777   5.752
 2544SOL    HW1 8168   1.382   3.712   5.688
 2544SOL    HW2 8169   1.265   3.749   5.778
 2545SOL     OW 8170   1.296   4.185   6.266
 2545SOL    HW1 8171   1.243   4.265   6.273
 2545SOL    HW2 8172   1.292   4.146   6.354
 2546SOL     OW 8173   1.586   3.925   6.465
 2546SOL    HW1 8174   1.527   3.946   6.536
 2546SOL    HW2 8175   1.586   4.003   6.409
 2547SOL     OW 8176   0.048   4.789   5.875
 2547SOL    HW1 8177   0.138   4.757   5.866
 2547SOL    HW2 8178   0.000   4.716   5.915
 2548SOL     OW 8179   0.229   4.354   7.567
 2548SOL    HW1 8180   0.157   4.311   7.613
 2548SOL    HW2 8181   0.220   4.326   7.476
 2549SOL     OW 8182   1.767   4.321   7.679
 2549SOL    HW1 8183   1.747   4.317   7.585
 2549SOL    HW2 8184   1.727   4.243   7.716
 2550SOL     OW 8185   0.280   0.133   7.959
 2550SOL    HW1 8186   0.239   0.209   8.001
 2550SOL    HW2 8187   0.286   0.157   7.867
 2551SOL     OW 8188   0.226   5.159   7.991
 2551SOL    HW1 8189   0.236   5.254   7.994
 2551SOL    HW2 8190   0.156   5.140   8.053
 2552SOL     OW 8191   0.581   4.708   7.582
 2552SOL    HW1 8192   0.628   4.755   7.513
 2552SOL    HW2 8193   0.622   4.738   7.663
 2553SOL     OW 8194   0.001   5.297   7.523
 2553SOL    HW1 8195   0.015   5.210   7.560
 2553SOL    HW2 8196   0.020   0.057   7.595
 2554SOL     OW 8197   1.681   4.589   8.033
 2554SOL    HW1 8198   1.760   4.600   0.006
 2554SOL    HW2 8199   1.670   4.673   7.989
 2555SOL     OW 8200   1.657   4.824   7.877
 2555SOL    HW1 8201   1.745   4.843   7.846
 2555SOL    HW2 8202   1.636   4.896   7.937
 2556SOL     OW 8203   0.799   3.719   7.938
 2556SOL    HW1 8204   0.849   3.799   7.921
 2556SOL    HW2 8205   0.709   3.749   7.948
 2557SOL     OW 8206   1.532   4.722   7.649
 2557SOL    HW1 8207   1.466   4.662   7.683
 2557SOL    HW2 8208   1.577   4.755   7.727
 2558SOL     OW 8209   0.588   4.447   7.708
 2558SOL    HW1 8210   0.595   4.530   7.660
 2558SOL    HW2 8211   0.535   4.468   7.785
 2559SOL     OW 8212   0.053   4.543   0.200
 2559SOL    HW1 8213   0.122   4.485   0.167
 2559SOL    HW2 8214   0.031   4.599   0.126
 2560SOL     OW 8215   0.884   4.072   7.638
 2560SOL    HW1 8216   0.927   4.132   7.576
 2560SOL    HW2 8217   0.917   3.985   7.614
 2561SOL     OW 8218   0.316   4.672   7.693
 2561SOL    HW1 8219   0.398   4.698   7.650
 2561SOL    HW2 8220   0.294   4.587   7.654
 2562SOL     OW 8221   1.083   0.191   7.644
 2562SOL    HW1 8222   1.067   0.123   7.710
 2562SOL    HW2 8223   1.089   0.144   7.561
 2563SOL     OW 8224   1.626   5.100   7.552
 2563SOL    HW1 8225   1.615   5.178   7.497
 2563SOL    HW2 8226   1.557   5.041   7.523
 2564SOL     OW 8227   1.417   3.856   7.864
 2564SOL    HW1 8228   1.405   3.821   7.776
 2564SOL    HW2 8229   1.511   3.855   7.878
 2565SOL     OW 8230   0.379   4.424   7.923
 2565SOL    HW1 8231   0.397   4.330   7.928
 2565SOL    HW2 8232   0.285   4.431   7.937
 2566SOL     OW 8233   0.630   3.843   7.558
 2566SOL    HW1 8234   0.704   3.783   7.569
 2566SOL    HW2 8235   0.585   3.812   7.479
 2567SOL     OW 8236   0.526   3.800   7.961
 2567SOL    HW1 8237   0.438   3.805   7.999
 2567SOL    HW2 8238   0.528   3.870   7.896
 2568SOL     OW 8239   1.428   4.925   7.487
 2568SOL    HW1 8240   1.458   4.850   7.539
 2568SOL    HW2 8241   1.340   4.944   7.520
 2569SOL     OW 8242   0.307   3.767   7.619
 2569SOL    HW1 8243   0.368   3.831   7.583
 2569SOL    HW2 8244   0.362   3.705   7.667
 2570SOL     OW 8245   0.944   3.949   7.910
 2570SOL    HW1 8246   0.901   4.014   7.854
 2570SOL    HW2 8247   1.035   3.979   7.914
 2571SOL     OW 8248   0.448   4.884   0.088
 2571SOL    HW1 8249   0.376   4.904   0.148
 2571SOL    HW2 8250   0.405   4.865   0.004
 2572SOL     OW 8251   1.025   4.265   7.468
 2572SOL    HW1 8252   0.980   4.347   7.451
 2572SOL    HW2 8253   1.085   4.284   7.540
 2573SOL     OW 8254   1.873   4.539   7.801
 2573SOL    HW1 8255   1.863   4.514   7.893
 2573SOL    HW2 8256   1.833   4.467   7.753
 2574SOL     OW 8257   0.475   5.148   7.600
 2574SOL    HW1 8258   0.417   5.096   7.655
 2574SOL    HW2 8259   0.482   5.098   7.518
 2575SOL     OW 8260   1.394   4.296   7.519
 2575SOL    HW1 8261   1.333   4.275   7.590
 2575SOL    HW2 8262   1.478   4.262   7.550
 2576SOL     OW 8263   0.527   3.990   7.769
 2576SOL    HW1 8264   0.571   3.940   7.700
 2576SOL    HW2 8265   0.502   4.072   7.728
 2577SOL     OW 8266   0.707   4.783   7.814
 2577SOL    HW1 8267   0.689   4.770   7.907
 2577SOL    HW2 8268   0.787   4.733   7.798
 2578SOL     OW 8269   0.345   4.820   7.926
 2578SOL    HW1 8270   0.339   4.903   7.880
 2578SOL    HW2 8271   0.346   4.754   7.857
 2579SOL     OW 8272   1.225   5.116   7.832
 2579SOL    HW1 8273   1.312   5.123   7.873
 2579SOL    HW2 8274   1.175   5.062   7.893
 2580SOL     OW 8275   1.587   4.351   7.921
 2580SOL    HW1 8276   1.577   4.410   7.995
 2580SOL    HW2 8277   1.626   4.405   7.852
 2581SOL     OW 8278   1.203   4.250   7.714
 2581SOL    HW1 8279   1.205   4.167   7.761
 2581SOL    HW2 8280   1.177   4.314   7.781
 2582SOL     OW 8281   1.619   4.104   7.813
 2582SOL    HW1 8282   1.641   4.037   7.878
 2582SOL    HW2 8283   1.595   4.180   7.865
 2583SOL     OW 8284   1.528   3.999   7.575
 2583SOL    HW1 8285   1.464   3.934   7.600
 2583SOL    HW2 8286   1.561   4.034   7.658
 2584SOL     OW 8287   1.293   4.551   7.480
 2584SOL    HW1 8288   1.335   4.465   7.482
 2584SOL    HW2 8289   1.323   4.590   7.398
 2585SOL     OW 8290   0.004   5.050   7.654
 2585SOL    HW1 8291   5.226   5.039   7.599
 2585SOL    HW2 8292   0.018   4.964   7.694
 2586SOL     OW 8293   0.842   4.328   7.758
 2586SOL    HW1 8294   0.835   4.236   7.733
 2586SOL    HW2 8295   0.751   4.359   7.761
 2587SOL     OW 8296   0.461   4.217   7.638
 2587SOL    HW1 8297   0.522   4.288   7.655
 2587SOL    HW2 8298   0.377   4.260   7.622
 2588SOL     OW 8299   1.311   4.579   7.754
 2588SOL    HW1 8300   1.224   4.580   7.794
 2588SOL    HW2 8301   1.294   4.566   7.660
 2589SOL     OW 8302   1.712   3.872   7.946
 2589SOL    HW1 8303   1.789   3.865   7.889
 2589SOL    HW2 8304   1.716   3.794   8.001
 2590SOL     OW 8305   0.925   4.633   7.756
 2590SOL    HW1 8306   0.979   4.658   7.681
 2590SOL    HW2 8307   0.919   4.538   7.751
 2591SOL     OW 8308   0.260   5.059   7.746
 2591SOL    HW1 8309   0.168   5.067   7.721
 2591SOL    HW2 8310   0.265   5.098   7.833
 2592SOL     OW 8311   0.083   4.063   7.488
 2592SOL    HW1 8312   5.299   4.023   7.463
 2592SOL    HW2 8313   0.100   4.127   7.419
 2593SOL     OW 8314   0.083   3.862   7.739
 2593SOL    HW1 8315   0.068   3.948   7.701
 2593SOL    HW2 8316   0.154   3.825   7.687
 2594SOL     OW 8317   1.181   5.058   7.565
 2594SOL    HW1 8318   1.088   5.032   7.562
 2594SOL    HW2 8319   1.198   5.073   7.658
 2595SOL     OW 8320   1.214   4.042   7.904
 2595SOL    HW1 8321   1.288   3.982   7.892
 2595SOL    HW2 8322   1.235   4.089   7.984
 2596SOL     OW 8323   0.626   4.467   8.043
 2596SOL    HW1 8324   0.629   4.542   0.023
 2596SOL    HW2 8325   0.534   4.460   8.018
 2597SOL     OW 8326   0.850   5.093   7.467
 2597SOL    HW1 8327   0.834   5.093   7.561
 2597SOL    HW2 8328   0.861   5.186   7.444
 2598SOL     OW 8329   1.073   4.703   7.539
 2598SOL    HW1 8330   1.053   4.759   7.464
 2598SOL    HW2 8331   1.150   4.653   7.512
 2599SOL     OW 8332   0.392   4.156   7.981
 2599SOL    HW1 8333   0.435   4.095   7.920
 2599SOL    HW2 8334   0.438   4.143   8.064
 2600SOL     OW 8335   0.807   5.049   7.731
 2600SOL    HW1 8336   0.754   4.972   7.752
 2600SOL    HW2 8337   0.821   5.091   7.816
 2601SOL     OW 8338   1.353   3.776   7.610
 2601SOL    HW1 8339   1.383   3.708   7.550
 2601SOL    HW2 8340   1.266   3.747   7.638
 2602SOL     OW 8341   0.050   4.791   7.724
 2602SOL    HW1 8342   0.139   4.756   7.721
 2602SOL    HW2 8343   0.002   4.731   7.780
 2603SOL     OW 8344   2.077   0.624   0.121
 2603SOL    HW1 8345   1.998   0.588   0.162
 2603SOL    HW2 8346   2.104   0.556   0.058
 2604SOL     OW 8347   2.079   0.285   0.994
 2604SOL    HW1 8348   2.108   0.249   1.077
 2604SOL    HW2 8349   1.995   0.243   0.977
 2605SOL     OW 8350   1.865   0.387   0.637
 2605SOL    HW1 8351   1.781   0.409   0.678
 2605SOL    HW2 8352   1.847   0.309   0.585
 2606SOL     OW 8353   2.429   1.290   1.176
 2606SOL    HW1 8354   2.342   1.293   1.138
 2606SOL    HW2 8355   2.444   1.378   1.210
 2607SOL     OW 8356   3.425   1.512   0.708
 2607SOL    HW1 8357   3.382   1.491   0.791
 2607SOL    HW2 8358   3.353   1.515   0.644
 2608SOL     OW 8359   2.994   0.697   0.701
 2608SOL    HW1 8360   3.042   0.779   0.687
 2608SOL    HW2 8361   2.946   0.712   0.783
 2609SOL     OW 8362   3.634   0.599   0.231
 2609SOL    HW1 8363   3.589   0.605   0.147
 2609SOL    HW2 8364   3.592   0.525   0.275
 2610SOL     OW 8365   2.616   1.141   1.042
 2610SOL    HW1 8366   2.547   1.177   1.099
 2610SOL    HW2 8367   2.652   1.218   0.998
 2611SOL     OW 8368   2.730   0.775   1.823
 2611SOL    HW1 8369   2.718   0.846   1.885
 2611SOL    HW2 8370   2.754   0.819   1.741
 2612SOL     OW 8371   2.546   1.001   0.649
 2612SOL    HW1 8372   2.612   0.990   0.718
 2612SOL    HW2 8373   2.478   1.054   0.690
 2613SOL     OW 8374   2.573   1.150   1.813
 2613SOL    HW1 8375   2.621   1.229   1.841
 2613SOL    HW2 8376   2.491   1.184   1.777
 2614SOL     OW 8377   2.192   1.424   1.067
 2614SOL    HW1 8378   2.120   1.386   1.018
 2614SOL    HW2 8379   2.241   1.474   1.002
 2615SOL     OW 8380   3.322   1.500   1.356
 2615SOL    HW1 8381   3.374   1.580   1.365
 2615SOL    HW2 8382   3.259   1.504   1.427
 2616SOL     OW 8383   2.307   0.398   1.484
 2616SOL    HW1 8384   2.381   0.338   1.483
 2616SOL    HW2 8385   2.231   0.341   1.500
 2617SOL     OW 8386   3.472   0.451   0.739
 2617SOL    HW1 8387   3.393   0.471   0.688
 2617SOL    HW2 8388   3.488   0.530   0.790
 2618SOL     OW 8389   2.082   1.715   0.471
 2618SOL    HW1 8390   2.103   1.791   0.525
 2618SOL    HW2 8391   2.157   1.706   0.412
 2619SOL     OW 8392   2.999   1.342   1.693
 2619SOL    HW1 8393   3.039   1.337   1.779
 2619SOL    HW2 8394   2.946   1.262   1.686
 2620SOL     OW 8395   2.089   1.441   0.529
 2620SOL    HW1 8396   2.074   1.535   0.533
 2620SOL    HW2 8397   2.031   1.405   0.596
 2621SOL     OW 8398   2.121   1.090   0.891
 2621SOL    HW1 8399   2.118   1.003   0.932
 2621SOL    HW2 8400   2.063   1.144   0.945
 2622SOL     OW 8401   2.470   1.791   1.426
 2622SOL    HW1 8402   2.390   1.773   1.475
 2622SOL    HW2 8403   2.495   1.880   1.453
 2623SOL     OW 8404   2.488   0.960   0.136
 2623SOL    HW1 8405   2.437   1.036   0.110
 2623SOL    HW2 8406   2.541   0.990   0.209
 2624SOL     OW 8407   3.448   0.136   1.455
 2624SOL    HW1 8408   3.473   0.221   1.417
 2624SOL    HW2 8409   3.444   0.153   1.549
 2625SOL     OW 8410   1.977   0.652   0.562
 2625SOL    HW1 8411   1.948   0.563   0.583
 2625SOL    HW2 8412   1.969   0.700   0.645
 2626SOL     OW 8413   3.708   1.757   0.330
 2626SOL    HW1 8414   3.774   1.727   0.393
 2626SOL    HW2 8415   3.732   1.848   0.312
 2627SOL     OW 8416   1.894   1.595   0.110
 2627SOL    HW1 8417   1.879   1.507   0.145
 2627SOL    HW2 8418   1.876   1.653   0.184
 2628SOL     OW 8419   3.551   0.919   0.645
 2628SOL    HW1 8420   3.632   0.875   0.622
 2628SOL    HW2 8421   3.528   0.970   0.568
 2629SOL     OW 8422   3.508   1.104   0.435
 2629SOL    HW1 8423   3.589   1.117   0.385
 2629SOL    HW2 8424   3.514   1.167   0.507
 2630SOL     OW 8425   1.985   0.744   1.584
 2630SOL    HW1 8426   2.077   0.771   1.591
 2630SOL    HW2 8427   1.936   0.826   1.592
 2631SOL     OW 8428   2.476   1.387   0.735
 2631SOL    HW1 8429   2.430   1.304   0.744
 2631SOL    HW2 8430   2.460   1.413   0.644
 2632SOL     OW 8431   3.150   1.238   1.423
 2632SOL    HW1 8432   3.182   1.170   1.363
 2632SOL    HW2 8433   3.208   1.232   1.499
 2633SOL     OW 8434   2.674   0.030   0.531
 2633SOL    HW1 8435   2.704   0.115   0.500
 2633SOL    HW2 8436   2.579   0.033   0.524
 2634SOL     OW 8437   2.052   0.966   1.272
 2634SOL    HW1 8438   2.137   0.924   1.257
 2634SOL    HW2 8439   1.990   0.911   1.223
 2635SOL     OW 8440   3.371   1.008   0.213
 2635SOL    HW1 8441   3.308   0.943   0.247
 2635SOL    HW2 8442   3.423   1.032   0.289
 2636SOL     OW 8443   3.047   1.808   1.623
 2636SOL    HW1 8444   3.056   1.867   1.548
 2636SOL    HW2 8445   3.064   1.721   1.587
 2637SOL     OW 8446   2.191   0.267   1.813
 2637SOL    HW1 8447   2.242   0.342   1.843
 2637SOL    HW2 8448   2.104   0.280   1.851
 2638SOL     OW 8449   3.328   1.419   0.950
 2638SOL    HW1 8450   3.261   1.435   1.016
 2638SOL    HW2 8451   3.316   1.328   0.924
 2639SOL     OW 8452   3.520   1.743   0.582
 2639SOL    HW1 8453   3.500   1.714   0.493
 2639SOL    HW2 8454   3.496   1.669   0.637
 2640SOL     OW 8455   2.460   0.713   0.283
 2640SOL    HW1 8456   2.477   0.792   0.231
 2640SOL    HW2 8457   2.395   0.741   0.348
 2641SOL     OW 8458   3.139   0.348   0.932
 2641SOL    HW1 8459   3.048   0.319   0.944
 2641SOL    HW2 8460   3.189   0.298   0.996
 2642SOL     OW 8461   3.449   1.672   0.320
 2642SOL    HW1 8462   3.540   1.700   0.312
 2642SOL    HW2 8463   3.421   1.655   0.230
 2643SOL     OW 8464   2.656   0.618   1.449
 2643SOL    HW1 8465   2.629   0.597   1.538
 2643SOL    HW2 8466   2.615   0.552   1.395
 2644SOL     OW 8467   3.257   0.475   1.678
 2644SOL    HW1 8468   3.259   0.520   1.763
 2644SOL    HW2 8469   3.320   0.404   1.687
 2645SOL     OW 8470   2.816   0.887   1.583
 2645SOL    HW1 8471   2.870   0.817   1.547
 2645SOL    HW2 8472   2.768   0.921   1.508
 2646SOL     OW 8473   2.856   0.417   1.234
 2646SOL    HW1 8474   2.770   0.437   1.271
 2646SOL    HW2 8475   2.837   0.369   1.154
 2647SOL     OW 8476   2.915   0.698   0.428
 2647SOL    HW1 8477   2.931   0.691   0.522
 2647SOL    HW2 8478   2.832   0.653   0.413
 2648SOL     OW 8479   1.951   0.822   0.777
 2648SOL    HW1 8480   2.031   0.814   0.828
 2648SOL    HW2 8481   1.907   0.899   0.812
 2649SOL     OW 8482   1.988   1.854   1.579
 2649SOL    HW1 8483   1.990   1.832   1.672
 2649SOL    HW2 8484   1.898   1.837   1.552
 2650SOL     OW 8485   2.749   0.359   0.203
 2650SOL    HW1 8486   2.793   0.407   0.133
 2650SOL    HW2 8487   2.731   0.273   0.166
 2651SOL     OW 8488   3.569   0.573   1.828
 2651SOL    HW1 8489   3.532   0.647   1.779
 2651SOL    HW2 8490   3.599   0.513   1.761
 2652SOL     OW 8491   3.239   1.142   0.541
 2652SOL    HW1 8492   3.317   1.129   0.488
 2652SOL    HW2 8493   3.186   1.204   0.492
 2653SOL     OW 8494   2.385   0.202   0.882
 2653SOL    HW1 8495   2.408   0.218   0.974
 2653SOL    HW2 8496   2.409   0.283   0.837
 2654SOL     OW 8497   2.866   1.445   0.472
 2654SOL    HW1 8498   2.828   1.517   0.423
 2654SOL    HW2 8499   2.846   1.465   0.564
 2655SOL     OW 8500   2.217   1.809   0.863
 2655SOL    HW1 8501   2.259   1.724   0.870
 2655SOL    HW2 8502   2.286   1.873   0.881
 2656SOL     OW 8503   3.662   1.056   0.869
 2656SOL    HW1 8504   3.608   1.036   0.792
 2656SOL    HW2 8505   3.599   1.062   0.941
 2657SOL     OW 8506   3.090   1.539   1.513
 2657SOL    HW1 8507   3.076   1.466   1.574
 2657SOL    HW2 8508   3.026   1.524   1.443
 2658SOL     OW 8509   2.187   0.943   0.256
 2658SOL    HW1 8510   2.256   0.983   0.204
 2658SOL    HW2 8511   2.187   0.851   0.231
 2659SOL     OW 8512   3.341   0.745   0.726
 2659SOL    HW1 8513   3.333   0.702   0.811
 2659SOL    HW2 8514   3.419   0.800   0.734
 2660SOL     OW 8515   2.329   1.265   1.738
 2660SOL    HW1 8516   2.302   1.270   1.646
 2660SOL    HW2 8517   2.247   1.263   1.787
 2661SOL     OW 8518   2.968   1.781   0.223
 2661SOL    HW1 8519   2.912   1.740   0.289
 2661SOL    HW2 8520   2.990   1.710   0.163
 2662SOL     OW 8521   2.059   0.278   1.504
 2662SOL    HW1 8522   1.980   0.331   1.501
 2662SOL    HW2 8523   2.052   0.228   1.585
 2663SOL     OW 8524   3.496   1.373   0.083
 2663SOL    HW1 8525   3.455   1.459   0.083
 2663SOL    HW2 8526   3.425   1.312   0.064
 2664SOL     OW 8527   2.326   1.737   0.323
 2664SOL    HW1 8528   2.370   1.795   0.385
 2664SOL    HW2 8529   2.396   1.709   0.264
 2665SOL     OW 8530   3.279   0.100   0.447
 2665SOL    HW1 8531   3.271   0.079   0.353
 2665SOL    HW2 8532   3.370   0.127   0.458
 2666SOL     OW 8533   2.119   1.792   1.231
 2666SOL    HW1 8534   2.169   1.725   1.278
 2666SOL    HW2 8535   2.109   1.756   1.142
 2667SOL     OW 8536   2.799   1.698   0.898
 2667SOL    HW1 8537   2.878   1.648   0.920
 2667SOL    HW2 8538   2.756   1.649   0.829
 2668SOL     OW 8539   2.248   0.698   0.476
 2668SOL    HW1 8540   2.272   0.606   0.487
 2668SOL    HW2 8541   2.155   0.702   0.499
 2669SOL     OW 8542   3.400   0.228   1.723
 2669SOL    HW1 8543   3.408   0.245   1.817
 2669SOL    HW2 8544   3.324   0.170   1.715
 2670SOL     OW 8545   2.487   0.137   0.124
 2670SOL    HW1 8546   2.579   0.110   0.133
 2670SOL    HW2 8547   2.459   0.099   0.041
 2671SOL     OW 8548   2.641   0.312   1.768
 2671SOL    HW1 8549   2.700   0.237   1.768
 2671SOL    HW2 8550   2.594   0.306   1.851
 2672SOL     OW 8551   2.738   1.522   1.194
 2672SOL    HW1 8552   2.722   1.485   1.107
 2672SOL    HW2 8553   2.808   1.468   1.230
 2673SOL     OW 8554   3.203   0.589   1.432
 2673SOL    HW1 8555   3.233   0.558   1.518
 2673SOL    HW2 8556   3.239   0.677   1.425
 2674SOL     OW 8557   2.678   1.394   0.941
 2674SOL    HW1 8558   2.762   1.382   0.897
 2674SOL    HW2 8559   2.614   1.396   0.869
 2675SOL     OW 8560   2.789   0.510   0.902
 2675SOL    HW1 8561   2.765   0.502   0.810
 2675SOL    HW2 8562   2.820   0.423   0.927
 2676SOL     OW 8563   2.405   0.061   0.511
 2676SOL    HW1 8564   2.318   0.058   0.551
 2676SOL    HW2 8565   2.398   0.130   0.445
 2677SOL     OW 8566   3.295   1.199   0.036
 2677SOL    HW1 8567   3.319   1.126   0.092
 2677SOL    HW2 8568   3.207   1.224   0.064
 2678SOL     OW 8569   2.162   0.071   0.206
 2678SOL    HW1 8570   2.220   0.142   0.177
 2678SOL    HW2 8571   2.215   5.292   0.195
 2679SOL     OW 8572   2.807   0.259   0.454
 2679SOL    HW1 8573   2.781   0.304   0.374
 2679SOL    HW2 8574   2.899   0.281   0.465
 2680SOL     OW 8575   2.943   0.682   1.459
 2680SOL    HW1 8576   2.875   0.615   1.464
 2680SOL    HW2 8577   3.024   0.633   1.453
 2681SOL     OW 8578   3.084   1.571   0.795
 2681SOL    HW1 8579   3.100   1.636   0.727
 2681SOL    HW2 8580   3.153   1.585   0.859
 2682SOL     OW 8581   2.331   1.152   0.733
 2682SOL    HW1 8582   2.262   1.131   0.797
 2682SOL    HW2 8583   2.289   1.136   0.648
 2683SOL     OW 8584   3.130   1.794   0.608
 2683SOL    HW1 8585   3.180   1.857   0.556
 2683SOL    HW2 8586   3.063   1.846   0.652
 2684SOL     OW 8587   2.891   0.526   0.033
 2684SOL    HW1 8588   2.852   0.609   0.003
 2684SOL    HW2 8589   2.955   0.553   0.099
 2685SOL     OW 8590   1.942   0.553   1.393
 2685SOL    HW1 8591   2.033   0.553   1.365
 2685SOL    HW2 8592   1.936   0.624   1.458
 2686SOL     OW 8593   2.416   0.238   1.159
 2686SOL    HW1 8594   2.449   0.153   1.187
 2686SOL    HW2 8595   2.324   0.239   1.185
 2687SOL     OW 8596   2.729   0.460   0.639
 2687SOL    HW1 8597   2.687   0.515   0.573
 2687SOL    HW2 8598   2.751   0.379   0.594
 2688SOL     OW 8599   2.838   0.062   0.764
 2688SOL    HW1 8600   2.775   0.057   0.692
 2688SOL    HW2 8601   2.850   5.271   0.791
 2689SOL     OW 8602   3.299   1.162   0.857
 2689SOL    HW1 8603   3.230   1.097   0.856
 2689SOL    HW2 8604   3.324   1.172   0.765
 2690SOL     OW 8605   3.328   0.607   0.976
 2690SOL    HW1 8606   3.277   0.526   0.979
 2690SOL    HW2 8607   3.388   0.601   1.050
 2691SOL     OW 8608   3.710   0.814   0.387
 2691SOL    HW1 8609   3.762   0.762   0.448
 2691SOL    HW2 8610   3.680   0.751   0.322
 2692SOL     OW 8611   2.344   1.440   0.173
 2692SOL    HW1 8612   2.272   1.399   0.220
 2692SOL    HW2 8613   2.352   1.389   0.092
 2693SOL     OW 8614   3.534   1.265   0.647
 2693SOL    HW1 8615   3.629   1.268   0.660
 2693SOL    HW2 8616   3.504   1.354   0.667
 2694SOL     OW 8617   3.261   0.577   0.088
 2694SOL    HW1 8618   3.198   0.559   0.158
 2694SOL    HW2 8619   3.314   0.497   0.083
 2695SOL     OW 8620   2.384   0.269   0.328
 2695SOL    HW1 8621   2.426   0.213   0.262
 2695SOL    HW2 8622   2.367   0.351   0.283
 2696SOL     OW 8623   3.614   1.240   1.571
 2696SOL    HW1 8624   3.701   1.201   1.567
 2696SOL    HW2 8625   3.629   1.330   1.600
 2697SOL     OW 8626   2.920   1.354   1.334
 2697SOL    HW1 8627   2.845   1.323   1.384
 2697SOL    HW2 8628   2.996   1.312   1.374
 2698SOL     OW 8629   3.470   1.626   1.655
 2698SOL    HW1 8630   3.464   1.660   1.566
 2698SOL    HW2 8631   3.553   1.578   1.656
 2699SOL     OW 8632   2.992   1.205   1.105
 2699SOL    HW1 8633   2.932   1.242   1.169
 2699SOL    HW2 8634   2.960   1.237   1.021
 2700SOL     OW 8635   3.489   1.098   1.077
 2700SOL    HW1 8636   3.484   1.160   1.150
 2700SOL    HW2 8637   3.411   1.115   1.025
 2701SOL     OW 8638   2.765   0.107   1.388
 2701SOL    HW1 8639   2.796   0.073   1.304
 2701SOL    HW2 8640   2.843   0.149   1.425
 2702SOL     OW 8641   2.846   1.115   1.723
 2702SOL    HW1 8642   2.754   1.131   1.744
 2702SOL    HW2 8643   2.844   1.037   1.667
 2703SOL     OW 8644   2.578   1.064   0.381
 2703SOL    HW1 8645   2.560   1.045   0.473
 2703SOL    HW2 8646   2.655   1.012   0.360
 2704SOL     OW 8647   2.281   0.816   1.252
 2704SOL    HW1 8648   2.349   0.825   1.318
 2704SOL    HW2 8649   2.246   0.728   1.265
 2705SOL     OW 8650   3.128   0.378   1.274
 2705SOL    HW1 8651   3.161   0.455   1.320
 2705SOL    HW2 8652   3.038   0.401   1.251
 2706SOL     OW 8653   1.933   1.574   1.354
 2706SOL    HW1 8654   1.905   1.646   1.299
 2706SOL    HW2 8655   2.029   1.575   1.348
 2707SOL     OW 8656   2.205   1.111   0.491
 2707SOL    HW1 8657   2.211   1.183   0.428
 2707SOL    HW2 8658   2.213   1.032   0.438
 2708SOL     OW 8659   2.414   0.537   0.860
 2708SOL    HW1 8660   2.429   0.595   0.786
 2708SOL    HW2 8661   2.481   0.563   0.925
 2709SOL     OW 8662   3.109   1.347   0.394
 2709SOL    HW1 8663   3.165   1.419   0.423
 2709SOL    HW2 8664   3.022   1.370   0.425
 2710SOL     OW 8665   3.145   1.458   1.147
 2710SOL    HW1 8666   3.200   1.461   1.225
 2710SOL    HW2 8667   3.089   1.381   1.160
 2711SOL     OW 8668   3.444   0.625   0.482
 2711SOL    HW1 8669   3.393   0.673   0.548
 2711SOL    HW2 8670   3.477   0.692   0.423
 2712SOL     OW 8671   2.208   1.529   1.314
 2712SOL    HW1 8672   2.196   1.485   1.229
 2712SOL    HW2 8673   2.302   1.540   1.322
 2713SOL     OW 8674   2.277   0.744   1.602
 2713SOL    HW1 8675   2.339   0.789   1.544
 2713SOL    HW2 8676   2.318   0.660   1.621
 2714SOL     OW 8677   3.465   0.779   1.682
 2714SOL    HW1 8678   3.379   0.820   1.676
 2714SOL    HW2 8679   3.517   0.821   1.614
 2715SOL     OW 8680   2.911   0.117   1.786
 2715SOL    HW1 8681   2.936   0.197   1.739
 2715SOL    HW2 8682   2.913   0.049   1.720
 2716SOL     OW 8683   2.345   0.058   1.738
 2716SOL    HW1 8684   2.285   5.293   1.700
 2716SOL    HW2 8685   2.289   0.132   1.759
 2717SOL     OW 8686   2.445   0.873   1.031
 2717SOL    HW1 8687   2.477   0.963   1.032
 2717SOL    HW2 8688   2.389   0.867   1.108
 2718SOL     OW 8689   3.218   0.859   1.028
 2718SOL    HW1 8690   3.135   0.849   0.982
 2718SOL    HW2 8691   3.260   0.773   1.022
 2719SOL     OW 8692   3.064   0.527   0.270
 2719SOL    HW1 8693   3.072   0.448   0.323
 2719SOL    HW2 8694   3.022   0.590   0.328
 2720SOL     OW 8695   2.157   0.203   1.248
 2720SOL    HW1 8696   2.118   0.242   1.326
 2720SOL    HW2 8697   2.158   0.109   1.267
 2721SOL     OW 8698   1.908   1.311   1.276
 2721SOL    HW1 8699   1.941   1.256   1.347
 2721SOL    HW2 8700   1.915   1.400   1.310
 2722SOL     OW 8701   2.587   0.632   1.059
 2722SOL    HW1 8702   2.661   0.615   1.000
 2722SOL    HW2 8703   2.558   0.720   1.036
 2723SOL     OW 8704   3.597   0.959   1.853
 2723SOL    HW1 8705   3.552   0.896   1.797
 2723SOL    HW2 8706   3.537   0.974   1.927
 2724SOL     OW 8707   2.166   0.070   0.654
 2724SOL    HW1 8708   2.146   0.164   0.659
 2724SOL    HW2 8709   2.214   0.052   0.735
 2725SOL     OW 8710   3.485   0.380   0.366
 2725SOL    HW1 8711   3.512   0.313   0.429
 2725SOL    HW2 8712   3.459   0.454   0.420
 2726SOL     OW 8713   2.890   0.759   0.960
 2726SOL    HW1 8714   2.885   0.776   1.054
 2726SOL    HW2 8715   2.863   0.668   0.951
 2727SOL     OW 8716   2.844   1.566   1.718
 2727SOL    HW1 8717   2.829   1.610   1.634
 2727SOL    HW2 8718   2.887   1.484   1.694
 2728SOL     OW 8719   3.716   1.505   1.605
 2728SOL    HW1 8720   3.735   1.531   1.515
 2728SOL    HW2 8721   3.797   1.522   1.653
 2729SOL     OW 8722   2.215   0.917   1.808
 2729SOL    HW1 8723   2.297   0.935   1.855
 2729SOL    HW2 8724   2.240   0.854   1.741
 2730SOL     OW 8725   3.381   0.306   0.126
 2730SOL    HW1 8726   3.347   0.217   0.139
 2730SOL    HW2 8727   3.421   0.328   0.210
 2731SOL     OW 8728   3.157   0.823   0.021
 2731SOL    HW1 8729   3.196   0.737   0.038
 2731SOL    HW2 8730   3.218   0.865   8.040
 2732SOL     OW 8731   2.928   1.336   0.855
 2732SOL    HW1 8732   2.931   1.264   0.792
 2732SOL    HW2 8733   2.989   1.401   0.820
 2733SOL     OW 8734   2.171   0.808   0.947
 2733SOL    HW1 8735   2.264   0.830   0.940
 2733SOL    HW2 8736   2.169   0.718   0.978
 2734SOL     OW 8737   2.193   0.527   1.013
 2734SOL    HW1 8738   2.157   0.440   0.998
 2734SOL    HW2 8739   2.270   0.531   0.956
 2735SOL     OW 8740   2.997   0.377   1.689
 2735SOL    HW1 8741   2.949   0.432   1.752
 2735SOL    HW2 8742   3.084   0.417   1.685
 2736SOL     OW 8743   2.994   0.222   1.466
 2736SOL    HW1 8744   2.998   0.281   1.541
 2736SOL    HW2 8745   3.050   0.263   1.400
 2737SOL     OW 8746   1.874   1.323   0.189
 2737SOL    HW1 8747   1.788   1.337   0.151
 2737SOL    HW2 8748   1.872   1.233   0.222
 2738SOL     OW 8749   1.952   1.786   0.938
 2738SOL    HW1 8750   1.922   1.707   0.894
 2738SOL    HW2 8751   2.042   1.798   0.907
 2739SOL     OW 8752   2.357   1.574   0.905
 2739SOL    HW1 8753   2.426   1.635   0.930
 2739SOL    HW2 8754   2.401   1.511   0.848
 2740SOL     OW 8755   2.843   0.792   1.226
 2740SOL    HW1 8756   2.900   0.769   1.300
 2740SOL    HW2 8757   2.758   0.753   1.249
 2741SOL     OW 8758   1.897   0.545   1.117
 2741SOL    HW1 8759   1.977   0.530   1.066
 2741SOL    HW2 8760   1.928   0.548   1.208
 2742SOL     OW 8761   2.048   0.523   1.728
 2742SOL    HW1 8762   2.112   0.487   1.666
 2742SOL    HW2 8763   2.010   0.598   1.682
 2743SOL     OW 8764   3.240   0.938   1.658
 2743SOL    HW1 8765   3.261   1.031   1.656
 2743SOL    HW2 8766   3.237   0.911   1.566
 2744SOL     OW 8767   2.681   0.571   0.370
 2744SOL    HW1 8768   2.690   0.499   0.306
 2744SOL    HW2 8769   2.604   0.620   0.340
 2745SOL     OW 8770   3.504   0.601   1.185
 2745SOL    HW1 8771   3.493   0.542   1.259
 2745SOL    HW2 8772   3.591   0.582   1.151
 2746SOL     OW 8773   2.103   1.551   1.726
 2746SOL    HW1 8774   2.082   1.615   1.794
 2746SOL    HW2 8775   2.108   1.467   1.773
 2747SOL     OW 8776   2.564   0.451   1.259
 2747SOL    HW1 8777   2.511   0.378   1.227
 2747SOL    HW2 8778   2.562   0.515   1.188
 2748SOL     OW 8779   2.788   1.679   1.468
 2748SOL    HW1 8780   2.763   1.644   1.383
 2748SOL    HW2 8781   2.783   1.774   1.457
 2749SOL     OW 8782   2.329   0.493   0.176
 2749SOL    HW1 8783   2.398   0.556   0.195
 2749SOL    HW2 8784   2.247   0.539   0.194
 2750SOL     OW 8785   2.007   1.141   1.472
 2750SOL    HW1 8786   2.009   1.090   1.554
 2750SOL    HW2 8787   2.024   1.077   1.404
 2751SOL     OW 8788   3.187   1.046   1.222
 2751SOL    HW1 8789   3.210   0.983   1.155
 2751SOL    HW2 8790   3.117   1.099   1.183
 2752SOL     OW 8791   3.168   0.848   0.308
 2752SOL    HW1 8792   3.091   0.818   0.357
 2752SOL    HW2 8793   3.144   0.837   0.216
 2753SOL     OW 8794   3.635   1.743   1.151
 2753SOL    HW1 8795   3.695   1.769   1.082
 2753SOL    HW2 8796   3.610   1.653   1.129
 2754SOL     OW 8797   3.103   1.733   1.111
 2754SOL    HW1 8798   3.185   1.754   1.067
 2754SOL    HW2 8799   3.110   1.639   1.130
 2755SOL     OW 8800   1.946   1.268   1.011
 2755SOL    HW1 8801   1.931   1.280   1.105
 2755SOL    HW2 8802   1.874   1.212   0.983
 2756SOL     OW 8803   2.538   1.666   1.730
 2756SOL    HW1 8804   2.486   1.746   1.728
 2756SOL    HW2 8805   2.606   1.681   1.663
 2757SOL     OW 8806   2.755   0.086   0.138
 2757SOL    HW1 8807   2.804   0.076   0.057
 2757SOL    HW2 8808   2.772   0.004   0.186
 2758SOL     OW 8809   3.574   0.150   0.503
 2758SOL    HW1 8810   3.648   0.129   0.446
 2758SOL    HW2 8811   3.567   0.075   0.563
 2759SOL     OW 8812   3.252   1.568   0.487
 2759SOL    HW1 8813   3.315   1.601   0.423
 2759SOL    HW2 8814   3.204   1.646   0.516
 2760SOL     OW 8815   1.999   1.797   1.843
 2760SOL    HW1 8816   1.949   1.731   1.891
 2760SOL    HW2 8817   2.047   1.844   1.911
 2761SOL     OW 8818   3.139   0.926   0.672
 2761SOL    HW1 8819   3.213   0.865   0.679
 2761SOL    HW2 8820   3.173   0.998   0.619
 2762SOL     OW 8821   2.675   1.274   1.429
 2762SOL    HW1 8822   2.647   1.313   1.511
 2762SOL    HW2 8823   2.605   1.295   1.367
 2763SOL     OW 8824   2.537   1.622   0.156
 2763SOL    HW1 8825   2.544   1.629   0.061
 2763SOL    HW2 8826   2.477   1.549   0.171
 2764SOL     OW 8827   3.486   1.727   1.391
 2764SOL    HW1 8828   3.537   1.733   1.310
 2764SOL    HW2 8829   3.472   1.817   1.418
 2765SOL     OW 8830   3.708   0.155   0.956
 2765SOL    HW1 8831   3.705   0.060   0.949
 2765SOL    HW2 8832   3.621   0.184   0.927
 2766SOL     OW 8833   2.123   0.329   0.719
 2766SOL    HW1 8834   2.035   0.360   0.698
 2766SOL    HW2 8835   2.122   0.317   0.814
 2767SOL     OW 8836   3.020   1.581   0.052
 2767SOL    HW1 8837   3.033   1.488   0.073
 2767SOL    HW2 8838   3.031   1.586   8.037
 2768SOL     OW 8839   2.686   1.006   1.373
 2768SOL    HW1 8840   2.730   1.001   1.288
 2768SOL    HW2 8841   2.685   1.099   1.394
 2769SOL     OW 8842   2.782   0.915   0.299
 2769SOL    HW1 8843   2.835   0.938   0.223
 2769SOL    HW2 8844   2.829   0.842   0.340
 2770SOL     OW 8845   3.371   1.623   0.061
 2770SOL    HW1 8846   3.277   1.623   0.049
 2770SOL    HW2 8847   3.407   1.626   8.052
 2771SOL     OW 8848   2.230   1.303   1.492
 2771SOL    HW1 8849   2.217   1.380   1.436
 2771SOL    HW2 8850   2.154   1.248   1.476
 2772SOL     OW 8851   3.472   1.283   1.280
 2772SOL    HW1 8852   3.532   1.271   1.354
 2772SOL    HW2 8853   3.412   1.351   1.309
 2773SOL     OW 8854   2.915   1.108   0.708
 2773SOL    HW1 8855   2.844   1.056   0.746
 2773SOL    HW2 8856   2.978   1.043   0.676
 2774SOL     OW 8857   2.880   0.243   0.969
 2774SOL    HW1 8858   2.860   0.198   0.887
 2774SOL    HW2 8859   2.874   0.176   1.036
 2775SOL     OW 8860   2.466   1.487   0.479
 2775SOL    HW1 8861   2.511   1.436   0.411
 2775SOL    HW2 8862   2.395   1.531   0.433
 2776SOL     OW 8863   3.587   0.386   1.378
 2776SOL    HW1 8864   3.658   0.451   1.377
 2776SOL    HW2 8865   3.619   0.317   1.320
 2777SOL     OW 8866   2.129   1.319   0.293
 2777SOL    HW1 8867   2.043   1.329   0.253
 2777SOL    HW2 8868   2.122   1.364   0.377
 2778SOL     OW 8869   1.975   1.024   1.720
 2778SOL    HW1 8870   1.899   1.000   1.773
 2778SOL    HW2 8871   2.049   0.985   1.766
 2779SOL     OW 8872   2.535   0.213   1.489
 2779SOL    HW1 8873   2.618   0.196   1.445
 2779SOL    HW2 8874   2.559   0.263   1.567
 2780SOL     OW 8875   1.931   0.362   0.033
 2780SOL    HW1 8876   1.859   0.299   0.025
 2780SOL    HW2 8877   1.944   0.395   8.025
 2781SOL     OW 8878   3.291   0.858   1.400
 2781SOL    HW1 8879   3.242   0.919   1.344
 2781SOL    HW2 8880   3.380   0.860   1.365
 2782SOL     OW 8881   1.929   0.165   0.313
 2782SOL    HW1 8882   1.937   0.253   0.277
 2782SOL    HW2 8883   2.014   0.124   0.296
 2783SOL     OW 8884   3.046   1.317   0.121
 2783SOL    HW1 8885   2.951   1.306   0.119
 2783SOL    HW2 8886   3.068   1.318   0.214
 2784SOL     OW 8887   2.481   0.830   1.434
 2784SOL    HW1 8888   2.537   0.907   1.419
 2784SOL    HW2 8889   2.542   0.757   1.442
 2785SOL     OW 8890   3.345   1.778   0.979
 2785SOL    HW1 8891   3.369   1.839   0.909
 2785SOL    HW2 8892   3.428   1.757   1.023
 2786SOL     OW 8893   2.577   0.573   1.702
 2786SOL    HW1 8894   2.619   0.635   1.761
 2786SOL    HW2 8895   2.606   0.487   1.733
 2787SOL     OW 8896   3.334   1.199   1.631
 2787SOL    HW1 8897   3.322   1.213   1.725
 2787SOL    HW2 8898   3.427   1.215   1.617
 2788SOL     OW 8899   2.238   1.738   1.562
 2788SOL    HW1 8900   2.154   1.781   1.550
 2788SOL    HW2 8901   2.218   1.656   1.605
 2789SOL     OW 8902   3.530   0.881   1.255
 2789SOL    HW1 8903   3.525   0.796   1.212
 2789SOL    HW2 8904   3.521   0.944   1.184
 2790SOL     OW 8905   3.077   0.327   0.473
 2790SOL    HW1 8906   3.135   0.253   0.458
 2790SOL    HW2 8907   3.116   0.374   0.547
 2791SOL     OW 8908   2.449   0.737   0.671
 2791SOL    HW1 8909   2.490   0.822   0.656
 2791SOL    HW2 8910   2.381   0.730   0.603
 2792SOL     OW 8911   3.627   0.362   1.649
 2792SOL    HW1 8912   3.609   0.377   1.556
 2792SOL    HW2 8913   3.556   0.306   1.680
 2793SOL     OW 8914   3.608   0.934   1.512
 2793SOL    HW1 8915   3.603   1.028   1.525
 2793SOL    HW2 8916   3.592   0.921   1.418
 2794SOL     OW 8917   2.760   1.372   0.040
 2794SOL    HW1 8918   2.695   1.362   0.110
 2794SOL    HW2 8919   2.739   1.457   0.000
 2795SOL     OW 8920   2.524   1.789   0.944
 2795SOL    HW1 8921   2.505   1.879   0.919
 2795SOL    HW2 8922   2.619   1.781   0.937
 2796SOL     OW 8923   2.729   0.967   0.855
 2796SOL    HW1 8924   2.780   0.896   0.894
 2796SOL    HW2 8925   2.695   1.015   0.930
 2797SOL     OW 8926   2.939   0.976   0.086
 2797SOL    HW1 8927   2.927   1.038   0.014
 2797SOL    HW2 8928   3.016   0.925   0.061
 2798SOL     OW 8929   3.715   1.554   0.844
 2798SOL    HW1 8930   3.636   1.542   0.791
 2798SOL    HW2 8931   3.707   1.488   0.913
 2799SOL     OW 8932   2.087   1.303   1.855
 2799SOL    HW1 8933   2.020   1.240   1.826
 2799SOL    HW2 8934   2.069   1.315   1.949
 2800SOL     OW 8935   1.948   1.232   0.665
 2800SOL    HW1 8936   1.952   1.184   0.748
 2800SOL    HW2 8937   2.019   1.195   0.613
 2801SOL     OW 8938   2.543   1.404   1.627
 2801SOL    HW1 8939   2.464   1.361   1.660
 2801SOL    HW2 8940   2.539   1.492   1.665
 2802SOL     OW 8941   3.674   0.176   1.232
 2802SOL    HW1 8942   3.639   0.087   1.235
 2802SOL    HW2 8943   3.695   0.190   1.139
 2803SOL     OW 8944   2.287   0.439   0.523
 2803SOL    HW1 8945   2.324   0.367   0.472
 2803SOL    HW2 8946   2.243   0.396   0.596
 2804SOL     OW 8947   3.562   1.489   1.095
 2804SOL    HW1 8948   3.481   1.466   1.049
 2804SOL    HW2 8949   3.572   1.419   1.160
 2805SOL     OW 8950   2.191   0.557   1.291
 2805SOL    HW1 8951   2.247   0.502   1.346
 2805SOL    HW2 8952   2.211   0.529   1.201
 2806SOL     OW 8953   2.689   1.578   0.677
 2806SOL    HW1 8954   2.676   1.632   0.599
 2806SOL    HW2 8955   2.614   1.520   0.680
 2807SOL     OW 8956   3.290   0.219   1.116
 2807SOL    HW1 8957   3.326   0.144   1.164
 2807SOL    HW2 8958   3.241   0.268   1.183
 2808SOL     OW 8959   2.865   0.021   1.139
 2808SOL    HW1 8960   2.814   5.252   1.095
 2808SOL    HW2 8961   2.951   5.282   1.153
 2809SOL     OW 8962   2.632   1.328   0.310
 2809SOL    HW1 8963   2.602   1.238   0.324
 2809SOL    HW2 8964   2.715   1.333   0.358
 2810SOL     OW 8965   2.481   1.556   1.284
 2810SOL    HW1 8966   2.483   1.638   1.334
 2810SOL    HW2 8967   2.569   1.548   1.248
 2811SOL     OW 8968   3.257   0.047   0.168
 2811SOL    HW1 8969   3.246   0.027   0.075
 2811SOL    HW2 8970   3.171   0.076   0.197
 2812SOL     OW 8971   3.170   0.468   0.689
 2812SOL    HW1 8972   3.113   0.544   0.692
 2812SOL    HW2 8973   3.159   0.426   0.774
 2813SOL     OW 8974   3.456   0.215   0.883
 2813SOL    HW1 8975   3.391   0.227   0.951
 2813SOL    HW2 8976   3.449   0.294   0.829
 2814SOL     OW 8977   1.906   1.066   0.305
 2814SOL    HW1 8978   2.001   1.065   0.308
 2814SOL    HW2 8979   1.879   0.983   0.344
 2815SOL     OW 8980   2.745   1.655   0.348
 2815SOL    HW1 8981   2.676   1.638   0.283
 2815SOL    HW2 8982   2.713   1.731   0.397
 2816SOL     OW 8983   2.089   0.625   1.986
 2816SOL    HW1 8984   2.001   0.621   2.022
 2816SOL    HW2 8985   2.079   0.599   1.894
 2817SOL     OW 8986   2.080   0.285   2.855
 2817SOL    HW1 8987   2.108   0.249   2.939
 2817SOL    HW2 8988   1.995   0.243   2.838
 2818SOL     OW 8989   1.865   0.387   2.500
 2818SOL    HW1 8990   1.781   0.408   2.540
 2818SOL    HW2 8991   1.847   0.310   2.446
 2819SOL     OW 8992   2.430   1.289   3.039
 2819SOL    HW1 8993   2.342   1.292   3.000
 2819SOL    HW2 8994   2.444   1.378   3.072
 2820SOL     OW 8995   3.425   1.512   2.569
 2820SOL    HW1 8996   3.382   1.491   2.652
 2820SOL    HW2 8997   3.354   1.516   2.505
 2821SOL     OW 8998   2.994   0.698   2.563
 2821SOL    HW1 8999   3.042   0.779   2.548
 2821SOL    HW2 9000   2.946   0.712   2.644
 2822SOL     OW 9001   3.629   0.605   2.090
 2822SOL    HW1 9002   3.609   0.598   1.997
 2822SOL    HW2 9003   3.594   0.525   2.129
 2823SOL     OW 9004   2.617   1.142   2.905
 2823SOL    HW1 9005   2.548   1.177   2.961
 2823SOL    HW2 9006   2.652   1.219   2.859
 2824SOL     OW 9007   2.730   0.775   3.685
 2824SOL    HW1 9008   2.717   0.847   3.747
 2824SOL    HW2 9009   2.754   0.818   3.603
 2825SOL     OW 9010   2.548   1.002   2.508
 2825SOL    HW1 9011   2.613   0.991   2.577
 2825SOL    HW2 9012   2.479   1.054   2.548
 2826SOL     OW 9013   2.573   1.150   3.676
 2826SOL    HW1 9014   2.620   1.228   3.702
 2826SOL    HW2 9015   2.490   1.182   3.639
 2827SOL     OW 9016   2.193   1.423   2.928
 2827SOL    HW1 9017   2.120   1.386   2.880
 2827SOL    HW2 9018   2.241   1.474   2.863
 2828SOL     OW 9019   3.323   1.499   3.217
 2828SOL    HW1 9020   3.375   1.580   3.226
 2828SOL    HW2 9021   3.261   1.503   3.289
 2829SOL     OW 9022   2.307   0.398   3.346
 2829SOL    HW1 9023   2.381   0.338   3.345
 2829SOL    HW2 9024   2.231   0.342   3.362
 2830SOL     OW 9025   3.471   0.451   2.601
 2830SOL    HW1 9026   3.396   0.473   2.546
 2830SOL    HW2 9027   3.488   0.530   2.651
 2831SOL     OW 9028   2.081   1.715   2.333
 2831SOL    HW1 9029   2.103   1.791   2.387
 2831SOL    HW2 9030   2.156   1.706   2.274
 2832SOL     OW 9031   2.997   1.342   3.556
 2832SOL    HW1 9032   3.040   1.335   3.642
 2832SOL    HW2 9033   2.945   1.262   3.549
 2833SOL     OW 9034   2.092   1.442   2.397
 2833SOL    HW1 9035   2.075   1.536   2.400
 2833SOL    HW2 9036   2.033   1.404   2.462
 2834SOL     OW 9037   2.121   1.090   2.754
 2834SOL    HW1 9038   2.117   1.003   2.794
 2834SOL    HW2 9039   2.063   1.144   2.807
 2835SOL     OW 9040   2.481   1.785   3.302
 2835SOL    HW1 9041   2.392   1.768   3.335
 2835SOL    HW2 9042   2.485   1.880   3.290
 2836SOL     OW 9043   2.446   0.983   1.997
 2836SOL    HW1 9044   2.493   1.030   1.928
 2836SOL    HW2 9045   2.485   1.013   2.079
 2837SOL     OW 9046   3.448   0.136   3.317
 2837SOL    HW1 9047   3.473   0.221   3.279
 2837SOL    HW2 9048   3.444   0.153   3.411
 2838SOL     OW 9049   1.977   0.654   2.422
 2838SOL    HW1 9050   1.949   0.565   2.443
 2838SOL    HW2 9051   1.969   0.702   2.504
 2839SOL     OW 9052   3.704   1.758   2.197
 2839SOL    HW1 9053   3.771   1.730   2.260
 2839SOL    HW2 9054   3.727   1.849   2.177
 2840SOL     OW 9055   1.895   1.594   1.985
 2840SOL    HW1 9056   1.878   1.502   2.005
 2840SOL    HW2 9057   1.871   1.641   2.065
 2841SOL     OW 9058   3.552   0.919   2.504
 2841SOL    HW1 9059   3.634   0.875   2.482
 2841SOL    HW2 9060   3.529   0.969   2.426
 2842SOL     OW 9061   3.508   1.106   2.291
 2842SOL    HW1 9062   3.594   1.110   2.249
 2842SOL    HW2 9063   3.514   1.168   2.364
 2843SOL     OW 9064   1.985   0.744   3.446
 2843SOL    HW1 9065   2.076   0.771   3.453
 2843SOL    HW2 9066   1.935   0.826   3.454
 2844SOL     OW 9067   2.475   1.387   2.598
 2844SOL    HW1 9068   2.430   1.303   2.607
 2844SOL    HW2 9069   2.459   1.413   2.507
 2845SOL     OW 9070   3.150   1.236   3.286
 2845SOL    HW1 9071   3.182   1.170   3.225
 2845SOL    HW2 9072   3.209   1.231   3.361
 2846SOL     OW 9073   2.674   0.029   2.392
 2846SOL    HW1 9074   2.702   0.117   2.365
 2846SOL    HW2 9075   2.578   0.032   2.385
 2847SOL     OW 9076   2.052   0.965   3.135
 2847SOL    HW1 9077   2.137   0.924   3.120
 2847SOL    HW2 9078   1.990   0.912   3.085
 2848SOL     OW 9079   3.393   0.994   2.061
 2848SOL    HW1 9080   3.323   0.937   2.093
 2848SOL    HW2 9081   3.435   1.029   2.140
 2849SOL     OW 9082   3.097   1.782   3.486
 2849SOL    HW1 9083   3.062   1.842   3.420
 2849SOL    HW2 9084   3.095   1.696   3.445
 2850SOL     OW 9085   2.191   0.267   3.675
 2850SOL    HW1 9086   2.242   0.343   3.705
 2850SOL    HW2 9087   2.104   0.280   3.713
 2851SOL     OW 9088   3.329   1.420   2.812
 2851SOL    HW1 9089   3.261   1.435   2.878
 2851SOL    HW2 9090   3.316   1.329   2.786
 2852SOL     OW 9091   3.518   1.743   2.440
 2852SOL    HW1 9092   3.501   1.712   2.351
 2852SOL    HW2 9093   3.495   1.668   2.496
 2853SOL     OW 9094   2.456   0.720   2.129
 2853SOL    HW1 9095   2.461   0.802   2.079
 2853SOL    HW2 9096   2.391   0.737   2.197
 2854SOL     OW 9097   3.140   0.348   2.793
 2854SOL    HW1 9098   3.049   0.320   2.806
 2854SOL    HW2 9099   3.190   0.298   2.857
 2855SOL     OW 9100   3.442   1.671   2.171
 2855SOL    HW1 9101   3.533   1.701   2.164
 2855SOL    HW2 9102   3.415   1.654   2.081
 2856SOL     OW 9103   2.656   0.618   3.311
 2856SOL    HW1 9104   2.629   0.597   3.400
 2856SOL    HW2 9105   2.615   0.552   3.256
 2857SOL     OW 9106   3.257   0.475   3.540
 2857SOL    HW1 9107   3.259   0.520   3.625
 2857SOL    HW2 9108   3.320   0.404   3.549
 2858SOL     OW 9109   2.816   0.887   3.445
 2858SOL    HW1 9110   2.871   0.817   3.409
 2858SOL    HW2 9111   2.768   0.921   3.370
 2859SOL     OW 9112   2.856   0.417   3.096
 2859SOL    HW1 9113   2.770   0.437   3.133
 2859SOL    HW2 9114   2.837   0.369   3.016
 2860SOL     OW 9115   2.914   0.697   2.288
 2860SOL    HW1 9116   2.929   0.691   2.382
 2860SOL    HW2 9117   2.830   0.652   2.274
 2861SOL     OW 9118   1.950   0.821   2.639
 2861SOL    HW1 9119   2.031   0.814   2.690
 2861SOL    HW2 9120   1.907   0.899   2.674
 2862SOL     OW 9121   1.993   1.831   3.438
 2862SOL    HW1 9122   1.990   1.821   3.533
 2862SOL    HW2 9123   1.907   1.868   3.415
 2863SOL     OW 9124   2.738   0.366   2.052
 2863SOL    HW1 9125   2.777   0.425   1.987
 2863SOL    HW2 9126   2.794   0.288   2.049
 2864SOL     OW 9127   3.569   0.573   3.690
 2864SOL    HW1 9128   3.532   0.647   3.641
 2864SOL    HW2 9129   3.599   0.513   3.623
 2865SOL     OW 9130   3.240   1.142   2.403
 2865SOL    HW1 9131   3.318   1.129   2.350
 2865SOL    HW2 9132   3.187   1.204   2.353
 2866SOL     OW 9133   2.387   0.202   2.744
 2866SOL    HW1 9134   2.409   0.218   2.836
 2866SOL    HW2 9135   2.408   0.284   2.700
 2867SOL     OW 9136   2.867   1.444   2.333
 2867SOL    HW1 9137   2.831   1.517   2.283
 2867SOL    HW2 9138   2.846   1.465   2.424
 2868SOL     OW 9139   2.217   1.811   2.726
 2868SOL    HW1 9140   2.259   1.725   2.733
 2868SOL    HW2 9141   2.288   1.874   2.741
 2869SOL     OW 9142   3.662   1.056   2.731
 2869SOL    HW1 9143   3.608   1.037   2.654
 2869SOL    HW2 9144   3.599   1.062   2.803
 2870SOL     OW 9145   3.086   1.530   3.370
 2870SOL    HW1 9146   3.074   1.460   3.433
 2870SOL    HW2 9147   3.029   1.507   3.297
 2871SOL     OW 9148   2.181   0.958   2.113
 2871SOL    HW1 9149   2.263   0.977   2.068
 2871SOL    HW2 9150   2.151   0.876   2.075
 2872SOL     OW 9151   3.341   0.745   2.588
 2872SOL    HW1 9152   3.334   0.702   2.674
 2872SOL    HW2 9153   3.419   0.800   2.596
 2873SOL     OW 9154   2.328   1.265   3.600
 2873SOL    HW1 9155   2.300   1.270   3.509
 2873SOL    HW2 9156   2.246   1.263   3.650
 2874SOL     OW 9157   2.985   1.778   2.093
 2874SOL    HW1 9158   2.910   1.738   2.137
 2874SOL    HW2 9159   3.007   1.716   2.023
 2875SOL     OW 9160   2.059   0.278   3.366
 2875SOL    HW1 9161   1.980   0.331   3.363
 2875SOL    HW2 9162   2.052   0.228   3.447
 2876SOL     OW 9163   3.490   1.380   1.950
 2876SOL    HW1 9164   3.449   1.465   1.935
 2876SOL    HW2 9165   3.422   1.316   1.931
 2877SOL     OW 9166   2.328   1.734   2.185
 2877SOL    HW1 9167   2.370   1.794   2.246
 2877SOL    HW2 9168   2.398   1.707   2.125
 2878SOL     OW 9169   3.270   0.101   2.294
 2878SOL    HW1 9170   3.262   0.081   2.200
 2878SOL    HW2 9171   3.362   0.122   2.306
 2879SOL     OW 9172   2.115   1.792   3.091
 2879SOL    HW1 9173   2.165   1.729   3.143
 2879SOL    HW2 9174   2.113   1.753   3.003
 2880SOL     OW 9175   2.798   1.698   2.758
 2880SOL    HW1 9176   2.877   1.648   2.780
 2880SOL    HW2 9177   2.756   1.647   2.689
 2881SOL     OW 9178   2.255   0.696   2.337
 2881SOL    HW1 9179   2.276   0.603   2.348
 2881SOL    HW2 9180   2.161   0.703   2.355
 2882SOL     OW 9181   3.400   0.228   3.585
 2882SOL    HW1 9182   3.408   0.245   3.679
 2882SOL    HW2 9183   3.324   0.170   3.577
 2883SOL     OW 9184   2.486   0.132   1.969
 2883SOL    HW1 9185   2.547   0.063   1.995
 2883SOL    HW2 9186   2.434   0.093   1.899
 2884SOL     OW 9187   2.641   0.312   3.630
 2884SOL    HW1 9188   2.700   0.237   3.630
 2884SOL    HW2 9189   2.594   0.306   3.713
 2885SOL     OW 9190   2.738   1.522   3.057
 2885SOL    HW1 9191   2.723   1.487   2.969
 2885SOL    HW2 9192   2.809   1.468   3.092
 2886SOL     OW 9193   3.203   0.589   3.294
 2886SOL    HW1 9194   3.233   0.558   3.380
 2886SOL    HW2 9195   3.239   0.677   3.287
 2887SOL     OW 9196   2.678   1.394   2.803
 2887SOL    HW1 9197   2.762   1.383   2.759
 2887SOL    HW2 9198   2.614   1.397   2.732
 2888SOL     OW 9199   2.790   0.511   2.765
 2888SOL    HW1 9200   2.766   0.503   2.673
 2888SOL    HW2 9201   2.820   0.423   2.789
 2889SOL     OW 9202   2.404   0.062   2.369
 2889SOL    HW1 9203   2.319   0.060   2.413
 2889SOL    HW2 9204   2.397   0.132   2.304
 2890SOL     OW 9205   3.290   1.199   1.903
 2890SOL    HW1 9206   3.320   1.123   1.953
 2890SOL    HW2 9207   3.204   1.220   1.940
 2891SOL     OW 9208   2.163   0.064   2.054
 2891SOL    HW1 9209   2.221   0.134   2.025
 2891SOL    HW2 9210   2.220   5.287   2.060
 2892SOL     OW 9211   2.801   0.264   2.324
 2892SOL    HW1 9212   2.774   0.300   2.240
 2892SOL    HW2 9213   2.897   0.274   2.324
 2893SOL     OW 9214   2.943   0.682   3.321
 2893SOL    HW1 9215   2.874   0.615   3.326
 2893SOL    HW2 9216   3.024   0.633   3.315
 2894SOL     OW 9217   3.084   1.570   2.656
 2894SOL    HW1 9218   3.099   1.637   2.589
 2894SOL    HW2 9219   3.153   1.585   2.721
 2895SOL     OW 9220   2.331   1.150   2.594
 2895SOL    HW1 9221   2.263   1.130   2.658
 2895SOL    HW2 9222   2.291   1.134   2.509
 2896SOL     OW 9223   3.130   1.794   2.472
 2896SOL    HW1 9224   3.176   1.855   2.415
 2896SOL    HW2 9225   3.062   1.846   2.513
 2897SOL     OW 9226   2.887   0.545   1.885
 2897SOL    HW1 9227   2.844   0.629   1.867
 2897SOL    HW2 9228   2.950   0.565   1.954
 2898SOL     OW 9229   1.942   0.553   3.255
 2898SOL    HW1 9230   2.033   0.553   3.227
 2898SOL    HW2 9231   1.936   0.624   3.319
 2899SOL     OW 9232   2.416   0.238   3.020
 2899SOL    HW1 9233   2.448   0.153   3.049
 2899SOL    HW2 9234   2.324   0.239   3.047
 2900SOL     OW 9235   2.728   0.463   2.503
 2900SOL    HW1 9236   2.682   0.517   2.439
 2900SOL    HW2 9237   2.752   0.383   2.456
 2901SOL     OW 9238   2.840   0.061   2.625
 2901SOL    HW1 9239   2.775   0.057   2.555
 2901SOL    HW2 9240   2.850   5.270   2.654
 2902SOL     OW 9241   3.300   1.162   2.719
 2902SOL    HW1 9242   3.230   1.097   2.717
 2902SOL    HW2 9243   3.325   1.173   2.627
 2903SOL     OW 9244   3.328   0.607   2.838
 2903SOL    HW1 9245   3.278   0.526   2.841
 2903SOL    HW2 9246   3.388   0.601   2.912
 2904SOL     OW 9247   3.706   0.816   2.245
 2904SOL    HW1 9248   3.763   0.765   2.303
 2904SOL    HW2 9249   3.679   0.753   2.178
 2905SOL     OW 9250   2.352   1.419   2.017
 2905SOL    HW1 9251   2.277   1.390   2.069
 2905SOL    HW2 9252   2.340   1.376   1.932
 2906SOL     OW 9253   3.533   1.264   2.507
 2906SOL    HW1 9254   3.628   1.266   2.521
 2906SOL    HW2 9255   3.504   1.353   2.528
 2907SOL     OW 9256   3.256   0.572   1.933
 2907SOL    HW1 9257   3.194   0.552   2.004
 2907SOL    HW2 9258   3.341   0.542   1.966
 2908SOL     OW 9259   2.385   0.265   2.183
 2908SOL    HW1 9260   2.431   0.217   2.114
 2908SOL    HW2 9261   2.363   0.349   2.143
 2909SOL     OW 9262   3.614   1.240   3.434
 2909SOL    HW1 9263   3.701   1.201   3.429
 2909SOL    HW2 9264   3.630   1.331   3.462
 2910SOL     OW 9265   2.921   1.356   3.199
 2910SOL    HW1 9266   2.845   1.322   3.246
 2910SOL    HW2 9267   2.995   1.310   3.237
 2911SOL     OW 9268   3.470   1.625   3.516
 2911SOL    HW1 9269   3.464   1.660   3.427
 2911SOL    HW2 9270   3.553   1.578   3.517
 2912SOL     OW 9271   2.993   1.207   2.967
 2912SOL    HW1 9272   2.930   1.242   3.030
 2912SOL    HW2 9273   2.962   1.237   2.882
 2913SOL     OW 9274   3.489   1.097   2.939
 2913SOL    HW1 9275   3.484   1.159   3.011
 2913SOL    HW2 9276   3.411   1.115   2.887
 2914SOL     OW 9277   2.766   0.107   3.249
 2914SOL    HW1 9278   2.796   0.073   3.165
 2914SOL    HW2 9279   2.843   0.149   3.287
 2915SOL     OW 9280   2.846   1.115   3.584
 2915SOL    HW1 9281   2.754   1.130   3.606
 2915SOL    HW2 9282   2.845   1.037   3.529
 2916SOL     OW 9283   2.571   1.062   2.233
 2916SOL    HW1 9284   2.557   1.044   2.326
 2916SOL    HW2 9285   2.647   1.008   2.209
 2917SOL     OW 9286   2.281   0.816   3.113
 2917SOL    HW1 9287   2.349   0.825   3.180
 2917SOL    HW2 9288   2.246   0.728   3.127
 2918SOL     OW 9289   3.128   0.378   3.135
 2918SOL    HW1 9290   3.161   0.455   3.182
 2918SOL    HW2 9291   3.038   0.401   3.113
 2919SOL     OW 9292   1.933   1.572   3.213
 2919SOL    HW1 9293   1.906   1.651   3.166
 2919SOL    HW2 9294   2.028   1.575   3.213
 2920SOL     OW 9295   2.209   1.111   2.352
 2920SOL    HW1 9296   2.214   1.184   2.291
 2920SOL    HW2 9297   2.207   1.033   2.297
 2921SOL     OW 9298   2.415   0.537   2.723
 2921SOL    HW1 9299   2.429   0.595   2.648
 2921SOL    HW2 9300   2.481   0.563   2.787
 2922SOL     OW 9301   3.110   1.349   2.251
 2922SOL    HW1 9302   3.166   1.420   2.282
 2922SOL    HW2 9303   3.023   1.370   2.285
 2923SOL     OW 9304   3.145   1.457   3.009
 2923SOL    HW1 9305   3.200   1.459   3.087
 2923SOL    HW2 9306   3.091   1.379   3.020
 2924SOL     OW 9307   3.443   0.622   2.342
 2924SOL    HW1 9308   3.395   0.675   2.405
 2924SOL    HW2 9309   3.488   0.685   2.286
 2925SOL     OW 9310   2.208   1.524   3.176
 2925SOL    HW1 9311   2.196   1.482   3.090
 2925SOL    HW2 9312   2.302   1.537   3.182
 2926SOL     OW 9313   2.277   0.744   3.464
 2926SOL    HW1 9314   2.339   0.789   3.406
 2926SOL    HW2 9315   2.318   0.660   3.483
 2927SOL     OW 9316   3.465   0.779   3.545
 2927SOL    HW1 9317   3.379   0.820   3.538
 2927SOL    HW2 9318   3.517   0.821   3.476
 2928SOL     OW 9319   2.911   0.117   3.648
 2928SOL    HW1 9320   2.936   0.197   3.601
 2928SOL    HW2 9321   2.913   0.048   3.582
 2929SOL     OW 9322   2.345   0.058   3.600
 2929SOL    HW1 9323   2.285   5.293   3.563
 2929SOL    HW2 9324   2.289   0.132   3.621
 2930SOL     OW 9325   2.446   0.872   2.894
 2930SOL    HW1 9326   2.476   0.963   2.893
 2930SOL    HW2 9327   2.389   0.867   2.970
 2931SOL     OW 9328   3.218   0.859   2.891
 2931SOL    HW1 9329   3.135   0.848   2.845
 2931SOL    HW2 9330   3.260   0.773   2.884
 2932SOL     OW 9331   3.067   0.528   2.128
 2932SOL    HW1 9332   3.072   0.447   2.180
 2932SOL    HW2 9333   3.024   0.591   2.186
 2933SOL     OW 9334   2.157   0.203   3.110
 2933SOL    HW1 9335   2.117   0.242   3.188
 2933SOL    HW2 9336   2.158   0.109   3.129
 2934SOL     OW 9337   1.907   1.310   3.138
 2934SOL    HW1 9338   1.941   1.257   3.209
 2934SOL    HW2 9339   1.914   1.400   3.169
 2935SOL     OW 9340   2.587   0.632   2.921
 2935SOL    HW1 9341   2.661   0.616   2.862
 2935SOL    HW2 9342   2.558   0.720   2.899
 2936SOL     OW 9343   3.597   0.960   3.715
 2936SOL    HW1 9344   3.552   0.896   3.659
 2936SOL    HW2 9345   3.537   0.974   3.789
 2937SOL     OW 9346   2.168   0.071   2.517
 2937SOL    HW1 9347   2.147   0.165   2.521
 2937SOL    HW2 9348   2.213   0.053   2.599
 2938SOL     OW 9349   3.476   0.376   2.225
 2938SOL    HW1 9350   3.508   0.311   2.288
 2938SOL    HW2 9351   3.455   0.453   2.278
 2939SOL     OW 9352   2.890   0.759   2.822
 2939SOL    HW1 9353   2.886   0.777   2.916
 2939SOL    HW2 9354   2.863   0.668   2.813
 2940SOL     OW 9355   2.845   1.568   3.578
 2940SOL    HW1 9356   2.831   1.610   3.493
 2940SOL    HW2 9357   2.889   1.486   3.557
 2941SOL     OW 9358   3.716   1.505   3.467
 2941SOL    HW1 9359   3.735   1.531   3.377
 2941SOL    HW2 9360   3.797   1.522   3.515
 2942SOL     OW 9361   2.215   0.916   3.671
 2942SOL    HW1 9362   2.297   0.934   3.717
 2942SOL    HW2 9363   2.240   0.853   3.603
 2943SOL     OW 9364   3.387   0.272   1.988
 2943SOL    HW1 9365   3.323   0.208   2.019
 2943SOL    HW2 9366   3.424   0.310   2.067
 2944SOL     OW 9367   3.153   0.826   1.893
 2944SOL    HW1 9368   3.195   0.740   1.896
 2944SOL    HW2 9369   3.184   0.865   1.811
 2945SOL     OW 9370   2.928   1.336   2.717
 2945SOL    HW1 9371   2.931   1.264   2.654
 2945SOL    HW2 9372   2.989   1.401   2.681
 2946SOL     OW 9373   2.170   0.809   2.809
 2946SOL    HW1 9374   2.263   0.830   2.801
 2946SOL    HW2 9375   2.169   0.718   2.841
 2947SOL     OW 9376   2.194   0.527   2.875
 2947SOL    HW1 9377   2.157   0.440   2.860
 2947SOL    HW2 9378   2.270   0.531   2.818
 2948SOL     OW 9379   2.997   0.377   3.551
 2948SOL    HW1 9380   2.949   0.432   3.613
 2948SOL    HW2 9381   3.084   0.417   3.547
 2949SOL     OW 9382   2.994   0.222   3.328
 2949SOL    HW1 9383   2.998   0.281   3.403
 2949SOL    HW2 9384   3.050   0.263   3.262
 2950SOL     OW 9385   1.867   1.321   2.057
 2950SOL    HW1 9386   1.780   1.335   2.019
 2950SOL    HW2 9387   1.864   1.231   2.091
 2951SOL     OW 9388   1.952   1.787   2.798
 2951SOL    HW1 9389   1.921   1.707   2.755
 2951SOL    HW2 9390   2.042   1.797   2.769
 2952SOL     OW 9391   2.358   1.575   2.767
 2952SOL    HW1 9392   2.427   1.636   2.792
 2952SOL    HW2 9393   2.401   1.511   2.710
 2953SOL     OW 9394   2.843   0.792   3.088
 2953SOL    HW1 9395   2.900   0.769   3.162
 2953SOL    HW2 9396   2.758   0.753   3.110
 2954SOL     OW 9397   1.897   0.544   2.979
 2954SOL    HW1 9398   1.977   0.531   2.927
 2954SOL    HW2 9399   1.928   0.548   3.070
 2955SOL     OW 9400   2.048   0.523   3.590
 2955SOL    HW1 9401   2.112   0.487   3.528
 2955SOL    HW2 9402   2.010   0.598   3.544
 2956SOL     OW 9403   3.239   0.938   3.520
 2956SOL    HW1 9404   3.261   1.031   3.517
 2956SOL    HW2 9405   3.237   0.911   3.428
 2957SOL     OW 9406   2.676   0.573   2.226
 2957SOL    HW1 9407   2.680   0.499   2.165
 2957SOL    HW2 9408   2.602   0.625   2.195
 2958SOL     OW 9409   3.504   0.601   3.047
 2958SOL    HW1 9410   3.493   0.542   3.121
 2958SOL    HW2 9411   3.591   0.582   3.013
 2959SOL     OW 9412   2.111   1.551   3.591
 2959SOL    HW1 9413   2.083   1.617   3.655
 2959SOL    HW2 9414   2.108   1.469   3.639
 2960SOL     OW 9415   2.564   0.450   3.121
 2960SOL    HW1 9416   2.511   0.378   3.089
 2960SOL    HW2 9417   2.562   0.515   3.050
 2961SOL     OW 9418   2.791   1.687   3.332
 2961SOL    HW1 9419   2.761   1.643   3.253
 2961SOL    HW2 9420   2.815   1.775   3.304
 2962SOL     OW 9421   2.324   0.492   2.044
 2962SOL    HW1 9422   2.384   0.563   2.068
 2962SOL    HW2 9423   2.239   0.536   2.035
 2963SOL     OW 9424   2.007   1.141   3.335
 2963SOL    HW1 9425   2.009   1.090   3.416
 2963SOL    HW2 9426   2.024   1.077   3.266
 2964SOL     OW 9427   3.187   1.047   3.084
 2964SOL    HW1 9428   3.210   0.983   3.017
 2964SOL    HW2 9429   3.118   1.100   3.045
 2965SOL     OW 9430   3.174   0.857   2.168
 2965SOL    HW1 9431   3.099   0.825   2.218
 2965SOL    HW2 9432   3.149   0.843   2.077
 2966SOL     OW 9433   3.634   1.743   3.012
 2966SOL    HW1 9434   3.696   1.769   2.943
 2966SOL    HW2 9435   3.611   1.653   2.991
 2967SOL     OW 9436   3.104   1.731   2.976
 2967SOL    HW1 9437   3.186   1.754   2.932
 2967SOL    HW2 9438   3.112   1.637   2.993
 2968SOL     OW 9439   1.947   1.267   2.874
 2968SOL    HW1 9440   1.932   1.280   2.967
 2968SOL    HW2 9441   1.873   1.212   2.845
 2969SOL     OW 9442   2.547   1.651   3.590
 2969SOL    HW1 9443   2.482   1.719   3.571
 2969SOL    HW2 9444   2.612   1.661   3.520
 2970SOL     OW 9445   3.574   0.150   2.363
 2970SOL    HW1 9446   3.649   0.130   2.308
 2970SOL    HW2 9447   3.567   0.076   2.423
 2971SOL     OW 9448   3.253   1.568   2.348
 2971SOL    HW1 9449   3.313   1.600   2.281
 2971SOL    HW2 9450   3.204   1.645   2.376
 2972SOL     OW 9451   1.997   1.797   3.707
 2972SOL    HW1 9452   1.947   1.730   3.753
 2972SOL    HW2 9453   2.045   1.843   3.776
 2973SOL     OW 9454   3.139   0.926   2.533
 2973SOL    HW1 9455   3.213   0.865   2.541
 2973SOL    HW2 9456   3.173   0.998   2.480
 2974SOL     OW 9457   2.675   1.273   3.288
 2974SOL    HW1 9458   2.645   1.311   3.371
 2974SOL    HW2 9459   2.605   1.294   3.226
 2975SOL     OW 9460   2.534   1.619   2.018
 2975SOL    HW1 9461   2.543   1.634   1.924
 2975SOL    HW2 9462   2.478   1.542   2.024
 2976SOL     OW 9463   3.486   1.727   3.252
 2976SOL    HW1 9464   3.538   1.731   3.171
 2976SOL    HW2 9465   3.468   1.818   3.274
 2977SOL     OW 9466   3.708   0.155   2.819
 2977SOL    HW1 9467   3.705   0.060   2.811
 2977SOL    HW2 9468   3.621   0.184   2.789
 2978SOL     OW 9469   2.123   0.329   2.581
 2978SOL    HW1 9470   2.035   0.360   2.559
 2978SOL    HW2 9471   2.121   0.318   2.676
 2979SOL     OW 9472   3.069   1.605   1.894
 2979SOL    HW1 9473   3.059   1.514   1.920
 2979SOL    HW2 9474   3.004   1.618   1.825
 2980SOL     OW 9475   2.686   1.005   3.235
 2980SOL    HW1 9476   2.729   0.999   3.150
 2980SOL    HW2 9477   2.685   1.099   3.255
 2981SOL     OW 9478   2.778   0.911   2.153
 2981SOL    HW1 9479   2.839   0.943   2.086
 2981SOL    HW2 9480   2.826   0.841   2.197
 2982SOL     OW 9481   3.353   1.626   1.905
 2982SOL    HW1 9482   3.259   1.619   1.891
 2982SOL    HW2 9483   3.390   1.632   1.817
 2983SOL     OW 9484   2.231   1.303   3.354
 2983SOL    HW1 9485   2.218   1.380   3.299
 2983SOL    HW2 9486   2.154   1.248   3.338
 2984SOL     OW 9487   3.472   1.282   3.142
 2984SOL    HW1 9488   3.533   1.271   3.215
 2984SOL    HW2 9489   3.412   1.351   3.171
 2985SOL     OW 9490   2.916   1.108   2.570
 2985SOL    HW1 9491   2.844   1.057   2.608
 2985SOL    HW2 9492   2.978   1.042   2.539
 2986SOL     OW 9493   2.881   0.244   2.831
 2986SOL    HW1 9494   2.861   0.198   2.749
 2986SOL    HW2 9495   2.874   0.176   2.898
 2987SOL     OW 9496   2.465   1.488   2.343
 2987SOL    HW1 9497   2.511   1.438   2.275
 2987SOL    HW2 9498   2.397   1.535   2.296
 2988SOL     OW 9499   3.587   0.386   3.240
 2988SOL    HW1 9500   3.658   0.451   3.239
 2988SOL    HW2 9501   3.619   0.317   3.182
 2989SOL     OW 9502   2.122   1.344   2.151
 2989SOL    HW1 9503   2.029   1.342   2.128
 2989SOL    HW2 9504   2.124   1.381   2.239
 2990SOL     OW 9505   1.975   1.023   3.582
 2990SOL    HW1 9506   1.899   1.000   3.635
 2990SOL    HW2 9507   2.049   0.985   3.629
 2991SOL     OW 9508   2.534   0.212   3.351
 2991SOL    HW1 9509   2.618   0.196   3.307
 2991SOL    HW2 9510   2.559   0.262   3.429
 2992SOL     OW 9511   1.940   0.338   1.903
 2992SOL    HW1 9512   1.856   0.305   1.871
 2992SOL    HW2 9513   1.960   0.412   1.846
 2993SOL     OW 9514   3.291   0.858   3.262
 2993SOL    HW1 9515   3.242   0.919   3.206
 2993SOL    HW2 9516   3.380   0.860   3.227
 2994SOL     OW 9517   1.933   0.167   2.176
 2994SOL    HW1 9518   1.936   0.250   2.129
 2994SOL    HW2 9519   2.018   0.126   2.157
 2995SOL     OW 9520   3.041   1.339   1.979
 2995SOL    HW1 9521   2.950   1.308   1.981
 2995SOL    HW2 9522   3.068   1.339   2.071
 2996SOL     OW 9523   2.481   0.830   3.296
 2996SOL    HW1 9524   2.537   0.906   3.280
 2996SOL    HW2 9525   2.542   0.757   3.304
 2997SOL     OW 9526   3.347   1.781   2.845
 2997SOL    HW1 9527   3.370   1.836   2.771
 2997SOL    HW2 9528   3.430   1.756   2.884
 2998SOL     OW 9529   2.578   0.573   3.564
 2998SOL    HW1 9530   2.619   0.635   3.623
 2998SOL    HW2 9531   2.606   0.487   3.595
 2999SOL     OW 9532   3.334   1.200   3.493
 2999SOL    HW1 9533   3.323   1.213   3.587
 2999SOL    HW2 9534   3.427   1.215   3.478
 3000SOL     OW 9535   2.241   1.728   3.412
 3000SOL    HW1 9536   2.158   1.775   3.405
 3000SOL    HW2 9537   2.221   1.650   3.463
 3001SOL     OW 9538   3.530   0.881   3.117
 3001SOL    HW1 9539   3.525   0.795   3.074
 3001SOL    HW2 9540   3.521   0.944   3.046
 3002SOL     OW 9541   3.082   0.319   2.327
 3002SOL    HW1 9542   3.145   0.247   2.321
 3002SOL    HW2 9543   3.113   0.370   2.402
 3003SOL     OW 9544   2.451   0.738   2.533
 3003SOL    HW1 9545   2.490   0.823   2.517
 3003SOL    HW2 9546   2.384   0.729   2.465
 3004SOL     OW 9547   3.627   0.362   3.511
 3004SOL    HW1 9548   3.609   0.377   3.418
 3004SOL    HW2 9549   3.556   0.307   3.542
 3005SOL     OW 9550   3.607   0.934   3.374
 3005SOL    HW1 9551   3.603   1.029   3.387
 3005SOL    HW2 9552   3.592   0.921   3.280
 3006SOL     OW 9553   2.724   1.367   1.897
 3006SOL    HW1 9554   2.686   1.395   1.981
 3006SOL    HW2 9555   2.742   1.449   1.851
 3007SOL     OW 9556   2.525   1.789   2.808
 3007SOL    HW1 9557   2.505   1.879   2.782
 3007SOL    HW2 9558   2.620   1.782   2.799
 3008SOL     OW 9559   2.729   0.968   2.717
 3008SOL    HW1 9560   2.780   0.896   2.756
 3008SOL    HW2 9561   2.694   1.016   2.792
 3009SOL     OW 9562   2.940   0.988   1.951
 3009SOL    HW1 9563   2.919   1.039   1.872
 3009SOL    HW2 9564   3.015   0.935   1.925
 3010SOL     OW 9565   3.715   1.554   2.706
 3010SOL    HW1 9566   3.637   1.542   2.652
 3010SOL    HW2 9567   3.708   1.487   2.774
 3011SOL     OW 9568   2.086   1.302   3.718
 3011SOL    HW1 9569   2.021   1.241   3.684
 3011SOL    HW2 9570   2.062   1.315   3.809
 3012SOL     OW 9571   1.946   1.233   2.527
 3012SOL    HW1 9572   1.953   1.185   2.610
 3012SOL    HW2 9573   2.015   1.194   2.472
 3013SOL     OW 9574   2.543   1.397   3.488
 3013SOL    HW1 9575   2.463   1.354   3.518
 3013SOL    HW2 9576   2.541   1.483   3.529
 3014SOL     OW 9577   3.674   0.176   3.094
 3014SOL    HW1 9578   3.639   0.087   3.097
 3014SOL    HW2 9579   3.695   0.190   3.001
 3015SOL     OW 9580   2.292   0.436   2.386
 3015SOL    HW1 9581   2.324   0.363   2.333
 3015SOL    HW2 9582   2.244   0.394   2.458
 3016SOL     OW 9583   3.561   1.489   2.958
 3016SOL    HW1 9584   3.481   1.465   2.911
 3016SOL    HW2 9585   3.573   1.419   3.022
 3017SOL     OW 9586   2.191   0.557   3.153
 3017SOL    HW1 9587   2.247   0.502   3.207
 3017SOL    HW2 9588   2.211   0.530   3.063
 3018SOL     OW 9589   2.691   1.577   2.538
 3018SOL    HW1 9590   2.676   1.636   2.463
 3018SOL    HW2 9591   2.614   1.520   2.539
 3019SOL     OW 9592   3.290   0.219   2.978
 3019SOL    HW1 9593   3.326   0.144   3.026
 3019SOL    HW2 9594   3.241   0.268   3.044
 3020SOL     OW 9595   2.865   0.021   3.001
 3020SOL    HW1 9596   2.814   5.252   2.958
 3020SOL    HW2 9597   2.951   5.282   3.015
 3021SOL     OW 9598   2.634   1.333   2.178
 3021SOL    HW1 9599   2.604   1.242   2.185
 3021SOL    HW2 9600   2.716   1.334   2.227
 3022SOL     OW 9601   2.482   1.555   3.148
 3022SOL    HW1 9602   2.487   1.634   3.202
 3022SOL    HW2 9603   2.569   1.548   3.108
 3023SOL     OW 9604   3.218   0.037   2.025
 3023SOL    HW1 9605   3.253   5.295   1.946
 3023SOL    HW2 9606   3.138   5.289   2.045
 3024SOL     OW 9607   3.163   0.464   2.546
 3024SOL    HW1 9608   3.108   0.543   2.551
 3024SOL    HW2 9609   3.156   0.424   2.633
 3025SOL     OW 9610   3.456   0.215   2.744
 3025SOL    HW1 9611   3.391   0.227   2.813
 3025SOL    HW2 9612   3.449   0.294   2.690
 3026SOL     OW 9613   1.905   1.070   2.168
 3026SOL    HW1 9614   1.999   1.062   2.151
 3026SOL    HW2 9615   1.877   0.981   2.191
 3027SOL     OW 9616   2.748   1.654   2.202
 3027SOL    HW1 9617   2.675   1.637   2.142
 3027SOL    HW2 9618   2.718   1.727   2.256
 3028SOL     OW 9619   2.089   0.625   3.848
 3028SOL    HW1 9620   2.001   0.622   3.884
 3028SOL    HW2 9621   2.079   0.599   3.756
 3029SOL     OW 9622   2.080   0.285   4.717
 3029SOL    HW1 9623   2.108   0.249   4.801
 3029SOL    HW2 9624   1.995   0.242   4.700
 3030SOL     OW 9625   1.865   0.387   4.362
 3030SOL    HW1 9626   1.781   0.408   4.402
 3030SOL    HW2 9627   1.847   0.310   4.308
 3031SOL     OW 9628   2.428   1.289   4.900
 3031SOL    HW1 9629   2.340   1.294   4.862
 3031SOL    HW2 9630   2.445   1.377   4.934
 3032SOL     OW 9631   3.424   1.513   4.431
 3032SOL    HW1 9632   3.383   1.491   4.515
 3032SOL    HW2 9633   3.351   1.517   4.369
 3033SOL     OW 9634   2.994   0.698   4.424
 3033SOL    HW1 9635   3.042   0.779   4.410
 3033SOL    HW2 9636   2.946   0.712   4.506
 3034SOL     OW 9637   3.629   0.605   3.952
 3034SOL    HW1 9638   3.609   0.598   3.859
 3034SOL    HW2 9639   3.594   0.525   3.991
 3035SOL     OW 9640   2.615   1.140   4.766
 3035SOL    HW1 9641   2.547   1.175   4.824
 3035SOL    HW2 9642   2.651   1.216   4.723
 3036SOL     OW 9643   2.730   0.775   5.547
 3036SOL    HW1 9644   2.718   0.846   5.610
 3036SOL    HW2 9645   2.754   0.819   5.465
 3037SOL     OW 9646   2.548   1.003   4.370
 3037SOL    HW1 9647   2.613   0.991   4.439
 3037SOL    HW2 9648   2.479   1.054   4.411
 3038SOL     OW 9649   2.573   1.151   5.537
 3038SOL    HW1 9650   2.621   1.229   5.565
 3038SOL    HW2 9651   2.491   1.184   5.501
 3039SOL     OW 9652   2.195   1.426   4.788
 3039SOL    HW1 9653   2.120   1.387   4.744
 3039SOL    HW2 9654   2.239   1.477   4.721
 3040SOL     OW 9655   3.322   1.500   5.080
 3040SOL    HW1 9656   3.374   1.580   5.090
 3040SOL    HW2 9657   3.258   1.505   5.150
 3041SOL     OW 9658   2.307   0.397   5.207
 3041SOL    HW1 9659   2.381   0.338   5.207
 3041SOL    HW2 9660   2.231   0.341   5.224
 3042SOL     OW 9661   3.472   0.451   4.463
 3042SOL    HW1 9662   3.396   0.473   4.408
 3042SOL    HW2 9663   3.488   0.530   4.514
 3043SOL     OW 9664   2.084   1.717   4.206
 3043SOL    HW1 9665   2.108   1.786   4.269
 3043SOL    HW2 9666   2.155   1.717   4.142
 3044SOL     OW 9667   2.999   1.341   5.416
 3044SOL    HW1 9668   3.039   1.337   5.503
 3044SOL    HW2 9669   2.946   1.262   5.410
 3045SOL     OW 9670   2.094   1.443   4.262
 3045SOL    HW1 9671   2.074   1.536   4.266
 3045SOL    HW2 9672   2.033   1.402   4.323
 3046SOL     OW 9673   2.122   1.090   4.615
 3046SOL    HW1 9674   2.118   1.003   4.655
 3046SOL    HW2 9675   2.064   1.144   4.669
 3047SOL     OW 9676   2.476   1.784   5.160
 3047SOL    HW1 9677   2.392   1.773   5.204
 3047SOL    HW2 9678   2.496   1.877   5.170
 3048SOL     OW 9679   2.446   0.982   3.860
 3048SOL    HW1 9680   2.492   1.030   3.791
 3048SOL    HW2 9681   2.486   1.013   3.941
 3049SOL     OW 9682   3.448   0.136   5.179
 3049SOL    HW1 9683   3.473   0.221   5.141
 3049SOL    HW2 9684   3.444   0.153   5.273
 3050SOL     OW 9685   1.977   0.654   4.284
 3050SOL    HW1 9686   1.949   0.565   4.305
 3050SOL    HW2 9687   1.969   0.702   4.366
 3051SOL     OW 9688   3.704   1.759   4.061
 3051SOL    HW1 9689   3.773   1.731   4.122
 3051SOL    HW2 9690   3.726   1.850   4.040
 3052SOL     OW 9691   1.897   1.592   3.847
 3052SOL    HW1 9692   1.876   1.501   3.867
 3052SOL    HW2 9693   1.872   1.641   3.925
 3053SOL     OW 9694   3.552   0.919   4.366
 3053SOL    HW1 9695   3.634   0.875   4.345
 3053SOL    HW2 9696   3.529   0.969   4.287
 3054SOL     OW 9697   3.508   1.106   4.153
 3054SOL    HW1 9698   3.595   1.110   4.111
 3054SOL    HW2 9699   3.514   1.168   4.226
 3055SOL     OW 9700   1.985   0.745   5.308
 3055SOL    HW1 9701   2.077   0.771   5.315
 3055SOL    HW2 9702   1.936   0.826   5.317
 3056SOL     OW 9703   2.473   1.387   4.457
 3056SOL    HW1 9704   2.428   1.302   4.466
 3056SOL    HW2 9705   2.457   1.412   4.366
 3057SOL     OW 9706   3.151   1.237   5.147
 3057SOL    HW1 9707   3.183   1.170   5.087
 3057SOL    HW2 9708   3.209   1.231   5.223
 3058SOL     OW 9709   2.674   0.029   4.254
 3058SOL    HW1 9710   2.702   0.117   4.227
 3058SOL    HW2 9711   2.578   0.032   4.247
 3059SOL     OW 9712   2.052   0.965   4.997
 3059SOL    HW1 9713   2.137   0.924   4.982
 3059SOL    HW2 9714   1.990   0.912   4.947
 3060SOL     OW 9715   3.393   0.995   3.923
 3060SOL    HW1 9716   3.323   0.938   3.955
 3060SOL    HW2 9717   3.435   1.029   4.002
 3061SOL     OW 9718   3.050   1.808   5.347
 3061SOL    HW1 9719   3.055   1.865   5.271
 3061SOL    HW2 9720   3.064   1.720   5.312
 3062SOL     OW 9721   2.191   0.267   5.537
 3062SOL    HW1 9722   2.242   0.342   5.567
 3062SOL    HW2 9723   2.104   0.280   5.575
 3063SOL     OW 9724   3.328   1.419   4.674
 3063SOL    HW1 9725   3.262   1.433   4.742
 3063SOL    HW2 9726   3.316   1.328   4.647
 3064SOL     OW 9727   3.514   1.746   4.302
 3064SOL    HW1 9728   3.505   1.713   4.213
 3064SOL    HW2 9729   3.495   1.671   4.358
 3065SOL     OW 9730   2.456   0.720   3.991
 3065SOL    HW1 9731   2.461   0.802   3.941
 3065SOL    HW2 9732   2.391   0.737   4.059
 3066SOL     OW 9733   3.140   0.348   4.655
 3066SOL    HW1 9734   3.049   0.320   4.668
 3066SOL    HW2 9735   3.190   0.298   4.719
 3067SOL     OW 9736   3.446   1.665   4.032
 3067SOL    HW1 9737   3.535   1.699   4.025
 3067SOL    HW2 9738   3.417   1.653   3.942
 3068SOL     OW 9739   2.657   0.618   5.173
 3068SOL    HW1 9740   2.629   0.597   5.262
 3068SOL    HW2 9741   2.615   0.551   5.119
 3069SOL     OW 9742   3.256   0.475   5.402
 3069SOL    HW1 9743   3.259   0.520   5.487
 3069SOL    HW2 9744   3.320   0.404   5.411
 3070SOL     OW 9745   2.816   0.887   5.307
 3070SOL    HW1 9746   2.870   0.818   5.271
 3070SOL    HW2 9747   2.768   0.922   5.231
 3071SOL     OW 9748   2.856   0.417   4.959
 3071SOL    HW1 9749   2.770   0.438   4.996
 3071SOL    HW2 9750   2.836   0.369   4.878
 3072SOL     OW 9751   2.913   0.698   4.150
 3072SOL    HW1 9752   2.929   0.691   4.244
 3072SOL    HW2 9753   2.830   0.653   4.136
 3073SOL     OW 9754   1.950   0.821   4.501
 3073SOL    HW1 9755   2.031   0.814   4.552
 3073SOL    HW2 9756   1.907   0.899   4.536
 3074SOL     OW 9757   1.987   1.853   5.303
 3074SOL    HW1 9758   1.988   1.831   5.396
 3074SOL    HW2 9759   1.896   1.836   5.276
 3075SOL     OW 9760   2.738   0.366   3.914
 3075SOL    HW1 9761   2.777   0.425   3.849
 3075SOL    HW2 9762   2.794   0.288   3.912
 3076SOL     OW 9763   3.569   0.573   5.552
 3076SOL    HW1 9764   3.532   0.647   5.503
 3076SOL    HW2 9765   3.599   0.513   5.484
 3077SOL     OW 9766   3.240   1.142   4.265
 3077SOL    HW1 9767   3.319   1.129   4.212
 3077SOL    HW2 9768   3.187   1.203   4.214
 3078SOL     OW 9769   2.387   0.202   4.606
 3078SOL    HW1 9770   2.409   0.218   4.697
 3078SOL    HW2 9771   2.408   0.285   4.562
 3079SOL     OW 9772   2.868   1.447   4.196
 3079SOL    HW1 9773   2.828   1.522   4.151
 3079SOL    HW2 9774   2.848   1.462   4.288
 3080SOL     OW 9775   2.203   1.790   4.583
 3080SOL    HW1 9776   2.258   1.712   4.590
 3080SOL    HW2 9777   2.261   1.863   4.607
 3081SOL     OW 9778   3.661   1.056   4.593
 3081SOL    HW1 9779   3.608   1.036   4.516
 3081SOL    HW2 9780   3.599   1.062   4.665
 3082SOL     OW 9781   3.091   1.538   5.237
 3082SOL    HW1 9782   3.076   1.465   5.297
 3082SOL    HW2 9783   3.023   1.529   5.170
 3083SOL     OW 9784   2.181   0.958   3.975
 3083SOL    HW1 9785   2.263   0.976   3.929
 3083SOL    HW2 9786   2.150   0.876   3.937
 3084SOL     OW 9787   3.341   0.745   4.450
 3084SOL    HW1 9788   3.333   0.702   4.536
 3084SOL    HW2 9789   3.419   0.800   4.458
 3085SOL     OW 9790   2.329   1.265   5.462
 3085SOL    HW1 9791   2.302   1.270   5.370
 3085SOL    HW2 9792   2.247   1.263   5.511
 3086SOL     OW 9793   2.994   1.760   3.972
 3086SOL    HW1 9794   2.909   1.729   4.004
 3086SOL    HW2 9795   3.011   1.706   3.895
 3087SOL     OW 9796   2.059   0.278   5.228
 3087SOL    HW1 9797   1.980   0.332   5.225
 3087SOL    HW2 9798   2.052   0.229   5.309
 3088SOL     OW 9799   3.490   1.380   3.813
 3088SOL    HW1 9800   3.449   1.465   3.797
 3088SOL    HW2 9801   3.422   1.316   3.793
 3089SOL     OW 9802   2.335   1.754   4.058
 3089SOL    HW1 9803   2.387   1.812   4.114
 3089SOL    HW2 9804   2.400   1.712   4.001
 3090SOL     OW 9805   3.270   0.101   4.155
 3090SOL    HW1 9806   3.262   0.081   4.062
 3090SOL    HW2 9807   3.362   0.121   4.169
 3091SOL     OW 9808   2.106   1.785   4.959
 3091SOL    HW1 9809   2.166   1.723   4.999
 3091SOL    HW2 9810   2.103   1.759   4.867
 3092SOL     OW 9811   2.791   1.678   4.642
 3092SOL    HW1 9812   2.877   1.637   4.643
 3092SOL    HW2 9813   2.752   1.651   4.559
 3093SOL     OW 9814   2.255   0.696   4.199
 3093SOL    HW1 9815   2.276   0.604   4.210
 3093SOL    HW2 9816   2.161   0.703   4.217
 3094SOL     OW 9817   3.400   0.227   5.447
 3094SOL    HW1 9818   3.408   0.245   5.541
 3094SOL    HW2 9819   3.324   0.171   5.439
 3095SOL     OW 9820   2.486   0.132   3.831
 3095SOL    HW1 9821   2.547   0.063   3.857
 3095SOL    HW2 9822   2.434   0.093   3.761
 3096SOL     OW 9823   2.641   0.312   5.492
 3096SOL    HW1 9824   2.700   0.237   5.492
 3096SOL    HW2 9825   2.595   0.307   5.575
 3097SOL     OW 9826   2.731   1.512   4.924
 3097SOL    HW1 9827   2.727   1.491   4.831
 3097SOL    HW2 9828   2.808   1.464   4.956
 3098SOL     OW 9829   3.203   0.589   5.156
 3098SOL    HW1 9830   3.233   0.558   5.242
 3098SOL    HW2 9831   3.238   0.677   5.149
 3099SOL     OW 9832   2.672   1.388   4.661
 3099SOL    HW1 9833   2.759   1.383   4.621
 3099SOL    HW2 9834   2.611   1.389   4.587
 3100SOL     OW 9835   2.790   0.511   4.627
 3100SOL    HW1 9836   2.766   0.502   4.535
 3100SOL    HW2 9837   2.820   0.423   4.651
 3101SOL     OW 9838   2.404   0.062   4.231
 3101SOL    HW1 9839   2.319   0.060   4.275
 3101SOL    HW2 9840   2.396   0.132   4.166
 3102SOL     OW 9841   3.290   1.198   3.765
 3102SOL    HW1 9842   3.321   1.123   3.814
 3102SOL    HW2 9843   3.204   1.218   3.802
 3103SOL     OW 9844   2.163   0.064   3.916
 3103SOL    HW1 9845   2.221   0.134   3.887
 3103SOL    HW2 9846   2.220   5.287   3.922
 3104SOL     OW 9847   2.801   0.264   4.186
 3104SOL    HW1 9848   2.774   0.300   4.102
 3104SOL    HW2 9849   2.897   0.274   4.186
 3105SOL     OW 9850   2.943   0.682   5.183
 3105SOL    HW1 9851   2.874   0.616   5.188
 3105SOL    HW2 9852   3.024   0.632   5.177
 3106SOL     OW 9853   3.085   1.564   4.524
 3106SOL    HW1 9854   3.097   1.643   4.471
 3106SOL    HW2 9855   3.150   1.571   4.594
 3107SOL     OW 9856   2.331   1.151   4.456
 3107SOL    HW1 9857   2.263   1.130   4.520
 3107SOL    HW2 9858   2.290   1.134   4.371
 3108SOL     OW 9859   2.887   0.545   3.747
 3108SOL    HW1 9860   2.844   0.629   3.729
 3108SOL    HW2 9861   2.950   0.565   3.816
 3109SOL     OW 9862   1.941   0.553   5.118
 3109SOL    HW1 9863   2.033   0.553   5.089
 3109SOL    HW2 9864   1.936   0.624   5.182
 3110SOL     OW 9865   2.416   0.238   4.882
 3110SOL    HW1 9866   2.448   0.153   4.911
 3110SOL    HW2 9867   2.324   0.239   4.909
 3111SOL     OW 9868   2.728   0.463   4.365
 3111SOL    HW1 9869   2.682   0.517   4.301
 3111SOL    HW2 9870   2.752   0.383   4.318
 3112SOL     OW 9871   2.840   0.061   4.487
 3112SOL    HW1 9872   2.775   0.057   4.417
 3112SOL    HW2 9873   2.850   5.270   4.516
 3113SOL     OW 9874   3.300   1.162   4.581
 3113SOL    HW1 9875   3.230   1.096   4.581
 3113SOL    HW2 9876   3.323   1.171   4.488
 3114SOL     OW 9877   3.328   0.607   4.700
 3114SOL    HW1 9878   3.277   0.526   4.703
 3114SOL    HW2 9879   3.388   0.601   4.774
 3115SOL     OW 9880   3.706   0.816   4.107
 3115SOL    HW1 9881   3.763   0.765   4.165
 3115SOL    HW2 9882   3.679   0.753   4.040
 3116SOL     OW 9883   2.350   1.420   3.881
 3116SOL    HW1 9884   2.275   1.390   3.932
 3116SOL    HW2 9885   2.340   1.377   3.795
 3117SOL     OW 9886   3.533   1.265   4.368
 3117SOL    HW1 9887   3.628   1.266   4.383
 3117SOL    HW2 9888   3.504   1.353   4.390
 3118SOL     OW 9889   3.256   0.573   3.796
 3118SOL    HW1 9890   3.194   0.552   3.866
 3118SOL    HW2 9891   3.340   0.541   3.828
 3119SOL     OW 9892   2.385   0.265   4.044
 3119SOL    HW1 9893   2.431   0.217   3.976
 3119SOL    HW2 9894   2.363   0.349   4.005
 3120SOL     OW 9895   3.614   1.240   5.295
 3120SOL    HW1 9896   3.701   1.201   5.291
 3120SOL    HW2 9897   3.629   1.330   5.324
 3121SOL     OW 9898   2.922   1.351   5.056
 3121SOL    HW1 9899   2.847   1.322   5.108
 3121SOL    HW2 9900   2.997   1.311   5.099
 3122SOL     OW 9901   3.471   1.626   5.379
 3122SOL    HW1 9902   3.464   1.660   5.290
 3122SOL    HW2 9903   3.553   1.578   5.380
 3123SOL     OW 9904   2.991   1.203   4.828
 3123SOL    HW1 9905   2.934   1.241   4.894
 3123SOL    HW2 9906   2.958   1.237   4.745
 3124SOL     OW 9907   3.489   1.098   4.801
 3124SOL    HW1 9908   3.485   1.160   4.874
 3124SOL    HW2 9909   3.410   1.115   4.750
 3125SOL     OW 9910   2.766   0.107   5.111
 3125SOL    HW1 9911   2.796   0.073   5.027
 3125SOL    HW2 9912   2.843   0.149   5.149
 3126SOL     OW 9913   2.846   1.115   5.447
 3126SOL    HW1 9914   2.755   1.131   5.469
 3126SOL    HW2 9915   2.844   1.037   5.391
 3127SOL     OW 9916   2.572   1.063   4.095
 3127SOL    HW1 9917   2.557   1.045   4.188
 3127SOL    HW2 9918   2.647   1.009   4.071
 3128SOL     OW 9919   2.281   0.816   4.975
 3128SOL    HW1 9920   2.350   0.825   5.042
 3128SOL    HW2 9921   2.246   0.728   4.989
 3129SOL     OW 9922   3.128   0.378   4.997
 3129SOL    HW1 9923   3.161   0.455   5.044
 3129SOL    HW2 9924   3.038   0.401   4.975
 3130SOL     OW 9925   1.932   1.573   5.077
 3130SOL    HW1 9926   1.902   1.646   5.024
 3130SOL    HW2 9927   2.027   1.577   5.073
 3131SOL     OW 9928   2.209   1.111   4.213
 3131SOL    HW1 9929   2.211   1.183   4.151
 3131SOL    HW2 9930   2.207   1.032   4.159
 3132SOL     OW 9931   2.415   0.536   4.584
 3132SOL    HW1 9932   2.429   0.595   4.510
 3132SOL    HW2 9933   2.480   0.563   4.649
 3133SOL     OW 9934   3.111   1.350   4.114
 3133SOL    HW1 9935   3.166   1.422   4.144
 3133SOL    HW2 9936   3.024   1.371   4.147
 3134SOL     OW 9937   3.146   1.457   4.871
 3134SOL    HW1 9938   3.200   1.462   4.949
 3134SOL    HW2 9939   3.087   1.383   4.886
 3135SOL     OW 9940   3.443   0.622   4.204
 3135SOL    HW1 9941   3.396   0.675   4.268
 3135SOL    HW2 9942   3.488   0.685   4.148
 3136SOL     OW 9943   2.208   1.525   5.038
 3136SOL    HW1 9944   2.197   1.483   4.953
 3136SOL    HW2 9945   2.302   1.539   5.046
 3137SOL     OW 9946   2.277   0.744   5.326
 3137SOL    HW1 9947   2.338   0.789   5.268
 3137SOL    HW2 9948   2.319   0.660   5.345
 3138SOL     OW 9949   3.465   0.779   5.406
 3138SOL    HW1 9950   3.379   0.820   5.400
 3138SOL    HW2 9951   3.517   0.821   5.338
 3139SOL     OW 9952   2.911   0.117   5.510
 3139SOL    HW1 9953   2.936   0.197   5.463
 3139SOL    HW2 9954   2.913   0.049   5.444
 3140SOL     OW 9955   2.345   0.058   5.462
 3140SOL    HW1 9956   2.285   5.293   5.425
 3140SOL    HW2 9957   2.289   0.132   5.483
 3141SOL     OW 9958   2.446   0.873   4.755
 3141SOL    HW1 9959   2.477   0.963   4.756
 3141SOL    HW2 9960   2.389   0.867   4.832
 3142SOL     OW 9961   3.218   0.859   4.751
 3142SOL    HW1 9962   3.134   0.848   4.708
 3142SOL    HW2 9963   3.260   0.773   4.746
 3143SOL     OW 9964   3.066   0.528   3.990
 3143SOL    HW1 9965   3.072   0.447   4.042
 3143SOL    HW2 9966   3.023   0.591   4.048
 3144SOL     OW 9967   2.157   0.203   4.972
 3144SOL    HW1 9968   2.117   0.242   5.050
 3144SOL    HW2 9969   2.158   0.109   4.991
 3145SOL     OW 9970   1.908   1.311   5.000
 3145SOL    HW1 9971   1.941   1.257   5.072
 3145SOL    HW2 9972   1.914   1.401   5.033
 3146SOL     OW 9973   2.586   0.632   4.783
 3146SOL    HW1 9974   2.661   0.616   4.725
 3146SOL    HW2 9975   2.558   0.720   4.761
 3147SOL     OW 9976   3.597   0.959   5.577
 3147SOL    HW1 9977   3.552   0.896   5.521
 3147SOL    HW2 9978   3.538   0.974   5.651
 3148SOL     OW 9979   2.168   0.071   4.379
 3148SOL    HW1 9980   2.147   0.165   4.383
 3148SOL    HW2 9981   2.213   0.053   4.461
 3149SOL     OW 9982   3.476   0.376   4.087
 3149SOL    HW1 9983   3.508   0.312   4.150
 3149SOL    HW2 9984   3.455   0.453   4.140
 3150SOL     OW 9985   2.890   0.759   4.684
 3150SOL    HW1 9986   2.886   0.777   4.778
 3150SOL    HW2 9987   2.863   0.668   4.675
 3151SOL     OW 9988   2.845   1.567   5.441
 3151SOL    HW1 9989   2.828   1.611   5.358
 3151SOL    HW2 9990   2.887   1.485   5.417
 3152SOL     OW 9991   3.716   1.505   5.329
 3152SOL    HW1 9992   3.735   1.531   5.239
 3152SOL    HW2 9993   3.797   1.522   5.377
 3153SOL     OW 9994   2.215   0.916   5.533
 3153SOL    HW1 9995   2.297   0.935   5.579
 3153SOL    HW2 9996   2.240   0.853   5.465
 3154SOL     OW 9997   3.387   0.272   3.850
 3154SOL    HW1 9998   3.323   0.208   3.881
 3154SOL    HW2 9999   3.424   0.310   3.929
 3155SOL     OW10000   3.152   0.826   3.755
 3155SOL    HW110001   3.195   0.740   3.758
 3155SOL    HW210002   3.184   0.865   3.673
 3156SOL     OW10003   2.926   1.335   4.579
 3156SOL    HW110004   2.931   1.263   4.516
 3156SOL    HW210005   2.988   1.400   4.545
 3157SOL     OW10006   2.171   0.809   4.671
 3157SOL    HW110007   2.264   0.830   4.664
 3157SOL    HW210008   2.169   0.718   4.703
 3158SOL     OW10009   2.194   0.527   4.737
 3158SOL    HW110010   2.157   0.439   4.722
 3158SOL    HW210011   2.270   0.531   4.679
 3159SOL     OW10012   2.997   0.377   5.413
 3159SOL    HW110013   2.949   0.432   5.475
 3159SOL    HW210014   3.084   0.417   5.409
 3160SOL     OW10015   2.994   0.222   5.190
 3160SOL    HW110016   2.998   0.281   5.265
 3160SOL    HW210017   3.050   0.264   5.124
 3161SOL     OW10018   1.869   1.319   3.918
 3161SOL    HW110019   1.782   1.334   3.881
 3161SOL    HW210020   1.865   1.230   3.953
 3162SOL     OW10021   1.945   1.787   4.660
 3162SOL    HW110022   1.913   1.707   4.618
 3162SOL    HW210023   2.035   1.797   4.628
 3163SOL     OW10024   2.374   1.581   4.626
 3163SOL    HW110025   2.453   1.601   4.677
 3163SOL    HW210026   2.402   1.511   4.566
 3164SOL     OW10027   2.844   0.791   4.950
 3164SOL    HW110028   2.900   0.769   5.023
 3164SOL    HW210029   2.758   0.755   4.974
 3165SOL     OW10030   1.897   0.544   4.841
 3165SOL    HW110031   1.977   0.531   4.790
 3165SOL    HW210032   1.928   0.548   4.932
 3166SOL     OW10033   2.048   0.523   5.452
 3166SOL    HW110034   2.112   0.487   5.390
 3166SOL    HW210035   2.010   0.598   5.406
 3167SOL     OW10036   3.240   0.938   5.382
 3167SOL    HW110037   3.261   1.031   5.380
 3167SOL    HW210038   3.236   0.911   5.290
 3168SOL     OW10039   2.676   0.573   4.088
 3168SOL    HW110040   2.680   0.499   4.027
 3168SOL    HW210041   2.602   0.625   4.057
 3169SOL     OW10042   3.504   0.602   4.909
 3169SOL    HW110043   3.493   0.542   4.983
 3169SOL    HW210044   3.591   0.582   4.875
 3170SOL     OW10045   2.103   1.551   5.450
 3170SOL    HW110046   2.082   1.616   5.518
 3170SOL    HW210047   2.107   1.468   5.497
 3171SOL     OW10048   2.564   0.450   4.983
 3171SOL    HW110049   2.511   0.378   4.950
 3171SOL    HW210050   2.561   0.515   4.912
 3172SOL     OW10051   2.793   1.678   5.190
 3172SOL    HW110052   2.767   1.645   5.104
 3172SOL    HW210053   2.784   1.773   5.183
 3173SOL     OW10054   2.324   0.492   3.906
 3173SOL    HW110055   2.384   0.563   3.930
 3173SOL    HW210056   2.239   0.536   3.896
 3174SOL     OW10057   2.006   1.141   5.197
 3174SOL    HW110058   2.009   1.090   5.278
 3174SOL    HW210059   2.024   1.077   5.128
 3175SOL     OW10060   3.187   1.046   4.946
 3175SOL    HW110061   3.210   0.983   4.878
 3175SOL    HW210062   3.117   1.099   4.907
 3176SOL     OW10063   3.173   0.858   4.030
 3176SOL    HW110064   3.099   0.825   4.081
 3176SOL    HW210065   3.149   0.843   3.939
 3177SOL     OW10066   3.634   1.744   4.873
 3177SOL    HW110067   3.696   1.768   4.804
 3177SOL    HW210068   3.610   1.653   4.853
 3178SOL     OW10069   3.106   1.731   4.826
 3178SOL    HW110070   3.191   1.751   4.787
 3178SOL    HW210071   3.112   1.639   4.850
 3179SOL     OW10072   1.949   1.266   4.737
 3179SOL    HW110073   1.932   1.280   4.830
 3179SOL    HW210074   1.874   1.213   4.707
 3180SOL     OW10075   2.539   1.667   5.454
 3180SOL    HW110076   2.483   1.745   5.453
 3180SOL    HW210077   2.600   1.681   5.382
 3181SOL     OW10078   3.573   0.150   4.225
 3181SOL    HW110079   3.649   0.129   4.170
 3181SOL    HW210080   3.567   0.076   4.285
 3182SOL     OW10081   3.253   1.576   4.205
 3182SOL    HW110082   3.321   1.594   4.141
 3182SOL    HW210083   3.199   1.656   4.205
 3183SOL     OW10084   1.998   1.797   5.567
 3183SOL    HW110085   1.948   1.731   5.616
 3183SOL    HW210086   2.046   1.844   5.635
 3184SOL     OW10087   3.139   0.926   4.395
 3184SOL    HW110088   3.213   0.866   4.403
 3184SOL    HW210089   3.173   0.998   4.342
 3185SOL     OW10090   2.677   1.273   5.154
 3185SOL    HW110091   2.647   1.312   5.236
 3185SOL    HW210092   2.611   1.299   5.090
 3186SOL     OW10093   2.531   1.620   3.881
 3186SOL    HW110094   2.548   1.631   3.787
 3186SOL    HW210095   2.474   1.544   3.886
 3187SOL     OW10096   3.487   1.726   5.115
 3187SOL    HW110097   3.537   1.733   5.033
 3187SOL    HW210098   3.473   1.816   5.143
 3188SOL     OW10099   3.708   0.155   4.680
 3188SOL    HW110100   3.705   0.060   4.674
 3188SOL    HW210101   3.621   0.184   4.651
 3189SOL     OW10102   2.123   0.329   4.442
 3189SOL    HW110103   2.035   0.360   4.421
 3189SOL    HW210104   2.121   0.318   4.538
 3190SOL     OW10105   3.068   1.606   3.758
 3190SOL    HW110106   3.058   1.513   3.781
 3190SOL    HW210107   3.009   1.619   3.684
 3191SOL     OW10108   2.686   1.006   5.096
 3191SOL    HW110109   2.730   1.002   5.011
 3191SOL    HW210110   2.685   1.099   5.119
 3192SOL     OW10111   2.778   0.912   4.014
 3192SOL    HW110112   2.840   0.943   3.948
 3192SOL    HW210113   2.826   0.842   4.059
 3193SOL     OW10114   3.352   1.626   3.765
 3193SOL    HW110115   3.258   1.618   3.750
 3193SOL    HW210116   3.390   1.632   3.678
 3194SOL     OW10117   2.231   1.302   5.216
 3194SOL    HW110118   2.218   1.380   5.161
 3194SOL    HW210119   2.153   1.248   5.200
 3195SOL     OW10120   3.472   1.283   5.004
 3195SOL    HW110121   3.531   1.271   5.079
 3195SOL    HW210122   3.412   1.351   5.033
 3196SOL     OW10123   2.916   1.108   4.430
 3196SOL    HW110124   2.844   1.057   4.469
 3196SOL    HW210125   2.979   1.042   4.401
 3197SOL     OW10126   2.881   0.244   4.693
 3197SOL    HW110127   2.861   0.198   4.611
 3197SOL    HW210128   2.874   0.176   4.760
 3198SOL     OW10129   2.466   1.491   4.203
 3198SOL    HW110130   2.511   1.439   4.136
 3198SOL    HW210131   2.389   1.525   4.159
 3199SOL     OW10132   3.587   0.386   5.102
 3199SOL    HW110133   3.658   0.451   5.101
 3199SOL    HW210134   3.619   0.317   5.044
 3200SOL     OW10135   2.122   1.345   4.016
 3200SOL    HW110136   2.030   1.342   3.991
 3200SOL    HW210137   2.122   1.382   4.104
 3201SOL     OW10138   1.975   1.022   5.443
 3201SOL    HW110139   1.899   0.999   5.497
 3201SOL    HW210140   2.049   0.985   5.490
 3202SOL     OW10141   2.535   0.212   5.214
 3202SOL    HW110142   2.618   0.196   5.169
 3202SOL    HW210143   2.559   0.263   5.291
 3203SOL     OW10144   1.940   0.338   3.765
 3203SOL    HW110145   1.856   0.305   3.733
 3203SOL    HW210146   1.960   0.412   3.708
 3204SOL     OW10147   3.291   0.858   5.124
 3204SOL    HW110148   3.242   0.919   5.068
 3204SOL    HW210149   3.380   0.861   5.089
 3205SOL     OW10150   1.933   0.167   4.038
 3205SOL    HW110151   1.935   0.250   3.991
 3205SOL    HW210152   2.018   0.126   4.019
 3206SOL     OW10153   3.041   1.339   3.841
 3206SOL    HW110154   2.952   1.304   3.844
 3206SOL    HW210155   3.069   1.339   3.933
 3207SOL     OW10156   2.482   0.830   5.157
 3207SOL    HW110157   2.537   0.907   5.143
 3207SOL    HW210158   2.543   0.757   5.166
 3208SOL     OW10159   3.348   1.776   4.699
 3208SOL    HW110160   3.376   1.836   4.630
 3208SOL    HW210161   3.427   1.760   4.751
 3209SOL     OW10162   2.577   0.573   5.425
 3209SOL    HW110163   2.619   0.636   5.484
 3209SOL    HW210164   2.606   0.487   5.457
 3210SOL     OW10165   3.334   1.199   5.355
 3210SOL    HW110166   3.322   1.213   5.449
 3210SOL    HW210167   3.428   1.215   5.341
 3211SOL     OW10168   2.238   1.739   5.287
 3211SOL    HW110169   2.153   1.782   5.273
 3211SOL    HW210170   2.216   1.657   5.329
 3212SOL     OW10171   3.531   0.881   4.979
 3212SOL    HW110172   3.525   0.796   4.936
 3212SOL    HW210173   3.521   0.944   4.908
 3213SOL     OW10174   3.082   0.319   4.189
 3213SOL    HW110175   3.145   0.247   4.183
 3213SOL    HW210176   3.113   0.370   4.264
 3214SOL     OW10177   2.451   0.738   4.395
 3214SOL    HW110178   2.490   0.823   4.378
 3214SOL    HW210179   2.384   0.729   4.327
 3215SOL     OW10180   3.628   0.362   5.373
 3215SOL    HW110181   3.608   0.377   5.280
 3215SOL    HW210182   3.556   0.306   5.404
 3216SOL     OW10183   3.608   0.934   5.236
 3216SOL    HW110184   3.603   1.028   5.249
 3216SOL    HW210185   3.592   0.922   5.142
 3217SOL     OW10186   2.723   1.367   3.758
 3217SOL    HW110187   2.686   1.394   3.842
 3217SOL    HW210188   2.741   1.449   3.713
 3218SOL     OW10189   2.730   0.968   4.579
 3218SOL    HW110190   2.780   0.896   4.617
 3218SOL    HW210191   2.694   1.016   4.653
 3219SOL     OW10192   2.942   0.990   3.813
 3219SOL    HW110193   2.919   1.039   3.733
 3219SOL    HW210194   3.015   0.935   3.787
 3220SOL     OW10195   3.714   1.555   4.569
 3220SOL    HW110196   3.636   1.541   4.515
 3220SOL    HW210197   3.709   1.488   4.637
 3221SOL     OW10198   2.087   1.303   5.580
 3221SOL    HW110199   2.020   1.241   5.550
 3221SOL    HW210200   2.070   1.315   5.673
 3222SOL     OW10201   1.948   1.233   4.388
 3222SOL    HW110202   1.952   1.186   4.471
 3222SOL    HW210203   2.015   1.191   4.334
 3223SOL     OW10204   2.544   1.404   5.352
 3223SOL    HW110205   2.464   1.362   5.384
 3223SOL    HW210206   2.540   1.492   5.389
 3224SOL     OW10207   3.674   0.176   4.956
 3224SOL    HW110208   3.639   0.087   4.959
 3224SOL    HW210209   3.695   0.190   4.863
 3225SOL     OW10210   2.292   0.436   4.248
 3225SOL    HW110211   2.324   0.363   4.195
 3225SOL    HW210212   2.244   0.394   4.320
 3226SOL     OW10213   3.562   1.489   4.820
 3226SOL    HW110214   3.481   1.466   4.773
 3226SOL    HW210215   3.572   1.420   4.885
 3227SOL     OW10216   2.191   0.557   5.015
 3227SOL    HW110217   2.247   0.502   5.070
 3227SOL    HW210218   2.211   0.530   4.925
 3228SOL     OW10219   2.689   1.571   4.400
 3228SOL    HW110220   2.672   1.615   4.316
 3228SOL    HW210221   2.613   1.514   4.412
 3229SOL     OW10222   3.290   0.219   4.840
 3229SOL    HW110223   3.326   0.144   4.888
 3229SOL    HW210224   3.241   0.268   4.906
 3230SOL     OW10225   2.865   0.021   4.863
 3230SOL    HW110226   2.814   5.252   4.820
 3230SOL    HW210227   2.951   5.282   4.877
 3231SOL     OW10228   2.636   1.334   4.040
 3231SOL    HW110229   2.603   1.244   4.044
 3231SOL    HW210230   2.718   1.332   4.089
 3232SOL     OW10231   2.479   1.559   5.005
 3232SOL    HW110232   2.483   1.639   5.058
 3232SOL    HW210233   2.569   1.546   4.974
 3233SOL     OW10234   3.218   0.037   3.887
 3233SOL    HW110235   3.252   5.295   3.808
 3233SOL    HW210236   3.138   5.289   3.907
 3234SOL     OW10237   3.163   0.464   4.408
 3234SOL    HW110238   3.108   0.543   4.413
 3234SOL    HW210239   3.156   0.424   4.495
 3235SOL     OW10240   3.456   0.215   4.606
 3235SOL    HW110241   3.391   0.227   4.675
 3235SOL    HW210242   3.449   0.294   4.552
 3236SOL     OW10243   1.906   1.070   4.031
 3236SOL    HW110244   1.999   1.061   4.012
 3236SOL    HW210245   1.877   0.981   4.053
 3237SOL     OW10246   2.735   1.660   4.074
 3237SOL    HW110247   2.674   1.627   4.008
 3237SOL    HW210248   2.699   1.744   4.101
 3238SOL     OW10249   2.089   0.625   5.710
 3238SOL    HW110250   2.001   0.622   5.746
 3238SOL    HW210251   2.079   0.599   5.618
 3239SOL     OW10252   2.080   0.285   6.579
 3239SOL    HW110253   2.108   0.249   6.663
 3239SOL    HW210254   1.995   0.243   6.562
 3240SOL     OW10255   1.865   0.387   6.224
 3240SOL    HW110256   1.781   0.408   6.264
 3240SOL    HW210257   1.847   0.310   6.170
 3241SOL     OW10258   2.429   1.290   6.763
 3241SOL    HW110259   2.342   1.294   6.723
 3241SOL    HW210260   2.445   1.378   6.795
 3242SOL     OW10261   3.425   1.512   6.293
 3242SOL    HW110262   3.382   1.491   6.376
 3242SOL    HW210263   3.353   1.516   6.230
 3243SOL     OW10264   2.994   0.697   6.287
 3243SOL    HW110265   3.042   0.779   6.272
 3243SOL    HW210266   2.946   0.712   6.368
 3244SOL     OW10267   3.630   0.605   5.814
 3244SOL    HW110268   3.609   0.598   5.721
 3244SOL    HW210269   3.594   0.525   5.853
 3245SOL     OW10270   2.616   1.141   6.628
 3245SOL    HW110271   2.547   1.177   6.685
 3245SOL    HW210272   2.652   1.218   6.583
 3246SOL     OW10273   2.728   0.777   7.406
 3246SOL    HW110274   2.716   0.851   7.466
 3246SOL    HW210275   2.755   0.816   7.323
 3247SOL     OW10276   2.548   1.002   6.232
 3247SOL    HW110277   2.613   0.991   6.301
 3247SOL    HW210278   2.479   1.054   6.272
 3248SOL     OW10279   2.573   1.151   7.399
 3248SOL    HW110280   2.621   1.229   7.427
 3248SOL    HW210281   2.491   1.185   7.363
 3249SOL     OW10282   2.192   1.424   6.653
 3249SOL    HW110283   2.120   1.386   6.604
 3249SOL    HW210284   2.242   1.475   6.589
 3250SOL     OW10285   3.323   1.500   6.942
 3250SOL    HW110286   3.374   1.580   6.951
 3250SOL    HW210287   3.259   1.504   7.013
 3251SOL     OW10288   2.307   0.398   7.071
 3251SOL    HW110289   2.382   0.338   7.070
 3251SOL    HW210290   2.231   0.341   7.086
 3252SOL     OW10291   3.472   0.451   6.325
 3252SOL    HW110292   3.396   0.473   6.270
 3252SOL    HW210293   3.488   0.530   6.376
 3253SOL     OW10294   2.081   1.715   6.057
 3253SOL    HW110295   2.103   1.791   6.111
 3253SOL    HW210296   2.155   1.706   5.997
 3254SOL     OW10297   2.998   1.341   7.276
 3254SOL    HW110298   3.039   1.338   7.363
 3254SOL    HW210299   2.947   1.261   7.271
 3255SOL     OW10300   2.092   1.442   6.121
 3255SOL    HW110301   2.076   1.536   6.124
 3255SOL    HW210302   2.032   1.405   6.186
 3256SOL     OW10303   2.121   1.090   6.477
 3256SOL    HW110304   2.117   1.003   6.517
 3256SOL    HW210305   2.063   1.144   6.531
 3257SOL     OW10306   2.470   1.791   7.012
 3257SOL    HW110307   2.390   1.773   7.061
 3257SOL    HW210308   2.495   1.880   7.038
 3258SOL     OW10309   2.446   0.983   5.721
 3258SOL    HW110310   2.493   1.030   5.652
 3258SOL    HW210311   2.486   1.013   5.803
 3259SOL     OW10312   3.449   0.136   7.042
 3259SOL    HW110313   3.473   0.221   7.003
 3259SOL    HW210314   3.444   0.153   7.136
 3260SOL     OW10315   1.977   0.654   6.146
 3260SOL    HW110316   1.949   0.565   6.167
 3260SOL    HW210317   1.969   0.702   6.228
 3261SOL     OW10318   3.705   1.758   5.920
 3261SOL    HW110319   3.770   1.730   5.984
 3261SOL    HW210320   3.727   1.849   5.901
 3262SOL     OW10321   1.895   1.594   5.710
 3262SOL    HW110322   1.877   1.502   5.730
 3262SOL    HW210323   1.871   1.641   5.790
 3263SOL     OW10324   3.551   0.919   6.228
 3263SOL    HW110325   3.634   0.875   6.206
 3263SOL    HW210326   3.529   0.969   6.150
 3264SOL     OW10327   3.508   1.106   6.015
 3264SOL    HW110328   3.594   1.111   5.974
 3264SOL    HW210329   3.514   1.168   6.088
 3265SOL     OW10330   1.985   0.744   7.171
 3265SOL    HW110331   2.077   0.771   7.177
 3265SOL    HW210332   1.935   0.825   7.179
 3266SOL     OW10333   2.475   1.387   6.321
 3266SOL    HW110334   2.430   1.303   6.330
 3266SOL    HW210335   2.459   1.413   6.231
 3267SOL     OW10336   3.150   1.238   7.009
 3267SOL    HW110337   3.182   1.170   6.949
 3267SOL    HW210338   3.208   1.232   7.085
 3268SOL     OW10339   2.674   0.029   6.116
 3268SOL    HW110340   2.703   0.117   6.089
 3268SOL    HW210341   2.578   0.032   6.109
 3269SOL     OW10342   2.051   0.965   6.859
 3269SOL    HW110343   2.137   0.924   6.844
 3269SOL    HW210344   1.990   0.912   6.808
 3270SOL     OW10345   3.393   0.994   5.785
 3270SOL    HW110346   3.324   0.937   5.817
 3270SOL    HW210347   3.435   1.029   5.864
 3271SOL     OW10348   3.047   1.808   7.208
 3271SOL    HW110349   3.056   1.867   7.134
 3271SOL    HW210350   3.064   1.721   7.172
 3272SOL     OW10351   2.190   0.263   7.405
 3272SOL    HW110352   2.241   0.341   7.429
 3272SOL    HW210353   2.102   0.281   7.439
 3273SOL     OW10354   3.329   1.419   6.537
 3273SOL    HW110355   3.261   1.435   6.602
 3273SOL    HW210356   3.316   1.328   6.510
 3274SOL     OW10357   3.519   1.742   6.164
 3274SOL    HW110358   3.501   1.712   6.075
 3274SOL    HW210359   3.495   1.668   6.220
 3275SOL     OW10360   2.457   0.721   5.853
 3275SOL    HW110361   2.462   0.802   5.803
 3275SOL    HW210362   2.391   0.738   5.921
 3276SOL     OW10363   3.140   0.348   6.517
 3276SOL    HW110364   3.049   0.320   6.530
 3276SOL    HW210365   3.190   0.298   6.581
 3277SOL     OW10366   3.442   1.671   5.895
 3277SOL    HW110367   3.533   1.701   5.888
 3277SOL    HW210368   3.415   1.654   5.805
 3278SOL     OW10369   2.656   0.618   7.035
 3278SOL    HW110370   2.628   0.597   7.124
 3278SOL    HW210371   2.614   0.551   6.981
 3279SOL     OW10372   3.257   0.475   7.264
 3279SOL    HW110373   3.258   0.520   7.349
 3279SOL    HW210374   3.319   0.403   7.273
 3280SOL     OW10375   2.816   0.887   7.169
 3280SOL    HW110376   2.871   0.818   7.132
 3280SOL    HW210377   2.768   0.922   7.093
 3281SOL     OW10378   2.856   0.417   6.821
 3281SOL    HW110379   2.770   0.438   6.857
 3281SOL    HW210380   2.836   0.369   6.740
 3282SOL     OW10381   2.914   0.697   6.012
 3282SOL    HW110382   2.929   0.691   6.106
 3282SOL    HW210383   2.830   0.652   5.998
 3283SOL     OW10384   1.950   0.821   6.363
 3283SOL    HW110385   2.031   0.814   6.414
 3283SOL    HW210386   1.907   0.899   6.398
 3284SOL     OW10387   1.988   1.854   7.166
 3284SOL    HW110388   1.990   1.832   7.259
 3284SOL    HW210389   1.898   1.837   7.139
 3285SOL     OW10390   2.738   0.366   5.775
 3285SOL    HW110391   2.777   0.425   5.711
 3285SOL    HW210392   2.795   0.289   5.773
 3286SOL     OW10393   3.570   0.574   7.415
 3286SOL    HW110394   3.533   0.648   7.367
 3286SOL    HW210395   3.599   0.513   7.347
 3287SOL     OW10396   3.239   1.142   6.127
 3287SOL    HW110397   3.318   1.130   6.074
 3287SOL    HW210398   3.186   1.204   6.077
 3288SOL     OW10399   2.387   0.202   6.468
 3288SOL    HW110400   2.409   0.218   6.559
 3288SOL    HW210401   2.408   0.284   6.423
 3289SOL     OW10402   2.867   1.444   6.057
 3289SOL    HW110403   2.830   1.517   6.007
 3289SOL    HW210404   2.847   1.465   6.149
 3290SOL     OW10405   2.216   1.810   6.450
 3290SOL    HW110406   2.260   1.725   6.457
 3290SOL    HW210407   2.286   1.874   6.467
 3291SOL     OW10408   3.662   1.056   6.455
 3291SOL    HW110409   3.608   1.037   6.378
 3291SOL    HW210410   3.599   1.062   6.527
 3292SOL     OW10411   3.090   1.539   7.098
 3292SOL    HW110412   3.076   1.466   7.160
 3292SOL    HW210413   3.025   1.525   7.030
 3293SOL     OW10414   2.181   0.958   5.837
 3293SOL    HW110415   2.263   0.977   5.792
 3293SOL    HW210416   2.151   0.876   5.798
 3294SOL     OW10417   3.342   0.744   6.312
 3294SOL    HW110418   3.334   0.702   6.398
 3294SOL    HW210419   3.419   0.800   6.319
 3295SOL     OW10420   2.328   1.264   7.323
 3295SOL    HW110421   2.301   1.269   7.232
 3295SOL    HW210422   2.246   1.263   7.372
 3296SOL     OW10423   2.985   1.777   5.817
 3296SOL    HW110424   2.910   1.738   5.861
 3296SOL    HW210425   3.008   1.716   5.748
 3297SOL     OW10426   2.059   0.278   7.089
 3297SOL    HW110427   1.980   0.332   7.085
 3297SOL    HW210428   2.049   0.227   7.170
 3298SOL     OW10429   3.490   1.380   5.674
 3298SOL    HW110430   3.449   1.465   5.659
 3298SOL    HW210431   3.422   1.316   5.655
 3299SOL     OW10432   2.328   1.734   5.909
 3299SOL    HW110433   2.371   1.795   5.970
 3299SOL    HW210434   2.398   1.707   5.849
 3300SOL     OW10435   3.270   0.100   6.018
 3300SOL    HW110436   3.262   0.081   5.924
 3300SOL    HW210437   3.362   0.122   6.031
 3301SOL     OW10438   2.118   1.791   6.817
 3301SOL    HW110439   2.169   1.725   6.863
 3301SOL    HW210440   2.109   1.757   6.728
 3302SOL     OW10441   2.799   1.698   6.484
 3302SOL    HW110442   2.878   1.648   6.505
 3302SOL    HW210443   2.756   1.649   6.415
 3303SOL     OW10444   2.255   0.696   6.061
 3303SOL    HW110445   2.275   0.603   6.072
 3303SOL    HW210446   2.161   0.703   6.079
 3304SOL     OW10447   3.400   0.227   7.310
 3304SOL    HW110448   3.407   0.245   7.404
 3304SOL    HW210449   3.323   0.170   7.302
 3305SOL     OW10450   2.486   0.132   5.694
 3305SOL    HW110451   2.548   0.063   5.719
 3305SOL    HW210452   2.434   0.093   5.623
 3306SOL     OW10453   2.640   0.312   7.351
 3306SOL    HW110454   2.701   0.239   7.352
 3306SOL    HW210455   2.601   0.312   7.438
 3307SOL     OW10456   2.737   1.521   6.780
 3307SOL    HW110457   2.722   1.485   6.693
 3307SOL    HW210458   2.808   1.467   6.816
 3308SOL     OW10459   3.203   0.589   7.018
 3308SOL    HW110460   3.233   0.558   7.103
 3308SOL    HW210461   3.238   0.677   7.010
 3309SOL     OW10462   2.678   1.394   6.526
 3309SOL    HW110463   2.762   1.382   6.483
 3309SOL    HW210464   2.614   1.396   6.455
 3310SOL     OW10465   2.790   0.510   6.489
 3310SOL    HW110466   2.765   0.502   6.397
 3310SOL    HW210467   2.820   0.423   6.513
 3311SOL     OW10468   2.404   0.062   6.093
 3311SOL    HW110469   2.319   0.060   6.137
 3311SOL    HW210470   2.397   0.132   6.028
 3312SOL     OW10471   3.290   1.199   5.627
 3312SOL    HW110472   3.320   1.123   5.677
 3312SOL    HW210473   3.204   1.220   5.664
 3313SOL     OW10474   2.163   0.063   5.778
 3313SOL    HW110475   2.221   0.134   5.749
 3313SOL    HW210476   2.220   5.287   5.784
 3314SOL     OW10477   2.801   0.263   6.048
 3314SOL    HW110478   2.774   0.300   5.964
 3314SOL    HW210479   2.897   0.275   6.048
 3315SOL     OW10480   2.943   0.682   7.045
 3315SOL    HW110481   2.875   0.615   7.050
 3315SOL    HW210482   3.025   0.633   7.039
 3316SOL     OW10483   3.085   1.570   6.380
 3316SOL    HW110484   3.100   1.637   6.313
 3316SOL    HW210485   3.153   1.586   6.445
 3317SOL     OW10486   2.331   1.150   6.318
 3317SOL    HW110487   2.262   1.130   6.382
 3317SOL    HW210488   2.291   1.134   6.233
 3318SOL     OW10489   3.130   1.794   6.195
 3318SOL    HW110490   3.176   1.855   6.138
 3318SOL    HW210491   3.063   1.846   6.238
 3319SOL     OW10492   2.887   0.545   5.609
 3319SOL    HW110493   2.844   0.629   5.591
 3319SOL    HW210494   2.950   0.565   5.678
 3320SOL     OW10495   1.942   0.552   6.980
 3320SOL    HW110496   2.033   0.553   6.952
 3320SOL    HW210497   1.936   0.623   7.044
 3321SOL     OW10498   2.416   0.238   6.744
 3321SOL    HW110499   2.449   0.153   6.773
 3321SOL    HW210500   2.324   0.239   6.770
 3322SOL     OW10501   2.728   0.463   6.227
 3322SOL    HW110502   2.682   0.517   6.163
 3322SOL    HW210503   2.752   0.383   6.179
 3323SOL     OW10504   2.840   0.061   6.349
 3323SOL    HW110505   2.775   0.057   6.279
 3323SOL    HW210506   2.850   5.270   6.378
 3324SOL     OW10507   3.300   1.162   6.443
 3324SOL    HW110508   3.229   1.097   6.442
 3324SOL    HW210509   3.324   1.173   6.351
 3325SOL     OW10510   3.328   0.607   6.562
 3325SOL    HW110511   3.277   0.526   6.565
 3325SOL    HW210512   3.388   0.601   6.636
 3326SOL     OW10513   3.707   0.816   5.969
 3326SOL    HW110514   3.763   0.765   6.027
 3326SOL    HW210515   3.679   0.753   5.902
 3327SOL     OW10516   2.352   1.419   5.741
 3327SOL    HW110517   2.277   1.390   5.793
 3327SOL    HW210518   2.340   1.377   5.656
 3328SOL     OW10519   3.533   1.264   6.231
 3328SOL    HW110520   3.628   1.267   6.245
 3328SOL    HW210521   3.503   1.352   6.252
 3329SOL     OW10522   3.256   0.572   5.657
 3329SOL    HW110523   3.194   0.552   5.728
 3329SOL    HW210524   3.340   0.542   5.690
 3330SOL     OW10525   2.385   0.265   5.907
 3330SOL    HW110526   2.431   0.217   5.838
 3330SOL    HW210527   2.363   0.349   5.867
 3331SOL     OW10528   3.614   1.240   7.157
 3331SOL    HW110529   3.701   1.201   7.152
 3331SOL    HW210530   3.629   1.330   7.186
 3332SOL     OW10531   2.920   1.353   6.919
 3332SOL    HW110532   2.845   1.322   6.970
 3332SOL    HW210533   2.996   1.312   6.960
 3333SOL     OW10534   3.470   1.626   7.239
 3333SOL    HW110535   3.464   1.660   7.150
 3333SOL    HW210536   3.553   1.577   7.241
 3334SOL     OW10537   2.992   1.204   6.691
 3334SOL    HW110538   2.933   1.242   6.756
 3334SOL    HW210539   2.960   1.237   6.607
 3335SOL     OW10540   3.489   1.098   6.663
 3335SOL    HW110541   3.484   1.160   6.735
 3335SOL    HW210542   3.411   1.115   6.611
 3336SOL     OW10543   2.765   0.107   6.974
 3336SOL    HW110544   2.796   0.073   6.889
 3336SOL    HW210545   2.843   0.149   7.011
 3337SOL     OW10546   2.846   1.114   7.311
 3337SOL    HW110547   2.754   1.131   7.330
 3337SOL    HW210548   2.845   1.037   7.255
 3338SOL     OW10549   2.571   1.062   5.957
 3338SOL    HW110550   2.557   1.044   6.050
 3338SOL    HW210551   2.647   1.008   5.934
 3339SOL     OW10552   2.281   0.816   6.838
 3339SOL    HW110553   2.350   0.825   6.904
 3339SOL    HW210554   2.246   0.728   6.851
 3340SOL     OW10555   3.128   0.378   6.859
 3340SOL    HW110556   3.161   0.455   6.906
 3340SOL    HW210557   3.038   0.401   6.837
 3341SOL     OW10558   1.934   1.573   6.940
 3341SOL    HW110559   1.905   1.646   6.884
 3341SOL    HW210560   2.029   1.575   6.934
 3342SOL     OW10561   2.208   1.111   6.076
 3342SOL    HW110562   2.215   1.184   6.015
 3342SOL    HW210563   2.206   1.033   6.020
 3343SOL     OW10564   2.415   0.537   6.446
 3343SOL    HW110565   2.429   0.595   6.372
 3343SOL    HW210566   2.481   0.563   6.510
 3344SOL     OW10567   3.110   1.348   5.976
 3344SOL    HW110568   3.166   1.420   6.006
 3344SOL    HW210569   3.023   1.370   6.009
 3345SOL     OW10570   3.145   1.458   6.733
 3345SOL    HW110571   3.200   1.461   6.811
 3345SOL    HW210572   3.089   1.381   6.747
 3346SOL     OW10573   3.443   0.622   6.066
 3346SOL    HW110574   3.396   0.675   6.130
 3346SOL    HW210575   3.488   0.686   6.010
 3347SOL     OW10576   2.208   1.528   6.900
 3347SOL    HW110577   2.196   1.485   6.815
 3347SOL    HW210578   2.303   1.540   6.908
 3348SOL     OW10579   2.277   0.744   7.188
 3348SOL    HW110580   2.338   0.790   7.130
 3348SOL    HW210581   2.319   0.660   7.206
 3349SOL     OW10582   3.464   0.779   7.269
 3349SOL    HW110583   3.379   0.820   7.262
 3349SOL    HW210584   3.517   0.821   7.201
 3350SOL     OW10585   2.907   0.117   7.374
 3350SOL    HW110586   2.936   0.196   7.329
 3350SOL    HW210587   2.913   0.048   7.307
 3351SOL     OW10588   2.345   0.057   7.323
 3351SOL    HW110589   2.285   5.293   7.287
 3351SOL    HW210590   2.289   0.132   7.346
 3352SOL     OW10591   2.446   0.873   6.618
 3352SOL    HW110592   2.477   0.963   6.617
 3352SOL    HW210593   2.389   0.868   6.694
 3353SOL     OW10594   3.218   0.859   6.614
 3353SOL    HW110595   3.134   0.849   6.569
 3353SOL    HW210596   3.260   0.773   6.608
 3354SOL     OW10597   3.067   0.528   5.852
 3354SOL    HW110598   3.071   0.447   5.904
 3354SOL    HW210599   3.024   0.591   5.910
 3355SOL     OW10600   2.158   0.203   6.834
 3355SOL    HW110601   2.117   0.242   6.912
 3355SOL    HW210602   2.158   0.109   6.853
 3356SOL     OW10603   1.908   1.311   6.862
 3356SOL    HW110604   1.941   1.256   6.933
 3356SOL    HW210605   1.914   1.400   6.895
 3357SOL     OW10606   2.587   0.632   6.645
 3357SOL    HW110607   2.661   0.616   6.587
 3357SOL    HW210608   2.558   0.720   6.623
 3358SOL     OW10609   3.598   0.960   7.439
 3358SOL    HW110610   3.550   0.897   7.384
 3358SOL    HW210611   3.540   0.975   7.514
 3359SOL     OW10612   2.168   0.071   6.241
 3359SOL    HW110613   2.147   0.165   6.245
 3359SOL    HW210614   2.214   0.053   6.323
 3360SOL     OW10615   3.475   0.376   5.949
 3360SOL    HW110616   3.508   0.312   6.012
 3360SOL    HW210617   3.455   0.453   6.002
 3361SOL     OW10618   2.890   0.759   6.546
 3361SOL    HW110619   2.886   0.777   6.640
 3361SOL    HW210620   2.863   0.668   6.537
 3362SOL     OW10621   2.843   1.565   7.303
 3362SOL    HW110622   2.829   1.610   7.220
 3362SOL    HW210623   2.888   1.484   7.280
 3363SOL     OW10624   3.716   1.505   7.191
 3363SOL    HW110625   3.735   1.531   7.101
 3363SOL    HW210626   3.797   1.522   7.238
 3364SOL     OW10627   2.215   0.914   7.396
 3364SOL    HW110628   2.298   0.935   7.439
 3364SOL    HW210629   2.239   0.852   7.327
 3365SOL     OW10630   3.388   0.271   5.712
 3365SOL    HW110631   3.323   0.208   5.743
 3365SOL    HW210632   3.424   0.310   5.791
 3366SOL     OW10633   3.153   0.826   5.617
 3366SOL    HW110634   3.195   0.740   5.620
 3366SOL    HW210635   3.184   0.865   5.535
 3367SOL     OW10636   2.928   1.336   6.441
 3367SOL    HW110637   2.932   1.264   6.378
 3367SOL    HW210638   2.989   1.401   6.406
 3368SOL     OW10639   2.171   0.809   6.533
 3368SOL    HW110640   2.264   0.830   6.526
 3368SOL    HW210641   2.169   0.718   6.565
 3369SOL     OW10642   2.194   0.527   6.599
 3369SOL    HW110643   2.157   0.440   6.584
 3369SOL    HW210644   2.270   0.531   6.542
 3370SOL     OW10645   2.997   0.376   7.275
 3370SOL    HW110646   2.950   0.431   7.337
 3370SOL    HW210647   3.084   0.416   7.270
 3371SOL     OW10648   2.994   0.222   7.052
 3371SOL    HW110649   2.998   0.280   7.127
 3371SOL    HW210650   3.050   0.263   6.986
 3372SOL     OW10651   1.867   1.321   5.781
 3372SOL    HW110652   1.780   1.335   5.744
 3372SOL    HW210653   1.864   1.231   5.815
 3373SOL     OW10654   1.952   1.786   6.525
 3373SOL    HW110655   1.922   1.707   6.480
 3373SOL    HW210656   2.042   1.799   6.494
 3374SOL     OW10657   2.357   1.574   6.491
 3374SOL    HW110658   2.426   1.636   6.516
 3374SOL    HW210659   2.401   1.511   6.434
 3375SOL     OW10660   2.843   0.791   6.812
 3375SOL    HW110661   2.900   0.769   6.886
 3375SOL    HW210662   2.758   0.754   6.835
 3376SOL     OW10663   1.897   0.544   6.703
 3376SOL    HW110664   1.977   0.531   6.651
 3376SOL    HW210665   1.928   0.548   6.794
 3377SOL     OW10666   2.050   0.521   7.314
 3377SOL    HW110667   2.113   0.487   7.251
 3377SOL    HW210668   2.010   0.596   7.269
 3378SOL     OW10669   3.240   0.938   7.245
 3378SOL    HW110670   3.261   1.031   7.243
 3378SOL    HW210671   3.236   0.912   7.153
 3379SOL     OW10672   2.676   0.573   5.950
 3379SOL    HW110673   2.680   0.499   5.889
 3379SOL    HW210674   2.602   0.625   5.919
 3380SOL     OW10675   3.504   0.601   6.771
 3380SOL    HW110676   3.493   0.542   6.845
 3380SOL    HW210677   3.591   0.581   6.737
 3381SOL     OW10678   2.103   1.551   7.312
 3381SOL    HW110679   2.083   1.616   7.380
 3381SOL    HW210680   2.108   1.468   7.360
 3382SOL     OW10681   2.563   0.451   6.845
 3382SOL    HW110682   2.511   0.378   6.812
 3382SOL    HW210683   2.561   0.515   6.774
 3383SOL     OW10684   2.788   1.679   7.054
 3383SOL    HW110685   2.763   1.644   6.969
 3383SOL    HW210686   2.784   1.774   7.043
 3384SOL     OW10687   2.324   0.492   5.768
 3384SOL    HW110688   2.384   0.563   5.792
 3384SOL    HW210689   2.239   0.536   5.758
 3385SOL     OW10690   2.006   1.141   7.059
 3385SOL    HW110691   2.009   1.090   7.140
 3385SOL    HW210692   2.024   1.077   6.990
 3386SOL     OW10693   3.187   1.046   6.808
 3386SOL    HW110694   3.210   0.983   6.741
 3386SOL    HW210695   3.117   1.099   6.769
 3387SOL     OW10696   3.174   0.857   5.892
 3387SOL    HW110697   3.099   0.826   5.942
 3387SOL    HW210698   3.149   0.843   5.801
 3388SOL     OW10699   3.635   1.743   6.737
 3388SOL    HW110700   3.695   1.769   6.667
 3388SOL    HW210701   3.610   1.653   6.715
 3389SOL     OW10702   3.103   1.733   6.697
 3389SOL    HW110703   3.185   1.754   6.653
 3389SOL    HW210704   3.110   1.639   6.716
 3390SOL     OW10705   1.946   1.267   6.598
 3390SOL    HW110706   1.931   1.280   6.691
 3390SOL    HW210707   1.873   1.212   6.569
 3391SOL     OW10708   2.538   1.666   7.315
 3391SOL    HW110709   2.487   1.746   7.314
 3391SOL    HW210710   2.607   1.680   7.250
 3392SOL     OW10711   3.574   0.150   6.087
 3392SOL    HW110712   3.649   0.130   6.032
 3392SOL    HW210713   3.567   0.076   6.147
 3393SOL     OW10714   3.253   1.568   6.072
 3393SOL    HW110715   3.313   1.600   6.005
 3393SOL    HW210716   3.204   1.645   6.100
 3394SOL     OW10717   1.999   1.796   7.430
 3394SOL    HW110718   1.948   1.731   7.479
 3394SOL    HW210719   2.047   1.844   7.497
 3395SOL     OW10720   3.139   0.926   6.257
 3395SOL    HW110721   3.213   0.865   6.264
 3395SOL    HW210722   3.173   0.998   6.204
 3396SOL     OW10723   2.675   1.273   7.015
 3396SOL    HW110724   2.646   1.313   7.097
 3396SOL    HW210725   2.606   1.296   6.952
 3397SOL     OW10726   2.534   1.619   5.742
 3397SOL    HW110727   2.544   1.635   5.648
 3397SOL    HW210728   2.478   1.542   5.748
 3398SOL     OW10729   3.487   1.727   6.977
 3398SOL    HW110730   3.537   1.734   6.895
 3398SOL    HW210731   3.473   1.818   7.004
 3399SOL     OW10732   3.708   0.155   6.543
 3399SOL    HW110733   3.705   0.060   6.535
 3399SOL    HW210734   3.622   0.185   6.513
 3400SOL     OW10735   2.123   0.329   6.304
 3400SOL    HW110736   2.035   0.360   6.283
 3400SOL    HW210737   2.121   0.318   6.400
 3401SOL     OW10738   3.070   1.605   5.618
 3401SOL    HW110739   3.059   1.514   5.644
 3401SOL    HW210740   3.004   1.618   5.549
 3402SOL     OW10741   2.686   1.006   6.958
 3402SOL    HW110742   2.730   1.001   6.874
 3402SOL    HW210743   2.685   1.099   6.980
 3403SOL     OW10744   2.778   0.910   5.877
 3403SOL    HW110745   2.839   0.943   5.810
 3403SOL    HW210746   2.826   0.841   5.921
 3404SOL     OW10747   3.353   1.626   5.629
 3404SOL    HW110748   3.259   1.619   5.615
 3404SOL    HW210749   3.390   1.632   5.541
 3405SOL     OW10750   2.230   1.303   7.078
 3405SOL    HW110751   2.217   1.380   7.022
 3405SOL    HW210752   2.153   1.249   7.061
 3406SOL     OW10753   3.472   1.283   6.866
 3406SOL    HW110754   3.532   1.271   6.941
 3406SOL    HW210755   3.412   1.352   6.895
 3407SOL     OW10756   2.916   1.108   6.294
 3407SOL    HW110757   2.844   1.057   6.332
 3407SOL    HW210758   2.978   1.042   6.263
 3408SOL     OW10759   2.881   0.244   6.555
 3408SOL    HW110760   2.861   0.198   6.473
 3408SOL    HW210761   2.874   0.176   6.622
 3409SOL     OW10762   2.465   1.488   6.067
 3409SOL    HW110763   2.511   1.438   5.999
 3409SOL    HW210764   2.397   1.536   6.020
 3410SOL     OW10765   3.588   0.386   6.964
 3410SOL    HW110766   3.658   0.451   6.963
 3410SOL    HW210767   3.619   0.316   6.906
 3411SOL     OW10768   2.122   1.344   5.875
 3411SOL    HW110769   2.029   1.342   5.852
 3411SOL    HW210770   2.124   1.381   5.963
 3412SOL     OW10771   1.975   1.022   7.306
 3412SOL    HW110772   1.899   1.000   7.358
 3412SOL    HW210773   2.049   0.984   7.353
 3413SOL     OW10774   2.535   0.213   7.077
 3413SOL    HW110775   2.618   0.196   7.032
 3413SOL    HW210776   2.559   0.262   7.155
 3414SOL     OW10777   1.940   0.338   5.627
 3414SOL    HW110778   1.856   0.305   5.594
 3414SOL    HW210779   1.961   0.412   5.570
 3415SOL     OW10780   3.291   0.858   6.986
 3415SOL    HW110781   3.242   0.919   6.931
 3415SOL    HW210782   3.380   0.861   6.951
 3416SOL     OW10783   1.933   0.167   5.900
 3416SOL    HW110784   1.936   0.250   5.853
 3416SOL    HW210785   2.018   0.126   5.881
 3417SOL     OW10786   3.041   1.338   5.703
 3417SOL    HW110787   2.950   1.309   5.705
 3417SOL    HW210788   3.068   1.339   5.795
 3418SOL     OW10789   2.482   0.831   7.020
 3418SOL    HW110790   2.537   0.907   7.004
 3418SOL    HW210791   2.543   0.757   7.028
 3419SOL     OW10792   3.345   1.777   6.566
 3419SOL    HW110793   3.368   1.838   6.495
 3419SOL    HW210794   3.429   1.758   6.608
 3420SOL     OW10795   2.576   0.573   7.288
 3420SOL    HW110796   2.618   0.636   7.347
 3420SOL    HW210797   2.605   0.487   7.318
 3421SOL     OW10798   3.334   1.199   7.218
 3421SOL    HW110799   3.321   1.212   7.311
 3421SOL    HW210800   3.427   1.215   7.203
 3422SOL     OW10801   2.239   1.739   7.149
 3422SOL    HW110802   2.154   1.782   7.136
 3422SOL    HW210803   2.218   1.656   7.191
 3423SOL     OW10804   3.531   0.881   6.841
 3423SOL    HW110805   3.525   0.796   6.798
 3423SOL    HW210806   3.521   0.945   6.770
 3424SOL     OW10807   3.082   0.318   6.051
 3424SOL    HW110808   3.145   0.247   6.045
 3424SOL    HW210809   3.112   0.370   6.126
 3425SOL     OW10810   2.451   0.737   6.257
 3425SOL    HW110811   2.490   0.823   6.241
 3425SOL    HW210812   2.384   0.729   6.189
 3426SOL     OW10813   3.627   0.361   7.236
 3426SOL    HW110814   3.609   0.377   7.144
 3426SOL    HW210815   3.555   0.306   7.266
 3427SOL     OW10816   3.608   0.933   7.098
 3427SOL    HW110817   3.602   1.028   7.112
 3427SOL    HW210818   3.592   0.922   7.004
 3428SOL     OW10819   2.725   1.367   5.622
 3428SOL    HW110820   2.686   1.396   5.704
 3428SOL    HW210821   2.742   1.449   5.574
 3429SOL     OW10822   2.524   1.788   6.531
 3429SOL    HW110823   2.504   1.878   6.506
 3429SOL    HW210824   2.619   1.781   6.523
 3430SOL     OW10825   2.730   0.968   6.441
 3430SOL    HW110826   2.780   0.896   6.480
 3430SOL    HW210827   2.694   1.016   6.516
 3431SOL     OW10828   2.940   0.988   5.675
 3431SOL    HW110829   2.919   1.039   5.597
 3431SOL    HW210830   3.015   0.934   5.649
 3432SOL     OW10831   3.715   1.554   6.430
 3432SOL    HW110832   3.636   1.543   6.376
 3432SOL    HW210833   3.706   1.488   6.499
 3433SOL     OW10834   2.087   1.302   7.443
 3433SOL    HW110835   2.021   1.241   7.411
 3433SOL    HW210836   2.066   1.316   7.535
 3434SOL     OW10837   1.946   1.232   6.251
 3434SOL    HW110838   1.954   1.184   6.334
 3434SOL    HW210839   2.014   1.195   6.195
 3435SOL     OW10840   2.543   1.403   7.214
 3435SOL    HW110841   2.463   1.361   7.246
 3435SOL    HW210842   2.540   1.492   7.250
 3436SOL     OW10843   3.674   0.176   6.818
 3436SOL    HW110844   3.639   0.087   6.821
 3436SOL    HW210845   3.695   0.190   6.726
 3437SOL     OW10846   2.291   0.436   6.110
 3437SOL    HW110847   2.324   0.363   6.057
 3437SOL    HW210848   2.244   0.394   6.182
 3438SOL     OW10849   3.562   1.488   6.681
 3438SOL    HW110850   3.481   1.466   6.634
 3438SOL    HW210851   3.572   1.419   6.746
 3439SOL     OW10852   2.191   0.557   6.877
 3439SOL    HW110853   2.248   0.502   6.931
 3439SOL    HW210854   2.211   0.530   6.787
 3440SOL     OW10855   2.690   1.578   6.263
 3440SOL    HW110856   2.676   1.636   6.188
 3440SOL    HW210857   2.614   1.520   6.263
 3441SOL     OW10858   3.290   0.219   6.702
 3441SOL    HW110859   3.326   0.144   6.750
 3441SOL    HW210860   3.241   0.268   6.768
 3442SOL     OW10861   2.865   0.021   6.725
 3442SOL    HW110862   2.814   5.252   6.682
 3442SOL    HW210863   2.951   5.282   6.739
 3443SOL     OW10864   2.634   1.333   5.902
 3443SOL    HW110865   2.604   1.242   5.909
 3443SOL    HW210866   2.716   1.334   5.951
 3444SOL     OW10867   2.481   1.556   6.871
 3444SOL    HW110868   2.483   1.638   6.920
 3444SOL    HW210869   2.569   1.548   6.833
 3445SOL     OW10870   3.218   0.037   5.749
 3445SOL    HW110871   3.252   5.295   5.670
 3445SOL    HW210872   3.138   5.289   5.769
 3446SOL     OW10873   3.163   0.464   6.270
 3446SOL    HW110874   3.109   0.543   6.275
 3446SOL    HW210875   3.156   0.424   6.357
 3447SOL     OW10876   3.456   0.215   6.468
 3447SOL    HW110877   3.391   0.227   6.537
 3447SOL    HW210878   3.449   0.294   6.414
 3448SOL     OW10879   1.905   1.070   5.893
 3448SOL    HW110880   1.999   1.062   5.875
 3448SOL    HW210881   1.878   0.981   5.915
 3449SOL     OW10882   2.748   1.654   5.926
 3449SOL    HW110883   2.675   1.637   5.866
 3449SOL    HW210884   2.718   1.727   5.980
 3450SOL     OW10885   2.088   0.620   7.572
 3450SOL    HW110886   1.998   0.628   7.605
 3450SOL    HW210887   2.078   0.598   7.480
 3451SOL     OW10888   3.631   0.597   7.679
 3451SOL    HW110889   3.610   0.592   7.586
 3451SOL    HW210890   3.589   0.519   7.716
 3452SOL     OW10891   2.083   1.717   7.918
 3452SOL    HW110892   2.111   1.757   8.001
 3452SOL    HW210893   2.161   1.715   7.864
 3453SOL     OW10894   2.078   1.438   7.992
 3453SOL    HW110895   2.063   1.533   7.989
 3453SOL    HW210896   2.019   1.407   8.060
 3454SOL     OW10897   2.446   0.983   7.580
 3454SOL    HW110898   2.492   1.031   7.511
 3454SOL    HW210899   2.486   1.015   7.661
 3455SOL     OW10900   3.699   1.758   7.797
 3455SOL    HW110901   3.771   1.728   7.853
 3455SOL    HW210902   3.725   1.847   7.771
 3456SOL     OW10903   1.892   1.599   7.578
 3456SOL    HW110904   1.877   1.506   7.593
 3456SOL    HW210905   1.865   1.641   7.659
 3457SOL     OW10906   3.546   0.863   8.031
 3457SOL    HW110907   3.624   0.876   0.005
 3457SOL    HW210908   3.531   0.948   7.990
 3458SOL     OW10909   3.517   1.098   7.878
 3458SOL    HW110910   3.605   1.124   7.849
 3458SOL    HW210911   3.487   1.170   7.933
 3459SOL     OW10912   2.673   5.288   7.943
 3459SOL    HW110913   2.716   0.072   7.929
 3459SOL    HW210914   2.579   0.008   7.942
 3460SOL     OW10915   3.396   0.995   7.650
 3460SOL    HW110916   3.328   0.937   7.684
 3460SOL    HW210917   3.439   1.029   7.728
 3461SOL     OW10918   2.452   0.724   7.708
 3461SOL    HW110919   2.455   0.807   7.660
 3461SOL    HW210920   2.392   0.741   7.781
 3462SOL     OW10921   3.436   1.672   7.757
 3462SOL    HW110922   3.527   1.699   7.765
 3462SOL    HW210923   3.424   1.659   7.663
 3463SOL     OW10924   1.921   0.864   0.087
 3463SOL    HW110925   1.984   0.796   0.112
 3463SOL    HW210926   1.920   0.925   0.161
 3464SOL     OW10927   2.734   0.359   7.630
 3464SOL    HW110928   2.777   0.422   7.572
 3464SOL    HW210929   2.799   0.289   7.641
 3465SOL     OW10930   2.184   0.957   7.698
 3465SOL    HW110931   2.264   0.974   7.648
 3465SOL    HW210932   2.147   0.878   7.658
 3466SOL     OW10933   2.987   1.775   7.682
 3466SOL    HW110934   2.909   1.736   7.722
 3466SOL    HW210935   3.011   1.715   7.612
 3467SOL     OW10936   3.491   1.381   7.534
 3467SOL    HW110937   3.448   1.466   7.520
 3467SOL    HW210938   3.422   1.317   7.516
 3468SOL     OW10939   2.328   1.737   7.771
 3468SOL    HW110940   2.379   1.791   7.832
 3468SOL    HW210941   2.394   1.701   7.710
 3469SOL     OW10942   3.274   0.107   7.883
 3469SOL    HW110943   3.269   0.082   7.791
 3469SOL    HW210944   3.367   0.113   7.902
 3470SOL     OW10945   2.253   0.696   7.918
 3470SOL    HW110946   2.256   0.600   7.927
 3470SOL    HW210947   2.163   0.719   7.938
 3471SOL     OW10948   2.480   0.131   7.560
 3471SOL    HW110949   2.550   0.069   7.581
 3471SOL    HW210950   2.432   0.090   7.488
 3472SOL     OW10951   2.410   0.064   7.951
 3472SOL    HW110952   2.319   0.047   7.973
 3472SOL    HW210953   2.407   0.138   7.890
 3473SOL     OW10954   3.290   1.198   7.489
 3473SOL    HW110955   3.320   1.124   7.542
 3473SOL    HW210956   3.206   1.222   7.527
 3474SOL     OW10957   2.166   0.074   7.662
 3474SOL    HW110958   2.215   0.133   7.604
 3474SOL    HW210959   2.215   5.292   7.659
 3475SOL     OW10960   2.812   0.226   7.906
 3475SOL    HW110961   2.762   0.299   7.869
 3475SOL    HW210962   2.900   0.262   7.917
 3476SOL     OW10963   2.301   1.150   0.099
 3476SOL    HW110964   2.227   1.189   0.144
 3476SOL    HW210965   2.271   1.137   0.009
 3477SOL     OW10966   3.154   1.812   8.014
 3477SOL    HW110967   3.190   1.881   7.958
 3477SOL    HW210968   3.067   1.844   8.038
 3478SOL     OW10969   2.888   0.545   7.469
 3478SOL    HW110970   2.844   0.629   7.453
 3478SOL    HW210971   2.947   0.562   7.542
 3479SOL     OW10972   3.737   0.815   7.801
 3479SOL    HW110973   3.721   0.794   7.893
 3479SOL    HW210974   3.696   0.743   7.753
 3480SOL     OW10975   2.349   1.417   7.603
 3480SOL    HW110976   2.275   1.388   7.656
 3480SOL    HW210977   2.336   1.375   7.518
 3481SOL     OW10978   3.255   0.572   7.519
 3481SOL    HW110979   3.193   0.551   7.589
 3481SOL    HW210980   3.339   0.540   7.552
 3482SOL     OW10981   2.386   0.272   7.773
 3482SOL    HW110982   2.428   0.220   7.705
 3482SOL    HW210983   2.364   0.355   7.730
 3483SOL     OW10984   2.574   1.063   7.811
 3483SOL    HW110985   2.548   1.047   7.901
 3483SOL    HW210986   2.652   1.009   7.798
 3484SOL     OW10987   2.226   1.104   7.926
 3484SOL    HW110988   2.207   1.183   7.875
 3484SOL    HW210989   2.213   1.032   7.864
 3485SOL     OW10990   3.084   1.357   7.821
 3485SOL    HW110991   3.145   1.427   7.844
 3485SOL    HW210992   3.050   1.325   7.904
 3486SOL     OW10993   3.451   0.624   7.921
 3486SOL    HW110994   3.437   0.682   7.996
 3486SOL    HW210995   3.487   0.681   7.853
 3487SOL     OW10996   3.065   0.525   7.714
 3487SOL    HW110997   3.065   0.438   7.754
 3487SOL    HW210998   3.043   0.584   7.786
 3488SOL     OW10999   3.480   0.376   7.813
 3488SOL    HW111000   3.500   0.308   7.877
 3488SOL    HW211001   3.456   0.453   7.865
 3489SOL     OW11002   3.390   0.272   7.575
 3489SOL    HW111003   3.327   0.206   7.605
 3489SOL    HW211004   3.426   0.310   7.656
 3490SOL     OW11005   3.155   0.827   7.481
 3490SOL    HW111006   3.196   0.741   7.482
 3490SOL    HW211007   3.186   0.867   7.399
 3491SOL     OW11008   1.868   1.324   7.640
 3491SOL    HW111009   1.781   1.337   7.603
 3491SOL    HW211010   1.867   1.234   7.673
 3492SOL     OW11011   2.701   0.606   7.762
 3492SOL    HW111012   2.693   0.515   7.733
 3492SOL    HW211013   2.612   0.639   7.762
 3493SOL     OW11014   2.321   0.494   7.636
 3493SOL    HW111015   2.382   0.567   7.653
 3493SOL    HW211016   2.237   0.537   7.621
 3494SOL     OW11017   3.174   0.853   7.754
 3494SOL    HW111018   3.087   0.858   7.794
 3494SOL    HW211019   3.157   0.841   7.661
 3495SOL     OW11020   3.571   0.132   7.944
 3495SOL    HW111021   3.645   0.132   7.884
 3495SOL    HW211022   3.604   0.086   8.022
 3496SOL     OW11023   3.225   1.577   7.895
 3496SOL    HW111024   3.300   1.598   7.840
 3496SOL    HW211025   3.194   1.662   7.926
 3497SOL     OW11026   2.529   1.619   7.604
 3497SOL    HW111027   2.541   1.633   7.510
 3497SOL    HW211028   2.475   1.540   7.610
 3498SOL     OW11029   3.072   1.606   7.478
 3498SOL    HW111030   3.060   1.515   7.505
 3498SOL    HW211031   3.005   1.620   7.411
 3499SOL     OW11032   2.788   0.908   7.757
 3499SOL    HW111033   2.841   0.932   7.681
 3499SOL    HW211034   2.782   0.812   7.752
 3500SOL     OW11035   3.355   1.627   7.489
 3500SOL    HW111036   3.260   1.619   7.476
 3500SOL    HW211037   3.390   1.632   7.400
 3501SOL     OW11038   2.471   1.509   7.936
 3501SOL    HW111039   2.516   1.447   7.877
 3501SOL    HW211040   2.396   1.539   7.885
 3502SOL     OW11041   2.120   1.345   7.743
 3502SOL    HW111042   2.028   1.343   7.716
 3502SOL    HW211043   2.119   1.381   7.832
 3503SOL     OW11044   1.937   0.337   7.489
 3503SOL    HW111045   1.854   0.307   7.452
 3503SOL    HW211046   1.961   0.413   7.436
 3504SOL     OW11047   1.924   0.183   7.743
 3504SOL    HW111048   1.923   0.258   7.684
 3504SOL    HW211049   2.006   0.137   7.722
 3505SOL     OW11050   3.037   1.338   7.556
 3505SOL    HW111051   2.945   1.312   7.555
 3505SOL    HW211052   3.060   1.344   7.648
 3506SOL     OW11053   3.084   0.318   7.917
 3506SOL    HW111054   3.150   0.249   7.910
 3506SOL    HW211055   3.107   0.366   7.996
 3507SOL     OW11056   2.489   0.736   8.054
 3507SOL    HW111057   2.492   0.818   0.024
 3507SOL    HW211058   2.402   0.735   8.015
 3508SOL     OW11059   2.725   1.367   7.484
 3508SOL    HW111060   2.686   1.396   7.567
 3508SOL    HW211061   2.743   1.448   7.436
 3509SOL     OW11062   2.933   0.977   7.537
 3509SOL    HW111063   2.915   1.035   7.463
 3509SOL    HW211064   3.012   0.929   7.512
 3510SOL     OW11065   2.250   0.421   7.985
 3510SOL    HW111066   2.303   0.369   7.925
 3510SOL    HW211067   2.299   0.421   8.067
 3511SOL     OW11068   2.627   1.336   7.764
 3511SOL    HW111069   2.597   1.245   7.764
 3511SOL    HW211070   2.710   1.334   7.811
 3512SOL     OW11071   3.229   0.036   7.612
 3512SOL    HW111072   3.238   5.288   7.530
 3512SOL    HW211073   3.144   0.010   7.646
 3513SOL     OW11074   1.914   1.078   7.749
 3513SOL    HW111075   2.008   1.069   7.736
 3513SOL    HW211076   1.883   0.989   7.764
 3514SOL     OW11077   2.755   1.654   7.780
 3514SOL    HW111078   2.679   1.629   7.728
 3514SOL    HW211079   2.722   1.715   7.845
 3515SOL     OW11080   2.083   2.481   0.124
 3515SOL    HW111081   2.001   2.453   0.163
 3515SOL    HW211082   2.096   2.421   0.050
 3516SOL     OW11083   2.086   2.141   0.991
 3516SOL    HW111084   2.114   2.106   1.076
 3516SOL    HW211085   1.996   2.110   0.981
 3517SOL     OW11086   1.865   2.244   0.638
 3517SOL    HW111087   1.783   2.271   0.680
 3517SOL    HW211088   1.842   2.165   0.590
 3518SOL     OW11089   2.428   3.151   1.177
 3518SOL    HW111090   2.341   3.157   1.136
 3518SOL    HW211091   2.444   3.238   1.212
 3519SOL     OW11092   3.424   3.374   0.708
 3519SOL    HW111093   3.381   3.354   0.791
 3519SOL    HW211094   3.352   3.379   0.644
 3520SOL     OW11095   3.026   2.539   0.740
 3520SOL    HW111096   3.044   2.627   0.706
 3520SOL    HW211097   2.938   2.545   0.777
 3521SOL     OW11098   3.630   2.463   0.233
 3521SOL    HW111099   3.593   2.465   0.145
 3521SOL    HW211100   3.592   2.385   0.273
 3522SOL     OW11101   2.633   3.020   1.043
 3522SOL    HW111102   2.555   3.039   1.094
 3522SOL    HW211103   2.654   3.103   1.000
 3523SOL     OW11104   2.569   3.026   1.827
 3523SOL    HW111105   2.623   3.104   1.840
 3523SOL    HW211106   2.494   3.058   1.777
 3524SOL     OW11107   2.191   3.288   1.067
 3524SOL    HW111108   2.120   3.249   1.017
 3524SOL    HW211109   2.242   3.338   1.003
 3525SOL     OW11110   3.322   3.362   1.356
 3525SOL    HW111111   3.374   3.442   1.365
 3525SOL    HW211112   3.257   3.367   1.426
 3526SOL     OW11113   2.313   2.264   1.498
 3526SOL    HW111114   2.389   2.206   1.496
 3526SOL    HW211115   2.238   2.206   1.508
 3527SOL     OW11116   3.474   2.309   0.741
 3527SOL    HW111117   3.398   2.330   0.687
 3527SOL    HW211118   3.484   2.385   0.798
 3528SOL     OW11119   2.083   3.577   0.471
 3528SOL    HW111120   2.103   3.653   0.525
 3528SOL    HW211121   2.158   3.568   0.412
 3529SOL     OW11122   3.001   3.205   1.695
 3529SOL    HW111123   3.040   3.199   1.782
 3529SOL    HW211124   2.949   3.125   1.686
 3530SOL     OW11125   2.087   3.305   0.533
 3530SOL    HW111126   2.074   3.400   0.535
 3530SOL    HW211127   2.028   3.272   0.602
 3531SOL     OW11128   2.116   2.953   0.886
 3531SOL    HW111129   2.114   2.867   0.930
 3531SOL    HW211130   2.063   3.010   0.942
 3532SOL     OW11131   2.472   3.654   1.429
 3532SOL    HW111132   2.390   3.636   1.476
 3532SOL    HW211133   2.495   3.744   1.455
 3533SOL     OW11134   2.465   2.855   0.104
 3533SOL    HW111135   2.416   2.937   0.092
 3533SOL    HW211136   2.506   2.865   0.191
 3534SOL     OW11137   3.457   1.986   1.467
 3534SOL    HW111138   3.469   2.067   1.417
 3534SOL    HW211139   3.443   2.015   1.557
 3535SOL     OW11140   1.979   2.510   0.565
 3535SOL    HW111141   1.943   2.424   0.586
 3535SOL    HW211142   1.968   2.561   0.645
 3536SOL     OW11143   3.708   3.619   0.330
 3536SOL    HW111144   3.774   3.590   0.393
 3536SOL    HW211145   3.732   3.710   0.312
 3537SOL     OW11146   1.893   3.458   0.110
 3537SOL    HW111147   1.879   3.369   0.144
 3537SOL    HW211148   1.876   3.515   0.184
 3538SOL     OW11149   3.550   2.780   0.644
 3538SOL    HW111150   3.633   2.737   0.623
 3538SOL    HW211151   3.529   2.832   0.567
 3539SOL     OW11152   3.508   2.966   0.435
 3539SOL    HW111153   3.589   2.979   0.385
 3539SOL    HW211154   3.515   3.029   0.507
 3540SOL     OW11155   1.980   2.605   1.586
 3540SOL    HW111156   2.071   2.632   1.599
 3540SOL    HW211157   1.929   2.685   1.592
 3541SOL     OW11158   2.479   3.249   0.734
 3541SOL    HW111159   2.434   3.165   0.745
 3541SOL    HW211160   2.459   3.275   0.644
 3542SOL     OW11161   3.150   3.098   1.425
 3542SOL    HW111162   3.182   3.032   1.364
 3542SOL    HW211163   3.210   3.093   1.500
 3543SOL     OW11164   2.679   1.867   0.512
 3543SOL    HW111165   2.717   1.951   0.489
 3543SOL    HW211166   2.585   1.884   0.519
 3544SOL     OW11167   2.045   2.830   1.272
 3544SOL    HW111168   2.129   2.787   1.259
 3544SOL    HW211169   1.983   2.777   1.223
 3545SOL     OW11170   3.367   2.870   0.215
 3545SOL    HW111171   3.319   2.793   0.246
 3545SOL    HW211172   3.421   2.896   0.289
 3546SOL     OW11173   3.048   3.669   1.623
 3546SOL    HW111174   3.056   3.729   1.549
 3546SOL    HW211175   3.063   3.582   1.586
 3547SOL     OW11176   2.194   2.110   1.811
 3547SOL    HW111177   2.238   2.193   1.827
 3547SOL    HW211178   2.105   2.123   1.843
 3548SOL     OW11179   3.329   3.282   0.952
 3548SOL    HW111180   3.261   3.298   1.017
 3548SOL    HW211181   3.317   3.191   0.925
 3549SOL     OW11182   3.521   3.605   0.582
 3549SOL    HW111183   3.500   3.576   0.493
 3549SOL    HW211184   3.496   3.530   0.637
 3550SOL     OW11185   3.144   2.212   0.932
 3550SOL    HW111186   3.054   2.180   0.942
 3550SOL    HW211187   3.194   2.161   0.995
 3551SOL     OW11188   3.449   3.533   0.320
 3551SOL    HW111189   3.540   3.561   0.312
 3551SOL    HW211190   3.421   3.516   0.230
 3552SOL     OW11191   3.257   2.336   1.676
 3552SOL    HW111192   3.258   2.381   1.761
 3552SOL    HW211193   3.317   2.262   1.687
 3553SOL     OW11194   2.849   2.273   1.249
 3553SOL    HW111195   2.760   2.281   1.281
 3553SOL    HW211196   2.840   2.242   1.159
 3554SOL     OW11197   1.950   2.683   0.776
 3554SOL    HW111198   2.031   2.677   0.828
 3554SOL    HW211199   1.905   2.760   0.810
 3555SOL     OW11200   1.988   3.714   1.579
 3555SOL    HW111201   1.990   3.692   1.672
 3555SOL    HW211202   1.897   3.700   1.552
 3556SOL     OW11203   2.751   2.219   0.207
 3556SOL    HW111204   2.801   2.267   0.141
 3556SOL    HW211205   2.748   2.129   0.175
 3557SOL     OW11206   3.569   2.436   1.828
 3557SOL    HW111207   3.532   2.509   1.780
 3557SOL    HW211208   3.598   2.374   1.761
 3558SOL     OW11209   3.236   2.998   0.537
 3558SOL    HW111210   3.318   2.992   0.488
 3558SOL    HW211211   3.186   3.066   0.490
 3559SOL     OW11212   2.410   2.038   0.889
 3559SOL    HW111213   2.411   2.063   0.982
 3559SOL    HW211214   2.408   2.122   0.842
 3560SOL     OW11215   2.864   3.306   0.472
 3560SOL    HW111216   2.829   3.379   0.422
 3560SOL    HW211217   2.845   3.328   0.563
 3561SOL     OW11218   2.217   3.672   0.864
 3561SOL    HW111219   2.260   3.587   0.871
 3561SOL    HW211220   2.285   3.736   0.882
 3562SOL     OW11221   3.661   2.917   0.869
 3562SOL    HW111222   3.607   2.899   0.793
 3562SOL    HW211223   3.599   2.923   0.942
 3563SOL     OW11224   3.089   3.400   1.512
 3563SOL    HW111225   3.076   3.328   1.574
 3563SOL    HW211226   3.025   3.384   1.443
 3564SOL     OW11227   2.195   2.808   0.248
 3564SOL    HW111228   2.270   2.829   0.192
 3564SOL    HW211229   2.194   2.713   0.253
 3565SOL     OW11230   3.338   2.610   0.725
 3565SOL    HW111231   3.330   2.565   0.809
 3565SOL    HW211232   3.417   2.663   0.733
 3566SOL     OW11233   2.327   3.129   1.737
 3566SOL    HW111234   2.299   3.133   1.645
 3566SOL    HW211235   2.245   3.126   1.786
 3567SOL     OW11236   2.969   3.643   0.224
 3567SOL    HW111237   2.912   3.603   0.289
 3567SOL    HW211238   2.991   3.572   0.163
 3568SOL     OW11239   2.064   2.144   1.503
 3568SOL    HW111240   1.979   2.189   1.497
 3568SOL    HW211241   2.047   2.068   1.559
 3569SOL     OW11242   3.496   3.234   0.083
 3569SOL    HW111243   3.455   3.321   0.083
 3569SOL    HW211244   3.424   3.174   0.064
 3570SOL     OW11245   2.326   3.599   0.324
 3570SOL    HW111246   2.369   3.659   0.385
 3570SOL    HW211247   2.396   3.572   0.264
 3571SOL     OW11248   3.269   1.974   0.445
 3571SOL    HW111249   3.261   1.951   0.352
 3571SOL    HW211250   3.363   1.980   0.460
 3572SOL     OW11251   2.117   3.653   1.231
 3572SOL    HW111252   2.169   3.587   1.277
 3572SOL    HW211253   2.109   3.619   1.142
 3573SOL     OW11254   2.798   3.563   0.898
 3573SOL    HW111255   2.873   3.510   0.925
 3573SOL    HW211256   2.755   3.512   0.829
 3574SOL     OW11257   2.242   2.551   0.463
 3574SOL    HW111258   2.274   2.465   0.488
 3574SOL    HW211259   2.152   2.553   0.496
 3575SOL     OW11260   3.396   2.087   1.725
 3575SOL    HW111261   3.405   2.108   1.818
 3575SOL    HW211262   3.327   2.021   1.722
 3576SOL     OW11263   2.492   1.976   0.137
 3576SOL    HW111264   2.586   1.963   0.144
 3576SOL    HW211265   2.471   1.953   0.046
 3577SOL     OW11266   2.618   2.113   1.745
 3577SOL    HW111267   2.702   2.067   1.750
 3577SOL    HW211268   2.605   2.148   1.834
 3578SOL     OW11269   2.739   3.387   1.195
 3578SOL    HW111270   2.721   3.350   1.108
 3578SOL    HW211271   2.805   3.329   1.232
 3579SOL     OW11272   3.210   2.452   1.428
 3579SOL    HW111273   3.236   2.420   1.514
 3579SOL    HW211274   3.246   2.540   1.422
 3580SOL     OW11275   2.679   3.270   0.937
 3580SOL    HW111276   2.762   3.252   0.894
 3580SOL    HW211277   2.614   3.264   0.867
 3581SOL     OW11278   2.774   2.350   0.899
 3581SOL    HW111279   2.759   2.336   0.805
 3581SOL    HW211280   2.824   2.274   0.927
 3582SOL     OW11281   2.412   1.926   0.504
 3582SOL    HW111282   2.332   1.923   0.556
 3582SOL    HW211283   2.403   2.005   0.450
 3583SOL     OW11284   3.295   3.061   0.035
 3583SOL    HW111285   3.317   2.988   0.092
 3583SOL    HW211286   3.207   3.088   0.063
 3584SOL     OW11287   2.173   1.919   0.171
 3584SOL    HW111288   2.240   1.986   0.188
 3584SOL    HW211289   2.208   1.840   0.212
 3585SOL     OW11290   2.802   2.113   0.458
 3585SOL    HW111291   2.776   2.151   0.374
 3585SOL    HW211292   2.897   2.124   0.461
 3586SOL     OW11293   2.940   2.517   1.463
 3586SOL    HW111294   2.900   2.436   1.432
 3586SOL    HW211295   3.034   2.505   1.445
 3587SOL     OW11296   3.087   3.429   0.792
 3587SOL    HW111297   3.100   3.497   0.727
 3587SOL    HW211298   3.152   3.447   0.860
 3588SOL     OW11299   2.329   3.020   0.730
 3588SOL    HW111300   2.263   2.994   0.793
 3588SOL    HW211301   2.293   2.995   0.645
 3589SOL     OW11302   3.129   3.655   0.609
 3589SOL    HW111303   3.179   3.718   0.557
 3589SOL    HW211304   3.062   3.708   0.652
 3590SOL     OW11305   2.916   2.369   0.029
 3590SOL    HW111306   2.875   2.451   0.004
 3590SOL    HW211307   2.975   2.392   0.101
 3591SOL     OW11308   1.942   2.417   1.391
 3591SOL    HW111309   2.035   2.415   1.367
 3591SOL    HW211310   1.936   2.487   1.455
 3592SOL     OW11311   2.416   2.073   1.161
 3592SOL    HW111312   2.458   1.999   1.204
 3592SOL    HW211313   2.326   2.072   1.194
 3593SOL     OW11314   2.718   2.308   0.639
 3593SOL    HW111315   2.732   2.382   0.580
 3593SOL    HW211316   2.742   2.232   0.587
 3594SOL     OW11317   2.876   1.914   0.749
 3594SOL    HW111318   2.817   1.906   0.674
 3594SOL    HW211319   2.855   1.839   0.804
 3595SOL     OW11320   3.302   3.025   0.858
 3595SOL    HW111321   3.233   2.958   0.856
 3595SOL    HW211322   3.328   3.036   0.767
 3596SOL     OW11323   3.331   2.468   0.973
 3596SOL    HW111324   3.275   2.390   0.977
 3596SOL    HW211325   3.388   2.460   1.049
 3597SOL     OW11326   3.709   2.676   0.389
 3597SOL    HW111327   3.762   2.624   0.448
 3597SOL    HW211328   3.679   2.614   0.322
 3598SOL     OW11329   2.341   3.307   0.177
 3598SOL    HW111330   2.271   3.266   0.227
 3598SOL    HW211331   2.352   3.250   0.100
 3599SOL     OW11332   3.532   3.126   0.648
 3599SOL    HW111333   3.627   3.129   0.661
 3599SOL    HW211334   3.503   3.215   0.668
 3600SOL     OW11335   3.259   2.438   0.087
 3600SOL    HW111336   3.198   2.418   0.157
 3600SOL    HW211337   3.314   2.360   0.080
 3601SOL     OW11338   2.376   2.129   0.324
 3601SOL    HW111339   2.427   2.076   0.263
 3601SOL    HW211340   2.364   2.213   0.280
 3602SOL     OW11341   3.614   3.102   1.572
 3602SOL    HW111342   3.702   3.063   1.567
 3602SOL    HW211343   3.630   3.192   1.600
 3603SOL     OW11344   2.923   3.220   1.335
 3603SOL    HW111345   2.846   3.187   1.381
 3603SOL    HW211346   2.997   3.175   1.375
 3604SOL     OW11347   3.470   3.488   1.655
 3604SOL    HW111348   3.464   3.522   1.566
 3604SOL    HW211349   3.553   3.440   1.656
 3605SOL     OW11350   2.992   3.065   1.103
 3605SOL    HW111351   2.927   3.091   1.169
 3605SOL    HW211352   2.956   3.098   1.021
 3606SOL     OW11353   3.490   2.960   1.077
 3606SOL    HW111354   3.485   3.022   1.150
 3606SOL    HW211355   3.411   2.978   1.025
 3607SOL     OW11356   2.780   1.958   1.395
 3607SOL    HW111357   2.803   1.939   1.304
 3607SOL    HW211358   2.859   1.998   1.432
 3608SOL     OW11359   2.851   2.975   1.717
 3608SOL    HW111360   2.759   2.987   1.742
 3608SOL    HW211361   2.848   2.923   1.637
 3609SOL     OW11362   2.567   2.945   0.362
 3609SOL    HW111363   2.518   2.937   0.444
 3609SOL    HW211364   2.607   2.859   0.350
 3610SOL     OW11365   2.268   2.675   1.256
 3610SOL    HW111366   2.358   2.683   1.290
 3610SOL    HW211367   2.243   2.585   1.275
 3611SOL     OW11368   3.127   2.238   1.276
 3611SOL    HW111369   3.162   2.315   1.320
 3611SOL    HW211370   3.037   2.261   1.255
 3612SOL     OW11371   1.934   3.435   1.354
 3612SOL    HW111372   1.905   3.508   1.299
 3612SOL    HW211373   2.029   3.437   1.348
 3613SOL     OW11374   2.219   2.968   0.482
 3613SOL    HW111375   2.209   3.044   0.425
 3613SOL    HW211376   2.215   2.893   0.423
 3614SOL     OW11377   2.411   2.372   0.868
 3614SOL    HW111378   2.406   2.395   0.775
 3614SOL    HW211379   2.504   2.383   0.890
 3615SOL     OW11380   3.108   3.208   0.397
 3615SOL    HW111381   3.164   3.282   0.423
 3615SOL    HW211382   3.021   3.233   0.427
 3616SOL     OW11383   3.144   3.320   1.146
 3616SOL    HW111384   3.198   3.322   1.225
 3616SOL    HW211385   3.084   3.247   1.161
 3617SOL     OW11386   3.440   2.485   0.482
 3617SOL    HW111387   3.394   2.537   0.547
 3617SOL    HW211388   3.481   2.549   0.424
 3618SOL     OW11389   2.209   3.390   1.314
 3618SOL    HW111390   2.196   3.347   1.229
 3618SOL    HW211391   2.303   3.402   1.321
 3619SOL     OW11392   2.264   2.603   1.609
 3619SOL    HW111393   2.315   2.654   1.546
 3619SOL    HW211394   2.293   2.513   1.597
 3620SOL     OW11395   3.464   2.642   1.683
 3620SOL    HW111396   3.378   2.683   1.675
 3620SOL    HW211397   3.517   2.683   1.615
 3621SOL     OW11398   2.864   1.989   1.759
 3621SOL    HW111399   2.918   2.061   1.727
 3621SOL    HW211400   2.910   1.910   1.732
 3622SOL     OW11401   2.359   1.899   1.746
 3622SOL    HW111402   2.314   1.846   1.680
 3622SOL    HW211403   2.301   1.975   1.759
 3623SOL     OW11404   3.224   2.721   1.028
 3623SOL    HW111405   3.142   2.708   0.980
 3623SOL    HW211406   3.267   2.636   1.026
 3624SOL     OW11407   3.061   2.391   0.273
 3624SOL    HW111408   3.062   2.310   0.325
 3624SOL    HW211409   3.080   2.460   0.335
 3625SOL     OW11410   2.159   2.060   1.248
 3625SOL    HW111411   2.122   2.092   1.330
 3625SOL    HW211412   2.140   1.966   1.248
 3626SOL     OW11413   1.907   3.173   1.276
 3626SOL    HW111414   1.940   3.119   1.347
 3626SOL    HW211415   1.914   3.263   1.309
 3627SOL     OW11416   3.598   2.821   1.854
 3627SOL    HW111417   3.552   2.759   1.797
 3627SOL    HW211418   3.538   2.836   1.926
 3628SOL     OW11419   2.165   1.927   0.624
 3628SOL    HW111420   2.145   2.018   0.647
 3628SOL    HW211421   2.173   1.882   0.708
 3629SOL     OW11422   3.485   2.238   0.369
 3629SOL    HW111423   3.509   2.172   0.434
 3629SOL    HW211424   3.459   2.314   0.421
 3630SOL     OW11425   2.843   3.428   1.717
 3630SOL    HW111426   2.828   3.473   1.633
 3630SOL    HW211427   2.888   3.347   1.693
 3631SOL     OW11428   3.716   3.367   1.605
 3631SOL    HW111429   3.735   3.393   1.515
 3631SOL    HW211430   3.797   3.384   1.653
 3632SOL     OW11431   2.209   2.781   1.814
 3632SOL    HW111432   2.290   2.809   1.858
 3632SOL    HW211433   2.237   2.715   1.751
 3633SOL     OW11434   3.375   2.167   0.128
 3633SOL    HW111435   3.330   2.084   0.142
 3633SOL    HW211436   3.418   2.186   0.211
 3634SOL     OW11437   3.160   2.686   0.021
 3634SOL    HW111438   3.195   2.599   0.036
 3634SOL    HW211439   3.217   2.724   8.034
 3635SOL     OW11440   2.927   3.200   0.850
 3635SOL    HW111441   2.932   3.131   0.784
 3635SOL    HW211442   2.988   3.266   0.819
 3636SOL     OW11443   2.167   2.674   0.950
 3636SOL    HW111444   2.257   2.705   0.956
 3636SOL    HW211445   2.170   2.586   0.989
 3637SOL     OW11446   2.188   2.386   1.020
 3637SOL    HW111447   2.150   2.300   1.005
 3637SOL    HW211448   2.266   2.389   0.965
 3638SOL     OW11449   3.000   2.233   1.680
 3638SOL    HW111450   2.954   2.288   1.744
 3638SOL    HW211451   3.087   2.274   1.671
 3639SOL     OW11452   3.023   2.062   1.469
 3639SOL    HW111453   3.013   2.124   1.540
 3639SOL    HW211454   3.063   2.113   1.398
 3640SOL     OW11455   1.874   3.186   0.189
 3640SOL    HW111456   1.788   3.200   0.151
 3640SOL    HW211457   1.872   3.096   0.221
 3641SOL     OW11458   1.952   3.648   0.938
 3641SOL    HW111459   1.922   3.569   0.894
 3641SOL    HW211460   2.042   3.661   0.908
 3642SOL     OW11461   2.358   3.435   0.904
 3642SOL    HW111462   2.426   3.497   0.930
 3642SOL    HW211463   2.402   3.371   0.849
 3643SOL     OW11464   1.897   2.406   1.117
 3643SOL    HW111465   1.979   2.399   1.068
 3643SOL    HW211466   1.924   2.411   1.209
 3644SOL     OW11467   2.053   2.381   1.727
 3644SOL    HW111468   2.101   2.336   1.658
 3644SOL    HW211469   2.011   2.455   1.683
 3645SOL     OW11470   3.238   2.800   1.658
 3645SOL    HW111471   3.261   2.893   1.655
 3645SOL    HW211472   3.236   2.774   1.566
 3646SOL     OW11473   3.504   2.464   1.185
 3646SOL    HW111474   3.493   2.405   1.260
 3646SOL    HW211475   3.591   2.443   1.151
 3647SOL     OW11476   2.104   3.413   1.727
 3647SOL    HW111477   2.082   3.477   1.794
 3647SOL    HW211478   2.107   3.329   1.774
 3648SOL     OW11479   2.555   2.287   1.249
 3648SOL    HW111480   2.501   2.210   1.229
 3648SOL    HW211481   2.549   2.342   1.171
 3649SOL     OW11482   2.787   3.542   1.469
 3649SOL    HW111483   2.764   3.504   1.385
 3649SOL    HW211484   2.782   3.637   1.455
 3650SOL     OW11485   2.332   2.362   0.189
 3650SOL    HW111486   2.392   2.435   0.204
 3650SOL    HW211487   2.245   2.402   0.190
 3651SOL     OW11488   2.005   3.004   1.473
 3651SOL    HW111489   2.007   2.953   1.554
 3651SOL    HW211490   2.021   2.941   1.404
 3652SOL     OW11491   3.188   2.909   1.223
 3652SOL    HW111492   3.211   2.846   1.155
 3652SOL    HW211493   3.119   2.962   1.183
 3653SOL     OW11494   3.163   2.689   0.304
 3653SOL    HW111495   3.090   2.739   0.341
 3653SOL    HW211496   3.151   2.696   0.209
 3654SOL     OW11497   3.634   3.605   1.151
 3654SOL    HW111498   3.695   3.631   1.082
 3654SOL    HW211499   3.611   3.515   1.129
 3655SOL     OW11500   3.103   3.595   1.111
 3655SOL    HW111501   3.185   3.616   1.067
 3655SOL    HW211502   3.109   3.501   1.130
 3656SOL     OW11503   1.946   3.129   1.011
 3656SOL    HW111504   1.932   3.142   1.105
 3656SOL    HW211505   1.873   3.073   0.984
 3657SOL     OW11506   2.540   3.529   1.731
 3657SOL    HW111507   2.485   3.607   1.724
 3657SOL    HW211508   2.606   3.540   1.663
 3658SOL     OW11509   2.767   1.955   0.134
 3658SOL    HW111510   2.779   1.937   0.041
 3658SOL    HW211511   2.833   1.901   0.177
 3659SOL     OW11512   3.581   2.008   0.508
 3659SOL    HW111513   3.653   1.992   0.448
 3659SOL    HW211514   3.566   1.924   0.551
 3660SOL     OW11515   3.252   3.430   0.486
 3660SOL    HW111516   3.315   3.463   0.423
 3660SOL    HW211517   3.204   3.508   0.515
 3661SOL     OW11518   1.999   3.659   1.843
 3661SOL    HW111519   1.948   3.593   1.891
 3661SOL    HW211520   2.046   3.706   1.911
 3662SOL     OW11521   3.130   2.789   0.671
 3662SOL    HW111522   3.202   2.726   0.680
 3662SOL    HW211523   3.166   2.860   0.619
 3663SOL     OW11524   2.688   3.139   1.436
 3663SOL    HW111525   2.646   3.182   1.510
 3663SOL    HW211526   2.616   3.122   1.375
 3664SOL     OW11527   2.538   3.485   0.155
 3664SOL    HW111528   2.544   3.491   0.060
 3664SOL    HW211529   2.476   3.414   0.170
 3665SOL     OW11530   3.486   3.589   1.391
 3665SOL    HW111531   3.537   3.595   1.310
 3665SOL    HW211532   3.473   3.679   1.418
 3666SOL     OW11533   3.703   2.035   0.966
 3666SOL    HW111534   3.732   1.947   0.940
 3666SOL    HW211535   3.616   2.044   0.927
 3667SOL     OW11536   2.123   2.181   0.717
 3667SOL    HW111537   2.036   2.213   0.693
 3667SOL    HW211538   2.119   2.170   0.812
 3668SOL     OW11539   3.021   3.443   0.052
 3668SOL    HW111540   3.034   3.351   0.072
 3668SOL    HW211541   3.030   3.449   8.036
 3669SOL     OW11542   3.372   3.485   0.061
 3669SOL    HW111543   3.277   3.486   0.050
 3669SOL    HW211544   3.407   3.488   8.052
 3670SOL     OW11545   2.229   3.166   1.492
 3670SOL    HW111546   2.218   3.242   1.435
 3670SOL    HW211547   2.152   3.112   1.475
 3671SOL     OW11548   3.472   3.145   1.280
 3671SOL    HW111549   3.532   3.134   1.354
 3671SOL    HW211550   3.412   3.213   1.309
 3672SOL     OW11551   2.912   2.967   0.703
 3672SOL    HW111552   2.847   2.919   0.755
 3672SOL    HW211553   2.980   2.902   0.684
 3673SOL     OW11554   2.889   2.098   0.965
 3673SOL    HW111555   2.884   2.048   0.884
 3673SOL    HW211556   2.881   2.032   1.034
 3674SOL     OW11557   2.464   3.349   0.479
 3674SOL    HW111558   2.510   3.304   0.408
 3674SOL    HW211559   2.393   3.397   0.435
 3675SOL     OW11560   3.585   2.254   1.381
 3675SOL    HW111561   3.657   2.317   1.379
 3675SOL    HW211562   3.615   2.183   1.324
 3676SOL     OW11563   2.126   3.178   0.302
 3676SOL    HW111564   2.043   3.193   0.258
 3676SOL    HW211565   2.118   3.227   0.384
 3677SOL     OW11566   1.973   2.884   1.719
 3677SOL    HW111567   1.896   2.862   1.772
 3677SOL    HW211568   2.047   2.848   1.767
 3678SOL     OW11569   2.533   2.056   1.493
 3678SOL    HW111570   2.618   2.038   1.454
 3678SOL    HW211571   2.552   2.078   1.584
 3679SOL     OW11572   1.920   2.219   0.039
 3679SOL    HW111573   1.841   2.169   0.016
 3679SOL    HW211574   1.963   2.236   8.035
 3680SOL     OW11575   3.292   2.721   1.401
 3680SOL    HW111576   3.242   2.781   1.345
 3680SOL    HW211577   3.381   2.724   1.365
 3681SOL     OW11578   1.934   2.016   0.303
 3681SOL    HW111579   1.917   2.100   0.260
 3681SOL    HW211580   2.017   1.986   0.266
 3682SOL     OW11581   3.047   3.180   0.121
 3682SOL    HW111582   2.952   3.169   0.118
 3682SOL    HW211583   3.068   3.181   0.215
 3683SOL     OW11584   3.346   3.639   0.979
 3683SOL    HW111585   3.369   3.701   0.909
 3683SOL    HW211586   3.429   3.620   1.023
 3684SOL     OW11587   3.335   3.060   1.631
 3684SOL    HW111588   3.323   3.075   1.725
 3684SOL    HW211589   3.428   3.077   1.617
 3685SOL     OW11590   2.240   3.601   1.565
 3685SOL    HW111591   2.155   3.644   1.550
 3685SOL    HW211592   2.218   3.518   1.606
 3686SOL     OW11593   3.531   2.743   1.255
 3686SOL    HW111594   3.525   2.658   1.213
 3686SOL    HW211595   3.521   2.806   1.184
 3687SOL     OW11596   3.079   2.180   0.459
 3687SOL    HW111597   3.143   2.109   0.451
 3687SOL    HW211598   3.107   2.229   0.537
 3688SOL     OW11599   3.623   2.224   1.651
 3688SOL    HW111600   3.607   2.240   1.558
 3688SOL    HW211601   3.551   2.168   1.679
 3689SOL     OW11602   3.608   2.795   1.512
 3689SOL    HW111603   3.604   2.890   1.525
 3689SOL    HW211604   3.592   2.783   1.419
 3690SOL     OW11605   2.761   3.235   0.040
 3690SOL    HW111606   2.698   3.228   0.112
 3690SOL    HW211607   2.738   3.318   8.077
 3691SOL     OW11608   2.522   3.653   0.943
 3691SOL    HW111609   2.504   3.744   0.921
 3691SOL    HW211610   2.617   3.645   0.937
 3692SOL     OW11611   2.964   2.863   0.094
 3692SOL    HW111612   2.946   2.920   0.019
 3692SOL    HW211613   3.030   2.802   0.062
 3693SOL     OW11614   3.715   3.415   0.844
 3693SOL    HW111615   3.636   3.405   0.791
 3693SOL    HW211616   3.705   3.351   0.914
 3694SOL     OW11617   2.087   3.165   1.856
 3694SOL    HW111618   2.019   3.104   1.826
 3694SOL    HW211619   2.069   3.177   1.949
 3695SOL     OW11620   1.946   3.093   0.667
 3695SOL    HW111621   1.953   3.045   0.749
 3695SOL    HW211622   2.020   3.062   0.615
 3696SOL     OW11623   2.542   3.265   1.629
 3696SOL    HW111624   2.461   3.224   1.657
 3696SOL    HW211625   2.538   3.354   1.665
 3697SOL     OW11626   3.674   2.046   1.237
 3697SOL    HW111627   3.684   1.952   1.251
 3697SOL    HW211628   3.684   2.057   1.143
 3698SOL     OW11629   2.307   2.297   0.543
 3698SOL    HW111630   2.327   2.232   0.476
 3698SOL    HW211631   2.244   2.254   0.601
 3699SOL     OW11632   3.563   3.350   1.094
 3699SOL    HW111633   3.481   3.328   1.049
 3699SOL    HW211634   3.572   3.281   1.160
 3700SOL     OW11635   2.197   2.415   1.298
 3700SOL    HW111636   2.251   2.356   1.350
 3700SOL    HW211637   2.209   2.385   1.208
 3701SOL     OW11638   2.691   3.440   0.674
 3701SOL    HW111639   2.674   3.496   0.599
 3701SOL    HW211640   2.615   3.383   0.679
 3702SOL     OW11641   3.295   2.087   1.119
 3702SOL    HW111642   3.319   2.007   1.165
 3702SOL    HW211643   3.243   2.136   1.182
 3703SOL     OW11644   2.871   1.878   1.141
 3703SOL    HW111645   2.817   1.810   1.101
 3703SOL    HW211646   2.959   1.841   1.144
 3704SOL     OW11647   2.636   3.204   0.302
 3704SOL    HW111648   2.605   3.114   0.314
 3704SOL    HW211649   2.716   3.209   0.355
 3705SOL     OW11650   2.480   3.420   1.284
 3705SOL    HW111651   2.484   3.502   1.334
 3705SOL    HW211652   2.569   3.410   1.249
 3706SOL     OW11653   3.218   1.916   0.185
 3706SOL    HW111654   3.239   1.869   0.104
 3706SOL    HW211655   3.132   1.883   0.211
 3707SOL     OW11656   3.166   2.315   0.681
 3707SOL    HW111657   3.121   2.399   0.693
 3707SOL    HW211658   3.162   2.273   0.767
 3708SOL     OW11659   3.448   2.062   0.878
 3708SOL    HW111660   3.389   2.084   0.950
 3708SOL    HW211661   3.448   2.141   0.823
 3709SOL     OW11662   1.905   2.928   0.301
 3709SOL    HW111663   2.000   2.928   0.304
 3709SOL    HW211664   1.880   2.845   0.342
 3710SOL     OW11665   2.746   3.517   0.347
 3710SOL    HW111666   2.678   3.500   0.282
 3710SOL    HW211667   2.714   3.592   0.396
 3711SOL     OW11668   2.092   2.480   1.985
 3711SOL    HW111669   2.004   2.485   2.021
 3711SOL    HW211670   2.080   2.457   1.893
 3712SOL     OW11671   2.087   2.140   2.859
 3712SOL    HW111672   2.124   2.070   2.914
 3712SOL    HW211673   1.996   2.114   2.846
 3713SOL     OW11674   1.864   2.244   2.501
 3713SOL    HW111675   1.782   2.271   2.542
 3713SOL    HW211676   1.843   2.165   2.452
 3714SOL     OW11677   2.419   3.139   3.009
 3714SOL    HW111678   2.334   3.169   2.976
 3714SOL    HW211679   2.456   3.217   3.050
 3715SOL     OW11680   3.424   3.374   2.568
 3715SOL    HW111681   3.382   3.355   2.652
 3715SOL    HW211682   3.352   3.379   2.505
 3716SOL     OW11683   3.017   2.538   2.581
 3716SOL    HW111684   3.042   2.629   2.567
 3716SOL    HW211685   2.944   2.542   2.642
 3717SOL     OW11686   3.629   2.467   2.090
 3717SOL    HW111687   3.608   2.460   1.997
 3717SOL    HW211688   3.594   2.386   2.129
 3718SOL     OW11689   2.661   3.032   2.933
 3718SOL    HW111690   2.571   3.036   2.964
 3718SOL    HW211691   2.669   3.106   2.872
 3719SOL     OW11692   2.192   3.282   2.929
 3719SOL    HW111693   2.120   3.246   2.878
 3719SOL    HW211694   2.241   3.336   2.867
 3720SOL     OW11695   3.325   3.381   3.207
 3720SOL    HW111696   3.377   3.460   3.220
 3720SOL    HW211697   3.300   3.354   3.295
 3721SOL     OW11698   3.473   2.309   2.602
 3721SOL    HW111699   3.397   2.329   2.548
 3721SOL    HW211700   3.490   2.389   2.651
 3722SOL     OW11701   2.081   3.577   2.333
 3722SOL    HW111702   2.102   3.653   2.388
 3722SOL    HW211703   2.155   3.569   2.273
 3723SOL     OW11704   2.091   3.304   2.397
 3723SOL    HW111705   2.075   3.398   2.400
 3723SOL    HW211706   2.033   3.267   2.463
 3724SOL     OW11707   2.115   2.953   2.749
 3724SOL    HW111708   2.112   2.866   2.789
 3724SOL    HW211709   2.061   3.008   2.805
 3725SOL     OW11710   2.481   3.655   3.311
 3725SOL    HW111711   2.395   3.639   3.349
 3725SOL    HW211712   2.497   3.748   3.328
 3726SOL     OW11713   2.429   2.861   1.988
 3726SOL    HW111714   2.474   2.919   1.927
 3726SOL    HW211715   2.491   2.848   2.060
 3727SOL     OW11716   3.451   1.988   3.317
 3727SOL    HW111717   3.473   2.074   3.281
 3727SOL    HW211718   3.451   2.001   3.412
 3728SOL     OW11719   1.977   2.513   2.423
 3728SOL    HW111720   1.945   2.426   2.445
 3728SOL    HW211721   1.968   2.563   2.504
 3729SOL     OW11722   3.705   3.620   2.196
 3729SOL    HW111723   3.770   3.592   2.260
 3729SOL    HW211724   3.727   3.711   2.177
 3730SOL     OW11725   1.895   3.456   1.985
 3730SOL    HW111726   1.877   3.364   2.006
 3730SOL    HW211727   1.871   3.503   2.065
 3731SOL     OW11728   3.551   2.780   2.503
 3731SOL    HW111729   3.635   2.738   2.484
 3731SOL    HW211730   3.530   2.830   2.425
 3732SOL     OW11731   3.508   2.968   2.291
 3732SOL    HW111732   3.594   2.972   2.249
 3732SOL    HW211733   3.514   3.030   2.364
 3733SOL     OW11734   2.479   3.248   2.597
 3733SOL    HW111735   2.434   3.165   2.608
 3733SOL    HW211736   2.459   3.275   2.507
 3734SOL     OW11737   2.676   1.857   2.373
 3734SOL    HW111738   2.720   1.939   2.351
 3734SOL    HW211739   2.583   1.880   2.380
 3735SOL     OW11740   3.394   2.856   2.061
 3735SOL    HW111741   3.329   2.794   2.093
 3735SOL    HW211742   3.435   2.892   2.140
 3736SOL     OW11743   3.053   3.671   3.480
 3736SOL    HW111744   3.058   3.742   3.416
 3736SOL    HW211745   3.012   3.599   3.434
 3737SOL     OW11746   3.333   3.283   2.814
 3737SOL    HW111747   3.262   3.300   2.876
 3737SOL    HW211748   3.318   3.192   2.787
 3738SOL     OW11749   3.519   3.604   2.440
 3738SOL    HW111750   3.501   3.574   2.351
 3738SOL    HW211751   3.495   3.530   2.496
 3739SOL     OW11752   3.145   2.215   2.799
 3739SOL    HW111753   3.055   2.183   2.803
 3739SOL    HW211754   3.193   2.161   2.863
 3740SOL     OW11755   3.442   3.532   2.171
 3740SOL    HW111756   3.533   3.563   2.164
 3740SOL    HW211757   3.415   3.516   2.081
 3741SOL     OW11758   2.847   2.302   3.093
 3741SOL    HW111759   2.752   2.311   3.105
 3741SOL    HW211760   2.857   2.284   2.999
 3742SOL     OW11761   1.948   2.682   2.638
 3742SOL    HW111762   2.030   2.675   2.687
 3742SOL    HW211763   1.906   2.760   2.673
 3743SOL     OW11764   1.989   3.714   3.442
 3743SOL    HW111765   1.986   3.696   3.536
 3743SOL    HW211766   1.899   3.701   3.413
 3744SOL     OW11767   2.747   2.188   2.002
 3744SOL    HW111768   2.801   2.251   1.954
 3744SOL    HW211769   2.796   2.106   1.996
 3745SOL     OW11770   3.645   2.453   3.685
 3745SOL    HW111771   3.638   2.539   3.643
 3745SOL    HW211772   3.636   2.390   3.612
 3746SOL     OW11773   3.236   2.999   2.399
 3746SOL    HW111774   3.319   2.992   2.352
 3746SOL    HW211775   3.187   3.067   2.352
 3747SOL     OW11776   2.408   2.038   2.750
 3747SOL    HW111777   2.405   2.063   2.843
 3747SOL    HW211778   2.409   2.121   2.703
 3748SOL     OW11779   2.865   3.305   2.334
 3748SOL    HW111780   2.831   3.378   2.283
 3748SOL    HW211781   2.847   3.327   2.425
 3749SOL     OW11782   2.217   3.672   2.726
 3749SOL    HW111783   2.260   3.587   2.733
 3749SOL    HW211784   2.286   3.735   2.744
 3750SOL     OW11785   3.662   2.917   2.731
 3750SOL    HW111786   3.607   2.900   2.655
 3750SOL    HW211787   3.600   2.922   2.804
 3751SOL     OW11788   2.175   2.826   2.113
 3751SOL    HW111789   2.256   2.847   2.067
 3751SOL    HW211790   2.150   2.740   2.081
 3752SOL     OW11791   3.338   2.611   2.588
 3752SOL    HW111792   3.333   2.565   2.672
 3752SOL    HW211793   3.418   2.663   2.594
 3753SOL     OW11794   2.984   3.640   2.093
 3753SOL    HW111795   2.910   3.599   2.137
 3753SOL    HW211796   3.008   3.578   2.023
 3754SOL     OW11797   3.490   3.242   1.951
 3754SOL    HW111798   3.449   3.327   1.935
 3754SOL    HW211799   3.421   3.179   1.931
 3755SOL     OW11800   2.328   3.598   2.183
 3755SOL    HW111801   2.370   3.656   2.246
 3755SOL    HW211802   2.399   3.568   2.127
 3756SOL     OW11803   3.263   1.969   2.296
 3756SOL    HW111804   3.253   1.944   2.204
 3756SOL    HW211805   3.358   1.975   2.309
 3757SOL     OW11806   2.115   3.657   3.090
 3757SOL    HW111807   2.160   3.585   3.133
 3757SOL    HW211808   2.106   3.628   2.999
 3758SOL     OW11809   2.797   3.565   2.757
 3758SOL    HW111810   2.864   3.508   2.794
 3758SOL    HW211811   2.757   3.512   2.688
 3759SOL     OW11812   2.248   2.551   2.331
 3759SOL    HW111813   2.276   2.462   2.355
 3759SOL    HW211814   2.156   2.555   2.357
 3760SOL     OW11815   3.441   2.022   3.589
 3760SOL    HW111816   3.449   2.047   3.681
 3760SOL    HW211817   3.370   1.957   3.588
 3761SOL     OW11818   2.478   1.972   1.982
 3761SOL    HW111819   2.568   1.938   1.980
 3761SOL    HW211820   2.443   1.951   1.895
 3762SOL     OW11821   2.753   3.406   3.035
 3762SOL    HW111822   2.727   3.366   2.952
 3762SOL    HW211823   2.757   3.333   3.096
 3763SOL     OW11824   2.677   3.270   2.797
 3763SOL    HW111825   2.761   3.252   2.754
 3763SOL    HW211826   2.612   3.262   2.727
 3764SOL     OW11827   2.799   2.358   2.756
 3764SOL    HW111828   2.772   2.344   2.666
 3764SOL    HW211829   2.831   2.273   2.786
 3765SOL     OW11830   2.412   1.927   2.363
 3765SOL    HW111831   2.331   1.926   2.414
 3765SOL    HW211832   2.405   2.005   2.308
 3766SOL     OW11833   3.290   3.061   1.903
 3766SOL    HW111834   3.319   2.985   1.953
 3766SOL    HW211835   3.204   3.081   1.939
 3767SOL     OW11836   2.155   1.910   2.047
 3767SOL    HW111837   2.216   1.970   2.004
 3767SOL    HW211838   2.212   1.845   2.089
 3768SOL     OW11839   2.809   2.093   2.326
 3768SOL    HW111840   2.770   2.165   2.278
 3768SOL    HW211841   2.903   2.110   2.324
 3769SOL     OW11842   2.942   2.496   3.313
 3769SOL    HW111843   2.901   2.446   3.242
 3769SOL    HW211844   3.035   2.499   3.290
 3770SOL     OW11845   3.091   3.427   2.651
 3770SOL    HW111846   3.101   3.497   2.587
 3770SOL    HW211847   3.152   3.450   2.722
 3771SOL     OW11848   2.330   3.019   2.595
 3771SOL    HW111849   2.261   2.995   2.656
 3771SOL    HW211850   2.297   2.994   2.509
 3772SOL     OW11851   3.130   3.655   2.471
 3772SOL    HW111852   3.176   3.717   2.414
 3772SOL    HW211853   3.063   3.708   2.514
 3773SOL     OW11854   2.905   2.387   1.886
 3773SOL    HW111855   2.839   2.456   1.885
 3773SOL    HW211856   2.962   2.410   1.959
 3774SOL     OW11857   2.408   2.073   3.020
 3774SOL    HW111858   2.478   2.016   3.054
 3774SOL    HW211859   2.352   2.088   3.096
 3775SOL     OW11860   2.728   2.297   2.510
 3775SOL    HW111861   2.707   2.361   2.442
 3775SOL    HW211862   2.754   2.218   2.462
 3776SOL     OW11863   2.878   1.915   2.613
 3776SOL    HW111864   2.821   1.909   2.537
 3776SOL    HW211865   2.855   1.840   2.668
 3777SOL     OW11866   3.299   3.027   2.720
 3777SOL    HW111867   3.233   2.958   2.719
 3777SOL    HW211868   3.325   3.037   2.628
 3778SOL     OW11869   3.327   2.466   2.835
 3778SOL    HW111870   3.276   2.385   2.834
 3778SOL    HW211871   3.387   2.455   2.908
 3779SOL     OW11872   3.706   2.677   2.245
 3779SOL    HW111873   3.763   2.627   2.303
 3779SOL    HW211874   3.679   2.615   2.178
 3780SOL     OW11875   2.354   3.278   2.019
 3780SOL    HW111876   2.278   3.251   2.070
 3780SOL    HW211877   2.341   3.237   1.933
 3781SOL     OW11878   3.532   3.125   2.508
 3781SOL    HW111879   3.626   3.127   2.521
 3781SOL    HW211880   3.503   3.214   2.528
 3782SOL     OW11881   3.257   2.433   1.933
 3782SOL    HW111882   3.197   2.412   2.004
 3782SOL    HW211883   3.342   2.401   1.963
 3783SOL     OW11884   2.386   2.131   2.183
 3783SOL    HW111885   2.423   2.076   2.115
 3783SOL    HW211886   2.366   2.214   2.140
 3784SOL     OW11887   3.623   3.092   3.432
 3784SOL    HW111888   3.714   3.063   3.419
 3784SOL    HW211889   3.630   3.180   3.467
 3785SOL     OW11890   3.465   3.479   3.510
 3785SOL    HW111891   3.466   3.524   3.425
 3785SOL    HW211892   3.550   3.435   3.515
 3786SOL     OW11893   2.967   3.105   2.980
 3786SOL    HW111894   2.885   3.062   3.004
 3786SOL    HW211895   2.956   3.126   2.887
 3787SOL     OW11896   3.491   2.959   2.941
 3787SOL    HW111897   3.489   3.025   3.010
 3787SOL    HW211898   3.410   2.973   2.891
 3788SOL     OW11899   2.845   2.925   3.617
 3788SOL    HW111900   2.770   2.985   3.613
 3788SOL    HW211901   2.889   2.936   3.533
 3789SOL     OW11902   2.273   2.664   3.094
 3789SOL    HW111903   2.335   2.708   3.151
 3789SOL    HW211904   2.229   2.600   3.150
 3790SOL     OW11905   1.931   3.439   3.213
 3790SOL    HW111906   1.907   3.513   3.158
 3790SOL    HW211907   2.026   3.435   3.207
 3791SOL     OW11908   2.217   2.970   2.350
 3791SOL    HW111909   2.210   3.044   2.290
 3791SOL    HW211910   2.206   2.893   2.293
 3792SOL     OW11911   2.405   2.380   2.732
 3792SOL    HW111912   2.412   2.404   2.640
 3792SOL    HW211913   2.495   2.384   2.765
 3793SOL     OW11914   3.109   3.210   2.254
 3793SOL    HW111915   3.165   3.282   2.282
 3793SOL    HW211916   3.022   3.233   2.286
 3794SOL     OW11917   3.138   3.325   3.000
 3794SOL    HW111918   3.178   3.334   3.086
 3794SOL    HW211919   3.074   3.254   3.011
 3795SOL     OW11920   3.442   2.484   2.342
 3795SOL    HW111921   3.395   2.539   2.405
 3795SOL    HW211922   3.489   2.546   2.287
 3796SOL     OW11923   2.200   3.406   3.170
 3796SOL    HW111924   2.188   3.347   3.096
 3796SOL    HW211925   2.294   3.423   3.172
 3797SOL     OW11926   2.304   2.605   3.428
 3797SOL    HW111927   2.376   2.661   3.457
 3797SOL    HW211928   2.295   2.540   3.498
 3798SOL     OW11929   3.229   2.717   2.898
 3798SOL    HW111930   3.145   2.719   2.854
 3798SOL    HW211931   3.264   2.630   2.881
 3799SOL     OW11932   3.063   2.390   2.130
 3799SOL    HW111933   3.066   2.307   2.179
 3799SOL    HW211934   3.063   2.458   2.197
 3800SOL     OW11935   1.910   3.175   3.142
 3800SOL    HW111936   1.986   3.142   3.190
 3800SOL    HW211937   1.905   3.268   3.165
 3801SOL     OW11938   3.621   2.783   3.709
 3801SOL    HW111939   3.583   2.812   3.626
 3801SOL    HW211940   3.562   2.819   3.776
 3802SOL     OW11941   2.166   1.927   2.485
 3802SOL    HW111942   2.145   2.017   2.509
 3802SOL    HW211943   2.173   1.881   2.569
 3803SOL     OW11944   3.479   2.237   2.228
 3803SOL    HW111945   3.507   2.172   2.293
 3803SOL    HW211946   3.457   2.315   2.279
 3804SOL     OW11947   3.715   3.369   3.467
 3804SOL    HW111948   3.735   3.394   3.377
 3804SOL    HW211949   3.796   3.385   3.516
 3805SOL     OW11950   3.389   2.135   1.989
 3805SOL    HW111951   3.325   2.069   2.016
 3805SOL    HW211952   3.423   2.170   2.072
 3806SOL     OW11953   3.154   2.686   1.890
 3806SOL    HW111954   3.196   2.600   1.893
 3806SOL    HW211955   3.185   2.725   1.809
 3807SOL     OW11956   2.928   3.201   2.713
 3807SOL    HW111957   2.933   3.130   2.649
 3807SOL    HW211958   2.989   3.267   2.680
 3808SOL     OW11959   2.169   2.672   2.804
 3808SOL    HW111960   2.253   2.708   2.831
 3808SOL    HW211961   2.166   2.585   2.844
 3809SOL     OW11962   2.176   2.395   2.876
 3809SOL    HW111963   2.148   2.303   2.873
 3809SOL    HW211964   2.258   2.397   2.829
 3810SOL     OW11965   1.867   3.182   2.057
 3810SOL    HW111966   1.781   3.197   2.019
 3810SOL    HW211967   1.864   3.093   2.091
 3811SOL     OW11968   1.953   3.648   2.801
 3811SOL    HW111969   1.922   3.569   2.756
 3811SOL    HW211970   2.042   3.661   2.769
 3812SOL     OW11971   2.356   3.435   2.767
 3812SOL    HW111972   2.425   3.496   2.794
 3812SOL    HW211973   2.401   3.371   2.712
 3813SOL     OW11974   1.910   2.401   3.006
 3813SOL    HW111975   1.974   2.387   2.936
 3813SOL    HW211976   1.950   2.468   3.062
 3814SOL     OW11977   2.708   2.327   2.231
 3814SOL    HW111978   2.707   2.288   2.143
 3814SOL    HW211979   2.633   2.387   2.231
 3815SOL     OW11980   3.496   2.457   3.052
 3815SOL    HW111981   3.494   2.395   3.125
 3815SOL    HW211982   3.583   2.446   3.014
 3816SOL     OW11983   2.063   3.415   3.605
 3816SOL    HW111984   2.047   3.501   3.645
 3816SOL    HW211985   2.084   3.358   3.679
 3817SOL     OW11986   2.813   3.553   3.324
 3817SOL    HW111987   2.788   3.510   3.242
 3817SOL    HW211988   2.787   3.644   3.312
 3818SOL     OW11989   2.329   2.365   2.056
 3818SOL    HW111990   2.377   2.446   2.076
 3818SOL    HW211991   2.239   2.394   2.041
 3819SOL     OW11992   3.176   2.708   2.164
 3819SOL    HW111993   3.095   2.736   2.206
 3819SOL    HW211994   3.155   2.703   2.071
 3820SOL     OW11995   3.636   3.606   3.014
 3820SOL    HW111996   3.696   3.632   2.945
 3820SOL    HW211997   3.611   3.516   2.992
 3821SOL     OW11998   3.105   3.601   2.974
 3821SOL    HW111999   3.187   3.620   2.929
 3821SOL    HW212000   3.106   3.507   2.988
 3822SOL     OW12001   1.944   3.127   2.876
 3822SOL    HW112002   1.926   3.141   2.969
 3822SOL    HW212003   1.871   3.072   2.846
 3823SOL     OW12004   2.583   3.608   3.591
 3823SOL    HW112005   2.506   3.665   3.590
 3823SOL    HW212006   2.613   3.607   3.500
 3824SOL     OW12007   3.582   2.010   2.371
 3824SOL    HW112008   3.654   1.995   2.310
 3824SOL    HW212009   3.566   1.925   2.410
 3825SOL     OW12010   3.252   3.430   2.347
 3825SOL    HW112011   3.313   3.463   2.280
 3825SOL    HW212012   3.204   3.507   2.376
 3826SOL     OW12013   1.995   3.662   3.708
 3826SOL    HW112014   1.943   3.600   3.759
 3826SOL    HW212015   2.045   3.711   3.773
 3827SOL     OW12016   3.130   2.787   2.533
 3827SOL    HW112017   3.203   2.725   2.541
 3827SOL    HW212018   3.166   2.859   2.481
 3828SOL     OW12019   2.532   3.483   2.017
 3828SOL    HW112020   2.543   3.496   1.923
 3828SOL    HW212021   2.478   3.405   2.024
 3829SOL     OW12022   3.491   3.593   3.255
 3829SOL    HW112023   3.541   3.599   3.173
 3829SOL    HW212024   3.475   3.684   3.280
 3830SOL     OW12025   3.703   2.035   2.828
 3830SOL    HW112026   3.732   1.947   2.802
 3830SOL    HW212027   3.617   2.044   2.788
 3831SOL     OW12028   2.122   2.179   2.579
 3831SOL    HW112029   2.036   2.212   2.555
 3831SOL    HW212030   2.121   2.174   2.675
 3832SOL     OW12031   3.069   3.468   1.894
 3832SOL    HW112032   3.059   3.376   1.920
 3832SOL    HW212033   3.005   3.480   1.824
 3833SOL     OW12034   3.353   3.487   1.905
 3833SOL    HW112035   3.259   3.481   1.891
 3833SOL    HW212036   3.390   3.494   1.817
 3834SOL     OW12037   3.474   3.152   3.137
 3834SOL    HW112038   3.529   3.128   3.212
 3834SOL    HW212039   3.421   3.225   3.168
 3835SOL     OW12040   2.914   2.970   2.567
 3835SOL    HW112041   2.838   2.921   2.601
 3835SOL    HW212042   2.979   2.902   2.547
 3836SOL     OW12043   2.889   2.103   2.827
 3836SOL    HW112044   2.883   2.051   2.746
 3836SOL    HW212045   2.881   2.038   2.897
 3837SOL     OW12046   2.464   3.354   2.343
 3837SOL    HW112047   2.510   3.307   2.274
 3837SOL    HW212048   2.392   3.399   2.298
 3838SOL     OW12049   3.584   2.252   3.241
 3838SOL    HW112050   3.657   2.315   3.243
 3838SOL    HW212051   3.615   2.181   3.185
 3839SOL     OW12052   2.122   3.206   2.151
 3839SOL    HW112053   2.029   3.204   2.128
 3839SOL    HW212054   2.124   3.244   2.239
 3840SOL     OW12055   1.941   2.194   1.897
 3840SOL    HW112056   1.853   2.175   1.864
 3840SOL    HW212057   1.969   2.270   1.846
 3841SOL     OW12058   1.930   2.018   2.170
 3841SOL    HW112059   1.916   2.097   2.119
 3841SOL    HW212060   2.015   1.985   2.141
 3842SOL     OW12061   3.041   3.202   1.979
 3842SOL    HW112062   2.951   3.170   1.980
 3842SOL    HW212063   3.068   3.201   2.071
 3843SOL     OW12064   3.346   3.640   2.841
 3843SOL    HW112065   3.369   3.700   2.770
 3843SOL    HW212066   3.429   3.620   2.883
 3844SOL     OW12067   2.238   3.600   3.427
 3844SOL    HW112068   2.154   3.643   3.415
 3844SOL    HW212069   2.216   3.507   3.440
 3845SOL     OW12070   3.549   2.743   3.121
 3845SOL    HW112071   3.524   2.660   3.081
 3845SOL    HW212072   3.526   2.810   3.056
 3846SOL     OW12073   3.080   2.180   2.319
 3846SOL    HW112074   3.142   2.108   2.310
 3846SOL    HW212075   3.109   2.228   2.397
 3847SOL     OW12076   3.616   2.229   3.514
 3847SOL    HW112077   3.595   2.243   3.422
 3847SOL    HW212078   3.560   2.156   3.541
 3848SOL     OW12079   3.615   2.797   3.385
 3848SOL    HW112080   3.604   2.892   3.388
 3848SOL    HW212081   3.592   2.773   3.296
 3849SOL     OW12082   2.732   3.235   1.899
 3849SOL    HW112083   2.690   3.267   1.978
 3849SOL    HW212084   2.748   3.313   1.847
 3850SOL     OW12085   2.522   3.653   2.804
 3850SOL    HW112086   2.504   3.744   2.781
 3850SOL    HW212087   2.617   3.645   2.797
 3851SOL     OW12088   2.964   2.869   1.953
 3851SOL    HW112089   2.927   2.906   1.873
 3851SOL    HW212090   3.027   2.804   1.922
 3852SOL     OW12091   3.716   3.416   2.705
 3852SOL    HW112092   3.637   3.404   2.652
 3852SOL    HW212093   3.708   3.350   2.774
 3853SOL     OW12094   1.946   3.094   2.528
 3853SOL    HW112095   1.953   3.046   2.611
 3853SOL    HW212096   2.016   3.058   2.474
 3854SOL     OW12097   3.675   2.045   3.099
 3854SOL    HW112098   3.685   1.951   3.113
 3854SOL    HW212099   3.685   2.056   3.004
 3855SOL     OW12100   2.306   2.294   2.404
 3855SOL    HW112101   2.326   2.229   2.336
 3855SOL    HW212102   2.244   2.250   2.461
 3856SOL     OW12103   3.564   3.353   2.955
 3856SOL    HW112104   3.483   3.332   2.908
 3856SOL    HW212105   3.573   3.283   3.019
 3857SOL     OW12106   2.692   3.439   2.535
 3857SOL    HW112107   2.673   3.496   2.461
 3857SOL    HW212108   2.615   3.382   2.542
 3858SOL     OW12109   3.289   2.085   2.989
 3858SOL    HW112110   3.328   2.001   3.013
 3858SOL    HW212111   3.237   2.110   3.066
 3859SOL     OW12112   2.876   1.884   2.998
 3859SOL    HW112113   2.818   1.814   2.970
 3859SOL    HW212114   2.963   1.843   3.002
 3860SOL     OW12115   2.634   3.205   2.178
 3860SOL    HW112116   2.611   3.113   2.165
 3860SOL    HW212117   2.717   3.202   2.227
 3861SOL     OW12118   2.461   3.466   3.119
 3861SOL    HW112119   2.476   3.538   3.180
 3861SOL    HW212120   2.548   3.437   3.093
 3862SOL     OW12121   3.215   1.915   2.028
 3862SOL    HW112122   3.244   1.850   1.965
 3862SOL    HW212123   3.127   1.886   2.054
 3863SOL     OW12124   3.167   2.314   2.543
 3863SOL    HW112125   3.117   2.396   2.550
 3863SOL    HW212126   3.161   2.275   2.630
 3864SOL     OW12127   3.448   2.065   2.741
 3864SOL    HW112128   3.384   2.088   2.808
 3864SOL    HW212129   3.450   2.141   2.683
 3865SOL     OW12130   1.906   2.932   2.168
 3865SOL    HW112131   1.999   2.922   2.148
 3865SOL    HW212132   1.877   2.843   2.191
 3866SOL     OW12133   2.748   3.516   2.203
 3866SOL    HW112134   2.675   3.499   2.144
 3866SOL    HW212135   2.719   3.590   2.256
 3867SOL     OW12136   3.426   3.381   4.431
 3867SOL    HW112137   3.378   3.374   4.514
 3867SOL    HW212138   3.358   3.387   4.365
 3868SOL     OW12139   2.974   2.603   4.438
 3868SOL    HW112140   3.068   2.584   4.445
 3868SOL    HW212141   2.933   2.542   4.500
 3869SOL     OW12142   3.617   2.467   3.957
 3869SOL    HW112143   3.623   2.454   3.862
 3869SOL    HW212144   3.580   2.385   3.990
 3870SOL     OW12145   2.570   3.027   5.550
 3870SOL    HW112146   2.623   3.105   5.563
 3870SOL    HW212147   2.493   3.057   5.501
 3871SOL     OW12148   3.327   3.363   5.087
 3871SOL    HW112149   3.380   3.442   5.093
 3871SOL    HW212150   3.263   3.372   5.157
 3872SOL     OW12151   2.312   2.254   5.254
 3872SOL    HW112152   2.387   2.199   5.234
 3872SOL    HW212153   2.236   2.195   5.245
 3873SOL     OW12154   2.087   3.590   4.191
 3873SOL    HW112155   2.109   3.665   4.246
 3873SOL    HW212156   2.162   3.581   4.132
 3874SOL     OW12157   3.004   3.203   5.418
 3874SOL    HW112158   3.040   3.199   5.507
 3874SOL    HW212159   2.950   3.125   5.410
 3875SOL     OW12160   1.992   3.344   4.253
 3875SOL    HW112161   2.024   3.433   4.245
 3875SOL    HW212162   2.051   3.303   4.316
 3876SOL     OW12163   2.478   3.658   5.154
 3876SOL    HW112164   2.396   3.636   5.197
 3876SOL    HW212165   2.496   3.748   5.182
 3877SOL     OW12166   2.430   2.860   3.838
 3877SOL    HW112167   2.453   2.921   3.769
 3877SOL    HW212168   2.473   2.894   3.916
 3878SOL     OW12169   3.460   1.984   5.193
 3878SOL    HW112170   3.473   2.064   5.142
 3878SOL    HW212171   3.444   2.016   5.282
 3879SOL     OW12172   3.706   3.620   4.057
 3879SOL    HW112173   3.770   3.592   4.122
 3879SOL    HW212174   3.728   3.711   4.039
 3880SOL     OW12175   1.894   3.459   3.852
 3880SOL    HW112176   1.883   3.367   3.874
 3880SOL    HW212177   1.869   3.506   3.932
 3881SOL     OW12178   3.613   2.785   4.357
 3881SOL    HW112179   3.681   2.728   4.321
 3881SOL    HW212180   3.571   2.823   4.279
 3882SOL     OW12181   3.544   2.957   4.148
 3882SOL    HW112182   3.628   2.982   4.109
 3882SOL    HW212183   3.523   3.029   4.208
 3883SOL     OW12184   1.979   2.601   5.310
 3883SOL    HW112185   2.070   2.629   5.320
 3883SOL    HW212186   1.929   2.683   5.305
 3884SOL     OW12187   3.152   3.073   5.146
 3884SOL    HW112188   3.219   3.049   5.082
 3884SOL    HW212189   3.200   3.083   5.228
 3885SOL     OW12190   2.019   2.797   5.029
 3885SOL    HW112191   2.106   2.757   5.028
 3885SOL    HW212192   1.987   2.788   4.939
 3886SOL     OW12193   3.048   3.669   5.346
 3886SOL    HW112194   3.059   3.729   5.272
 3886SOL    HW212195   3.063   3.582   5.309
 3887SOL     OW12196   2.194   2.106   5.543
 3887SOL    HW112197   2.237   2.192   5.539
 3887SOL    HW212198   2.105   2.125   5.573
 3888SOL     OW12199   3.335   3.299   4.689
 3888SOL    HW112200   3.267   3.330   4.749
 3888SOL    HW212201   3.321   3.205   4.684
 3889SOL     OW12202   3.522   3.606   4.300
 3889SOL    HW112203   3.498   3.576   4.212
 3889SOL    HW212204   3.497   3.533   4.357
 3890SOL     OW12205   3.443   3.538   4.031
 3890SOL    HW112206   3.535   3.566   4.026
 3890SOL    HW212207   3.419   3.519   3.941
 3891SOL     OW12208   3.257   2.334   5.402
 3891SOL    HW112209   3.259   2.379   5.486
 3891SOL    HW212210   3.317   2.260   5.413
 3892SOL     OW12211   2.947   2.554   4.169
 3892SOL    HW112212   2.952   2.575   4.262
 3892SOL    HW212213   2.855   2.532   4.154
 3893SOL     OW12214   1.989   3.713   5.303
 3893SOL    HW112215   1.990   3.692   5.396
 3893SOL    HW212216   1.898   3.700   5.276
 3894SOL     OW12217   2.734   2.217   3.913
 3894SOL    HW112218   2.782   2.288   3.870
 3894SOL    HW212219   2.765   2.138   3.869
 3895SOL     OW12220   3.569   2.435   5.553
 3895SOL    HW112221   3.532   2.509   5.504
 3895SOL    HW212222   3.598   2.374   5.485
 3896SOL     OW12223   2.220   3.677   4.592
 3896SOL    HW112224   2.280   3.603   4.593
 3896SOL    HW212225   2.276   3.753   4.609
 3897SOL     OW12226   3.674   2.924   4.591
 3897SOL    HW112227   3.631   2.891   4.512
 3897SOL    HW212228   3.607   2.919   4.659
 3898SOL     OW12229   3.090   3.398   5.236
 3898SOL    HW112230   3.078   3.332   5.304
 3898SOL    HW212231   3.031   3.373   5.166
 3899SOL     OW12232   2.216   2.765   3.986
 3899SOL    HW112233   2.279   2.801   3.924
 3899SOL    HW212234   2.140   2.742   3.933
 3900SOL     OW12235   2.327   3.130   5.460
 3900SOL    HW112236   2.300   3.132   5.368
 3900SOL    HW212237   2.245   3.126   5.509
 3901SOL     OW12238   2.991   3.627   3.940
 3901SOL    HW112239   2.916   3.607   3.996
 3901SOL    HW212240   2.978   3.572   3.863
 3902SOL     OW12241   2.051   2.149   5.248
 3902SOL    HW112242   1.966   2.192   5.241
 3902SOL    HW212243   2.035   2.073   5.305
 3903SOL     OW12244   3.485   3.233   3.807
 3903SOL    HW112245   3.452   3.322   3.795
 3903SOL    HW212246   3.406   3.179   3.815
 3904SOL     OW12247   2.323   3.608   4.039
 3904SOL    HW112248   2.370   3.659   4.105
 3904SOL    HW212249   2.392   3.562   3.990
 3905SOL     OW12250   3.286   2.005   4.143
 3905SOL    HW112251   3.258   1.959   4.064
 3905SOL    HW212252   3.369   1.964   4.167
 3906SOL     OW12253   2.119   3.653   4.955
 3906SOL    HW112254   2.171   3.585   4.999
 3906SOL    HW212255   2.105   3.621   4.867
 3907SOL     OW12256   3.396   2.087   5.450
 3907SOL    HW112257   3.405   2.107   5.543
 3907SOL    HW212258   3.328   2.019   5.447
 3908SOL     OW12259   2.621   2.116   5.468
 3908SOL    HW112260   2.702   2.066   5.476
 3908SOL    HW212261   2.600   2.143   5.558
 3909SOL     OW12262   3.205   2.452   5.159
 3909SOL    HW112263   3.233   2.412   5.242
 3909SOL    HW212264   3.251   2.535   5.155
 3910SOL     OW12265   2.143   1.907   3.923
 3910SOL    HW112266   2.198   1.959   3.865
 3910SOL    HW212267   2.205   1.849   3.968
 3911SOL     OW12268   2.801   2.133   4.164
 3911SOL    HW112269   2.771   2.167   4.079
 3911SOL    HW212270   2.896   2.126   4.154
 3912SOL     OW12271   2.941   2.519   5.167
 3912SOL    HW112272   2.902   2.436   5.196
 3912SOL    HW212273   3.034   2.499   5.158
 3913SOL     OW12274   3.132   3.665   4.317
 3913SOL    HW112275   3.179   3.728   4.261
 3913SOL    HW212276   3.079   3.720   4.375
 3914SOL     OW12277   2.907   2.418   3.751
 3914SOL    HW112278   2.864   2.503   3.760
 3914SOL    HW212279   2.958   2.409   3.831
 3915SOL     OW12280   1.939   2.424   5.106
 3915SOL    HW112281   2.031   2.406   5.088
 3915SOL    HW212282   1.940   2.490   5.176
 3916SOL     OW12283   2.726   2.341   4.334
 3916SOL    HW112284   2.676   2.379   4.261
 3916SOL    HW212285   2.756   2.257   4.300
 3917SOL     OW12286   3.729   2.677   4.094
 3917SOL    HW112287   3.777   2.619   4.154
 3917SOL    HW212288   3.676   2.618   4.041
 3918SOL     OW12289   3.537   3.135   4.376
 3918SOL    HW112290   3.633   3.136   4.382
 3918SOL    HW212291   3.511   3.226   4.388
 3919SOL     OW12292   2.377   2.119   4.007
 3919SOL    HW112293   2.468   2.098   3.986
 3919SOL    HW212294   2.366   2.211   3.981
 3920SOL     OW12295   3.614   3.102   5.297
 3920SOL    HW112296   3.702   3.064   5.292
 3920SOL    HW212297   3.630   3.193   5.324
 3921SOL     OW12298   2.941   3.229   5.066
 3921SOL    HW112299   2.856   3.198   5.097
 3921SOL    HW212300   3.004   3.166   5.102
 3922SOL     OW12301   3.470   3.487   5.378
 3922SOL    HW112302   3.464   3.523   5.289
 3922SOL    HW212303   3.553   3.440   5.380
 3923SOL     OW12304   3.505   2.964   4.807
 3923SOL    HW112305   3.494   3.026   4.879
 3923SOL    HW212306   3.420   2.962   4.763
 3924SOL     OW12307   2.777   1.959   5.132
 3924SOL    HW112308   2.793   1.932   5.042
 3924SOL    HW212309   2.860   1.995   5.161
 3925SOL     OW12310   2.850   2.977   5.442
 3925SOL    HW112311   2.760   2.987   5.471
 3925SOL    HW212312   2.846   2.922   5.364
 3926SOL     OW12313   2.562   2.961   4.049
 3926SOL    HW112314   2.488   2.955   4.109
 3926SOL    HW212315   2.636   2.926   4.100
 3927SOL     OW12316   2.257   2.672   5.044
 3927SOL    HW112317   2.351   2.684   5.036
 3927SOL    HW212318   2.243   2.578   5.034
 3928SOL     OW12319   1.932   3.439   5.079
 3928SOL    HW112320   1.900   3.510   5.024
 3928SOL    HW212321   2.027   3.439   5.067
 3929SOL     OW12322   2.325   2.938   4.166
 3929SOL    HW112323   2.269   3.016   4.171
 3929SOL    HW212324   2.272   2.874   4.117
 3930SOL     OW12325   2.368   2.450   4.622
 3930SOL    HW112326   2.374   2.431   4.528
 3930SOL    HW212327   2.449   2.414   4.658
 3931SOL     OW12328   3.142   3.349   4.886
 3931SOL    HW112329   3.207   3.348   4.957
 3931SOL    HW212330   3.073   3.290   4.915
 3932SOL     OW12331   2.203   3.379   5.019
 3932SOL    HW112332   2.195   3.315   4.949
 3932SOL    HW212333   2.298   3.395   5.027
 3933SOL     OW12334   2.259   2.603   5.332
 3933SOL    HW112335   2.290   2.647   5.253
 3933SOL    HW212336   2.289   2.513   5.322
 3934SOL     OW12337   3.463   2.641   5.408
 3934SOL    HW112338   3.378   2.683   5.401
 3934SOL    HW212339   3.517   2.683   5.341
 3935SOL     OW12340   2.864   1.987   5.488
 3935SOL    HW112341   2.916   2.058   5.450
 3935SOL    HW212342   2.908   1.907   5.460
 3936SOL     OW12343   2.358   1.898   5.473
 3936SOL    HW112344   2.315   1.847   5.404
 3936SOL    HW212345   2.301   1.974   5.486
 3937SOL     OW12346   3.016   2.371   3.994
 3937SOL    HW112347   3.101   2.333   4.016
 3937SOL    HW212348   3.002   2.438   4.061
 3938SOL     OW12349   2.164   2.046   5.020
 3938SOL    HW112350   2.113   2.074   5.095
 3938SOL    HW212351   2.135   1.956   5.004
 3939SOL     OW12352   1.915   3.173   5.010
 3939SOL    HW112353   1.936   3.119   5.086
 3939SOL    HW212354   1.911   3.262   5.043
 3940SOL     OW12355   3.598   2.821   5.578
 3940SOL    HW112356   3.552   2.758   5.522
 3940SOL    HW212357   3.538   2.836   5.651
 3941SOL     OW12358   3.490   2.245   4.085
 3941SOL    HW112359   3.506   2.170   4.143
 3941SOL    HW212360   3.431   2.301   4.135
 3942SOL     OW12361   2.845   3.427   5.445
 3942SOL    HW112362   2.828   3.474   5.364
 3942SOL    HW212363   2.888   3.346   5.417
 3943SOL     OW12364   3.716   3.367   5.328
 3943SOL    HW112365   3.736   3.393   5.238
 3943SOL    HW212366   3.797   3.384   5.377
 3944SOL     OW12367   2.209   2.782   5.536
 3944SOL    HW112368   2.290   2.808   5.579
 3944SOL    HW212369   2.236   2.715   5.473
 3945SOL     OW12370   3.423   2.091   3.848
 3945SOL    HW112371   3.345   2.044   3.878
 3945SOL    HW212372   3.437   2.158   3.916
 3946SOL     OW12373   2.279   2.674   4.742
 3946SOL    HW112374   2.319   2.616   4.677
 3946SOL    HW212375   2.210   2.621   4.782
 3947SOL     OW12376   2.998   2.241   5.400
 3947SOL    HW112377   2.954   2.291   5.468
 3947SOL    HW212378   3.087   2.276   5.398
 3948SOL     OW12379   3.023   2.066   5.196
 3948SOL    HW112380   3.013   2.126   5.270
 3948SOL    HW212381   3.049   2.121   5.123
 3949SOL     OW12382   1.861   3.192   3.918
 3949SOL    HW112383   1.776   3.211   3.879
 3949SOL    HW212384   1.856   3.100   3.944
 3950SOL     OW12385   1.953   3.645   4.662
 3950SOL    HW112386   1.925   3.564   4.618
 3950SOL    HW212387   2.042   3.660   4.632
 3951SOL     OW12388   2.055   2.380   5.452
 3951SOL    HW112389   2.102   2.333   5.383
 3951SOL    HW212390   2.014   2.454   5.407
 3952SOL     OW12391   3.239   2.802   5.383
 3952SOL    HW112392   3.261   2.895   5.382
 3952SOL    HW212393   3.240   2.776   5.290
 3953SOL     OW12394   3.505   2.462   4.921
 3953SOL    HW112395   3.493   2.395   4.988
 3953SOL    HW212396   3.588   2.440   4.879
 3954SOL     OW12397   2.105   3.413   5.450
 3954SOL    HW112398   2.082   3.477   5.518
 3954SOL    HW212399   2.107   3.329   5.497
 3955SOL     OW12400   2.499   2.322   5.017
 3955SOL    HW112401   2.483   2.229   5.003
 3955SOL    HW212402   2.551   2.349   4.941
 3956SOL     OW12403   2.784   3.550   5.208
 3956SOL    HW112404   2.767   3.509   5.123
 3956SOL    HW212405   2.782   3.644   5.190
 3957SOL     OW12406   2.335   2.382   3.938
 3957SOL    HW112407   2.387   2.460   3.922
 3957SOL    HW212408   2.244   2.413   3.940
 3958SOL     OW12409   2.008   3.001   5.204
 3958SOL    HW112410   2.008   2.958   5.290
 3958SOL    HW212411   2.012   2.929   5.141
 3959SOL     OW12412   3.145   2.720   4.046
 3959SOL    HW112413   3.062   2.679   4.072
 3959SOL    HW212414   3.158   2.691   3.956
 3960SOL     OW12415   3.636   3.608   4.876
 3960SOL    HW112416   3.697   3.634   4.806
 3960SOL    HW212417   3.613   3.518   4.856
 3961SOL     OW12418   3.101   3.612   4.830
 3961SOL    HW112419   3.184   3.632   4.786
 3961SOL    HW212420   3.108   3.519   4.852
 3962SOL     OW12421   2.540   3.529   5.454
 3962SOL    HW112422   2.485   3.607   5.449
 3962SOL    HW212423   2.607   3.542   5.387
 3963SOL     OW12424   3.587   2.015   4.240
 3963SOL    HW112425   3.655   2.001   4.174
 3963SOL    HW212426   3.569   1.928   4.275
 3964SOL     OW12427   3.258   3.441   4.221
 3964SOL    HW112428   3.309   3.469   4.145
 3964SOL    HW212429   3.206   3.517   4.244
 3965SOL     OW12430   1.999   3.658   5.567
 3965SOL    HW112431   1.949   3.593   5.615
 3965SOL    HW212432   2.047   3.706   5.635
 3966SOL     OW12433   2.695   3.143   5.158
 3966SOL    HW112434   2.657   3.178   5.239
 3966SOL    HW212435   2.625   3.151   5.094
 3967SOL     OW12436   3.487   3.589   5.115
 3967SOL    HW112437   3.538   3.597   5.034
 3967SOL    HW212438   3.473   3.680   5.142
 3968SOL     OW12439   3.701   2.034   4.688
 3968SOL    HW112440   3.732   1.947   4.664
 3968SOL    HW212441   3.611   2.038   4.654
 3969SOL     OW12442   3.359   3.485   3.764
 3969SOL    HW112443   3.266   3.468   3.747
 3969SOL    HW212444   3.399   3.491   3.677
 3970SOL     OW12445   2.232   3.163   5.213
 3970SOL    HW112446   2.217   3.241   5.158
 3970SOL    HW212447   2.155   3.109   5.199
 3971SOL     OW12448   3.461   3.138   5.010
 3971SOL    HW112449   3.533   3.133   5.072
 3971SOL    HW212450   3.410   3.215   5.038
 3972SOL     OW12451   2.885   2.898   4.371
 3972SOL    HW112452   2.866   2.862   4.458
 3972SOL    HW212453   2.980   2.903   4.368
 3973SOL     OW12454   3.586   2.250   5.106
 3973SOL    HW112455   3.655   2.316   5.104
 3973SOL    HW212456   3.617   2.180   5.049
 3974SOL     OW12457   2.108   3.193   4.050
 3974SOL    HW112458   2.036   3.191   3.987
 3974SOL    HW212459   2.080   3.257   4.116
 3975SOL     OW12460   1.973   2.896   5.452
 3975SOL    HW112461   1.896   2.865   5.500
 3975SOL    HW212462   2.047   2.851   5.493
 3976SOL     OW12463   2.530   2.061   5.216
 3976SOL    HW112464   2.613   2.037   5.175
 3976SOL    HW212465   2.553   2.082   5.307
 3977SOL     OW12466   3.296   2.720   5.126
 3977SOL    HW112467   3.239   2.748   5.054
 3977SOL    HW212468   3.384   2.729   5.091
 3978SOL     OW12469   1.924   2.014   4.050
 3978SOL    HW112470   1.914   2.104   4.020
 3978SOL    HW212471   2.006   1.984   4.010
 3979SOL     OW12472   3.349   3.650   4.711
 3979SOL    HW112473   3.372   3.702   4.634
 3979SOL    HW212474   3.433   3.625   4.749
 3980SOL     OW12475   3.335   3.063   5.356
 3980SOL    HW112476   3.322   3.077   5.450
 3980SOL    HW212477   3.428   3.078   5.341
 3981SOL     OW12478   2.241   3.601   5.286
 3981SOL    HW112479   2.157   3.643   5.272
 3981SOL    HW212480   2.220   3.518   5.330
 3982SOL     OW12481   3.536   2.745   4.987
 3982SOL    HW112482   3.528   2.659   4.948
 3982SOL    HW212483   3.536   2.806   4.913
 3983SOL     OW12484   3.623   2.224   5.377
 3983SOL    HW112485   3.608   2.238   5.283
 3983SOL    HW212486   3.551   2.167   5.405
 3984SOL     OW12487   3.608   2.796   5.241
 3984SOL    HW112488   3.606   2.892   5.253
 3984SOL    HW212489   3.594   2.783   5.148
 3985SOL     OW12490   2.520   3.663   4.666
 3985SOL    HW112491   2.481   3.749   4.648
 3985SOL    HW212492   2.612   3.672   4.640
 3986SOL     OW12493   2.956   2.848   3.846
 3986SOL    HW112494   2.907   2.875   3.769
 3986SOL    HW212495   3.030   2.799   3.811
 3987SOL     OW12496   3.715   3.418   4.568
 3987SOL    HW112497   3.638   3.404   4.513
 3987SOL    HW212498   3.711   3.348   4.633
 3988SOL     OW12499   2.086   3.164   5.578
 3988SOL    HW112500   2.023   3.099   5.549
 3988SOL    HW212501   2.067   3.176   5.671
 3989SOL     OW12502   2.545   3.265   5.353
 3989SOL    HW112503   2.463   3.223   5.380
 3989SOL    HW212504   2.539   3.354   5.389
 3990SOL     OW12505   3.675   2.045   4.960
 3990SOL    HW112506   3.683   1.950   4.974
 3990SOL    HW212507   3.686   2.057   4.866
 3991SOL     OW12508   3.569   3.354   4.827
 3991SOL    HW112509   3.488   3.334   4.780
 3991SOL    HW212510   3.581   3.280   4.886
 3992SOL     OW12511   2.211   2.404   5.048
 3992SOL    HW112512   2.269   2.355   5.107
 3992SOL    HW212513   2.224   2.363   4.963
 3993SOL     OW12514   2.869   1.849   4.899
 3993SOL    HW112515   2.814   1.816   4.827
 3993SOL    HW212516   2.956   1.816   4.879
 3994SOL     OW12517   2.638   3.227   4.046
 3994SOL    HW112518   2.596   3.142   4.034
 3994SOL    HW212519   2.729   3.206   4.068
 3995SOL     OW12520   2.469   3.422   5.011
 3995SOL    HW112521   2.493   3.503   5.056
 3995SOL    HW212522   2.547   3.399   4.960
 3996SOL     OW12523   3.224   1.888   3.900
 3996SOL    HW112524   3.251   1.831   3.828
 3996SOL    HW212525   3.139   1.853   3.927
 3997SOL     OW12526   3.441   2.077   4.616
 3997SOL    HW112527   3.378   2.091   4.687
 3997SOL    HW212528   3.454   2.164   4.579
 3998SOL     OW12529   1.867   2.922   4.027
 3998SOL    HW112530   1.948   2.936   3.978
 3998SOL    HW212531   1.893   2.869   4.102
 3999SOL     OW12532   2.739   3.531   4.033
 3999SOL    HW112533   2.689   3.449   4.037
 3999SOL    HW212534   2.723   3.573   4.117
 4000SOL     OW12535   2.093   2.481   5.709
 4000SOL    HW112536   2.004   2.485   5.743
 4000SOL    HW212537   2.082   2.458   5.617
 4001SOL     OW12538   2.087   2.142   6.577
 4001SOL    HW112539   2.114   2.108   6.662
 4001SOL    HW212540   1.997   2.111   6.567
 4002SOL     OW12541   1.865   2.244   6.224
 4002SOL    HW112542   1.783   2.270   6.266
 4002SOL    HW212543   1.843   2.165   6.175
 4003SOL     OW12544   2.426   3.150   6.762
 4003SOL    HW112545   2.340   3.159   6.722
 4003SOL    HW212546   2.444   3.237   6.798
 4004SOL     OW12547   3.424   3.374   6.293
 4004SOL    HW112548   3.381   3.354   6.377
 4004SOL    HW212549   3.352   3.379   6.230
 4005SOL     OW12550   3.016   2.539   6.304
 4005SOL    HW112551   3.043   2.629   6.288
 4005SOL    HW212552   2.941   2.546   6.363
 4006SOL     OW12553   3.630   2.467   5.814
 4006SOL    HW112554   3.608   2.459   5.721
 4006SOL    HW212555   3.594   2.387   5.853
 4007SOL     OW12556   2.640   3.027   6.637
 4007SOL    HW112557   2.558   3.042   6.684
 4007SOL    HW212558   2.655   3.108   6.589
 4008SOL     OW12559   2.576   3.016   7.395
 4008SOL    HW112560   2.624   3.094   7.422
 4008SOL    HW212561   2.494   3.049   7.358
 4009SOL     OW12562   2.190   3.289   6.653
 4009SOL    HW112563   2.120   3.249   6.603
 4009SOL    HW212564   2.241   3.338   6.588
 4010SOL     OW12565   3.322   3.361   6.942
 4010SOL    HW112566   3.373   3.442   6.952
 4010SOL    HW212567   3.257   3.366   7.012
 4011SOL     OW12568   2.312   2.266   7.088
 4011SOL    HW112569   2.389   2.209   7.081
 4011SOL    HW212570   2.238   2.205   7.095
 4012SOL     OW12571   3.473   2.309   6.327
 4012SOL    HW112572   3.397   2.329   6.273
 4012SOL    HW212573   3.484   2.386   6.382
 4013SOL     OW12574   2.081   3.577   6.057
 4013SOL    HW112575   2.102   3.653   6.112
 4013SOL    HW212576   2.155   3.569   5.997
 4014SOL     OW12577   2.998   3.202   7.278
 4014SOL    HW112578   3.035   3.199   7.366
 4014SOL    HW212579   2.947   3.121   7.271
 4015SOL     OW12580   2.091   3.304   6.120
 4015SOL    HW112581   2.074   3.398   6.125
 4015SOL    HW212582   2.033   3.266   6.186
 4016SOL     OW12583   2.115   2.952   6.473
 4016SOL    HW112584   2.113   2.867   6.517
 4016SOL    HW212585   2.062   3.009   6.529
 4017SOL     OW12586   2.471   3.655   7.014
 4017SOL    HW112587   2.391   3.636   7.062
 4017SOL    HW212588   2.494   3.744   7.041
 4018SOL     OW12589   2.429   2.863   5.712
 4018SOL    HW112590   2.477   2.919   5.651
 4018SOL    HW212591   2.487   2.857   5.789
 4019SOL     OW12592   3.458   1.986   7.053
 4019SOL    HW112593   3.468   2.067   7.004
 4019SOL    HW212594   3.442   2.015   7.143
 4020SOL     OW12595   1.978   2.513   6.147
 4020SOL    HW112596   1.944   2.426   6.169
 4020SOL    HW212597   1.968   2.563   6.228
 4021SOL     OW12598   3.705   3.620   5.920
 4021SOL    HW112599   3.770   3.592   5.984
 4021SOL    HW212600   3.727   3.711   5.901
 4022SOL     OW12601   1.895   3.456   5.709
 4022SOL    HW112602   1.877   3.364   5.729
 4022SOL    HW212603   1.871   3.503   5.789
 4023SOL     OW12604   3.551   2.780   6.227
 4023SOL    HW112605   3.635   2.738   6.207
 4023SOL    HW212606   3.530   2.830   6.149
 4024SOL     OW12607   3.509   2.968   6.015
 4024SOL    HW112608   3.594   2.973   5.973
 4024SOL    HW212609   3.514   3.030   6.088
 4025SOL     OW12610   1.973   2.603   7.173
 4025SOL    HW112611   2.066   2.626   7.181
 4025SOL    HW212612   1.927   2.687   7.180
 4026SOL     OW12613   2.480   3.248   6.321
 4026SOL    HW112614   2.435   3.164   6.332
 4026SOL    HW212615   2.459   3.275   6.231
 4027SOL     OW12616   3.151   3.098   7.011
 4027SOL    HW112617   3.183   3.032   6.950
 4027SOL    HW212618   3.210   3.093   7.086
 4028SOL     OW12619   2.676   1.856   6.098
 4028SOL    HW112620   2.720   1.938   6.075
 4028SOL    HW212621   2.583   1.880   6.104
 4029SOL     OW12622   2.043   2.833   6.856
 4029SOL    HW112623   2.127   2.788   6.847
 4029SOL    HW212624   1.981   2.778   6.808
 4030SOL     OW12625   3.394   2.857   5.785
 4030SOL    HW112626   3.329   2.795   5.817
 4030SOL    HW212627   3.435   2.892   5.864
 4031SOL     OW12628   3.049   3.670   7.209
 4031SOL    HW112629   3.056   3.728   7.133
 4031SOL    HW212630   3.063   3.582   7.173
 4032SOL     OW12631   2.194   2.109   7.401
 4032SOL    HW112632   2.237   2.194   7.412
 4032SOL    HW212633   2.104   2.124   7.430
 4033SOL     OW12634   3.330   3.282   6.538
 4033SOL    HW112635   3.261   3.298   6.603
 4033SOL    HW212636   3.317   3.191   6.511
 4034SOL     OW12637   3.519   3.604   6.164
 4034SOL    HW112638   3.501   3.573   6.075
 4034SOL    HW212639   3.495   3.530   6.220
 4035SOL     OW12640   3.143   2.215   6.519
 4035SOL    HW112641   3.053   2.182   6.527
 4035SOL    HW212642   3.193   2.161   6.580
 4036SOL     OW12643   3.442   3.532   5.895
 4036SOL    HW112644   3.533   3.563   5.888
 4036SOL    HW212645   3.416   3.516   5.805
 4037SOL     OW12646   3.257   2.337   7.261
 4037SOL    HW112647   3.257   2.381   7.345
 4037SOL    HW212648   3.316   2.262   7.273
 4038SOL     OW12649   2.852   2.272   6.835
 4038SOL    HW112650   2.764   2.289   6.868
 4038SOL    HW212651   2.839   2.243   6.745
 4039SOL     OW12652   1.949   2.683   6.363
 4039SOL    HW112653   2.030   2.676   6.414
 4039SOL    HW212654   1.905   2.761   6.396
 4040SOL     OW12655   1.988   3.717   7.166
 4040SOL    HW112656   1.990   3.694   7.259
 4040SOL    HW212657   1.899   3.697   7.138
 4041SOL     OW12658   2.749   2.191   5.730
 4041SOL    HW112659   2.800   2.254   5.679
 4041SOL    HW212660   2.795   2.108   5.719
 4042SOL     OW12661   3.571   2.437   7.416
 4042SOL    HW112662   3.533   2.510   7.368
 4042SOL    HW212663   3.598   2.375   7.348
 4043SOL     OW12664   3.236   2.999   6.123
 4043SOL    HW112665   3.319   2.992   6.076
 4043SOL    HW212666   3.187   3.066   6.076
 4044SOL     OW12667   2.410   2.036   6.476
 4044SOL    HW112668   2.411   2.063   6.567
 4044SOL    HW212669   2.410   2.118   6.426
 4045SOL     OW12670   2.865   3.304   6.058
 4045SOL    HW112671   2.831   3.379   6.008
 4045SOL    HW212672   2.847   3.327   6.149
 4046SOL     OW12673   2.217   3.671   6.450
 4046SOL    HW112674   2.260   3.586   6.457
 4046SOL    HW212675   2.286   3.735   6.469
 4047SOL     OW12676   3.661   2.917   6.455
 4047SOL    HW112677   3.607   2.899   6.378
 4047SOL    HW212678   3.599   2.923   6.527
 4048SOL     OW12679   3.089   3.400   7.098
 4048SOL    HW112680   3.076   3.328   7.161
 4048SOL    HW212681   3.025   3.383   7.029
 4049SOL     OW12682   2.175   2.826   5.836
 4049SOL    HW112683   2.255   2.847   5.789
 4049SOL    HW212684   2.150   2.740   5.804
 4050SOL     OW12685   3.338   2.611   6.313
 4050SOL    HW112686   3.333   2.564   6.396
 4050SOL    HW212687   3.418   2.662   6.319
 4051SOL     OW12688   2.328   3.127   7.324
 4051SOL    HW112689   2.301   3.132   7.232
 4051SOL    HW212690   2.246   3.124   7.374
 4052SOL     OW12691   2.984   3.640   5.816
 4052SOL    HW112692   2.910   3.599   5.861
 4052SOL    HW212693   3.007   3.578   5.747
 4053SOL     OW12694   2.064   2.143   7.088
 4053SOL    HW112695   1.980   2.190   7.083
 4053SOL    HW212696   2.045   2.067   7.144
 4054SOL     OW12697   3.490   3.242   5.674
 4054SOL    HW112698   3.449   3.327   5.659
 4054SOL    HW212699   3.421   3.178   5.654
 4055SOL     OW12700   2.327   3.599   5.907
 4055SOL    HW112701   2.370   3.656   5.970
 4055SOL    HW212702   2.399   3.568   5.851
 4056SOL     OW12703   3.263   1.969   6.020
 4056SOL    HW112704   3.254   1.943   5.928
 4056SOL    HW212705   3.358   1.975   6.033
 4057SOL     OW12706   2.118   3.653   6.817
 4057SOL    HW112707   2.170   3.587   6.863
 4057SOL    HW212708   2.110   3.619   6.728
 4058SOL     OW12709   2.798   3.563   6.484
 4058SOL    HW112710   2.871   3.509   6.513
 4058SOL    HW212711   2.756   3.512   6.415
 4059SOL     OW12712   2.250   2.552   6.059
 4059SOL    HW112713   2.277   2.462   6.080
 4059SOL    HW212714   2.157   2.555   6.081
 4060SOL     OW12715   3.396   2.087   7.311
 4060SOL    HW112716   3.406   2.107   7.404
 4060SOL    HW212717   3.326   2.022   7.309
 4061SOL     OW12718   2.482   1.973   5.705
 4061SOL    HW112719   2.569   1.933   5.703
 4061SOL    HW212720   2.444   1.951   5.620
 4062SOL     OW12721   2.620   2.118   7.332
 4062SOL    HW112722   2.702   2.070   7.339
 4062SOL    HW212723   2.597   2.138   7.423
 4063SOL     OW12724   2.739   3.388   6.780
 4063SOL    HW112725   2.721   3.350   6.694
 4063SOL    HW212726   2.804   3.329   6.819
 4064SOL     OW12727   3.213   2.450   7.012
 4064SOL    HW112728   3.240   2.419   7.098
 4064SOL    HW212729   3.248   2.539   7.007
 4065SOL     OW12730   2.678   3.273   6.523
 4065SOL    HW112731   2.762   3.252   6.481
 4065SOL    HW212732   2.614   3.264   6.453
 4066SOL     OW12733   2.785   2.354   6.490
 4066SOL    HW112734   2.766   2.338   6.398
 4066SOL    HW212735   2.826   2.273   6.520
 4067SOL     OW12736   2.411   1.927   6.087
 4067SOL    HW112737   2.330   1.926   6.138
 4067SOL    HW212738   2.405   2.005   6.032
 4068SOL     OW12739   3.289   3.060   5.626
 4068SOL    HW112740   3.319   2.985   5.677
 4068SOL    HW212741   3.204   3.082   5.663
 4069SOL     OW12742   2.154   1.910   5.772
 4069SOL    HW112743   2.211   1.970   5.724
 4069SOL    HW212744   2.214   1.847   5.812
 4070SOL     OW12745   2.810   2.091   6.052
 4070SOL    HW112746   2.769   2.164   6.005
 4070SOL    HW212747   2.904   2.110   6.047
 4071SOL     OW12748   2.944   2.514   7.059
 4071SOL    HW112749   2.901   2.436   7.025
 4071SOL    HW212750   3.037   2.499   7.042
 4072SOL     OW12751   3.089   3.428   6.376
 4072SOL    HW112752   3.102   3.498   6.313
 4072SOL    HW212753   3.152   3.447   6.446
 4073SOL     OW12754   2.329   3.020   6.319
 4073SOL    HW112755   2.260   2.995   6.380
 4073SOL    HW212756   2.296   2.994   6.233
 4074SOL     OW12757   3.130   3.655   6.195
 4074SOL    HW112758   3.177   3.717   6.138
 4074SOL    HW212759   3.063   3.708   6.238
 4075SOL     OW12760   2.906   2.392   5.610
 4075SOL    HW112761   2.839   2.460   5.617
 4075SOL    HW212762   2.964   2.407   5.685
 4076SOL     OW12763   1.943   2.417   6.976
 4076SOL    HW112764   2.036   2.416   6.953
 4076SOL    HW212765   1.935   2.486   7.042
 4077SOL     OW12766   2.417   2.075   6.747
 4077SOL    HW112767   2.459   2.000   6.790
 4077SOL    HW212768   2.327   2.074   6.779
 4078SOL     OW12769   2.733   2.291   6.240
 4078SOL    HW112770   2.709   2.358   6.176
 4078SOL    HW212771   2.757   2.215   6.187
 4079SOL     OW12772   2.878   1.915   6.337
 4079SOL    HW112773   2.821   1.910   6.261
 4079SOL    HW212774   2.854   1.839   6.390
 4080SOL     OW12775   3.302   3.025   6.444
 4080SOL    HW112776   3.231   2.961   6.442
 4080SOL    HW212777   3.328   3.035   6.352
 4081SOL     OW12778   3.329   2.468   6.560
 4081SOL    HW112779   3.276   2.388   6.563
 4081SOL    HW212780   3.388   2.460   6.635
 4082SOL     OW12781   3.706   2.677   5.969
 4082SOL    HW112782   3.763   2.627   6.027
 4082SOL    HW212783   3.679   2.614   5.902
 4083SOL     OW12784   2.354   3.278   5.743
 4083SOL    HW112785   2.278   3.251   5.794
 4083SOL    HW212786   2.341   3.237   5.657
 4084SOL     OW12787   3.532   3.126   6.231
 4084SOL    HW112788   3.626   3.128   6.245
 4084SOL    HW212789   3.502   3.214   6.252
 4085SOL     OW12790   3.257   2.434   5.658
 4085SOL    HW112791   3.197   2.412   5.728
 4085SOL    HW212792   3.342   2.402   5.688
 4086SOL     OW12793   2.386   2.130   5.907
 4086SOL    HW112794   2.424   2.076   5.838
 4086SOL    HW212795   2.365   2.213   5.864
 4087SOL     OW12796   3.614   3.102   7.157
 4087SOL    HW112797   3.701   3.063   7.152
 4087SOL    HW212798   3.629   3.191   7.186
 4088SOL     OW12799   2.924   3.222   6.921
 4088SOL    HW112800   2.846   3.189   6.967
 4088SOL    HW212801   2.997   3.176   6.962
 4089SOL     OW12802   3.471   3.488   7.240
 4089SOL    HW112803   3.464   3.522   7.150
 4089SOL    HW212804   3.553   3.440   7.241
 4090SOL     OW12805   2.992   3.065   6.689
 4090SOL    HW112806   2.927   3.088   6.756
 4090SOL    HW212807   2.954   3.096   6.607
 4091SOL     OW12808   3.490   2.960   6.663
 4091SOL    HW112809   3.486   3.022   6.736
 4091SOL    HW212810   3.412   2.978   6.611
 4092SOL     OW12811   2.780   1.957   6.981
 4092SOL    HW112812   2.803   1.939   6.890
 4092SOL    HW212813   2.859   1.998   7.018
 4093SOL     OW12814   2.849   2.965   7.309
 4093SOL    HW112815   2.758   2.986   7.329
 4093SOL    HW212816   2.845   2.921   7.224
 4094SOL     OW12817   2.262   2.675   6.845
 4094SOL    HW112818   2.355   2.682   6.868
 4094SOL    HW212819   2.239   2.584   6.864
 4095SOL     OW12820   3.128   2.238   6.861
 4095SOL    HW112821   3.163   2.315   6.906
 4095SOL    HW212822   3.037   2.260   6.842
 4096SOL     OW12823   1.934   3.436   6.940
 4096SOL    HW112824   1.906   3.508   6.884
 4096SOL    HW212825   2.030   3.436   6.934
 4097SOL     OW12826   2.216   2.969   6.074
 4097SOL    HW112827   2.209   3.044   6.014
 4097SOL    HW212828   2.206   2.892   6.018
 4098SOL     OW12829   2.412   2.386   6.460
 4098SOL    HW112830   2.409   2.402   6.366
 4098SOL    HW212831   2.505   2.389   6.483
 4099SOL     OW12832   3.109   3.210   5.977
 4099SOL    HW112833   3.165   3.282   6.006
 4099SOL    HW212834   3.022   3.232   6.010
 4100SOL     OW12835   3.144   3.320   6.732
 4100SOL    HW112836   3.197   3.321   6.811
 4100SOL    HW212837   3.083   3.247   6.745
 4101SOL     OW12838   3.441   2.485   6.065
 4101SOL    HW112839   3.395   2.539   6.130
 4101SOL    HW212840   3.489   2.548   6.011
 4102SOL     OW12841   2.208   3.390   6.900
 4102SOL    HW112842   2.196   3.347   6.815
 4102SOL    HW212843   2.303   3.402   6.908
 4103SOL     OW12844   2.248   2.598   7.184
 4103SOL    HW112845   2.312   2.657   7.143
 4103SOL    HW212846   2.292   2.513   7.188
 4104SOL     OW12847   3.465   2.641   7.269
 4104SOL    HW112848   3.378   2.682   7.262
 4104SOL    HW212849   3.517   2.683   7.201
 4105SOL     OW12850   2.862   1.988   7.343
 4105SOL    HW112851   2.917   2.061   7.314
 4105SOL    HW212852   2.909   1.909   7.316
 4106SOL     OW12853   2.359   1.899   7.335
 4106SOL    HW112854   2.315   1.846   7.268
 4106SOL    HW212855   2.302   1.975   7.346
 4107SOL     OW12856   3.224   2.721   6.616
 4107SOL    HW112857   3.145   2.710   6.562
 4107SOL    HW212858   3.267   2.636   6.612
 4108SOL     OW12859   3.062   2.389   5.853
 4108SOL    HW112860   3.065   2.307   5.902
 4108SOL    HW212861   3.062   2.457   5.921
 4109SOL     OW12862   2.159   2.060   6.834
 4109SOL    HW112863   2.122   2.092   6.916
 4109SOL    HW212864   2.140   1.966   6.834
 4110SOL     OW12865   1.906   3.174   6.862
 4110SOL    HW112866   1.940   3.118   6.932
 4110SOL    HW212867   1.914   3.263   6.895
 4111SOL     OW12868   3.598   2.821   7.439
 4111SOL    HW112869   3.551   2.759   7.384
 4111SOL    HW212870   3.540   2.837   7.513
 4112SOL     OW12871   2.165   1.927   6.210
 4112SOL    HW112872   2.145   2.017   6.233
 4112SOL    HW212873   2.173   1.882   6.294
 4113SOL     OW12874   3.479   2.237   5.952
 4113SOL    HW112875   3.507   2.173   6.017
 4113SOL    HW212876   3.456   2.315   6.003
 4114SOL     OW12877   2.844   3.428   7.303
 4114SOL    HW112878   2.828   3.472   7.219
 4114SOL    HW212879   2.887   3.346   7.279
 4115SOL     OW12880   3.716   3.366   7.191
 4115SOL    HW112881   3.735   3.393   7.101
 4115SOL    HW212882   3.798   3.384   7.238
 4116SOL     OW12883   2.211   2.780   7.397
 4116SOL    HW112884   2.291   2.804   7.443
 4116SOL    HW212885   2.238   2.711   7.336
 4117SOL     OW12886   3.389   2.136   5.713
 4117SOL    HW112887   3.325   2.069   5.740
 4117SOL    HW212888   3.423   2.170   5.796
 4118SOL     OW12889   3.153   2.686   5.614
 4118SOL    HW112890   3.195   2.600   5.618
 4118SOL    HW212891   3.185   2.726   5.533
 4119SOL     OW12892   2.926   3.202   6.436
 4119SOL    HW112893   2.931   3.130   6.373
 4119SOL    HW212894   2.989   3.267   6.405
 4120SOL     OW12895   2.167   2.673   6.536
 4120SOL    HW112896   2.257   2.704   6.542
 4120SOL    HW212897   2.169   2.585   6.573
 4121SOL     OW12898   2.189   2.388   6.607
 4121SOL    HW112899   2.152   2.301   6.589
 4121SOL    HW212900   2.268   2.392   6.554
 4122SOL     OW12901   3.001   2.231   7.265
 4122SOL    HW112902   2.954   2.283   7.330
 4122SOL    HW212903   3.086   2.273   7.257
 4123SOL     OW12904   3.024   2.061   7.054
 4123SOL    HW112905   3.013   2.122   7.126
 4123SOL    HW212906   3.063   2.113   6.984
 4124SOL     OW12907   1.868   3.182   5.781
 4124SOL    HW112908   1.781   3.197   5.743
 4124SOL    HW212909   1.865   3.093   5.815
 4125SOL     OW12910   1.952   3.649   6.524
 4125SOL    HW112911   1.922   3.569   6.480
 4125SOL    HW212912   2.042   3.661   6.494
 4126SOL     OW12913   2.358   3.435   6.490
 4126SOL    HW112914   2.426   3.497   6.516
 4126SOL    HW212915   2.402   3.371   6.436
 4127SOL     OW12916   1.897   2.406   6.703
 4127SOL    HW112917   1.978   2.397   6.653
 4127SOL    HW212918   1.925   2.410   6.794
 4128SOL     OW12919   2.052   2.380   7.313
 4128SOL    HW112920   2.103   2.338   7.244
 4128SOL    HW212921   2.010   2.455   7.270
 4129SOL     OW12922   3.239   2.799   7.245
 4129SOL    HW112923   3.260   2.893   7.243
 4129SOL    HW212924   3.236   2.773   7.153
 4130SOL     OW12925   2.703   2.324   5.960
 4130SOL    HW112926   2.707   2.286   5.872
 4130SOL    HW212927   2.628   2.383   5.957
 4131SOL     OW12928   3.503   2.464   6.770
 4131SOL    HW112929   3.492   2.406   6.846
 4131SOL    HW212930   3.591   2.443   6.737
 4132SOL     OW12931   2.103   3.413   7.312
 4132SOL    HW112932   2.082   3.477   7.381
 4132SOL    HW212933   2.108   3.329   7.358
 4133SOL     OW12934   2.544   2.295   6.850
 4133SOL    HW112935   2.500   2.219   6.811
 4133SOL    HW212936   2.565   2.351   6.776
 4134SOL     OW12937   2.787   3.542   7.055
 4134SOL    HW112938   2.764   3.504   6.971
 4134SOL    HW212939   2.781   3.637   7.041
 4135SOL     OW12940   2.329   2.365   5.784
 4135SOL    HW112941   2.379   2.447   5.792
 4135SOL    HW212942   2.239   2.394   5.767
 4136SOL     OW12943   2.005   3.004   7.059
 4136SOL    HW112944   2.007   2.953   7.140
 4136SOL    HW212945   2.020   2.941   6.990
 4137SOL     OW12946   3.188   2.909   6.809
 4137SOL    HW112947   3.211   2.846   6.741
 4137SOL    HW212948   3.120   2.963   6.770
 4138SOL     OW12949   3.177   2.709   5.888
 4138SOL    HW112950   3.095   2.734   5.931
 4138SOL    HW212951   3.154   2.703   5.795
 4139SOL     OW12952   3.635   3.605   6.737
 4139SOL    HW112953   3.695   3.631   6.667
 4139SOL    HW212954   3.610   3.515   6.715
 4140SOL     OW12955   3.103   3.595   6.697
 4140SOL    HW112956   3.185   3.616   6.653
 4140SOL    HW212957   3.109   3.502   6.717
 4141SOL     OW12958   1.946   3.130   6.597
 4141SOL    HW112959   1.931   3.142   6.691
 4141SOL    HW212960   1.874   3.073   6.569
 4142SOL     OW12961   2.540   3.528   7.316
 4142SOL    HW112962   2.487   3.608   7.311
 4142SOL    HW212963   2.607   3.539   7.249
 4143SOL     OW12964   3.581   2.010   6.094
 4143SOL    HW112965   3.654   1.995   6.034
 4143SOL    HW212966   3.566   1.925   6.135
 4144SOL     OW12967   3.252   3.430   6.071
 4144SOL    HW112968   3.313   3.463   6.004
 4144SOL    HW212969   3.204   3.507   6.100
 4145SOL     OW12970   1.998   3.658   7.430
 4145SOL    HW112971   1.947   3.593   7.479
 4145SOL    HW212972   2.046   3.706   7.498
 4146SOL     OW12973   3.131   2.787   6.257
 4146SOL    HW112974   3.204   2.726   6.265
 4146SOL    HW212975   3.166   2.860   6.205
 4147SOL     OW12976   2.690   3.143   7.023
 4147SOL    HW112977   2.643   3.186   7.095
 4147SOL    HW212978   2.620   3.113   6.964
 4148SOL     OW12979   2.532   3.483   5.741
 4148SOL    HW112980   2.543   3.496   5.647
 4148SOL    HW212981   2.478   3.405   5.749
 4149SOL     OW12982   3.487   3.589   6.977
 4149SOL    HW112983   3.537   3.596   6.895
 4149SOL    HW212984   3.473   3.679   7.004
 4150SOL     OW12985   3.703   2.035   6.552
 4150SOL    HW112986   3.732   1.947   6.526
 4150SOL    HW212987   3.617   2.044   6.513
 4151SOL     OW12988   2.123   2.180   6.303
 4151SOL    HW112989   2.036   2.212   6.279
 4151SOL    HW212990   2.119   2.169   6.398
 4152SOL     OW12991   3.070   3.467   5.618
 4152SOL    HW112992   3.060   3.376   5.645
 4152SOL    HW212993   3.004   3.479   5.550
 4153SOL     OW12994   3.353   3.487   5.629
 4153SOL    HW112995   3.259   3.481   5.615
 4153SOL    HW212996   3.390   3.493   5.541
 4154SOL     OW12997   2.228   3.166   7.080
 4154SOL    HW112998   2.218   3.241   7.022
 4154SOL    HW212999   2.152   3.112   7.062
 4155SOL     OW13000   3.473   3.145   6.867
 4155SOL    HW113001   3.531   3.133   6.942
 4155SOL    HW213002   3.412   3.213   6.895
 4156SOL     OW13003   2.913   2.970   6.289
 4156SOL    HW113004   2.840   2.924   6.330
 4156SOL    HW213005   2.978   2.902   6.271
 4157SOL     OW13006   2.888   2.100   6.553
 4157SOL    HW113007   2.883   2.051   6.470
 4157SOL    HW213008   2.881   2.032   6.621
 4158SOL     OW13009   2.464   3.354   6.067
 4158SOL    HW113010   2.510   3.307   5.997
 4158SOL    HW213011   2.392   3.398   6.022
 4159SOL     OW13012   3.585   2.254   6.967
 4159SOL    HW113013   3.657   2.317   6.965
 4159SOL    HW213014   3.615   2.183   6.910
 4160SOL     OW13015   2.122   3.206   5.875
 4160SOL    HW113016   2.029   3.204   5.851
 4160SOL    HW213017   2.124   3.244   5.963
 4161SOL     OW13018   1.973   2.884   7.304
 4161SOL    HW113019   1.897   2.862   7.358
 4161SOL    HW213020   2.048   2.847   7.352
 4162SOL     OW13021   2.533   2.054   7.081
 4162SOL    HW113022   2.618   2.038   7.041
 4162SOL    HW213023   2.553   2.080   7.171
 4163SOL     OW13024   1.940   2.195   5.622
 4163SOL    HW113025   1.853   2.176   5.586
 4163SOL    HW213026   1.970   2.270   5.571
 4164SOL     OW13027   3.292   2.721   6.986
 4164SOL    HW113028   3.243   2.782   6.932
 4164SOL    HW213029   3.381   2.724   6.951
 4165SOL     OW13030   1.930   2.018   5.894
 4165SOL    HW113031   1.916   2.097   5.842
 4165SOL    HW213032   2.015   1.985   5.865
 4166SOL     OW13033   3.041   3.201   5.703
 4166SOL    HW113034   2.950   3.171   5.705
 4166SOL    HW213035   3.068   3.201   5.795
 4167SOL     OW13036   3.346   3.639   6.565
 4167SOL    HW113037   3.369   3.701   6.495
 4167SOL    HW213038   3.429   3.620   6.608
 4168SOL     OW13039   3.335   3.060   7.218
 4168SOL    HW113040   3.321   3.075   7.312
 4168SOL    HW213041   3.428   3.077   7.204
 4169SOL     OW13042   2.240   3.602   7.151
 4169SOL    HW113043   2.155   3.644   7.137
 4169SOL    HW213044   2.219   3.518   7.191
 4170SOL     OW13045   3.531   2.743   6.841
 4170SOL    HW113046   3.525   2.658   6.799
 4170SOL    HW213047   3.521   2.806   6.770
 4171SOL     OW13048   3.081   2.181   6.042
 4171SOL    HW113049   3.143   2.108   6.034
 4171SOL    HW213050   3.109   2.228   6.120
 4172SOL     OW13051   3.623   2.224   7.238
 4172SOL    HW113052   3.607   2.240   7.145
 4172SOL    HW213053   3.551   2.167   7.266
 4173SOL     OW13054   3.609   2.795   7.098
 4173SOL    HW113055   3.602   2.890   7.112
 4173SOL    HW213056   3.592   2.783   7.005
 4174SOL     OW13057   2.732   3.234   5.623
 4174SOL    HW113058   2.690   3.265   5.704
 4174SOL    HW213059   2.748   3.314   5.573
 4175SOL     OW13060   2.522   3.653   6.529
 4175SOL    HW113061   2.504   3.744   6.506
 4175SOL    HW213062   2.617   3.645   6.523
 4176SOL     OW13063   2.955   2.861   5.677
 4176SOL    HW113064   2.923   2.904   5.598
 4176SOL    HW213065   3.022   2.800   5.647
 4177SOL     OW13066   3.715   3.415   6.430
 4177SOL    HW113067   3.636   3.405   6.377
 4177SOL    HW213068   3.706   3.351   6.500
 4178SOL     OW13069   2.087   3.165   7.443
 4178SOL    HW113070   2.020   3.103   7.412
 4178SOL    HW213071   2.068   3.177   7.536
 4179SOL     OW13072   1.946   3.094   6.252
 4179SOL    HW113073   1.954   3.047   6.335
 4179SOL    HW213074   2.015   3.057   6.197
 4180SOL     OW13075   2.540   3.266   7.212
 4180SOL    HW113076   2.461   3.223   7.245
 4180SOL    HW213077   2.538   3.354   7.251
 4181SOL     OW13078   3.675   2.046   6.823
 4181SOL    HW113079   3.684   1.952   6.837
 4181SOL    HW213080   3.684   2.057   6.729
 4182SOL     OW13081   2.308   2.294   6.129
 4182SOL    HW113082   2.327   2.231   6.060
 4182SOL    HW213083   2.244   2.249   6.184
 4183SOL     OW13084   3.562   3.350   6.681
 4183SOL    HW113085   3.481   3.329   6.635
 4183SOL    HW213086   3.572   3.282   6.747
 4184SOL     OW13087   2.198   2.414   6.883
 4184SOL    HW113088   2.252   2.356   6.936
 4184SOL    HW213089   2.210   2.384   6.793
 4185SOL     OW13090   2.691   3.440   6.260
 4185SOL    HW113091   2.671   3.496   6.185
 4185SOL    HW213092   2.615   3.382   6.268
 4186SOL     OW13093   3.295   2.087   6.704
 4186SOL    HW113094   3.318   2.006   6.750
 4186SOL    HW213095   3.242   2.136   6.767
 4187SOL     OW13096   2.871   1.879   6.727
 4187SOL    HW113097   2.817   1.811   6.686
 4187SOL    HW213098   2.959   1.841   6.729
 4188SOL     OW13099   2.636   3.205   5.900
 4188SOL    HW113100   2.610   3.113   5.893
 4188SOL    HW213101   2.717   3.203   5.952
 4189SOL     OW13102   2.480   3.421   6.869
 4189SOL    HW113103   2.485   3.503   6.919
 4189SOL    HW213104   2.569   3.409   6.835
 4190SOL     OW13105   3.215   1.915   5.752
 4190SOL    HW113106   3.244   1.850   5.688
 4190SOL    HW213107   3.127   1.886   5.778
 4191SOL     OW13108   3.168   2.316   6.266
 4191SOL    HW113109   3.117   2.397   6.273
 4191SOL    HW213110   3.161   2.275   6.353
 4192SOL     OW13111   3.448   2.062   6.465
 4192SOL    HW113112   3.389   2.084   6.536
 4192SOL    HW213113   3.448   2.140   6.409
 4193SOL     OW13114   1.906   2.932   5.892
 4193SOL    HW113115   1.999   2.922   5.872
 4193SOL    HW213116   1.877   2.843   5.916
 4194SOL     OW13117   2.748   3.516   5.927
 4194SOL    HW113118   2.675   3.499   5.868
 4194SOL    HW213119   2.720   3.590   5.980
 4195SOL     OW13120   2.093   2.477   7.571
 4195SOL    HW113121   2.004   2.492   7.604
 4195SOL    HW213122   2.081   2.457   7.478
 4196SOL     OW13123   3.628   2.460   7.679
 4196SOL    HW113124   3.609   2.456   7.586
 4196SOL    HW213125   3.589   2.380   7.715
 4197SOL     OW13126   2.082   3.581   7.919
 4197SOL    HW113127   2.112   3.619   8.001
 4197SOL    HW213128   2.161   3.578   7.864
 4198SOL     OW13129   2.077   3.302   7.990
 4198SOL    HW113130   2.061   3.396   7.989
 4198SOL    HW213131   2.023   3.268   8.061
 4199SOL     OW13132   2.427   2.863   7.569
 4199SOL    HW113133   2.481   2.909   7.505
 4199SOL    HW213134   2.468   2.883   7.653
 4200SOL     OW13135   3.700   3.620   7.797
 4200SOL    HW113136   3.771   3.590   7.853
 4200SOL    HW213137   3.725   3.709   7.771
 4201SOL     OW13138   1.892   3.461   7.578
 4201SOL    HW113139   1.878   3.368   7.593
 4201SOL    HW213140   1.865   3.503   7.659
 4202SOL     OW13141   3.543   2.726   8.035
 4202SOL    HW113142   3.623   2.737   0.006
 4202SOL    HW213143   3.531   2.810   7.990
 4203SOL     OW13144   3.517   2.958   7.879
 4203SOL    HW113145   3.604   2.985   7.848
 4203SOL    HW213146   3.486   3.032   7.932
 4204SOL     OW13147   2.665   1.859   7.942
 4204SOL    HW113148   2.713   1.939   7.921
 4204SOL    HW213149   2.573   1.885   7.946
 4205SOL     OW13150   3.395   2.856   7.650
 4205SOL    HW113151   3.329   2.795   7.682
 4205SOL    HW213152   3.437   2.890   7.728
 4206SOL     OW13153   3.436   3.534   7.757
 4206SOL    HW113154   3.527   3.562   7.765
 4206SOL    HW213155   3.423   3.521   7.663
 4207SOL     OW13156   1.921   2.723   0.088
 4207SOL    HW113157   1.992   2.665   0.117
 4207SOL    HW213158   1.917   2.790   0.157
 4208SOL     OW13159   2.748   2.203   7.640
 4208SOL    HW113160   2.789   2.272   7.588
 4208SOL    HW213161   2.788   2.122   7.608
 4209SOL     OW13162   2.176   2.824   7.695
 4209SOL    HW113163   2.258   2.839   7.647
 4209SOL    HW213164   2.148   2.737   7.669
 4210SOL     OW13165   2.987   3.637   7.682
 4210SOL    HW113166   2.909   3.598   7.722
 4210SOL    HW213167   3.011   3.576   7.612
 4211SOL     OW13168   3.490   3.243   7.534
 4211SOL    HW113169   3.448   3.328   7.520
 4211SOL    HW213170   3.421   3.179   7.517
 4212SOL     OW13171   2.328   3.601   7.769
 4212SOL    HW113172   2.378   3.652   7.832
 4212SOL    HW213173   2.394   3.563   7.711
 4213SOL     OW13174   3.279   1.995   7.864
 4213SOL    HW113175   3.266   1.960   7.776
 4213SOL    HW213176   3.374   1.993   7.877
 4214SOL     OW13177   2.241   2.546   7.900
 4214SOL    HW113178   2.245   2.454   7.926
 4214SOL    HW213179   2.171   2.584   7.953
 4215SOL     OW13180   2.483   1.975   7.568
 4215SOL    HW113181   2.567   1.929   7.570
 4215SOL    HW213182   2.445   1.951   7.484
 4216SOL     OW13183   2.395   1.937   7.959
 4216SOL    HW113184   2.308   1.938   7.998
 4216SOL    HW213185   2.393   2.008   7.894
 4217SOL     OW13186   3.290   3.060   7.490
 4217SOL    HW113187   3.320   2.985   7.542
 4217SOL    HW213188   3.204   3.081   7.525
 4218SOL     OW13189   2.155   1.911   7.633
 4218SOL    HW113190   2.213   1.970   7.585
 4218SOL    HW213191   2.214   1.846   7.672
 4219SOL     OW13192   2.802   2.092   7.905
 4219SOL    HW113193   2.764   2.146   7.836
 4219SOL    HW213194   2.892   2.122   7.913
 4220SOL     OW13195   2.287   3.047   0.089
 4220SOL    HW113196   2.208   3.048   0.144
 4220SOL    HW213197   2.257   3.017   0.004
 4221SOL     OW13198   3.154   3.675   8.014
 4221SOL    HW113199   3.190   3.743   7.958
 4221SOL    HW213200   3.067   3.706   8.039
 4222SOL     OW13201   2.907   2.382   7.477
 4222SOL    HW113202   2.865   2.468   7.478
 4222SOL    HW213203   2.973   2.387   7.546
 4223SOL     OW13204   3.736   2.677   7.802
 4223SOL    HW113205   3.723   2.653   7.894
 4223SOL    HW213206   3.695   2.606   7.753
 4224SOL     OW13207   2.350   3.279   7.603
 4224SOL    HW113208   2.275   3.250   7.656
 4224SOL    HW213209   2.338   3.235   7.519
 4225SOL     OW13210   3.256   2.432   7.518
 4225SOL    HW113211   3.195   2.413   7.589
 4225SOL    HW213212   3.341   2.400   7.549
 4226SOL     OW13213   2.385   2.132   7.772
 4226SOL    HW113214   2.427   2.078   7.704
 4226SOL    HW213215   2.367   2.215   7.728
 4227SOL     OW13216   2.569   2.942   7.822
 4227SOL    HW113217   2.514   2.950   7.900
 4227SOL    HW213218   2.591   2.849   7.818
 4228SOL     OW13219   2.230   2.965   7.923
 4228SOL    HW113220   2.206   3.042   7.870
 4228SOL    HW213221   2.215   2.891   7.865
 4229SOL     OW13222   3.085   3.218   7.822
 4229SOL    HW113223   3.146   3.288   7.844
 4229SOL    HW213224   3.048   3.190   7.905
 4230SOL     OW13225   3.450   2.489   7.922
 4230SOL    HW113226   3.442   2.551   7.994
 4230SOL    HW213227   3.486   2.541   7.850
 4231SOL     OW13228   3.065   2.387   7.713
 4231SOL    HW113229   3.063   2.307   7.766
 4231SOL    HW213230   3.065   2.458   7.776
 4232SOL     OW13231   3.481   2.242   7.813
 4232SOL    HW113232   3.503   2.175   7.878
 4232SOL    HW213233   3.457   2.318   7.865
 4233SOL     OW13234   3.391   2.136   7.575
 4233SOL    HW113235   3.326   2.072   7.601
 4233SOL    HW213236   3.424   2.171   7.658
 4234SOL     OW13237   3.156   2.689   7.481
 4234SOL    HW113238   3.196   2.601   7.480
 4234SOL    HW213239   3.185   2.728   7.398
 4235SOL     OW13240   1.868   3.186   7.641
 4235SOL    HW113241   1.780   3.199   7.603
 4235SOL    HW213242   1.867   3.097   7.674
 4236SOL     OW13243   2.330   2.365   7.644
 4236SOL    HW113244   2.381   2.443   7.665
 4236SOL    HW213245   2.242   2.398   7.628
 4237SOL     OW13246   3.166   2.703   7.754
 4237SOL    HW113247   3.081   2.734   7.785
 4237SOL    HW213248   3.156   2.700   7.658
 4238SOL     OW13249   3.575   2.010   7.947
 4238SOL    HW113250   3.651   2.003   7.889
 4238SOL    HW213251   3.578   1.931   8.000
 4239SOL     OW13252   3.225   3.439   7.895
 4239SOL    HW113253   3.300   3.460   7.839
 4239SOL    HW213254   3.194   3.524   7.926
 4240SOL     OW13255   2.528   3.484   7.603
 4240SOL    HW113256   2.541   3.495   7.509
 4240SOL    HW213257   2.476   3.404   7.611
 4241SOL     OW13258   3.071   3.468   7.478
 4241SOL    HW113259   3.060   3.377   7.506
 4241SOL    HW213260   3.005   3.481   7.411
 4242SOL     OW13261   3.355   3.489   7.489
 4242SOL    HW113262   3.260   3.481   7.476
 4242SOL    HW213263   3.390   3.494   7.400
 4243SOL     OW13264   2.474   3.373   7.935
 4243SOL    HW113265   2.518   3.312   7.875
 4243SOL    HW213266   2.394   3.398   7.889
 4244SOL     OW13267   2.120   3.208   7.742
 4244SOL    HW113268   2.028   3.205   7.716
 4244SOL    HW213269   2.119   3.243   7.831
 4245SOL     OW13270   1.939   2.193   7.483
 4245SOL    HW113271   1.853   2.175   7.446
 4245SOL    HW213272   1.970   2.270   7.435
 4246SOL     OW13273   1.931   2.019   7.756
 4246SOL    HW113274   1.915   2.095   7.700
 4246SOL    HW213275   2.014   1.983   7.725
 4247SOL     OW13276   3.038   3.202   7.556
 4247SOL    HW113277   2.949   3.166   7.556
 4247SOL    HW213278   3.061   3.206   7.648
 4248SOL     OW13279   3.075   2.181   7.901
 4248SOL    HW113280   3.149   2.122   7.892
 4248SOL    HW213281   3.090   2.227   7.983
 4249SOL     OW13282   2.725   3.229   7.482
 4249SOL    HW113283   2.688   3.257   7.566
 4249SOL    HW213284   2.745   3.311   7.436
 4250SOL     OW13285   2.963   2.875   7.546
 4250SOL    HW113286   2.924   2.908   7.465
 4250SOL    HW213287   3.023   2.807   7.518
 4251SOL     OW13288   2.251   2.284   7.985
 4251SOL    HW113289   2.298   2.235   7.918
 4251SOL    HW213290   2.299   2.266   8.066
 4252SOL     OW13291   2.631   3.207   7.760
 4252SOL    HW113292   2.603   3.116   7.764
 4252SOL    HW213293   2.715   3.209   7.806
 4253SOL     OW13294   3.215   1.915   7.610
 4253SOL    HW113295   3.245   1.847   7.549
 4253SOL    HW213296   3.128   1.885   7.638
 4254SOL     OW13297   1.914   2.940   7.749
 4254SOL    HW113298   2.008   2.929   7.732
 4254SOL    HW213299   1.882   2.852   7.764
 4255SOL     OW13300   2.756   3.515   7.780
 4255SOL    HW113301   2.679   3.489   7.728
 4255SOL    HW213302   2.722   3.577   7.845
 4256SOL     OW13303   2.079   4.347   0.122
 4256SOL    HW113304   1.999   4.311   0.162
 4256SOL    HW213305   2.102   4.284   0.053
 4257SOL     OW13306   2.087   4.006   0.992
 4257SOL    HW113307   2.115   3.971   1.077
 4257SOL    HW213308   1.997   3.974   0.982
 4258SOL     OW13309   1.865   4.107   0.638
 4258SOL    HW113310   1.783   4.133   0.679
 4258SOL    HW213311   1.844   4.027   0.590
 4259SOL     OW13312   2.429   5.007   1.181
 4259SOL    HW113313   2.344   5.005   1.136
 4259SOL    HW213314   2.440   5.099   1.205
 4260SOL     OW13315   3.419   5.233   0.687
 4260SOL    HW113316   3.397   5.230   0.780
 4260SOL    HW213317   3.341   5.269   0.645
 4261SOL     OW13318   2.993   4.422   0.700
 4261SOL    HW113319   3.042   4.503   0.686
 4261SOL    HW213320   2.946   4.436   0.783
 4262SOL     OW13321   3.632   4.324   0.232
 4262SOL    HW113322   3.592   4.327   0.145
 4262SOL    HW213323   3.592   4.248   0.275
 4263SOL     OW13324   2.616   4.867   1.039
 4263SOL    HW113325   2.550   4.899   1.100
 4263SOL    HW213326   2.647   4.945   0.994
 4264SOL     OW13327   2.731   4.496   1.822
 4264SOL    HW113328   2.717   4.567   1.885
 4264SOL    HW213329   2.754   4.540   1.741
 4265SOL     OW13330   2.546   4.723   0.651
 4265SOL    HW113331   2.612   4.714   0.719
 4265SOL    HW213332   2.478   4.779   0.690
 4266SOL     OW13333   2.571   4.871   1.813
 4266SOL    HW113334   2.619   4.951   1.837
 4266SOL    HW213335   2.488   4.903   1.777
 4267SOL     OW13336   2.199   5.149   1.059
 4267SOL    HW113337   2.121   5.104   1.026
 4267SOL    HW213338   2.237   5.192   0.982
 4268SOL     OW13339   3.316   5.221   1.348
 4268SOL    HW113340   3.371   5.293   1.379
 4268SOL    HW213341   3.249   5.211   1.415
 4269SOL     OW13342   2.312   4.122   1.485
 4269SOL    HW113343   2.387   4.063   1.492
 4269SOL    HW213344   2.235   4.066   1.500
 4270SOL     OW13345   3.473   4.171   0.741
 4270SOL    HW113346   3.398   4.193   0.686
 4270SOL    HW213347   3.486   4.248   0.796
 4271SOL     OW13348   2.995   5.073   1.702
 4271SOL    HW113349   3.025   5.074   1.793
 4271SOL    HW213350   2.942   4.994   1.695
 4272SOL     OW13351   2.069   5.156   0.515
 4272SOL    HW113352   2.098   5.237   0.557
 4272SOL    HW213353   2.018   5.111   0.583
 4273SOL     OW13354   2.121   4.811   0.892
 4273SOL    HW113355   2.118   4.724   0.931
 4273SOL    HW213356   2.064   4.864   0.947
 4274SOL     OW13357   2.489   4.684   0.134
 4274SOL    HW113358   2.437   4.760   0.109
 4274SOL    HW213359   2.540   4.714   0.209
 4275SOL     OW13360   3.457   3.848   1.467
 4275SOL    HW113361   3.469   3.929   1.417
 4275SOL    HW213362   3.443   3.878   1.557
 4276SOL     OW13363   1.977   4.375   0.563
 4276SOL    HW113364   1.947   4.286   0.584
 4276SOL    HW213365   1.969   4.423   0.645
 4277SOL     OW13366   1.838   0.021   0.094
 4277SOL    HW113367   1.853   5.230   0.120
 4277SOL    HW213368   1.868   0.073   0.168
 4278SOL     OW13369   3.549   4.641   0.644
 4278SOL    HW113370   3.631   4.599   0.622
 4278SOL    HW213371   3.527   4.694   0.567
 4279SOL     OW13372   3.508   4.829   0.434
 4279SOL    HW113373   3.590   4.839   0.386
 4279SOL    HW213374   3.515   4.890   0.507
 4280SOL     OW13375   1.985   4.467   1.586
 4280SOL    HW113376   2.077   4.494   1.592
 4280SOL    HW213377   1.936   4.549   1.593
 4281SOL     OW13378   2.484   5.099   0.739
 4281SOL    HW113379   2.430   5.020   0.735
 4281SOL    HW213380   2.467   5.144   0.656
 4282SOL     OW13381   3.150   4.953   1.426
 4282SOL    HW113382   3.184   4.888   1.365
 4282SOL    HW213383   3.211   4.951   1.500
 4283SOL     OW13384   2.679   3.727   0.512
 4283SOL    HW113385   2.718   3.811   0.489
 4283SOL    HW213386   2.585   3.745   0.519
 4284SOL     OW13387   2.052   4.689   1.271
 4284SOL    HW113388   2.137   4.647   1.257
 4284SOL    HW213389   1.990   4.635   1.222
 4285SOL     OW13390   3.370   4.735   0.211
 4285SOL    HW113391   3.309   4.669   0.244
 4285SOL    HW213392   3.423   4.759   0.287
 4286SOL     OW13393   2.197   3.974   1.814
 4286SOL    HW113394   2.240   4.058   1.831
 4286SOL    HW213395   2.107   3.987   1.844
 4287SOL     OW13396   3.340   5.147   0.962
 4287SOL    HW113397   3.266   5.160   1.022
 4287SOL    HW213398   3.327   5.059   0.927
 4288SOL     OW13399   2.460   4.437   0.283
 4288SOL    HW113400   2.479   4.515   0.231
 4288SOL    HW213401   2.396   4.465   0.348
 4289SOL     OW13402   3.141   4.078   0.933
 4289SOL    HW113403   3.051   4.045   0.941
 4289SOL    HW213404   3.192   4.025   0.993
 4290SOL     OW13405   2.654   4.342   1.450
 4290SOL    HW113406   2.628   4.318   1.539
 4290SOL    HW213407   2.614   4.274   1.395
 4291SOL     OW13408   3.255   4.198   1.678
 4291SOL    HW113409   3.258   4.243   1.762
 4291SOL    HW213410   3.316   4.125   1.687
 4292SOL     OW13411   2.816   4.612   1.583
 4292SOL    HW113412   2.871   4.542   1.548
 4292SOL    HW213413   2.768   4.645   1.508
 4293SOL     OW13414   2.854   4.136   1.238
 4293SOL    HW113415   2.768   4.157   1.273
 4293SOL    HW213416   2.836   4.091   1.156
 4294SOL     OW13417   2.915   4.423   0.427
 4294SOL    HW113418   2.931   4.416   0.522
 4294SOL    HW213419   2.832   4.377   0.414
 4295SOL     OW13420   1.950   4.546   0.776
 4295SOL    HW113421   2.031   4.539   0.827
 4295SOL    HW213422   1.906   4.623   0.812
 4296SOL     OW13423   2.747   4.081   0.202
 4296SOL    HW113424   2.792   4.132   0.134
 4296SOL    HW213425   2.748   3.991   0.170
 4297SOL     OW13426   3.569   4.297   1.828
 4297SOL    HW113427   3.532   4.371   1.780
 4297SOL    HW213428   3.598   4.236   1.760
 4298SOL     OW13429   3.239   4.863   0.539
 4298SOL    HW113430   3.319   4.851   0.489
 4298SOL    HW213431   3.188   4.926   0.487
 4299SOL     OW13432   2.412   3.905   0.894
 4299SOL    HW113433   2.414   3.934   0.985
 4299SOL    HW213434   2.414   3.986   0.842
 4300SOL     OW13435   2.877   5.163   0.470
 4300SOL    HW113436   2.804   5.224   0.470
 4300SOL    HW213437   2.900   5.152   0.562
 4301SOL     OW13438   3.662   4.780   0.867
 4301SOL    HW113439   3.605   4.761   0.792
 4301SOL    HW213440   3.603   4.787   0.942
 4302SOL     OW13441   3.113   5.239   1.525
 4302SOL    HW113442   3.077   5.173   1.583
 4302SOL    HW213443   3.040   5.263   1.467
 4303SOL     OW13444   2.187   4.665   0.256
 4303SOL    HW113445   2.255   4.708   0.203
 4303SOL    HW213446   2.190   4.573   0.229
 4304SOL     OW13447   3.341   4.466   0.726
 4304SOL    HW113448   3.334   4.425   0.812
 4304SOL    HW213449   3.418   4.523   0.733
 4305SOL     OW13450   2.327   4.988   1.741
 4305SOL    HW113451   2.300   4.990   1.649
 4305SOL    HW213452   2.244   4.987   1.790
 4306SOL     OW13453   3.021   0.157   0.237
 4306SOL    HW113454   2.938   0.178   0.280
 4306SOL    HW213455   2.996   0.136   0.146
 4307SOL     OW13456   2.063   4.004   1.502
 4307SOL    HW113457   1.981   4.053   1.498
 4307SOL    HW213458   2.044   3.931   1.560
 4308SOL     OW13459   3.492   5.094   0.077
 4308SOL    HW113460   3.453   5.180   0.094
 4308SOL    HW213461   3.418   5.036   0.062
 4309SOL     OW13462   3.269   3.835   0.446
 4309SOL    HW113463   3.261   3.814   0.353
 4309SOL    HW213464   3.364   3.843   0.460
 4310SOL     OW13465   2.249   4.421   0.477
 4310SOL    HW113466   2.272   4.329   0.488
 4310SOL    HW213467   2.156   4.426   0.499
 4311SOL     OW13468   3.396   3.949   1.725
 4311SOL    HW113469   3.406   3.970   1.818
 4311SOL    HW213470   3.327   3.883   1.722
 4312SOL     OW13471   2.492   3.834   0.137
 4312SOL    HW113472   2.587   3.822   0.144
 4312SOL    HW213473   2.472   3.815   0.046
 4313SOL     OW13474   2.628   4.002   1.754
 4313SOL    HW113475   2.705   3.945   1.755
 4313SOL    HW213476   2.580   3.978   1.834
 4314SOL     OW13477   3.202   4.313   1.432
 4314SOL    HW113478   3.233   4.282   1.517
 4314SOL    HW213479   3.238   4.401   1.424
 4315SOL     OW13480   2.675   5.118   0.937
 4315SOL    HW113481   2.756   5.106   0.887
 4315SOL    HW213482   2.607   5.125   0.871
 4316SOL     OW13483   2.790   4.233   0.902
 4316SOL    HW113484   2.766   4.225   0.810
 4316SOL    HW213485   2.821   4.146   0.927
 4317SOL     OW13486   2.412   3.787   0.505
 4317SOL    HW113487   2.332   3.786   0.556
 4317SOL    HW213488   2.405   3.866   0.450
 4318SOL     OW13489   3.287   4.925   0.035
 4318SOL    HW113490   3.315   4.852   0.089
 4318SOL    HW213491   3.201   4.949   0.068
 4319SOL     OW13492   2.173   3.781   0.171
 4319SOL    HW113493   2.239   3.849   0.187
 4319SOL    HW213494   2.209   3.702   0.212
 4320SOL     OW13495   2.802   3.972   0.458
 4320SOL    HW113496   2.775   4.013   0.376
 4320SOL    HW213497   2.897   3.987   0.463
 4321SOL     OW13498   2.942   4.406   1.460
 4321SOL    HW113499   2.874   4.338   1.464
 4321SOL    HW213500   3.024   4.357   1.453
 4322SOL     OW13501   3.124   5.265   0.781
 4322SOL    HW113502   3.085   0.046   0.748
 4322SOL    HW213503   3.170   5.290   0.860
 4323SOL     OW13504   2.327   4.873   0.729
 4323SOL    HW113505   2.260   4.853   0.794
 4323SOL    HW213506   2.286   4.856   0.645
 4324SOL     OW13507   2.893   4.250   0.032
 4324SOL    HW113508   2.852   4.331   0.002
 4324SOL    HW213509   2.956   4.279   0.099
 4325SOL     OW13510   1.942   4.278   1.392
 4325SOL    HW113511   2.034   4.277   1.365
 4325SOL    HW213512   1.937   4.348   1.457
 4326SOL     OW13513   2.421   3.951   1.166
 4326SOL    HW113514   2.462   3.875   1.206
 4326SOL    HW213515   2.330   3.947   1.196
 4327SOL     OW13516   2.728   4.182   0.639
 4327SOL    HW113517   2.688   4.238   0.573
 4327SOL    HW213518   2.751   4.102   0.591
 4328SOL     OW13519   2.879   3.777   0.749
 4328SOL    HW113520   2.819   3.772   0.675
 4328SOL    HW213521   2.855   3.702   0.804
 4329SOL     OW13522   3.300   4.890   0.859
 4329SOL    HW113523   3.232   4.822   0.855
 4329SOL    HW213524   3.325   4.903   0.767
 4330SOL     OW13525   3.328   4.330   0.975
 4330SOL    HW113526   3.276   4.250   0.979
 4330SOL    HW213527   3.387   4.324   1.050
 4331SOL     OW13528   3.710   4.538   0.388
 4331SOL    HW113529   3.763   4.486   0.448
 4331SOL    HW213530   3.679   4.476   0.322
 4332SOL     OW13531   2.326   5.161   0.153
 4332SOL    HW113532   2.280   5.106   0.216
 4332SOL    HW213533   2.369   5.099   0.094
 4333SOL     OW13534   3.533   4.988   0.647
 4333SOL    HW113535   3.626   4.995   0.665
 4333SOL    HW213536   3.498   5.076   0.663
 4334SOL     OW13537   3.261   4.301   0.088
 4334SOL    HW113538   3.198   4.283   0.158
 4334SOL    HW213539   3.314   4.222   0.082
 4335SOL     OW13540   2.378   3.988   0.323
 4335SOL    HW113541   2.429   3.936   0.261
 4335SOL    HW213542   2.365   4.072   0.279
 4336SOL     OW13543   3.613   4.960   1.574
 4336SOL    HW113544   3.698   4.918   1.574
 4336SOL    HW213545   3.632   5.053   1.586
 4337SOL     OW13546   2.926   5.073   1.330
 4337SOL    HW113547   2.848   5.048   1.378
 4337SOL    HW213548   2.998   5.034   1.379
 4338SOL     OW13549   2.989   4.925   1.107
 4338SOL    HW113550   2.940   4.968   1.177
 4338SOL    HW213551   2.944   4.952   1.027
 4339SOL     OW13552   3.490   4.822   1.076
 4339SOL    HW113553   3.485   4.883   1.149
 4339SOL    HW213554   3.413   4.841   1.023
 4340SOL     OW13555   2.780   3.821   1.395
 4340SOL    HW113556   2.803   3.802   1.304
 4340SOL    HW213557   2.859   3.860   1.432
 4341SOL     OW13558   2.846   4.839   1.726
 4341SOL    HW113559   2.754   4.855   1.745
 4341SOL    HW213560   2.846   4.762   1.668
 4342SOL     OW13561   2.573   4.785   0.381
 4342SOL    HW113562   2.556   4.767   0.474
 4342SOL    HW213563   2.653   4.735   0.361
 4343SOL     OW13564   2.281   4.539   1.251
 4343SOL    HW113565   2.349   4.549   1.318
 4343SOL    HW213566   2.246   4.451   1.265
 4344SOL     OW13567   3.127   4.100   1.276
 4344SOL    HW113568   3.160   4.178   1.322
 4344SOL    HW213569   3.036   4.122   1.254
 4345SOL     OW13570   2.203   4.832   0.490
 4345SOL    HW113571   2.205   4.904   0.427
 4345SOL    HW213572   2.212   4.753   0.436
 4346SOL     OW13573   2.413   4.260   0.860
 4346SOL    HW113574   2.428   4.318   0.785
 4346SOL    HW213575   2.479   4.286   0.924
 4347SOL     OW13576   3.119   5.073   0.385
 4347SOL    HW113577   3.173   5.148   0.409
 4347SOL    HW213578   3.030   5.098   0.412
 4348SOL     OW13579   3.132   5.182   1.142
 4348SOL    HW113580   3.192   5.197   1.216
 4348SOL    HW213581   3.088   5.100   1.162
 4349SOL     OW13582   3.444   4.347   0.483
 4349SOL    HW113583   3.394   4.396   0.548
 4349SOL    HW213584   3.478   4.413   0.423
 4350SOL     OW13585   2.211   5.236   1.313
 4350SOL    HW113586   2.199   5.200   1.225
 4350SOL    HW213587   2.304   5.256   1.319
 4351SOL     OW13588   2.277   4.469   1.602
 4351SOL    HW113589   2.339   4.513   1.544
 4351SOL    HW213590   2.316   4.383   1.618
 4352SOL     OW13591   3.465   4.503   1.683
 4352SOL    HW113592   3.379   4.545   1.676
 4352SOL    HW213593   3.517   4.545   1.614
 4353SOL     OW13594   2.858   3.849   1.755
 4353SOL    HW113595   2.915   3.921   1.729
 4353SOL    HW213596   2.906   3.770   1.729
 4354SOL     OW13597   2.359   3.763   1.748
 4354SOL    HW113598   2.315   3.710   1.682
 4354SOL    HW213599   2.301   3.838   1.761
 4355SOL     OW13600   2.445   4.596   1.031
 4355SOL    HW113601   2.476   4.687   1.030
 4355SOL    HW213602   2.389   4.591   1.109
 4356SOL     OW13603   3.218   4.582   1.027
 4356SOL    HW113604   3.134   4.571   0.982
 4356SOL    HW213605   3.260   4.496   1.021
 4357SOL     OW13606   3.065   4.251   0.271
 4357SOL    HW113607   3.072   4.173   0.324
 4357SOL    HW213608   3.022   4.315   0.327
 4358SOL     OW13609   2.160   3.922   1.247
 4358SOL    HW113610   2.123   3.954   1.329
 4358SOL    HW213611   2.141   3.828   1.248
 4359SOL     OW13612   1.917   5.047   1.285
 4359SOL    HW113613   1.940   4.982   1.351
 4359SOL    HW213614   1.950   5.130   1.320
 4360SOL     OW13615   2.585   4.354   1.056
 4360SOL    HW113616   2.660   4.339   1.000
 4360SOL    HW213617   2.557   4.443   1.036
 4361SOL     OW13618   3.597   4.684   1.853
 4361SOL    HW113619   3.552   4.620   1.797
 4361SOL    HW213620   3.537   4.698   1.926
 4362SOL     OW13621   2.165   3.788   0.624
 4362SOL    HW113622   2.146   3.879   0.647
 4362SOL    HW213623   2.173   3.743   0.708
 4363SOL     OW13624   3.485   4.100   0.369
 4363SOL    HW113625   3.508   4.035   0.434
 4363SOL    HW213626   3.459   4.177   0.419
 4364SOL     OW13627   2.890   4.483   0.960
 4364SOL    HW113628   2.885   4.500   1.054
 4364SOL    HW213629   2.863   4.391   0.952
 4365SOL     OW13630   3.715   5.213   1.583
 4365SOL    HW113631   3.708   5.290   1.527
 4365SOL    HW213632   3.785   5.236   1.645
 4366SOL     OW13633   2.215   4.640   1.809
 4366SOL    HW113634   2.297   4.659   1.855
 4366SOL    HW213635   2.240   4.578   1.741
 4367SOL     OW13636   3.378   4.027   0.127
 4367SOL    HW113637   3.329   3.946   0.143
 4367SOL    HW213638   3.419   4.048   0.211
 4368SOL     OW13639   3.157   4.547   0.019
 4368SOL    HW113640   3.195   4.461   0.038
 4368SOL    HW213641   3.218   4.587   8.037
 4369SOL     OW13642   2.919   5.080   0.825
 4369SOL    HW113643   2.925   4.995   0.782
 4369SOL    HW213644   3.005   5.120   0.812
 4370SOL     OW13645   2.171   4.532   0.947
 4370SOL    HW113646   2.264   4.553   0.941
 4370SOL    HW213647   2.168   4.442   0.979
 4371SOL     OW13648   2.192   4.251   1.012
 4371SOL    HW113649   2.157   4.163   0.998
 4371SOL    HW213650   2.269   4.256   0.955
 4372SOL     OW13651   2.996   4.099   1.683
 4372SOL    HW113652   2.948   4.154   1.745
 4372SOL    HW213653   3.083   4.138   1.679
 4373SOL     OW13654   3.023   3.926   1.470
 4373SOL    HW113655   3.012   3.989   1.542
 4373SOL    HW213656   3.063   3.976   1.400
 4374SOL     OW13657   1.874   5.043   0.176
 4374SOL    HW113658   1.786   5.056   0.142
 4374SOL    HW213659   1.872   4.957   0.218
 4375SOL     OW13660   2.843   4.515   1.226
 4375SOL    HW113661   2.900   4.493   1.299
 4375SOL    HW213662   2.758   4.477   1.250
 4376SOL     OW13663   1.898   4.269   1.117
 4376SOL    HW113664   1.979   4.257   1.067
 4376SOL    HW213665   1.926   4.272   1.208
 4377SOL     OW13666   2.053   4.244   1.728
 4377SOL    HW113667   2.109   4.204   1.661
 4377SOL    HW213668   2.013   4.318   1.684
 4378SOL     OW13669   3.239   4.662   1.658
 4378SOL    HW113670   3.260   4.755   1.655
 4378SOL    HW213671   3.236   4.635   1.566
 4379SOL     OW13672   2.681   4.293   0.369
 4379SOL    HW113673   2.691   4.222   0.306
 4379SOL    HW213674   2.605   4.343   0.339
 4380SOL     OW13675   3.504   4.325   1.184
 4380SOL    HW113676   3.494   4.267   1.260
 4380SOL    HW213677   3.591   4.306   1.150
 4381SOL     OW13678   2.067   5.276   1.746
 4381SOL    HW113679   2.050   0.028   1.824
 4381SOL    HW213680   2.079   5.187   1.778
 4382SOL     OW13681   2.565   4.173   1.258
 4382SOL    HW113682   2.511   4.100   1.229
 4382SOL    HW213683   2.561   4.237   1.186
 4383SOL     OW13684   2.330   4.215   0.178
 4383SOL    HW113685   2.397   4.280   0.197
 4383SOL    HW213686   2.247   4.261   0.190
 4384SOL     OW13687   2.006   4.863   1.471
 4384SOL    HW113688   2.008   4.812   1.552
 4384SOL    HW213689   2.024   4.799   1.403
 4385SOL     OW13690   3.188   4.768   1.222
 4385SOL    HW113691   3.210   4.706   1.153
 4385SOL    HW213692   3.118   4.821   1.184
 4386SOL     OW13693   3.169   4.573   0.307
 4386SOL    HW113694   3.092   4.544   0.357
 4386SOL    HW213695   3.144   4.561   0.216
 4387SOL     OW13696   1.957   4.987   1.022
 4387SOL    HW113697   1.936   5.005   1.113
 4387SOL    HW213698   1.876   4.949   0.986
 4388SOL     OW13699   2.615   0.037   1.709
 4388SOL    HW113700   2.523   0.059   1.721
 4388SOL    HW213701   2.635   0.062   1.619
 4389SOL     OW13702   2.767   3.816   0.132
 4389SOL    HW113703   2.781   3.797   0.040
 4389SOL    HW213704   2.833   3.763   0.178
 4390SOL     OW13705   3.581   3.870   0.509
 4390SOL    HW113706   3.653   3.854   0.448
 4390SOL    HW213707   3.566   3.786   0.551
 4391SOL     OW13708   3.139   4.649   0.672
 4391SOL    HW113709   3.213   4.589   0.679
 4391SOL    HW213710   3.173   4.722   0.618
 4392SOL     OW13711   2.679   4.993   1.418
 4392SOL    HW113712   2.648   5.028   1.502
 4392SOL    HW213713   2.605   5.002   1.359
 4393SOL     OW13714   3.703   3.896   0.967
 4393SOL    HW113715   3.732   3.809   0.940
 4393SOL    HW213716   3.616   3.906   0.927
 4394SOL     OW13717   2.123   4.039   0.717
 4394SOL    HW113718   2.037   4.075   0.694
 4394SOL    HW213719   2.121   4.032   0.812
 4395SOL     OW13720   3.002   0.018   0.002
 4395SOL    HW113721   3.016   5.229   0.032
 4395SOL    HW213722   3.007   0.013   7.986
 4396SOL     OW13723   2.687   4.727   1.371
 4396SOL    HW113724   2.734   4.720   1.287
 4396SOL    HW213725   2.690   4.820   1.392
 4397SOL     OW13726   2.782   4.639   0.300
 4397SOL    HW113727   2.836   4.665   0.226
 4397SOL    HW213728   2.829   4.567   0.340
 4398SOL     OW13729   2.227   5.026   1.497
 4398SOL    HW113730   2.216   5.100   1.436
 4398SOL    HW213731   2.151   4.970   1.480
 4399SOL     OW13732   3.474   5.004   1.282
 4399SOL    HW113733   3.531   4.997   1.359
 4399SOL    HW213734   3.412   5.073   1.305
 4400SOL     OW13735   2.918   4.834   0.714
 4400SOL    HW113736   2.845   4.783   0.749
 4400SOL    HW213737   2.979   4.769   0.679
 4401SOL     OW13738   2.884   3.964   0.966
 4401SOL    HW113739   2.880   3.917   0.883
 4401SOL    HW213740   2.878   3.896   1.033
 4402SOL     OW13741   3.585   4.116   1.380
 4402SOL    HW113742   3.657   4.179   1.380
 4402SOL    HW213743   3.614   4.045   1.324
 4403SOL     OW13744   2.127   5.026   0.289
 4403SOL    HW113745   2.046   5.042   0.240
 4403SOL    HW213746   2.117   5.078   0.369
 4404SOL     OW13747   1.974   4.747   1.719
 4404SOL    HW113748   1.898   4.723   1.772
 4404SOL    HW213749   2.049   4.709   1.765
 4405SOL     OW13750   2.537   3.920   1.499
 4405SOL    HW113751   2.621   3.900   1.458
 4405SOL    HW213752   2.560   3.952   1.587
 4406SOL     OW13753   1.919   4.087   0.039
 4406SOL    HW113754   1.843   4.034   0.015
 4406SOL    HW213755   1.969   4.095   8.037
 4407SOL     OW13756   3.291   4.581   1.399
 4407SOL    HW113757   3.242   4.642   1.344
 4407SOL    HW213758   3.380   4.584   1.365
 4408SOL     OW13759   1.933   3.877   0.303
 4408SOL    HW113760   1.918   3.963   0.262
 4408SOL    HW213761   2.017   3.848   0.268
 4409SOL     OW13762   3.045   5.063   0.111
 4409SOL    HW113763   2.950   5.050   0.107
 4409SOL    HW213764   3.066   5.059   0.204
 4410SOL     OW13765   2.481   4.555   1.434
 4410SOL    HW113766   2.538   4.630   1.418
 4410SOL    HW213767   2.542   4.481   1.442
 4411SOL     OW13768   2.580   4.287   1.703
 4411SOL    HW113769   2.621   4.349   1.763
 4411SOL    HW213770   2.605   4.201   1.737
 4412SOL     OW13771   3.337   4.921   1.630
 4412SOL    HW113772   3.323   4.934   1.724
 4412SOL    HW213773   3.430   4.936   1.617
 4413SOL     OW13774   3.531   4.605   1.255
 4413SOL    HW113775   3.525   4.520   1.212
 4413SOL    HW213776   3.520   4.669   1.184
 4414SOL     OW13777   3.079   4.041   0.460
 4414SOL    HW113778   3.144   3.971   0.453
 4414SOL    HW213779   3.106   4.093   0.536
 4415SOL     OW13780   2.449   4.460   0.670
 4415SOL    HW113781   2.490   4.546   0.657
 4415SOL    HW213782   2.382   4.455   0.603
 4416SOL     OW13783   3.623   4.086   1.651
 4416SOL    HW113784   3.607   4.102   1.558
 4416SOL    HW213785   3.551   4.030   1.679
 4417SOL     OW13786   3.607   4.657   1.512
 4417SOL    HW113787   3.602   4.752   1.525
 4417SOL    HW213788   3.592   4.645   1.418
 4418SOL     OW13789   2.774   5.096   0.038
 4418SOL    HW113790   2.713   5.077   0.110
 4418SOL    HW213791   2.726   5.158   8.063
 4419SOL     OW13792   2.730   4.692   0.855
 4419SOL    HW113793   2.780   4.620   0.895
 4419SOL    HW213794   2.695   4.741   0.930
 4420SOL     OW13795   2.942   4.701   0.088
 4420SOL    HW113796   2.921   4.756   0.013
 4420SOL    HW213797   3.018   4.650   0.061
 4421SOL     OW13798   2.084   5.023   1.852
 4421SOL    HW113799   2.017   4.960   1.827
 4421SOL    HW213800   2.073   5.033   1.947
 4422SOL     OW13801   1.950   4.954   0.670
 4422SOL    HW113802   1.947   4.902   0.750
 4422SOL    HW213803   2.018   4.912   0.617
 4423SOL     OW13804   2.534   5.105   1.608
 4423SOL    HW113805   2.457   5.073   1.656
 4423SOL    HW213806   2.566   5.178   1.661
 4424SOL     OW13807   3.674   3.908   1.237
 4424SOL    HW113808   3.685   3.814   1.252
 4424SOL    HW213809   3.684   3.919   1.143
 4425SOL     OW13810   2.286   4.160   0.524
 4425SOL    HW113811   2.320   4.089   0.469
 4425SOL    HW213812   2.241   4.116   0.596
 4426SOL     OW13813   3.569   5.224   1.119
 4426SOL    HW113814   3.495   5.208   1.060
 4426SOL    HW213815   3.575   5.145   1.172
 4427SOL     OW13816   2.193   4.280   1.292
 4427SOL    HW113817   2.248   4.225   1.347
 4427SOL    HW213818   2.212   4.252   1.203
 4428SOL     OW13819   3.294   3.950   1.118
 4428SOL    HW113820   3.318   3.870   1.164
 4428SOL    HW213821   3.242   3.999   1.181
 4429SOL     OW13822   2.871   3.742   1.141
 4429SOL    HW113823   2.816   3.675   1.102
 4429SOL    HW213824   2.959   3.704   1.143
 4430SOL     OW13825   2.657   5.038   0.282
 4430SOL    HW113826   2.606   4.962   0.308
 4430SOL    HW213827   2.716   5.055   0.355
 4431SOL     OW13828   2.484   5.299   1.292
 4431SOL    HW113829   2.490   0.054   1.371
 4431SOL    HW213830   2.575   5.279   1.269
 4432SOL     OW13831   3.218   3.778   0.185
 4432SOL    HW113832   3.238   3.732   0.104
 4432SOL    HW213833   3.132   3.746   0.211
 4433SOL     OW13834   3.158   4.186   0.681
 4433SOL    HW113835   3.106   4.265   0.687
 4433SOL    HW213836   3.154   4.147   0.768
 4434SOL     OW13837   3.448   3.924   0.879
 4434SOL    HW113838   3.389   3.946   0.951
 4434SOL    HW213839   3.448   4.003   0.823
 4435SOL     OW13840   1.903   4.791   0.305
 4435SOL    HW113841   1.999   4.793   0.309
 4435SOL    HW213842   1.880   4.706   0.343
 4436SOL     OW13843   2.090   4.347   1.986
 4436SOL    HW113844   2.001   4.346   2.021
 4436SOL    HW213845   2.081   4.322   1.894
 4437SOL     OW13846   2.087   4.006   2.854
 4437SOL    HW113847   2.115   3.971   2.939
 4437SOL    HW213848   1.997   3.974   2.844
 4438SOL     OW13849   1.865   4.107   2.500
 4438SOL    HW113850   1.783   4.133   2.542
 4438SOL    HW213851   1.844   4.028   2.451
 4439SOL     OW13852   2.429   5.007   3.043
 4439SOL    HW113853   2.344   5.004   2.999
 4439SOL    HW213854   2.440   5.099   3.068
 4440SOL     OW13855   3.418   5.232   2.551
 4440SOL    HW113856   3.400   5.229   2.644
 4440SOL    HW213857   3.338   5.268   2.512
 4441SOL     OW13858   2.992   4.422   2.562
 4441SOL    HW113859   3.041   4.503   2.548
 4441SOL    HW213860   2.946   4.436   2.644
 4442SOL     OW13861   3.630   4.328   2.090
 4442SOL    HW113862   3.608   4.321   1.997
 4442SOL    HW213863   3.594   4.249   2.129
 4443SOL     OW13864   2.617   4.868   2.901
 4443SOL    HW113865   2.550   4.899   2.962
 4443SOL    HW213866   2.647   4.946   2.856
 4444SOL     OW13867   2.731   4.496   3.684
 4444SOL    HW113868   2.716   4.567   3.747
 4444SOL    HW213869   2.754   4.540   3.603
 4445SOL     OW13870   2.548   4.725   2.509
 4445SOL    HW113871   2.613   4.715   2.579
 4445SOL    HW213872   2.479   4.779   2.548
 4446SOL     OW13873   2.571   4.871   3.675
 4446SOL    HW113874   2.619   4.951   3.699
 4446SOL    HW213875   2.488   4.903   3.639
 4447SOL     OW13876   2.199   5.149   2.921
 4447SOL    HW113877   2.121   5.104   2.888
 4447SOL    HW213878   2.237   5.191   2.844
 4448SOL     OW13879   3.316   5.221   3.210
 4448SOL    HW113880   3.371   5.293   3.241
 4448SOL    HW213881   3.249   5.211   3.277
 4449SOL     OW13882   2.312   4.122   3.347
 4449SOL    HW113883   2.386   4.063   3.354
 4449SOL    HW213884   2.235   4.066   3.362
 4450SOL     OW13885   3.473   4.171   2.603
 4450SOL    HW113886   3.399   4.193   2.547
 4450SOL    HW213887   3.487   4.249   2.656
 4451SOL     OW13888   2.995   5.073   3.564
 4451SOL    HW113889   3.025   5.074   3.655
 4451SOL    HW213890   2.942   4.994   3.557
 4452SOL     OW13891   2.072   5.157   2.383
 4452SOL    HW113892   2.099   5.237   2.426
 4452SOL    HW213893   2.021   5.110   2.449
 4453SOL     OW13894   2.122   4.811   2.755
 4453SOL    HW113895   2.119   4.724   2.793
 4453SOL    HW213896   2.064   4.864   2.810
 4454SOL     OW13897   2.446   4.706   1.997
 4454SOL    HW113898   2.493   4.753   1.929
 4454SOL    HW213899   2.485   4.736   2.079
 4455SOL     OW13900   3.457   3.849   3.330
 4455SOL    HW113901   3.470   3.929   3.279
 4455SOL    HW213902   3.442   3.880   3.420
 4456SOL     OW13903   1.977   4.377   2.422
 4456SOL    HW113904   1.948   4.288   2.443
 4456SOL    HW213905   1.969   4.425   2.504
 4457SOL     OW13906   1.848   0.013   1.959
 4457SOL    HW113907   1.863   5.224   1.990
 4457SOL    HW213908   1.870   0.069   2.034
 4458SOL     OW13909   3.550   4.642   2.503
 4458SOL    HW113910   3.634   4.599   2.482
 4458SOL    HW213911   3.529   4.693   2.425
 4459SOL     OW13912   3.508   4.830   2.292
 4459SOL    HW113913   3.594   4.834   2.249
 4459SOL    HW213914   3.515   4.891   2.365
 4460SOL     OW13915   1.985   4.467   3.447
 4460SOL    HW113916   2.077   4.494   3.454
 4460SOL    HW213917   1.936   4.549   3.455
 4461SOL     OW13918   2.485   5.098   2.600
 4461SOL    HW113919   2.431   5.019   2.598
 4461SOL    HW213920   2.466   5.143   2.517
 4462SOL     OW13921   3.150   4.953   3.288
 4462SOL    HW113922   3.185   4.888   3.227
 4462SOL    HW213923   3.211   4.951   3.362
 4463SOL     OW13924   2.677   3.724   2.370
 4463SOL    HW113925   2.718   3.809   2.350
 4463SOL    HW213926   2.584   3.744   2.379
 4464SOL     OW13927   2.052   4.689   3.133
 4464SOL    HW113928   2.137   4.647   3.119
 4464SOL    HW213929   1.990   4.635   3.084
 4465SOL     OW13930   3.392   4.720   2.060
 4465SOL    HW113931   3.323   4.662   2.092
 4465SOL    HW213932   3.434   4.754   2.139
 4466SOL     OW13933   2.194   3.976   3.675
 4466SOL    HW113934   2.238   4.059   3.693
 4466SOL    HW213935   2.105   3.990   3.706
 4467SOL     OW13936   3.339   5.147   2.824
 4467SOL    HW113937   3.267   5.160   2.885
 4467SOL    HW213938   3.327   5.059   2.790
 4468SOL     OW13939   2.458   4.444   2.129
 4468SOL    HW113940   2.463   4.526   2.080
 4468SOL    HW213941   2.393   4.461   2.197
 4469SOL     OW13942   3.140   4.079   2.795
 4469SOL    HW113943   3.051   4.045   2.803
 4469SOL    HW213944   3.192   4.025   2.855
 4470SOL     OW13945   2.654   4.342   3.312
 4470SOL    HW113946   2.628   4.317   3.401
 4470SOL    HW213947   2.615   4.274   3.257
 4471SOL     OW13948   3.255   4.198   3.540
 4471SOL    HW113949   3.258   4.243   3.624
 4471SOL    HW213950   3.317   4.126   3.549
 4472SOL     OW13951   2.816   4.612   3.445
 4472SOL    HW113952   2.871   4.542   3.410
 4472SOL    HW213953   2.768   4.645   3.370
 4473SOL     OW13954   2.854   4.135   3.100
 4473SOL    HW113955   2.767   4.157   3.135
 4473SOL    HW213956   2.837   4.090   3.018
 4474SOL     OW13957   2.914   4.422   2.288
 4474SOL    HW113958   2.929   4.415   2.382
 4474SOL    HW213959   2.831   4.376   2.274
 4475SOL     OW13960   1.950   4.545   2.638
 4475SOL    HW113961   2.031   4.538   2.689
 4475SOL    HW213962   1.906   4.623   2.674
 4476SOL     OW13963   2.757   4.073   2.056
 4476SOL    HW113964   2.796   4.136   1.996
 4476SOL    HW213965   2.772   3.988   2.016
 4477SOL     OW13966   3.569   4.297   3.690
 4477SOL    HW113967   3.532   4.371   3.642
 4477SOL    HW213968   3.599   4.237   3.622
 4478SOL     OW13969   3.240   4.863   2.401
 4478SOL    HW113970   3.321   4.850   2.352
 4478SOL    HW213971   3.190   4.925   2.347
 4479SOL     OW13972   2.413   3.906   2.755
 4479SOL    HW113973   2.414   3.935   2.846
 4479SOL    HW213974   2.413   3.987   2.704
 4480SOL     OW13975   2.883   5.169   2.333
 4480SOL    HW113976   2.806   5.226   2.330
 4480SOL    HW213977   2.899   5.156   2.427
 4481SOL     OW13978   3.663   4.780   2.729
 4481SOL    HW113979   3.606   4.762   2.654
 4481SOL    HW213980   3.602   4.787   2.803
 4482SOL     OW13981   3.113   5.239   3.387
 4482SOL    HW113982   3.077   5.173   3.446
 4482SOL    HW213983   3.040   5.263   3.329
 4483SOL     OW13984   2.181   4.681   2.113
 4483SOL    HW113985   2.264   4.700   2.068
 4483SOL    HW213986   2.151   4.599   2.073
 4484SOL     OW13987   3.341   4.468   2.589
 4484SOL    HW113988   3.334   4.426   2.674
 4484SOL    HW213989   3.419   4.523   2.595
 4485SOL     OW13990   2.327   4.988   3.603
 4485SOL    HW113991   2.300   4.990   3.511
 4485SOL    HW213992   2.244   4.987   3.652
 4486SOL     OW13993   2.930   0.178   2.066
 4486SOL    HW113994   2.941   0.103   2.124
 4486SOL    HW213995   2.956   0.147   1.979
 4487SOL     OW13996   2.063   4.004   3.364
 4487SOL    HW113997   1.981   4.054   3.360
 4487SOL    HW213998   2.044   3.932   3.423
 4488SOL     OW13999   3.484   5.101   1.971
 4488SOL    HW114000   3.485   5.175   1.910
 4488SOL    HW214001   3.416   5.043   1.937
 4489SOL     OW14002   3.263   3.831   2.296
 4489SOL    HW114003   3.253   3.806   2.204
 4489SOL    HW214004   3.358   3.838   2.309
 4490SOL     OW14005   2.256   4.419   2.338
 4490SOL    HW114006   2.276   4.326   2.350
 4490SOL    HW214007   2.162   4.426   2.355
 4491SOL     OW14008   3.397   3.950   3.587
 4491SOL    HW114009   3.406   3.970   3.680
 4491SOL    HW214010   3.325   3.886   3.584
 4492SOL     OW14011   2.499   3.846   1.967
 4492SOL    HW114012   2.566   3.779   1.980
 4492SOL    HW214013   2.448   3.814   1.891
 4493SOL     OW14014   2.627   4.001   3.617
 4493SOL    HW114015   2.705   3.944   3.617
 4493SOL    HW214016   2.578   3.974   3.695
 4494SOL     OW14017   3.202   4.313   3.294
 4494SOL    HW114018   3.233   4.282   3.379
 4494SOL    HW214019   3.238   4.401   3.285
 4495SOL     OW14020   2.675   5.118   2.798
 4495SOL    HW114021   2.756   5.105   2.748
 4495SOL    HW214022   2.607   5.125   2.732
 4496SOL     OW14023   2.790   4.233   2.765
 4496SOL    HW114024   2.766   4.225   2.672
 4496SOL    HW214025   2.821   4.146   2.789
 4497SOL     OW14026   2.411   3.787   2.363
 4497SOL    HW114027   2.331   3.787   2.415
 4497SOL    HW214028   2.405   3.865   2.308
 4498SOL     OW14029   3.290   4.924   1.900
 4498SOL    HW114030   3.320   4.849   1.951
 4498SOL    HW214031   3.202   4.942   1.933
 4499SOL     OW14032   2.153   3.772   2.047
 4499SOL    HW114033   2.212   3.836   2.007
 4499SOL    HW214034   2.212   3.709   2.089
 4500SOL     OW14035   2.801   3.971   2.321
 4500SOL    HW114036   2.775   4.012   2.239
 4500SOL    HW214037   2.896   3.985   2.326
 4501SOL     OW14038   2.942   4.406   3.321
 4501SOL    HW114039   2.874   4.338   3.326
 4501SOL    HW214040   3.024   4.356   3.314
 4502SOL     OW14041   3.126   5.266   2.640
 4502SOL    HW114042   3.082   0.047   2.614
 4502SOL    HW214043   3.171   5.288   2.721
 4503SOL     OW14044   2.328   4.872   2.591
 4503SOL    HW114045   2.260   4.852   2.655
 4503SOL    HW214046   2.287   4.855   2.506
 4504SOL     OW14047   2.885   4.264   1.886
 4504SOL    HW114048   2.842   4.348   1.866
 4504SOL    HW214049   2.951   4.286   1.952
 4505SOL     OW14050   1.942   4.278   3.254
 4505SOL    HW114051   2.034   4.277   3.227
 4505SOL    HW214052   1.937   4.348   3.319
 4506SOL     OW14053   2.421   3.953   3.028
 4506SOL    HW114054   2.462   3.875   3.065
 4506SOL    HW214055   2.330   3.948   3.058
 4507SOL     OW14056   2.729   4.183   2.502
 4507SOL    HW114057   2.684   4.238   2.437
 4507SOL    HW214058   2.751   4.103   2.454
 4508SOL     OW14059   2.880   3.779   2.612
 4508SOL    HW114060   2.821   3.772   2.536
 4508SOL    HW214061   2.856   3.704   2.666
 4509SOL     OW14062   3.300   4.890   2.721
 4509SOL    HW114063   3.233   4.822   2.717
 4509SOL    HW214064   3.327   4.903   2.630
 4510SOL     OW14065   3.328   4.330   2.837
 4510SOL    HW114066   3.276   4.250   2.840
 4510SOL    HW214067   3.387   4.324   2.912
 4511SOL     OW14068   3.707   4.539   2.245
 4511SOL    HW114069   3.763   4.488   2.303
 4511SOL    HW214070   3.679   4.476   2.178
 4512SOL     OW14071   2.340   5.149   2.013
 4512SOL    HW114072   2.281   5.097   2.066
 4512SOL    HW214073   2.347   5.101   1.930
 4513SOL     OW14074   3.532   4.986   2.508
 4513SOL    HW114075   3.626   4.993   2.525
 4513SOL    HW214076   3.498   5.075   2.524
 4514SOL     OW14077   3.256   4.296   1.933
 4514SOL    HW114078   3.195   4.276   2.004
 4514SOL    HW214079   3.341   4.264   1.965
 4515SOL     OW14080   2.387   3.987   2.179
 4515SOL    HW114081   2.433   3.940   2.109
 4515SOL    HW214082   2.364   4.071   2.140
 4516SOL     OW14083   3.613   4.960   3.436
 4516SOL    HW114084   3.698   4.918   3.436
 4516SOL    HW214085   3.632   5.053   3.448
 4517SOL     OW14086   2.926   5.074   3.192
 4517SOL    HW114087   2.848   5.048   3.240
 4517SOL    HW214088   2.998   5.035   3.241
 4518SOL     OW14089   2.989   4.926   2.969
 4518SOL    HW114090   2.940   4.967   3.040
 4518SOL    HW214091   2.943   4.951   2.889
 4519SOL     OW14092   3.490   4.822   2.938
 4519SOL    HW114093   3.485   4.883   3.011
 4519SOL    HW214094   3.412   4.841   2.885
 4520SOL     OW14095   2.779   3.824   3.256
 4520SOL    HW114096   2.802   3.803   3.166
 4520SOL    HW214097   2.858   3.863   3.293
 4521SOL     OW14098   2.846   4.839   3.588
 4521SOL    HW114099   2.754   4.855   3.607
 4521SOL    HW214100   2.846   4.762   3.530
 4522SOL     OW14101   2.567   4.783   2.233
 4522SOL    HW114102   2.554   4.767   2.327
 4522SOL    HW214103   2.644   4.732   2.210
 4523SOL     OW14104   2.281   4.539   3.113
 4523SOL    HW114105   2.349   4.549   3.180
 4523SOL    HW214106   2.246   4.451   3.127
 4524SOL     OW14107   3.126   4.099   3.140
 4524SOL    HW114108   3.160   4.176   3.185
 4524SOL    HW214109   3.036   4.121   3.117
 4525SOL     OW14110   2.207   4.834   2.350
 4525SOL    HW114111   2.209   4.907   2.288
 4525SOL    HW214112   2.206   4.755   2.295
 4526SOL     OW14113   2.414   4.260   2.722
 4526SOL    HW114114   2.428   4.318   2.647
 4526SOL    HW214115   2.479   4.286   2.786
 4527SOL     OW14116   3.122   5.078   2.248
 4527SOL    HW114117   3.179   5.145   2.286
 4527SOL    HW214118   3.034   5.101   2.277
 4528SOL     OW14119   3.133   5.182   3.004
 4528SOL    HW114120   3.192   5.197   3.077
 4528SOL    HW214121   3.088   5.100   3.024
 4529SOL     OW14122   3.443   4.346   2.342
 4529SOL    HW114123   3.395   4.399   2.406
 4529SOL    HW214124   3.488   4.410   2.287
 4530SOL     OW14125   2.210   5.236   3.175
 4530SOL    HW114126   2.199   5.201   3.087
 4530SOL    HW214127   2.304   5.256   3.181
 4531SOL     OW14128   2.277   4.469   3.464
 4531SOL    HW114129   2.339   4.513   3.407
 4531SOL    HW214130   2.315   4.383   3.480
 4532SOL     OW14131   3.465   4.503   3.545
 4532SOL    HW114132   3.379   4.545   3.538
 4532SOL    HW214133   3.517   4.545   3.476
 4533SOL     OW14134   2.860   3.854   3.619
 4533SOL    HW114135   2.918   3.925   3.592
 4533SOL    HW214136   2.907   3.774   3.595
 4534SOL     OW14137   2.355   3.768   3.608
 4534SOL    HW114138   2.309   3.711   3.547
 4534SOL    HW214139   2.295   3.842   3.620
 4535SOL     OW14140   2.446   4.596   2.894
 4535SOL    HW114141   2.475   4.687   2.892
 4535SOL    HW214142   2.389   4.591   2.971
 4536SOL     OW14143   3.218   4.582   2.889
 4536SOL    HW114144   3.134   4.571   2.844
 4536SOL    HW214145   3.260   4.496   2.883
 4537SOL     OW14146   3.066   4.252   2.128
 4537SOL    HW114147   3.074   4.174   2.183
 4537SOL    HW214148   3.023   4.316   2.184
 4538SOL     OW14149   2.161   3.923   3.109
 4538SOL    HW114150   2.123   3.955   3.191
 4538SOL    HW214151   2.142   3.829   3.109
 4539SOL     OW14152   1.916   5.047   3.147
 4539SOL    HW114153   1.939   4.982   3.213
 4539SOL    HW214154   1.951   5.129   3.182
 4540SOL     OW14155   2.585   4.354   2.919
 4540SOL    HW114156   2.661   4.339   2.862
 4540SOL    HW214157   2.557   4.443   2.898
 4541SOL     OW14158   3.597   4.684   3.715
 4541SOL    HW114159   3.552   4.620   3.659
 4541SOL    HW214160   3.537   4.698   3.788
 4542SOL     OW14161   2.166   3.788   2.486
 4542SOL    HW114162   2.146   3.878   2.508
 4542SOL    HW214163   2.174   3.743   2.570
 4543SOL     OW14164   3.479   4.099   2.228
 4543SOL    HW114165   3.507   4.035   2.293
 4543SOL    HW214166   3.457   4.177   2.278
 4544SOL     OW14167   2.890   4.483   2.822
 4544SOL    HW114168   2.885   4.500   2.916
 4544SOL    HW214169   2.864   4.391   2.813
 4545SOL     OW14170   3.715   5.213   3.445
 4545SOL    HW114171   3.708   5.290   3.389
 4545SOL    HW214172   3.785   5.236   3.507
 4546SOL     OW14173   2.215   4.641   3.671
 4546SOL    HW114174   2.297   4.659   3.717
 4546SOL    HW214175   2.240   4.578   3.603
 4547SOL     OW14176   3.391   3.996   1.989
 4547SOL    HW114177   3.325   3.932   2.016
 4547SOL    HW214178   3.424   4.032   2.071
 4548SOL     OW14179   3.153   4.550   1.892
 4548SOL    HW114180   3.196   4.464   1.896
 4548SOL    HW214181   3.184   4.589   1.811
 4549SOL     OW14182   2.919   5.081   2.685
 4549SOL    HW114183   2.925   4.995   2.643
 4549SOL    HW214184   3.006   5.119   2.674
 4550SOL     OW14185   2.170   4.532   2.809
 4550SOL    HW114186   2.264   4.553   2.802
 4550SOL    HW214187   2.168   4.442   2.841
 4551SOL     OW14188   2.192   4.251   2.874
 4551SOL    HW114189   2.157   4.163   2.860
 4551SOL    HW214190   2.269   4.256   2.817
 4552SOL     OW14191   2.997   4.099   3.545
 4552SOL    HW114192   2.948   4.154   3.607
 4552SOL    HW214193   3.084   4.138   3.541
 4553SOL     OW14194   3.023   3.923   3.335
 4553SOL    HW114195   3.012   3.988   3.405
 4553SOL    HW214196   3.063   3.972   3.263
 4554SOL     OW14197   1.868   5.039   2.052
 4554SOL    HW114198   1.778   5.057   2.027
 4554SOL    HW214199   1.866   4.951   2.090
 4555SOL     OW14200   2.843   4.515   3.088
 4555SOL    HW114201   2.900   4.493   3.162
 4555SOL    HW214202   2.758   4.477   3.112
 4556SOL     OW14203   1.898   4.269   2.979
 4556SOL    HW114204   1.978   4.257   2.928
 4556SOL    HW214205   1.927   4.272   3.070
 4557SOL     OW14206   2.053   4.244   3.590
 4557SOL    HW114207   2.109   4.204   3.524
 4557SOL    HW214208   2.012   4.319   3.546
 4558SOL     OW14209   3.239   4.661   3.520
 4558SOL    HW114210   3.260   4.755   3.517
 4558SOL    HW214211   3.236   4.635   3.428
 4559SOL     OW14212   2.678   4.293   2.224
 4559SOL    HW114213   2.682   4.219   2.163
 4559SOL    HW214214   2.604   4.346   2.192
 4560SOL     OW14215   3.504   4.325   3.047
 4560SOL    HW114216   3.494   4.267   3.122
 4560SOL    HW214217   3.591   4.306   3.012
 4561SOL     OW14218   2.067   5.276   3.608
 4561SOL    HW114219   2.050   0.028   3.686
 4561SOL    HW214220   2.079   5.187   3.640
 4562SOL     OW14221   2.566   4.173   3.120
 4562SOL    HW114222   2.512   4.100   3.091
 4562SOL    HW214223   2.561   4.237   3.049
 4563SOL     OW14224   2.325   4.216   2.048
 4563SOL    HW114225   2.384   4.289   2.070
 4563SOL    HW214226   2.240   4.258   2.035
 4564SOL     OW14227   2.006   4.863   3.333
 4564SOL    HW114228   2.008   4.812   3.414
 4564SOL    HW214229   2.024   4.799   3.264
 4565SOL     OW14230   3.188   4.768   3.084
 4565SOL    HW114231   3.210   4.706   3.015
 4565SOL    HW214232   3.118   4.821   3.046
 4566SOL     OW14233   3.174   4.581   2.168
 4566SOL    HW114234   3.099   4.550   2.218
 4566SOL    HW214235   3.149   4.567   2.076
 4567SOL     OW14236   1.957   4.987   2.884
 4567SOL    HW114237   1.935   5.005   2.975
 4567SOL    HW214238   1.877   4.948   2.848
 4568SOL     OW14239   2.615   0.037   3.571
 4568SOL    HW114240   2.523   0.059   3.583
 4568SOL    HW214241   2.635   0.062   3.480
 4569SOL     OW14242   3.581   3.872   2.370
 4569SOL    HW114243   3.654   3.857   2.310
 4569SOL    HW214244   3.566   3.787   2.411
 4570SOL     OW14245   3.139   4.650   2.534
 4570SOL    HW114246   3.213   4.589   2.542
 4570SOL    HW214247   3.174   4.722   2.480
 4571SOL     OW14248   2.679   4.993   3.280
 4571SOL    HW114249   2.648   5.029   3.363
 4571SOL    HW214250   2.604   5.002   3.221
 4572SOL     OW14251   3.703   3.897   2.829
 4572SOL    HW114252   3.732   3.809   2.802
 4572SOL    HW214253   3.617   3.907   2.789
 4573SOL     OW14254   2.123   4.039   2.578
 4573SOL    HW114255   2.037   4.075   2.555
 4573SOL    HW214256   2.121   4.032   2.674
 4574SOL     OW14257   2.687   4.727   3.233
 4574SOL    HW114258   2.734   4.720   3.149
 4574SOL    HW214259   2.690   4.820   3.254
 4575SOL     OW14260   2.778   4.636   2.153
 4575SOL    HW114261   2.839   4.668   2.086
 4575SOL    HW214262   2.826   4.566   2.197
 4576SOL     OW14263   2.227   5.026   3.359
 4576SOL    HW114264   2.216   5.100   3.298
 4576SOL    HW214265   2.151   4.970   3.342
 4577SOL     OW14266   3.474   5.004   3.144
 4577SOL    HW114267   3.531   4.997   3.221
 4577SOL    HW214268   3.411   5.073   3.167
 4578SOL     OW14269   2.918   4.834   2.574
 4578SOL    HW114270   2.845   4.783   2.610
 4578SOL    HW214271   2.980   4.769   2.543
 4579SOL     OW14272   2.883   3.964   2.829
 4579SOL    HW114273   2.880   3.917   2.745
 4579SOL    HW214274   2.878   3.895   2.895
 4580SOL     OW14275   3.585   4.116   3.243
 4580SOL    HW114276   3.657   4.179   3.241
 4580SOL    HW214277   3.614   4.045   3.186
 4581SOL     OW14278   2.120   5.051   2.146
 4581SOL    HW114279   2.029   5.052   2.118
 4581SOL    HW214280   2.121   5.095   2.230
 4582SOL     OW14281   1.974   4.748   3.581
 4582SOL    HW114282   1.898   4.723   3.634
 4582SOL    HW214283   2.049   4.709   3.627
 4583SOL     OW14284   2.536   3.922   3.362
 4583SOL    HW114285   2.620   3.903   3.320
 4583SOL    HW214286   2.560   3.953   3.450
 4584SOL     OW14287   1.941   4.057   1.897
 4584SOL    HW114288   1.854   4.037   1.862
 4584SOL    HW214289   1.971   4.132   1.845
 4585SOL     OW14290   3.291   4.581   3.261
 4585SOL    HW114291   3.242   4.642   3.206
 4585SOL    HW214292   3.380   4.584   3.227
 4586SOL     OW14293   1.929   3.880   2.171
 4586SOL    HW114294   1.915   3.960   2.120
 4586SOL    HW214295   2.014   3.847   2.141
 4587SOL     OW14296   3.044   5.062   1.983
 4587SOL    HW114297   2.953   5.033   1.984
 4587SOL    HW214298   3.072   5.055   2.074
 4588SOL     OW14299   2.481   4.554   3.296
 4588SOL    HW114300   2.538   4.630   3.280
 4588SOL    HW214301   2.542   4.480   3.304
 4589SOL     OW14302   2.580   4.286   3.565
 4589SOL    HW114303   2.621   4.348   3.625
 4589SOL    HW214304   2.605   4.200   3.599
 4590SOL     OW14305   3.336   4.922   3.492
 4590SOL    HW114306   3.323   4.934   3.586
 4590SOL    HW214307   3.430   4.936   3.479
 4591SOL     OW14308   3.531   4.605   3.117
 4591SOL    HW114309   3.525   4.520   3.074
 4591SOL    HW214310   3.521   4.669   3.046
 4592SOL     OW14311   3.078   4.043   2.320
 4592SOL    HW114312   3.141   3.971   2.312
 4592SOL    HW214313   3.107   4.092   2.397
 4593SOL     OW14314   2.451   4.461   2.533
 4593SOL    HW114315   2.490   4.547   2.518
 4593SOL    HW214316   2.384   4.453   2.465
 4594SOL     OW14317   3.624   4.086   3.513
 4594SOL    HW114318   3.607   4.102   3.420
 4594SOL    HW214319   3.552   4.030   3.541
 4595SOL     OW14320   3.607   4.657   3.374
 4595SOL    HW114321   3.602   4.752   3.387
 4595SOL    HW214322   3.592   4.645   3.280
 4596SOL     OW14323   2.710   5.094   1.882
 4596SOL    HW114324   2.693   5.094   1.976
 4596SOL    HW214325   2.724   5.186   1.860
 4597SOL     OW14326   2.730   4.692   2.717
 4597SOL    HW114327   2.780   4.620   2.756
 4597SOL    HW214328   2.695   4.741   2.791
 4598SOL     OW14329   2.942   4.714   1.952
 4598SOL    HW114330   2.919   4.763   1.873
 4598SOL    HW214331   3.016   4.659   1.925
 4599SOL     OW14332   2.085   5.022   3.714
 4599SOL    HW114333   2.017   4.959   3.688
 4599SOL    HW214334   2.073   5.033   3.808
 4600SOL     OW14335   1.949   4.955   2.532
 4600SOL    HW114336   1.948   4.903   2.612
 4600SOL    HW214337   2.012   4.911   2.476
 4601SOL     OW14338   2.534   5.105   3.470
 4601SOL    HW114339   2.457   5.073   3.518
 4601SOL    HW214340   2.566   5.178   3.523
 4602SOL     OW14341   3.673   3.907   3.100
 4602SOL    HW114342   3.686   3.813   3.113
 4602SOL    HW214343   3.683   3.919   3.005
 4603SOL     OW14344   2.291   4.158   2.388
 4603SOL    HW114345   2.321   4.087   2.331
 4603SOL    HW214346   2.243   4.113   2.457
 4604SOL     OW14347   3.569   5.224   2.981
 4604SOL    HW114348   3.495   5.208   2.922
 4604SOL    HW214349   3.575   5.145   3.034
 4605SOL     OW14350   2.193   4.280   3.154
 4605SOL    HW114351   2.248   4.225   3.209
 4605SOL    HW214352   2.212   4.252   3.064
 4606SOL     OW14353   3.294   3.950   2.980
 4606SOL    HW114354   3.317   3.869   3.025
 4606SOL    HW214355   3.242   3.999   3.044
 4607SOL     OW14356   2.870   3.741   3.005
 4607SOL    HW114357   2.815   3.671   2.969
 4607SOL    HW214358   2.958   3.705   3.005
 4608SOL     OW14359   2.666   5.047   2.146
 4608SOL    HW114360   2.607   4.974   2.166
 4608SOL    HW214361   2.721   5.054   2.224
 4609SOL     OW14362   2.484   5.299   3.154
 4609SOL    HW114363   2.490   0.054   3.233
 4609SOL    HW214364   2.575   5.279   3.132
 4610SOL     OW14365   3.215   3.777   2.028
 4610SOL    HW114366   3.244   3.713   1.964
 4610SOL    HW214367   3.127   3.748   2.054
 4611SOL     OW14368   3.158   4.185   2.542
 4611SOL    HW114369   3.105   4.265   2.549
 4611SOL    HW214370   3.154   4.146   2.630
 4612SOL     OW14371   3.448   3.925   2.741
 4612SOL    HW114372   3.389   3.946   2.812
 4612SOL    HW214373   3.448   4.002   2.685
 4613SOL     OW14374   1.904   4.793   2.170
 4613SOL    HW114375   1.998   4.787   2.153
 4613SOL    HW214376   1.878   4.704   2.192
 4614SOL     OW14377   2.091   4.347   3.848
 4614SOL    HW114378   2.001   4.346   3.883
 4614SOL    HW214379   2.081   4.323   3.756
 4615SOL     OW14380   2.086   4.005   4.716
 4615SOL    HW114381   2.114   3.972   4.802
 4615SOL    HW214382   1.997   3.973   4.706
 4616SOL     OW14383   1.865   4.107   4.362
 4616SOL    HW114384   1.782   4.132   4.403
 4616SOL    HW214385   1.843   4.028   4.312
 4617SOL     OW14386   2.429   5.007   4.904
 4617SOL    HW114387   2.344   5.005   4.861
 4617SOL    HW214388   2.440   5.099   4.930
 4618SOL     OW14389   3.418   5.232   4.413
 4618SOL    HW114390   3.400   5.229   4.507
 4618SOL    HW214391   3.338   5.268   4.374
 4619SOL     OW14392   2.992   4.422   4.424
 4619SOL    HW114393   3.041   4.503   4.410
 4619SOL    HW214394   2.946   4.436   4.506
 4620SOL     OW14395   3.630   4.328   3.952
 4620SOL    HW114396   3.608   4.321   3.859
 4620SOL    HW214397   3.594   4.249   3.991
 4621SOL     OW14398   2.617   4.867   4.763
 4621SOL    HW114399   2.550   4.899   4.824
 4621SOL    HW214400   2.647   4.946   4.718
 4622SOL     OW14401   2.730   4.496   5.546
 4622SOL    HW114402   2.717   4.567   5.609
 4622SOL    HW214403   2.754   4.540   5.465
 4623SOL     OW14404   2.548   4.725   4.371
 4623SOL    HW114405   2.613   4.715   4.441
 4623SOL    HW214406   2.479   4.779   4.410
 4624SOL     OW14407   2.571   4.871   5.536
 4624SOL    HW114408   2.619   4.951   5.561
 4624SOL    HW214409   2.488   4.903   5.501
 4625SOL     OW14410   2.199   5.148   4.783
 4625SOL    HW114411   2.121   5.104   4.750
 4625SOL    HW214412   2.236   5.191   4.706
 4626SOL     OW14413   3.316   5.221   5.072
 4626SOL    HW114414   3.371   5.293   5.103
 4626SOL    HW214415   3.249   5.212   5.139
 4627SOL     OW14416   2.312   4.122   5.208
 4627SOL    HW114417   2.387   4.062   5.216
 4627SOL    HW214418   2.236   4.066   5.224
 4628SOL     OW14419   3.473   4.171   4.465
 4628SOL    HW114420   3.399   4.194   4.408
 4628SOL    HW214421   3.487   4.249   4.518
 4629SOL     OW14422   2.995   5.073   5.426
 4629SOL    HW114423   3.025   5.074   5.517
 4629SOL    HW214424   2.942   4.994   5.419
 4630SOL     OW14425   2.072   5.157   4.245
 4630SOL    HW114426   2.099   5.237   4.288
 4630SOL    HW214427   2.021   5.110   4.311
 4631SOL     OW14428   2.122   4.811   4.616
 4631SOL    HW114429   2.119   4.724   4.655
 4631SOL    HW214430   2.064   4.864   4.672
 4632SOL     OW14431   2.446   4.706   3.859
 4632SOL    HW114432   2.493   4.753   3.791
 4632SOL    HW214433   2.485   4.736   3.941
 4633SOL     OW14434   3.457   3.848   5.192
 4633SOL    HW114435   3.469   3.928   5.141
 4633SOL    HW214436   3.442   3.878   5.281
 4634SOL     OW14437   1.978   4.377   4.284
 4634SOL    HW114438   1.948   4.289   4.305
 4634SOL    HW214439   1.969   4.425   4.366
 4635SOL     OW14440   1.849   0.013   3.821
 4635SOL    HW114441   1.863   5.224   3.852
 4635SOL    HW214442   1.870   0.069   3.896
 4636SOL     OW14443   3.550   4.641   4.365
 4636SOL    HW114444   3.634   4.599   4.344
 4636SOL    HW214445   3.529   4.692   4.287
 4637SOL     OW14446   3.508   4.830   4.154
 4637SOL    HW114447   3.594   4.834   4.111
 4637SOL    HW214448   3.515   4.891   4.227
 4638SOL     OW14449   1.985   4.467   5.309
 4638SOL    HW114450   2.077   4.494   5.316
 4638SOL    HW214451   1.936   4.549   5.317
 4639SOL     OW14452   2.485   5.098   4.462
 4639SOL    HW114453   2.431   5.019   4.460
 4639SOL    HW214454   2.466   5.143   4.379
 4640SOL     OW14455   3.150   4.953   5.149
 4640SOL    HW114456   3.185   4.888   5.089
 4640SOL    HW214457   3.211   4.951   5.224
 4641SOL     OW14458   2.684   3.729   4.247
 4641SOL    HW114459   2.720   3.811   4.216
 4641SOL    HW214460   2.590   3.742   4.248
 4642SOL     OW14461   2.052   4.689   4.995
 4642SOL    HW114462   2.137   4.647   4.981
 4642SOL    HW214463   1.990   4.636   4.946
 4643SOL     OW14464   3.392   4.720   3.922
 4643SOL    HW114465   3.323   4.662   3.954
 4643SOL    HW214466   3.434   4.754   4.001
 4644SOL     OW14467   2.197   3.974   5.537
 4644SOL    HW114468   2.240   4.057   5.556
 4644SOL    HW214469   2.107   3.987   5.567
 4645SOL     OW14470   3.339   5.147   4.686
 4645SOL    HW114471   3.267   5.160   4.747
 4645SOL    HW214472   3.327   5.059   4.652
 4646SOL     OW14473   2.458   4.444   3.991
 4646SOL    HW114474   2.463   4.526   3.941
 4646SOL    HW214475   2.393   4.461   4.059
 4647SOL     OW14476   3.140   4.079   4.656
 4647SOL    HW114477   3.051   4.045   4.665
 4647SOL    HW214478   3.192   4.026   4.717
 4648SOL     OW14479   2.654   4.342   5.174
 4648SOL    HW114480   2.628   4.318   5.263
 4648SOL    HW214481   2.614   4.274   5.119
 4649SOL     OW14482   3.255   4.198   5.402
 4649SOL    HW114483   3.258   4.243   5.486
 4649SOL    HW214484   3.316   4.125   5.411
 4650SOL     OW14485   2.816   4.612   5.307
 4650SOL    HW114486   2.871   4.542   5.272
 4650SOL    HW214487   2.768   4.646   5.232
 4651SOL     OW14488   2.854   4.136   4.962
 4651SOL    HW114489   2.768   4.157   4.998
 4651SOL    HW214490   2.836   4.094   4.878
 4652SOL     OW14491   2.914   4.422   4.150
 4652SOL    HW114492   2.929   4.415   4.244
 4652SOL    HW214493   2.831   4.376   4.136
 4653SOL     OW14494   1.950   4.545   4.501
 4653SOL    HW114495   2.031   4.538   4.551
 4653SOL    HW214496   1.906   4.622   4.535
 4654SOL     OW14497   2.757   4.073   3.919
 4654SOL    HW114498   2.797   4.134   3.858
 4654SOL    HW214499   2.764   3.988   3.877
 4655SOL     OW14500   3.569   4.297   5.552
 4655SOL    HW114501   3.532   4.371   5.504
 4655SOL    HW214502   3.598   4.236   5.484
 4656SOL     OW14503   3.240   4.863   4.263
 4656SOL    HW114504   3.321   4.850   4.214
 4656SOL    HW214505   3.190   4.925   4.209
 4657SOL     OW14506   2.401   3.905   4.619
 4657SOL    HW114507   2.409   3.937   4.709
 4657SOL    HW214508   2.409   3.984   4.565
 4658SOL     OW14509   2.883   5.169   4.195
 4658SOL    HW114510   2.806   5.226   4.192
 4658SOL    HW214511   2.899   5.156   4.289
 4659SOL     OW14512   3.663   4.780   4.591
 4659SOL    HW114513   3.606   4.762   4.516
 4659SOL    HW214514   3.602   4.787   4.665
 4660SOL     OW14515   3.113   5.239   5.249
 4660SOL    HW114516   3.077   5.173   5.307
 4660SOL    HW214517   3.040   5.263   5.191
 4661SOL     OW14518   2.181   4.681   3.975
 4661SOL    HW114519   2.264   4.700   3.930
 4661SOL    HW214520   2.151   4.599   3.935
 4662SOL     OW14521   3.341   4.468   4.451
 4662SOL    HW114522   3.334   4.426   4.536
 4662SOL    HW214523   3.419   4.523   4.457
 4663SOL     OW14524   2.327   4.988   5.465
 4663SOL    HW114525   2.300   4.990   5.373
 4663SOL    HW214526   2.244   4.987   5.514
 4664SOL     OW14527   2.930   0.178   3.928
 4664SOL    HW114528   2.941   0.103   3.986
 4664SOL    HW214529   2.956   0.146   3.842
 4665SOL     OW14530   2.063   4.005   5.226
 4665SOL    HW114531   1.981   4.054   5.222
 4665SOL    HW214532   2.045   3.932   5.285
 4666SOL     OW14533   3.484   5.101   3.833
 4666SOL    HW114534   3.485   5.175   3.772
 4666SOL    HW214535   3.416   5.043   3.799
 4667SOL     OW14536   3.268   3.840   4.155
 4667SOL    HW114537   3.258   3.812   4.064
 4667SOL    HW214538   3.362   3.840   4.170
 4668SOL     OW14539   2.256   4.419   4.200
 4668SOL    HW114540   2.276   4.326   4.211
 4668SOL    HW214541   2.162   4.426   4.217
 4669SOL     OW14542   3.396   3.949   5.449
 4669SOL    HW114543   3.406   3.970   5.542
 4669SOL    HW214544   3.327   3.883   5.447
 4670SOL     OW14545   2.501   3.843   3.826
 4670SOL    HW114546   2.569   3.776   3.836
 4670SOL    HW214547   2.448   3.813   3.753
 4671SOL     OW14548   2.628   4.002   5.478
 4671SOL    HW114549   2.704   3.945   5.479
 4671SOL    HW214550   2.580   3.979   5.558
 4672SOL     OW14551   3.202   4.313   5.156
 4672SOL    HW114552   3.233   4.282   5.241
 4672SOL    HW214553   3.238   4.401   5.148
 4673SOL     OW14554   2.676   5.118   4.660
 4673SOL    HW114555   2.756   5.105   4.610
 4673SOL    HW214556   2.607   5.125   4.594
 4674SOL     OW14557   2.790   4.233   4.626
 4674SOL    HW114558   2.766   4.226   4.534
 4674SOL    HW214559   2.822   4.146   4.650
 4675SOL     OW14560   2.414   3.786   4.226
 4675SOL    HW114561   2.334   3.789   4.278
 4675SOL    HW214562   2.409   3.864   4.169
 4676SOL     OW14563   3.290   4.924   3.762
 4676SOL    HW114564   3.320   4.849   3.813
 4676SOL    HW214565   3.202   4.942   3.795
 4677SOL     OW14566   2.152   3.777   3.906
 4677SOL    HW114567   2.211   3.841   3.867
 4677SOL    HW214568   2.209   3.714   3.950
 4678SOL     OW14569   2.802   3.974   4.183
 4678SOL    HW114570   2.775   4.012   4.099
 4678SOL    HW214571   2.897   3.988   4.186
 4679SOL     OW14572   2.942   4.406   5.183
 4679SOL    HW114573   2.874   4.338   5.188
 4679SOL    HW214574   3.024   4.357   5.177
 4680SOL     OW14575   3.126   5.266   4.502
 4680SOL    HW114576   3.081   0.047   4.477
 4680SOL    HW214577   3.171   5.288   4.583
 4681SOL     OW14578   2.328   4.872   4.453
 4681SOL    HW114579   2.260   4.852   4.517
 4681SOL    HW214580   2.287   4.855   4.368
 4682SOL     OW14581   2.885   4.264   3.747
 4682SOL    HW114582   2.842   4.348   3.727
 4682SOL    HW214583   2.950   4.286   3.813
 4683SOL     OW14584   1.942   4.278   5.116
 4683SOL    HW114585   2.034   4.277   5.089
 4683SOL    HW214586   1.937   4.348   5.181
 4684SOL     OW14587   2.420   3.951   4.891
 4684SOL    HW114588   2.462   3.876   4.934
 4684SOL    HW214589   2.329   3.949   4.921
 4685SOL     OW14590   2.728   4.182   4.364
 4685SOL    HW114591   2.684   4.238   4.300
 4685SOL    HW214592   2.751   4.103   4.315
 4686SOL     OW14593   2.848   3.765   4.489
 4686SOL    HW114594   2.802   3.769   4.405
 4686SOL    HW214595   2.877   3.674   4.497
 4687SOL     OW14596   3.300   4.890   4.583
 4687SOL    HW114597   3.233   4.822   4.579
 4687SOL    HW214598   3.327   4.903   4.492
 4688SOL     OW14599   3.328   4.330   4.699
 4688SOL    HW114600   3.277   4.249   4.702
 4688SOL    HW214601   3.387   4.324   4.774
 4689SOL     OW14602   3.707   4.539   4.107
 4689SOL    HW114603   3.763   4.488   4.165
 4689SOL    HW214604   3.679   4.476   4.040
 4690SOL     OW14605   2.340   5.149   3.874
 4690SOL    HW114606   2.281   5.097   3.928
 4690SOL    HW214607   2.347   5.101   3.792
 4691SOL     OW14608   3.532   4.986   4.370
 4691SOL    HW114609   3.626   4.993   4.387
 4691SOL    HW214610   3.498   5.075   4.386
 4692SOL     OW14611   3.256   4.296   3.795
 4692SOL    HW114612   3.195   4.276   3.866
 4692SOL    HW214613   3.341   4.265   3.827
 4693SOL     OW14614   2.388   3.985   4.040
 4693SOL    HW114615   2.435   3.938   3.970
 4693SOL    HW214616   2.365   4.069   4.001
 4694SOL     OW14617   3.613   4.960   5.298
 4694SOL    HW114618   3.698   4.918   5.298
 4694SOL    HW214619   3.632   5.053   5.310
 4695SOL     OW14620   2.926   5.073   5.053
 4695SOL    HW114621   2.848   5.048   5.102
 4695SOL    HW214622   2.998   5.035   5.103
 4696SOL     OW14623   2.989   4.925   4.831
 4696SOL    HW114624   2.940   4.967   4.902
 4696SOL    HW214625   2.943   4.951   4.751
 4697SOL     OW14626   3.490   4.822   4.800
 4697SOL    HW114627   3.485   4.883   4.873
 4697SOL    HW214628   3.412   4.841   4.748
 4698SOL     OW14629   2.782   3.822   5.121
 4698SOL    HW114630   2.805   3.810   5.029
 4698SOL    HW214631   2.860   3.861   5.161
 4699SOL     OW14632   2.846   4.839   5.449
 4699SOL    HW114633   2.754   4.855   5.469
 4699SOL    HW214634   2.846   4.762   5.392
 4700SOL     OW14635   2.567   4.783   4.095
 4700SOL    HW114636   2.554   4.767   4.189
 4700SOL    HW214637   2.644   4.732   4.072
 4701SOL     OW14638   2.281   4.539   4.975
 4701SOL    HW114639   2.349   4.549   5.042
 4701SOL    HW214640   2.246   4.451   4.989
 4702SOL     OW14641   3.127   4.100   5.001
 4702SOL    HW114642   3.160   4.178   5.046
 4702SOL    HW214643   3.036   4.122   4.979
 4703SOL     OW14644   2.207   4.834   4.212
 4703SOL    HW114645   2.209   4.907   4.150
 4703SOL    HW214646   2.206   4.755   4.157
 4704SOL     OW14647   2.414   4.260   4.584
 4704SOL    HW114648   2.428   4.318   4.509
 4704SOL    HW214649   2.479   4.286   4.648
 4705SOL     OW14650   3.122   5.078   4.109
 4705SOL    HW114651   3.179   5.145   4.148
 4705SOL    HW214652   3.034   5.101   4.139
 4706SOL     OW14653   3.133   5.182   4.866
 4706SOL    HW114654   3.192   5.197   4.939
 4706SOL    HW214655   3.088   5.100   4.886
 4707SOL     OW14656   3.443   4.346   4.204
 4707SOL    HW114657   3.395   4.399   4.268
 4707SOL    HW214658   3.488   4.410   4.149
 4708SOL     OW14659   2.210   5.236   5.037
 4708SOL    HW114660   2.199   5.201   4.949
 4708SOL    HW214661   2.304   5.256   5.043
 4709SOL     OW14662   2.277   4.469   5.326
 4709SOL    HW114663   2.339   4.513   5.268
 4709SOL    HW214664   2.316   4.383   5.343
 4710SOL     OW14665   3.465   4.503   5.407
 4710SOL    HW114666   3.379   4.545   5.400
 4710SOL    HW214667   3.517   4.545   5.338
 4711SOL     OW14668   2.858   3.849   5.478
 4711SOL    HW114669   2.915   3.922   5.453
 4711SOL    HW214670   2.906   3.770   5.453
 4712SOL     OW14671   2.359   3.763   5.471
 4712SOL    HW114672   2.316   3.710   5.405
 4712SOL    HW214673   2.301   3.838   5.484
 4713SOL     OW14674   2.446   4.596   4.756
 4713SOL    HW114675   2.476   4.687   4.754
 4713SOL    HW214676   2.389   4.591   4.833
 4714SOL     OW14677   3.218   4.582   4.751
 4714SOL    HW114678   3.134   4.571   4.706
 4714SOL    HW214679   3.260   4.496   4.745
 4715SOL     OW14680   3.066   4.252   3.990
 4715SOL    HW114681   3.073   4.174   4.044
 4715SOL    HW214682   3.023   4.317   4.046
 4716SOL     OW14683   2.160   3.923   4.971
 4716SOL    HW114684   2.123   3.955   5.053
 4716SOL    HW214685   2.142   3.829   4.973
 4717SOL     OW14686   1.916   5.047   5.009
 4717SOL    HW114687   1.939   4.982   5.075
 4717SOL    HW214688   1.950   5.130   5.044
 4718SOL     OW14689   2.585   4.354   4.781
 4718SOL    HW114690   2.660   4.340   4.724
 4718SOL    HW214691   2.557   4.444   4.761
 4719SOL     OW14692   3.597   4.684   5.577
 4719SOL    HW114693   3.552   4.620   5.521
 4719SOL    HW214694   3.538   4.698   5.650
 4720SOL     OW14695   2.170   3.794   4.350
 4720SOL    HW114696   2.149   3.884   4.373
 4720SOL    HW214697   2.174   3.748   4.434
 4721SOL     OW14698   3.481   4.100   4.089
 4721SOL    HW114699   3.507   4.035   4.154
 4721SOL    HW214700   3.457   4.177   4.140
 4722SOL     OW14701   2.890   4.483   4.684
 4722SOL    HW114702   2.885   4.500   4.778
 4722SOL    HW214703   2.863   4.391   4.675
 4723SOL     OW14704   3.716   5.213   5.307
 4723SOL    HW114705   3.708   5.290   5.251
 4723SOL    HW214706   3.785   5.235   5.369
 4724SOL     OW14707   2.215   4.641   5.533
 4724SOL    HW114708   2.297   4.659   5.579
 4724SOL    HW214709   2.240   4.578   5.465
 4725SOL     OW14710   3.391   3.997   3.851
 4725SOL    HW114711   3.325   3.933   3.879
 4725SOL    HW214712   3.425   4.033   3.933
 4726SOL     OW14713   3.153   4.550   3.754
 4726SOL    HW114714   3.196   4.464   3.758
 4726SOL    HW214715   3.184   4.589   3.673
 4727SOL     OW14716   2.919   5.081   4.547
 4727SOL    HW114717   2.925   4.995   4.505
 4727SOL    HW214718   3.006   5.119   4.536
 4728SOL     OW14719   2.171   4.532   4.671
 4728SOL    HW114720   2.264   4.553   4.664
 4728SOL    HW214721   2.168   4.442   4.704
 4729SOL     OW14722   2.192   4.251   4.737
 4729SOL    HW114723   2.157   4.163   4.722
 4729SOL    HW214724   2.269   4.256   4.679
 4730SOL     OW14725   2.996   4.099   5.408
 4730SOL    HW114726   2.948   4.154   5.469
 4730SOL    HW214727   3.083   4.138   5.403
 4731SOL     OW14728   3.024   3.926   5.195
 4731SOL    HW114729   3.013   3.989   5.267
 4731SOL    HW214730   3.064   3.977   5.125
 4732SOL     OW14731   1.868   5.039   3.914
 4732SOL    HW114732   1.778   5.057   3.889
 4732SOL    HW214733   1.866   4.951   3.952
 4733SOL     OW14734   2.843   4.514   4.950
 4733SOL    HW114735   2.900   4.493   5.023
 4733SOL    HW214736   2.758   4.478   4.975
 4734SOL     OW14737   1.898   4.269   4.841
 4734SOL    HW114738   1.979   4.258   4.791
 4734SOL    HW214739   1.926   4.272   4.932
 4735SOL     OW14740   2.053   4.244   5.452
 4735SOL    HW114741   2.109   4.204   5.385
 4735SOL    HW214742   2.012   4.319   5.408
 4736SOL     OW14743   3.239   4.661   5.382
 4736SOL    HW114744   3.260   4.755   5.379
 4736SOL    HW214745   3.236   4.635   5.290
 4737SOL     OW14746   2.678   4.294   4.086
 4737SOL    HW114747   2.683   4.219   4.026
 4737SOL    HW214748   2.604   4.345   4.054
 4738SOL     OW14749   3.504   4.325   4.909
 4738SOL    HW114750   3.494   4.266   4.984
 4738SOL    HW214751   3.591   4.306   4.874
 4739SOL     OW14752   2.067   5.276   5.470
 4739SOL    HW114753   2.051   0.028   5.548
 4739SOL    HW214754   2.079   5.187   5.502
 4740SOL     OW14755   2.566   4.173   4.982
 4740SOL    HW114756   2.511   4.100   4.953
 4740SOL    HW214757   2.561   4.237   4.911
 4741SOL     OW14758   2.325   4.216   3.910
 4741SOL    HW114759   2.384   4.288   3.932
 4741SOL    HW214760   2.240   4.257   3.898
 4742SOL     OW14761   2.006   4.863   5.195
 4742SOL    HW114762   2.008   4.812   5.276
 4742SOL    HW214763   2.024   4.799   5.127
 4743SOL     OW14764   3.188   4.768   4.946
 4743SOL    HW114765   3.210   4.706   4.877
 4743SOL    HW214766   3.118   4.821   4.908
 4744SOL     OW14767   3.174   4.582   4.030
 4744SOL    HW114768   3.099   4.550   4.080
 4744SOL    HW214769   3.149   4.568   3.938
 4745SOL     OW14770   1.957   4.987   4.746
 4745SOL    HW114771   1.935   5.005   4.837
 4745SOL    HW214772   1.877   4.948   4.710
 4746SOL     OW14773   2.615   0.036   5.433
 4746SOL    HW114774   2.523   0.059   5.445
 4746SOL    HW214775   2.635   0.062   5.343
 4747SOL     OW14776   3.581   3.872   4.231
 4747SOL    HW114777   3.654   3.858   4.171
 4747SOL    HW214778   3.566   3.786   4.272
 4748SOL     OW14779   3.139   4.650   4.395
 4748SOL    HW114780   3.213   4.589   4.404
 4748SOL    HW214781   3.174   4.722   4.342
 4749SOL     OW14782   2.679   4.993   5.142
 4749SOL    HW114783   2.648   5.028   5.226
 4749SOL    HW214784   2.605   5.002   5.083
 4750SOL     OW14785   3.703   3.897   4.691
 4750SOL    HW114786   3.732   3.810   4.664
 4750SOL    HW214787   3.617   3.907   4.650
 4751SOL     OW14788   2.123   4.043   4.442
 4751SOL    HW114789   2.037   4.077   4.417
 4751SOL    HW214790   2.119   4.036   4.538
 4752SOL     OW14791   2.687   4.727   5.094
 4752SOL    HW114792   2.734   4.720   5.011
 4752SOL    HW214793   2.690   4.820   5.116
 4753SOL     OW14794   2.778   4.636   4.015
 4753SOL    HW114795   2.839   4.668   3.948
 4753SOL    HW214796   2.826   4.566   4.059
 4754SOL     OW14797   2.227   5.026   5.221
 4754SOL    HW114798   2.216   5.100   5.160
 4754SOL    HW214799   2.151   4.970   5.204
 4755SOL     OW14800   3.474   5.004   5.006
 4755SOL    HW114801   3.531   4.997   5.083
 4755SOL    HW214802   3.412   5.073   5.029
 4756SOL     OW14803   2.918   4.834   4.436
 4756SOL    HW114804   2.845   4.783   4.472
 4756SOL    HW214805   2.980   4.769   4.405
 4757SOL     OW14806   2.882   3.966   4.690
 4757SOL    HW114807   2.869   3.916   4.609
 4757SOL    HW214808   2.879   3.900   4.759
 4758SOL     OW14809   3.585   4.116   5.104
 4758SOL    HW114810   3.657   4.179   5.103
 4758SOL    HW214811   3.614   4.045   5.048
 4759SOL     OW14812   2.120   5.051   4.008
 4759SOL    HW114813   2.029   5.052   3.980
 4759SOL    HW214814   2.121   5.095   4.092
 4760SOL     OW14815   1.974   4.747   5.443
 4760SOL    HW114816   1.898   4.723   5.496
 4760SOL    HW214817   2.049   4.709   5.489
 4761SOL     OW14818   2.537   3.922   5.224
 4761SOL    HW114819   2.621   3.902   5.183
 4761SOL    HW214820   2.559   3.954   5.312
 4762SOL     OW14821   1.940   4.057   3.759
 4762SOL    HW114822   1.853   4.038   3.725
 4762SOL    HW214823   1.969   4.133   3.708
 4763SOL     OW14824   3.291   4.581   5.123
 4763SOL    HW114825   3.242   4.642   5.068
 4763SOL    HW214826   3.380   4.584   5.089
 4764SOL     OW14827   1.929   3.881   4.033
 4764SOL    HW114828   1.915   3.961   3.982
 4764SOL    HW214829   2.014   3.848   4.003
 4765SOL     OW14830   3.044   5.062   3.845
 4765SOL    HW114831   2.953   5.033   3.846
 4765SOL    HW214832   3.072   5.055   3.936
 4766SOL     OW14833   2.481   4.554   5.158
 4766SOL    HW114834   2.538   4.630   5.142
 4766SOL    HW214835   2.542   4.481   5.166
 4767SOL     OW14836   2.580   4.287   5.427
 4767SOL    HW114837   2.621   4.350   5.487
 4767SOL    HW214838   2.605   4.201   5.461
 4768SOL     OW14839   3.336   4.922   5.354
 4768SOL    HW114840   3.323   4.934   5.448
 4768SOL    HW214841   3.430   4.936   5.341
 4769SOL     OW14842   3.531   4.605   4.979
 4769SOL    HW114843   3.525   4.520   4.936
 4769SOL    HW214844   3.521   4.668   4.908
 4770SOL     OW14845   3.078   4.043   4.182
 4770SOL    HW114846   3.143   3.974   4.172
 4770SOL    HW214847   3.107   4.093   4.259
 4771SOL     OW14848   2.451   4.461   4.395
 4771SOL    HW114849   2.490   4.547   4.380
 4771SOL    HW214850   2.384   4.453   4.327
 4772SOL     OW14851   3.623   4.086   5.375
 4772SOL    HW114852   3.607   4.102   5.282
 4772SOL    HW214853   3.551   4.030   5.403
 4773SOL     OW14854   3.607   4.657   5.236
 4773SOL    HW114855   3.601   4.752   5.249
 4773SOL    HW214856   3.592   4.645   5.142
 4774SOL     OW14857   2.710   5.094   3.744
 4774SOL    HW114858   2.693   5.094   3.838
 4774SOL    HW214859   2.724   5.186   3.722
 4775SOL     OW14860   2.730   4.692   4.579
 4775SOL    HW114861   2.780   4.621   4.619
 4775SOL    HW214862   2.695   4.741   4.653
 4776SOL     OW14863   2.942   4.714   3.814
 4776SOL    HW114864   2.919   4.763   3.735
 4776SOL    HW214865   3.016   4.659   3.787
 4777SOL     OW14866   2.085   5.023   5.576
 4777SOL    HW114867   2.017   4.960   5.551
 4777SOL    HW214868   2.073   5.033   5.671
 4778SOL     OW14869   1.949   4.955   4.394
 4778SOL    HW114870   1.948   4.903   4.474
 4778SOL    HW214871   2.012   4.911   4.338
 4779SOL     OW14872   2.534   5.105   5.332
 4779SOL    HW114873   2.457   5.073   5.380
 4779SOL    HW214874   2.566   5.178   5.385
 4780SOL     OW14875   3.674   3.908   4.962
 4780SOL    HW114876   3.684   3.813   4.975
 4780SOL    HW214877   3.683   3.920   4.867
 4781SOL     OW14878   2.292   4.158   4.249
 4781SOL    HW114879   2.321   4.086   4.192
 4781SOL    HW214880   2.243   4.114   4.319
 4782SOL     OW14881   3.569   5.224   4.842
 4782SOL    HW114882   3.495   5.208   4.784
 4782SOL    HW214883   3.575   5.145   4.896
 4783SOL     OW14884   2.193   4.280   5.016
 4783SOL    HW114885   2.248   4.225   5.071
 4783SOL    HW214886   2.212   4.252   4.927
 4784SOL     OW14887   3.294   3.951   4.841
 4784SOL    HW114888   3.317   3.869   4.883
 4784SOL    HW214889   3.243   3.998   4.906
 4785SOL     OW14890   2.871   3.749   4.867
 4785SOL    HW114891   2.814   3.675   4.849
 4785SOL    HW214892   2.960   3.714   4.862
 4786SOL     OW14893   2.666   5.047   4.008
 4786SOL    HW114894   2.607   4.974   4.028
 4786SOL    HW214895   2.721   5.055   4.086
 4787SOL     OW14896   2.484   5.299   5.016
 4787SOL    HW114897   2.490   0.054   5.095
 4787SOL    HW214898   2.575   5.279   4.994
 4788SOL     OW14899   3.215   3.779   3.891
 4788SOL    HW114900   3.249   3.719   3.825
 4788SOL    HW214901   3.130   3.742   3.916
 4789SOL     OW14902   3.157   4.185   4.404
 4789SOL    HW114903   3.105   4.265   4.411
 4789SOL    HW214904   3.154   4.147   4.492
 4790SOL     OW14905   3.449   3.926   4.602
 4790SOL    HW114906   3.389   3.946   4.674
 4790SOL    HW214907   3.448   4.004   4.547
 4791SOL     OW14908   1.904   4.793   4.032
 4791SOL    HW114909   1.998   4.787   4.015
 4791SOL    HW214910   1.878   4.704   4.054
 4792SOL     OW14911   2.090   4.347   5.710
 4792SOL    HW114912   2.001   4.346   5.745
 4792SOL    HW214913   2.081   4.322   5.618
 4793SOL     OW14914   2.086   4.006   6.578
 4793SOL    HW114915   2.115   3.971   6.662
 4793SOL    HW214916   1.997   3.974   6.568
 4794SOL     OW14917   1.865   4.107   6.224
 4794SOL    HW114918   1.783   4.132   6.266
 4794SOL    HW214919   1.844   4.028   6.175
 4795SOL     OW14920   2.429   5.007   6.767
 4795SOL    HW114921   2.344   5.004   6.722
 4795SOL    HW214922   2.440   5.099   6.791
 4796SOL     OW14923   3.418   5.232   6.275
 4796SOL    HW114924   3.400   5.229   6.368
 4796SOL    HW214925   3.338   5.268   6.236
 4797SOL     OW14926   2.992   4.422   6.286
 4797SOL    HW114927   3.041   4.503   6.272
 4797SOL    HW214928   2.946   4.436   6.368
 4798SOL     OW14929   3.630   4.328   5.814
 4798SOL    HW114930   3.608   4.321   5.721
 4798SOL    HW214931   3.594   4.249   5.853
 4799SOL     OW14932   2.617   4.867   6.625
 4799SOL    HW114933   2.550   4.899   6.686
 4799SOL    HW214934   2.647   4.946   6.580
 4800SOL     OW14935   2.730   4.498   7.406
 4800SOL    HW114936   2.713   4.572   7.464
 4800SOL    HW214937   2.755   4.538   7.323
 4801SOL     OW14938   2.548   4.725   6.233
 4801SOL    HW114939   2.613   4.715   6.303
 4801SOL    HW214940   2.479   4.779   6.272
 4802SOL     OW14941   2.571   4.872   7.398
 4802SOL    HW114942   2.619   4.951   7.422
 4802SOL    HW214943   2.488   4.904   7.362
 4803SOL     OW14944   2.199   5.149   6.645
 4803SOL    HW114945   2.121   5.104   6.612
 4803SOL    HW214946   2.237   5.191   6.568
 4804SOL     OW14947   3.316   5.221   6.934
 4804SOL    HW114948   3.371   5.293   6.965
 4804SOL    HW214949   3.249   5.212   7.001
 4805SOL     OW14950   2.312   4.122   7.072
 4805SOL    HW114951   2.387   4.063   7.078
 4805SOL    HW214952   2.236   4.066   7.086
 4806SOL     OW14953   3.473   4.171   6.327
 4806SOL    HW114954   3.398   4.193   6.271
 4806SOL    HW214955   3.486   4.249   6.381
 4807SOL     OW14956   2.995   5.072   7.287
 4807SOL    HW114957   3.027   5.072   7.377
 4807SOL    HW214958   2.941   4.993   7.280
 4808SOL     OW14959   2.072   5.157   6.107
 4808SOL    HW114960   2.099   5.237   6.150
 4808SOL    HW214961   2.021   5.110   6.173
 4809SOL     OW14962   2.122   4.811   6.478
 4809SOL    HW114963   2.119   4.723   6.517
 4809SOL    HW214964   2.064   4.864   6.534
 4810SOL     OW14965   2.446   4.706   5.721
 4810SOL    HW114966   2.493   4.753   5.653
 4810SOL    HW214967   2.485   4.736   5.803
 4811SOL     OW14968   3.458   3.848   7.053
 4811SOL    HW114969   3.468   3.929   7.003
 4811SOL    HW214970   3.442   3.877   7.143
 4812SOL     OW14971   1.977   4.377   6.146
 4812SOL    HW114972   1.948   4.288   6.167
 4812SOL    HW214973   1.969   4.425   6.228
 4813SOL     OW14974   1.848   0.013   5.683
 4813SOL    HW114975   1.863   5.224   5.715
 4813SOL    HW214976   1.870   0.069   5.758
 4814SOL     OW14977   3.550   4.642   6.227
 4814SOL    HW114978   3.634   4.599   6.206
 4814SOL    HW214979   3.529   4.693   6.149
 4815SOL     OW14980   3.508   4.830   6.015
 4815SOL    HW114981   3.594   4.834   5.973
 4815SOL    HW214982   3.515   4.891   6.089
 4816SOL     OW14983   1.985   4.466   7.172
 4816SOL    HW114984   2.077   4.493   7.177
 4816SOL    HW214985   1.936   4.548   7.179
 4817SOL     OW14986   2.485   5.098   6.324
 4817SOL    HW114987   2.431   5.019   6.322
 4817SOL    HW214988   2.466   5.143   6.241
 4818SOL     OW14989   3.150   4.953   7.012
 4818SOL    HW114990   3.185   4.888   6.951
 4818SOL    HW214991   3.211   4.951   7.086
 4819SOL     OW14992   2.677   3.725   6.093
 4819SOL    HW114993   2.718   3.809   6.074
 4819SOL    HW214994   2.584   3.744   6.103
 4820SOL     OW14995   2.052   4.689   6.857
 4820SOL    HW114996   2.137   4.647   6.843
 4820SOL    HW214997   1.990   4.635   6.808
 4821SOL     OW14998   3.392   4.720   5.784
 4821SOL    HW114999   3.323   4.662   5.816
 4821SOL    HW215000   3.434   4.754   5.863
 4822SOL     OW15001   2.196   3.973   7.401
 4822SOL    HW115002   2.240   4.057   7.415
 4822SOL    HW215003   2.106   3.987   7.430
 4823SOL     OW15004   3.339   5.147   6.548
 4823SOL    HW115005   3.267   5.160   6.609
 4823SOL    HW215006   3.327   5.059   6.514
 4824SOL     OW15007   2.458   4.444   5.853
 4824SOL    HW115008   2.463   4.526   5.804
 4824SOL    HW215009   2.393   4.461   5.921
 4825SOL     OW15010   3.141   4.078   6.519
 4825SOL    HW115011   3.051   4.045   6.527
 4825SOL    HW215012   3.192   4.025   6.579
 4826SOL     OW15013   2.653   4.342   7.037
 4826SOL    HW115014   2.627   4.317   7.125
 4826SOL    HW215015   2.614   4.274   6.981
 4827SOL     OW15016   3.256   4.198   7.263
 4827SOL    HW115017   3.258   4.243   7.348
 4827SOL    HW215018   3.315   4.124   7.273
 4828SOL     OW15019   2.816   4.612   7.169
 4828SOL    HW115020   2.871   4.542   7.133
 4828SOL    HW215021   2.768   4.645   7.093
 4829SOL     OW15022   2.855   4.137   6.824
 4829SOL    HW115023   2.768   4.156   6.860
 4829SOL    HW215024   2.837   4.090   6.742
 4830SOL     OW15025   2.914   4.422   6.012
 4830SOL    HW115026   2.930   4.415   6.106
 4830SOL    HW215027   2.831   4.376   5.998
 4831SOL     OW15028   1.950   4.545   6.362
 4831SOL    HW115029   2.031   4.538   6.413
 4831SOL    HW215030   1.906   4.623   6.398
 4832SOL     OW15031   2.757   4.073   5.780
 4832SOL    HW115032   2.796   4.136   5.720
 4832SOL    HW215033   2.773   3.987   5.740
 4833SOL     OW15034   3.571   4.299   7.415
 4833SOL    HW115035   3.533   4.372   7.367
 4833SOL    HW215036   3.598   4.237   7.348
 4834SOL     OW15037   3.240   4.863   6.124
 4834SOL    HW115038   3.321   4.850   6.076
 4834SOL    HW215039   3.190   4.925   6.071
 4835SOL     OW15040   2.413   3.906   6.479
 4835SOL    HW115041   2.414   3.934   6.571
 4835SOL    HW215042   2.413   3.987   6.429
 4836SOL     OW15043   2.883   5.169   6.057
 4836SOL    HW115044   2.806   5.226   6.054
 4836SOL    HW215045   2.899   5.156   6.151
 4837SOL     OW15046   3.663   4.780   6.453
 4837SOL    HW115047   3.606   4.762   6.378
 4837SOL    HW215048   3.602   4.787   6.527
 4838SOL     OW15049   3.113   5.240   7.111
 4838SOL    HW115050   3.077   5.173   7.169
 4838SOL    HW215051   3.041   5.263   7.053
 4839SOL     OW15052   2.181   4.681   5.837
 4839SOL    HW115053   2.264   4.700   5.792
 4839SOL    HW215054   2.151   4.599   5.798
 4840SOL     OW15055   3.341   4.468   6.313
 4840SOL    HW115056   3.334   4.425   6.398
 4840SOL    HW215057   3.419   4.523   6.319
 4841SOL     OW15058   2.325   4.988   7.328
 4841SOL    HW115059   2.299   4.990   7.236
 4841SOL    HW215060   2.243   4.987   7.377
 4842SOL     OW15061   2.930   0.178   5.790
 4842SOL    HW115062   2.941   0.103   5.848
 4842SOL    HW215063   2.956   0.146   5.704
 4843SOL     OW15064   2.063   4.004   7.088
 4843SOL    HW115065   1.981   4.052   7.084
 4843SOL    HW215066   2.044   3.928   7.144
 4844SOL     OW15067   3.484   5.101   5.695
 4844SOL    HW115068   3.485   5.175   5.635
 4844SOL    HW215069   3.416   5.043   5.660
 4845SOL     OW15070   3.263   3.831   6.020
 4845SOL    HW115071   3.254   3.807   5.928
 4845SOL    HW215072   3.358   3.838   6.034
 4846SOL     OW15073   2.256   4.419   6.062
 4846SOL    HW115074   2.275   4.326   6.074
 4846SOL    HW215075   2.162   4.426   6.079
 4847SOL     OW15076   3.395   3.949   7.311
 4847SOL    HW115077   3.405   3.970   7.404
 4847SOL    HW215078   3.327   3.882   7.309
 4848SOL     OW15079   2.498   3.846   5.690
 4848SOL    HW115080   2.566   3.779   5.704
 4848SOL    HW215081   2.448   3.814   5.615
 4849SOL     OW15082   2.627   4.001   7.340
 4849SOL    HW115083   2.704   3.945   7.341
 4849SOL    HW215084   2.584   3.983   7.424
 4850SOL     OW15085   3.202   4.313   7.018
 4850SOL    HW115086   3.233   4.282   7.103
 4850SOL    HW215087   3.238   4.401   7.010
 4851SOL     OW15088   2.675   5.118   6.523
 4851SOL    HW115089   2.756   5.105   6.472
 4851SOL    HW215090   2.607   5.125   6.456
 4852SOL     OW15091   2.790   4.233   6.489
 4852SOL    HW115092   2.766   4.225   6.396
 4852SOL    HW215093   2.821   4.146   6.513
 4853SOL     OW15094   2.411   3.787   6.087
 4853SOL    HW115095   2.331   3.787   6.139
 4853SOL    HW215096   2.404   3.866   6.032
 4854SOL     OW15097   3.290   4.924   5.624
 4854SOL    HW115098   3.320   4.849   5.675
 4854SOL    HW215099   3.202   4.942   5.657
 4855SOL     OW15100   2.154   3.772   5.771
 4855SOL    HW115101   2.213   3.836   5.732
 4855SOL    HW215102   2.212   3.708   5.813
 4856SOL     OW15103   2.801   3.971   6.045
 4856SOL    HW115104   2.775   4.012   5.963
 4856SOL    HW215105   2.896   3.985   6.050
 4857SOL     OW15106   2.942   4.405   7.045
 4857SOL    HW115107   2.874   4.338   7.050
 4857SOL    HW215108   3.024   4.357   7.039
 4858SOL     OW15109   3.126   5.266   6.364
 4858SOL    HW115110   3.082   0.047   6.338
 4858SOL    HW215111   3.171   5.289   6.445
 4859SOL     OW15112   2.328   4.872   6.315
 4859SOL    HW115113   2.260   4.852   6.379
 4859SOL    HW215114   2.287   4.855   6.230
 4860SOL     OW15115   2.885   4.264   5.610
 4860SOL    HW115116   2.842   4.348   5.590
 4860SOL    HW215117   2.950   4.286   5.676
 4861SOL     OW15118   1.942   4.278   6.978
 4861SOL    HW115119   2.034   4.277   6.951
 4861SOL    HW215120   1.937   4.348   7.043
 4862SOL     OW15121   2.421   3.951   6.753
 4862SOL    HW115122   2.463   3.875   6.792
 4862SOL    HW215123   2.330   3.947   6.782
 4863SOL     OW15124   2.729   4.183   6.226
 4863SOL    HW115125   2.684   4.238   6.161
 4863SOL    HW215126   2.751   4.103   6.178
 4864SOL     OW15127   2.879   3.778   6.336
 4864SOL    HW115128   2.820   3.771   6.261
 4864SOL    HW215129   2.856   3.703   6.391
 4865SOL     OW15130   3.300   4.890   6.445
 4865SOL    HW115131   3.233   4.822   6.441
 4865SOL    HW215132   3.326   4.903   6.354
 4866SOL     OW15133   3.328   4.330   6.561
 4866SOL    HW115134   3.276   4.250   6.565
 4866SOL    HW215135   3.387   4.323   6.636
 4867SOL     OW15136   3.707   4.539   5.969
 4867SOL    HW115137   3.763   4.488   6.027
 4867SOL    HW215138   3.679   4.476   5.902
 4868SOL     OW15139   2.341   5.149   5.737
 4868SOL    HW115140   2.281   5.096   5.790
 4868SOL    HW215141   2.347   5.101   5.654
 4869SOL     OW15142   3.532   4.986   6.232
 4869SOL    HW115143   3.626   4.993   6.249
 4869SOL    HW215144   3.498   5.075   6.248
 4870SOL     OW15145   3.256   4.296   5.657
 4870SOL    HW115146   3.195   4.276   5.728
 4870SOL    HW215147   3.341   4.264   5.689
 4871SOL     OW15148   2.387   3.987   5.903
 4871SOL    HW115149   2.433   3.940   5.833
 4871SOL    HW215150   2.364   4.071   5.864
 4872SOL     OW15151   3.612   4.959   7.159
 4872SOL    HW115152   3.698   4.917   7.159
 4872SOL    HW215153   3.631   5.052   7.171
 4873SOL     OW15154   2.926   5.073   6.916
 4873SOL    HW115155   2.848   5.048   6.964
 4873SOL    HW215156   2.999   5.035   6.965
 4874SOL     OW15157   2.989   4.925   6.693
 4874SOL    HW115158   2.940   4.967   6.764
 4874SOL    HW215159   2.943   4.951   6.613
 4875SOL     OW15160   3.490   4.822   6.662
 4875SOL    HW115161   3.485   4.883   6.735
 4875SOL    HW215162   3.412   4.841   6.610
 4876SOL     OW15163   2.780   3.821   6.981
 4876SOL    HW115164   2.803   3.802   6.890
 4876SOL    HW215165   2.859   3.860   7.018
 4877SOL     OW15166   2.847   4.838   7.313
 4877SOL    HW115167   2.754   4.855   7.330
 4877SOL    HW215168   2.847   4.762   7.255
 4878SOL     OW15169   2.567   4.783   5.957
 4878SOL    HW115170   2.554   4.767   6.051
 4878SOL    HW215171   2.644   4.732   5.934
 4879SOL     OW15172   2.281   4.539   6.837
 4879SOL    HW115173   2.350   4.549   6.904
 4879SOL    HW215174   2.246   4.451   6.851
 4880SOL     OW15175   3.127   4.101   6.862
 4880SOL    HW115176   3.160   4.178   6.908
 4880SOL    HW215177   3.036   4.123   6.840
 4881SOL     OW15178   2.207   4.834   6.074
 4881SOL    HW115179   2.209   4.907   6.012
 4881SOL    HW215180   2.206   4.755   6.019
 4882SOL     OW15181   2.413   4.260   6.446
 4882SOL    HW115182   2.429   4.318   6.371
 4882SOL    HW215183   2.479   4.286   6.510
 4883SOL     OW15184   3.122   5.078   5.971
 4883SOL    HW115185   3.179   5.145   6.010
 4883SOL    HW215186   3.034   5.101   6.001
 4884SOL     OW15187   3.133   5.182   6.728
 4884SOL    HW115188   3.192   5.197   6.801
 4884SOL    HW215189   3.088   5.100   6.748
 4885SOL     OW15190   3.443   4.346   6.066
 4885SOL    HW115191   3.395   4.398   6.130
 4885SOL    HW215192   3.488   4.410   6.011
 4886SOL     OW15193   2.211   5.236   6.899
 4886SOL    HW115194   2.199   5.200   6.811
 4886SOL    HW215195   2.304   5.256   6.905
 4887SOL     OW15196   2.277   4.469   7.188
 4887SOL    HW115197   2.339   4.513   7.131
 4887SOL    HW215198   2.315   4.383   7.203
 4888SOL     OW15199   3.465   4.503   7.269
 4888SOL    HW115200   3.378   4.545   7.262
 4888SOL    HW215201   3.517   4.545   7.201
 4889SOL     OW15202   2.858   3.850   7.340
 4889SOL    HW115203   2.916   3.921   7.313
 4889SOL    HW215204   2.905   3.770   7.316
 4890SOL     OW15205   2.360   3.764   7.334
 4890SOL    HW115206   2.316   3.709   7.268
 4890SOL    HW215207   2.302   3.838   7.346
 4891SOL     OW15208   2.446   4.596   6.617
 4891SOL    HW115209   2.476   4.687   6.616
 4891SOL    HW215210   2.389   4.591   6.694
 4892SOL     OW15211   3.218   4.582   6.613
 4892SOL    HW115212   3.134   4.571   6.568
 4892SOL    HW215213   3.260   4.496   6.607
 4893SOL     OW15214   3.066   4.252   5.852
 4893SOL    HW115215   3.074   4.174   5.907
 4893SOL    HW215216   3.023   4.316   5.908
 4894SOL     OW15217   2.160   3.922   6.833
 4894SOL    HW115218   2.123   3.954   6.915
 4894SOL    HW215219   2.142   3.828   6.833
 4895SOL     OW15220   1.916   5.047   6.871
 4895SOL    HW115221   1.939   4.982   6.937
 4895SOL    HW215222   1.951   5.129   6.905
 4896SOL     OW15223   2.585   4.354   6.643
 4896SOL    HW115224   2.661   4.339   6.586
 4896SOL    HW215225   2.557   4.443   6.622
 4897SOL     OW15226   3.598   4.684   7.439
 4897SOL    HW115227   3.551   4.621   7.384
 4897SOL    HW215228   3.540   4.699   7.513
 4898SOL     OW15229   2.166   3.788   6.210
 4898SOL    HW115230   2.146   3.879   6.232
 4898SOL    HW215231   2.174   3.743   6.294
 4899SOL     OW15232   3.479   4.099   5.952
 4899SOL    HW115233   3.507   4.035   6.017
 4899SOL    HW215234   3.457   4.177   6.002
 4900SOL     OW15235   2.890   4.483   6.546
 4900SOL    HW115236   2.885   4.500   6.640
 4900SOL    HW215237   2.864   4.391   6.538
 4901SOL     OW15238   3.715   5.213   7.168
 4901SOL    HW115239   3.707   5.290   7.112
 4901SOL    HW215240   3.786   5.234   7.229
 4902SOL     OW15241   2.215   4.639   7.395
 4902SOL    HW115242   2.298   4.659   7.440
 4902SOL    HW215243   2.239   4.577   7.327
 4903SOL     OW15244   3.391   3.997   5.713
 4903SOL    HW115245   3.325   3.932   5.740
 4903SOL    HW215246   3.424   4.033   5.795
 4904SOL     OW15247   3.153   4.550   5.616
 4904SOL    HW115248   3.196   4.464   5.620
 4904SOL    HW215249   3.184   4.589   5.535
 4905SOL     OW15250   2.919   5.081   6.409
 4905SOL    HW115251   2.925   4.995   6.367
 4905SOL    HW215252   3.006   5.119   6.398
 4906SOL     OW15253   2.170   4.532   6.533
 4906SOL    HW115254   2.264   4.553   6.526
 4906SOL    HW215255   2.168   4.442   6.565
 4907SOL     OW15256   2.192   4.251   6.598
 4907SOL    HW115257   2.157   4.163   6.584
 4907SOL    HW215258   2.269   4.256   6.541
 4908SOL     OW15259   2.997   4.099   7.267
 4908SOL    HW115260   2.949   4.154   7.330
 4908SOL    HW215261   3.084   4.138   7.264
 4909SOL     OW15262   3.023   3.926   7.055
 4909SOL    HW115263   3.012   3.988   7.127
 4909SOL    HW215264   3.063   3.977   6.985
 4910SOL     OW15265   1.868   5.039   5.776
 4910SOL    HW115266   1.778   5.057   5.751
 4910SOL    HW215267   1.866   4.951   5.814
 4911SOL     OW15268   2.842   4.515   6.812
 4911SOL    HW115269   2.900   4.493   6.885
 4911SOL    HW215270   2.758   4.476   6.835
 4912SOL     OW15271   1.898   4.270   6.702
 4912SOL    HW115272   1.978   4.256   6.652
 4912SOL    HW215273   1.926   4.272   6.794
 4913SOL     OW15274   2.055   4.244   7.314
 4913SOL    HW115275   2.108   4.202   7.247
 4913SOL    HW215276   2.013   4.318   7.270
 4914SOL     OW15277   3.239   4.662   7.244
 4914SOL    HW115278   3.260   4.755   7.241
 4914SOL    HW215279   3.235   4.635   7.153
 4915SOL     OW15280   2.678   4.293   5.948
 4915SOL    HW115281   2.682   4.219   5.887
 4915SOL    HW215282   2.604   4.346   5.916
 4916SOL     OW15283   3.504   4.325   6.771
 4916SOL    HW115284   3.493   4.266   6.846
 4916SOL    HW215285   3.591   4.306   6.737
 4917SOL     OW15286   2.067   5.275   7.330
 4917SOL    HW115287   2.033   0.023   7.405
 4917SOL    HW215288   2.081   5.186   7.363
 4918SOL     OW15289   2.565   4.173   6.844
 4918SOL    HW115290   2.512   4.100   6.815
 4918SOL    HW215291   2.561   4.236   6.772
 4919SOL     OW15292   2.325   4.216   5.772
 4919SOL    HW115293   2.384   4.289   5.794
 4919SOL    HW215294   2.240   4.258   5.759
 4920SOL     OW15295   2.006   4.863   7.057
 4920SOL    HW115296   2.008   4.812   7.138
 4920SOL    HW215297   2.024   4.798   6.988
 4921SOL     OW15298   3.188   4.768   6.808
 4921SOL    HW115299   3.210   4.706   6.739
 4921SOL    HW215300   3.118   4.821   6.770
 4922SOL     OW15301   3.174   4.582   5.892
 4922SOL    HW115302   3.099   4.550   5.942
 4922SOL    HW215303   3.149   4.567   5.800
 4923SOL     OW15304   1.957   4.987   6.608
 4923SOL    HW115305   1.935   5.005   6.699
 4923SOL    HW215306   1.877   4.948   6.571
 4924SOL     OW15307   2.615   0.035   7.297
 4924SOL    HW115308   2.523   0.058   7.307
 4924SOL    HW215309   2.636   0.062   7.208
 4925SOL     OW15310   3.581   3.872   6.094
 4925SOL    HW115311   3.654   3.857   6.034
 4925SOL    HW215312   3.566   3.786   6.135
 4926SOL     OW15313   3.139   4.650   6.258
 4926SOL    HW115314   3.212   4.589   6.266
 4926SOL    HW215315   3.174   4.722   6.204
 4927SOL     OW15316   2.679   4.993   7.004
 4927SOL    HW115317   2.648   5.028   7.087
 4927SOL    HW215318   2.605   5.002   6.945
 4928SOL     OW15319   3.703   3.896   6.553
 4928SOL    HW115320   3.732   3.809   6.526
 4928SOL    HW215321   3.617   3.906   6.513
 4929SOL     OW15322   2.123   4.039   6.303
 4929SOL    HW115323   2.037   4.075   6.279
 4929SOL    HW215324   2.121   4.032   6.398
 4930SOL     OW15325   2.687   4.727   6.957
 4930SOL    HW115326   2.734   4.719   6.874
 4930SOL    HW215327   2.690   4.820   6.977
 4931SOL     OW15328   2.778   4.636   5.877
 4931SOL    HW115329   2.839   4.668   5.810
 4931SOL    HW215330   2.826   4.566   5.921
 4932SOL     OW15331   2.226   5.027   7.084
 4932SOL    HW115332   2.216   5.100   7.023
 4932SOL    HW215333   2.151   4.970   7.066
 4933SOL     OW15334   3.474   5.004   6.868
 4933SOL    HW115335   3.531   4.996   6.945
 4933SOL    HW215336   3.412   5.073   6.891
 4934SOL     OW15337   2.918   4.834   6.298
 4934SOL    HW115338   2.845   4.783   6.334
 4934SOL    HW215339   2.980   4.769   6.267
 4935SOL     OW15340   2.883   3.964   6.552
 4935SOL    HW115341   2.880   3.917   6.469
 4935SOL    HW215342   2.878   3.896   6.619
 4936SOL     OW15343   3.585   4.116   6.967
 4936SOL    HW115344   3.657   4.179   6.966
 4936SOL    HW215345   3.615   4.045   6.910
 4937SOL     OW15346   2.120   5.051   5.869
 4937SOL    HW115347   2.029   5.052   5.842
 4937SOL    HW215348   2.121   5.095   5.954
 4938SOL     OW15349   1.975   4.749   7.306
 4938SOL    HW115350   1.898   4.724   7.358
 4938SOL    HW215351   2.049   4.709   7.352
 4939SOL     OW15352   2.536   3.921   7.085
 4939SOL    HW115353   2.620   3.900   7.045
 4939SOL    HW215354   2.559   3.951   7.173
 4940SOL     OW15355   1.941   4.056   5.620
 4940SOL    HW115356   1.854   4.037   5.587
 4940SOL    HW215357   1.971   4.132   5.569
 4941SOL     OW15358   3.291   4.582   6.986
 4941SOL    HW115359   3.242   4.643   6.930
 4941SOL    HW215360   3.380   4.584   6.951
 4942SOL     OW15361   1.929   3.880   5.895
 4942SOL    HW115362   1.916   3.960   5.844
 4942SOL    HW215363   2.014   3.847   5.865
 4943SOL     OW15364   3.044   5.062   5.707
 4943SOL    HW115365   2.953   5.034   5.708
 4943SOL    HW215366   3.072   5.055   5.798
 4944SOL     OW15367   2.481   4.555   7.020
 4944SOL    HW115368   2.538   4.630   7.004
 4944SOL    HW215369   2.541   4.480   7.028
 4945SOL     OW15370   2.580   4.286   7.290
 4945SOL    HW115371   2.621   4.348   7.351
 4945SOL    HW215372   2.605   4.200   7.322
 4946SOL     OW15373   3.336   4.921   7.217
 4946SOL    HW115374   3.323   4.935   7.311
 4946SOL    HW215375   3.430   4.936   7.204
 4947SOL     OW15376   3.531   4.605   6.841
 4947SOL    HW115377   3.525   4.520   6.798
 4947SOL    HW215378   3.520   4.668   6.770
 4948SOL     OW15379   3.078   4.043   6.044
 4948SOL    HW115380   3.141   3.971   6.036
 4948SOL    HW215381   3.107   4.092   6.120
 4949SOL     OW15382   2.451   4.461   6.256
 4949SOL    HW115383   2.490   4.547   6.242
 4949SOL    HW215384   2.384   4.453   6.189
 4950SOL     OW15385   3.622   4.087   7.238
 4950SOL    HW115386   3.607   4.102   7.145
 4950SOL    HW215387   3.551   4.030   7.265
 4951SOL     OW15388   3.608   4.657   7.098
 4951SOL    HW115389   3.601   4.752   7.111
 4951SOL    HW215390   3.592   4.645   7.004
 4952SOL     OW15391   2.711   5.094   5.606
 4952SOL    HW115392   2.693   5.094   5.700
 4952SOL    HW215393   2.724   5.186   5.584
 4953SOL     OW15394   2.730   4.692   6.441
 4953SOL    HW115395   2.780   4.620   6.480
 4953SOL    HW215396   2.695   4.741   6.515
 4954SOL     OW15397   2.942   4.713   5.676
 4954SOL    HW115398   2.919   4.763   5.597
 4954SOL    HW215399   3.016   4.659   5.649
 4955SOL     OW15400   2.083   5.022   7.441
 4955SOL    HW115401   2.019   4.958   7.410
 4955SOL    HW215402   2.061   5.035   7.533
 4956SOL     OW15403   1.949   4.955   6.256
 4956SOL    HW115404   1.948   4.903   6.336
 4956SOL    HW215405   2.012   4.911   6.200
 4957SOL     OW15406   2.533   5.104   7.195
 4957SOL    HW115407   2.456   5.073   7.242
 4957SOL    HW215408   2.566   5.178   7.246
 4958SOL     OW15409   3.675   3.908   6.824
 4958SOL    HW115410   3.684   3.814   6.838
 4958SOL    HW215411   3.684   3.919   6.729
 4959SOL     OW15412   2.291   4.158   6.112
 4959SOL    HW115413   2.321   4.087   6.055
 4959SOL    HW215414   2.243   4.114   6.182
 4960SOL     OW15415   3.569   5.224   6.705
 4960SOL    HW115416   3.495   5.208   6.646
 4960SOL    HW215417   3.575   5.145   6.758
 4961SOL     OW15418   2.193   4.280   6.878
 4961SOL    HW115419   2.248   4.224   6.933
 4961SOL    HW215420   2.212   4.251   6.789
 4962SOL     OW15421   3.294   3.950   6.704
 4962SOL    HW115422   3.316   3.869   6.749
 4962SOL    HW215423   3.242   3.999   6.767
 4963SOL     OW15424   2.871   3.743   6.727
 4963SOL    HW115425   2.816   3.674   6.689
 4963SOL    HW215426   2.959   3.704   6.729
 4964SOL     OW15427   2.666   5.047   5.870
 4964SOL    HW115428   2.607   4.974   5.890
 4964SOL    HW215429   2.721   5.055   5.948
 4965SOL     OW15430   2.484   5.299   6.879
 4965SOL    HW115431   2.491   0.054   6.957
 4965SOL    HW215432   2.575   5.279   6.856
 4966SOL     OW15433   3.215   3.778   5.752
 4966SOL    HW115434   3.244   3.712   5.688
 4966SOL    HW215435   3.127   3.749   5.778
 4967SOL     OW15436   3.158   4.185   6.266
 4967SOL    HW115437   3.105   4.265   6.273
 4967SOL    HW215438   3.154   4.146   6.354
 4968SOL     OW15439   3.448   3.925   6.465
 4968SOL    HW115440   3.389   3.946   6.537
 4968SOL    HW215441   3.448   4.002   6.409
 4969SOL     OW15442   1.904   4.793   5.894
 4969SOL    HW115443   1.998   4.787   5.877
 4969SOL    HW215444   1.878   4.704   5.916
 4970SOL     OW15445   2.090   4.344   7.572
 4970SOL    HW115446   2.000   4.350   7.604
 4970SOL    HW215447   2.082   4.321   7.480
 4971SOL     OW15448   3.630   4.321   7.679
 4971SOL    HW115449   3.609   4.317   7.585
 4971SOL    HW215450   3.589   4.243   7.716
 4972SOL     OW15451   2.139   0.125   7.958
 4972SOL    HW115452   2.116   0.211   7.993
 4972SOL    HW215453   2.145   0.138   7.863
 4973SOL     OW15454   2.079   5.157   7.991
 4973SOL    HW115455   2.093   5.251   7.997
 4973SOL    HW215456   2.021   5.136   8.065
 4974SOL     OW15457   2.446   4.706   7.580
 4974SOL    HW115458   2.492   4.754   7.511
 4974SOL    HW215459   2.485   4.737   7.662
 4975SOL     OW15460   1.862   0.009   7.536
 4975SOL    HW115461   1.865   5.221   7.573
 4975SOL    HW215462   1.861   0.067   7.613
 4976SOL     OW15463   3.544   4.588   8.032
 4976SOL    HW115464   3.623   4.600   0.006
 4976SOL    HW215465   3.532   4.673   7.990
 4977SOL     OW15466   3.519   4.824   7.877
 4977SOL    HW115467   3.607   4.844   7.846
 4977SOL    HW215468   3.498   4.896   7.936
 4978SOL     OW15469   2.665   3.719   7.940
 4978SOL    HW115470   2.713   3.800   7.922
 4978SOL    HW215471   2.573   3.747   7.947
 4979SOL     OW15472   3.394   4.722   7.649
 4979SOL    HW115473   3.328   4.662   7.683
 4979SOL    HW215474   3.439   4.755   7.727
 4980SOL     OW15475   2.453   4.448   7.709
 4980SOL    HW115476   2.455   4.530   7.660
 4980SOL    HW215477   2.393   4.465   7.781
 4981SOL     OW15478   1.921   4.587   0.087
 4981SOL    HW115479   1.985   4.521   0.114
 4981SOL    HW215480   1.920   4.650   0.159
 4982SOL     OW15481   2.747   4.072   7.638
 4982SOL    HW115482   2.789   4.132   7.577
 4982SOL    HW215483   2.778   3.985   7.613
 4983SOL     OW15484   2.184   4.680   7.697
 4983SOL    HW115485   2.264   4.697   7.648
 4983SOL    HW215486   2.147   4.601   7.657
 4984SOL     OW15487   2.952   0.188   7.644
 4984SOL    HW115488   2.922   0.123   7.707
 4984SOL    HW215489   2.946   0.143   7.559
 4985SOL     OW15490   3.489   5.100   7.551
 4985SOL    HW115491   3.475   5.179   7.500
 4985SOL    HW215492   3.419   5.041   7.523
 4986SOL     OW15493   3.279   3.857   7.863
 4986SOL    HW115494   3.267   3.822   7.775
 4986SOL    HW215495   3.373   3.855   7.877
 4987SOL     OW15496   2.254   4.423   7.917
 4987SOL    HW115497   2.255   4.327   7.927
 4987SOL    HW215498   2.163   4.447   7.934
 4988SOL     OW15499   2.493   3.843   7.558
 4988SOL    HW115500   2.565   3.781   7.570
 4988SOL    HW215501   2.447   3.813   7.480
 4989SOL     OW15502   2.395   3.799   7.959
 4989SOL    HW115503   2.309   3.802   8.001
 4989SOL    HW215504   2.393   3.870   7.895
 4990SOL     OW15505   3.290   4.925   7.487
 4990SOL    HW115506   3.319   4.850   7.539
 4990SOL    HW215507   3.202   4.944   7.520
 4991SOL     OW15508   2.154   3.773   7.633
 4991SOL    HW115509   2.213   3.833   7.587
 4991SOL    HW215510   2.212   3.709   7.672
 4992SOL     OW15511   2.806   3.950   7.909
 4992SOL    HW115512   2.763   4.015   7.852
 4992SOL    HW215513   2.897   3.980   7.914
 4993SOL     OW15514   2.301   4.873   0.099
 4993SOL    HW115515   2.227   4.913   0.145
 4993SOL    HW215516   2.270   4.861   0.009
 4994SOL     OW15517   2.887   4.265   7.468
 4994SOL    HW115518   2.841   4.347   7.451
 4994SOL    HW215519   2.947   4.284   7.540
 4995SOL     OW15520   3.735   4.539   7.801
 4995SOL    HW115521   3.724   4.515   7.893
 4995SOL    HW215522   3.695   4.467   7.753
 4996SOL     OW15523   2.332   5.152   7.599
 4996SOL    HW115524   2.277   5.099   7.655
 4996SOL    HW215525   2.343   5.100   7.520
 4997SOL     OW15526   3.256   4.296   7.519
 4997SOL    HW115527   3.194   4.275   7.590
 4997SOL    HW215528   3.340   4.262   7.550
 4998SOL     OW15529   2.387   3.990   7.769
 4998SOL    HW115530   2.432   3.940   7.701
 4998SOL    HW215531   2.364   4.073   7.728
 4999SOL     OW15532   2.571   4.785   7.812
 4999SOL    HW115533   2.546   4.770   7.903
 4999SOL    HW215534   2.651   4.733   7.800
 5000SOL     OW15535   2.226   4.828   7.926
 5000SOL    HW115536   2.203   4.907   7.877
 5000SOL    HW215537   2.214   4.756   7.863
 5001SOL     OW15538   3.087   5.115   7.832
 5001SOL    HW115539   3.173   5.124   7.872
 5001SOL    HW215540   3.037   5.061   7.894
 5002SOL     OW15541   3.450   4.350   7.921
 5002SOL    HW115542   3.438   4.409   7.995
 5002SOL    HW215543   3.488   4.405   7.852
 5003SOL     OW15544   3.065   4.250   7.714
 5003SOL    HW115545   3.067   4.167   7.761
 5003SOL    HW215546   3.039   4.314   7.780
 5004SOL     OW15547   3.482   4.104   7.813
 5004SOL    HW115548   3.503   4.037   7.878
 5004SOL    HW215549   3.457   4.180   7.864
 5005SOL     OW15550   3.391   3.999   7.575
 5005SOL    HW115551   3.326   3.934   7.600
 5005SOL    HW215552   3.423   4.034   7.658
 5006SOL     OW15553   3.156   4.551   7.481
 5006SOL    HW115554   3.197   4.465   7.482
 5006SOL    HW215555   3.185   4.590   7.399
 5007SOL     OW15556   1.871   5.044   7.640
 5007SOL    HW115557   1.780   5.058   7.612
 5007SOL    HW215558   1.872   4.955   7.675
 5008SOL     OW15559   2.704   4.328   7.759
 5008SOL    HW115560   2.697   4.236   7.733
 5008SOL    HW215561   2.613   4.360   7.759
 5009SOL     OW15562   2.322   4.217   7.642
 5009SOL    HW115563   2.382   4.291   7.656
 5009SOL    HW215564   2.238   4.258   7.623
 5010SOL     OW15565   3.172   4.579   7.754
 5010SOL    HW115566   3.085   4.582   7.793
 5010SOL    HW215567   3.156   4.566   7.660
 5011SOL     OW15568   3.574   3.872   7.946
 5011SOL    HW115569   3.651   3.865   7.889
 5011SOL    HW215570   3.577   3.794   8.001
 5012SOL     OW15571   2.791   4.632   7.759
 5012SOL    HW115572   2.842   4.658   7.682
 5012SOL    HW215573   2.781   4.537   7.751
 5013SOL     OW15574   2.121   5.056   7.748
 5013SOL    HW115575   2.029   5.059   7.718
 5013SOL    HW215576   2.119   5.096   7.835
 5014SOL     OW15577   1.940   4.056   7.483
 5014SOL    HW115578   1.854   4.037   7.446
 5014SOL    HW215579   1.971   4.132   7.433
 5015SOL     OW15580   1.931   3.881   7.757
 5015SOL    HW115581   1.915   3.957   7.700
 5015SOL    HW215582   2.014   3.845   7.726
 5016SOL     OW15583   3.043   5.057   7.565
 5016SOL    HW115584   2.950   5.032   7.563
 5016SOL    HW215585   3.060   5.074   7.657
 5017SOL     OW15586   3.076   4.042   7.904
 5017SOL    HW115587   3.150   3.982   7.892
 5017SOL    HW215588   3.097   4.089   7.984
 5018SOL     OW15589   2.490   4.459   8.054
 5018SOL    HW115590   2.493   4.541   0.024
 5018SOL    HW215591   2.402   4.459   8.015
 5019SOL     OW15592   2.713   5.093   7.466
 5019SOL    HW115593   2.696   5.093   7.561
 5019SOL    HW215594   2.722   5.186   7.444
 5020SOL     OW15595   2.935   4.703   7.539
 5020SOL    HW115596   2.915   4.759   7.464
 5020SOL    HW215597   3.012   4.654   7.512
 5021SOL     OW15598   2.249   4.152   7.984
 5021SOL    HW115599   2.299   4.100   7.921
 5021SOL    HW215600   2.300   4.148   8.064
 5022SOL     OW15601   2.668   5.049   7.730
 5022SOL    HW115602   2.616   4.971   7.750
 5022SOL    HW215603   2.683   5.090   7.816
 5023SOL     OW15604   3.215   3.776   7.610
 5023SOL    HW115605   3.245   3.708   7.549
 5023SOL    HW215606   3.128   3.747   7.638
 5024SOL     OW15607   1.913   4.800   7.750
 5024SOL    HW115608   2.008   4.793   7.738
 5024SOL    HW215609   1.883   4.711   7.765
 5025SOL     OW15610   3.939   0.623   0.121
 5025SOL    HW115611   3.860   0.588   0.163
 5025SOL    HW215612   3.965   0.556   0.058
 5026SOL     OW15613   3.941   0.286   0.994
 5026SOL    HW115614   3.970   0.249   1.077
 5026SOL    HW215615   3.857   0.243   0.977
 5027SOL     OW15616   3.727   0.387   0.637
 5027SOL    HW115617   3.643   0.409   0.678
 5027SOL    HW215618   3.709   0.309   0.585
 5028SOL     OW15619   4.291   1.290   1.177
 5028SOL    HW115620   4.204   1.293   1.138
 5028SOL    HW215621   4.307   1.378   1.209
 5029SOL     OW15622   5.284   1.549   0.707
 5029SOL    HW115623   5.249   1.496   0.778
 5029SOL    HW215624   5.226   1.533   0.633
 5030SOL     OW15625   4.860   0.699   0.700
 5030SOL    HW115626   4.910   0.780   0.690
 5030SOL    HW215627   4.810   0.711   0.781
 5031SOL     OW15628   4.478   1.142   1.042
 5031SOL    HW115629   4.409   1.177   1.099
 5031SOL    HW215630   4.513   1.218   0.997
 5032SOL     OW15631   4.594   0.775   1.824
 5032SOL    HW115632   4.576   0.847   1.884
 5032SOL    HW215633   4.616   0.818   1.741
 5033SOL     OW15634   4.408   1.000   0.649
 5033SOL    HW115635   4.474   0.990   0.718
 5033SOL    HW215636   4.340   1.054   0.690
 5034SOL     OW15637   4.436   1.151   1.814
 5034SOL    HW115638   4.483   1.229   1.842
 5034SOL    HW215639   4.354   1.184   1.777
 5035SOL     OW15640   4.054   1.424   1.068
 5035SOL    HW115641   3.982   1.386   1.018
 5035SOL    HW215642   4.104   1.475   1.003
 5036SOL     OW15643   5.161   1.480   1.354
 5036SOL    HW115644   5.208   1.559   1.378
 5036SOL    HW215645   5.101   1.463   1.427
 5037SOL     OW15646   4.169   0.398   1.484
 5037SOL    HW115647   4.244   0.339   1.484
 5037SOL    HW215648   4.094   0.341   1.501
 5038SOL     OW15649   3.944   1.715   0.470
 5038SOL    HW115650   3.965   1.790   0.525
 5038SOL    HW215651   4.020   1.706   0.412
 5039SOL     OW15652   4.859   1.340   1.694
 5039SOL    HW115653   4.898   1.336   1.782
 5039SOL    HW215654   4.807   1.260   1.687
 5040SOL     OW15655   3.950   1.441   0.528
 5040SOL    HW115656   3.937   1.535   0.532
 5040SOL    HW215657   3.893   1.405   0.596
 5041SOL     OW15658   3.983   1.090   0.891
 5041SOL    HW115659   3.980   1.003   0.932
 5041SOL    HW215660   3.925   1.144   0.945
 5042SOL     OW15661   4.331   1.793   1.426
 5042SOL    HW115662   4.251   1.775   1.474
 5042SOL    HW215663   4.356   1.881   1.453
 5043SOL     OW15664   4.351   0.959   0.136
 5043SOL    HW115665   4.299   1.035   0.110
 5043SOL    HW215666   4.403   0.990   0.210
 5044SOL     OW15667   5.251   0.143   1.480
 5044SOL    HW115668   5.300   0.223   1.462
 5044SOL    HW215669   5.273   0.121   1.570
 5045SOL     OW15670   3.839   0.652   0.562
 5045SOL    HW115671   3.810   0.563   0.583
 5045SOL    HW215672   3.831   0.700   0.645
 5046SOL     OW15673   3.755   1.595   0.110
 5046SOL    HW115674   3.741   1.507   0.145
 5046SOL    HW215675   3.738   1.653   0.184
 5047SOL     OW15676   0.115   0.947   0.595
 5047SOL    HW115677   0.202   0.908   0.590
 5047SOL    HW215678   0.114   1.014   0.527
 5048SOL     OW15679   3.847   0.744   1.584
 5048SOL    HW115680   3.939   0.771   1.591
 5048SOL    HW215681   3.798   0.826   1.592
 5049SOL     OW15682   4.337   1.387   0.735
 5049SOL    HW115683   4.292   1.304   0.744
 5049SOL    HW215684   4.322   1.413   0.644
 5050SOL     OW15685   5.005   1.236   1.425
 5050SOL    HW115686   5.038   1.169   1.364
 5050SOL    HW215687   5.061   1.228   1.502
 5051SOL     OW15688   4.536   0.029   0.529
 5051SOL    HW115689   4.566   0.115   0.499
 5051SOL    HW215690   4.441   0.033   0.523
 5052SOL     OW15691   3.914   0.966   1.272
 5052SOL    HW115692   3.999   0.924   1.258
 5052SOL    HW215693   3.852   0.911   1.223
 5053SOL     OW15694   4.896   1.808   1.624
 5053SOL    HW115695   4.916   1.868   1.552
 5053SOL    HW215696   4.919   1.721   1.591
 5054SOL     OW15697   4.051   0.268   1.812
 5054SOL    HW115698   4.103   0.341   1.843
 5054SOL    HW215699   3.965   0.281   1.852
 5055SOL     OW15700   5.168   1.435   0.934
 5055SOL    HW115701   5.106   1.442   1.007
 5055SOL    HW215702   5.162   1.344   0.906
 5056SOL     OW15703   4.322   0.714   0.283
 5056SOL    HW115704   4.339   0.793   0.232
 5056SOL    HW215705   4.257   0.740   0.347
 5057SOL     OW15706   4.995   0.329   0.919
 5057SOL    HW115707   4.905   0.305   0.942
 5057SOL    HW215708   5.048   0.300   0.994
 5058SOL     OW15709   4.517   0.619   1.449
 5058SOL    HW115710   4.490   0.596   1.538
 5058SOL    HW215711   4.476   0.552   1.394
 5059SOL     OW15712   5.116   0.488   1.680
 5059SOL    HW115713   5.119   0.522   1.770
 5059SOL    HW215714   5.182   0.419   1.678
 5060SOL     OW15715   4.678   0.888   1.583
 5060SOL    HW115716   4.730   0.816   1.547
 5060SOL    HW215717   4.629   0.922   1.508
 5061SOL     OW15718   4.718   0.423   1.230
 5061SOL    HW115719   4.632   0.436   1.270
 5061SOL    HW215720   4.700   0.368   1.154
 5062SOL     OW15721   4.778   0.698   0.427
 5062SOL    HW115722   4.794   0.692   0.521
 5062SOL    HW215723   4.694   0.653   0.414
 5063SOL     OW15724   3.813   0.822   0.776
 5063SOL    HW115725   3.893   0.814   0.828
 5063SOL    HW215726   3.769   0.899   0.812
 5064SOL     OW15727   3.850   1.852   1.579
 5064SOL    HW115728   3.851   1.831   1.672
 5064SOL    HW215729   3.759   1.838   1.552
 5065SOL     OW15730   4.607   0.360   0.200
 5065SOL    HW115731   4.654   0.402   0.127
 5065SOL    HW215732   4.589   0.272   0.169
 5066SOL     OW15733   5.096   1.149   0.550
 5066SOL    HW115734   5.179   1.143   0.502
 5066SOL    HW215735   5.042   1.206   0.496
 5067SOL     OW15736   4.246   0.202   0.882
 5067SOL    HW115737   4.270   0.217   0.974
 5067SOL    HW215738   4.271   0.283   0.837
 5068SOL     OW15739   4.728   1.444   0.473
 5068SOL    HW115740   4.690   1.516   0.423
 5068SOL    HW215741   4.708   1.464   0.564
 5069SOL     OW15742   4.079   1.810   0.864
 5069SOL    HW115743   4.122   1.725   0.871
 5069SOL    HW215744   4.147   1.874   0.882
 5070SOL     OW15745   4.939   1.541   1.519
 5070SOL    HW115746   4.927   1.468   1.580
 5070SOL    HW215747   4.880   1.522   1.446
 5071SOL     OW15748   4.048   0.943   0.257
 5071SOL    HW115749   4.115   0.985   0.204
 5071SOL    HW215750   4.050   0.851   0.230
 5072SOL     OW15751   4.191   1.265   1.738
 5072SOL    HW115752   4.164   1.270   1.646
 5072SOL    HW215753   4.108   1.263   1.787
 5073SOL     OW15754   4.823   1.774   0.224
 5073SOL    HW115755   4.768   1.734   0.291
 5073SOL    HW215756   4.839   1.703   0.161
 5074SOL     OW15757   3.921   0.277   1.504
 5074SOL    HW115758   3.842   0.331   1.501
 5074SOL    HW215759   3.914   0.228   1.585
 5075SOL     OW15760   4.188   1.737   0.323
 5075SOL    HW115761   4.231   1.796   0.385
 5075SOL    HW215762   4.258   1.710   0.264
 5076SOL     OW15763   5.099   0.115   0.445
 5076SOL    HW115764   5.092   0.073   0.359
 5076SOL    HW215765   5.192   0.129   0.457
 5077SOL     OW15766   3.979   1.791   1.231
 5077SOL    HW115767   4.031   1.725   1.277
 5077SOL    HW215768   3.971   1.757   1.142
 5078SOL     OW15769   4.662   1.698   0.898
 5078SOL    HW115770   4.743   1.649   0.915
 5078SOL    HW215771   4.618   1.649   0.829
 5079SOL     OW15772   4.111   0.698   0.476
 5079SOL    HW115773   4.134   0.606   0.487
 5079SOL    HW215774   4.018   0.702   0.499
 5080SOL     OW15775   4.348   0.138   0.123
 5080SOL    HW115776   4.439   0.110   0.134
 5080SOL    HW215777   4.320   0.099   0.040
 5081SOL     OW15778   4.508   0.310   1.767
 5081SOL    HW115779   4.573   0.240   1.766
 5081SOL    HW215780   4.459   0.296   1.848
 5082SOL     OW15781   4.599   1.522   1.194
 5082SOL    HW115782   4.584   1.486   1.106
 5082SOL    HW215783   4.670   1.468   1.230
 5083SOL     OW15784   5.060   0.592   1.431
 5083SOL    HW115785   5.089   0.562   1.517
 5083SOL    HW215786   5.100   0.679   1.421
 5084SOL     OW15787   4.539   1.394   0.941
 5084SOL    HW115788   4.623   1.382   0.898
 5084SOL    HW215789   4.476   1.397   0.869
 5085SOL     OW15790   4.651   0.511   0.902
 5085SOL    HW115791   4.628   0.501   0.809
 5085SOL    HW215792   4.681   0.424   0.928
 5086SOL     OW15793   4.266   0.061   0.510
 5086SOL    HW115794   4.180   0.058   0.552
 5086SOL    HW215795   4.259   0.130   0.445
 5087SOL     OW15796   5.139   1.172   0.045
 5087SOL    HW115797   5.134   1.099   0.107
 5087SOL    HW215798   5.055   1.217   0.055
 5088SOL     OW15799   4.024   0.071   0.206
 5088SOL    HW115800   4.081   0.142   0.176
 5088SOL    HW215801   4.077   5.291   0.195
 5089SOL     OW15802   4.668   0.259   0.452
 5089SOL    HW115803   4.641   0.304   0.372
 5089SOL    HW215804   4.760   0.283   0.464
 5090SOL     OW15805   4.802   0.681   1.461
 5090SOL    HW115806   4.733   0.615   1.461
 5090SOL    HW215807   4.883   0.632   1.450
 5091SOL     OW15808   4.940   1.572   0.796
 5091SOL    HW115809   4.961   1.638   0.730
 5091SOL    HW215810   5.022   1.556   0.842
 5092SOL     OW15811   4.193   1.151   0.732
 5092SOL    HW115812   4.124   1.131   0.797
 5092SOL    HW215813   4.151   1.135   0.648
 5093SOL     OW15814   4.991   1.794   0.606
 5093SOL    HW115815   5.036   1.857   0.550
 5093SOL    HW215816   4.925   1.846   0.652
 5094SOL     OW15817   4.764   0.530   0.024
 5094SOL    HW115818   4.709   0.606   0.005
 5094SOL    HW215819   4.813   0.555   0.103
 5095SOL     OW15820   3.804   0.553   1.393
 5095SOL    HW115821   3.895   0.553   1.365
 5095SOL    HW215822   3.798   0.624   1.457
 5096SOL     OW15823   4.279   0.238   1.158
 5096SOL    HW115824   4.312   0.153   1.188
 5096SOL    HW215825   4.187   0.239   1.185
 5097SOL     OW15826   4.592   0.461   0.639
 5097SOL    HW115827   4.548   0.514   0.573
 5097SOL    HW215828   4.612   0.379   0.594
 5098SOL     OW15829   4.695   0.064   0.765
 5098SOL    HW115830   4.633   0.055   0.692
 5098SOL    HW215831   4.716   5.274   0.790
 5099SOL     OW15832   5.157   1.176   0.849
 5099SOL    HW115833   5.103   1.098   0.864
 5099SOL    HW215834   5.165   1.181   0.754
 5100SOL     OW15835   4.207   1.440   0.172
 5100SOL    HW115836   4.134   1.399   0.219
 5100SOL    HW215837   4.214   1.390   0.091
 5101SOL     OW15838   5.125   0.574   0.085
 5101SOL    HW115839   5.049   0.556   0.140
 5101SOL    HW215840   5.200   0.550   0.140
 5102SOL     OW15841   4.246   0.269   0.329
 5102SOL    HW115842   4.288   0.214   0.262
 5102SOL    HW215843   4.229   0.352   0.284
 5103SOL     OW15844   4.779   1.355   1.334
 5103SOL    HW115845   4.704   1.323   1.384
 5103SOL    HW215846   4.855   1.312   1.374
 5104SOL     OW15847   0.007   1.605   1.615
 5104SOL    HW115848   0.041   1.609   1.526
 5104SOL    HW215849   0.083   1.584   1.669
 5105SOL     OW15850   4.855   1.205   1.106
 5105SOL    HW115851   4.791   1.239   1.169
 5105SOL    HW215852   4.821   1.234   1.021
 5106SOL     OW15853   4.623   0.105   1.385
 5106SOL    HW115854   4.657   0.070   1.303
 5106SOL    HW215855   4.699   0.149   1.425
 5107SOL     OW15856   4.709   1.113   1.725
 5107SOL    HW115857   4.617   1.130   1.746
 5107SOL    HW215858   4.706   1.036   1.668
 5108SOL     OW15859   4.440   1.064   0.381
 5108SOL    HW115860   4.421   1.045   0.473
 5108SOL    HW215861   4.517   1.011   0.361
 5109SOL     OW15862   4.143   0.816   1.251
 5109SOL    HW115863   4.211   0.825   1.318
 5109SOL    HW215864   4.108   0.728   1.265
 5110SOL     OW15865   4.991   0.380   1.270
 5110SOL    HW115866   5.024   0.459   1.314
 5110SOL    HW215867   4.900   0.402   1.248
 5111SOL     OW15868   3.796   1.573   1.354
 5111SOL    HW115869   3.767   1.646   1.299
 5111SOL    HW215870   3.891   1.575   1.348
 5112SOL     OW15871   4.067   1.111   0.491
 5112SOL    HW115872   4.073   1.183   0.429
 5112SOL    HW215873   4.075   1.032   0.437
 5113SOL     OW15874   4.276   0.537   0.860
 5113SOL    HW115875   4.292   0.595   0.786
 5113SOL    HW215876   4.343   0.562   0.925
 5114SOL     OW15877   4.971   1.347   0.392
 5114SOL    HW115878   5.026   1.420   0.419
 5114SOL    HW215879   4.883   1.370   0.424
 5115SOL     OW15880   4.996   1.457   1.140
 5115SOL    HW115881   5.050   1.458   1.219
 5115SOL    HW215882   4.942   1.378   1.149
 5116SOL     OW15883   4.070   1.528   1.314
 5116SOL    HW115884   4.058   1.485   1.230
 5116SOL    HW215885   4.165   1.540   1.322
 5117SOL     OW15886   4.139   0.744   1.602
 5117SOL    HW115887   4.201   0.789   1.544
 5117SOL    HW215888   4.179   0.659   1.620
 5118SOL     OW15889   4.755   0.120   1.754
 5118SOL    HW115890   4.799   0.202   1.730
 5118SOL    HW215891   4.797   0.053   1.700
 5119SOL     OW15892   4.203   0.058   1.736
 5119SOL    HW115893   4.142   5.294   1.699
 5119SOL    HW215894   4.148   0.133   1.759
 5120SOL     OW15895   4.307   0.873   1.031
 5120SOL    HW115896   4.339   0.964   1.032
 5120SOL    HW215897   4.251   0.867   1.108
 5121SOL     OW15898   5.086   0.856   1.038
 5121SOL    HW115899   5.010   0.837   0.982
 5121SOL    HW215900   5.142   0.779   1.029
 5122SOL     OW15901   4.927   0.531   0.266
 5122SOL    HW115902   4.931   0.448   0.314
 5122SOL    HW215903   4.883   0.591   0.326
 5123SOL     OW15904   4.019   0.203   1.248
 5123SOL    HW115905   3.980   0.242   1.326
 5123SOL    HW215906   4.021   0.109   1.267
 5124SOL     OW15907   3.770   1.311   1.276
 5124SOL    HW115908   3.803   1.256   1.347
 5124SOL    HW215909   3.777   1.400   1.310
 5125SOL     OW15910   4.449   0.632   1.059
 5125SOL    HW115911   4.523   0.615   1.001
 5125SOL    HW215912   4.421   0.720   1.035
 5126SOL     OW15913   4.028   0.070   0.654
 5126SOL    HW115914   4.008   0.163   0.659
 5126SOL    HW215915   4.076   0.052   0.735
 5127SOL     OW15916   0.040   0.410   0.360
 5127SOL    HW115917   0.061   0.349   0.430
 5127SOL    HW215918   0.006   0.488   0.404
 5128SOL     OW15919   4.751   0.759   0.959
 5128SOL    HW115920   4.749   0.776   1.054
 5128SOL    HW215921   4.725   0.667   0.951
 5129SOL     OW15922   4.697   1.561   1.714
 5129SOL    HW115923   4.686   1.609   1.632
 5129SOL    HW215924   4.745   1.482   1.690
 5130SOL     OW15925   4.077   0.917   1.808
 5130SOL    HW115926   4.159   0.935   1.855
 5130SOL    HW215927   4.101   0.853   1.741
 5131SOL     OW15928   5.032   0.831   0.027
 5131SOL    HW115929   5.060   0.741   0.042
 5131SOL    HW215930   5.056   0.849   8.016
 5132SOL     OW15931   4.789   1.335   0.856
 5132SOL    HW115932   4.793   1.263   0.793
 5132SOL    HW215933   4.846   1.402   0.820
 5133SOL     OW15934   4.033   0.808   0.947
 5133SOL    HW115935   4.126   0.830   0.941
 5133SOL    HW215936   4.031   0.718   0.978
 5134SOL     OW15937   4.055   0.527   1.012
 5134SOL    HW115938   4.019   0.440   0.998
 5134SOL    HW215939   4.132   0.531   0.955
 5135SOL     OW15940   4.862   0.377   1.691
 5135SOL    HW115941   4.811   0.431   1.752
 5135SOL    HW215942   4.946   0.422   1.683
 5136SOL     OW15943   4.845   0.234   1.459
 5136SOL    HW115944   4.857   0.284   1.540
 5136SOL    HW215945   4.910   0.271   1.398
 5137SOL     OW15946   3.737   1.323   0.189
 5137SOL    HW115947   3.650   1.337   0.151
 5137SOL    HW215948   3.734   1.233   0.222
 5138SOL     OW15949   3.814   1.786   0.938
 5138SOL    HW115950   3.784   1.707   0.894
 5138SOL    HW215951   3.904   1.799   0.908
 5139SOL     OW15952   4.220   1.574   0.905
 5139SOL    HW115953   4.288   1.636   0.930
 5139SOL    HW215954   4.264   1.511   0.848
 5140SOL     OW15955   4.705   0.793   1.227
 5140SOL    HW115956   4.761   0.769   1.300
 5140SOL    HW215957   4.621   0.751   1.246
 5141SOL     OW15958   3.759   0.545   1.117
 5141SOL    HW115959   3.839   0.530   1.065
 5141SOL    HW215960   3.790   0.548   1.208
 5142SOL     OW15961   3.910   0.523   1.728
 5142SOL    HW115962   3.974   0.486   1.667
 5142SOL    HW215963   3.872   0.598   1.681
 5143SOL     OW15964   5.114   0.937   1.666
 5143SOL    HW115965   5.122   1.031   1.654
 5143SOL    HW215966   5.117   0.900   1.578
 5144SOL     OW15967   4.543   0.571   0.367
 5144SOL    HW115968   4.550   0.499   0.305
 5144SOL    HW215969   4.466   0.620   0.339
 5145SOL     OW15970   3.966   1.551   1.727
 5145SOL    HW115971   3.944   1.615   1.794
 5145SOL    HW215972   3.969   1.467   1.773
 5146SOL     OW15973   4.424   0.451   1.260
 5146SOL    HW115974   4.373   0.378   1.227
 5146SOL    HW215975   4.423   0.515   1.188
 5147SOL     OW15976   4.643   1.680   1.469
 5147SOL    HW115977   4.622   1.646   1.382
 5147SOL    HW215978   4.644   1.775   1.458
 5148SOL     OW15979   4.191   0.493   0.176
 5148SOL    HW115980   4.259   0.557   0.196
 5148SOL    HW215981   4.109   0.539   0.193
 5149SOL     OW15982   3.869   1.141   1.472
 5149SOL    HW115983   3.871   1.090   1.554
 5149SOL    HW215984   3.886   1.077   1.404
 5150SOL     OW15985   5.053   1.049   1.224
 5150SOL    HW115986   5.073   0.983   1.158
 5150SOL    HW215987   4.982   1.101   1.185
 5151SOL     OW15988   5.025   0.869   0.319
 5151SOL    HW115989   4.947   0.826   0.354
 5151SOL    HW215990   5.022   0.851   0.225
 5152SOL     OW15991   4.959   1.731   1.121
 5152SOL    HW115992   5.045   1.753   1.083
 5152SOL    HW215993   4.960   1.636   1.130
 5153SOL     OW15994   3.808   1.267   1.011
 5153SOL    HW115995   3.793   1.280   1.105
 5153SOL    HW215996   3.736   1.212   0.983
 5154SOL     OW15997   4.401   1.666   1.731
 5154SOL    HW115998   4.348   1.745   1.723
 5154SOL    HW215999   4.471   1.677   1.666
 5155SOL     OW16000   4.614   0.084   0.142
 5155SOL    HW116001   4.662   0.072   0.060
 5155SOL    HW216002   4.626   0.001   0.189
 5156SOL     OW16003   5.108   1.572   0.478
 5156SOL    HW116004   5.163   1.615   0.412
 5156SOL    HW216005   5.059   1.643   0.520
 5157SOL     OW16006   3.860   1.797   1.843
 5157SOL    HW116007   3.810   1.731   1.891
 5157SOL    HW216008   3.908   1.844   1.911
 5158SOL     OW16009   5.017   0.920   0.672
 5158SOL    HW116010   5.095   0.865   0.658
 5158SOL    HW216011   5.036   1.001   0.624
 5159SOL     OW16012   4.536   1.274   1.429
 5159SOL    HW116013   4.508   1.313   1.512
 5159SOL    HW216014   4.467   1.296   1.367
 5160SOL     OW16015   4.400   1.622   0.157
 5160SOL    HW116016   4.408   1.628   0.062
 5160SOL    HW216017   4.339   1.549   0.171
 5161SOL     OW16018   3.985   0.329   0.719
 5161SOL    HW116019   3.896   0.360   0.698
 5161SOL    HW216020   3.984   0.318   0.814
 5162SOL     OW16021   4.860   1.579   0.044
 5162SOL    HW116022   4.898   1.493   0.061
 5162SOL    HW216023   4.901   1.609   8.043
 5163SOL     OW16024   4.547   1.006   1.373
 5163SOL    HW116025   4.592   1.000   1.289
 5163SOL    HW216026   4.547   1.100   1.393
 5164SOL     OW16027   4.644   0.914   0.300
 5164SOL    HW116028   4.697   0.938   0.224
 5164SOL    HW216029   4.691   0.842   0.341
 5165SOL     OW16030   4.092   1.303   1.492
 5165SOL    HW116031   4.079   1.380   1.436
 5165SOL    HW216032   4.016   1.248   1.476
 5166SOL     OW16033   4.777   1.108   0.708
 5166SOL    HW116034   4.706   1.057   0.748
 5166SOL    HW216035   4.835   1.042   0.669
 5167SOL     OW16036   4.736   0.243   0.972
 5167SOL    HW116037   4.717   0.197   0.890
 5167SOL    HW216038   4.732   0.174   1.039
 5168SOL     OW16039   4.327   1.486   0.479
 5168SOL    HW116040   4.372   1.437   0.411
 5168SOL    HW216041   4.258   1.533   0.433
 5169SOL     OW16042   3.992   1.318   0.293
 5169SOL    HW116043   3.905   1.329   0.252
 5169SOL    HW216044   3.984   1.364   0.377
 5170SOL     OW16045   3.837   1.024   1.720
 5170SOL    HW116046   3.761   1.000   1.773
 5170SOL    HW216047   3.911   0.985   1.766
 5171SOL     OW16048   4.396   0.214   1.491
 5171SOL    HW116049   4.478   0.193   1.446
 5171SOL    HW216050   4.423   0.262   1.569
 5172SOL     OW16051   3.793   0.361   0.033
 5172SOL    HW116052   3.721   0.299   0.025
 5172SOL    HW216053   3.804   0.396   8.024
 5173SOL     OW16054   5.164   0.860   1.403
 5173SOL    HW116055   5.110   0.916   1.347
 5173SOL    HW216056   5.252   0.868   1.368
 5174SOL     OW16057   3.791   0.165   0.314
 5174SOL    HW116058   3.799   0.253   0.277
 5174SOL    HW216059   3.876   0.124   0.296
 5175SOL     OW16060   4.913   1.314   0.119
 5175SOL    HW116061   4.817   1.313   0.113
 5175SOL    HW216062   4.931   1.320   0.213
 5176SOL     OW16063   4.343   0.831   1.434
 5176SOL    HW116064   4.399   0.907   1.418
 5176SOL    HW216065   4.404   0.757   1.441
 5177SOL     OW16066   4.439   0.571   1.702
 5177SOL    HW116067   4.481   0.633   1.762
 5177SOL    HW216068   4.467   0.485   1.733
 5178SOL     OW16069   5.181   1.203   1.632
 5178SOL    HW116070   5.172   1.216   1.726
 5178SOL    HW216071   5.275   1.212   1.615
 5179SOL     OW16072   4.102   1.739   1.565
 5179SOL    HW116073   4.017   1.782   1.551
 5179SOL    HW216074   4.080   1.656   1.606
 5180SOL     OW16075   4.934   0.333   0.472
 5180SOL    HW116076   4.988   0.255   0.458
 5180SOL    HW216077   4.972   0.374   0.549
 5181SOL     OW16078   4.312   0.737   0.670
 5181SOL    HW116079   4.352   0.823   0.655
 5181SOL    HW216080   4.244   0.730   0.603
 5182SOL     OW16081   4.623   1.368   0.036
 5182SOL    HW116082   4.558   1.361   0.106
 5182SOL    HW216083   4.618   1.459   0.007
 5183SOL     OW16084   4.385   1.790   0.943
 5183SOL    HW116085   4.366   1.881   0.921
 5183SOL    HW216086   4.480   1.783   0.937
 5184SOL     OW16087   4.592   0.968   0.855
 5184SOL    HW116088   4.642   0.896   0.894
 5184SOL    HW216089   4.557   1.015   0.930
 5185SOL     OW16090   4.801   0.973   0.086
 5185SOL    HW116091   4.789   1.036   0.016
 5185SOL    HW216092   4.883   0.928   0.064
 5186SOL     OW16093   3.949   1.302   1.855
 5186SOL    HW116094   3.883   1.240   1.826
 5186SOL    HW216095   3.930   1.314   1.949
 5187SOL     OW16096   3.810   1.232   0.665
 5187SOL    HW116097   3.814   1.183   0.748
 5187SOL    HW216098   3.881   1.195   0.613
 5188SOL     OW16099   4.406   1.403   1.629
 5188SOL    HW116100   4.325   1.361   1.660
 5188SOL    HW216101   4.402   1.491   1.665
 5189SOL     OW16102   4.149   0.439   0.523
 5189SOL    HW116103   4.186   0.367   0.472
 5189SOL    HW216104   4.105   0.396   0.597
 5190SOL     OW16105   0.092   1.522   1.101
 5190SOL    HW116106   0.026   1.499   1.035
 5190SOL    HW216107   0.098   1.445   1.157
 5191SOL     OW16108   4.054   0.557   1.291
 5191SOL    HW116109   4.109   0.502   1.346
 5191SOL    HW216110   4.073   0.529   1.201
 5192SOL     OW16111   4.552   1.578   0.677
 5192SOL    HW116112   4.539   1.633   0.600
 5192SOL    HW216113   4.476   1.520   0.679
 5193SOL     OW16114   5.148   0.215   1.121
 5193SOL    HW116115   5.157   0.132   1.169
 5193SOL    HW216116   5.103   0.273   1.181
 5194SOL     OW16117   4.724   0.019   1.138
 5194SOL    HW116118   4.673   5.251   1.094
 5194SOL    HW216119   4.811   5.281   1.149
 5195SOL     OW16120   4.494   1.327   0.309
 5195SOL    HW116121   4.464   1.238   0.324
 5195SOL    HW216122   4.576   1.333   0.358
 5196SOL     OW16123   4.344   1.556   1.285
 5196SOL    HW116124   4.345   1.638   1.334
 5196SOL    HW216125   4.431   1.548   1.248
 5197SOL     OW16126   5.074   5.294   0.205
 5197SOL    HW116127   5.139   0.006   0.135
 5197SOL    HW216128   5.005   0.057   0.185
 5198SOL     OW16129   5.033   0.466   0.691
 5198SOL    HW116130   4.974   0.541   0.693
 5198SOL    HW216131   5.018   0.421   0.774
 5199SOL     OW16132   5.295   0.215   0.884
 5199SOL    HW116133   5.237   0.214   0.960
 5199SOL    HW216134   5.272   0.295   0.837
 5200SOL     OW16135   3.768   1.066   0.305
 5200SOL    HW116136   3.863   1.065   0.308
 5200SOL    HW216137   3.741   0.983   0.344
 5201SOL     OW16138   4.604   1.653   0.350
 5201SOL    HW116139   4.537   1.638   0.284
 5201SOL    HW216140   4.573   1.730   0.398
 5202SOL     OW16141   3.951   0.626   1.986
 5202SOL    HW116142   3.863   0.621   2.022
 5202SOL    HW216143   3.941   0.599   1.894
 5203SOL     OW16144   3.941   0.285   2.855
 5203SOL    HW116145   3.970   0.249   2.939
 5203SOL    HW216146   3.857   0.243   2.839
 5204SOL     OW16147   3.727   0.387   2.500
 5204SOL    HW116148   3.643   0.408   2.540
 5204SOL    HW216149   3.710   0.310   2.446
 5205SOL     OW16150   4.291   1.290   3.039
 5205SOL    HW116151   4.204   1.293   3.000
 5205SOL    HW216152   4.307   1.378   3.071
 5206SOL     OW16153   5.287   1.535   2.568
 5206SOL    HW116154   5.247   1.493   2.644
 5206SOL    HW216155   5.221   1.528   2.499
 5207SOL     OW16156   4.860   0.698   2.562
 5207SOL    HW116157   4.910   0.780   2.552
 5207SOL    HW216158   4.810   0.710   2.642
 5208SOL     OW16159   4.478   1.142   2.904
 5208SOL    HW116160   4.409   1.177   2.961
 5208SOL    HW216161   4.513   1.218   2.859
 5209SOL     OW16162   4.594   0.775   3.686
 5209SOL    HW116163   4.576   0.846   3.746
 5209SOL    HW216164   4.616   0.818   3.603
 5210SOL     OW16165   4.410   1.002   2.508
 5210SOL    HW116166   4.475   0.991   2.578
 5210SOL    HW216167   4.341   1.054   2.548
 5211SOL     OW16168   4.436   1.151   3.676
 5211SOL    HW116169   4.483   1.229   3.704
 5211SOL    HW216170   4.354   1.184   3.639
 5212SOL     OW16171   4.054   1.424   2.930
 5212SOL    HW116172   3.982   1.386   2.880
 5212SOL    HW216173   4.104   1.475   2.865
 5213SOL     OW16174   5.160   1.480   3.215
 5213SOL    HW116175   5.209   1.559   3.240
 5213SOL    HW216176   5.101   1.465   3.289
 5214SOL     OW16177   4.169   0.398   3.346
 5214SOL    HW116178   4.244   0.339   3.346
 5214SOL    HW216179   4.094   0.341   3.363
 5215SOL     OW16180   3.943   1.715   2.333
 5215SOL    HW116181   3.965   1.791   2.387
 5215SOL    HW216182   4.017   1.706   2.273
 5216SOL     OW16183   4.859   1.340   3.556
 5216SOL    HW116184   4.898   1.336   3.644
 5216SOL    HW216185   4.807   1.260   3.549
 5217SOL     OW16186   3.955   1.442   2.397
 5217SOL    HW116187   3.937   1.536   2.400
 5217SOL    HW216188   3.895   1.404   2.461
 5218SOL     OW16189   3.983   1.090   2.753
 5218SOL    HW116190   3.980   1.003   2.793
 5218SOL    HW216191   3.925   1.144   2.807
 5219SOL     OW16192   4.331   1.793   3.288
 5219SOL    HW116193   4.251   1.775   3.336
 5219SOL    HW216194   4.356   1.881   3.315
 5220SOL     OW16195   4.308   0.982   1.997
 5220SOL    HW116196   4.354   1.031   1.929
 5220SOL    HW216197   4.348   1.013   2.079
 5221SOL     OW16198   5.251   0.142   3.341
 5221SOL    HW116199   5.299   0.223   3.323
 5221SOL    HW216200   5.272   0.121   3.432
 5222SOL     OW16201   3.839   0.654   2.422
 5222SOL    HW116202   3.811   0.565   2.443
 5222SOL    HW216203   3.831   0.702   2.504
 5223SOL     OW16204   3.757   1.594   1.985
 5223SOL    HW116205   3.739   1.502   2.005
 5223SOL    HW216206   3.733   1.641   2.065
 5224SOL     OW16207   0.113   0.939   2.437
 5224SOL    HW116208   0.200   0.904   2.450
 5224SOL    HW216209   0.127   1.027   2.402
 5225SOL     OW16210   3.847   0.745   3.446
 5225SOL    HW116211   3.939   0.771   3.452
 5225SOL    HW216212   3.798   0.826   3.454
 5226SOL     OW16213   4.338   1.387   2.597
 5226SOL    HW116214   4.292   1.303   2.606
 5226SOL    HW216215   4.321   1.413   2.507
 5227SOL     OW16216   5.005   1.235   3.287
 5227SOL    HW116217   5.038   1.169   3.226
 5227SOL    HW216218   5.061   1.228   3.364
 5228SOL     OW16219   4.536   0.029   2.393
 5228SOL    HW116220   4.564   0.116   2.366
 5228SOL    HW216221   4.440   0.031   2.385
 5229SOL     OW16222   3.914   0.965   3.134
 5229SOL    HW116223   3.999   0.924   3.120
 5229SOL    HW216224   3.852   0.911   3.085
 5230SOL     OW16225   4.895   1.808   3.486
 5230SOL    HW116226   4.916   1.868   3.414
 5230SOL    HW216227   4.919   1.721   3.453
 5231SOL     OW16228   4.051   0.268   3.674
 5231SOL    HW116229   4.104   0.341   3.705
 5231SOL    HW216230   3.965   0.281   3.714
 5232SOL     OW16231   5.168   1.436   2.797
 5232SOL    HW116232   5.106   1.443   2.870
 5232SOL    HW216233   5.161   1.345   2.768
 5233SOL     OW16234   4.318   0.721   2.129
 5233SOL    HW116235   4.322   0.803   2.080
 5233SOL    HW216236   4.253   0.737   2.197
 5234SOL     OW16237   4.995   0.328   2.779
 5234SOL    HW116238   4.906   0.305   2.803
 5234SOL    HW216239   5.048   0.300   2.854
 5235SOL     OW16240   4.517   0.619   3.311
 5235SOL    HW116241   4.490   0.596   3.400
 5235SOL    HW216242   4.476   0.552   3.256
 5236SOL     OW16243   5.116   0.488   3.542
 5236SOL    HW116244   5.119   0.522   3.632
 5236SOL    HW216245   5.184   0.420   3.540
 5237SOL     OW16246   4.678   0.888   3.445
 5237SOL    HW116247   4.730   0.816   3.409
 5237SOL    HW216248   4.629   0.922   3.370
 5238SOL     OW16249   4.718   0.422   3.092
 5238SOL    HW116250   4.633   0.436   3.133
 5238SOL    HW216251   4.700   0.368   3.016
 5239SOL     OW16252   4.775   0.698   2.287
 5239SOL    HW116253   4.791   0.691   2.381
 5239SOL    HW216254   4.692   0.652   2.274
 5240SOL     OW16255   3.812   0.821   2.639
 5240SOL    HW116256   3.893   0.814   2.690
 5240SOL    HW216257   3.769   0.899   2.674
 5241SOL     OW16258   3.850   1.850   3.441
 5241SOL    HW116259   3.852   1.829   3.534
 5241SOL    HW216260   3.758   1.838   3.415
 5242SOL     OW16261   4.601   0.364   2.052
 5242SOL    HW116262   4.635   0.419   1.982
 5242SOL    HW216263   4.655   0.284   2.048
 5243SOL     OW16264   5.093   1.148   2.411
 5243SOL    HW116265   5.181   1.151   2.373
 5243SOL    HW216266   5.042   1.206   2.355
 5244SOL     OW16267   4.247   0.202   2.744
 5244SOL    HW116268   4.270   0.217   2.835
 5244SOL    HW216269   4.270   0.284   2.700
 5245SOL     OW16270   4.729   1.443   2.334
 5245SOL    HW116271   4.692   1.516   2.284
 5245SOL    HW216272   4.710   1.464   2.425
 5246SOL     OW16273   4.078   1.810   2.726
 5246SOL    HW116274   4.122   1.725   2.733
 5246SOL    HW216275   4.147   1.874   2.744
 5247SOL     OW16276   4.940   1.541   3.381
 5247SOL    HW116277   4.927   1.468   3.442
 5247SOL    HW216278   4.880   1.522   3.308
 5248SOL     OW16279   4.043   0.958   2.113
 5248SOL    HW116280   4.125   0.976   2.067
 5248SOL    HW216281   4.012   0.876   2.075
 5249SOL     OW16282   4.191   1.265   3.600
 5249SOL    HW116283   4.164   1.269   3.508
 5249SOL    HW216284   4.108   1.263   3.649
 5250SOL     OW16285   4.831   1.775   2.099
 5250SOL    HW116286   4.759   1.730   2.143
 5250SOL    HW216287   4.857   1.715   2.028
 5251SOL     OW16288   3.921   0.277   3.366
 5251SOL    HW116289   3.842   0.331   3.363
 5251SOL    HW216290   3.914   0.228   3.447
 5252SOL     OW16291   4.189   1.736   2.183
 5252SOL    HW116292   4.232   1.794   2.246
 5252SOL    HW216293   4.260   1.705   2.127
 5253SOL     OW16294   5.096   0.098   2.281
 5253SOL    HW116295   5.082   0.081   2.188
 5253SOL    HW216296   5.190   0.118   2.289
 5254SOL     OW16297   3.978   1.791   3.093
 5254SOL    HW116298   4.031   1.725   3.139
 5254SOL    HW216299   3.972   1.757   3.004
 5255SOL     OW16300   4.662   1.698   2.760
 5255SOL    HW116301   4.742   1.649   2.778
 5255SOL    HW216302   4.618   1.649   2.691
 5256SOL     OW16303   4.117   0.696   2.337
 5256SOL    HW116304   4.138   0.603   2.349
 5256SOL    HW216305   4.024   0.703   2.355
 5257SOL     OW16306   4.346   0.133   1.969
 5257SOL    HW116307   4.417   0.072   1.989
 5257SOL    HW216308   4.297   0.091   1.899
 5258SOL     OW16309   4.508   0.310   3.629
 5258SOL    HW116310   4.573   0.240   3.628
 5258SOL    HW216311   4.459   0.297   3.710
 5259SOL     OW16312   4.599   1.522   3.056
 5259SOL    HW116313   4.584   1.486   2.968
 5259SOL    HW216314   4.669   1.468   3.092
 5260SOL     OW16315   5.060   0.592   3.293
 5260SOL    HW116316   5.089   0.562   3.379
 5260SOL    HW216317   5.099   0.679   3.283
 5261SOL     OW16318   4.539   1.394   2.803
 5261SOL    HW116319   4.623   1.382   2.759
 5261SOL    HW216320   4.475   1.396   2.731
 5262SOL     OW16321   4.652   0.511   2.764
 5262SOL    HW116322   4.628   0.502   2.672
 5262SOL    HW216323   4.681   0.424   2.791
 5263SOL     OW16324   4.267   0.062   2.370
 5263SOL    HW116325   4.181   0.060   2.413
 5263SOL    HW216326   4.259   0.131   2.304
 5264SOL     OW16327   5.135   1.181   1.906
 5264SOL    HW116328   5.142   1.102   1.960
 5264SOL    HW216329   5.048   1.216   1.926
 5265SOL     OW16330   4.026   0.063   2.054
 5265SOL    HW116331   4.084   0.133   2.024
 5265SOL    HW216332   4.082   5.286   2.060
 5266SOL     OW16333   4.661   0.264   2.324
 5266SOL    HW116334   4.633   0.297   2.239
 5266SOL    HW216335   4.756   0.278   2.325
 5267SOL     OW16336   4.802   0.682   3.322
 5267SOL    HW116337   4.733   0.615   3.324
 5267SOL    HW216338   4.883   0.632   3.312
 5268SOL     OW16339   4.940   1.571   2.656
 5268SOL    HW116340   4.961   1.638   2.591
 5268SOL    HW216341   5.021   1.558   2.705
 5269SOL     OW16342   4.193   1.150   2.594
 5269SOL    HW116343   4.125   1.130   2.658
 5269SOL    HW216344   4.153   1.134   2.509
 5270SOL     OW16345   4.995   1.794   2.468
 5270SOL    HW116346   5.037   1.855   2.407
 5270SOL    HW216347   4.928   1.846   2.512
 5271SOL     OW16348   4.752   0.549   1.882
 5271SOL    HW116349   4.705   0.631   1.865
 5271SOL    HW216350   4.806   0.569   1.959
 5272SOL     OW16351   3.804   0.553   3.255
 5272SOL    HW116352   3.895   0.553   3.227
 5272SOL    HW216353   3.798   0.624   3.319
 5273SOL     OW16354   4.279   0.238   3.020
 5273SOL    HW116355   4.311   0.153   3.050
 5273SOL    HW216356   4.187   0.239   3.047
 5274SOL     OW16357   4.592   0.465   2.503
 5274SOL    HW116358   4.543   0.517   2.439
 5274SOL    HW216359   4.613   0.384   2.456
 5275SOL     OW16360   4.698   0.063   2.626
 5275SOL    HW116361   4.634   0.056   2.555
 5275SOL    HW216362   4.713   5.272   2.654
 5276SOL     OW16363   5.156   1.176   2.713
 5276SOL    HW116364   5.101   1.099   2.727
 5276SOL    HW216365   5.168   1.180   2.618
 5277SOL     OW16366   4.214   1.419   2.017
 5277SOL    HW116367   4.139   1.390   2.069
 5277SOL    HW216368   4.202   1.377   1.932
 5278SOL     OW16369   5.128   0.558   1.945
 5278SOL    HW116370   5.051   0.550   2.001
 5278SOL    HW216371   5.202   0.531   2.000
 5279SOL     OW16372   4.247   0.265   2.183
 5279SOL    HW116373   4.292   0.216   2.114
 5279SOL    HW216374   4.226   0.349   2.142
 5280SOL     OW16375   4.779   1.355   3.195
 5280SOL    HW116376   4.704   1.323   3.246
 5280SOL    HW216377   4.855   1.311   3.236
 5281SOL     OW16378   0.006   1.604   3.477
 5281SOL    HW116379   0.041   1.608   3.388
 5281SOL    HW216380   0.082   1.584   3.532
 5282SOL     OW16381   4.855   1.205   2.968
 5282SOL    HW116382   4.792   1.239   3.032
 5282SOL    HW216383   4.821   1.234   2.883
 5283SOL     OW16384   4.624   0.105   3.247
 5283SOL    HW116385   4.657   0.070   3.164
 5283SOL    HW216386   4.699   0.149   3.287
 5284SOL     OW16387   4.709   1.113   3.587
 5284SOL    HW116388   4.617   1.131   3.608
 5284SOL    HW216389   4.706   1.036   3.530
 5285SOL     OW16390   4.433   1.062   2.233
 5285SOL    HW116391   4.418   1.044   2.326
 5285SOL    HW216392   4.509   1.008   2.210
 5286SOL     OW16393   4.143   0.816   3.113
 5286SOL    HW116394   4.212   0.825   3.180
 5286SOL    HW216395   4.108   0.728   3.127
 5287SOL     OW16396   4.991   0.380   3.132
 5287SOL    HW116397   5.024   0.459   3.176
 5287SOL    HW216398   4.900   0.402   3.110
 5288SOL     OW16399   3.796   1.573   3.215
 5288SOL    HW116400   3.767   1.647   3.161
 5288SOL    HW216401   3.891   1.575   3.210
 5289SOL     OW16402   4.071   1.111   2.352
 5289SOL    HW116403   4.076   1.184   2.291
 5289SOL    HW216404   4.068   1.033   2.297
 5290SOL     OW16405   4.277   0.537   2.722
 5290SOL    HW116406   4.292   0.595   2.648
 5290SOL    HW216407   4.343   0.563   2.787
 5291SOL     OW16408   4.972   1.349   2.249
 5291SOL    HW116409   5.026   1.422   2.279
 5291SOL    HW216410   4.884   1.369   2.282
 5292SOL     OW16411   4.996   1.457   3.002
 5292SOL    HW116412   5.050   1.458   3.081
 5292SOL    HW216413   4.941   1.379   3.012
 5293SOL     OW16414   4.070   1.528   3.176
 5293SOL    HW116415   4.058   1.485   3.092
 5293SOL    HW216416   4.165   1.539   3.184
 5294SOL     OW16417   4.139   0.744   3.464
 5294SOL    HW116418   4.201   0.789   3.406
 5294SOL    HW216419   4.179   0.659   3.482
 5295SOL     OW16420   4.754   0.120   3.616
 5295SOL    HW116421   4.799   0.202   3.592
 5295SOL    HW216422   4.796   0.053   3.562
 5296SOL     OW16423   4.203   0.058   3.598
 5296SOL    HW116424   4.142   5.294   3.562
 5296SOL    HW216425   4.148   0.133   3.621
 5297SOL     OW16426   4.308   0.873   2.894
 5297SOL    HW116427   4.338   0.964   2.894
 5297SOL    HW216428   4.251   0.867   2.970
 5298SOL     OW16429   5.086   0.857   2.898
 5298SOL    HW116430   5.008   0.837   2.845
 5298SOL    HW216431   5.140   0.778   2.892
 5299SOL     OW16432   4.928   0.531   2.127
 5299SOL    HW116433   4.932   0.451   2.179
 5299SOL    HW216434   4.884   0.594   2.184
 5300SOL     OW16435   4.019   0.203   3.110
 5300SOL    HW116436   3.980   0.242   3.188
 5300SOL    HW216437   4.021   0.109   3.129
 5301SOL     OW16438   3.769   1.311   3.138
 5301SOL    HW116439   3.802   1.256   3.209
 5301SOL    HW216440   3.776   1.400   3.171
 5302SOL     OW16441   4.449   0.632   2.921
 5302SOL    HW116442   4.523   0.615   2.863
 5302SOL    HW216443   4.420   0.720   2.898
 5303SOL     OW16444   4.030   0.071   2.517
 5303SOL    HW116445   4.009   0.165   2.521
 5303SOL    HW216446   4.076   0.053   2.598
 5304SOL     OW16447   0.029   0.410   2.226
 5304SOL    HW116448   0.057   0.347   2.293
 5304SOL    HW216449   0.009   0.490   2.275
 5305SOL     OW16450   4.752   0.759   2.822
 5305SOL    HW116451   4.749   0.776   2.916
 5305SOL    HW216452   4.725   0.667   2.813
 5306SOL     OW16453   4.697   1.561   3.576
 5306SOL    HW116454   4.686   1.609   3.494
 5306SOL    HW216455   4.745   1.482   3.552
 5307SOL     OW16456   4.077   0.917   3.670
 5307SOL    HW116457   4.159   0.935   3.717
 5307SOL    HW216458   4.101   0.853   3.603
 5308SOL     OW16459   5.028   0.829   1.899
 5308SOL    HW116460   5.063   0.740   1.899
 5308SOL    HW216461   5.055   0.865   1.814
 5309SOL     OW16462   4.789   1.334   2.718
 5309SOL    HW116463   4.794   1.263   2.655
 5309SOL    HW216464   4.847   1.402   2.681
 5310SOL     OW16465   4.033   0.809   2.809
 5310SOL    HW116466   4.126   0.830   2.802
 5310SOL    HW216467   4.031   0.718   2.840
 5311SOL     OW16468   4.055   0.527   2.875
 5311SOL    HW116469   4.019   0.440   2.860
 5311SOL    HW216470   4.132   0.531   2.817
 5312SOL     OW16471   4.861   0.377   3.553
 5312SOL    HW116472   4.811   0.431   3.614
 5312SOL    HW216473   4.946   0.422   3.545
 5313SOL     OW16474   4.846   0.234   3.321
 5313SOL    HW116475   4.857   0.284   3.401
 5313SOL    HW216476   4.910   0.271   3.260
 5314SOL     OW16477   3.729   1.321   2.057
 5314SOL    HW116478   3.642   1.335   2.019
 5314SOL    HW216479   3.726   1.231   2.091
 5315SOL     OW16480   3.814   1.787   2.800
 5315SOL    HW116481   3.784   1.707   2.756
 5315SOL    HW216482   3.904   1.799   2.770
 5316SOL     OW16483   4.220   1.574   2.767
 5316SOL    HW116484   4.288   1.636   2.791
 5316SOL    HW216485   4.263   1.511   2.710
 5317SOL     OW16486   4.705   0.793   3.088
 5317SOL    HW116487   4.761   0.769   3.162
 5317SOL    HW216488   4.621   0.752   3.108
 5318SOL     OW16489   3.759   0.545   2.979
 5318SOL    HW116490   3.839   0.530   2.927
 5318SOL    HW216491   3.790   0.548   3.070
 5319SOL     OW16492   3.910   0.523   3.590
 5319SOL    HW116493   3.974   0.486   3.529
 5319SOL    HW216494   3.872   0.598   3.543
 5320SOL     OW16495   5.114   0.936   3.528
 5320SOL    HW116496   5.122   1.031   3.516
 5320SOL    HW216497   5.117   0.900   3.439
 5321SOL     OW16498   4.539   0.574   2.224
 5321SOL    HW116499   4.542   0.498   2.165
 5321SOL    HW216500   4.464   0.625   2.193
 5322SOL     OW16501   3.966   1.551   3.588
 5322SOL    HW116502   3.944   1.616   3.655
 5322SOL    HW216503   3.969   1.468   3.636
 5323SOL     OW16504   4.424   0.451   3.121
 5323SOL    HW116505   4.373   0.378   3.089
 5323SOL    HW216506   4.423   0.515   3.050
 5324SOL     OW16507   4.644   1.680   3.331
 5324SOL    HW116508   4.622   1.646   3.244
 5324SOL    HW216509   4.644   1.775   3.321
 5325SOL     OW16510   4.186   0.493   2.044
 5325SOL    HW116511   4.246   0.563   2.068
 5325SOL    HW216512   4.101   0.536   2.035
 5326SOL     OW16513   3.869   1.141   3.334
 5326SOL    HW116514   3.871   1.090   3.416
 5326SOL    HW216515   3.886   1.077   3.266
 5327SOL     OW16516   5.053   1.048   3.086
 5327SOL    HW116517   5.074   0.983   3.019
 5327SOL    HW216518   4.982   1.100   3.047
 5328SOL     OW16519   5.037   0.859   2.178
 5328SOL    HW116520   4.955   0.827   2.216
 5328SOL    HW216521   5.024   0.852   2.084
 5329SOL     OW16522   4.959   1.731   2.982
 5329SOL    HW116523   5.045   1.753   2.947
 5329SOL    HW216524   4.961   1.636   2.992
 5330SOL     OW16525   3.808   1.267   2.873
 5330SOL    HW116526   3.793   1.280   2.967
 5330SOL    HW216527   3.736   1.211   2.845
 5331SOL     OW16528   4.401   1.666   3.592
 5331SOL    HW116529   4.348   1.745   3.585
 5331SOL    HW216530   4.471   1.678   3.528
 5332SOL     OW16531   5.111   1.570   2.344
 5332SOL    HW116532   5.181   1.612   2.294
 5332SOL    HW216533   5.060   1.643   2.379
 5333SOL     OW16534   3.862   1.795   3.705
 5333SOL    HW116535   3.811   1.731   3.753
 5333SOL    HW216536   3.908   1.844   3.773
 5334SOL     OW16537   5.017   0.920   2.533
 5334SOL    HW116538   5.095   0.866   2.521
 5334SOL    HW216539   5.036   1.000   2.485
 5335SOL     OW16540   4.536   1.274   3.291
 5335SOL    HW116541   4.508   1.313   3.374
 5335SOL    HW216542   4.467   1.296   3.229
 5336SOL     OW16543   4.394   1.621   2.017
 5336SOL    HW116544   4.406   1.634   1.923
 5336SOL    HW216545   4.339   1.543   2.024
 5337SOL     OW16546   3.985   0.329   2.580
 5337SOL    HW116547   3.897   0.360   2.559
 5337SOL    HW216548   3.984   0.318   2.675
 5338SOL     OW16549   4.908   1.608   1.904
 5338SOL    HW116550   4.919   1.514   1.915
 5338SOL    HW216551   4.853   1.617   1.826
 5339SOL     OW16552   4.547   1.006   3.235
 5339SOL    HW116553   4.591   1.000   3.150
 5339SOL    HW216554   4.547   1.100   3.256
 5340SOL     OW16555   4.641   0.912   2.153
 5340SOL    HW116556   4.703   0.943   2.086
 5340SOL    HW216557   4.687   0.841   2.197
 5341SOL     OW16558   4.093   1.303   3.354
 5341SOL    HW116559   4.080   1.380   3.298
 5341SOL    HW216560   4.016   1.248   3.338
 5342SOL     OW16561   4.777   1.108   2.569
 5342SOL    HW116562   4.706   1.058   2.610
 5342SOL    HW216563   4.835   1.041   2.532
 5343SOL     OW16564   4.737   0.243   2.834
 5343SOL    HW116565   4.718   0.197   2.751
 5343SOL    HW216566   4.732   0.174   2.900
 5344SOL     OW16567   4.327   1.488   2.343
 5344SOL    HW116568   4.373   1.438   2.276
 5344SOL    HW216569   4.257   1.533   2.296
 5345SOL     OW16570   3.984   1.344   2.151
 5345SOL    HW116571   3.891   1.342   2.128
 5345SOL    HW216572   3.986   1.381   2.239
 5346SOL     OW16573   3.837   1.024   3.582
 5346SOL    HW116574   3.761   1.000   3.635
 5346SOL    HW216575   3.911   0.985   3.628
 5347SOL     OW16576   4.396   0.214   3.353
 5347SOL    HW116577   4.478   0.193   3.308
 5347SOL    HW216578   4.423   0.262   3.431
 5348SOL     OW16579   3.801   0.339   1.904
 5348SOL    HW116580   3.718   0.305   1.871
 5348SOL    HW216581   3.822   0.412   1.846
 5349SOL     OW16582   5.163   0.860   3.265
 5349SOL    HW116583   5.110   0.916   3.209
 5349SOL    HW216584   5.252   0.869   3.231
 5350SOL     OW16585   3.796   0.167   2.176
 5350SOL    HW116586   3.798   0.250   2.128
 5350SOL    HW216587   3.880   0.126   2.157
 5351SOL     OW16588   4.906   1.328   1.976
 5351SOL    HW116589   4.812   1.310   1.977
 5351SOL    HW216590   4.930   1.335   2.068
 5352SOL     OW16591   4.343   0.831   3.296
 5352SOL    HW116592   4.399   0.907   3.280
 5352SOL    HW216593   4.404   0.757   3.303
 5353SOL     OW16594   4.439   0.571   3.564
 5353SOL    HW116595   4.481   0.633   3.624
 5353SOL    HW216596   4.467   0.485   3.595
 5354SOL     OW16597   5.181   1.203   3.494
 5354SOL    HW116598   5.172   1.216   3.588
 5354SOL    HW216599   5.275   1.213   3.477
 5355SOL     OW16600   4.102   1.739   3.427
 5355SOL    HW116601   4.017   1.781   3.412
 5355SOL    HW216602   4.081   1.656   3.468
 5356SOL     OW16603   4.940   0.324   2.323
 5356SOL    HW116604   4.995   0.246   2.316
 5356SOL    HW216605   4.971   0.369   2.401
 5357SOL     OW16606   4.314   0.738   2.532
 5357SOL    HW116607   4.352   0.824   2.516
 5357SOL    HW216608   4.246   0.728   2.465
 5358SOL     OW16609   4.591   1.366   1.899
 5358SOL    HW116610   4.550   1.396   1.980
 5358SOL    HW216611   4.606   1.446   1.848
 5359SOL     OW16612   4.384   1.790   2.805
 5359SOL    HW116613   4.365   1.881   2.783
 5359SOL    HW216614   4.480   1.783   2.799
 5360SOL     OW16615   4.592   0.968   2.717
 5360SOL    HW116616   4.642   0.896   2.756
 5360SOL    HW216617   4.556   1.015   2.792
 5361SOL     OW16618   4.807   0.988   1.953
 5361SOL    HW116619   4.782   1.037   1.874
 5361SOL    HW216620   4.881   0.934   1.924
 5362SOL     OW16621   3.949   1.303   3.718
 5362SOL    HW116622   3.883   1.241   3.688
 5362SOL    HW216623   3.931   1.314   3.811
 5363SOL     OW16624   3.809   1.233   2.527
 5363SOL    HW116625   3.815   1.185   2.610
 5363SOL    HW216626   3.876   1.194   2.471
 5364SOL     OW16627   4.406   1.403   3.491
 5364SOL    HW116628   4.325   1.361   3.522
 5364SOL    HW216629   4.402   1.492   3.527
 5365SOL     OW16630   4.154   0.436   2.387
 5365SOL    HW116631   4.187   0.363   2.333
 5365SOL    HW216632   4.107   0.394   2.458
 5366SOL     OW16633   0.095   1.520   2.961
 5366SOL    HW116634   0.027   1.498   2.897
 5366SOL    HW216635   0.098   1.444   3.020
 5367SOL     OW16636   4.053   0.557   3.153
 5367SOL    HW116637   4.109   0.502   3.208
 5367SOL    HW216638   4.073   0.529   3.063
 5368SOL     OW16639   4.552   1.578   2.539
 5368SOL    HW116640   4.539   1.634   2.462
 5368SOL    HW216641   4.476   1.520   2.540
 5369SOL     OW16642   5.148   0.215   2.982
 5369SOL    HW116643   5.158   0.133   3.031
 5369SOL    HW216644   5.103   0.274   3.043
 5370SOL     OW16645   4.724   0.020   3.000
 5370SOL    HW116646   4.673   5.251   2.957
 5370SOL    HW216647   4.811   5.281   3.011
 5371SOL     OW16648   4.495   1.333   2.179
 5371SOL    HW116649   4.465   1.242   2.185
 5371SOL    HW216650   4.577   1.334   2.227
 5372SOL     OW16651   4.344   1.556   3.147
 5372SOL    HW116652   4.345   1.638   3.196
 5372SOL    HW216653   4.431   1.548   3.110
 5373SOL     OW16654   5.035   0.032   2.020
 5373SOL    HW116655   5.117   0.026   1.972
 5373SOL    HW216656   4.985   5.256   1.991
 5374SOL     OW16657   5.028   0.461   2.547
 5374SOL    HW116658   4.972   0.539   2.551
 5374SOL    HW216659   5.015   0.418   2.631
 5375SOL     OW16660   5.295   0.214   2.747
 5375SOL    HW116661   5.237   0.214   2.823
 5375SOL    HW216662   5.273   0.294   2.700
 5376SOL     OW16663   3.767   1.070   2.169
 5376SOL    HW116664   3.861   1.062   2.151
 5376SOL    HW216665   3.739   0.981   2.191
 5377SOL     OW16666   4.604   1.651   2.208
 5377SOL    HW116667   4.533   1.636   2.145
 5377SOL    HW216668   4.577   1.728   2.258
 5378SOL     OW16669   3.951   0.626   3.848
 5378SOL    HW116670   3.863   0.621   3.884
 5378SOL    HW216671   3.941   0.599   3.756
 5379SOL     OW16672   3.941   0.285   4.717
 5379SOL    HW116673   3.970   0.249   4.801
 5379SOL    HW216674   3.857   0.243   4.701
 5380SOL     OW16675   3.727   0.387   4.362
 5380SOL    HW116676   3.643   0.408   4.402
 5380SOL    HW216677   3.710   0.310   4.308
 5381SOL     OW16678   4.291   1.290   4.901
 5381SOL    HW116679   4.204   1.293   4.862
 5381SOL    HW216680   4.307   1.378   4.933
 5382SOL     OW16681   5.287   1.534   4.429
 5382SOL    HW116682   5.247   1.493   4.506
 5382SOL    HW216683   5.221   1.528   4.361
 5383SOL     OW16684   4.860   0.698   4.424
 5383SOL    HW116685   4.910   0.780   4.414
 5383SOL    HW216686   4.810   0.710   4.504
 5384SOL     OW16687   4.478   1.142   4.766
 5384SOL    HW116688   4.409   1.177   4.823
 5384SOL    HW216689   4.513   1.218   4.721
 5385SOL     OW16690   4.594   0.775   5.548
 5385SOL    HW116691   4.575   0.846   5.608
 5385SOL    HW216692   4.616   0.818   5.465
 5386SOL     OW16693   4.410   1.002   4.370
 5386SOL    HW116694   4.475   0.991   4.440
 5386SOL    HW216695   4.341   1.054   4.410
 5387SOL     OW16696   4.436   1.151   5.538
 5387SOL    HW116697   4.483   1.229   5.566
 5387SOL    HW216698   4.354   1.184   5.501
 5388SOL     OW16699   4.054   1.424   4.792
 5388SOL    HW116700   3.982   1.386   4.742
 5388SOL    HW216701   4.104   1.475   4.727
 5389SOL     OW16702   5.160   1.480   5.077
 5389SOL    HW116703   5.209   1.559   5.101
 5389SOL    HW216704   5.101   1.465   5.151
 5390SOL     OW16705   4.169   0.398   5.208
 5390SOL    HW116706   4.244   0.339   5.208
 5390SOL    HW216707   4.094   0.341   5.225
 5391SOL     OW16708   3.943   1.715   4.195
 5391SOL    HW116709   3.964   1.790   4.249
 5391SOL    HW216710   4.017   1.706   4.134
 5392SOL     OW16711   4.859   1.340   5.418
 5392SOL    HW116712   4.898   1.336   5.506
 5392SOL    HW216713   4.807   1.260   5.411
 5393SOL     OW16714   3.955   1.442   4.259
 5393SOL    HW116715   3.937   1.536   4.262
 5393SOL    HW216716   3.895   1.404   4.324
 5394SOL     OW16717   3.983   1.090   4.615
 5394SOL    HW116718   3.980   1.003   4.655
 5394SOL    HW216719   3.925   1.144   4.669
 5395SOL     OW16720   4.331   1.793   5.150
 5395SOL    HW116721   4.251   1.775   5.199
 5395SOL    HW216722   4.356   1.881   5.177
 5396SOL     OW16723   4.308   0.982   3.859
 5396SOL    HW116724   4.354   1.031   3.791
 5396SOL    HW216725   4.348   1.013   3.941
 5397SOL     OW16726   5.251   0.142   5.203
 5397SOL    HW116727   5.299   0.223   5.185
 5397SOL    HW216728   5.272   0.121   5.294
 5398SOL     OW16729   3.839   0.654   4.283
 5398SOL    HW116730   3.811   0.565   4.305
 5398SOL    HW216731   3.831   0.702   4.366
 5399SOL     OW16732   3.756   1.595   3.848
 5399SOL    HW116733   3.739   1.503   3.868
 5399SOL    HW216734   3.732   1.642   3.929
 5400SOL     OW16735   0.113   0.939   4.298
 5400SOL    HW116736   0.201   0.904   4.312
 5400SOL    HW216737   0.127   1.028   4.265
 5401SOL     OW16738   3.847   0.745   5.307
 5401SOL    HW116739   3.938   0.771   5.315
 5401SOL    HW216740   3.797   0.826   5.316
 5402SOL     OW16741   4.337   1.387   4.459
 5402SOL    HW116742   4.292   1.303   4.468
 5402SOL    HW216743   4.321   1.413   4.369
 5403SOL     OW16744   5.005   1.235   5.149
 5403SOL    HW116745   5.038   1.169   5.088
 5403SOL    HW216746   5.061   1.228   5.226
 5404SOL     OW16747   4.536   0.028   4.254
 5404SOL    HW116748   4.564   0.116   4.228
 5404SOL    HW216749   4.440   0.031   4.247
 5405SOL     OW16750   3.914   0.966   4.996
 5405SOL    HW116751   3.999   0.924   4.981
 5405SOL    HW216752   3.852   0.911   4.947
 5406SOL     OW16753   4.896   1.808   5.348
 5406SOL    HW116754   4.916   1.868   5.276
 5406SOL    HW216755   4.919   1.721   5.315
 5407SOL     OW16756   4.051   0.268   5.536
 5407SOL    HW116757   4.103   0.342   5.567
 5407SOL    HW216758   3.965   0.281   5.576
 5408SOL     OW16759   5.167   1.436   4.659
 5408SOL    HW116760   5.106   1.443   4.732
 5408SOL    HW216761   5.161   1.345   4.630
 5409SOL     OW16762   4.318   0.721   3.991
 5409SOL    HW116763   4.322   0.803   3.942
 5409SOL    HW216764   4.253   0.737   4.059
 5410SOL     OW16765   4.995   0.328   4.641
 5410SOL    HW116766   4.906   0.305   4.665
 5410SOL    HW216767   5.048   0.300   4.716
 5411SOL     OW16768   4.517   0.618   5.173
 5411SOL    HW116769   4.490   0.596   5.262
 5411SOL    HW216770   4.477   0.552   5.118
 5412SOL     OW16771   5.116   0.488   5.404
 5412SOL    HW116772   5.119   0.522   5.494
 5412SOL    HW216773   5.184   0.420   5.402
 5413SOL     OW16774   4.678   0.888   5.307
 5413SOL    HW116775   4.730   0.816   5.271
 5413SOL    HW216776   4.629   0.922   5.232
 5414SOL     OW16777   4.718   0.422   4.954
 5414SOL    HW116778   4.633   0.436   4.995
 5414SOL    HW216779   4.700   0.368   4.878
 5415SOL     OW16780   4.775   0.698   4.149
 5415SOL    HW116781   4.791   0.691   4.243
 5415SOL    HW216782   4.692   0.652   4.136
 5416SOL     OW16783   3.812   0.821   4.501
 5416SOL    HW116784   3.893   0.814   4.552
 5416SOL    HW216785   3.769   0.900   4.536
 5417SOL     OW16786   3.850   1.852   5.303
 5417SOL    HW116787   3.851   1.830   5.396
 5417SOL    HW216788   3.759   1.838   5.276
 5418SOL     OW16789   4.601   0.363   3.914
 5418SOL    HW116790   4.635   0.419   3.845
 5418SOL    HW216791   4.655   0.284   3.910
 5419SOL     OW16792   5.093   1.148   4.272
 5419SOL    HW116793   5.182   1.151   4.236
 5419SOL    HW216794   5.042   1.206   4.216
 5420SOL     OW16795   4.247   0.203   4.606
 5420SOL    HW116796   4.270   0.217   4.697
 5420SOL    HW216797   4.270   0.285   4.562
 5421SOL     OW16798   4.729   1.443   4.196
 5421SOL    HW116799   4.692   1.516   4.146
 5421SOL    HW216800   4.710   1.464   4.287
 5422SOL     OW16801   4.078   1.810   4.589
 5422SOL    HW116802   4.122   1.725   4.595
 5422SOL    HW216803   4.147   1.874   4.607
 5423SOL     OW16804   4.940   1.541   5.243
 5423SOL    HW116805   4.927   1.468   5.304
 5423SOL    HW216806   4.880   1.522   5.170
 5424SOL     OW16807   4.043   0.958   3.975
 5424SOL    HW116808   4.125   0.977   3.929
 5424SOL    HW216809   4.012   0.876   3.937
 5425SOL     OW16810   4.191   1.265   5.462
 5425SOL    HW116811   4.164   1.269   5.370
 5425SOL    HW216812   4.108   1.263   5.511
 5426SOL     OW16813   4.831   1.775   3.961
 5426SOL    HW116814   4.759   1.730   4.005
 5426SOL    HW216815   4.857   1.715   3.890
 5427SOL     OW16816   3.921   0.278   5.228
 5427SOL    HW116817   3.841   0.331   5.225
 5427SOL    HW216818   3.914   0.228   5.310
 5428SOL     OW16819   4.189   1.736   4.045
 5428SOL    HW116820   4.232   1.794   4.108
 5428SOL    HW216821   4.260   1.705   3.989
 5429SOL     OW16822   5.096   0.098   4.143
 5429SOL    HW116823   5.083   0.081   4.050
 5429SOL    HW216824   5.189   0.118   4.151
 5430SOL     OW16825   3.979   1.791   4.955
 5430SOL    HW116826   4.031   1.726   5.002
 5430SOL    HW216827   3.973   1.756   4.866
 5431SOL     OW16828   4.662   1.698   4.622
 5431SOL    HW116829   4.742   1.649   4.640
 5431SOL    HW216830   4.618   1.649   4.553
 5432SOL     OW16831   4.117   0.696   4.199
 5432SOL    HW116832   4.138   0.603   4.211
 5432SOL    HW216833   4.024   0.703   4.217
 5433SOL     OW16834   4.346   0.133   3.831
 5433SOL    HW116835   4.417   0.072   3.851
 5433SOL    HW216836   4.297   0.091   3.761
 5434SOL     OW16837   4.507   0.310   5.491
 5434SOL    HW116838   4.573   0.240   5.490
 5434SOL    HW216839   4.459   0.297   5.572
 5435SOL     OW16840   4.599   1.522   4.918
 5435SOL    HW116841   4.584   1.486   4.830
 5435SOL    HW216842   4.669   1.468   4.954
 5436SOL     OW16843   5.060   0.592   5.155
 5436SOL    HW116844   5.089   0.562   5.241
 5436SOL    HW216845   5.099   0.679   5.145
 5437SOL     OW16846   4.539   1.394   4.665
 5437SOL    HW116847   4.624   1.382   4.621
 5437SOL    HW216848   4.475   1.396   4.593
 5438SOL     OW16849   4.652   0.511   4.626
 5438SOL    HW116850   4.628   0.501   4.534
 5438SOL    HW216851   4.681   0.424   4.653
 5439SOL     OW16852   4.267   0.062   4.232
 5439SOL    HW116853   4.181   0.060   4.275
 5439SOL    HW216854   4.259   0.131   4.166
 5440SOL     OW16855   5.135   1.181   3.768
 5440SOL    HW116856   5.142   1.102   3.822
 5440SOL    HW216857   5.048   1.215   3.788
 5441SOL     OW16858   4.026   0.063   3.916
 5441SOL    HW116859   4.084   0.133   3.887
 5441SOL    HW216860   4.082   5.286   3.922
 5442SOL     OW16861   4.661   0.264   4.186
 5442SOL    HW116862   4.633   0.297   4.101
 5442SOL    HW216863   4.756   0.279   4.187
 5443SOL     OW16864   4.802   0.682   5.184
 5443SOL    HW116865   4.733   0.615   5.186
 5443SOL    HW216866   4.883   0.632   5.174
 5444SOL     OW16867   4.939   1.571   4.518
 5444SOL    HW116868   4.961   1.638   4.453
 5444SOL    HW216869   5.021   1.558   4.567
 5445SOL     OW16870   4.193   1.150   4.456
 5445SOL    HW116871   4.125   1.130   4.520
 5445SOL    HW216872   4.153   1.134   4.371
 5446SOL     OW16873   4.995   1.794   4.330
 5446SOL    HW116874   5.037   1.855   4.269
 5446SOL    HW216875   4.928   1.846   4.374
 5447SOL     OW16876   4.752   0.549   3.744
 5447SOL    HW116877   4.705   0.631   3.727
 5447SOL    HW216878   4.806   0.569   3.821
 5448SOL     OW16879   3.804   0.553   5.117
 5448SOL    HW116880   3.895   0.553   5.089
 5448SOL    HW216881   3.798   0.624   5.181
 5449SOL     OW16882   4.278   0.238   4.882
 5449SOL    HW116883   4.311   0.153   4.912
 5449SOL    HW216884   4.187   0.239   4.909
 5450SOL     OW16885   4.592   0.465   4.365
 5450SOL    HW116886   4.543   0.517   4.301
 5450SOL    HW216887   4.613   0.384   4.318
 5451SOL     OW16888   4.699   0.063   4.488
 5451SOL    HW116889   4.634   0.056   4.417
 5451SOL    HW216890   4.713   5.272   4.516
 5452SOL     OW16891   5.156   1.176   4.575
 5452SOL    HW116892   5.101   1.100   4.589
 5452SOL    HW216893   5.168   1.180   4.480
 5453SOL     OW16894   4.214   1.419   3.879
 5453SOL    HW116895   4.139   1.390   3.931
 5453SOL    HW216896   4.202   1.377   3.794
 5454SOL     OW16897   5.128   0.558   3.807
 5454SOL    HW116898   5.051   0.550   3.863
 5454SOL    HW216899   5.202   0.532   3.863
 5455SOL     OW16900   4.247   0.265   4.045
 5455SOL    HW116901   4.292   0.216   3.976
 5455SOL    HW216902   4.226   0.349   4.004
 5456SOL     OW16903   4.779   1.354   5.057
 5456SOL    HW116904   4.704   1.323   5.108
 5456SOL    HW216905   4.855   1.311   5.098
 5457SOL     OW16906   0.006   1.604   5.339
 5457SOL    HW116907   0.041   1.608   5.250
 5457SOL    HW216908   0.083   1.584   5.394
 5458SOL     OW16909   4.855   1.205   4.830
 5458SOL    HW116910   4.792   1.239   4.894
 5458SOL    HW216911   4.821   1.234   4.745
 5459SOL     OW16912   4.624   0.105   5.109
 5459SOL    HW116913   4.657   0.070   5.026
 5459SOL    HW216914   4.699   0.149   5.149
 5460SOL     OW16915   4.709   1.113   5.449
 5460SOL    HW116916   4.617   1.131   5.470
 5460SOL    HW216917   4.706   1.036   5.392
 5461SOL     OW16918   4.433   1.062   4.095
 5461SOL    HW116919   4.418   1.044   4.188
 5461SOL    HW216920   4.508   1.008   4.072
 5462SOL     OW16921   4.143   0.816   4.975
 5462SOL    HW116922   4.211   0.825   5.042
 5462SOL    HW216923   4.108   0.728   4.989
 5463SOL     OW16924   4.991   0.380   4.994
 5463SOL    HW116925   5.024   0.459   5.038
 5463SOL    HW216926   4.900   0.402   4.972
 5464SOL     OW16927   3.796   1.573   5.078
 5464SOL    HW116928   3.767   1.647   5.024
 5464SOL    HW216929   3.891   1.575   5.072
 5465SOL     OW16930   4.071   1.111   4.214
 5465SOL    HW116931   4.076   1.184   4.153
 5465SOL    HW216932   4.068   1.033   4.159
 5466SOL     OW16933   4.277   0.537   4.584
 5466SOL    HW116934   4.292   0.595   4.510
 5466SOL    HW216935   4.343   0.562   4.649
 5467SOL     OW16936   4.972   1.349   4.111
 5467SOL    HW116937   5.026   1.422   4.141
 5467SOL    HW216938   4.884   1.369   4.144
 5468SOL     OW16939   4.996   1.457   4.864
 5468SOL    HW116940   5.050   1.458   4.943
 5468SOL    HW216941   4.941   1.379   4.874
 5469SOL     OW16942   4.070   1.528   5.038
 5469SOL    HW116943   4.058   1.485   4.954
 5469SOL    HW216944   4.165   1.540   5.046
 5470SOL     OW16945   4.139   0.745   5.326
 5470SOL    HW116946   4.201   0.789   5.268
 5470SOL    HW216947   4.179   0.660   5.344
 5471SOL     OW16948   4.755   0.120   5.478
 5471SOL    HW116949   4.799   0.202   5.454
 5471SOL    HW216950   4.797   0.053   5.424
 5472SOL     OW16951   4.203   0.058   5.460
 5472SOL    HW116952   4.142   5.294   5.424
 5472SOL    HW216953   4.148   0.133   5.483
 5473SOL     OW16954   4.308   0.873   4.755
 5473SOL    HW116955   4.338   0.964   4.756
 5473SOL    HW216956   4.251   0.867   4.832
 5474SOL     OW16957   5.086   0.857   4.760
 5474SOL    HW116958   5.008   0.837   4.708
 5474SOL    HW216959   5.140   0.778   4.754
 5475SOL     OW16960   4.928   0.531   3.989
 5475SOL    HW116961   4.932   0.451   4.041
 5475SOL    HW216962   4.884   0.594   4.046
 5476SOL     OW16963   4.019   0.203   4.972
 5476SOL    HW116964   3.980   0.242   5.050
 5476SOL    HW216965   4.021   0.109   4.991
 5477SOL     OW16966   3.770   1.311   5.000
 5477SOL    HW116967   3.803   1.256   5.071
 5477SOL    HW216968   3.777   1.400   5.033
 5478SOL     OW16969   4.449   0.632   4.783
 5478SOL    HW116970   4.523   0.615   4.725
 5478SOL    HW216971   4.420   0.720   4.760
 5479SOL     OW16972   4.030   0.071   4.379
 5479SOL    HW116973   4.009   0.165   4.383
 5479SOL    HW216974   4.076   0.053   4.460
 5480SOL     OW16975   0.029   0.410   4.088
 5480SOL    HW116976   0.057   0.347   4.155
 5480SOL    HW216977   0.009   0.490   4.137
 5481SOL     OW16978   4.752   0.759   4.684
 5481SOL    HW116979   4.749   0.776   4.778
 5481SOL    HW216980   4.725   0.667   4.675
 5482SOL     OW16981   4.697   1.561   5.438
 5482SOL    HW116982   4.686   1.609   5.356
 5482SOL    HW216983   4.745   1.482   5.414
 5483SOL     OW16984   4.077   0.917   5.533
 5483SOL    HW116985   4.159   0.935   5.579
 5483SOL    HW216986   4.101   0.853   5.465
 5484SOL     OW16987   5.028   0.829   3.761
 5484SOL    HW116988   5.063   0.740   3.761
 5484SOL    HW216989   5.055   0.865   3.676
 5485SOL     OW16990   4.789   1.334   4.580
 5485SOL    HW116991   4.794   1.263   4.517
 5485SOL    HW216992   4.847   1.402   4.543
 5486SOL     OW16993   4.033   0.809   4.671
 5486SOL    HW116994   4.126   0.830   4.664
 5486SOL    HW216995   4.031   0.718   4.702
 5487SOL     OW16996   4.055   0.527   4.736
 5487SOL    HW116997   4.019   0.440   4.722
 5487SOL    HW216998   4.132   0.531   4.679
 5488SOL     OW16999   4.861   0.377   5.415
 5488SOL    HW117000   4.811   0.431   5.476
 5488SOL    HW217001   4.946   0.422   5.407
 5489SOL     OW17002   4.846   0.234   5.183
 5489SOL    HW117003   4.857   0.284   5.263
 5489SOL    HW217004   4.910   0.271   5.122
 5490SOL     OW17005   3.729   1.321   3.920
 5490SOL    HW117006   3.642   1.335   3.882
 5490SOL    HW217007   3.726   1.231   3.953
 5491SOL     OW17008   3.813   1.788   4.661
 5491SOL    HW117009   3.784   1.708   4.617
 5491SOL    HW217010   3.903   1.800   4.631
 5492SOL     OW17011   4.219   1.574   4.629
 5492SOL    HW117012   4.288   1.636   4.653
 5492SOL    HW217013   4.263   1.511   4.572
 5493SOL     OW17014   4.705   0.793   4.950
 5493SOL    HW117015   4.761   0.769   5.024
 5493SOL    HW217016   4.621   0.752   4.970
 5494SOL     OW17017   3.759   0.545   4.841
 5494SOL    HW117018   3.839   0.531   4.789
 5494SOL    HW217019   3.790   0.548   4.932
 5495SOL     OW17020   3.910   0.523   5.452
 5495SOL    HW117021   3.974   0.486   5.390
 5495SOL    HW217022   3.872   0.598   5.405
 5496SOL     OW17023   5.114   0.936   5.390
 5496SOL    HW117024   5.122   1.031   5.378
 5496SOL    HW217025   5.117   0.900   5.301
 5497SOL     OW17026   4.539   0.574   4.086
 5497SOL    HW117027   4.542   0.498   4.027
 5497SOL    HW217028   4.464   0.625   4.055
 5498SOL     OW17029   3.966   1.551   5.451
 5498SOL    HW117030   3.944   1.615   5.518
 5498SOL    HW217031   3.969   1.467   5.497
 5499SOL     OW17032   4.424   0.451   4.983
 5499SOL    HW117033   4.373   0.378   4.951
 5499SOL    HW217034   4.423   0.515   4.912
 5500SOL     OW17035   4.644   1.680   5.193
 5500SOL    HW117036   4.622   1.646   5.106
 5500SOL    HW217037   4.644   1.775   5.183
 5501SOL     OW17038   4.186   0.493   3.906
 5501SOL    HW117039   4.246   0.563   3.930
 5501SOL    HW217040   4.101   0.536   3.897
 5502SOL     OW17041   3.869   1.141   5.197
 5502SOL    HW117042   3.871   1.090   5.278
 5502SOL    HW217043   3.886   1.077   5.128
 5503SOL     OW17044   5.053   1.048   4.948
 5503SOL    HW117045   5.074   0.983   4.881
 5503SOL    HW217046   4.982   1.100   4.909
 5504SOL     OW17047   5.037   0.858   4.040
 5504SOL    HW117048   4.954   0.827   4.078
 5504SOL    HW217049   5.023   0.852   3.946
 5505SOL     OW17050   4.959   1.731   4.844
 5505SOL    HW117051   5.045   1.753   4.809
 5505SOL    HW217052   4.961   1.636   4.854
 5506SOL     OW17053   3.808   1.268   4.735
 5506SOL    HW117054   3.793   1.280   4.829
 5506SOL    HW217055   3.736   1.212   4.707
 5507SOL     OW17056   4.401   1.666   5.454
 5507SOL    HW117057   4.348   1.745   5.447
 5507SOL    HW217058   4.471   1.677   5.390
 5508SOL     OW17059   5.111   1.570   4.206
 5508SOL    HW117060   5.181   1.612   4.156
 5508SOL    HW217061   5.060   1.643   4.241
 5509SOL     OW17062   3.861   1.797   5.567
 5509SOL    HW117063   3.810   1.731   5.615
 5509SOL    HW217064   3.909   1.844   5.635
 5510SOL     OW17065   5.017   0.920   4.395
 5510SOL    HW117066   5.095   0.866   4.383
 5510SOL    HW217067   5.035   1.000   4.347
 5511SOL     OW17068   4.536   1.274   5.153
 5511SOL    HW117069   4.508   1.313   5.236
 5511SOL    HW217070   4.467   1.296   5.091
 5512SOL     OW17071   4.394   1.621   3.879
 5512SOL    HW117072   4.406   1.634   3.785
 5512SOL    HW217073   4.339   1.543   3.886
 5513SOL     OW17074   3.985   0.329   4.442
 5513SOL    HW117075   3.897   0.360   4.421
 5513SOL    HW217076   3.984   0.318   4.537
 5514SOL     OW17077   4.908   1.608   3.766
 5514SOL    HW117078   4.919   1.514   3.776
 5514SOL    HW217079   4.852   1.618   3.688
 5515SOL     OW17080   4.547   1.006   5.097
 5515SOL    HW117081   4.591   1.000   5.012
 5515SOL    HW217082   4.547   1.100   5.118
 5516SOL     OW17083   4.641   0.912   4.014
 5516SOL    HW117084   4.702   0.943   3.948
 5516SOL    HW217085   4.687   0.841   4.059
 5517SOL     OW17086   4.093   1.303   5.216
 5517SOL    HW117087   4.079   1.380   5.160
 5517SOL    HW217088   4.016   1.248   5.200
 5518SOL     OW17089   4.777   1.108   4.431
 5518SOL    HW117090   4.706   1.058   4.472
 5518SOL    HW217091   4.835   1.041   4.394
 5519SOL     OW17092   4.737   0.243   4.696
 5519SOL    HW117093   4.718   0.197   4.613
 5519SOL    HW217094   4.732   0.174   4.762
 5520SOL     OW17095   4.327   1.488   4.205
 5520SOL    HW117096   4.373   1.438   4.138
 5520SOL    HW217097   4.257   1.534   4.158
 5521SOL     OW17098   3.984   1.344   4.013
 5521SOL    HW117099   3.891   1.342   3.990
 5521SOL    HW217100   3.986   1.381   4.101
 5522SOL     OW17101   3.837   1.024   5.444
 5522SOL    HW117102   3.760   1.000   5.496
 5522SOL    HW217103   3.911   0.985   5.490
 5523SOL     OW17104   4.396   0.214   5.215
 5523SOL    HW117105   4.478   0.193   5.170
 5523SOL    HW217106   4.423   0.262   5.293
 5524SOL     OW17107   3.801   0.339   3.766
 5524SOL    HW117108   3.718   0.305   3.733
 5524SOL    HW217109   3.822   0.412   3.708
 5525SOL     OW17110   5.163   0.860   5.127
 5525SOL    HW117111   5.110   0.916   5.071
 5525SOL    HW217112   5.253   0.869   5.093
 5526SOL     OW17113   3.796   0.167   4.038
 5526SOL    HW117114   3.798   0.250   3.990
 5526SOL    HW217115   3.880   0.126   4.019
 5527SOL     OW17116   4.906   1.328   3.838
 5527SOL    HW117117   4.812   1.310   3.839
 5527SOL    HW217118   4.930   1.335   3.930
 5528SOL     OW17119   4.343   0.831   5.158
 5528SOL    HW117120   4.399   0.907   5.142
 5528SOL    HW217121   4.404   0.757   5.165
 5529SOL     OW17122   4.440   0.571   5.426
 5529SOL    HW117123   4.481   0.633   5.486
 5529SOL    HW217124   4.467   0.485   5.457
 5530SOL     OW17125   5.181   1.203   5.356
 5530SOL    HW117126   5.172   1.216   5.450
 5530SOL    HW217127   5.275   1.213   5.339
 5531SOL     OW17128   4.102   1.739   5.289
 5531SOL    HW117129   4.017   1.782   5.275
 5531SOL    HW217130   4.080   1.656   5.331
 5532SOL     OW17131   4.940   0.324   4.185
 5532SOL    HW117132   4.995   0.246   4.178
 5532SOL    HW217133   4.971   0.369   4.263
 5533SOL     OW17134   4.314   0.737   4.394
 5533SOL    HW117135   4.352   0.824   4.378
 5533SOL    HW217136   4.246   0.729   4.327
 5534SOL     OW17137   4.591   1.366   3.761
 5534SOL    HW117138   4.550   1.396   3.842
 5534SOL    HW217139   4.606   1.446   3.710
 5535SOL     OW17140   4.384   1.790   4.667
 5535SOL    HW117141   4.365   1.881   4.645
 5535SOL    HW217142   4.480   1.783   4.661
 5536SOL     OW17143   4.592   0.968   4.579
 5536SOL    HW117144   4.642   0.896   4.618
 5536SOL    HW217145   4.556   1.015   4.654
 5537SOL     OW17146   4.807   0.988   3.815
 5537SOL    HW117147   4.782   1.037   3.736
 5537SOL    HW217148   4.881   0.934   3.786
 5538SOL     OW17149   3.949   1.303   5.580
 5538SOL    HW117150   3.882   1.241   5.550
 5538SOL    HW217151   3.930   1.315   5.673
 5539SOL     OW17152   3.808   1.233   4.389
 5539SOL    HW117153   3.815   1.185   4.472
 5539SOL    HW217154   3.876   1.194   4.334
 5540SOL     OW17155   4.406   1.403   5.353
 5540SOL    HW117156   4.325   1.361   5.384
 5540SOL    HW217157   4.402   1.491   5.389
 5541SOL     OW17158   4.154   0.436   4.249
 5541SOL    HW117159   4.186   0.363   4.195
 5541SOL    HW217160   4.107   0.394   4.320
 5542SOL     OW17161   0.095   1.520   4.823
 5542SOL    HW117162   0.027   1.498   4.759
 5542SOL    HW217163   0.098   1.444   4.882
 5543SOL     OW17164   4.053   0.557   5.015
 5543SOL    HW117165   4.109   0.502   5.070
 5543SOL    HW217166   4.073   0.529   4.925
 5544SOL     OW17167   4.552   1.578   4.401
 5544SOL    HW117168   4.539   1.634   4.324
 5544SOL    HW217169   4.476   1.520   4.402
 5545SOL     OW17170   5.148   0.215   4.844
 5545SOL    HW117171   5.158   0.133   4.893
 5545SOL    HW217172   5.103   0.274   4.905
 5546SOL     OW17173   4.724   0.020   4.862
 5546SOL    HW117174   4.673   5.251   4.819
 5546SOL    HW217175   4.811   5.281   4.873
 5547SOL     OW17176   4.495   1.333   4.041
 5547SOL    HW117177   4.465   1.242   4.047
 5547SOL    HW217178   4.577   1.334   4.089
 5548SOL     OW17179   4.344   1.556   5.009
 5548SOL    HW117180   4.345   1.638   5.058
 5548SOL    HW217181   4.431   1.548   4.972
 5549SOL     OW17182   5.034   0.033   3.882
 5549SOL    HW117183   5.117   0.026   3.834
 5549SOL    HW217184   4.985   5.256   3.854
 5550SOL     OW17185   5.028   0.461   4.409
 5550SOL    HW117186   4.972   0.539   4.413
 5550SOL    HW217187   5.015   0.418   4.493
 5551SOL     OW17188   5.295   0.214   4.609
 5551SOL    HW117189   5.237   0.214   4.685
 5551SOL    HW217190   5.273   0.294   4.562
 5552SOL     OW17191   3.767   1.070   4.031
 5552SOL    HW117192   3.861   1.062   4.013
 5552SOL    HW217193   3.739   0.981   4.053
 5553SOL     OW17194   4.604   1.651   4.070
 5553SOL    HW117195   4.533   1.636   4.007
 5553SOL    HW217196   4.577   1.728   4.120
 5554SOL     OW17197   3.951   0.626   5.710
 5554SOL    HW117198   3.863   0.621   5.746
 5554SOL    HW217199   3.941   0.599   5.618
 5555SOL     OW17200   3.941   0.285   6.579
 5555SOL    HW117201   3.970   0.249   6.663
 5555SOL    HW217202   3.857   0.243   6.562
 5556SOL     OW17203   3.727   0.387   6.224
 5556SOL    HW117204   3.643   0.408   6.264
 5556SOL    HW217205   3.709   0.310   6.170
 5557SOL     OW17206   4.291   1.290   6.763
 5557SOL    HW117207   4.204   1.293   6.724
 5557SOL    HW217208   4.306   1.378   6.795
 5558SOL     OW17209   5.287   1.535   6.292
 5558SOL    HW117210   5.247   1.493   6.368
 5558SOL    HW217211   5.221   1.528   6.223
 5559SOL     OW17212   4.861   0.698   6.286
 5559SOL    HW117213   4.910   0.780   6.276
 5559SOL    HW217214   4.810   0.710   6.366
 5560SOL     OW17215   4.478   1.142   6.628
 5560SOL    HW117216   4.409   1.177   6.685
 5560SOL    HW217217   4.513   1.218   6.583
 5561SOL     OW17218   4.593   0.776   7.408
 5561SOL    HW117219   4.570   0.851   7.463
 5561SOL    HW217220   4.617   0.815   7.324
 5562SOL     OW17221   4.411   1.002   6.232
 5562SOL    HW117222   4.475   0.991   6.302
 5562SOL    HW217223   4.341   1.054   6.272
 5563SOL     OW17224   4.436   1.151   7.399
 5563SOL    HW117225   4.483   1.230   7.427
 5563SOL    HW217226   4.354   1.185   7.363
 5564SOL     OW17227   4.054   1.424   6.654
 5564SOL    HW117228   3.982   1.386   6.604
 5564SOL    HW217229   4.103   1.474   6.589
 5565SOL     OW17230   5.161   1.480   6.940
 5565SOL    HW117231   5.208   1.559   6.964
 5565SOL    HW217232   5.100   1.465   7.012
 5566SOL     OW17233   4.169   0.398   7.072
 5566SOL    HW117234   4.244   0.339   7.071
 5566SOL    HW217235   4.094   0.341   7.086
 5567SOL     OW17236   3.943   1.715   6.057
 5567SOL    HW117237   3.964   1.791   6.111
 5567SOL    HW217238   4.017   1.707   5.997
 5568SOL     OW17239   4.859   1.340   7.278
 5568SOL    HW117240   4.898   1.337   7.365
 5568SOL    HW217241   4.807   1.259   7.272
 5569SOL     OW17242   3.955   1.442   6.121
 5569SOL    HW117243   3.937   1.536   6.124
 5569SOL    HW217244   3.895   1.404   6.185
 5570SOL     OW17245   3.984   1.090   6.478
 5570SOL    HW117246   3.979   1.003   6.517
 5570SOL    HW217247   3.925   1.144   6.531
 5571SOL     OW17248   4.331   1.793   7.011
 5571SOL    HW117249   4.251   1.774   7.060
 5571SOL    HW217250   4.356   1.881   7.039
 5572SOL     OW17251   4.309   0.982   5.721
 5572SOL    HW117252   4.355   1.031   5.653
 5572SOL    HW217253   4.348   1.013   5.803
 5573SOL     OW17254   5.251   0.142   7.064
 5573SOL    HW117255   5.297   0.224   7.046
 5573SOL    HW217256   5.272   0.122   7.156
 5574SOL     OW17257   3.839   0.654   6.146
 5574SOL    HW117258   3.811   0.565   6.167
 5574SOL    HW217259   3.831   0.702   6.228
 5575SOL     OW17260   3.757   1.594   5.709
 5575SOL    HW117261   3.739   1.502   5.729
 5575SOL    HW217262   3.733   1.641   5.789
 5576SOL     OW17263   0.113   0.939   6.161
 5576SOL    HW117264   0.201   0.904   6.174
 5576SOL    HW217265   0.126   1.027   6.127
 5577SOL     OW17266   3.847   0.744   7.171
 5577SOL    HW117267   3.938   0.771   7.177
 5577SOL    HW217268   3.797   0.825   7.178
 5578SOL     OW17269   4.338   1.387   6.322
 5578SOL    HW117270   4.292   1.303   6.331
 5578SOL    HW217271   4.321   1.413   6.231
 5579SOL     OW17272   5.005   1.235   7.010
 5579SOL    HW117273   5.038   1.169   6.950
 5579SOL    HW217274   5.060   1.228   7.087
 5580SOL     OW17275   4.536   0.029   6.117
 5580SOL    HW117276   4.564   0.116   6.090
 5580SOL    HW217277   4.440   0.031   6.109
 5581SOL     OW17278   3.914   0.965   6.859
 5581SOL    HW117279   3.999   0.924   6.844
 5581SOL    HW217280   3.852   0.912   6.809
 5582SOL     OW17281   4.897   1.809   7.210
 5582SOL    HW117282   4.916   1.867   7.137
 5582SOL    HW217283   4.920   1.722   7.177
 5583SOL     OW17284   4.050   0.264   7.405
 5583SOL    HW117285   4.102   0.341   7.429
 5583SOL    HW217286   3.963   0.282   7.440
 5584SOL     OW17287   5.168   1.436   6.521
 5584SOL    HW117288   5.106   1.443   6.594
 5584SOL    HW217289   5.161   1.345   6.492
 5585SOL     OW17290   4.318   0.721   5.853
 5585SOL    HW117291   4.322   0.803   5.804
 5585SOL    HW217292   4.253   0.737   5.921
 5586SOL     OW17293   4.996   0.328   6.503
 5586SOL    HW117294   4.906   0.305   6.527
 5586SOL    HW217295   5.048   0.300   6.578
 5587SOL     OW17296   4.517   0.618   7.035
 5587SOL    HW117297   4.490   0.596   7.124
 5587SOL    HW217298   4.477   0.552   6.980
 5588SOL     OW17299   5.116   0.489   7.266
 5588SOL    HW117300   5.118   0.523   7.355
 5588SOL    HW217301   5.181   0.419   7.265
 5589SOL     OW17302   4.678   0.888   7.169
 5589SOL    HW117303   4.731   0.817   7.132
 5589SOL    HW217304   4.629   0.922   7.094
 5590SOL     OW17305   4.718   0.422   6.816
 5590SOL    HW117306   4.633   0.436   6.857
 5590SOL    HW217307   4.700   0.368   6.740
 5591SOL     OW17308   4.775   0.698   6.011
 5591SOL    HW117309   4.791   0.691   6.105
 5591SOL    HW217310   4.692   0.652   5.998
 5592SOL     OW17311   3.812   0.821   6.363
 5592SOL    HW117312   3.893   0.814   6.414
 5592SOL    HW217313   3.769   0.899   6.398
 5593SOL     OW17314   3.850   1.853   7.166
 5593SOL    HW117315   3.851   1.830   7.259
 5593SOL    HW217316   3.760   1.838   7.138
 5594SOL     OW17317   4.601   0.363   5.776
 5594SOL    HW117318   4.635   0.419   5.707
 5594SOL    HW217319   4.655   0.284   5.772
 5595SOL     OW17320   5.093   1.148   6.134
 5595SOL    HW117321   5.182   1.151   6.098
 5595SOL    HW217322   5.042   1.206   6.079
 5596SOL     OW17323   4.248   0.202   6.468
 5596SOL    HW117324   4.270   0.217   6.559
 5596SOL    HW217325   4.270   0.284   6.424
 5597SOL     OW17326   4.729   1.443   6.058
 5597SOL    HW117327   4.692   1.516   6.008
 5597SOL    HW217328   4.710   1.464   6.149
 5598SOL     OW17329   4.078   1.810   6.450
 5598SOL    HW117330   4.122   1.725   6.457
 5598SOL    HW217331   4.147   1.874   6.468
 5599SOL     OW17332   4.940   1.541   7.104
 5599SOL    HW117333   4.927   1.469   7.165
 5599SOL    HW217334   4.878   1.523   7.033
 5600SOL     OW17335   4.043   0.958   5.837
 5600SOL    HW117336   4.125   0.977   5.791
 5600SOL    HW217337   4.012   0.876   5.799
 5601SOL     OW17338   4.190   1.263   7.323
 5601SOL    HW117339   4.163   1.269   7.232
 5601SOL    HW217340   4.108   1.262   7.372
 5602SOL     OW17341   4.831   1.774   5.823
 5602SOL    HW117342   4.759   1.730   5.867
 5602SOL    HW217343   4.857   1.715   5.752
 5603SOL     OW17344   3.921   0.278   7.089
 5603SOL    HW117345   3.842   0.332   7.085
 5603SOL    HW217346   3.912   0.227   7.170
 5604SOL     OW17347   4.189   1.737   5.906
 5604SOL    HW117348   4.232   1.794   5.970
 5604SOL    HW217349   4.261   1.705   5.851
 5605SOL     OW17350   5.096   0.098   6.005
 5605SOL    HW117351   5.083   0.081   5.912
 5605SOL    HW217352   5.190   0.118   6.013
 5606SOL     OW17353   3.979   1.791   6.817
 5606SOL    HW117354   4.031   1.725   6.863
 5606SOL    HW217355   3.970   1.758   6.728
 5607SOL     OW17356   4.662   1.698   6.484
 5607SOL    HW117357   4.742   1.649   6.502
 5607SOL    HW217358   4.618   1.649   6.415
 5608SOL     OW17359   4.118   0.696   6.061
 5608SOL    HW117360   4.138   0.603   6.073
 5608SOL    HW217361   4.024   0.703   6.079
 5609SOL     OW17362   4.347   0.133   5.693
 5609SOL    HW117363   4.417   0.071   5.713
 5609SOL    HW217364   4.297   0.091   5.623
 5610SOL     OW17365   4.507   0.310   7.350
 5610SOL    HW117366   4.574   0.241   7.350
 5610SOL    HW217367   4.465   0.302   7.436
 5611SOL     OW17368   4.599   1.522   6.779
 5611SOL    HW117369   4.584   1.486   6.692
 5611SOL    HW217370   4.669   1.468   6.816
 5612SOL     OW17371   5.061   0.592   7.016
 5612SOL    HW117372   5.089   0.563   7.103
 5612SOL    HW217373   5.099   0.679   7.006
 5613SOL     OW17374   4.539   1.394   6.527
 5613SOL    HW117375   4.624   1.382   6.483
 5613SOL    HW217376   4.475   1.396   6.455
 5614SOL     OW17377   4.652   0.511   6.488
 5614SOL    HW117378   4.628   0.502   6.396
 5614SOL    HW217379   4.681   0.424   6.515
 5615SOL     OW17380   4.267   0.062   6.094
 5615SOL    HW117381   4.181   0.060   6.137
 5615SOL    HW217382   4.259   0.131   6.028
 5616SOL     OW17383   5.135   1.181   5.630
 5616SOL    HW117384   5.142   1.102   5.684
 5616SOL    HW217385   5.048   1.215   5.650
 5617SOL     OW17386   4.026   0.063   5.778
 5617SOL    HW117387   4.084   0.133   5.748
 5617SOL    HW217388   4.082   5.286   5.784
 5618SOL     OW17389   4.661   0.264   6.048
 5618SOL    HW117390   4.633   0.297   5.963
 5618SOL    HW217391   4.756   0.279   6.049
 5619SOL     OW17392   4.802   0.682   7.046
 5619SOL    HW117393   4.733   0.615   7.048
 5619SOL    HW217394   4.883   0.632   7.036
 5620SOL     OW17395   4.940   1.571   6.380
 5620SOL    HW117396   4.961   1.638   6.315
 5620SOL    HW217397   5.021   1.558   6.429
 5621SOL     OW17398   4.194   1.150   6.318
 5621SOL    HW117399   4.125   1.130   6.382
 5621SOL    HW217400   4.153   1.134   6.233
 5622SOL     OW17401   4.995   1.794   6.192
 5622SOL    HW117402   5.037   1.855   6.131
 5622SOL    HW217403   4.928   1.846   6.236
 5623SOL     OW17404   4.752   0.549   5.606
 5623SOL    HW117405   4.705   0.631   5.589
 5623SOL    HW217406   4.806   0.569   5.683
 5624SOL     OW17407   3.804   0.553   6.980
 5624SOL    HW117408   3.895   0.553   6.952
 5624SOL    HW217409   3.798   0.623   7.044
 5625SOL     OW17410   4.279   0.238   6.744
 5625SOL    HW117411   4.311   0.153   6.774
 5625SOL    HW217412   4.187   0.239   6.771
 5626SOL     OW17413   4.592   0.465   6.227
 5626SOL    HW117414   4.543   0.517   6.163
 5626SOL    HW217415   4.613   0.384   6.180
 5627SOL     OW17416   4.699   0.063   6.350
 5627SOL    HW117417   4.635   0.056   6.279
 5627SOL    HW217418   4.713   5.272   6.378
 5628SOL     OW17419   5.156   1.176   6.437
 5628SOL    HW117420   5.101   1.100   6.451
 5628SOL    HW217421   5.168   1.180   6.342
 5629SOL     OW17422   4.214   1.419   5.741
 5629SOL    HW117423   4.139   1.390   5.794
 5629SOL    HW217424   4.202   1.377   5.656
 5630SOL     OW17425   5.128   0.558   5.669
 5630SOL    HW117426   5.051   0.550   5.725
 5630SOL    HW217427   5.202   0.532   5.725
 5631SOL     OW17428   4.247   0.265   5.907
 5631SOL    HW117429   4.292   0.216   5.838
 5631SOL    HW217430   4.226   0.349   5.866
 5632SOL     OW17431   4.779   1.354   6.919
 5632SOL    HW117432   4.704   1.323   6.970
 5632SOL    HW217433   4.855   1.312   6.960
 5633SOL     OW17434   0.007   1.605   7.201
 5633SOL    HW117435   0.041   1.609   7.112
 5633SOL    HW217436   0.083   1.585   7.255
 5634SOL     OW17437   4.855   1.205   6.692
 5634SOL    HW117438   4.792   1.239   6.756
 5634SOL    HW217439   4.821   1.234   6.607
 5635SOL     OW17440   4.623   0.105   6.971
 5635SOL    HW117441   4.657   0.071   6.888
 5635SOL    HW217442   4.699   0.148   7.011
 5636SOL     OW17443   4.709   1.111   7.314
 5636SOL    HW117444   4.617   1.131   7.332
 5636SOL    HW217445   4.706   1.035   7.256
 5637SOL     OW17446   4.433   1.062   5.957
 5637SOL    HW117447   4.418   1.044   6.050
 5637SOL    HW217448   4.508   1.008   5.934
 5638SOL     OW17449   4.143   0.816   6.837
 5638SOL    HW117450   4.212   0.825   6.904
 5638SOL    HW217451   4.108   0.728   6.851
 5639SOL     OW17452   4.991   0.380   6.856
 5639SOL    HW117453   5.024   0.459   6.900
 5639SOL    HW217454   4.900   0.402   6.834
 5640SOL     OW17455   3.795   1.573   6.940
 5640SOL    HW117456   3.766   1.646   6.885
 5640SOL    HW217457   3.891   1.576   6.934
 5641SOL     OW17458   4.071   1.111   6.076
 5641SOL    HW117459   4.076   1.184   6.015
 5641SOL    HW217460   4.068   1.033   6.020
 5642SOL     OW17461   4.277   0.537   6.446
 5642SOL    HW117462   4.292   0.595   6.372
 5642SOL    HW217463   4.343   0.563   6.511
 5643SOL     OW17464   4.972   1.349   5.973
 5643SOL    HW117465   5.026   1.422   6.003
 5643SOL    HW217466   4.884   1.369   6.006
 5644SOL     OW17467   4.996   1.457   6.726
 5644SOL    HW117468   5.050   1.458   6.805
 5644SOL    HW217469   4.941   1.379   6.736
 5645SOL     OW17470   4.070   1.528   6.900
 5645SOL    HW117471   4.058   1.485   6.815
 5645SOL    HW217472   4.165   1.540   6.908
 5646SOL     OW17473   4.139   0.745   7.188
 5646SOL    HW117474   4.201   0.789   7.130
 5646SOL    HW217475   4.180   0.660   7.205
 5647SOL     OW17476   4.750   0.119   7.334
 5647SOL    HW117477   4.798   0.201   7.317
 5647SOL    HW217478   4.797   0.053   7.284
 5648SOL     OW17479   4.203   0.059   7.321
 5648SOL    HW117480   4.141   5.294   7.286
 5648SOL    HW217481   4.147   0.133   7.346
 5649SOL     OW17482   4.308   0.873   6.618
 5649SOL    HW117483   4.338   0.964   6.617
 5649SOL    HW217484   4.251   0.867   6.694
 5650SOL     OW17485   5.086   0.857   6.622
 5650SOL    HW117486   5.008   0.837   6.569
 5650SOL    HW217487   5.140   0.778   6.615
 5651SOL     OW17488   4.928   0.531   5.851
 5651SOL    HW117489   4.932   0.451   5.903
 5651SOL    HW217490   4.884   0.594   5.908
 5652SOL     OW17491   4.020   0.203   6.834
 5652SOL    HW117492   3.980   0.242   6.912
 5652SOL    HW217493   4.021   0.109   6.853
 5653SOL     OW17494   3.771   1.311   6.862
 5653SOL    HW117495   3.803   1.256   6.933
 5653SOL    HW217496   3.777   1.400   6.895
 5654SOL     OW17497   4.449   0.632   6.645
 5654SOL    HW117498   4.523   0.615   6.587
 5654SOL    HW217499   4.420   0.720   6.622
 5655SOL     OW17500   4.030   0.071   6.241
 5655SOL    HW117501   4.009   0.165   6.245
 5655SOL    HW217502   4.076   0.053   6.322
 5656SOL     OW17503   0.029   0.410   5.950
 5656SOL    HW117504   0.057   0.347   6.017
 5656SOL    HW217505   0.009   0.490   5.999
 5657SOL     OW17506   4.752   0.759   6.546
 5657SOL    HW117507   4.749   0.776   6.640
 5657SOL    HW217508   4.725   0.667   6.537
 5658SOL     OW17509   4.698   1.562   7.300
 5658SOL    HW117510   4.687   1.609   7.218
 5658SOL    HW217511   4.745   1.482   7.276
 5659SOL     OW17512   4.077   0.914   7.396
 5659SOL    HW117513   4.161   0.935   7.439
 5659SOL    HW217514   4.101   0.852   7.327
 5660SOL     OW17515   5.028   0.829   5.623
 5660SOL    HW117516   5.063   0.740   5.623
 5660SOL    HW217517   5.055   0.865   5.538
 5661SOL     OW17518   4.790   1.334   6.442
 5661SOL    HW117519   4.794   1.263   6.379
 5661SOL    HW217520   4.847   1.402   6.405
 5662SOL     OW17521   4.032   0.809   6.533
 5662SOL    HW117522   4.126   0.830   6.526
 5662SOL    HW217523   4.031   0.718   6.565
 5663SOL     OW17524   4.056   0.527   6.599
 5663SOL    HW117525   4.019   0.440   6.584
 5663SOL    HW217526   4.132   0.531   6.542
 5664SOL     OW17527   4.862   0.377   7.276
 5664SOL    HW117528   4.812   0.431   7.337
 5664SOL    HW217529   4.946   0.423   7.267
 5665SOL     OW17530   4.846   0.233   7.044
 5665SOL    HW117531   4.856   0.283   7.125
 5665SOL    HW217532   4.910   0.271   6.984
 5666SOL     OW17533   3.729   1.320   5.781
 5666SOL    HW117534   3.642   1.335   5.743
 5666SOL    HW217535   3.726   1.231   5.815
 5667SOL     OW17536   3.814   1.786   6.525
 5667SOL    HW117537   3.784   1.707   6.480
 5667SOL    HW217538   3.904   1.799   6.494
 5668SOL     OW17539   4.220   1.574   6.491
 5668SOL    HW117540   4.288   1.636   6.515
 5668SOL    HW217541   4.263   1.511   6.435
 5669SOL     OW17542   4.705   0.793   6.812
 5669SOL    HW117543   4.761   0.769   6.886
 5669SOL    HW217544   4.621   0.752   6.832
 5670SOL     OW17545   3.759   0.544   6.703
 5670SOL    HW117546   3.839   0.531   6.651
 5670SOL    HW217547   3.790   0.548   6.794
 5671SOL     OW17548   3.912   0.522   7.314
 5671SOL    HW117549   3.974   0.486   7.251
 5671SOL    HW217550   3.872   0.596   7.269
 5672SOL     OW17551   5.112   0.936   7.253
 5672SOL    HW117552   5.120   1.031   7.241
 5672SOL    HW217553   5.116   0.900   7.164
 5673SOL     OW17554   4.539   0.574   5.948
 5673SOL    HW117555   4.542   0.499   5.889
 5673SOL    HW217556   4.464   0.625   5.917
 5674SOL     OW17557   3.966   1.551   7.313
 5674SOL    HW117558   3.944   1.616   7.380
 5674SOL    HW217559   3.969   1.468   7.360
 5675SOL     OW17560   4.424   0.451   6.846
 5675SOL    HW117561   4.373   0.378   6.813
 5675SOL    HW217562   4.423   0.515   6.774
 5676SOL     OW17563   4.645   1.680   7.054
 5676SOL    HW117564   4.622   1.647   6.968
 5676SOL    HW217565   4.644   1.775   7.045
 5677SOL     OW17566   4.186   0.493   5.768
 5677SOL    HW117567   4.246   0.563   5.792
 5677SOL    HW217568   4.101   0.536   5.759
 5678SOL     OW17569   3.869   1.141   7.059
 5678SOL    HW117570   3.870   1.090   7.140
 5678SOL    HW217571   3.886   1.077   6.990
 5679SOL     OW17572   5.053   1.048   6.810
 5679SOL    HW117573   5.074   0.983   6.743
 5679SOL    HW217574   4.982   1.100   6.772
 5680SOL     OW17575   5.037   0.858   5.902
 5680SOL    HW117576   4.955   0.827   5.940
 5680SOL    HW217577   5.023   0.852   5.808
 5681SOL     OW17578   4.959   1.731   6.706
 5681SOL    HW117579   5.045   1.753   6.670
 5681SOL    HW217580   4.961   1.636   6.716
 5682SOL     OW17581   3.808   1.267   6.598
 5682SOL    HW117582   3.794   1.280   6.691
 5682SOL    HW217583   3.735   1.212   6.569
 5683SOL     OW17584   4.400   1.665   7.315
 5683SOL    HW117585   4.349   1.745   7.310
 5683SOL    HW217586   4.471   1.678   7.251
 5684SOL     OW17587   5.111   1.570   6.068
 5684SOL    HW117588   5.181   1.612   6.018
 5684SOL    HW217589   5.060   1.643   6.103
 5685SOL     OW17590   3.861   1.795   7.430
 5685SOL    HW117591   3.810   1.731   7.479
 5685SOL    HW217592   3.908   1.844   7.497
 5686SOL     OW17593   5.017   0.920   6.257
 5686SOL    HW117594   5.095   0.866   6.244
 5686SOL    HW217595   5.035   1.000   6.209
 5687SOL     OW17596   4.536   1.274   7.015
 5687SOL    HW117597   4.507   1.313   7.098
 5687SOL    HW217598   4.467   1.296   6.953
 5688SOL     OW17599   4.394   1.621   5.741
 5688SOL    HW117600   4.406   1.634   5.647
 5688SOL    HW217601   4.339   1.543   5.749
 5689SOL     OW17602   3.985   0.329   6.304
 5689SOL    HW117603   3.897   0.360   6.283
 5689SOL    HW217604   3.984   0.318   6.399
 5690SOL     OW17605   4.908   1.608   5.628
 5690SOL    HW117606   4.919   1.514   5.638
 5690SOL    HW217607   4.852   1.618   5.550
 5691SOL     OW17608   4.548   1.006   6.959
 5691SOL    HW117609   4.591   1.001   6.874
 5691SOL    HW217610   4.546   1.100   6.980
 5692SOL     OW17611   4.641   0.912   5.877
 5692SOL    HW117612   4.703   0.943   5.810
 5692SOL    HW217613   4.687   0.841   5.921
 5693SOL     OW17614   4.092   1.303   7.078
 5693SOL    HW117615   4.079   1.380   7.022
 5693SOL    HW217616   4.016   1.248   7.062
 5694SOL     OW17617   4.778   1.108   6.293
 5694SOL    HW117618   4.706   1.058   6.334
 5694SOL    HW217619   4.835   1.041   6.256
 5695SOL     OW17620   4.737   0.243   6.558
 5695SOL    HW117621   4.718   0.197   6.475
 5695SOL    HW217622   4.732   0.174   6.624
 5696SOL     OW17623   4.327   1.488   6.067
 5696SOL    HW117624   4.373   1.438   6.000
 5696SOL    HW217625   4.257   1.533   6.021
 5697SOL     OW17626   3.984   1.345   5.875
 5697SOL    HW117627   3.891   1.342   5.852
 5697SOL    HW217628   3.986   1.382   5.963
 5698SOL     OW17629   3.837   1.023   7.306
 5698SOL    HW117630   3.760   1.000   7.358
 5698SOL    HW217631   3.911   0.984   7.353
 5699SOL     OW17632   4.396   0.215   7.078
 5699SOL    HW117633   4.479   0.193   7.033
 5699SOL    HW217634   4.423   0.262   7.157
 5700SOL     OW17635   3.801   0.338   5.628
 5700SOL    HW117636   3.718   0.305   5.595
 5700SOL    HW217637   3.822   0.412   5.570
 5701SOL     OW17638   5.163   0.860   6.989
 5701SOL    HW117639   5.110   0.916   6.933
 5701SOL    HW217640   5.253   0.870   6.956
 5702SOL     OW17641   3.796   0.167   5.900
 5702SOL    HW117642   3.798   0.250   5.852
 5702SOL    HW217643   3.880   0.126   5.881
 5703SOL     OW17644   4.906   1.328   5.700
 5703SOL    HW117645   4.812   1.310   5.701
 5703SOL    HW217646   4.930   1.335   5.792
 5704SOL     OW17647   4.343   0.831   7.020
 5704SOL    HW117648   4.399   0.907   7.004
 5704SOL    HW217649   4.404   0.757   7.027
 5705SOL     OW17650   4.439   0.571   7.288
 5705SOL    HW117651   4.481   0.632   7.349
 5705SOL    HW217652   4.467   0.485   7.317
 5706SOL     OW17653   5.181   1.202   7.217
 5706SOL    HW117654   5.171   1.215   7.311
 5706SOL    HW217655   5.275   1.214   7.201
 5707SOL     OW17656   4.102   1.740   7.151
 5707SOL    HW117657   4.017   1.782   7.137
 5707SOL    HW217658   4.080   1.656   7.192
 5708SOL     OW17659   4.940   0.323   6.047
 5708SOL    HW117660   4.995   0.246   6.040
 5708SOL    HW217661   4.971   0.369   6.125
 5709SOL     OW17662   4.314   0.737   6.256
 5709SOL    HW117663   4.352   0.824   6.240
 5709SOL    HW217664   4.246   0.728   6.189
 5710SOL     OW17665   4.591   1.366   5.623
 5710SOL    HW117666   4.550   1.396   5.704
 5710SOL    HW217667   4.606   1.446   5.572
 5711SOL     OW17668   4.385   1.790   6.529
 5711SOL    HW117669   4.365   1.881   6.507
 5711SOL    HW217670   4.480   1.784   6.523
 5712SOL     OW17671   4.592   0.968   6.441
 5712SOL    HW117672   4.642   0.896   6.480
 5712SOL    HW217673   4.556   1.015   6.516
 5713SOL     OW17674   4.807   0.988   5.677
 5713SOL    HW117675   4.782   1.037   5.598
 5713SOL    HW217676   4.881   0.934   5.648
 5714SOL     OW17677   3.949   1.302   7.443
 5714SOL    HW117678   3.883   1.242   7.411
 5714SOL    HW217679   3.927   1.316   7.535
 5715SOL     OW17680   3.809   1.233   6.251
 5715SOL    HW117681   3.814   1.185   6.334
 5715SOL    HW217682   3.876   1.194   6.196
 5716SOL     OW17683   4.405   1.402   7.215
 5716SOL    HW117684   4.325   1.361   7.246
 5716SOL    HW217685   4.402   1.491   7.250
 5717SOL     OW17686   4.154   0.436   6.111
 5717SOL    HW117687   4.186   0.363   6.057
 5717SOL    HW217688   4.107   0.394   6.182
 5718SOL     OW17689   0.094   1.520   6.686
 5718SOL    HW117690   0.027   1.498   6.622
 5718SOL    HW217691   0.098   1.444   6.744
 5719SOL     OW17692   4.054   0.557   6.877
 5719SOL    HW117693   4.110   0.502   6.932
 5719SOL    HW217694   4.073   0.529   6.787
 5720SOL     OW17695   4.553   1.577   6.263
 5720SOL    HW117696   4.539   1.634   6.186
 5720SOL    HW217697   4.476   1.520   6.264
 5721SOL     OW17698   5.148   0.215   6.706
 5721SOL    HW117699   5.158   0.133   6.755
 5721SOL    HW217700   5.103   0.274   6.767
 5722SOL     OW17701   4.724   0.020   6.724
 5722SOL    HW117702   4.673   5.251   6.681
 5722SOL    HW217703   4.811   5.281   6.735
 5723SOL     OW17704   4.495   1.333   5.902
 5723SOL    HW117705   4.465   1.242   5.909
 5723SOL    HW217706   4.577   1.334   5.951
 5724SOL     OW17707   4.344   1.556   6.871
 5724SOL    HW117708   4.345   1.638   6.920
 5724SOL    HW217709   4.431   1.548   6.834
 5725SOL     OW17710   5.034   0.033   5.744
 5725SOL    HW117711   5.117   0.026   5.696
 5725SOL    HW217712   4.985   5.256   5.716
 5726SOL     OW17713   5.028   0.461   6.271
 5726SOL    HW117714   4.972   0.539   6.275
 5726SOL    HW217715   5.015   0.418   6.355
 5727SOL     OW17716   5.295   0.214   6.471
 5727SOL    HW117717   5.237   0.214   6.547
 5727SOL    HW217718   5.273   0.294   6.424
 5728SOL     OW17719   3.767   1.070   5.893
 5728SOL    HW117720   3.861   1.062   5.875
 5728SOL    HW217721   3.739   0.981   5.915
 5729SOL     OW17722   4.605   1.651   5.931
 5729SOL    HW117723   4.533   1.636   5.869
 5729SOL    HW217724   4.577   1.728   5.982
 5730SOL     OW17725   3.950   0.621   7.572
 5730SOL    HW117726   3.861   0.628   7.605
 5730SOL    HW217727   3.940   0.598   7.480
 5731SOL     OW17728   3.945   1.717   7.919
 5731SOL    HW117729   3.973   1.757   8.001
 5731SOL    HW217730   4.024   1.716   7.864
 5732SOL     OW17731   3.940   1.438   7.992
 5732SOL    HW117732   3.926   1.533   7.989
 5732SOL    HW217733   3.881   1.407   8.060
 5733SOL     OW17734   4.310   0.982   7.579
 5733SOL    HW117735   4.354   1.032   7.511
 5733SOL    HW217736   4.348   1.015   7.661
 5734SOL     OW17737   3.755   1.599   7.578
 5734SOL    HW117738   3.739   1.506   7.593
 5734SOL    HW217739   3.728   1.641   7.659
 5735SOL     OW17740   0.117   0.926   8.014
 5735SOL    HW117741   0.211   0.919   8.032
 5735SOL    HW217742   0.102   1.019   8.001
 5736SOL     OW17743   4.535   5.287   7.945
 5736SOL    HW117744   4.577   0.071   7.930
 5736SOL    HW217745   4.441   0.007   7.942
 5737SOL     OW17746   4.314   0.725   7.709
 5737SOL    HW117747   4.315   0.808   7.660
 5737SOL    HW217748   4.254   0.740   7.781
 5738SOL     OW17749   3.783   0.864   0.087
 5738SOL    HW117750   3.846   0.797   0.112
 5738SOL    HW217751   3.782   0.925   0.161
 5739SOL     OW17752   4.592   0.359   7.634
 5739SOL    HW117753   4.631   0.418   7.569
 5739SOL    HW217754   4.652   0.284   7.637
 5740SOL     OW17755   4.046   0.957   7.698
 5740SOL    HW117756   4.126   0.973   7.647
 5740SOL    HW217757   4.009   0.878   7.659
 5741SOL     OW17758   4.836   1.776   7.685
 5741SOL    HW117759   4.762   1.733   7.727
 5741SOL    HW217760   4.861   1.716   7.614
 5742SOL     OW17761   4.190   1.739   7.770
 5742SOL    HW117762   4.240   1.791   7.833
 5742SOL    HW217763   4.257   1.701   7.712
 5743SOL     OW17764   5.113   0.113   7.871
 5743SOL    HW117765   5.085   0.089   7.783
 5743SOL    HW217766   5.208   0.100   7.870
 5744SOL     OW17767   4.116   0.695   7.918
 5744SOL    HW117768   4.118   0.600   7.928
 5744SOL    HW217769   4.026   0.719   7.937
 5745SOL     OW17770   4.341   0.132   7.560
 5745SOL    HW117771   4.420   0.079   7.575
 5745SOL    HW217772   4.296   0.088   7.488
 5746SOL     OW17773   4.272   0.064   7.951
 5746SOL    HW117774   4.180   0.047   7.972
 5746SOL    HW217775   4.269   0.137   7.889
 5747SOL     OW17776   5.135   1.180   7.489
 5747SOL    HW117777   5.149   1.109   7.551
 5747SOL    HW217778   5.048   1.214   7.510
 5748SOL     OW17779   4.029   0.074   7.662
 5748SOL    HW117780   4.079   0.132   7.604
 5748SOL    HW217781   4.078   5.292   7.660
 5749SOL     OW17782   4.673   0.229   7.911
 5749SOL    HW117783   4.620   0.292   7.862
 5749SOL    HW217784   4.758   0.271   7.920
 5750SOL     OW17785   4.162   1.148   0.099
 5750SOL    HW117786   4.089   1.191   0.144
 5750SOL    HW217787   4.132   1.136   0.009
 5751SOL     OW17788   5.010   1.805   8.012
 5751SOL    HW117789   5.049   1.871   7.954
 5751SOL    HW217790   4.935   1.850   8.053
 5752SOL     OW17791   4.754   0.551   7.465
 5752SOL    HW117792   4.705   0.631   7.450
 5752SOL    HW217793   4.801   0.566   7.547
 5753SOL     OW17794   4.211   1.417   7.603
 5753SOL    HW117795   4.137   1.388   7.657
 5753SOL    HW217796   4.197   1.375   7.518
 5754SOL     OW17797   5.128   0.558   7.531
 5754SOL    HW117798   5.050   0.550   7.587
 5754SOL    HW217799   5.199   0.522   7.585
 5755SOL     OW17800   4.249   0.273   7.774
 5755SOL    HW117801   4.289   0.219   7.705
 5755SOL    HW217802   4.227   0.355   7.730
 5756SOL     OW17803   4.438   1.063   7.810
 5756SOL    HW117804   4.409   1.048   7.901
 5756SOL    HW217805   4.516   1.009   7.801
 5757SOL     OW17806   4.089   1.105   7.925
 5757SOL    HW117807   4.069   1.184   7.875
 5757SOL    HW217808   4.075   1.033   7.864
 5758SOL     OW17809   4.958   1.359   7.818
 5758SOL    HW117810   5.015   1.430   7.846
 5758SOL    HW217811   4.905   1.339   7.896
 5759SOL     OW17812   0.028   0.639   7.937
 5759SOL    HW117813   5.274   0.673   8.008
 5759SOL    HW217814   0.048   0.715   7.883
 5760SOL     OW17815   4.926   0.529   7.714
 5760SOL    HW117816   4.929   0.444   7.757
 5760SOL    HW217817   4.893   0.589   7.780
 5761SOL     OW17818   0.027   0.407   7.800
 5761SOL    HW117819   0.031   0.342   7.871
 5761SOL    HW217820   0.023   0.491   7.845
 5762SOL     OW17821   5.036   0.832   7.491
 5762SOL    HW117822   5.064   0.741   7.487
 5762SOL    HW217823   5.059   0.868   7.405
 5763SOL     OW17824   3.730   1.324   7.639
 5763SOL    HW117825   3.643   1.337   7.603
 5763SOL    HW217826   3.729   1.234   7.673
 5764SOL     OW17827   4.565   0.608   7.759
 5764SOL    HW117828   4.557   0.516   7.733
 5764SOL    HW217829   4.475   0.640   7.762
 5765SOL     OW17830   4.184   0.495   7.636
 5765SOL    HW117831   4.244   0.567   7.654
 5765SOL    HW217832   4.099   0.537   7.621
 5766SOL     OW17833   5.032   0.847   7.775
 5766SOL    HW117834   4.939   0.864   7.791
 5766SOL    HW217835   5.040   0.845   7.680
 5767SOL     OW17836   5.104   1.573   7.907
 5767SOL    HW117837   5.199   1.581   7.913
 5767SOL    HW217838   5.070   1.655   7.943
 5768SOL     OW17839   4.389   1.621   7.603
 5768SOL    HW117840   4.403   1.632   7.509
 5768SOL    HW217841   4.337   1.541   7.610
 5769SOL     OW17842   4.911   1.610   7.487
 5769SOL    HW117843   4.920   1.516   7.501
 5769SOL    HW217844   4.851   1.618   7.412
 5770SOL     OW17845   4.655   0.907   7.760
 5770SOL    HW117846   4.705   0.931   7.681
 5770SOL    HW217847   4.641   0.812   7.751
 5771SOL     OW17848   4.330   1.508   7.935
 5771SOL    HW117849   4.376   1.447   7.877
 5771SOL    HW217850   4.256   1.538   7.884
 5772SOL     OW17851   3.983   1.345   7.743
 5772SOL    HW117852   3.891   1.343   7.716
 5772SOL    HW217853   3.981   1.382   7.832
 5773SOL     OW17854   3.798   0.338   7.490
 5773SOL    HW117855   3.716   0.306   7.453
 5773SOL    HW217856   3.822   0.413   7.436
 5774SOL     OW17857   3.787   0.183   7.743
 5774SOL    HW117858   3.785   0.258   7.684
 5774SOL    HW217859   3.868   0.137   7.721
 5775SOL     OW17860   4.904   1.328   7.555
 5775SOL    HW117861   4.809   1.314   7.554
 5775SOL    HW217862   4.926   1.341   7.647
 5776SOL     OW17863   5.271   1.742   0.322
 5776SOL    HW117864   5.273   1.829   0.282
 5776SOL    HW217865   0.047   1.741   0.381
 5777SOL     OW17866   4.942   0.325   7.909
 5777SOL    HW117867   5.005   0.253   7.906
 5777SOL    HW217868   4.952   0.363   7.996
 5778SOL     OW17869   4.354   0.738   8.051
 5778SOL    HW117870   4.355   0.818   0.024
 5778SOL    HW217871   4.266   0.734   8.015
 5779SOL     OW17872   4.592   1.366   7.485
 5779SOL    HW117873   4.551   1.395   7.567
 5779SOL    HW217874   4.606   1.446   7.436
 5780SOL     OW17875   4.802   0.977   7.540
 5780SOL    HW117876   4.778   1.032   7.466
 5780SOL    HW217877   4.880   0.930   7.512
 5781SOL     OW17878   4.113   0.422   7.985
 5781SOL    HW117879   4.165   0.369   7.925
 5781SOL    HW217880   4.162   0.420   8.067
 5782SOL     OW17881   4.489   1.336   7.761
 5782SOL    HW117882   4.460   1.244   7.764
 5782SOL    HW217883   4.567   1.338   7.816
 5783SOL     OW17884   5.036   0.037   7.611
 5783SOL    HW117885   5.115   0.029   7.558
 5783SOL    HW217886   4.986   5.257   7.593
 5784SOL     OW17887   3.776   1.078   7.749
 5784SOL    HW117888   3.870   1.068   7.736
 5784SOL    HW217889   3.745   0.989   7.764
 5785SOL     OW17890   4.613   1.648   7.782
 5785SOL    HW117891   4.537   1.627   7.728
 5785SOL    HW217892   4.581   1.711   7.846
 5786SOL     OW17893   3.942   2.485   0.123
 5786SOL    HW117894   3.862   2.448   0.161
 5786SOL    HW217895   3.965   2.424   0.053
 5787SOL     OW17896   3.949   2.144   0.992
 5787SOL    HW117897   3.977   2.109   1.077
 5787SOL    HW217898   3.859   2.112   0.982
 5788SOL     OW17899   3.727   2.246   0.638
 5788SOL    HW117900   3.645   2.271   0.679
 5788SOL    HW217901   3.706   2.165   0.590
 5789SOL     OW17902   4.291   3.152   1.176
 5789SOL    HW117903   4.204   3.156   1.138
 5789SOL    HW217904   4.307   3.240   1.209
 5790SOL     OW17905   5.284   3.411   0.707
 5790SOL    HW117906   5.249   3.358   0.778
 5790SOL    HW217907   5.226   3.395   0.633
 5791SOL     OW17908   4.860   2.561   0.699
 5791SOL    HW117909   4.910   2.642   0.689
 5791SOL    HW217910   4.811   2.574   0.781
 5792SOL     OW17911   4.477   3.003   1.042
 5792SOL    HW117912   4.409   3.039   1.099
 5792SOL    HW217913   4.513   3.080   0.997
 5793SOL     OW17914   4.594   2.634   1.823
 5793SOL    HW117915   4.577   2.705   1.884
 5793SOL    HW217916   4.615   2.677   1.740
 5794SOL     OW17917   4.408   2.862   0.650
 5794SOL    HW117918   4.474   2.852   0.718
 5794SOL    HW217919   4.340   2.916   0.689
 5795SOL     OW17920   4.435   3.013   1.814
 5795SOL    HW117921   4.483   3.091   1.842
 5795SOL    HW217922   4.354   3.046   1.777
 5796SOL     OW17923   4.055   3.286   1.068
 5796SOL    HW117924   3.982   3.249   1.018
 5796SOL    HW217925   4.104   3.337   1.003
 5797SOL     OW17926   5.161   3.342   1.354
 5797SOL    HW117927   5.208   3.421   1.378
 5797SOL    HW217928   5.102   3.326   1.427
 5798SOL     OW17929   4.174   2.260   1.486
 5798SOL    HW117930   4.249   2.201   1.492
 5798SOL    HW217931   4.098   2.204   1.500
 5799SOL     OW17932   3.945   3.576   0.471
 5799SOL    HW117933   3.965   3.652   0.525
 5799SOL    HW217934   4.020   3.568   0.412
 5800SOL     OW17935   4.859   3.202   1.694
 5800SOL    HW117936   4.899   3.198   1.781
 5800SOL    HW217937   4.807   3.122   1.687
 5801SOL     OW17938   3.950   3.302   0.528
 5801SOL    HW117939   3.938   3.397   0.531
 5801SOL    HW217940   3.892   3.268   0.597
 5802SOL     OW17941   3.982   2.952   0.890
 5802SOL    HW117942   3.979   2.866   0.931
 5802SOL    HW217943   3.925   3.006   0.945
 5803SOL     OW17944   4.331   3.655   1.425
 5803SOL    HW117945   4.251   3.637   1.474
 5803SOL    HW217946   4.356   3.743   1.453
 5804SOL     OW17947   4.352   2.821   0.135
 5804SOL    HW117948   4.299   2.897   0.110
 5804SOL    HW217949   4.404   2.852   0.209
 5805SOL     OW17950   3.839   2.513   0.563
 5805SOL    HW117951   3.809   2.424   0.584
 5805SOL    HW217952   3.831   2.561   0.645
 5806SOL     OW17953   3.755   3.457   0.110
 5806SOL    HW117954   3.741   3.369   0.145
 5806SOL    HW217955   3.738   3.515   0.184
 5807SOL     OW17956   0.115   2.808   0.596
 5807SOL    HW117957   0.205   2.774   0.589
 5807SOL    HW217958   0.109   2.871   0.524
 5808SOL     OW17959   3.847   2.605   1.586
 5808SOL    HW117960   3.939   2.632   1.592
 5808SOL    HW217961   3.798   2.687   1.593
 5809SOL     OW17962   4.337   3.249   0.735
 5809SOL    HW117963   4.292   3.166   0.744
 5809SOL    HW217964   4.322   3.275   0.644
 5810SOL     OW17965   5.005   3.098   1.425
 5810SOL    HW117966   5.038   3.031   1.364
 5810SOL    HW217967   5.061   3.090   1.502
 5811SOL     OW17968   4.541   1.865   0.513
 5811SOL    HW117969   4.580   1.950   0.489
 5811SOL    HW217970   4.447   1.883   0.520
 5812SOL     OW17971   3.914   2.827   1.272
 5812SOL    HW117972   3.999   2.786   1.258
 5812SOL    HW217973   3.852   2.773   1.223
 5813SOL     OW17974   4.895   3.670   1.624
 5813SOL    HW117975   4.916   3.730   1.552
 5813SOL    HW217976   4.919   3.583   1.591
 5814SOL     OW17977   4.058   2.112   1.814
 5814SOL    HW117978   4.102   2.195   1.831
 5814SOL    HW217979   3.968   2.125   1.844
 5815SOL     OW17980   5.168   3.297   0.934
 5815SOL    HW117981   5.106   3.304   1.007
 5815SOL    HW217982   5.162   3.206   0.906
 5816SOL     OW17983   4.322   2.575   0.283
 5816SOL    HW117984   4.340   2.653   0.231
 5816SOL    HW217985   4.258   2.603   0.348
 5817SOL     OW17986   4.995   2.199   0.919
 5817SOL    HW117987   4.907   2.169   0.940
 5817SOL    HW217988   5.050   2.164   0.989
 5818SOL     OW17989   4.514   2.480   1.450
 5818SOL    HW117990   4.488   2.455   1.539
 5818SOL    HW217991   4.475   2.412   1.395
 5819SOL     OW17992   5.114   2.343   1.681
 5819SOL    HW117993   5.116   2.380   1.769
 5819SOL    HW217994   5.191   2.285   1.677
 5820SOL     OW17995   4.677   2.749   1.583
 5820SOL    HW117996   4.730   2.678   1.547
 5820SOL    HW217997   4.629   2.784   1.508
 5821SOL     OW17998   4.715   2.275   1.237
 5821SOL    HW117999   4.628   2.294   1.272
 5821SOL    HW218000   4.698   2.228   1.155
 5822SOL     OW18001   4.778   2.559   0.426
 5822SOL    HW118002   4.794   2.555   0.520
 5822SOL    HW218003   4.694   2.514   0.413
 5823SOL     OW18004   3.812   2.684   0.776
 5823SOL    HW118005   3.893   2.676   0.827
 5823SOL    HW218006   3.769   2.761   0.812
 5824SOL     OW18007   3.850   3.713   1.579
 5824SOL    HW118008   3.851   3.692   1.672
 5824SOL    HW218009   3.759   3.701   1.552
 5825SOL     OW18010   4.610   2.219   0.201
 5825SOL    HW118011   4.654   2.268   0.132
 5825SOL    HW218012   4.610   2.129   0.170
 5826SOL     OW18013   5.096   3.010   0.549
 5826SOL    HW118014   5.179   3.004   0.502
 5826SOL    HW218015   5.042   3.068   0.496
 5827SOL     OW18016   4.274   2.043   0.894
 5827SOL    HW118017   4.276   2.072   0.985
 5827SOL    HW218018   4.276   2.124   0.843
 5828SOL     OW18019   4.728   3.306   0.472
 5828SOL    HW118020   4.690   3.378   0.423
 5828SOL    HW218021   4.709   3.327   0.564
 5829SOL     OW18022   4.078   3.672   0.864
 5829SOL    HW118023   4.122   3.587   0.871
 5829SOL    HW218024   4.147   3.736   0.882
 5830SOL     OW18025   4.939   3.403   1.519
 5830SOL    HW118026   4.926   3.330   1.580
 5830SOL    HW218027   4.880   3.384   1.446
 5831SOL     OW18028   4.048   2.804   0.257
 5831SOL    HW118029   4.113   2.849   0.203
 5831SOL    HW218030   4.053   2.712   0.229
 5832SOL     OW18031   4.190   3.127   1.738
 5832SOL    HW118032   4.164   3.131   1.646
 5832SOL    HW218033   4.108   3.125   1.787
 5833SOL     OW18034   4.823   3.635   0.224
 5833SOL    HW118035   4.768   3.596   0.292
 5833SOL    HW218036   4.839   3.565   0.161
 5834SOL     OW18037   3.925   2.142   1.502
 5834SOL    HW118038   3.843   2.191   1.498
 5834SOL    HW218039   3.906   2.068   1.560
 5835SOL     OW18040   4.188   3.599   0.323
 5835SOL    HW118041   4.231   3.658   0.385
 5835SOL    HW218042   4.259   3.572   0.264
 5836SOL     OW18043   5.115   1.987   0.440
 5836SOL    HW118044   5.099   1.968   0.348
 5836SOL    HW218045   5.210   1.994   0.447
 5837SOL     OW18046   3.979   3.653   1.231
 5837SOL    HW118047   4.031   3.587   1.277
 5837SOL    HW218048   3.971   3.620   1.142
 5838SOL     OW18049   4.662   3.560   0.899
 5838SOL    HW118050   4.743   3.511   0.915
 5838SOL    HW218051   4.618   3.511   0.829
 5839SOL     OW18052   4.111   2.559   0.477
 5839SOL    HW118053   4.134   2.467   0.488
 5839SOL    HW218054   4.018   2.564   0.499
 5840SOL     OW18055   4.355   1.972   0.137
 5840SOL    HW118056   4.449   1.960   0.143
 5840SOL    HW218057   4.334   1.952   0.046
 5841SOL     OW18058   4.489   2.141   1.755
 5841SOL    HW118059   4.566   2.084   1.754
 5841SOL    HW218060   4.441   2.115   1.834
 5842SOL     OW18061   4.599   3.383   1.194
 5842SOL    HW118062   4.584   3.348   1.106
 5842SOL    HW218063   4.670   3.330   1.230
 5843SOL     OW18064   5.057   2.454   1.432
 5843SOL    HW118065   5.089   2.422   1.517
 5843SOL    HW218066   5.100   2.538   1.420
 5844SOL     OW18067   4.539   3.255   0.941
 5844SOL    HW118068   4.624   3.244   0.898
 5844SOL    HW218069   4.476   3.259   0.869
 5845SOL     OW18070   4.651   2.371   0.902
 5845SOL    HW118071   4.627   2.362   0.810
 5845SOL    HW218072   4.682   2.284   0.927
 5846SOL     OW18073   4.274   1.925   0.504
 5846SOL    HW118074   4.193   1.924   0.556
 5846SOL    HW218075   4.266   2.004   0.450
 5847SOL     OW18076   5.139   3.035   0.046
 5847SOL    HW118077   5.134   2.960   0.105
 5847SOL    HW218078   5.055   3.080   0.056
 5848SOL     OW18079   4.035   1.919   0.171
 5848SOL    HW118080   4.101   1.987   0.187
 5848SOL    HW218081   4.071   1.840   0.212
 5849SOL     OW18082   4.662   2.110   0.458
 5849SOL    HW118083   4.635   2.150   0.375
 5849SOL    HW218084   4.756   2.127   0.463
 5850SOL     OW18085   4.801   2.544   1.460
 5850SOL    HW118086   4.734   2.475   1.462
 5850SOL    HW218087   4.884   2.497   1.451
 5851SOL     OW18088   4.939   3.434   0.796
 5851SOL    HW118089   4.961   3.499   0.730
 5851SOL    HW218090   5.022   3.418   0.842
 5852SOL     OW18091   4.192   3.013   0.732
 5852SOL    HW118092   4.124   2.993   0.796
 5852SOL    HW218093   4.151   2.997   0.647
 5853SOL     OW18094   4.991   3.656   0.606
 5853SOL    HW118095   5.036   3.719   0.550
 5853SOL    HW218096   4.925   3.708   0.652
 5854SOL     OW18097   4.758   2.390   0.031
 5854SOL    HW118098   4.712   2.470   0.004
 5854SOL    HW218099   4.818   2.419   0.100
 5855SOL     OW18100   3.804   2.417   1.392
 5855SOL    HW118101   3.896   2.415   1.365
 5855SOL    HW218102   3.799   2.486   1.457
 5856SOL     OW18103   4.283   2.089   1.166
 5856SOL    HW118104   4.325   2.014   1.207
 5856SOL    HW218105   4.192   2.085   1.197
 5857SOL     OW18106   4.591   2.320   0.638
 5857SOL    HW118107   4.549   2.376   0.573
 5857SOL    HW218108   4.613   2.240   0.591
 5858SOL     OW18109   4.739   1.915   0.750
 5858SOL    HW118110   4.680   1.908   0.675
 5858SOL    HW218111   4.717   1.839   0.805
 5859SOL     OW18112   5.156   3.038   0.849
 5859SOL    HW118113   5.102   2.961   0.863
 5859SOL    HW218114   5.167   3.044   0.754
 5860SOL     OW18115   4.207   3.301   0.172
 5860SOL    HW118116   4.134   3.260   0.219
 5860SOL    HW218117   4.213   3.254   0.090
 5861SOL     OW18118   5.128   2.446   0.075
 5861SOL    HW118119   5.069   2.422   0.146
 5861SOL    HW218120   5.195   2.377   0.075
 5862SOL     OW18121   4.240   2.126   0.323
 5862SOL    HW118122   4.292   2.074   0.261
 5862SOL    HW218123   4.227   2.210   0.279
 5863SOL     OW18124   4.779   3.216   1.333
 5863SOL    HW118125   4.704   3.185   1.384
 5863SOL    HW218126   4.855   3.173   1.374
 5864SOL     OW18127   0.006   3.467   1.615
 5864SOL    HW118128   0.041   3.471   1.526
 5864SOL    HW218129   0.083   3.446   1.669
 5865SOL     OW18130   4.854   3.066   1.106
 5865SOL    HW118131   4.792   3.102   1.169
 5865SOL    HW218132   4.821   3.096   1.021
 5866SOL     OW18133   4.642   1.959   1.395
 5866SOL    HW118134   4.664   1.941   1.304
 5866SOL    HW218135   4.721   1.998   1.432
 5867SOL     OW18136   4.709   2.975   1.725
 5867SOL    HW118137   4.617   2.993   1.746
 5867SOL    HW218138   4.706   2.898   1.668
 5868SOL     OW18139   4.440   2.926   0.381
 5868SOL    HW118140   4.421   2.907   0.473
 5868SOL    HW218141   4.517   2.873   0.361
 5869SOL     OW18142   4.143   2.677   1.251
 5869SOL    HW118143   4.211   2.687   1.318
 5869SOL    HW218144   4.108   2.589   1.265
 5870SOL     OW18145   4.988   2.237   1.277
 5870SOL    HW118146   5.023   2.316   1.318
 5870SOL    HW218147   4.898   2.260   1.253
 5871SOL     OW18148   3.795   3.435   1.353
 5871SOL    HW118149   3.767   3.509   1.299
 5871SOL    HW218150   3.891   3.438   1.348
 5872SOL     OW18151   4.067   2.972   0.491
 5872SOL    HW118152   4.074   3.045   0.429
 5872SOL    HW218153   4.075   2.894   0.437
 5873SOL     OW18154   4.275   2.398   0.859
 5873SOL    HW118155   4.290   2.456   0.785
 5873SOL    HW218156   4.341   2.423   0.924
 5874SOL     OW18157   4.970   3.209   0.392
 5874SOL    HW118158   5.026   3.282   0.419
 5874SOL    HW218159   4.883   3.232   0.424
 5875SOL     OW18160   4.996   3.319   1.140
 5875SOL    HW118161   5.050   3.320   1.219
 5875SOL    HW218162   4.942   3.240   1.150
 5876SOL     OW18163   4.070   3.390   1.314
 5876SOL    HW118164   4.058   3.347   1.230
 5876SOL    HW218165   4.165   3.402   1.322
 5877SOL     OW18166   4.139   2.607   1.602
 5877SOL    HW118167   4.201   2.651   1.544
 5877SOL    HW218168   4.178   2.521   1.618
 5878SOL     OW18169   4.718   1.989   1.755
 5878SOL    HW118170   4.776   2.060   1.730
 5878SOL    HW218171   4.765   1.909   1.729
 5879SOL     OW18172   4.221   1.902   1.748
 5879SOL    HW118173   4.178   1.848   1.683
 5879SOL    HW218174   4.163   1.977   1.760
 5880SOL     OW18175   4.307   2.735   1.031
 5880SOL    HW118176   4.339   2.826   1.032
 5880SOL    HW218177   4.251   2.729   1.109
 5881SOL     OW18178   5.086   2.717   1.038
 5881SOL    HW118179   5.010   2.699   0.982
 5881SOL    HW218180   5.142   2.641   1.029
 5882SOL     OW18181   4.932   2.394   0.268
 5882SOL    HW118182   4.935   2.313   0.320
 5882SOL    HW218183   4.886   2.456   0.323
 5883SOL     OW18184   4.022   2.060   1.247
 5883SOL    HW118185   3.985   2.092   1.329
 5883SOL    HW218186   4.003   1.966   1.248
 5884SOL     OW18187   3.770   3.173   1.276
 5884SOL    HW118188   3.803   3.118   1.347
 5884SOL    HW218189   3.777   3.262   1.309
 5885SOL     OW18190   4.447   2.492   1.056
 5885SOL    HW118191   4.522   2.477   1.000
 5885SOL    HW218192   4.419   2.582   1.036
 5886SOL     OW18193   4.027   1.926   0.624
 5886SOL    HW118194   4.008   2.017   0.647
 5886SOL    HW218195   4.035   1.881   0.708
 5887SOL     OW18196   0.048   2.239   0.355
 5887SOL    HW118197   0.062   2.182   0.431
 5887SOL    HW218198   0.019   2.322   0.392
 5888SOL     OW18199   4.751   2.621   0.959
 5888SOL    HW118200   4.749   2.638   1.053
 5888SOL    HW218201   4.725   2.529   0.951
 5889SOL     OW18202   4.696   3.423   1.714
 5889SOL    HW118203   4.686   3.471   1.632
 5889SOL    HW218204   4.745   3.344   1.690
 5890SOL     OW18205   4.077   2.777   1.809
 5890SOL    HW118206   4.159   2.797   1.854
 5890SOL    HW218207   4.101   2.715   1.741
 5891SOL     OW18208   5.031   2.696   0.026
 5891SOL    HW118209   5.063   2.608   0.044
 5891SOL    HW218210   5.058   2.714   8.016
 5892SOL     OW18211   4.789   3.197   0.856
 5892SOL    HW118212   4.794   3.125   0.793
 5892SOL    HW218213   4.847   3.264   0.820
 5893SOL     OW18214   4.033   2.671   0.946
 5893SOL    HW118215   4.126   2.692   0.941
 5893SOL    HW218216   4.031   2.581   0.979
 5894SOL     OW18217   4.054   2.389   1.012
 5894SOL    HW118218   4.019   2.301   0.998
 5894SOL    HW218219   4.131   2.394   0.955
 5895SOL     OW18220   4.856   2.238   1.682
 5895SOL    HW118221   4.808   2.292   1.744
 5895SOL    HW218222   4.943   2.277   1.677
 5896SOL     OW18223   4.885   2.063   1.469
 5896SOL    HW118224   4.873   2.126   1.541
 5896SOL    HW218225   4.925   2.115   1.399
 5897SOL     OW18226   3.736   3.185   0.189
 5897SOL    HW118227   3.649   3.199   0.151
 5897SOL    HW218228   3.733   3.095   0.222
 5898SOL     OW18229   3.814   3.648   0.938
 5898SOL    HW118230   3.785   3.569   0.894
 5898SOL    HW218231   3.904   3.661   0.908
 5899SOL     OW18232   4.220   3.436   0.905
 5899SOL    HW118233   4.288   3.498   0.930
 5899SOL    HW218234   4.264   3.373   0.848
 5900SOL     OW18235   4.705   2.653   1.226
 5900SOL    HW118236   4.762   2.631   1.300
 5900SOL    HW218237   4.620   2.615   1.249
 5901SOL     OW18238   3.760   2.407   1.117
 5901SOL    HW118239   3.841   2.395   1.067
 5901SOL    HW218240   3.788   2.410   1.208
 5902SOL     OW18241   3.916   2.382   1.728
 5902SOL    HW118242   3.972   2.342   1.661
 5902SOL    HW218243   3.875   2.456   1.684
 5903SOL     OW18244   5.113   2.799   1.666
 5903SOL    HW118245   5.121   2.893   1.654
 5903SOL    HW218246   5.117   2.762   1.578
 5904SOL     OW18247   4.543   2.431   0.369
 5904SOL    HW118248   4.552   2.360   0.305
 5904SOL    HW218249   4.467   2.481   0.339
 5905SOL     OW18250   3.966   3.413   1.727
 5905SOL    HW118251   3.944   3.477   1.794
 5905SOL    HW218252   3.969   3.329   1.774
 5906SOL     OW18253   4.427   2.311   1.258
 5906SOL    HW118254   4.373   2.238   1.229
 5906SOL    HW218255   4.422   2.375   1.186
 5907SOL     OW18256   4.643   3.542   1.469
 5907SOL    HW118257   4.622   3.509   1.382
 5907SOL    HW218258   4.644   3.637   1.459
 5908SOL     OW18259   4.192   2.353   0.178
 5908SOL    HW118260   4.259   2.419   0.198
 5908SOL    HW218261   4.109   2.399   0.190
 5909SOL     OW18262   3.869   3.003   1.473
 5909SOL    HW118263   3.871   2.952   1.554
 5909SOL    HW218264   3.886   2.939   1.404
 5910SOL     OW18265   5.053   2.911   1.224
 5910SOL    HW118266   5.073   2.845   1.157
 5910SOL    HW218267   4.982   2.963   1.185
 5911SOL     OW18268   5.023   2.733   0.319
 5911SOL    HW118269   4.946   2.687   0.353
 5911SOL    HW218270   5.024   2.712   0.226
 5912SOL     OW18271   4.959   3.593   1.121
 5912SOL    HW118272   5.044   3.615   1.084
 5912SOL    HW218273   4.961   3.498   1.130
 5913SOL     OW18274   3.809   3.129   1.012
 5913SOL    HW118275   3.794   3.142   1.105
 5913SOL    HW218276   3.735   3.074   0.984
 5914SOL     OW18277   4.401   3.528   1.730
 5914SOL    HW118278   4.348   3.607   1.723
 5914SOL    HW218279   4.471   3.539   1.666
 5915SOL     OW18280   4.630   1.953   0.132
 5915SOL    HW118281   4.645   1.935   0.040
 5915SOL    HW218282   4.694   1.899   0.178
 5916SOL     OW18283   0.079   2.012   0.523
 5916SOL    HW118284   0.171   2.004   0.496
 5916SOL    HW218285   0.068   1.944   0.590
 5917SOL     OW18286   5.108   3.434   0.478
 5917SOL    HW118287   5.163   3.477   0.412
 5917SOL    HW218288   5.059   3.505   0.520
 5918SOL     OW18289   3.861   3.659   1.843
 5918SOL    HW118290   3.810   3.593   1.891
 5918SOL    HW218291   3.909   3.706   1.911
 5919SOL     OW18292   5.017   2.782   0.671
 5919SOL    HW118293   5.095   2.728   0.658
 5919SOL    HW218294   5.035   2.863   0.623
 5920SOL     OW18295   4.536   3.136   1.430
 5920SOL    HW118296   4.508   3.175   1.512
 5920SOL    HW218297   4.468   3.159   1.367
 5921SOL     OW18298   4.400   3.484   0.157
 5921SOL    HW118299   4.408   3.490   0.062
 5921SOL    HW218300   4.339   3.411   0.171
 5922SOL     OW18301   3.985   2.177   0.717
 5922SOL    HW118302   3.899   2.213   0.694
 5922SOL    HW218303   3.983   2.170   0.812
 5923SOL     OW18304   4.859   3.441   0.044
 5923SOL    HW118305   4.898   3.355   0.060
 5923SOL    HW218306   4.901   3.472   8.044
 5924SOL     OW18307   4.548   2.868   1.373
 5924SOL    HW118308   4.592   2.863   1.288
 5924SOL    HW218309   4.546   2.961   1.394
 5925SOL     OW18310   4.644   2.776   0.300
 5925SOL    HW118311   4.696   2.800   0.223
 5925SOL    HW218312   4.692   2.704   0.341
 5926SOL     OW18313   4.092   3.165   1.492
 5926SOL    HW118314   4.080   3.242   1.436
 5926SOL    HW218315   4.016   3.111   1.476
 5927SOL     OW18316   4.777   2.970   0.708
 5927SOL    HW118317   4.707   2.919   0.748
 5927SOL    HW218318   4.835   2.904   0.668
 5928SOL     OW18319   4.739   2.101   0.968
 5928SOL    HW118320   4.737   2.054   0.885
 5928SOL    HW218321   4.735   2.032   1.035
 5929SOL     OW18322   4.327   3.348   0.479
 5929SOL    HW118323   4.372   3.299   0.411
 5929SOL    HW218324   4.258   3.396   0.433
 5930SOL     OW18325   3.991   3.180   0.292
 5930SOL    HW118326   3.905   3.191   0.252
 5930SOL    HW218327   3.984   3.226   0.376
 5931SOL     OW18328   3.837   2.885   1.720
 5931SOL    HW118329   3.761   2.862   1.773
 5931SOL    HW218330   3.911   2.847   1.766
 5932SOL     OW18331   4.399   2.058   1.500
 5932SOL    HW118332   4.483   2.038   1.459
 5932SOL    HW218333   4.422   2.090   1.587
 5933SOL     OW18334   3.780   2.225   0.039
 5933SOL    HW118335   3.705   2.171   0.014
 5933SOL    HW218336   3.831   2.233   8.038
 5934SOL     OW18337   5.163   2.722   1.403
 5934SOL    HW118338   5.111   2.779   1.347
 5934SOL    HW218339   5.252   2.728   1.369
 5935SOL     OW18340   3.795   2.015   0.303
 5935SOL    HW118341   3.780   2.100   0.262
 5935SOL    HW218342   3.879   1.986   0.268
 5936SOL     OW18343   4.912   3.176   0.119
 5936SOL    HW118344   4.817   3.175   0.114
 5936SOL    HW218345   4.931   3.181   0.213
 5937SOL     OW18346   4.343   2.693   1.434
 5937SOL    HW118347   4.400   2.769   1.418
 5937SOL    HW218348   4.403   2.619   1.442
 5938SOL     OW18349   4.441   2.425   1.703
 5938SOL    HW118350   4.483   2.486   1.764
 5938SOL    HW218351   4.466   2.338   1.736
 5939SOL     OW18352   5.181   3.065   1.632
 5939SOL    HW118353   5.172   3.078   1.726
 5939SOL    HW218354   5.275   3.073   1.615
 5940SOL     OW18355   4.102   3.601   1.565
 5940SOL    HW118356   4.017   3.644   1.550
 5940SOL    HW218357   4.080   3.518   1.606
 5941SOL     OW18358   4.932   2.188   0.461
 5941SOL    HW118359   4.994   2.115   0.450
 5941SOL    HW218360   4.962   2.234   0.539
 5942SOL     OW18361   4.312   2.598   0.670
 5942SOL    HW118362   4.352   2.684   0.657
 5942SOL    HW218363   4.244   2.593   0.603
 5943SOL     OW18364   4.622   3.230   0.036
 5943SOL    HW118365   4.557   3.224   0.106
 5943SOL    HW218366   4.618   3.321   0.007
 5944SOL     OW18367   4.384   3.652   0.943
 5944SOL    HW118368   4.365   3.743   0.921
 5944SOL    HW218369   4.480   3.645   0.937
 5945SOL     OW18370   4.592   2.829   0.855
 5945SOL    HW118371   4.642   2.758   0.894
 5945SOL    HW218372   4.557   2.877   0.930
 5946SOL     OW18373   4.800   2.834   0.085
 5946SOL    HW118374   4.790   2.900   0.016
 5946SOL    HW218375   4.882   2.790   0.065
 5947SOL     OW18376   3.949   3.164   1.856
 5947SOL    HW118377   3.882   3.103   1.826
 5947SOL    HW218378   3.931   3.177   1.949
 5948SOL     OW18379   3.808   3.092   0.665
 5948SOL    HW118380   3.815   3.045   0.748
 5948SOL    HW218381   3.881   3.058   0.612
 5949SOL     OW18382   4.405   3.265   1.629
 5949SOL    HW118383   4.325   3.223   1.661
 5949SOL    HW218384   4.402   3.353   1.665
 5950SOL     OW18385   4.148   2.298   0.524
 5950SOL    HW118386   4.182   2.227   0.469
 5950SOL    HW218387   4.104   2.254   0.596
 5951SOL     OW18388   0.093   3.383   1.100
 5951SOL    HW118389   0.027   3.360   1.035
 5951SOL    HW218390   0.098   3.307   1.157
 5952SOL     OW18391   4.055   2.418   1.292
 5952SOL    HW118392   4.110   2.363   1.347
 5952SOL    HW218393   4.074   2.389   1.203
 5953SOL     OW18394   4.552   3.440   0.677
 5953SOL    HW118395   4.539   3.495   0.600
 5953SOL    HW218396   4.475   3.382   0.678
 5954SOL     OW18397   5.147   2.081   1.115
 5954SOL    HW118398   5.191   2.015   1.169
 5954SOL    HW218399   5.101   2.136   1.177
 5955SOL     OW18400   4.729   1.880   1.141
 5955SOL    HW118401   4.677   1.812   1.100
 5955SOL    HW218402   4.817   1.842   1.146
 5956SOL     OW18403   4.494   3.189   0.309
 5956SOL    HW118404   4.464   3.100   0.324
 5956SOL    HW218405   4.576   3.196   0.358
 5957SOL     OW18406   4.344   3.418   1.285
 5957SOL    HW118407   4.345   3.500   1.334
 5957SOL    HW218408   4.431   3.410   1.248
 5958SOL     OW18409   5.050   1.922   0.188
 5958SOL    HW118410   5.091   1.874   0.116
 5958SOL    HW218411   4.971   1.872   0.208
 5959SOL     OW18412   5.028   2.323   0.683
 5959SOL    HW118413   4.973   2.402   0.687
 5959SOL    HW218414   5.015   2.281   0.768
 5960SOL     OW18415   5.300   2.089   0.878
 5960SOL    HW118416   5.238   2.072   0.949
 5960SOL    HW218417   5.272   2.172   0.841
 5961SOL     OW18418   3.767   2.927   0.304
 5961SOL    HW118419   3.863   2.928   0.308
 5961SOL    HW218420   3.741   2.844   0.344
 5962SOL     OW18421   4.604   3.515   0.350
 5962SOL    HW118422   4.537   3.500   0.284
 5962SOL    HW218423   4.573   3.592   0.398
 5963SOL     OW18424   3.953   2.485   1.986
 5963SOL    HW118425   3.863   2.484   2.020
 5963SOL    HW218426   3.943   2.461   1.894
 5964SOL     OW18427   3.949   2.144   2.854
 5964SOL    HW118428   3.977   2.109   2.939
 5964SOL    HW218429   3.859   2.112   2.844
 5965SOL     OW18430   3.727   2.245   2.500
 5965SOL    HW118431   3.645   2.270   2.541
 5965SOL    HW218432   3.707   2.166   2.450
 5966SOL     OW18433   4.291   3.151   3.039
 5966SOL    HW118434   4.204   3.155   3.000
 5966SOL    HW218435   4.307   3.240   3.071
 5967SOL     OW18436   5.287   3.397   2.568
 5967SOL    HW118437   5.247   3.355   2.644
 5967SOL    HW218438   5.221   3.390   2.499
 5968SOL     OW18439   4.859   2.561   2.561
 5968SOL    HW118440   4.910   2.642   2.551
 5968SOL    HW218441   4.810   2.573   2.642
 5969SOL     OW18442   4.478   3.003   2.904
 5969SOL    HW118443   4.409   3.039   2.961
 5969SOL    HW218444   4.513   3.080   2.859
 5970SOL     OW18445   4.594   2.634   3.685
 5970SOL    HW118446   4.576   2.705   3.746
 5970SOL    HW218447   4.615   2.678   3.603
 5971SOL     OW18448   4.410   2.863   2.508
 5971SOL    HW118449   4.475   2.853   2.578
 5971SOL    HW218450   4.341   2.916   2.548
 5972SOL     OW18451   4.435   3.013   3.676
 5972SOL    HW118452   4.483   3.091   3.704
 5972SOL    HW218453   4.354   3.046   3.639
 5973SOL     OW18454   4.054   3.286   2.930
 5973SOL    HW118455   3.982   3.248   2.880
 5973SOL    HW218456   4.104   3.337   2.865
 5974SOL     OW18457   5.161   3.342   3.215
 5974SOL    HW118458   5.209   3.421   3.240
 5974SOL    HW218459   5.102   3.326   3.289
 5975SOL     OW18460   4.173   2.260   3.348
 5975SOL    HW118461   4.249   2.201   3.354
 5975SOL    HW218462   4.097   2.203   3.361
 5976SOL     OW18463   3.943   3.576   2.333
 5976SOL    HW118464   3.964   3.652   2.387
 5976SOL    HW218465   4.017   3.569   2.273
 5977SOL     OW18466   4.859   3.202   3.556
 5977SOL    HW118467   4.899   3.198   3.643
 5977SOL    HW218468   4.807   3.122   3.549
 5978SOL     OW18469   3.954   3.304   2.397
 5978SOL    HW118470   3.937   3.398   2.400
 5978SOL    HW218471   3.894   3.267   2.462
 5979SOL     OW18472   3.983   2.952   2.753
 5979SOL    HW118473   3.979   2.866   2.793
 5979SOL    HW218474   3.925   3.006   2.807
 5980SOL     OW18475   4.331   3.655   3.287
 5980SOL    HW118476   4.251   3.637   3.336
 5980SOL    HW218477   4.356   3.743   3.315
 5981SOL     OW18478   4.309   2.844   1.997
 5981SOL    HW118479   4.355   2.893   1.929
 5981SOL    HW218480   4.348   2.875   2.079
 5982SOL     OW18481   3.839   2.516   2.422
 5982SOL    HW118482   3.811   2.427   2.443
 5982SOL    HW218483   3.831   2.564   2.504
 5983SOL     OW18484   3.757   3.456   1.985
 5983SOL    HW118485   3.739   3.364   2.006
 5983SOL    HW218486   3.733   3.504   2.065
 5984SOL     OW18487   0.111   2.802   2.437
 5984SOL    HW118488   0.198   2.764   2.450
 5984SOL    HW218489   0.129   2.889   2.400
 5985SOL     OW18490   3.842   2.604   3.450
 5985SOL    HW118491   3.933   2.632   3.456
 5985SOL    HW218492   3.792   2.685   3.447
 5986SOL     OW18493   4.338   3.249   2.597
 5986SOL    HW118494   4.292   3.165   2.606
 5986SOL    HW218495   4.321   3.275   2.507
 5987SOL     OW18496   5.005   3.098   3.287
 5987SOL    HW118497   5.039   3.031   3.226
 5987SOL    HW218498   5.061   3.091   3.364
 5988SOL     OW18499   4.539   1.863   2.372
 5988SOL    HW118500   4.580   1.947   2.351
 5988SOL    HW218501   4.446   1.883   2.380
 5989SOL     OW18502   3.914   2.829   3.135
 5989SOL    HW118503   3.997   2.785   3.117
 5989SOL    HW218504   3.848   2.776   3.090
 5990SOL     OW18505   4.895   3.670   3.486
 5990SOL    HW118506   4.916   3.730   3.414
 5990SOL    HW218507   4.919   3.583   3.453
 5991SOL     OW18508   4.059   2.110   3.677
 5991SOL    HW118509   4.101   2.196   3.689
 5991SOL    HW218510   3.968   2.124   3.705
 5992SOL     OW18511   5.167   3.298   2.796
 5992SOL    HW118512   5.106   3.305   2.869
 5992SOL    HW218513   5.161   3.207   2.768
 5993SOL     OW18514   4.320   2.582   2.129
 5993SOL    HW118515   4.324   2.664   2.079
 5993SOL    HW218516   4.255   2.599   2.197
 5994SOL     OW18517   4.995   2.199   2.781
 5994SOL    HW118518   4.907   2.170   2.802
 5994SOL    HW218519   5.050   2.164   2.851
 5995SOL     OW18520   4.514   2.480   3.312
 5995SOL    HW118521   4.489   2.456   3.401
 5995SOL    HW218522   4.476   2.412   3.256
 5996SOL     OW18523   5.114   2.343   3.543
 5996SOL    HW118524   5.116   2.380   3.631
 5996SOL    HW218525   5.191   2.286   3.539
 5997SOL     OW18526   4.677   2.750   3.445
 5997SOL    HW118527   4.730   2.678   3.409
 5997SOL    HW218528   4.629   2.784   3.370
 5998SOL     OW18529   4.715   2.275   3.099
 5998SOL    HW118530   4.628   2.295   3.134
 5998SOL    HW218531   4.698   2.228   3.017
 5999SOL     OW18532   4.775   2.560   2.287
 5999SOL    HW118533   4.792   2.554   2.381
 5999SOL    HW218534   4.692   2.514   2.274
 6000SOL     OW18535   3.812   2.683   2.639
 6000SOL    HW118536   3.893   2.676   2.689
 6000SOL    HW218537   3.769   2.761   2.674
 6001SOL     OW18538   3.851   3.714   3.441
 6001SOL    HW118539   3.852   3.692   3.534
 6001SOL    HW218540   3.760   3.701   3.414
 6002SOL     OW18541   4.619   2.210   2.056
 6002SOL    HW118542   4.658   2.272   1.994
 6002SOL    HW218543   4.633   2.124   2.017
 6003SOL     OW18544   5.093   3.010   2.411
 6003SOL    HW118545   5.181   3.012   2.374
 6003SOL    HW218546   5.042   3.068   2.354
 6004SOL     OW18547   4.274   2.043   2.756
 6004SOL    HW118548   4.276   2.072   2.847
 6004SOL    HW218549   4.275   2.123   2.704
 6005SOL     OW18550   4.729   3.305   2.334
 6005SOL    HW118551   4.692   3.378   2.284
 6005SOL    HW218552   4.710   3.326   2.425
 6006SOL     OW18553   4.078   3.672   2.726
 6006SOL    HW118554   4.122   3.587   2.733
 6006SOL    HW218555   4.147   3.736   2.744
 6007SOL     OW18556   4.939   3.403   3.381
 6007SOL    HW118557   4.926   3.331   3.442
 6007SOL    HW218558   4.880   3.384   3.308
 6008SOL     OW18559   4.043   2.820   2.113
 6008SOL    HW118560   4.125   2.839   2.068
 6008SOL    HW218561   4.013   2.738   2.074
 6009SOL     OW18562   4.191   3.127   3.600
 6009SOL    HW118563   4.164   3.132   3.508
 6009SOL    HW218564   4.108   3.125   3.649
 6010SOL     OW18565   4.831   3.637   2.099
 6010SOL    HW118566   4.759   3.592   2.143
 6010SOL    HW218567   4.857   3.577   2.028
 6011SOL     OW18568   3.925   2.142   3.363
 6011SOL    HW118569   3.844   2.193   3.361
 6011SOL    HW218570   3.907   2.071   3.425
 6012SOL     OW18571   4.189   3.598   2.183
 6012SOL    HW118572   4.232   3.656   2.246
 6012SOL    HW218573   4.261   3.567   2.127
 6013SOL     OW18574   5.119   1.969   2.286
 6013SOL    HW118575   5.100   1.951   2.194
 6013SOL    HW218576   5.214   1.985   2.288
 6014SOL     OW18577   3.978   3.653   3.093
 6014SOL    HW118578   4.031   3.587   3.139
 6014SOL    HW218579   3.971   3.620   3.004
 6015SOL     OW18580   4.662   3.560   2.761
 6015SOL    HW118581   4.742   3.511   2.778
 6015SOL    HW218582   4.618   3.511   2.691
 6016SOL     OW18583   4.118   2.557   2.337
 6016SOL    HW118584   4.137   2.464   2.349
 6016SOL    HW218585   4.024   2.564   2.354
 6017SOL     OW18586   4.361   1.984   1.966
 6017SOL    HW118587   4.429   1.917   1.980
 6017SOL    HW218588   4.311   1.952   1.891
 6018SOL     OW18589   4.489   2.141   3.617
 6018SOL    HW118590   4.566   2.084   3.616
 6018SOL    HW218591   4.441   2.116   3.696
 6019SOL     OW18592   4.599   3.384   3.056
 6019SOL    HW118593   4.584   3.348   2.968
 6019SOL    HW218594   4.669   3.330   3.092
 6020SOL     OW18595   5.057   2.454   3.294
 6020SOL    HW118596   5.089   2.422   3.379
 6020SOL    HW218597   5.100   2.538   3.283
 6021SOL     OW18598   4.539   3.255   2.803
 6021SOL    HW118599   4.624   3.244   2.759
 6021SOL    HW218600   4.476   3.258   2.731
 6022SOL     OW18601   4.652   2.371   2.764
 6022SOL    HW118602   4.628   2.362   2.672
 6022SOL    HW218603   4.683   2.284   2.790
 6023SOL     OW18604   4.273   1.925   2.363
 6023SOL    HW118605   4.193   1.925   2.415
 6023SOL    HW218606   4.267   2.003   2.308
 6024SOL     OW18607   5.135   3.043   1.906
 6024SOL    HW118608   5.143   2.964   1.960
 6024SOL    HW218609   5.048   3.077   1.926
 6025SOL     OW18610   4.015   1.910   2.047
 6025SOL    HW118611   4.074   1.974   2.007
 6025SOL    HW218612   4.074   1.847   2.089
 6026SOL     OW18613   4.662   2.109   2.321
 6026SOL    HW118614   4.636   2.149   2.238
 6026SOL    HW218615   4.757   2.122   2.325
 6027SOL     OW18616   4.801   2.544   3.322
 6027SOL    HW118617   4.734   2.475   3.324
 6027SOL    HW218618   4.884   2.497   3.313
 6028SOL     OW18619   4.939   3.433   2.656
 6028SOL    HW118620   4.961   3.500   2.591
 6028SOL    HW218621   5.021   3.420   2.705
 6029SOL     OW18622   4.193   3.012   2.594
 6029SOL    HW118623   4.125   2.992   2.658
 6029SOL    HW218624   4.152   2.996   2.509
 6030SOL     OW18625   4.995   3.656   2.468
 6030SOL    HW118626   5.037   3.717   2.407
 6030SOL    HW218627   4.928   3.708   2.512
 6031SOL     OW18628   4.747   2.404   1.885
 6031SOL    HW118629   4.703   2.486   1.865
 6031SOL    HW218630   4.809   2.426   1.955
 6032SOL     OW18631   3.803   2.415   3.255
 6032SOL    HW118632   3.894   2.413   3.227
 6032SOL    HW218633   3.799   2.485   3.320
 6033SOL     OW18634   4.283   2.089   3.029
 6033SOL    HW118635   4.325   2.014   3.070
 6033SOL    HW218636   4.192   2.085   3.059
 6034SOL     OW18637   4.592   2.321   2.501
 6034SOL    HW118638   4.546   2.376   2.437
 6034SOL    HW218639   4.613   2.241   2.453
 6035SOL     OW18640   4.739   1.915   2.613
 6035SOL    HW118641   4.681   1.908   2.537
 6035SOL    HW218642   4.717   1.840   2.667
 6036SOL     OW18643   5.156   3.038   2.713
 6036SOL    HW118644   5.101   2.961   2.727
 6036SOL    HW218645   5.168   3.043   2.618
 6037SOL     OW18646   4.214   3.281   2.017
 6037SOL    HW118647   4.139   3.252   2.069
 6037SOL    HW218648   4.202   3.239   1.932
 6038SOL     OW18649   5.128   2.423   1.943
 6038SOL    HW118650   5.054   2.414   2.004
 6038SOL    HW218651   5.202   2.385   1.989
 6039SOL     OW18652   4.249   2.125   2.179
 6039SOL    HW118653   4.295   2.078   2.109
 6039SOL    HW218654   4.226   2.209   2.140
 6040SOL     OW18655   4.779   3.216   3.195
 6040SOL    HW118656   4.704   3.185   3.246
 6040SOL    HW218657   4.855   3.173   3.236
 6041SOL     OW18658   0.006   3.467   3.477
 6041SOL    HW118659   0.041   3.471   3.388
 6041SOL    HW218660   0.082   3.446   3.532
 6042SOL     OW18661   4.854   3.066   2.968
 6042SOL    HW118662   4.792   3.101   3.032
 6042SOL    HW218663   4.821   3.096   2.883
 6043SOL     OW18664   4.642   1.959   3.258
 6043SOL    HW118665   4.664   1.941   3.166
 6043SOL    HW218666   4.721   1.998   3.294
 6044SOL     OW18667   4.709   2.975   3.587
 6044SOL    HW118668   4.617   2.993   3.608
 6044SOL    HW218669   4.706   2.898   3.530
 6045SOL     OW18670   4.433   2.924   2.233
 6045SOL    HW118671   4.419   2.906   2.326
 6045SOL    HW218672   4.509   2.870   2.210
 6046SOL     OW18673   4.142   2.677   3.113
 6046SOL    HW118674   4.211   2.687   3.179
 6046SOL    HW218675   4.107   2.589   3.127
 6047SOL     OW18676   4.988   2.237   3.139
 6047SOL    HW118677   5.023   2.316   3.180
 6047SOL    HW218678   4.898   2.260   3.115
 6048SOL     OW18679   3.796   3.435   3.216
 6048SOL    HW118680   3.767   3.508   3.160
 6048SOL    HW218681   3.891   3.437   3.210
 6049SOL     OW18682   4.071   2.973   2.352
 6049SOL    HW118683   4.076   3.046   2.291
 6049SOL    HW218684   4.068   2.895   2.296
 6050SOL     OW18685   4.276   2.398   2.722
 6050SOL    HW118686   4.291   2.456   2.647
 6050SOL    HW218687   4.341   2.424   2.786
 6051SOL     OW18688   4.972   3.211   2.249
 6051SOL    HW118689   5.026   3.284   2.279
 6051SOL    HW218690   4.884   3.231   2.282
 6052SOL     OW18691   4.996   3.319   3.002
 6052SOL    HW118692   5.050   3.320   3.081
 6052SOL    HW218693   4.941   3.241   3.012
 6053SOL     OW18694   4.070   3.390   3.176
 6053SOL    HW118695   4.058   3.347   3.091
 6053SOL    HW218696   4.165   3.402   3.184
 6054SOL     OW18697   4.138   2.606   3.463
 6054SOL    HW118698   4.201   2.650   3.406
 6054SOL    HW218699   4.178   2.521   3.481
 6055SOL     OW18700   4.718   1.989   3.617
 6055SOL    HW118701   4.776   2.061   3.592
 6055SOL    HW218702   4.765   1.910   3.591
 6056SOL     OW18703   4.222   1.902   3.610
 6056SOL    HW118704   4.178   1.848   3.545
 6056SOL    HW218705   4.163   1.976   3.623
 6057SOL     OW18706   4.307   2.735   2.894
 6057SOL    HW118707   4.338   2.826   2.894
 6057SOL    HW218708   4.251   2.729   2.971
 6058SOL     OW18709   5.086   2.718   2.898
 6058SOL    HW118710   5.009   2.698   2.845
 6058SOL    HW218711   5.140   2.640   2.892
 6059SOL     OW18712   4.926   2.393   2.125
 6059SOL    HW118713   4.934   2.313   2.178
 6059SOL    HW218714   4.883   2.456   2.183
 6060SOL     OW18715   4.022   2.060   3.109
 6060SOL    HW118716   3.985   2.092   3.191
 6060SOL    HW218717   4.003   1.966   3.109
 6061SOL     OW18718   3.773   3.172   3.137
 6061SOL    HW118719   3.805   3.118   3.209
 6061SOL    HW218720   3.778   3.262   3.171
 6062SOL     OW18721   4.447   2.492   2.919
 6062SOL    HW118722   4.522   2.477   2.862
 6062SOL    HW218723   4.419   2.582   2.898
 6063SOL     OW18724   4.028   1.926   2.485
 6063SOL    HW118725   4.008   2.016   2.508
 6063SOL    HW218726   4.036   1.881   2.570
 6064SOL     OW18727   0.034   2.258   2.220
 6064SOL    HW118728   0.052   2.182   2.276
 6064SOL    HW218729   0.021   2.330   2.281
 6065SOL     OW18730   4.751   2.620   2.821
 6065SOL    HW118731   4.748   2.638   2.915
 6065SOL    HW218732   4.726   2.529   2.813
 6066SOL     OW18733   4.697   3.423   3.576
 6066SOL    HW118734   4.686   3.471   3.494
 6066SOL    HW218735   4.745   3.344   3.552
 6067SOL     OW18736   4.082   2.779   3.669
 6067SOL    HW118737   4.163   2.796   3.716
 6067SOL    HW218738   4.105   2.715   3.603
 6068SOL     OW18739   5.027   2.691   1.899
 6068SOL    HW118740   5.065   2.602   1.901
 6068SOL    HW218741   5.055   2.726   1.814
 6069SOL     OW18742   4.790   3.196   2.718
 6069SOL    HW118743   4.794   3.125   2.655
 6069SOL    HW218744   4.847   3.264   2.682
 6070SOL     OW18745   4.033   2.671   2.808
 6070SOL    HW118746   4.126   2.692   2.802
 6070SOL    HW218747   4.031   2.581   2.841
 6071SOL     OW18748   4.055   2.389   2.875
 6071SOL    HW118749   4.019   2.302   2.860
 6071SOL    HW218750   4.131   2.394   2.817
 6072SOL     OW18751   4.856   2.238   3.544
 6072SOL    HW118752   4.808   2.292   3.606
 6072SOL    HW218753   4.943   2.277   3.539
 6073SOL     OW18754   4.885   2.063   3.331
 6073SOL    HW118755   4.873   2.126   3.403
 6073SOL    HW218756   4.925   2.115   3.261
 6074SOL     OW18757   3.729   3.183   2.057
 6074SOL    HW118758   3.642   3.197   2.019
 6074SOL    HW218759   3.726   3.093   2.091
 6075SOL     OW18760   3.814   3.648   2.801
 6075SOL    HW118761   3.784   3.569   2.756
 6075SOL    HW218762   3.904   3.661   2.770
 6076SOL     OW18763   4.220   3.436   2.767
 6076SOL    HW118764   4.288   3.498   2.791
 6076SOL    HW218765   4.264   3.373   2.711
 6077SOL     OW18766   4.705   2.653   3.088
 6077SOL    HW118767   4.761   2.631   3.162
 6077SOL    HW218768   4.620   2.616   3.111
 6078SOL     OW18769   3.756   2.410   2.979
 6078SOL    HW118770   3.836   2.397   2.928
 6078SOL    HW218771   3.785   2.412   3.070
 6079SOL     OW18772   3.925   2.379   3.588
 6079SOL    HW118773   3.980   2.346   3.517
 6079SOL    HW218774   3.878   2.453   3.548
 6080SOL     OW18775   5.113   2.799   3.528
 6080SOL    HW118776   5.121   2.893   3.516
 6080SOL    HW218777   5.117   2.762   3.440
 6081SOL     OW18778   4.540   2.431   2.223
 6081SOL    HW118779   4.544   2.357   2.163
 6081SOL    HW218780   4.466   2.483   2.192
 6082SOL     OW18781   3.965   3.412   3.588
 6082SOL    HW118782   3.944   3.477   3.656
 6082SOL    HW218783   3.969   3.329   3.635
 6083SOL     OW18784   4.427   2.311   3.120
 6083SOL    HW118785   4.373   2.238   3.091
 6083SOL    HW218786   4.422   2.375   3.048
 6084SOL     OW18787   4.643   3.542   3.331
 6084SOL    HW118788   4.622   3.509   3.244
 6084SOL    HW218789   4.644   3.637   3.321
 6085SOL     OW18790   4.187   2.354   2.048
 6085SOL    HW118791   4.246   2.427   2.070
 6085SOL    HW218792   4.102   2.395   2.036
 6086SOL     OW18793   3.872   3.003   3.337
 6086SOL    HW118794   3.875   2.951   3.417
 6086SOL    HW218795   3.888   2.939   3.267
 6087SOL     OW18796   5.053   2.911   3.086
 6087SOL    HW118797   5.074   2.845   3.019
 6087SOL    HW218798   4.982   2.962   3.047
 6088SOL     OW18799   5.035   2.722   2.178
 6088SOL    HW118800   4.954   2.689   2.216
 6088SOL    HW218801   5.024   2.713   2.084
 6089SOL     OW18802   4.959   3.593   2.982
 6089SOL    HW118803   5.045   3.615   2.947
 6089SOL    HW218804   4.961   3.498   2.992
 6090SOL     OW18805   3.808   3.129   2.873
 6090SOL    HW118806   3.794   3.142   2.966
 6090SOL    HW218807   3.736   3.073   2.845
 6091SOL     OW18808   4.401   3.528   3.592
 6091SOL    HW118809   4.349   3.607   3.585
 6091SOL    HW218810   4.471   3.539   3.528
 6092SOL     OW18811   0.078   2.024   2.393
 6092SOL    HW118812   0.162   2.008   2.349
 6092SOL    HW218813   0.065   1.945   2.446
 6093SOL     OW18814   5.111   3.432   2.344
 6093SOL    HW118815   5.181   3.474   2.294
 6093SOL    HW218816   5.060   3.505   2.379
 6094SOL     OW18817   3.860   3.658   3.705
 6094SOL    HW118818   3.809   3.593   3.753
 6094SOL    HW218819   3.908   3.706   3.773
 6095SOL     OW18820   5.017   2.781   2.533
 6095SOL    HW118821   5.095   2.728   2.521
 6095SOL    HW218822   5.035   2.862   2.485
 6096SOL     OW18823   4.536   3.136   3.291
 6096SOL    HW118824   4.508   3.175   3.374
 6096SOL    HW218825   4.467   3.158   3.229
 6097SOL     OW18826   4.394   3.483   2.017
 6097SOL    HW118827   4.406   3.496   1.923
 6097SOL    HW218828   4.339   3.405   2.024
 6098SOL     OW18829   3.985   2.177   2.578
 6098SOL    HW118830   3.900   2.213   2.555
 6098SOL    HW218831   3.983   2.170   2.674
 6099SOL     OW18832   4.908   3.471   1.904
 6099SOL    HW118833   4.920   3.376   1.914
 6099SOL    HW218834   4.853   3.480   1.826
 6100SOL     OW18835   4.548   2.868   3.235
 6100SOL    HW118836   4.591   2.863   3.150
 6100SOL    HW218837   4.546   2.961   3.256
 6101SOL     OW18838   4.640   2.773   2.152
 6101SOL    HW118839   4.702   2.805   2.086
 6101SOL    HW218840   4.688   2.703   2.197
 6102SOL     OW18841   4.094   3.166   3.354
 6102SOL    HW118842   4.080   3.242   3.298
 6102SOL    HW218843   4.018   3.110   3.338
 6103SOL     OW18844   4.777   2.969   2.569
 6103SOL    HW118845   4.706   2.919   2.609
 6103SOL    HW218846   4.836   2.903   2.533
 6104SOL     OW18847   4.739   2.101   2.830
 6104SOL    HW118848   4.737   2.054   2.747
 6104SOL    HW218849   4.735   2.032   2.897
 6105SOL     OW18850   4.327   3.350   2.343
 6105SOL    HW118851   4.373   3.300   2.276
 6105SOL    HW218852   4.257   3.396   2.296
 6106SOL     OW18853   3.984   3.206   2.151
 6106SOL    HW118854   3.891   3.204   2.128
 6106SOL    HW218855   3.986   3.243   2.239
 6107SOL     OW18856   3.847   2.889   3.590
 6107SOL    HW118857   3.777   2.849   3.643
 6107SOL    HW218858   3.928   2.852   3.626
 6108SOL     OW18859   4.399   2.058   3.362
 6108SOL    HW118860   4.483   2.038   3.321
 6108SOL    HW218861   4.422   2.090   3.449
 6109SOL     OW18862   3.802   2.195   1.897
 6109SOL    HW118863   3.716   2.175   1.861
 6109SOL    HW218864   3.833   2.270   1.846
 6110SOL     OW18865   5.163   2.722   3.266
 6110SOL    HW118866   5.111   2.780   3.209
 6110SOL    HW218867   5.252   2.728   3.232
 6111SOL     OW18868   3.791   2.018   2.170
 6111SOL    HW118869   3.778   2.098   2.119
 6111SOL    HW218870   3.876   1.985   2.142
 6112SOL     OW18871   4.906   3.190   1.976
 6112SOL    HW118872   4.812   3.172   1.977
 6112SOL    HW218873   4.930   3.197   2.068
 6113SOL     OW18874   4.343   2.693   3.295
 6113SOL    HW118875   4.399   2.769   3.280
 6113SOL    HW218876   4.403   2.619   3.303
 6114SOL     OW18877   4.442   2.425   3.565
 6114SOL    HW118878   4.483   2.486   3.626
 6114SOL    HW218879   4.466   2.338   3.598
 6115SOL     OW18880   5.181   3.065   3.494
 6115SOL    HW118881   5.172   3.078   3.588
 6115SOL    HW218882   5.275   3.073   3.477
 6116SOL     OW18883   4.102   3.601   3.427
 6116SOL    HW118884   4.017   3.643   3.413
 6116SOL    HW218885   4.081   3.518   3.468
 6117SOL     OW18886   4.939   2.182   2.317
 6117SOL    HW118887   5.000   2.110   2.305
 6117SOL    HW218888   4.969   2.226   2.397
 6118SOL     OW18889   4.314   2.599   2.532
 6118SOL    HW118890   4.353   2.685   2.517
 6118SOL    HW218891   4.246   2.591   2.464
 6119SOL     OW18892   4.591   3.228   1.898
 6119SOL    HW118893   4.550   3.258   1.979
 6119SOL    HW218894   4.606   3.307   1.848
 6120SOL     OW18895   4.384   3.652   2.805
 6120SOL    HW118896   4.365   3.743   2.783
 6120SOL    HW218897   4.480   3.645   2.799
 6121SOL     OW18898   4.592   2.830   2.717
 6121SOL    HW118899   4.642   2.758   2.756
 6121SOL    HW218900   4.556   2.878   2.792
 6122SOL     OW18901   4.806   2.849   1.952
 6122SOL    HW118902   4.782   2.899   1.874
 6122SOL    HW218903   4.881   2.796   1.925
 6123SOL     OW18904   3.949   3.164   3.717
 6123SOL    HW118905   3.885   3.099   3.689
 6123SOL    HW218906   3.932   3.175   3.811
 6124SOL     OW18907   3.807   3.094   2.527
 6124SOL    HW118908   3.815   3.047   2.610
 6124SOL    HW218909   3.876   3.056   2.472
 6125SOL     OW18910   4.406   3.265   3.491
 6125SOL    HW118911   4.325   3.223   3.522
 6125SOL    HW218912   4.402   3.353   3.527
 6126SOL     OW18913   4.153   2.296   2.388
 6126SOL    HW118914   4.183   2.225   2.331
 6126SOL    HW218915   4.105   2.251   2.457
 6127SOL     OW18916   0.094   3.382   2.962
 6127SOL    HW118917   0.027   3.360   2.897
 6127SOL    HW218918   0.098   3.306   3.020
 6128SOL     OW18919   4.054   2.417   3.154
 6128SOL    HW118920   4.109   2.362   3.209
 6128SOL    HW218921   4.073   2.390   3.065
 6129SOL     OW18922   4.553   3.440   2.539
 6129SOL    HW118923   4.539   3.496   2.462
 6129SOL    HW218924   4.476   3.382   2.540
 6130SOL     OW18925   5.146   2.081   2.977
 6130SOL    HW118926   5.193   2.017   3.031
 6130SOL    HW218927   5.100   2.136   3.040
 6131SOL     OW18928   4.729   1.880   3.003
 6131SOL    HW118929   4.676   1.812   2.962
 6131SOL    HW218930   4.817   1.842   3.008
 6132SOL     OW18931   4.495   3.195   2.179
 6132SOL    HW118932   4.465   3.104   2.185
 6132SOL    HW218933   4.577   3.197   2.227
 6133SOL     OW18934   4.343   3.418   3.147
 6133SOL    HW118935   4.345   3.500   3.196
 6133SOL    HW218936   4.431   3.410   3.110
 6134SOL     OW18937   5.056   1.908   2.029
 6134SOL    HW118938   5.079   1.867   1.946
 6134SOL    HW218939   4.971   1.870   2.052
 6135SOL     OW18940   5.027   2.320   2.543
 6135SOL    HW118941   4.973   2.399   2.547
 6135SOL    HW218942   5.016   2.279   2.629
 6136SOL     OW18943   0.002   2.088   2.743
 6136SOL    HW118944   5.237   2.075   2.812
 6136SOL    HW218945   5.274   2.168   2.698
 6137SOL     OW18946   3.767   2.932   2.169
 6137SOL    HW118947   3.860   2.925   2.151
 6137SOL    HW218948   3.739   2.843   2.191
 6138SOL     OW18949   4.604   3.513   2.208
 6138SOL    HW118950   4.533   3.498   2.145
 6138SOL    HW218951   4.577   3.590   2.258
 6139SOL     OW18952   3.955   2.484   3.847
 6139SOL    HW118953   3.865   2.493   3.879
 6139SOL    HW218954   3.944   2.458   3.755
 6140SOL     OW18955   3.948   2.143   4.715
 6140SOL    HW118956   3.977   2.109   4.800
 6140SOL    HW218957   3.858   2.111   4.706
 6141SOL     OW18958   3.739   2.245   4.360
 6141SOL    HW118959   3.665   2.266   4.417
 6141SOL    HW218960   3.709   2.171   4.307
 6142SOL     OW18961   4.291   3.151   4.901
 6142SOL    HW118962   4.204   3.155   4.861
 6142SOL    HW218963   4.306   3.240   4.933
 6143SOL     OW18964   5.286   3.398   4.430
 6143SOL    HW118965   5.247   3.356   4.506
 6143SOL    HW218966   5.221   3.390   4.361
 6144SOL     OW18967   4.859   2.561   4.423
 6144SOL    HW118968   4.910   2.642   4.413
 6144SOL    HW218969   4.810   2.573   4.504
 6145SOL     OW18970   4.478   3.004   4.766
 6145SOL    HW118971   4.409   3.039   4.823
 6145SOL    HW218972   4.513   3.080   4.721
 6146SOL     OW18973   4.594   2.634   5.547
 6146SOL    HW118974   4.577   2.705   5.608
 6146SOL    HW218975   4.615   2.677   5.464
 6147SOL     OW18976   4.410   2.863   4.370
 6147SOL    HW118977   4.475   2.853   4.440
 6147SOL    HW218978   4.341   2.916   4.409
 6148SOL     OW18979   4.435   3.013   5.538
 6148SOL    HW118980   4.483   3.091   5.566
 6148SOL    HW218981   4.354   3.046   5.501
 6149SOL     OW18982   4.054   3.286   4.792
 6149SOL    HW118983   3.982   3.247   4.742
 6149SOL    HW218984   4.103   3.336   4.727
 6150SOL     OW18985   5.161   3.342   5.077
 6150SOL    HW118986   5.209   3.421   5.102
 6150SOL    HW218987   5.102   3.326   5.151
 6151SOL     OW18988   4.174   2.260   5.210
 6151SOL    HW118989   4.249   2.201   5.216
 6151SOL    HW218990   4.098   2.204   5.224
 6152SOL     OW18991   3.943   3.577   4.195
 6152SOL    HW118992   3.965   3.653   4.249
 6152SOL    HW218993   4.017   3.569   4.135
 6153SOL     OW18994   4.859   3.202   5.418
 6153SOL    HW118995   4.899   3.198   5.505
 6153SOL    HW218996   4.807   3.122   5.411
 6154SOL     OW18997   3.958   3.305   4.258
 6154SOL    HW118998   3.937   3.398   4.263
 6154SOL    HW218999   3.899   3.263   4.322
 6155SOL     OW19000   3.989   2.953   4.620
 6155SOL    HW119001   3.981   2.866   4.658
 6155SOL    HW219002   3.926   3.007   4.668
 6156SOL     OW19003   4.331   3.655   5.150
 6156SOL    HW119004   4.251   3.637   5.198
 6156SOL    HW219005   4.356   3.743   5.177
 6157SOL     OW19006   4.310   2.843   3.859
 6157SOL    HW119007   4.355   2.893   3.790
 6157SOL    HW219008   4.348   2.875   3.941
 6158SOL     OW19009   3.842   2.514   4.282
 6158SOL    HW119010   3.817   2.424   4.302
 6158SOL    HW219011   3.839   2.559   4.366
 6159SOL     OW19012   3.753   3.456   3.846
 6159SOL    HW119013   3.741   3.364   3.869
 6159SOL    HW219014   3.733   3.503   3.926
 6160SOL     OW19015   0.112   2.802   4.300
 6160SOL    HW119016   0.198   2.763   4.312
 6160SOL    HW219017   0.129   2.888   4.261
 6161SOL     OW19018   3.848   2.605   5.309
 6161SOL    HW119019   3.940   2.631   5.315
 6161SOL    HW219020   3.799   2.687   5.318
 6162SOL     OW19021   4.338   3.249   4.460
 6162SOL    HW119022   4.292   3.165   4.468
 6162SOL    HW219023   4.321   3.275   4.369
 6163SOL     OW19024   5.005   3.098   5.149
 6163SOL    HW119025   5.039   3.031   5.088
 6163SOL    HW219026   5.061   3.090   5.226
 6164SOL     OW19027   4.539   1.863   4.234
 6164SOL    HW119028   4.580   1.947   4.213
 6164SOL    HW219029   4.446   1.883   4.242
 6165SOL     OW19030   3.913   2.826   4.996
 6165SOL    HW119031   3.998   2.786   4.982
 6165SOL    HW219032   3.852   2.773   4.945
 6166SOL     OW19033   4.895   3.670   5.348
 6166SOL    HW119034   4.916   3.730   5.276
 6166SOL    HW219035   4.919   3.583   5.315
 6167SOL     OW19036   4.059   2.112   5.538
 6167SOL    HW119037   4.102   2.195   5.555
 6167SOL    HW219038   3.969   2.125   5.568
 6168SOL     OW19039   5.167   3.298   4.658
 6168SOL    HW119040   5.106   3.305   4.731
 6168SOL    HW219041   5.161   3.207   4.630
 6169SOL     OW19042   4.320   2.583   3.991
 6169SOL    HW119043   4.324   2.665   3.942
 6169SOL    HW219044   4.255   2.599   4.059
 6170SOL     OW19045   4.995   2.199   4.643
 6170SOL    HW119046   4.907   2.170   4.664
 6170SOL    HW219047   5.050   2.164   4.713
 6171SOL     OW19048   4.514   2.480   5.174
 6171SOL    HW119049   4.489   2.455   5.263
 6171SOL    HW219050   4.476   2.412   5.119
 6172SOL     OW19051   5.114   2.343   5.405
 6172SOL    HW119052   5.116   2.380   5.493
 6172SOL    HW219053   5.191   2.286   5.401
 6173SOL     OW19054   4.677   2.749   5.307
 6173SOL    HW119055   4.730   2.678   5.271
 6173SOL    HW219056   4.629   2.784   5.232
 6174SOL     OW19057   4.715   2.275   4.962
 6174SOL    HW119058   4.628   2.294   4.996
 6174SOL    HW219059   4.698   2.229   4.879
 6175SOL     OW19060   4.775   2.560   4.149
 6175SOL    HW119061   4.792   2.554   4.243
 6175SOL    HW219062   4.692   2.514   4.136
 6176SOL     OW19063   3.827   2.664   4.506
 6176SOL    HW119064   3.904   2.671   4.562
 6176SOL    HW219065   3.775   2.743   4.524
 6177SOL     OW19066   3.850   3.713   5.303
 6177SOL    HW119067   3.851   3.692   5.396
 6177SOL    HW219068   3.759   3.701   5.276
 6178SOL     OW19069   4.619   2.210   3.918
 6178SOL    HW119070   4.658   2.272   3.856
 6178SOL    HW219071   4.633   2.124   3.879
 6179SOL     OW19072   5.093   3.010   4.273
 6179SOL    HW119073   5.181   3.012   4.236
 6179SOL    HW219074   5.042   3.068   4.217
 6180SOL     OW19075   4.274   2.042   4.618
 6180SOL    HW119076   4.276   2.072   4.709
 6180SOL    HW219077   4.275   2.123   4.566
 6181SOL     OW19078   4.729   3.305   4.196
 6181SOL    HW119079   4.692   3.378   4.146
 6181SOL    HW219080   4.710   3.326   4.287
 6182SOL     OW19081   4.079   3.672   4.588
 6182SOL    HW119082   4.122   3.587   4.595
 6182SOL    HW219083   4.147   3.736   4.606
 6183SOL     OW19084   4.939   3.403   5.243
 6183SOL    HW119085   4.926   3.330   5.304
 6183SOL    HW219086   4.880   3.384   5.170
 6184SOL     OW19087   4.046   2.821   3.975
 6184SOL    HW119088   4.128   2.837   3.928
 6184SOL    HW219089   4.013   2.739   3.939
 6185SOL     OW19090   4.190   3.127   5.462
 6185SOL    HW119091   4.164   3.132   5.370
 6185SOL    HW219092   4.108   3.125   5.511
 6186SOL     OW19093   4.831   3.637   3.961
 6186SOL    HW119094   4.759   3.592   4.005
 6186SOL    HW219095   4.857   3.577   3.890
 6187SOL     OW19096   3.925   2.142   5.225
 6187SOL    HW119097   3.844   2.192   5.221
 6187SOL    HW219098   3.906   2.069   5.284
 6188SOL     OW19099   4.189   3.599   4.044
 6188SOL    HW119100   4.232   3.656   4.108
 6188SOL    HW219101   4.260   3.567   3.989
 6189SOL     OW19102   5.119   1.969   4.148
 6189SOL    HW119103   5.100   1.951   4.056
 6189SOL    HW219104   5.214   1.985   4.150
 6190SOL     OW19105   3.979   3.653   4.955
 6190SOL    HW119106   4.032   3.587   5.000
 6190SOL    HW219107   3.971   3.620   4.866
 6191SOL     OW19108   4.662   3.560   4.622
 6191SOL    HW119109   4.742   3.511   4.640
 6191SOL    HW219110   4.618   3.511   4.553
 6192SOL     OW19111   4.119   2.558   4.199
 6192SOL    HW119112   4.138   2.465   4.211
 6192SOL    HW219113   4.025   2.566   4.215
 6193SOL     OW19114   4.361   1.983   3.829
 6193SOL    HW119115   4.429   1.917   3.841
 6193SOL    HW219116   4.311   1.952   3.754
 6194SOL     OW19117   4.489   2.141   5.479
 6194SOL    HW119118   4.566   2.084   5.478
 6194SOL    HW219119   4.441   2.115   5.558
 6195SOL     OW19120   4.599   3.384   4.918
 6195SOL    HW119121   4.584   3.348   4.830
 6195SOL    HW219122   4.670   3.330   4.954
 6196SOL     OW19123   5.057   2.454   5.156
 6196SOL    HW119124   5.089   2.422   5.241
 6196SOL    HW219125   5.100   2.538   5.145
 6197SOL     OW19126   4.539   3.256   4.665
 6197SOL    HW119127   4.623   3.244   4.621
 6197SOL    HW219128   4.475   3.258   4.593
 6198SOL     OW19129   4.652   2.371   4.626
 6198SOL    HW119130   4.628   2.362   4.534
 6198SOL    HW219131   4.683   2.284   4.652
 6199SOL     OW19132   4.273   1.925   4.225
 6199SOL    HW119133   4.193   1.925   4.277
 6199SOL    HW219134   4.267   2.003   4.170
 6200SOL     OW19135   5.135   3.043   3.768
 6200SOL    HW119136   5.143   2.964   3.822
 6200SOL    HW219137   5.048   3.077   3.788
 6201SOL     OW19138   4.014   1.910   3.910
 6201SOL    HW119139   4.072   1.975   3.869
 6201SOL    HW219140   4.074   1.847   3.951
 6202SOL     OW19141   4.662   2.109   4.183
 6202SOL    HW119142   4.636   2.149   4.100
 6202SOL    HW219143   4.757   2.122   4.187
 6203SOL     OW19144   4.801   2.544   5.184
 6203SOL    HW119145   4.734   2.475   5.186
 6203SOL    HW219146   4.884   2.497   5.175
 6204SOL     OW19147   4.939   3.433   4.518
 6204SOL    HW119148   4.961   3.500   4.453
 6204SOL    HW219149   5.021   3.420   4.567
 6205SOL     OW19150   4.195   3.012   4.456
 6205SOL    HW119151   4.127   2.993   4.520
 6205SOL    HW219152   4.153   2.996   4.371
 6206SOL     OW19153   4.995   3.656   4.330
 6206SOL    HW119154   5.037   3.717   4.269
 6206SOL    HW219155   4.928   3.708   4.374
 6207SOL     OW19156   4.748   2.404   3.747
 6207SOL    HW119157   4.703   2.486   3.727
 6207SOL    HW219158   4.809   2.426   3.817
 6208SOL     OW19159   3.803   2.416   5.116
 6208SOL    HW119160   3.895   2.415   5.089
 6208SOL    HW219161   3.798   2.486   5.181
 6209SOL     OW19162   4.283   2.089   4.891
 6209SOL    HW119163   4.325   2.014   4.932
 6209SOL    HW219164   4.192   2.085   4.920
 6210SOL     OW19165   4.592   2.321   4.363
 6210SOL    HW119166   4.546   2.376   4.300
 6210SOL    HW219167   4.613   2.241   4.315
 6211SOL     OW19168   4.739   1.915   4.475
 6211SOL    HW119169   4.681   1.909   4.399
 6211SOL    HW219170   4.717   1.840   4.529
 6212SOL     OW19171   5.156   3.038   4.575
 6212SOL    HW119172   5.101   2.961   4.588
 6212SOL    HW219173   5.168   3.043   4.480
 6213SOL     OW19174   4.215   3.281   3.879
 6213SOL    HW119175   4.139   3.253   3.931
 6213SOL    HW219176   4.202   3.238   3.794
 6214SOL     OW19177   5.128   2.423   3.805
 6214SOL    HW119178   5.054   2.414   3.866
 6214SOL    HW219179   5.202   2.385   3.851
 6215SOL     OW19180   4.250   2.125   4.041
 6215SOL    HW119181   4.295   2.078   3.971
 6215SOL    HW219182   4.226   2.209   4.002
 6216SOL     OW19183   4.779   3.216   5.057
 6216SOL    HW119184   4.704   3.185   5.108
 6216SOL    HW219185   4.855   3.173   5.098
 6217SOL     OW19186   0.006   3.467   5.339
 6217SOL    HW119187   0.041   3.471   5.250
 6217SOL    HW219188   0.082   3.446   5.393
 6218SOL     OW19189   4.854   3.066   4.830
 6218SOL    HW119190   4.792   3.101   4.893
 6218SOL    HW219191   4.821   3.096   4.745
 6219SOL     OW19192   4.642   1.959   5.120
 6219SOL    HW119193   4.664   1.941   5.028
 6219SOL    HW219194   4.721   1.998   5.156
 6220SOL     OW19195   4.709   2.975   5.449
 6220SOL    HW119196   4.617   2.993   5.470
 6220SOL    HW219197   4.706   2.898   5.392
 6221SOL     OW19198   4.433   2.924   4.095
 6221SOL    HW119199   4.418   2.906   4.188
 6221SOL    HW219200   4.509   2.870   4.072
 6222SOL     OW19201   4.143   2.678   4.976
 6222SOL    HW119202   4.212   2.687   5.042
 6222SOL    HW219203   4.108   2.590   4.990
 6223SOL     OW19204   4.988   2.237   5.001
 6223SOL    HW119205   5.023   2.316   5.042
 6223SOL    HW219206   4.898   2.260   4.977
 6224SOL     OW19207   3.796   3.434   5.076
 6224SOL    HW119208   3.767   3.508   5.023
 6224SOL    HW219209   3.892   3.437   5.072
 6225SOL     OW19210   4.073   2.973   4.214
 6225SOL    HW119211   4.075   3.046   4.153
 6225SOL    HW219212   4.069   2.895   4.158
 6226SOL     OW19213   4.275   2.398   4.584
 6226SOL    HW119214   4.290   2.456   4.509
 6226SOL    HW219215   4.341   2.424   4.648
 6227SOL     OW19216   4.972   3.211   4.111
 6227SOL    HW119217   5.026   3.284   4.141
 6227SOL    HW219218   4.884   3.231   4.144
 6228SOL     OW19219   4.996   3.319   4.864
 6228SOL    HW119220   5.050   3.320   4.943
 6228SOL    HW219221   4.942   3.240   4.874
 6229SOL     OW19222   4.071   3.389   5.038
 6229SOL    HW119223   4.059   3.347   4.953
 6229SOL    HW219224   4.165   3.401   5.046
 6230SOL     OW19225   4.139   2.607   5.326
 6230SOL    HW119226   4.201   2.651   5.268
 6230SOL    HW219227   4.178   2.521   5.342
 6231SOL     OW19228   4.718   1.989   5.479
 6231SOL    HW119229   4.776   2.061   5.454
 6231SOL    HW219230   4.765   1.910   5.453
 6232SOL     OW19231   4.221   1.902   5.472
 6232SOL    HW119232   4.178   1.848   5.407
 6232SOL    HW219233   4.163   1.977   5.484
 6233SOL     OW19234   4.310   2.735   4.757
 6233SOL    HW119235   4.338   2.826   4.755
 6233SOL    HW219236   4.252   2.730   4.833
 6234SOL     OW19237   5.086   2.718   4.760
 6234SOL    HW119238   5.009   2.699   4.707
 6234SOL    HW219239   5.140   2.640   4.754
 6235SOL     OW19240   4.927   2.393   3.987
 6235SOL    HW119241   4.934   2.313   4.040
 6235SOL    HW219242   4.883   2.456   4.045
 6236SOL     OW19243   4.022   2.060   4.970
 6236SOL    HW119244   3.985   2.092   5.053
 6236SOL    HW219245   4.003   1.966   4.971
 6237SOL     OW19246   3.756   3.172   5.003
 6237SOL    HW119247   3.797   3.117   5.070
 6237SOL    HW219248   3.772   3.262   5.032
 6238SOL     OW19249   4.447   2.492   4.781
 6238SOL    HW119250   4.523   2.477   4.724
 6238SOL    HW219251   4.419   2.581   4.761
 6239SOL     OW19252   4.027   1.924   4.348
 6239SOL    HW119253   4.010   2.016   4.370
 6239SOL    HW219254   4.036   1.880   4.432
 6240SOL     OW19255   0.034   2.258   4.082
 6240SOL    HW119256   0.052   2.182   4.138
 6240SOL    HW219257   0.021   2.330   4.143
 6241SOL     OW19258   4.751   2.620   4.683
 6241SOL    HW119259   4.749   2.638   4.777
 6241SOL    HW219260   4.726   2.529   4.675
 6242SOL     OW19261   4.697   3.423   5.438
 6242SOL    HW119262   4.686   3.471   5.356
 6242SOL    HW219263   4.745   3.344   5.414
 6243SOL     OW19264   4.077   2.778   5.533
 6243SOL    HW119265   4.159   2.797   5.578
 6243SOL    HW219266   4.101   2.715   5.465
 6244SOL     OW19267   5.027   2.691   3.761
 6244SOL    HW119268   5.065   2.602   3.763
 6244SOL    HW219269   5.055   2.726   3.676
 6245SOL     OW19270   4.790   3.196   4.580
 6245SOL    HW119271   4.794   3.125   4.517
 6245SOL    HW219272   4.847   3.264   4.544
 6246SOL     OW19273   4.037   2.672   4.677
 6246SOL    HW119274   4.130   2.693   4.668
 6246SOL    HW219275   4.035   2.581   4.707
 6247SOL     OW19276   4.054   2.389   4.737
 6247SOL    HW119277   4.019   2.301   4.722
 6247SOL    HW219278   4.131   2.394   4.680
 6248SOL     OW19279   4.856   2.238   5.406
 6248SOL    HW119280   4.808   2.292   5.468
 6248SOL    HW219281   4.943   2.277   5.401
 6249SOL     OW19282   4.885   2.063   5.193
 6249SOL    HW119283   4.873   2.126   5.265
 6249SOL    HW219284   4.924   2.115   5.123
 6250SOL     OW19285   3.728   3.185   3.918
 6250SOL    HW119286   3.640   3.193   3.880
 6250SOL    HW219287   3.732   3.094   3.949
 6251SOL     OW19288   3.814   3.649   4.663
 6251SOL    HW119289   3.784   3.570   4.619
 6251SOL    HW219290   3.904   3.661   4.632
 6252SOL     OW19291   4.220   3.436   4.630
 6252SOL    HW119292   4.288   3.498   4.654
 6252SOL    HW219293   4.263   3.373   4.573
 6253SOL     OW19294   4.705   2.653   4.950
 6253SOL    HW119295   4.761   2.631   5.024
 6253SOL    HW219296   4.620   2.616   4.972
 6254SOL     OW19297   3.759   2.400   4.840
 6254SOL    HW119298   3.841   2.397   4.791
 6254SOL    HW219299   3.786   2.408   4.932
 6255SOL     OW19300   3.915   2.382   5.452
 6255SOL    HW119301   3.972   2.342   5.385
 6255SOL    HW219302   3.875   2.456   5.408
 6256SOL     OW19303   5.113   2.799   5.390
 6256SOL    HW119304   5.121   2.893   5.378
 6256SOL    HW219305   5.117   2.762   5.302
 6257SOL     OW19306   4.540   2.431   4.085
 6257SOL    HW119307   4.544   2.357   4.025
 6257SOL    HW219308   4.466   2.484   4.054
 6258SOL     OW19309   3.965   3.413   5.450
 6258SOL    HW119310   3.944   3.477   5.518
 6258SOL    HW219311   3.969   3.329   5.498
 6259SOL     OW19312   4.427   2.311   4.982
 6259SOL    HW119313   4.373   2.238   4.953
 6259SOL    HW219314   4.423   2.375   4.910
 6260SOL     OW19315   4.643   3.542   5.193
 6260SOL    HW119316   4.622   3.508   5.106
 6260SOL    HW219317   4.644   3.637   5.183
 6261SOL     OW19318   4.188   2.354   3.911
 6261SOL    HW119319   4.246   2.427   3.933
 6261SOL    HW219320   4.103   2.394   3.897
 6262SOL     OW19321   3.868   3.003   5.195
 6262SOL    HW119322   3.871   2.953   5.277
 6262SOL    HW219323   3.886   2.938   5.127
 6263SOL     OW19324   5.053   2.911   4.948
 6263SOL    HW119325   5.074   2.845   4.881
 6263SOL    HW219326   4.982   2.962   4.909
 6264SOL     OW19327   5.035   2.723   4.040
 6264SOL    HW119328   4.954   2.689   4.078
 6264SOL    HW219329   5.024   2.713   3.946
 6265SOL     OW19330   4.959   3.593   4.844
 6265SOL    HW119331   5.045   3.615   4.809
 6265SOL    HW219332   4.961   3.498   4.854
 6266SOL     OW19333   3.808   3.131   4.737
 6266SOL    HW119334   3.788   3.140   4.830
 6266SOL    HW219335   3.741   3.072   4.704
 6267SOL     OW19336   4.401   3.528   5.454
 6267SOL    HW119337   4.348   3.607   5.447
 6267SOL    HW219338   4.471   3.539   5.390
 6268SOL     OW19339   0.078   2.024   4.255
 6268SOL    HW119340   0.162   2.009   4.211
 6268SOL    HW219341   0.065   1.945   4.308
 6269SOL     OW19342   5.111   3.432   4.206
 6269SOL    HW119343   5.181   3.474   4.156
 6269SOL    HW219344   5.060   3.505   4.241
 6270SOL     OW19345   3.860   3.659   5.567
 6270SOL    HW119346   3.810   3.593   5.615
 6270SOL    HW219347   3.908   3.706   5.635
 6271SOL     OW19348   5.017   2.781   4.395
 6271SOL    HW119349   5.095   2.728   4.383
 6271SOL    HW219350   5.035   2.862   4.347
 6272SOL     OW19351   4.536   3.136   5.153
 6272SOL    HW119352   4.508   3.175   5.236
 6272SOL    HW219353   4.467   3.158   5.091
 6273SOL     OW19354   4.394   3.483   3.879
 6273SOL    HW119355   4.406   3.496   3.785
 6273SOL    HW219356   4.339   3.405   3.886
 6274SOL     OW19357   3.992   2.175   4.442
 6274SOL    HW119358   3.908   2.212   4.415
 6274SOL    HW219359   3.987   2.169   4.537
 6275SOL     OW19360   4.908   3.471   3.766
 6275SOL    HW119361   4.919   3.376   3.776
 6275SOL    HW219362   4.853   3.479   3.688
 6276SOL     OW19363   4.548   2.868   5.097
 6276SOL    HW119364   4.591   2.863   5.012
 6276SOL    HW219365   4.546   2.961   5.118
 6277SOL     OW19366   4.641   2.773   4.014
 6277SOL    HW119367   4.702   2.805   3.948
 6277SOL    HW219368   4.688   2.703   4.059
 6278SOL     OW19369   4.092   3.165   5.216
 6278SOL    HW119370   4.080   3.242   5.160
 6278SOL    HW219371   4.015   3.111   5.199
 6279SOL     OW19372   4.777   2.969   4.431
 6279SOL    HW119373   4.706   2.920   4.471
 6279SOL    HW219374   4.836   2.903   4.394
 6280SOL     OW19375   4.739   2.101   4.693
 6280SOL    HW119376   4.737   2.054   4.609
 6280SOL    HW219377   4.735   2.032   4.759
 6281SOL     OW19378   4.328   3.350   4.205
 6281SOL    HW119379   4.373   3.300   4.138
 6281SOL    HW219380   4.256   3.395   4.159
 6282SOL     OW19381   3.984   3.208   4.012
 6282SOL    HW119382   3.891   3.203   3.991
 6282SOL    HW219383   3.987   3.245   4.100
 6283SOL     OW19384   3.837   2.886   5.444
 6283SOL    HW119385   3.761   2.862   5.496
 6283SOL    HW219386   3.912   2.847   5.490
 6284SOL     OW19387   4.399   2.058   5.224
 6284SOL    HW119388   4.483   2.038   5.183
 6284SOL    HW219389   4.422   2.090   5.311
 6285SOL     OW19390   3.804   2.190   3.758
 6285SOL    HW119391   3.714   2.174   3.728
 6285SOL    HW219392   3.830   2.270   3.712
 6286SOL     OW19393   5.163   2.722   5.128
 6286SOL    HW119394   5.111   2.779   5.071
 6286SOL    HW219395   5.252   2.728   5.093
 6287SOL     OW19396   3.790   2.019   4.034
 6287SOL    HW119397   3.774   2.097   3.981
 6287SOL    HW219398   3.875   1.986   4.005
 6288SOL     OW19399   4.906   3.190   3.838
 6288SOL    HW119400   4.812   3.172   3.839
 6288SOL    HW219401   4.930   3.197   3.930
 6289SOL     OW19402   4.343   2.693   5.158
 6289SOL    HW119403   4.400   2.769   5.143
 6289SOL    HW219404   4.404   2.619   5.166
 6290SOL     OW19405   4.441   2.425   5.427
 6290SOL    HW119406   4.483   2.486   5.488
 6290SOL    HW219407   4.466   2.338   5.460
 6291SOL     OW19408   5.181   3.065   5.356
 6291SOL    HW119409   5.172   3.078   5.450
 6291SOL    HW219410   5.275   3.073   5.339
 6292SOL     OW19411   4.102   3.601   5.289
 6292SOL    HW119412   4.017   3.643   5.274
 6292SOL    HW219413   4.080   3.518   5.330
 6293SOL     OW19414   4.939   2.182   4.179
 6293SOL    HW119415   5.000   2.110   4.167
 6293SOL    HW219416   4.969   2.226   4.259
 6294SOL     OW19417   4.314   2.599   4.394
 6294SOL    HW119418   4.353   2.685   4.380
 6294SOL    HW219419   4.247   2.591   4.327
 6295SOL     OW19420   4.591   3.228   3.760
 6295SOL    HW119421   4.550   3.258   3.842
 6295SOL    HW219422   4.606   3.308   3.710
 6296SOL     OW19423   4.385   3.652   4.667
 6296SOL    HW119424   4.365   3.743   4.645
 6296SOL    HW219425   4.480   3.645   4.661
 6297SOL     OW19426   4.592   2.830   4.579
 6297SOL    HW119427   4.642   2.758   4.618
 6297SOL    HW219428   4.556   2.878   4.654
 6298SOL     OW19429   4.806   2.849   3.814
 6298SOL    HW119430   4.782   2.899   3.736
 6298SOL    HW219431   4.881   2.796   3.787
 6299SOL     OW19432   3.949   3.164   5.580
 6299SOL    HW119433   3.882   3.103   5.550
 6299SOL    HW219434   3.931   3.177   5.673
 6300SOL     OW19435   3.813   3.100   4.390
 6300SOL    HW119436   3.805   3.045   4.468
 6300SOL    HW219437   3.877   3.055   4.335
 6301SOL     OW19438   4.406   3.265   5.353
 6301SOL    HW119439   4.325   3.223   5.385
 6301SOL    HW219440   4.402   3.353   5.389
 6302SOL     OW19441   4.154   2.296   4.249
 6302SOL    HW119442   4.184   2.226   4.191
 6302SOL    HW219443   4.108   2.251   4.320
 6303SOL     OW19444   0.094   3.382   4.824
 6303SOL    HW119445   0.027   3.360   4.760
 6303SOL    HW219446   0.098   3.306   4.882
 6304SOL     OW19447   4.055   2.418   5.016
 6304SOL    HW119448   4.110   2.363   5.071
 6304SOL    HW219449   4.074   2.390   4.927
 6305SOL     OW19450   4.552   3.440   4.401
 6305SOL    HW119451   4.539   3.496   4.324
 6305SOL    HW219452   4.476   3.382   4.402
 6306SOL     OW19453   5.146   2.081   4.839
 6306SOL    HW119454   5.193   2.017   4.893
 6306SOL    HW219455   5.100   2.136   4.902
 6307SOL     OW19456   4.729   1.880   4.865
 6307SOL    HW119457   4.676   1.812   4.824
 6307SOL    HW219458   4.817   1.842   4.870
 6308SOL     OW19459   4.495   3.195   4.040
 6308SOL    HW119460   4.465   3.104   4.047
 6308SOL    HW219461   4.577   3.196   4.089
 6309SOL     OW19462   4.344   3.418   5.010
 6309SOL    HW119463   4.345   3.500   5.058
 6309SOL    HW219464   4.431   3.410   4.972
 6310SOL     OW19465   5.056   1.908   3.891
 6310SOL    HW119466   5.079   1.867   3.808
 6310SOL    HW219467   4.971   1.870   3.914
 6311SOL     OW19468   5.027   2.320   4.405
 6311SOL    HW119469   4.973   2.399   4.409
 6311SOL    HW219470   5.016   2.279   4.491
 6312SOL     OW19471   0.002   2.088   4.605
 6312SOL    HW119472   5.236   2.075   4.674
 6312SOL    HW219473   5.274   2.167   4.560
 6313SOL     OW19474   3.788   2.935   4.015
 6313SOL    HW119475   3.881   2.916   4.003
 6313SOL    HW219476   3.750   2.851   4.041
 6314SOL     OW19477   4.605   3.513   4.070
 6314SOL    HW119478   4.533   3.498   4.007
 6314SOL    HW219479   4.577   3.590   4.120
 6315SOL     OW19480   3.953   2.485   5.710
 6315SOL    HW119481   3.863   2.483   5.745
 6315SOL    HW219482   3.943   2.461   5.618
 6316SOL     OW19483   3.949   2.144   6.578
 6316SOL    HW119484   3.977   2.109   6.662
 6316SOL    HW219485   3.859   2.112   6.568
 6317SOL     OW19486   3.727   2.245   6.224
 6317SOL    HW119487   3.645   2.271   6.265
 6317SOL    HW219488   3.706   2.166   6.175
 6318SOL     OW19489   4.291   3.151   6.763
 6318SOL    HW119490   4.204   3.155   6.724
 6318SOL    HW219491   4.307   3.240   6.795
 6319SOL     OW19492   5.287   3.398   6.292
 6319SOL    HW119493   5.247   3.356   6.368
 6319SOL    HW219494   5.221   3.390   6.223
 6320SOL     OW19495   4.859   2.561   6.285
 6320SOL    HW119496   4.910   2.642   6.275
 6320SOL    HW219497   4.811   2.573   6.366
 6321SOL     OW19498   4.478   3.003   6.628
 6321SOL    HW119499   4.409   3.039   6.685
 6321SOL    HW219500   4.513   3.080   6.583
 6322SOL     OW19501   4.593   2.635   7.407
 6322SOL    HW119502   4.571   2.710   7.463
 6322SOL    HW219503   4.617   2.675   7.323
 6323SOL     OW19504   4.410   2.863   6.232
 6323SOL    HW119505   4.475   2.853   6.302
 6323SOL    HW219506   4.341   2.916   6.272
 6324SOL     OW19507   4.435   3.013   7.400
 6324SOL    HW119508   4.483   3.092   7.427
 6324SOL    HW219509   4.354   3.047   7.363
 6325SOL     OW19510   4.055   3.286   6.654
 6325SOL    HW119511   3.982   3.248   6.604
 6325SOL    HW219512   4.104   3.337   6.589
 6326SOL     OW19513   5.161   3.342   6.940
 6326SOL    HW119514   5.208   3.421   6.964
 6326SOL    HW219515   5.101   3.326   7.013
 6327SOL     OW19516   4.174   2.260   7.072
 6327SOL    HW119517   4.249   2.201   7.078
 6327SOL    HW219518   4.098   2.204   7.086
 6328SOL     OW19519   3.943   3.576   6.057
 6328SOL    HW119520   3.964   3.652   6.111
 6328SOL    HW219521   4.017   3.569   5.997
 6329SOL     OW19522   4.859   3.202   7.278
 6329SOL    HW119523   4.899   3.199   7.365
 6329SOL    HW219524   4.807   3.121   7.272
 6330SOL     OW19525   3.954   3.304   6.121
 6330SOL    HW119526   3.937   3.398   6.124
 6330SOL    HW219527   3.894   3.267   6.186
 6331SOL     OW19528   3.983   2.952   6.477
 6331SOL    HW119529   3.979   2.866   6.517
 6331SOL    HW219530   3.925   3.006   6.531
 6332SOL     OW19531   4.331   3.655   7.011
 6332SOL    HW119532   4.251   3.636   7.060
 6332SOL    HW219533   4.356   3.743   7.039
 6333SOL     OW19534   4.309   2.844   5.721
 6333SOL    HW119535   4.355   2.893   5.653
 6333SOL    HW219536   4.348   2.875   5.803
 6334SOL     OW19537   3.839   2.515   6.146
 6334SOL    HW119538   3.810   2.427   6.167
 6334SOL    HW219539   3.831   2.564   6.228
 6335SOL     OW19540   3.757   3.456   5.709
 6335SOL    HW119541   3.739   3.364   5.730
 6335SOL    HW219542   3.733   3.504   5.789
 6336SOL     OW19543   0.112   2.802   6.162
 6336SOL    HW119544   0.199   2.764   6.174
 6336SOL    HW219545   0.129   2.888   6.123
 6337SOL     OW19546   3.847   2.604   7.172
 6337SOL    HW119547   3.938   2.632   7.178
 6337SOL    HW219548   3.797   2.686   7.179
 6338SOL     OW19549   4.338   3.249   6.322
 6338SOL    HW119550   4.292   3.165   6.331
 6338SOL    HW219551   4.321   3.275   6.231
 6339SOL     OW19552   5.005   3.097   7.010
 6339SOL    HW119553   5.039   3.031   6.950
 6339SOL    HW219554   5.061   3.091   7.087
 6340SOL     OW19555   4.539   1.863   6.096
 6340SOL    HW119556   4.580   1.947   6.075
 6340SOL    HW219557   4.446   1.883   6.104
 6341SOL     OW19558   3.914   2.827   6.859
 6341SOL    HW119559   3.999   2.785   6.843
 6341SOL    HW219560   3.851   2.774   6.810
 6342SOL     OW19561   4.896   3.670   7.209
 6342SOL    HW119562   4.916   3.729   7.137
 6342SOL    HW219563   4.920   3.583   7.177
 6343SOL     OW19564   4.058   2.110   7.402
 6343SOL    HW119565   4.101   2.195   7.414
 6343SOL    HW219566   3.968   2.125   7.430
 6344SOL     OW19567   5.167   3.298   6.521
 6344SOL    HW119568   5.106   3.305   6.594
 6344SOL    HW219569   5.161   3.207   6.492
 6345SOL     OW19570   4.320   2.582   5.853
 6345SOL    HW119571   4.324   2.664   5.803
 6345SOL    HW219572   4.254   2.599   5.921
 6346SOL     OW19573   4.995   2.199   6.505
 6346SOL    HW119574   4.907   2.170   6.526
 6346SOL    HW219575   5.050   2.164   6.575
 6347SOL     OW19576   4.514   2.480   7.036
 6347SOL    HW119577   4.489   2.455   7.125
 6347SOL    HW219578   4.476   2.412   6.981
 6348SOL     OW19579   5.115   2.344   7.267
 6348SOL    HW119580   5.117   2.380   7.355
 6348SOL    HW219581   5.191   2.287   7.262
 6349SOL     OW19582   4.677   2.750   7.169
 6349SOL    HW119583   4.730   2.679   7.132
 6349SOL    HW219584   4.629   2.785   7.094
 6350SOL     OW19585   4.715   2.275   6.823
 6350SOL    HW119586   4.628   2.294   6.858
 6350SOL    HW219587   4.698   2.228   6.741
 6351SOL     OW19588   4.775   2.560   6.011
 6351SOL    HW119589   4.792   2.554   6.105
 6351SOL    HW219590   4.692   2.514   5.998
 6352SOL     OW19591   3.812   2.684   6.362
 6352SOL    HW119592   3.893   2.676   6.413
 6352SOL    HW219593   3.769   2.761   6.398
 6353SOL     OW19594   3.850   3.715   7.166
 6353SOL    HW119595   3.851   3.693   7.259
 6353SOL    HW219596   3.760   3.699   7.138
 6354SOL     OW19597   4.619   2.210   5.780
 6354SOL    HW119598   4.658   2.272   5.718
 6354SOL    HW219599   4.633   2.124   5.741
 6355SOL     OW19600   5.093   3.010   6.135
 6355SOL    HW119601   5.181   3.012   6.097
 6355SOL    HW219602   5.042   3.068   6.078
 6356SOL     OW19603   4.274   2.043   6.480
 6356SOL    HW119604   4.276   2.072   6.571
 6356SOL    HW219605   4.275   2.123   6.428
 6357SOL     OW19606   4.729   3.305   6.058
 6357SOL    HW119607   4.692   3.378   6.008
 6357SOL    HW219608   4.710   3.326   6.149
 6358SOL     OW19609   4.078   3.672   6.450
 6358SOL    HW119610   4.122   3.587   6.457
 6358SOL    HW219611   4.147   3.736   6.468
 6359SOL     OW19612   4.940   3.403   7.104
 6359SOL    HW119613   4.927   3.331   7.165
 6359SOL    HW219614   4.879   3.385   7.032
 6360SOL     OW19615   4.043   2.820   5.837
 6360SOL    HW119616   4.125   2.839   5.792
 6360SOL    HW219617   4.013   2.738   5.798
 6361SOL     OW19618   4.190   3.125   7.323
 6361SOL    HW119619   4.163   3.131   7.232
 6361SOL    HW219620   4.108   3.124   7.372
 6362SOL     OW19621   4.831   3.637   5.823
 6362SOL    HW119622   4.759   3.592   5.867
 6362SOL    HW219623   4.857   3.577   5.752
 6363SOL     OW19624   3.925   2.142   7.088
 6363SOL    HW119625   3.843   2.191   7.083
 6363SOL    HW219626   3.905   2.068   7.145
 6364SOL     OW19627   4.189   3.598   5.907
 6364SOL    HW119628   4.232   3.656   5.970
 6364SOL    HW219629   4.261   3.567   5.851
 6365SOL     OW19630   5.119   1.969   6.010
 6365SOL    HW119631   5.100   1.951   5.918
 6365SOL    HW219632   5.214   1.985   6.012
 6366SOL     OW19633   3.979   3.653   6.817
 6366SOL    HW119634   4.031   3.587   6.863
 6366SOL    HW219635   3.971   3.620   6.728
 6367SOL     OW19636   4.662   3.560   6.484
 6367SOL    HW119637   4.742   3.511   6.502
 6367SOL    HW219638   4.618   3.511   6.415
 6368SOL     OW19639   4.118   2.557   6.061
 6368SOL    HW119640   4.137   2.464   6.073
 6368SOL    HW219641   4.024   2.564   6.079
 6369SOL     OW19642   4.361   1.984   5.690
 6369SOL    HW119643   4.429   1.917   5.704
 6369SOL    HW219644   4.311   1.952   5.615
 6370SOL     OW19645   4.488   2.140   7.341
 6370SOL    HW119646   4.566   2.084   7.340
 6370SOL    HW219647   4.445   2.120   7.424
 6371SOL     OW19648   4.599   3.384   6.780
 6371SOL    HW119649   4.584   3.348   6.692
 6371SOL    HW219650   4.670   3.330   6.816
 6372SOL     OW19651   5.057   2.454   7.018
 6372SOL    HW119652   5.089   2.422   7.103
 6372SOL    HW219653   5.100   2.539   7.006
 6373SOL     OW19654   4.539   3.255   6.527
 6373SOL    HW119655   4.624   3.244   6.483
 6373SOL    HW219656   4.476   3.258   6.455
 6374SOL     OW19657   4.652   2.371   6.488
 6374SOL    HW119658   4.628   2.362   6.396
 6374SOL    HW219659   4.683   2.284   6.514
 6375SOL     OW19660   4.273   1.925   6.087
 6375SOL    HW119661   4.193   1.925   6.139
 6375SOL    HW219662   4.267   2.003   6.032
 6376SOL     OW19663   5.135   3.043   5.630
 6376SOL    HW119664   5.142   2.964   5.683
 6376SOL    HW219665   5.048   3.077   5.650
 6377SOL     OW19666   4.015   1.910   5.771
 6377SOL    HW119667   4.074   1.974   5.731
 6377SOL    HW219668   4.074   1.847   5.813
 6378SOL     OW19669   4.662   2.109   6.045
 6378SOL    HW119670   4.636   2.149   5.962
 6378SOL    HW219671   4.757   2.122   6.049
 6379SOL     OW19672   4.801   2.544   7.046
 6379SOL    HW119673   4.734   2.475   7.048
 6379SOL    HW219674   4.884   2.496   7.037
 6380SOL     OW19675   4.940   3.433   6.380
 6380SOL    HW119676   4.961   3.500   6.315
 6380SOL    HW219677   5.021   3.420   6.429
 6381SOL     OW19678   4.193   3.012   6.318
 6381SOL    HW119679   4.125   2.992   6.382
 6381SOL    HW219680   4.153   2.996   6.233
 6382SOL     OW19681   4.995   3.656   6.192
 6382SOL    HW119682   5.037   3.717   6.131
 6382SOL    HW219683   4.928   3.708   6.236
 6383SOL     OW19684   4.747   2.404   5.609
 6383SOL    HW119685   4.703   2.486   5.589
 6383SOL    HW219686   4.809   2.426   5.679
 6384SOL     OW19687   3.804   2.416   6.978
 6384SOL    HW119688   3.896   2.415   6.951
 6384SOL    HW219689   3.799   2.486   7.043
 6385SOL     OW19690   4.283   2.089   6.753
 6385SOL    HW119691   4.325   2.014   6.794
 6385SOL    HW219692   4.192   2.085   6.782
 6386SOL     OW19693   4.592   2.321   6.225
 6386SOL    HW119694   4.546   2.376   6.161
 6386SOL    HW219695   4.613   2.241   6.177
 6387SOL     OW19696   4.739   1.915   6.337
 6387SOL    HW119697   4.681   1.908   6.261
 6387SOL    HW219698   4.717   1.840   6.391
 6388SOL     OW19699   5.156   3.038   6.437
 6388SOL    HW119700   5.101   2.961   6.450
 6388SOL    HW219701   5.168   3.043   6.342
 6389SOL     OW19702   4.214   3.281   5.741
 6389SOL    HW119703   4.139   3.252   5.793
 6389SOL    HW219704   4.202   3.239   5.656
 6390SOL     OW19705   5.128   2.423   5.667
 6390SOL    HW119706   5.054   2.414   5.728
 6390SOL    HW219707   5.202   2.385   5.713
 6391SOL     OW19708   4.250   2.125   5.903
 6391SOL    HW119709   4.295   2.078   5.833
 6391SOL    HW219710   4.226   2.209   5.864
 6392SOL     OW19711   4.779   3.216   6.919
 6392SOL    HW119712   4.704   3.185   6.970
 6392SOL    HW219713   4.855   3.174   6.959
 6393SOL     OW19714   0.007   3.468   7.201
 6393SOL    HW119715   0.041   3.471   7.112
 6393SOL    HW219716   0.083   3.447   7.255
 6394SOL     OW19717   4.854   3.066   6.692
 6394SOL    HW119718   4.792   3.101   6.756
 6394SOL    HW219719   4.821   3.096   6.607
 6395SOL     OW19720   4.642   1.959   6.982
 6395SOL    HW119721   4.664   1.941   6.890
 6395SOL    HW219722   4.721   1.998   7.018
 6396SOL     OW19723   4.709   2.973   7.314
 6396SOL    HW119724   4.617   2.993   7.332
 6396SOL    HW219725   4.706   2.897   7.256
 6397SOL     OW19726   4.433   2.924   5.957
 6397SOL    HW119727   4.419   2.906   6.050
 6397SOL    HW219728   4.509   2.870   5.934
 6398SOL     OW19729   4.143   2.677   6.837
 6398SOL    HW119730   4.211   2.687   6.904
 6398SOL    HW219731   4.108   2.589   6.851
 6399SOL     OW19732   4.988   2.237   6.863
 6399SOL    HW119733   5.023   2.316   6.904
 6399SOL    HW219734   4.898   2.260   6.839
 6400SOL     OW19735   3.795   3.435   6.940
 6400SOL    HW119736   3.766   3.508   6.885
 6400SOL    HW219737   3.891   3.438   6.934
 6401SOL     OW19738   4.071   2.973   6.076
 6401SOL    HW119739   4.076   3.046   6.015
 6401SOL    HW219740   4.068   2.895   6.020
 6402SOL     OW19741   4.276   2.398   6.446
 6402SOL    HW119742   4.291   2.456   6.371
 6402SOL    HW219743   4.341   2.424   6.510
 6403SOL     OW19744   4.972   3.211   5.973
 6403SOL    HW119745   5.026   3.284   6.003
 6403SOL    HW219746   4.884   3.231   6.007
 6404SOL     OW19747   4.996   3.319   6.726
 6404SOL    HW119748   5.050   3.320   6.805
 6404SOL    HW219749   4.941   3.241   6.736
 6405SOL     OW19750   4.070   3.390   6.900
 6405SOL    HW119751   4.058   3.347   6.815
 6405SOL    HW219752   4.165   3.402   6.908
 6406SOL     OW19753   4.139   2.607   7.188
 6406SOL    HW119754   4.201   2.652   7.130
 6406SOL    HW219755   4.177   2.521   7.203
 6407SOL     OW19756   4.718   1.989   7.340
 6407SOL    HW119757   4.776   2.061   7.315
 6407SOL    HW219758   4.765   1.910   7.316
 6408SOL     OW19759   4.222   1.901   7.334
 6408SOL    HW119760   4.178   1.847   7.268
 6408SOL    HW219761   4.164   1.976   7.346
 6409SOL     OW19762   4.308   2.735   6.618
 6409SOL    HW119763   4.338   2.826   6.617
 6409SOL    HW219764   4.251   2.729   6.694
 6410SOL     OW19765   5.086   2.718   6.622
 6410SOL    HW119766   5.009   2.698   6.569
 6410SOL    HW219767   5.140   2.640   6.616
 6411SOL     OW19768   4.927   2.393   5.849
 6411SOL    HW119769   4.934   2.313   5.902
 6411SOL    HW219770   4.883   2.456   5.907
 6412SOL     OW19771   4.022   2.060   6.833
 6412SOL    HW119772   3.985   2.092   6.915
 6412SOL    HW219773   4.003   1.966   6.833
 6413SOL     OW19774   3.772   3.173   6.861
 6413SOL    HW119775   3.803   3.118   6.933
 6413SOL    HW219776   3.777   3.262   6.895
 6414SOL     OW19777   4.447   2.492   6.643
 6414SOL    HW119778   4.522   2.477   6.586
 6414SOL    HW219779   4.419   2.582   6.622
 6415SOL     OW19780   4.028   1.926   6.209
 6415SOL    HW119781   4.007   2.017   6.232
 6415SOL    HW219782   4.035   1.881   6.294
 6416SOL     OW19783   0.034   2.258   5.944
 6416SOL    HW119784   0.052   2.182   6.000
 6416SOL    HW219785   0.021   2.330   6.006
 6417SOL     OW19786   4.751   2.621   6.545
 6417SOL    HW119787   4.749   2.638   6.639
 6417SOL    HW219788   4.725   2.529   6.537
 6418SOL     OW19789   4.698   3.423   7.300
 6418SOL    HW119790   4.687   3.471   7.218
 6418SOL    HW219791   4.745   3.344   7.276
 6419SOL     OW19792   4.077   2.776   7.397
 6419SOL    HW119793   4.161   2.797   7.439
 6419SOL    HW219794   4.100   2.714   7.328
 6420SOL     OW19795   5.027   2.691   5.623
 6420SOL    HW119796   5.065   2.602   5.625
 6420SOL    HW219797   5.055   2.726   5.538
 6421SOL     OW19798   4.790   3.196   6.442
 6421SOL    HW119799   4.794   3.125   6.379
 6421SOL    HW219800   4.847   3.264   6.406
 6422SOL     OW19801   4.032   2.671   6.533
 6422SOL    HW119802   4.125   2.692   6.526
 6422SOL    HW219803   4.031   2.581   6.565
 6423SOL     OW19804   4.055   2.389   6.599
 6423SOL    HW119805   4.020   2.301   6.584
 6423SOL    HW219806   4.131   2.394   6.541
 6424SOL     OW19807   4.857   2.238   7.266
 6424SOL    HW119808   4.809   2.292   7.328
 6424SOL    HW219809   4.944   2.277   7.262
 6425SOL     OW19810   4.885   2.063   7.055
 6425SOL    HW119811   4.873   2.125   7.127
 6425SOL    HW219812   4.924   2.115   6.984
 6426SOL     OW19813   3.729   3.183   5.781
 6426SOL    HW119814   3.642   3.197   5.743
 6426SOL    HW219815   3.726   3.093   5.815
 6427SOL     OW19816   3.814   3.648   6.524
 6427SOL    HW119817   3.784   3.569   6.480
 6427SOL    HW219818   3.904   3.661   6.494
 6428SOL     OW19819   4.220   3.436   6.491
 6428SOL    HW119820   4.288   3.498   6.515
 6428SOL    HW219821   4.264   3.373   6.435
 6429SOL     OW19822   4.705   2.653   6.812
 6429SOL    HW119823   4.761   2.631   6.886
 6429SOL    HW219824   4.620   2.616   6.834
 6430SOL     OW19825   3.759   2.407   6.703
 6430SOL    HW119826   3.840   2.395   6.653
 6430SOL    HW219827   3.788   2.410   6.794
 6431SOL     OW19828   3.917   2.382   7.314
 6431SOL    HW119829   3.970   2.341   7.246
 6431SOL    HW219830   3.875   2.456   7.270
 6432SOL     OW19831   5.112   2.798   7.253
 6432SOL    HW119832   5.120   2.893   7.241
 6432SOL    HW219833   5.116   2.762   7.164
 6433SOL     OW19834   4.540   2.432   5.947
 6433SOL    HW119835   4.544   2.357   5.887
 6433SOL    HW219836   4.466   2.483   5.915
 6434SOL     OW19837   3.966   3.413   7.313
 6434SOL    HW119838   3.944   3.477   7.380
 6434SOL    HW219839   3.969   3.330   7.360
 6435SOL     OW19840   4.427   2.311   6.844
 6435SOL    HW119841   4.373   2.238   6.815
 6435SOL    HW219842   4.422   2.375   6.772
 6436SOL     OW19843   4.644   3.542   7.055
 6436SOL    HW119844   4.622   3.509   6.968
 6436SOL    HW219845   4.644   3.637   7.045
 6437SOL     OW19846   4.187   2.354   5.772
 6437SOL    HW119847   4.246   2.427   5.794
 6437SOL    HW219848   4.102   2.395   5.759
 6438SOL     OW19849   3.869   3.003   7.059
 6438SOL    HW119850   3.871   2.952   7.140
 6438SOL    HW219851   3.886   2.939   6.990
 6439SOL     OW19852   5.053   2.910   6.810
 6439SOL    HW119853   5.074   2.845   6.743
 6439SOL    HW219854   4.982   2.962   6.771
 6440SOL     OW19855   5.035   2.723   5.902
 6440SOL    HW119856   4.954   2.689   5.940
 6440SOL    HW219857   5.024   2.713   5.808
 6441SOL     OW19858   4.959   3.593   6.706
 6441SOL    HW119859   5.045   3.615   6.670
 6441SOL    HW219860   4.961   3.498   6.716
 6442SOL     OW19861   3.809   3.129   6.597
 6442SOL    HW119862   3.794   3.142   6.691
 6442SOL    HW219863   3.735   3.074   6.570
 6443SOL     OW19864   4.400   3.527   7.315
 6443SOL    HW119865   4.349   3.607   7.310
 6443SOL    HW219866   4.471   3.539   7.252
 6444SOL     OW19867   0.078   2.024   6.118
 6444SOL    HW119868   0.161   2.008   6.072
 6444SOL    HW219869   0.065   1.945   6.170
 6445SOL     OW19870   5.111   3.432   6.068
 6445SOL    HW119871   5.181   3.474   6.018
 6445SOL    HW219872   5.060   3.505   6.103
 6446SOL     OW19873   3.861   3.658   7.430
 6446SOL    HW119874   3.810   3.593   7.479
 6446SOL    HW219875   3.909   3.706   7.497
 6447SOL     OW19876   5.017   2.781   6.257
 6447SOL    HW119877   5.095   2.728   6.245
 6447SOL    HW219878   5.035   2.862   6.209
 6448SOL     OW19879   4.536   3.136   7.015
 6448SOL    HW119880   4.508   3.175   7.098
 6448SOL    HW219881   4.467   3.158   6.953
 6449SOL     OW19882   4.394   3.483   5.741
 6449SOL    HW119883   4.406   3.496   5.647
 6449SOL    HW219884   4.339   3.405   5.748
 6450SOL     OW19885   3.985   2.177   6.302
 6450SOL    HW119886   3.899   2.213   6.279
 6450SOL    HW219887   3.983   2.170   6.398
 6451SOL     OW19888   4.908   3.471   5.628
 6451SOL    HW119889   4.920   3.376   5.638
 6451SOL    HW219890   4.853   3.480   5.550
 6452SOL     OW19891   4.548   2.868   6.959
 6452SOL    HW119892   4.591   2.863   6.874
 6452SOL    HW219893   4.546   2.961   6.980
 6453SOL     OW19894   4.640   2.773   5.876
 6453SOL    HW119895   4.702   2.805   5.810
 6453SOL    HW219896   4.688   2.703   5.921
 6454SOL     OW19897   4.092   3.165   7.078
 6454SOL    HW119898   4.079   3.242   7.022
 6454SOL    HW219899   4.016   3.111   7.062
 6455SOL     OW19900   4.777   2.969   6.293
 6455SOL    HW119901   4.706   2.919   6.333
 6455SOL    HW219902   4.836   2.903   6.256
 6456SOL     OW19903   4.739   2.101   6.554
 6456SOL    HW119904   4.737   2.054   6.471
 6456SOL    HW219905   4.735   2.032   6.621
 6457SOL     OW19906   4.327   3.350   6.067
 6457SOL    HW119907   4.373   3.300   6.000
 6457SOL    HW219908   4.257   3.396   6.020
 6458SOL     OW19909   3.983   3.206   5.875
 6458SOL    HW119910   3.891   3.204   5.852
 6458SOL    HW219911   3.986   3.243   5.963
 6459SOL     OW19912   3.837   2.885   7.306
 6459SOL    HW119913   3.760   2.862   7.358
 6459SOL    HW219914   3.911   2.846   7.354
 6460SOL     OW19915   4.398   2.058   7.086
 6460SOL    HW119916   4.483   2.038   7.045
 6460SOL    HW219917   4.421   2.089   7.173
 6461SOL     OW19918   3.803   2.195   5.621
 6461SOL    HW119919   3.716   2.175   5.586
 6461SOL    HW219920   3.833   2.270   5.570
 6462SOL     OW19921   5.163   2.722   6.990
 6462SOL    HW119922   5.111   2.779   6.933
 6462SOL    HW219923   5.252   2.729   6.956
 6463SOL     OW19924   3.791   2.018   5.894
 6463SOL    HW119925   3.778   2.098   5.844
 6463SOL    HW219926   3.876   1.985   5.865
 6464SOL     OW19927   4.906   3.190   5.700
 6464SOL    HW119928   4.812   3.172   5.701
 6464SOL    HW219929   4.930   3.197   5.792
 6465SOL     OW19930   4.343   2.693   7.020
 6465SOL    HW119931   4.400   2.769   7.004
 6465SOL    HW219932   4.403   2.619   7.028
 6466SOL     OW19933   4.442   2.424   7.290
 6466SOL    HW119934   4.483   2.485   7.351
 6466SOL    HW219935   4.466   2.337   7.322
 6467SOL     OW19936   5.181   3.065   7.217
 6467SOL    HW119937   5.171   3.077   7.311
 6467SOL    HW219938   5.275   3.074   7.201
 6468SOL     OW19939   4.102   3.602   7.151
 6468SOL    HW119940   4.017   3.644   7.137
 6468SOL    HW219941   4.080   3.518   7.192
 6469SOL     OW19942   4.939   2.182   6.041
 6469SOL    HW119943   5.000   2.110   6.029
 6469SOL    HW219944   4.969   2.226   6.121
 6470SOL     OW19945   4.314   2.599   6.256
 6470SOL    HW119946   4.353   2.685   6.241
 6470SOL    HW219947   4.246   2.591   6.188
 6471SOL     OW19948   4.591   3.228   5.622
 6471SOL    HW119949   4.550   3.258   5.703
 6471SOL    HW219950   4.606   3.307   5.572
 6472SOL     OW19951   4.385   3.652   6.529
 6472SOL    HW119952   4.365   3.743   6.507
 6472SOL    HW219953   4.480   3.645   6.523
 6473SOL     OW19954   4.592   2.830   6.441
 6473SOL    HW119955   4.642   2.758   6.480
 6473SOL    HW219956   4.556   2.878   6.516
 6474SOL     OW19957   4.806   2.849   5.676
 6474SOL    HW119958   4.782   2.899   5.598
 6474SOL    HW219959   4.881   2.796   5.649
 6475SOL     OW19960   3.949   3.164   7.442
 6475SOL    HW119961   3.883   3.103   7.410
 6475SOL    HW219962   3.926   3.178   7.534
 6476SOL     OW19963   3.808   3.094   6.251
 6476SOL    HW119964   3.815   3.047   6.334
 6476SOL    HW219965   3.876   3.056   6.196
 6477SOL     OW19966   4.405   3.264   7.215
 6477SOL    HW119967   4.325   3.223   7.246
 6477SOL    HW219968   4.402   3.353   7.250
 6478SOL     OW19969   4.153   2.296   6.112
 6478SOL    HW119970   4.183   2.225   6.055
 6478SOL    HW219971   4.105   2.252   6.181
 6479SOL     OW19972   0.094   3.382   6.686
 6479SOL    HW119973   0.027   3.360   6.622
 6479SOL    HW219974   0.098   3.306   6.744
 6480SOL     OW19975   4.055   2.418   6.878
 6480SOL    HW119976   4.111   2.362   6.933
 6480SOL    HW219977   4.074   2.390   6.789
 6481SOL     OW19978   4.553   3.439   6.263
 6481SOL    HW119979   4.539   3.496   6.186
 6481SOL    HW219980   4.476   3.382   6.264
 6482SOL     OW19981   5.146   2.081   6.701
 6482SOL    HW119982   5.192   2.016   6.755
 6482SOL    HW219983   5.100   2.136   6.764
 6483SOL     OW19984   4.729   1.880   6.727
 6483SOL    HW119985   4.676   1.812   6.686
 6483SOL    HW219986   4.817   1.842   6.732
 6484SOL     OW19987   4.495   3.195   5.903
 6484SOL    HW119988   4.465   3.104   5.909
 6484SOL    HW219989   4.577   3.197   5.951
 6485SOL     OW19990   4.344   3.418   6.871
 6485SOL    HW119991   4.345   3.500   6.920
 6485SOL    HW219992   4.431   3.410   6.834
 6486SOL     OW19993   5.056   1.907   5.753
 6486SOL    HW119994   5.079   1.867   5.670
 6486SOL    HW219995   4.971   1.870   5.776
 6487SOL     OW19996   5.027   2.320   6.267
 6487SOL    HW119997   4.973   2.399   6.271
 6487SOL    HW219998   5.016   2.279   6.353
 6488SOL     OW19999   0.002   2.088   6.467
 6488SOL    HW120000   5.237   2.075   6.536
 6488SOL    HW220001   5.274   2.167   6.422
 6489SOL     OW20002   3.767   2.932   5.893
 6489SOL    HW120003   3.861   2.925   5.875
 6489SOL    HW220004   3.739   2.843   5.915
 6490SOL     OW20005   4.604   3.513   5.932
 6490SOL    HW120006   4.533   3.498   5.869
 6490SOL    HW220007   4.577   3.590   5.982
 6491SOL     OW20008   3.952   2.481   7.573
 6491SOL    HW120009   3.862   2.489   7.604
 6491SOL    HW220010   3.944   2.459   7.480
 6492SOL     OW20011   3.945   3.578   7.919
 6492SOL    HW120012   3.973   3.620   8.001
 6492SOL    HW220013   4.024   3.578   7.865
 6493SOL     OW20014   3.940   3.300   7.992
 6493SOL    HW120015   3.927   3.395   7.988
 6493SOL    HW220016   3.880   3.270   8.060
 6494SOL     OW20017   4.310   2.844   7.579
 6494SOL    HW120018   4.354   2.894   7.511
 6494SOL    HW220019   4.348   2.876   7.661
 6495SOL     OW20020   3.755   3.461   7.578
 6495SOL    HW120021   3.738   3.368   7.593
 6495SOL    HW220022   3.728   3.503   7.659
 6496SOL     OW20023   0.116   2.790   8.014
 6496SOL    HW120024   0.210   2.781   8.033
 6496SOL    HW220025   0.104   2.884   8.001
 6497SOL     OW20026   4.525   1.857   7.938
 6497SOL    HW120027   4.575   1.937   7.921
 6497SOL    HW220028   4.434   1.886   7.946
 6498SOL     OW20029   4.315   2.587   7.709
 6498SOL    HW120030   4.316   2.669   7.660
 6498SOL    HW220031   4.254   2.603   7.781
 6499SOL     OW20032   3.783   2.725   0.088
 6499SOL    HW120033   3.848   2.660   0.115
 6499SOL    HW220034   3.782   2.789   0.159
 6500SOL     OW20035   4.609   2.208   7.640
 6500SOL    HW120036   4.651   2.267   7.576
 6500SOL    HW220037   4.639   2.121   7.615
 6501SOL     OW20038   4.047   2.818   7.698
 6501SOL    HW120039   4.126   2.836   7.647
 6501SOL    HW220040   4.009   2.740   7.657
 6502SOL     OW20041   4.836   3.638   7.685
 6502SOL    HW120042   4.762   3.595   7.728
 6502SOL    HW220043   4.861   3.578   7.614
 6503SOL     OW20044   4.190   3.600   7.770
 6503SOL    HW120045   4.240   3.653   7.833
 6503SOL    HW220046   4.257   3.564   7.712
 6504SOL     OW20047   5.132   1.989   7.855
 6504SOL    HW120048   5.096   1.964   7.770
 6504SOL    HW220049   5.227   1.989   7.841
 6505SOL     OW20050   4.116   2.560   7.917
 6505SOL    HW120051   4.117   2.465   7.927
 6505SOL    HW220052   4.025   2.586   7.930
 6506SOL     OW20053   4.355   1.981   7.558
 6506SOL    HW120054   4.428   1.920   7.570
 6506SOL    HW220055   4.310   1.951   7.480
 6507SOL     OW20056   4.256   1.937   7.959
 6507SOL    HW120057   4.171   1.941   8.002
 6507SOL    HW220058   4.254   2.008   7.895
 6508SOL     OW20059   5.135   3.042   7.489
 6508SOL    HW120060   5.150   2.971   7.551
 6508SOL    HW220061   5.049   3.076   7.511
 6509SOL     OW20062   4.016   1.911   7.633
 6509SOL    HW120063   4.074   1.972   7.587
 6509SOL    HW220064   4.075   1.847   7.672
 6510SOL     OW20065   4.667   2.089   7.909
 6510SOL    HW120066   4.624   2.151   7.851
 6510SOL    HW220067   4.758   2.116   7.913
 6511SOL     OW20068   4.161   3.008   0.100
 6511SOL    HW120069   4.089   3.054   0.144
 6511SOL    HW220070   4.132   2.998   0.010
 6512SOL     OW20071   5.009   3.667   8.012
 6512SOL    HW120072   5.049   3.732   7.954
 6512SOL    HW220073   4.936   3.713   8.053
 6513SOL     OW20074   4.750   2.405   7.467
 6513SOL    HW120075   4.703   2.486   7.450
 6513SOL    HW220076   4.804   2.424   7.544
 6514SOL     OW20077   4.211   3.279   7.603
 6514SOL    HW120078   4.137   3.250   7.657
 6514SOL    HW220079   4.197   3.237   7.518
 6515SOL     OW20080   5.128   2.422   7.531
 6515SOL    HW120081   5.053   2.413   7.589
 6515SOL    HW220082   5.201   2.382   7.580
 6516SOL     OW20083   4.249   2.128   7.769
 6516SOL    HW120084   4.294   2.079   7.701
 6516SOL    HW220085   4.226   2.211   7.728
 6517SOL     OW20086   4.437   2.924   7.810
 6517SOL    HW120087   4.410   2.911   7.901
 6517SOL    HW220088   4.516   2.871   7.801
 6518SOL     OW20089   4.089   2.967   7.925
 6518SOL    HW120090   4.069   3.046   7.875
 6518SOL    HW220091   4.075   2.895   7.864
 6519SOL     OW20092   4.957   3.221   7.818
 6519SOL    HW120093   5.015   3.292   7.845
 6519SOL    HW220094   4.906   3.201   7.896
 6520SOL     OW20095   0.039   2.512   7.924
 6520SOL    HW120096   5.280   2.523   7.999
 6520SOL    HW220097   0.037   2.596   7.879
 6521SOL     OW20098   4.925   2.391   7.712
 6521SOL    HW120099   4.929   2.307   7.758
 6521SOL    HW220100   4.896   2.454   7.777
 6522SOL     OW20101   0.023   2.267   7.804
 6522SOL    HW120102   0.035   2.199   7.870
 6522SOL    HW220103   0.025   2.349   7.854
 6523SOL     OW20104   5.035   2.694   7.491
 6523SOL    HW120105   5.066   2.603   7.488
 6523SOL    HW220106   5.058   2.730   7.405
 6524SOL     OW20107   3.730   3.186   7.639
 6524SOL    HW120108   3.643   3.199   7.602
 6524SOL    HW220109   3.729   3.096   7.673
 6525SOL     OW20110   4.566   2.467   7.756
 6525SOL    HW120111   4.559   2.375   7.733
 6525SOL    HW220112   4.476   2.499   7.759
 6526SOL     OW20113   4.185   2.355   7.642
 6526SOL    HW120114   4.244   2.429   7.657
 6526SOL    HW220115   4.100   2.396   7.623
 6527SOL     OW20116   5.031   2.709   7.774
 6527SOL    HW120117   4.939   2.729   7.790
 6527SOL    HW220118   5.039   2.707   7.679
 6528SOL     OW20119   0.183   2.005   7.991
 6528SOL    HW120120   0.156   1.989   7.900
 6528SOL    HW220121   0.138   1.937   8.041
 6529SOL     OW20122   5.104   3.435   7.906
 6529SOL    HW120123   5.199   3.443   7.913
 6529SOL    HW220124   5.070   3.517   7.943
 6530SOL     OW20125   4.389   3.483   7.603
 6530SOL    HW120126   4.403   3.494   7.509
 6530SOL    HW220127   4.337   3.403   7.610
 6531SOL     OW20128   4.911   3.472   7.487
 6531SOL    HW120129   4.920   3.378   7.501
 6531SOL    HW220130   4.851   3.480   7.412
 6532SOL     OW20131   4.654   2.769   7.759
 6532SOL    HW120132   4.705   2.793   7.681
 6532SOL    HW220133   4.642   2.674   7.750
 6533SOL     OW20134   4.329   3.369   7.936
 6533SOL    HW120135   4.376   3.309   7.877
 6533SOL    HW220136   4.256   3.401   7.884
 6534SOL     OW20137   3.983   3.207   7.743
 6534SOL    HW120138   3.891   3.205   7.717
 6534SOL    HW220139   3.981   3.243   7.832
 6535SOL     OW20140   3.802   2.194   7.483
 6535SOL    HW120141   3.715   2.175   7.446
 6535SOL    HW220142   3.833   2.270   7.434
 6536SOL     OW20143   3.793   2.019   7.757
 6536SOL    HW120144   3.777   2.095   7.700
 6536SOL    HW220145   3.876   1.983   7.726
 6537SOL     OW20146   4.904   3.190   7.555
 6537SOL    HW120147   4.809   3.177   7.554
 6537SOL    HW220148   4.926   3.203   7.647
 6538SOL     OW20149   5.271   3.604   0.322
 6538SOL    HW120150   5.273   3.691   0.282
 6538SOL    HW220151   0.046   3.603   0.381
 6539SOL     OW20152   4.937   2.182   7.900
 6539SOL    HW120153   5.009   2.120   7.890
 6539SOL    HW220154   4.955   2.224   7.985
 6540SOL     OW20155   4.352   2.596   8.055
 6540SOL    HW120156   4.356   2.678   0.024
 6540SOL    HW220157   4.265   2.596   8.015
 6541SOL     OW20158   4.592   3.228   7.485
 6541SOL    HW120159   4.551   3.257   7.567
 6541SOL    HW220160   4.606   3.308   7.435
 6542SOL     OW20161   4.801   2.839   7.540
 6542SOL    HW120162   4.778   2.894   7.466
 6542SOL    HW220163   4.880   2.792   7.512
 6543SOL     OW20164   4.110   2.290   7.984
 6543SOL    HW120165   4.161   2.238   7.921
 6543SOL    HW220166   4.162   2.286   8.064
 6544SOL     OW20167   4.488   3.198   7.762
 6544SOL    HW120168   4.460   3.107   7.764
 6544SOL    HW220169   4.567   3.200   7.816
 6545SOL     OW20170   5.060   1.906   7.609
 6545SOL    HW120171   5.079   1.861   7.527
 6545SOL    HW220172   4.976   1.869   7.638
 6546SOL     OW20173   3.775   2.940   7.749
 6546SOL    HW120174   3.870   2.931   7.736
 6546SOL    HW220175   3.745   2.851   7.765
 6547SOL     OW20176   4.613   3.509   7.782
 6547SOL    HW120177   4.537   3.490   7.728
 6547SOL    HW220178   4.582   3.573   7.846
 6548SOL     OW20179   3.941   4.347   0.123
 6548SOL    HW120180   3.861   4.312   0.162
 6548SOL    HW220181   3.963   4.284   0.053
 6549SOL     OW20182   3.949   4.006   0.992
 6549SOL    HW120183   3.977   3.971   1.077
 6549SOL    HW220184   3.859   3.974   0.982
 6550SOL     OW20185   3.727   4.107   0.638
 6550SOL    HW120186   3.645   4.133   0.680
 6550SOL    HW220187   3.706   4.027   0.590
 6551SOL     OW20188   4.290   5.007   1.181
 6551SOL    HW120189   4.205   5.006   1.136
 6551SOL    HW220190   4.304   5.098   1.205
 6552SOL     OW20191   5.276   5.233   0.691
 6552SOL    HW120192   5.267   5.216   0.785
 6552SOL    HW220193   5.186   5.228   0.657
 6553SOL     OW20194   4.859   4.423   0.699
 6553SOL    HW120195   4.910   4.503   0.689
 6553SOL    HW220196   4.811   4.436   0.781
 6554SOL     OW20197   4.477   4.866   1.039
 6554SOL    HW120198   4.411   4.899   1.099
 6554SOL    HW220199   4.509   4.944   0.993
 6555SOL     OW20200   4.594   4.496   1.823
 6555SOL    HW120201   4.576   4.567   1.884
 6555SOL    HW220202   4.615   4.540   1.740
 6556SOL     OW20203   4.408   4.723   0.651
 6556SOL    HW120204   4.474   4.714   0.719
 6556SOL    HW220205   4.340   4.779   0.690
 6557SOL     OW20206   4.433   4.873   1.814
 6557SOL    HW120207   4.482   4.952   1.837
 6557SOL    HW220208   4.351   4.905   1.777
 6558SOL     OW20209   4.061   5.149   1.059
 6558SOL    HW120210   3.983   5.104   1.025
 6558SOL    HW220211   4.099   5.192   0.983
 6559SOL     OW20212   5.126   5.239   1.341
 6559SOL    HW120213   5.146   0.008   1.404
 6559SOL    HW220214   5.106   5.162   1.395
 6560SOL     OW20215   4.174   4.122   1.486
 6560SOL    HW120216   4.249   4.063   1.492
 6560SOL    HW220217   4.098   4.066   1.500
 6561SOL     OW20218   4.865   5.050   1.701
 6561SOL    HW120219   4.886   5.065   1.794
 6561SOL    HW220220   4.804   4.976   1.702
 6562SOL     OW20221   3.931   5.156   0.515
 6562SOL    HW120222   3.960   5.237   0.557
 6562SOL    HW220223   3.880   5.111   0.583
 6563SOL     OW20224   3.983   4.811   0.891
 6563SOL    HW120225   3.981   4.724   0.931
 6563SOL    HW220226   3.926   4.864   0.947
 6564SOL     OW20227   4.351   4.683   0.134
 6564SOL    HW120228   4.299   4.759   0.109
 6564SOL    HW220229   4.403   4.713   0.209
 6565SOL     OW20230   3.839   4.375   0.563
 6565SOL    HW120231   3.809   4.286   0.584
 6565SOL    HW220232   3.831   4.423   0.645
 6566SOL     OW20233   3.700   0.021   0.094
 6566SOL    HW120234   3.715   5.230   0.121
 6566SOL    HW220235   3.730   0.073   0.168
 6567SOL     OW20236   0.116   4.654   0.584
 6567SOL    HW120237   0.210   4.636   0.585
 6567SOL    HW220238   0.109   4.744   0.552
 6568SOL     OW20239   3.848   4.467   1.586
 6568SOL    HW120240   3.939   4.493   1.592
 6568SOL    HW220241   3.798   4.549   1.593
 6569SOL     OW20242   4.346   5.099   0.738
 6569SOL    HW120243   4.292   5.020   0.735
 6569SOL    HW220244   4.329   5.144   0.655
 6570SOL     OW20245   5.021   4.973   1.420
 6570SOL    HW120246   5.048   4.901   1.362
 6570SOL    HW220247   5.068   4.956   1.502
 6571SOL     OW20248   4.540   3.727   0.513
 6571SOL    HW120249   4.580   3.811   0.489
 6571SOL    HW220250   4.447   3.746   0.520
 6572SOL     OW20251   3.914   4.689   1.271
 6572SOL    HW120252   3.999   4.647   1.257
 6572SOL    HW220253   3.852   4.635   1.222
 6573SOL     OW20254   4.058   3.974   1.814
 6573SOL    HW120255   4.102   4.057   1.831
 6573SOL    HW220256   3.968   3.987   1.844
 6574SOL     OW20257   5.178   5.154   0.950
 6574SOL    HW120258   5.110   5.164   1.016
 6574SOL    HW220259   5.164   5.067   0.913
 6575SOL     OW20260   0.049   0.164   0.562
 6575SOL    HW120261   0.091   0.123   0.486
 6575SOL    HW220262   0.037   0.092   0.625
 6576SOL     OW20263   4.322   4.437   0.282
 6576SOL    HW120264   4.341   4.516   0.232
 6576SOL    HW220265   4.258   4.465   0.348
 6577SOL     OW20266   4.995   4.061   0.918
 6577SOL    HW120267   4.907   4.031   0.941
 6577SOL    HW220268   5.050   4.026   0.989
 6578SOL     OW20269   4.514   4.342   1.450
 6578SOL    HW120270   4.488   4.317   1.539
 6578SOL    HW220271   4.475   4.274   1.395
 6579SOL     OW20272   5.114   4.205   1.681
 6579SOL    HW120273   5.116   4.242   1.769
 6579SOL    HW220274   5.191   4.148   1.676
 6580SOL     OW20275   4.676   4.611   1.583
 6580SOL    HW120276   4.730   4.540   1.547
 6580SOL    HW220277   4.629   4.646   1.507
 6581SOL     OW20278   4.715   4.136   1.238
 6581SOL    HW120279   4.628   4.157   1.272
 6581SOL    HW220280   4.698   4.091   1.155
 6582SOL     OW20281   4.778   4.422   0.426
 6582SOL    HW120282   4.794   4.417   0.520
 6582SOL    HW220283   4.694   4.376   0.414
 6583SOL     OW20284   3.812   4.546   0.776
 6583SOL    HW120285   3.893   4.539   0.827
 6583SOL    HW220286   3.768   4.623   0.811
 6584SOL     OW20287   4.609   4.081   0.201
 6584SOL    HW120288   4.654   4.130   0.132
 6584SOL    HW220289   4.611   3.990   0.170
 6585SOL     OW20290   5.093   4.870   0.548
 6585SOL    HW120291   5.181   4.867   0.511
 6585SOL    HW220292   5.044   4.928   0.489
 6586SOL     OW20293   4.273   3.905   0.894
 6586SOL    HW120294   4.276   3.934   0.985
 6586SOL    HW220295   4.276   3.985   0.843
 6587SOL     OW20296   4.740   5.164   0.469
 6587SOL    HW120297   4.665   5.223   0.472
 6587SOL    HW220298   4.767   5.154   0.560
 6588SOL     OW20299   4.936   5.263   1.560
 6588SOL    HW120300   4.914   5.179   1.600
 6588SOL    HW220301   4.901   5.256   1.471
 6589SOL     OW20302   4.049   4.665   0.256
 6589SOL    HW120303   4.116   4.708   0.203
 6589SOL    HW220304   4.053   4.573   0.229
 6590SOL     OW20305   4.188   4.987   1.741
 6590SOL    HW120306   4.162   4.990   1.649
 6590SOL    HW220307   4.105   4.987   1.790
 6591SOL     OW20308   4.877   0.189   0.214
 6591SOL    HW120309   4.802   0.184   0.274
 6591SOL    HW220310   4.846   0.148   0.134
 6592SOL     OW20311   3.925   4.004   1.501
 6592SOL    HW120312   3.844   4.054   1.498
 6592SOL    HW220313   3.907   3.931   1.561
 6593SOL     OW20314   5.115   3.849   0.440
 6593SOL    HW120315   5.100   3.831   0.348
 6593SOL    HW220316   5.210   3.857   0.447
 6594SOL     OW20317   4.111   4.421   0.476
 6594SOL    HW120318   4.134   4.329   0.488
 6594SOL    HW220319   4.018   4.426   0.499
 6595SOL     OW20320   4.355   3.834   0.137
 6595SOL    HW120321   4.449   3.822   0.143
 6595SOL    HW220322   4.334   3.814   0.045
 6596SOL     OW20323   4.489   4.003   1.755
 6596SOL    HW120324   4.566   3.946   1.754
 6596SOL    HW220325   4.442   3.978   1.834
 6597SOL     OW20326   5.057   4.316   1.432
 6597SOL    HW120327   5.090   4.285   1.517
 6597SOL    HW220328   5.100   4.400   1.420
 6598SOL     OW20329   4.536   5.117   0.938
 6598SOL    HW120330   4.618   5.107   0.888
 6598SOL    HW220331   4.468   5.125   0.871
 6599SOL     OW20332   4.651   4.233   0.902
 6599SOL    HW120333   4.627   4.224   0.810
 6599SOL    HW220334   4.683   4.146   0.927
 6600SOL     OW20335   4.274   3.787   0.504
 6600SOL    HW120336   4.193   3.786   0.556
 6600SOL    HW220337   4.266   3.866   0.450
 6601SOL     OW20338   5.127   4.895   0.032
 6601SOL    HW120339   5.142   4.830   0.101
 6601SOL    HW220340   5.045   4.938   0.057
 6602SOL     OW20341   4.036   3.781   0.170
 6602SOL    HW120342   4.101   3.849   0.187
 6602SOL    HW220343   4.072   3.702   0.212
 6603SOL     OW20344   4.662   3.971   0.458
 6603SOL    HW120345   4.635   4.012   0.375
 6603SOL    HW220346   4.756   3.989   0.463
 6604SOL     OW20347   4.801   4.406   1.461
 6604SOL    HW120348   4.735   4.337   1.462
 6604SOL    HW220349   4.884   4.359   1.451
 6605SOL     OW20350   4.981   5.264   0.772
 6605SOL    HW120351   4.953   0.052   0.746
 6605SOL    HW220352   5.038   5.279   0.847
 6606SOL     OW20353   4.189   4.873   0.729
 6606SOL    HW120354   4.122   4.853   0.794
 6606SOL    HW220355   4.147   4.856   0.645
 6607SOL     OW20356   4.758   4.252   0.031
 6607SOL    HW120357   4.712   4.332   0.005
 6607SOL    HW220358   4.818   4.280   0.099
 6608SOL     OW20359   3.804   4.278   1.392
 6608SOL    HW120360   3.896   4.277   1.365
 6608SOL    HW220361   3.799   4.348   1.457
 6609SOL     OW20362   4.283   3.951   1.166
 6609SOL    HW120363   4.325   3.876   1.208
 6609SOL    HW220364   4.192   3.947   1.197
 6610SOL     OW20365   4.591   4.182   0.639
 6610SOL    HW120366   4.550   4.238   0.573
 6610SOL    HW220367   4.613   4.102   0.591
 6611SOL     OW20368   4.739   3.777   0.750
 6611SOL    HW120369   4.680   3.771   0.675
 6611SOL    HW220370   4.717   3.701   0.805
 6612SOL     OW20371   5.151   4.903   0.849
 6612SOL    HW120372   5.100   4.822   0.859
 6612SOL    HW220373   5.171   4.907   0.755
 6613SOL     OW20374   4.188   5.161   0.153
 6613SOL    HW120375   4.142   5.105   0.216
 6613SOL    HW220376   4.231   5.099   0.094
 6614SOL     OW20377   5.127   4.307   0.074
 6614SOL    HW120378   5.068   4.284   0.146
 6614SOL    HW220379   5.195   4.239   0.075
 6615SOL     OW20380   4.240   3.988   0.323
 6615SOL    HW120381   4.292   3.936   0.261
 6615SOL    HW220382   4.227   4.072   0.279
 6616SOL     OW20383   4.786   5.073   1.329
 6616SOL    HW120384   4.708   5.049   1.379
 6616SOL    HW220385   4.859   5.036   1.379
 6617SOL     OW20386   4.849   4.923   1.108
 6617SOL    HW120387   4.798   4.966   1.177
 6617SOL    HW220388   4.806   4.950   1.027
 6618SOL     OW20389   4.642   3.821   1.396
 6618SOL    HW120390   4.664   3.803   1.304
 6618SOL    HW220391   4.721   3.860   1.432
 6619SOL     OW20392   4.705   4.832   1.731
 6619SOL    HW120393   4.613   4.852   1.748
 6619SOL    HW220394   4.703   4.758   1.670
 6620SOL     OW20395   4.435   4.785   0.381
 6620SOL    HW120396   4.418   4.767   0.474
 6620SOL    HW220397   4.514   4.735   0.361
 6621SOL     OW20398   4.143   4.539   1.252
 6621SOL    HW120399   4.211   4.549   1.318
 6621SOL    HW220400   4.108   4.451   1.266
 6622SOL     OW20401   4.988   4.099   1.277
 6622SOL    HW120402   5.023   4.178   1.318
 6622SOL    HW220403   4.898   4.122   1.253
 6623SOL     OW20404   4.064   4.832   0.490
 6623SOL    HW120405   4.067   4.904   0.427
 6623SOL    HW220406   4.074   4.753   0.436
 6624SOL     OW20407   4.275   4.260   0.859
 6624SOL    HW120408   4.290   4.318   0.785
 6624SOL    HW220409   4.341   4.285   0.924
 6625SOL     OW20410   4.981   5.069   0.383
 6625SOL    HW120411   5.031   5.150   0.382
 6625SOL    HW220412   4.893   5.096   0.412
 6626SOL     OW20413   4.977   5.182   1.130
 6626SOL    HW120414   5.032   5.205   1.205
 6626SOL    HW220415   4.940   5.097   1.152
 6627SOL     OW20416   4.073   5.236   1.313
 6627SOL    HW120417   4.062   5.201   1.225
 6627SOL    HW220418   4.166   5.256   1.319
 6628SOL     OW20419   4.139   4.469   1.602
 6628SOL    HW120420   4.201   4.513   1.544
 6628SOL    HW220421   4.178   4.383   1.618
 6629SOL     OW20422   4.718   3.851   1.755
 6629SOL    HW120423   4.776   3.923   1.730
 6629SOL    HW220424   4.765   3.772   1.729
 6630SOL     OW20425   4.221   3.764   1.748
 6630SOL    HW120426   4.178   3.710   1.683
 6630SOL    HW220427   4.163   3.839   1.761
 6631SOL     OW20428   4.306   4.597   1.031
 6631SOL    HW120429   4.339   4.687   1.030
 6631SOL    HW220430   4.251   4.592   1.109
 6632SOL     OW20431   5.085   4.579   1.038
 6632SOL    HW120432   5.010   4.561   0.981
 6632SOL    HW220433   5.142   4.503   1.027
 6633SOL     OW20434   4.932   4.255   0.268
 6633SOL    HW120435   4.934   4.175   0.320
 6633SOL    HW220436   4.886   4.318   0.323
 6634SOL     OW20437   4.022   3.922   1.247
 6634SOL    HW120438   3.985   3.954   1.329
 6634SOL    HW220439   4.003   3.828   1.248
 6635SOL     OW20440   3.778   5.047   1.285
 6635SOL    HW120441   3.801   4.982   1.351
 6635SOL    HW220442   3.813   5.129   1.319
 6636SOL     OW20443   4.446   4.354   1.056
 6636SOL    HW120444   4.523   4.339   1.000
 6636SOL    HW220445   4.419   4.444   1.036
 6637SOL     OW20446   4.027   3.788   0.624
 6637SOL    HW120447   4.007   3.879   0.646
 6637SOL    HW220448   4.035   3.743   0.708
 6638SOL     OW20449   0.047   4.100   0.355
 6638SOL    HW120450   0.061   4.045   0.432
 6638SOL    HW220451   0.021   4.185   0.391
 6639SOL     OW20452   4.750   4.482   0.959
 6639SOL    HW120453   4.749   4.500   1.053
 6639SOL    HW220454   4.725   4.390   0.951
 6640SOL     OW20455   4.077   4.640   1.809
 6640SOL    HW120456   4.159   4.660   1.855
 6640SOL    HW220457   4.102   4.577   1.741
 6641SOL     OW20458   5.028   4.557   0.026
 6641SOL    HW120459   5.061   4.469   0.044
 6641SOL    HW220460   5.059   4.576   8.017
 6642SOL     OW20461   4.780   5.080   0.826
 6642SOL    HW120462   4.787   4.995   0.783
 6642SOL    HW220463   4.865   5.122   0.812
 6643SOL     OW20464   4.033   4.532   0.946
 6643SOL    HW120465   4.126   4.554   0.941
 6643SOL    HW220466   4.031   4.442   0.979
 6644SOL     OW20467   4.054   4.251   1.012
 6644SOL    HW120468   4.020   4.163   0.998
 6644SOL    HW220469   4.131   4.256   0.955
 6645SOL     OW20470   4.856   4.099   1.682
 6645SOL    HW120471   4.808   4.154   1.744
 6645SOL    HW220472   4.943   4.139   1.677
 6646SOL     OW20473   4.885   3.925   1.469
 6646SOL    HW120474   4.873   3.988   1.541
 6646SOL    HW220475   4.924   3.977   1.399
 6647SOL     OW20476   3.736   5.043   0.176
 6647SOL    HW120477   3.648   5.056   0.142
 6647SOL    HW220478   3.734   4.957   0.218
 6648SOL     OW20479   4.704   4.515   1.226
 6648SOL    HW120480   4.762   4.494   1.299
 6648SOL    HW220481   4.620   4.477   1.250
 6649SOL     OW20482   3.760   4.269   1.117
 6649SOL    HW120483   3.841   4.257   1.067
 6649SOL    HW220484   3.788   4.272   1.208
 6650SOL     OW20485   3.915   4.244   1.728
 6650SOL    HW120486   3.972   4.205   1.661
 6650SOL    HW220487   3.875   4.318   1.684
 6651SOL     OW20488   5.114   4.661   1.666
 6651SOL    HW120489   5.120   4.755   1.653
 6651SOL    HW220490   5.117   4.624   1.577
 6652SOL     OW20491   4.543   4.293   0.369
 6652SOL    HW120492   4.552   4.222   0.305
 6652SOL    HW220493   4.467   4.343   0.338
 6653SOL     OW20494   3.928   5.276   1.745
 6653SOL    HW120495   3.913   0.028   1.824
 6653SOL    HW220496   3.941   5.187   1.778
 6654SOL     OW20497   4.426   4.173   1.258
 6654SOL    HW120498   4.373   4.100   1.228
 6654SOL    HW220499   4.422   4.237   1.186
 6655SOL     OW20500   4.192   4.215   0.177
 6655SOL    HW120501   4.259   4.281   0.198
 6655SOL    HW220502   4.109   4.261   0.190
 6656SOL     OW20503   3.868   4.863   1.471
 6656SOL    HW120504   3.870   4.812   1.552
 6656SOL    HW220505   3.886   4.799   1.402
 6657SOL     OW20506   5.048   4.769   1.227
 6657SOL    HW120507   5.073   4.707   1.159
 6657SOL    HW220508   4.979   4.822   1.188
 6658SOL     OW20509   5.022   4.595   0.319
 6658SOL    HW120510   4.945   4.549   0.353
 6658SOL    HW220511   5.024   4.574   0.226
 6659SOL     OW20512   3.818   4.987   1.022
 6659SOL    HW120513   3.797   5.005   1.113
 6659SOL    HW220514   3.738   4.949   0.986
 6660SOL     OW20515   4.470   0.030   1.714
 6660SOL    HW120516   4.378   0.058   1.715
 6660SOL    HW220517   4.504   0.065   1.632
 6661SOL     OW20518   4.630   3.815   0.132
 6661SOL    HW120519   4.646   3.797   0.039
 6661SOL    HW220520   4.694   3.761   0.178
 6662SOL     OW20521   0.079   3.874   0.523
 6662SOL    HW120522   0.171   3.866   0.496
 6662SOL    HW220523   0.068   3.806   0.590
 6663SOL     OW20524   5.018   4.643   0.672
 6663SOL    HW120525   5.096   4.589   0.658
 6663SOL    HW220526   5.035   4.723   0.623
 6664SOL     OW20527   4.541   4.992   1.419
 6664SOL    HW120528   4.510   5.028   1.502
 6664SOL    HW220529   4.467   5.003   1.359
 6665SOL     OW20530   3.985   4.039   0.717
 6665SOL    HW120531   3.899   4.075   0.694
 6665SOL    HW220532   3.983   4.032   0.812
 6666SOL     OW20533   4.855   0.018   0.004
 6666SOL    HW120534   4.881   5.231   0.033
 6666SOL    HW220535   4.869   0.017   7.989
 6667SOL     OW20536   4.549   4.727   1.370
 6667SOL    HW120537   4.596   4.720   1.287
 6667SOL    HW220538   4.551   4.820   1.391
 6668SOL     OW20539   4.643   4.639   0.300
 6668SOL    HW120540   4.696   4.664   0.225
 6668SOL    HW220541   4.692   4.567   0.341
 6669SOL     OW20542   4.088   5.026   1.497
 6669SOL    HW120543   4.078   5.100   1.437
 6669SOL    HW220544   4.012   4.970   1.480
 6670SOL     OW20545   4.778   4.835   0.713
 6670SOL    HW120546   4.707   4.782   0.750
 6670SOL    HW220547   4.836   4.770   0.672
 6671SOL     OW20548   4.739   3.963   0.968
 6671SOL    HW120549   4.738   3.916   0.885
 6671SOL    HW220550   4.735   3.894   1.035
 6672SOL     OW20551   3.989   5.026   0.289
 6672SOL    HW120552   3.908   5.042   0.240
 6672SOL    HW220553   3.979   5.078   0.369
 6673SOL     OW20554   3.836   4.747   1.719
 6673SOL    HW120555   3.760   4.723   1.772
 6673SOL    HW220556   3.911   4.709   1.765
 6674SOL     OW20557   4.399   3.920   1.500
 6674SOL    HW120558   4.483   3.900   1.459
 6674SOL    HW220559   4.422   3.952   1.587
 6675SOL     OW20560   3.781   4.086   0.039
 6675SOL    HW120561   3.704   4.034   0.015
 6675SOL    HW220562   3.830   4.095   8.037
 6676SOL     OW20563   5.164   4.584   1.403
 6676SOL    HW120564   5.111   4.641   1.348
 6676SOL    HW220565   5.253   4.591   1.368
 6677SOL     OW20566   3.795   3.877   0.303
 6677SOL    HW120567   3.779   3.962   0.262
 6677SOL    HW220568   3.879   3.848   0.268
 6678SOL     OW20569   4.906   5.051   0.106
 6678SOL    HW120570   4.811   5.047   0.103
 6678SOL    HW220571   4.927   5.059   0.199
 6679SOL     OW20572   4.343   4.555   1.434
 6679SOL    HW120573   4.400   4.630   1.418
 6679SOL    HW220574   4.403   4.481   1.442
 6680SOL     OW20575   4.441   4.287   1.703
 6680SOL    HW120576   4.483   4.348   1.764
 6680SOL    HW220577   4.466   4.200   1.736
 6681SOL     OW20578   5.184   4.927   1.633
 6681SOL    HW120579   5.173   4.939   1.727
 6681SOL    HW220580   5.278   4.931   1.619
 6682SOL     OW20581   4.932   4.049   0.461
 6682SOL    HW120582   4.994   3.977   0.451
 6682SOL    HW220583   4.962   4.096   0.539
 6683SOL     OW20584   4.312   4.460   0.670
 6683SOL    HW120585   4.352   4.546   0.658
 6683SOL    HW220586   4.244   4.455   0.603
 6684SOL     OW20587   4.637   5.095   0.039
 6684SOL    HW120588   4.576   5.076   0.111
 6684SOL    HW220589   4.590   5.157   8.063
 6685SOL     OW20590   4.592   4.691   0.855
 6685SOL    HW120591   4.642   4.620   0.895
 6685SOL    HW220592   4.557   4.740   0.930
 6686SOL     OW20593   4.801   4.699   0.087
 6686SOL    HW120594   4.787   4.757   0.012
 6686SOL    HW220595   4.883   4.654   0.067
 6687SOL     OW20596   3.946   5.023   1.852
 6687SOL    HW120597   3.879   4.960   1.827
 6687SOL    HW220598   3.935   5.033   1.947
 6688SOL     OW20599   3.812   4.953   0.669
 6688SOL    HW120600   3.810   4.902   0.750
 6688SOL    HW220601   3.880   4.912   0.617
 6689SOL     OW20602   4.395   5.102   1.609
 6689SOL    HW120603   4.318   5.072   1.657
 6689SOL    HW220604   4.427   5.178   1.658
 6690SOL     OW20605   4.148   4.160   0.523
 6690SOL    HW120606   4.182   4.089   0.469
 6690SOL    HW220607   4.103   4.116   0.596
 6691SOL     OW20608   0.123   5.230   1.050
 6691SOL    HW120609   0.039   5.205   1.012
 6691SOL    HW220610   0.106   5.240   1.143
 6692SOL     OW20611   4.055   4.280   1.292
 6692SOL    HW120612   4.110   4.225   1.347
 6692SOL    HW220613   4.074   4.252   1.203
 6693SOL     OW20614   5.147   3.942   1.115
 6693SOL    HW120615   5.192   3.878   1.169
 6693SOL    HW220616   5.101   3.998   1.177
 6694SOL     OW20617   4.729   3.742   1.141
 6694SOL    HW120618   4.677   3.674   1.099
 6694SOL    HW220619   4.817   3.704   1.146
 6695SOL     OW20620   4.519   5.039   0.282
 6695SOL    HW120621   4.468   4.962   0.309
 6695SOL    HW220622   4.578   5.055   0.355
 6696SOL     OW20623   4.346   5.299   1.293
 6696SOL    HW120624   4.353   0.053   1.372
 6696SOL    HW220625   4.437   5.280   1.269
 6697SOL     OW20626   5.050   3.784   0.188
 6697SOL    HW120627   5.091   3.736   0.116
 6697SOL    HW220628   4.971   3.734   0.208
 6698SOL     OW20629   5.027   4.185   0.683
 6698SOL    HW120630   4.973   4.264   0.687
 6698SOL    HW220631   5.015   4.143   0.768
 6699SOL     OW20632   5.300   3.950   0.878
 6699SOL    HW120633   5.238   3.935   0.950
 6699SOL    HW220634   5.273   4.034   0.841
 6700SOL     OW20635   3.765   4.791   0.305
 6700SOL    HW120636   3.861   4.793   0.309
 6700SOL    HW220637   3.742   4.706   0.343
 6701SOL     OW20638   3.952   4.347   1.986
 6701SOL    HW120639   3.863   4.346   2.020
 6701SOL    HW220640   3.943   4.322   1.894
 6702SOL     OW20641   3.949   4.006   2.854
 6702SOL    HW120642   3.977   3.971   2.938
 6702SOL    HW220643   3.859   3.974   2.844
 6703SOL     OW20644   3.727   4.107   2.500
 6703SOL    HW120645   3.645   4.132   2.542
 6703SOL    HW220646   3.706   4.028   2.451
 6704SOL     OW20647   4.290   5.007   3.043
 6704SOL    HW120648   4.206   5.005   2.998
 6704SOL    HW220649   4.303   5.098   3.068
 6705SOL     OW20650   5.275   5.231   2.554
 6705SOL    HW120651   5.269   5.216   2.648
 6705SOL    HW220652   5.184   5.231   2.524
 6706SOL     OW20653   4.859   4.423   2.561
 6706SOL    HW120654   4.910   4.503   2.551
 6706SOL    HW220655   4.810   4.435   2.642
 6707SOL     OW20656   4.478   4.867   2.901
 6707SOL    HW120657   4.411   4.899   2.962
 6707SOL    HW220658   4.509   4.945   2.855
 6708SOL     OW20659   4.594   4.496   3.685
 6708SOL    HW120660   4.576   4.567   3.746
 6708SOL    HW220661   4.615   4.540   3.602
 6709SOL     OW20662   4.410   4.725   2.509
 6709SOL    HW120663   4.475   4.715   2.579
 6709SOL    HW220664   4.341   4.779   2.548
 6710SOL     OW20665   4.434   4.873   3.676
 6710SOL    HW120666   4.482   4.952   3.699
 6710SOL    HW220667   4.351   4.905   3.639
 6711SOL     OW20668   4.061   5.149   2.921
 6711SOL    HW120669   3.983   5.104   2.888
 6711SOL    HW220670   4.099   5.191   2.845
 6712SOL     OW20671   5.127   5.237   3.203
 6712SOL    HW120672   5.146   0.007   3.265
 6712SOL    HW220673   5.105   5.162   3.257
 6713SOL     OW20674   4.174   4.122   3.348
 6713SOL    HW120675   4.249   4.063   3.354
 6713SOL    HW220676   4.098   4.066   3.362
 6714SOL     OW20677   4.865   5.050   3.563
 6714SOL    HW120678   4.886   5.065   3.656
 6714SOL    HW220679   4.804   4.977   3.564
 6715SOL     OW20680   3.933   5.157   2.383
 6715SOL    HW120681   3.961   5.237   2.426
 6715SOL    HW220682   3.883   5.110   2.449
 6716SOL     OW20683   3.983   4.811   2.754
 6716SOL    HW120684   3.981   4.724   2.793
 6716SOL    HW220685   3.926   4.864   2.810
 6717SOL     OW20686   4.308   4.706   1.997
 6717SOL    HW120687   4.355   4.754   1.929
 6717SOL    HW220688   4.347   4.736   2.079
 6718SOL     OW20689   3.839   4.377   2.422
 6718SOL    HW120690   3.810   4.288   2.443
 6718SOL    HW220691   3.831   4.425   2.504
 6719SOL     OW20692   3.710   0.013   1.960
 6719SOL    HW120693   3.725   5.224   1.990
 6719SOL    HW220694   3.732   0.069   2.035
 6720SOL     OW20695   0.112   4.657   2.426
 6720SOL    HW120696   0.199   4.625   2.448
 6720SOL    HW220697   0.124   4.750   2.408
 6721SOL     OW20698   3.848   4.467   3.448
 6721SOL    HW120699   3.939   4.493   3.453
 6721SOL    HW220700   3.798   4.549   3.455
 6722SOL     OW20701   4.346   5.098   2.600
 6722SOL    HW120702   4.292   5.019   2.597
 6722SOL    HW220703   4.328   5.143   2.517
 6723SOL     OW20704   5.022   4.973   3.281
 6723SOL    HW120705   5.048   4.900   3.225
 6723SOL    HW220706   5.068   4.957   3.364
 6724SOL     OW20707   4.539   3.725   2.372
 6724SOL    HW120708   4.580   3.809   2.351
 6724SOL    HW220709   4.446   3.745   2.380
 6725SOL     OW20710   3.914   4.689   3.133
 6725SOL    HW120711   3.999   4.647   3.119
 6725SOL    HW220712   3.852   4.635   3.083
 6726SOL     OW20713   4.058   3.974   3.676
 6726SOL    HW120714   4.102   4.057   3.693
 6726SOL    HW220715   3.968   3.987   3.706
 6727SOL     OW20716   5.178   5.154   2.813
 6727SOL    HW120717   5.110   5.163   2.879
 6727SOL    HW220718   5.164   5.066   2.776
 6728SOL     OW20719   0.043   0.164   2.426
 6728SOL    HW120720   0.086   0.126   2.350
 6728SOL    HW220721   0.033   0.091   2.487
 6729SOL     OW20722   4.320   4.444   2.129
 6729SOL    HW120723   4.325   4.526   2.080
 6729SOL    HW220724   4.255   4.462   2.197
 6730SOL     OW20725   4.995   4.061   2.781
 6730SOL    HW120726   4.907   4.032   2.802
 6730SOL    HW220727   5.050   4.026   2.851
 6731SOL     OW20728   4.514   4.342   3.312
 6731SOL    HW120729   4.488   4.317   3.401
 6731SOL    HW220730   4.475   4.274   3.257
 6732SOL     OW20731   5.114   4.205   3.543
 6732SOL    HW120732   5.116   4.242   3.631
 6732SOL    HW220733   5.191   4.148   3.539
 6733SOL     OW20734   4.676   4.611   3.445
 6733SOL    HW120735   4.730   4.540   3.409
 6733SOL    HW220736   4.629   4.646   3.369
 6734SOL     OW20737   4.715   4.137   3.099
 6734SOL    HW120738   4.628   4.156   3.134
 6734SOL    HW220739   4.698   4.091   3.017
 6735SOL     OW20740   4.775   4.422   2.287
 6735SOL    HW120741   4.792   4.416   2.381
 6735SOL    HW220742   4.692   4.376   2.274
 6736SOL     OW20743   3.812   4.545   2.639
 6736SOL    HW120744   3.893   4.538   2.689
 6736SOL    HW220745   3.768   4.623   2.674
 6737SOL     OW20746   4.619   4.072   2.056
 6737SOL    HW120747   4.658   4.134   1.994
 6737SOL    HW220748   4.634   3.986   2.017
 6738SOL     OW20749   5.093   4.869   2.409
 6738SOL    HW120750   5.183   4.870   2.378
 6738SOL    HW220751   5.047   4.929   2.350
 6739SOL     OW20752   4.274   3.904   2.756
 6739SOL    HW120753   4.276   3.934   2.847
 6739SOL    HW220754   4.275   3.985   2.704
 6740SOL     OW20755   4.744   5.167   2.333
 6740SOL    HW120756   4.668   5.224   2.328
 6740SOL    HW220757   4.761   5.157   2.427
 6741SOL     OW20758   4.938   5.262   3.420
 6741SOL    HW120759   4.915   5.179   3.462
 6741SOL    HW220760   4.899   5.256   3.333
 6742SOL     OW20761   4.044   4.680   2.113
 6742SOL    HW120762   4.126   4.700   2.068
 6742SOL    HW220763   4.013   4.599   2.073
 6743SOL     OW20764   4.188   4.987   3.603
 6743SOL    HW120765   4.162   4.990   3.511
 6743SOL    HW220766   4.106   4.987   3.652
 6744SOL     OW20767   4.789   0.172   2.073
 6744SOL    HW120768   4.803   0.116   2.150
 6744SOL    HW220769   4.865   0.154   2.017
 6745SOL     OW20770   3.925   4.004   3.363
 6745SOL    HW120771   3.844   4.054   3.361
 6745SOL    HW220772   3.907   3.932   3.423
 6746SOL     OW20773   5.119   3.831   2.286
 6746SOL    HW120774   5.100   3.813   2.194
 6746SOL    HW220775   5.214   3.847   2.288
 6747SOL     OW20776   4.118   4.419   2.338
 6747SOL    HW120777   4.137   4.326   2.350
 6747SOL    HW220778   4.024   4.426   2.355
 6748SOL     OW20779   4.361   3.845   1.967
 6748SOL    HW120780   4.429   3.780   1.979
 6748SOL    HW220781   4.311   3.814   1.891
 6749SOL     OW20782   4.489   4.003   3.617
 6749SOL    HW120783   4.566   3.946   3.616
 6749SOL    HW220784   4.442   3.978   3.696
 6750SOL     OW20785   5.057   4.316   3.294
 6750SOL    HW120786   5.089   4.284   3.379
 6750SOL    HW220787   5.100   4.401   3.282
 6751SOL     OW20788   4.537   5.118   2.799
 6751SOL    HW120789   4.618   5.106   2.749
 6751SOL    HW220790   4.468   5.125   2.732
 6752SOL     OW20791   4.651   4.233   2.764
 6752SOL    HW120792   4.628   4.224   2.672
 6752SOL    HW220793   4.683   4.146   2.790
 6753SOL     OW20794   4.273   3.787   2.363
 6753SOL    HW120795   4.193   3.788   2.415
 6753SOL    HW220796   4.267   3.865   2.308
 6754SOL     OW20797   5.134   4.904   1.905
 6754SOL    HW120798   5.140   4.825   1.958
 6754SOL    HW220799   5.046   4.938   1.921
 6755SOL     OW20800   4.015   3.772   2.047
 6755SOL    HW120801   4.074   3.836   2.007
 6755SOL    HW220802   4.074   3.709   2.089
 6756SOL     OW20803   4.662   3.971   2.321
 6756SOL    HW120804   4.636   4.011   2.238
 6756SOL    HW220805   4.757   3.984   2.325
 6757SOL     OW20806   4.801   4.406   3.322
 6757SOL    HW120807   4.735   4.337   3.324
 6757SOL    HW220808   4.884   4.359   3.313
 6758SOL     OW20809   4.985   5.265   2.631
 6758SOL    HW120810   4.947   0.051   2.613
 6758SOL    HW220811   5.039   5.278   2.709
 6759SOL     OW20812   4.190   4.872   2.591
 6759SOL    HW120813   4.122   4.852   2.655
 6759SOL    HW220814   4.149   4.855   2.506
 6760SOL     OW20815   4.747   4.266   1.885
 6760SOL    HW120816   4.703   4.348   1.865
 6760SOL    HW220817   4.809   4.288   1.955
 6761SOL     OW20818   3.804   4.278   3.255
 6761SOL    HW120819   3.896   4.277   3.228
 6761SOL    HW220820   3.799   4.348   3.319
 6762SOL     OW20821   4.283   3.951   3.029
 6762SOL    HW120822   4.325   3.876   3.070
 6762SOL    HW220823   4.192   3.947   3.058
 6763SOL     OW20824   4.592   4.183   2.501
 6763SOL    HW120825   4.546   4.238   2.437
 6763SOL    HW220826   4.613   4.103   2.453
 6764SOL     OW20827   4.739   3.777   2.613
 6764SOL    HW120828   4.681   3.771   2.537
 6764SOL    HW220829   4.717   3.702   2.667
 6765SOL     OW20830   5.151   4.902   2.711
 6765SOL    HW120831   5.100   4.822   2.723
 6765SOL    HW220832   5.168   4.906   2.617
 6766SOL     OW20833   4.201   5.148   2.013
 6766SOL    HW120834   4.141   5.095   2.065
 6766SOL    HW220835   4.209   5.101   1.930
 6767SOL     OW20836   5.128   4.285   1.943
 6767SOL    HW120837   5.054   4.276   2.003
 6767SOL    HW220838   5.203   4.248   1.990
 6768SOL     OW20839   4.249   3.987   2.179
 6768SOL    HW120840   4.295   3.940   2.109
 6768SOL    HW220841   4.226   4.071   2.140
 6769SOL     OW20842   4.786   5.073   3.191
 6769SOL    HW120843   4.708   5.049   3.241
 6769SOL    HW220844   4.859   5.036   3.241
 6770SOL     OW20845   4.849   4.923   2.970
 6770SOL    HW120846   4.799   4.966   3.040
 6770SOL    HW220847   4.805   4.949   2.889
 6771SOL     OW20848   4.642   3.821   3.258
 6771SOL    HW120849   4.664   3.803   3.166
 6771SOL    HW220850   4.721   3.860   3.294
 6772SOL     OW20851   4.705   4.832   3.593
 6772SOL    HW120852   4.613   4.852   3.610
 6772SOL    HW220853   4.703   4.758   3.532
 6773SOL     OW20854   4.428   4.783   2.233
 6773SOL    HW120855   4.416   4.766   2.327
 6773SOL    HW220856   4.506   4.732   2.210
 6774SOL     OW20857   4.143   4.539   3.114
 6774SOL    HW120858   4.211   4.549   3.180
 6774SOL    HW220859   4.108   4.451   3.127
 6775SOL     OW20860   4.988   4.099   3.139
 6775SOL    HW120861   5.023   4.178   3.180
 6775SOL    HW220862   4.898   4.122   3.115
 6776SOL     OW20863   4.068   4.834   2.350
 6776SOL    HW120864   4.071   4.907   2.289
 6776SOL    HW220865   4.068   4.755   2.295
 6777SOL     OW20866   4.275   4.260   2.722
 6777SOL    HW120867   4.290   4.318   2.647
 6777SOL    HW220868   4.341   4.286   2.786
 6778SOL     OW20869   4.985   5.078   2.249
 6778SOL    HW120870   5.037   5.154   2.274
 6778SOL    HW220871   4.896   5.100   2.277
 6779SOL     OW20872   4.978   5.182   2.992
 6779SOL    HW120873   5.032   5.205   3.067
 6779SOL    HW220874   4.940   5.097   3.015
 6780SOL     OW20875   4.073   5.236   3.175
 6780SOL    HW120876   4.062   5.201   3.087
 6780SOL    HW220877   4.166   5.256   3.181
 6781SOL     OW20878   4.139   4.468   3.464
 6781SOL    HW120879   4.201   4.513   3.406
 6781SOL    HW220880   4.178   4.383   3.480
 6782SOL     OW20881   4.718   3.851   3.617
 6782SOL    HW120882   4.776   3.923   3.592
 6782SOL    HW220883   4.765   3.772   3.591
 6783SOL     OW20884   4.221   3.764   3.610
 6783SOL    HW120885   4.178   3.710   3.545
 6783SOL    HW220886   4.163   3.839   3.622
 6784SOL     OW20887   4.307   4.597   2.893
 6784SOL    HW120888   4.338   4.687   2.892
 6784SOL    HW220889   4.251   4.591   2.971
 6785SOL     OW20890   5.086   4.580   2.897
 6785SOL    HW120891   5.009   4.560   2.844
 6785SOL    HW220892   5.140   4.501   2.892
 6786SOL     OW20893   4.927   4.255   2.125
 6786SOL    HW120894   4.934   4.175   2.178
 6786SOL    HW220895   4.883   4.318   2.183
 6787SOL     OW20896   4.022   3.922   3.109
 6787SOL    HW120897   3.985   3.954   3.191
 6787SOL    HW220898   4.003   3.828   3.110
 6788SOL     OW20899   3.778   5.047   3.147
 6788SOL    HW120900   3.801   4.982   3.213
 6788SOL    HW220901   3.813   5.129   3.181
 6789SOL     OW20902   4.447   4.354   2.919
 6789SOL    HW120903   4.523   4.339   2.862
 6789SOL    HW220904   4.419   4.443   2.898
 6790SOL     OW20905   4.027   3.787   2.485
 6790SOL    HW120906   4.007   3.878   2.508
 6790SOL    HW220907   4.035   3.743   2.570
 6791SOL     OW20908   0.034   4.120   2.220
 6791SOL    HW120909   0.052   4.044   2.276
 6791SOL    HW220910   0.022   4.193   2.281
 6792SOL     OW20911   4.751   4.482   2.821
 6792SOL    HW120912   4.748   4.500   2.915
 6792SOL    HW220913   4.725   4.391   2.813
 6793SOL     OW20914   4.077   4.640   3.671
 6793SOL    HW120915   4.159   4.659   3.717
 6793SOL    HW220916   4.102   4.577   3.603
 6794SOL     OW20917   5.028   4.552   1.898
 6794SOL    HW120918   5.065   4.464   1.901
 6794SOL    HW220919   5.055   4.588   1.814
 6795SOL     OW20920   4.780   5.081   2.686
 6795SOL    HW120921   4.787   4.995   2.644
 6795SOL    HW220922   4.866   5.121   2.672
 6796SOL     OW20923   4.033   4.533   2.809
 6796SOL    HW120924   4.126   4.554   2.803
 6796SOL    HW220925   4.031   4.442   2.841
 6797SOL     OW20926   4.054   4.251   2.874
 6797SOL    HW120927   4.019   4.163   2.860
 6797SOL    HW220928   4.131   4.256   2.817
 6798SOL     OW20929   4.856   4.100   3.544
 6798SOL    HW120930   4.808   4.154   3.606
 6798SOL    HW220931   4.943   4.139   3.539
 6799SOL     OW20932   4.885   3.925   3.331
 6799SOL    HW120933   4.873   3.988   3.403
 6799SOL    HW220934   4.924   3.977   3.261
 6800SOL     OW20935   3.730   5.039   2.053
 6800SOL    HW120936   3.639   5.057   2.027
 6800SOL    HW220937   3.728   4.951   2.090
 6801SOL     OW20938   4.704   4.515   3.088
 6801SOL    HW120939   4.762   4.494   3.161
 6801SOL    HW220940   4.620   4.477   3.111
 6802SOL     OW20941   3.760   4.269   2.979
 6802SOL    HW120942   3.840   4.257   2.928
 6802SOL    HW220943   3.789   4.272   3.070
 6803SOL     OW20944   3.915   4.244   3.590
 6803SOL    HW120945   3.972   4.205   3.524
 6803SOL    HW220946   3.875   4.318   3.546
 6804SOL     OW20947   5.114   4.661   3.528
 6804SOL    HW120948   5.120   4.755   3.515
 6804SOL    HW220949   5.117   4.624   3.439
 6805SOL     OW20950   4.540   4.293   2.223
 6805SOL    HW120951   4.544   4.219   2.163
 6805SOL    HW220952   4.466   4.346   2.192
 6806SOL     OW20953   3.928   5.276   3.608
 6806SOL    HW120954   3.913   0.028   3.686
 6806SOL    HW220955   3.941   5.187   3.640
 6807SOL     OW20956   4.427   4.173   3.120
 6807SOL    HW120957   4.373   4.100   3.090
 6807SOL    HW220958   4.422   4.237   3.048
 6808SOL     OW20959   4.187   4.216   2.048
 6808SOL    HW120960   4.246   4.289   2.070
 6808SOL    HW220961   4.102   4.257   2.036
 6809SOL     OW20962   3.868   4.863   3.333
 6809SOL    HW120963   3.870   4.812   3.414
 6809SOL    HW220964   3.886   4.799   3.264
 6810SOL     OW20965   5.049   4.769   3.089
 6810SOL    HW120966   5.073   4.707   3.020
 6810SOL    HW220967   4.979   4.822   3.050
 6811SOL     OW20968   5.034   4.585   2.178
 6811SOL    HW120969   4.953   4.550   2.215
 6811SOL    HW220970   5.023   4.575   2.084
 6812SOL     OW20971   3.819   4.987   2.884
 6812SOL    HW120972   3.797   5.005   2.975
 6812SOL    HW220973   3.739   4.948   2.848
 6813SOL     OW20974   4.470   0.030   3.576
 6813SOL    HW120975   4.378   0.058   3.578
 6813SOL    HW220976   4.504   0.065   3.494
 6814SOL     OW20977   0.078   3.886   2.394
 6814SOL    HW120978   0.161   3.870   2.349
 6814SOL    HW220979   0.065   3.807   2.446
 6815SOL     OW20980   5.017   4.643   2.534
 6815SOL    HW120981   5.095   4.589   2.521
 6815SOL    HW220982   5.035   4.723   2.485
 6816SOL     OW20983   4.541   4.992   3.281
 6816SOL    HW120984   4.510   5.028   3.364
 6816SOL    HW220985   4.467   5.003   3.221
 6817SOL     OW20986   3.985   4.039   2.578
 6817SOL    HW120987   3.899   4.075   2.555
 6817SOL    HW220988   3.983   4.032   2.674
 6818SOL     OW20989   4.549   4.727   3.232
 6818SOL    HW120990   4.596   4.720   3.149
 6818SOL    HW220991   4.551   4.820   3.253
 6819SOL     OW20992   4.640   4.636   2.153
 6819SOL    HW120993   4.702   4.669   2.087
 6819SOL    HW220994   4.688   4.566   2.197
 6820SOL     OW20995   4.088   5.026   3.359
 6820SOL    HW120996   4.078   5.100   3.299
 6820SOL    HW220997   4.013   4.970   3.342
 6821SOL     OW20998   4.779   4.834   2.575
 6821SOL    HW120999   4.707   4.783   2.612
 6821SOL    HW221000   4.837   4.769   2.536
 6822SOL     OW21001   4.739   3.963   2.831
 6822SOL    HW121002   4.737   3.916   2.747
 6822SOL    HW221003   4.735   3.894   2.897
 6823SOL     OW21004   3.982   5.050   2.146
 6823SOL    HW121005   3.890   5.052   2.118
 6823SOL    HW221006   3.983   5.095   2.230
 6824SOL     OW21007   3.836   4.747   3.581
 6824SOL    HW121008   3.760   4.723   3.634
 6824SOL    HW221009   3.911   4.709   3.627
 6825SOL     OW21010   4.399   3.920   3.362
 6825SOL    HW121011   4.483   3.900   3.321
 6825SOL    HW221012   4.422   3.952   3.449
 6826SOL     OW21013   3.803   4.057   1.896
 6826SOL    HW121014   3.715   4.038   1.862
 6826SOL    HW221015   3.833   4.132   1.846
 6827SOL     OW21016   5.164   4.584   3.265
 6827SOL    HW121017   5.111   4.641   3.210
 6827SOL    HW221018   5.253   4.591   3.230
 6828SOL     OW21019   3.791   3.880   2.170
 6828SOL    HW121020   3.777   3.960   2.120
 6828SOL    HW221021   3.876   3.847   2.141
 6829SOL     OW21022   4.908   5.058   1.983
 6829SOL    HW121023   4.814   5.041   1.982
 6829SOL    HW221024   4.933   5.055   2.075
 6830SOL     OW21025   4.343   4.555   3.296
 6830SOL    HW121026   4.400   4.630   3.280
 6830SOL    HW221027   4.403   4.481   3.304
 6831SOL     OW21028   4.441   4.287   3.565
 6831SOL    HW121029   4.483   4.348   3.626
 6831SOL    HW221030   4.466   4.200   3.598
 6832SOL     OW21031   5.184   4.927   3.495
 6832SOL    HW121032   5.172   4.939   3.589
 6832SOL    HW221033   5.278   4.931   3.481
 6833SOL     OW21034   4.939   4.044   2.318
 6833SOL    HW121035   5.000   3.972   2.305
 6833SOL    HW221036   4.969   4.088   2.397
 6834SOL     OW21037   4.314   4.461   2.532
 6834SOL    HW121038   4.352   4.547   2.518
 6834SOL    HW221039   4.246   4.453   2.464
 6835SOL     OW21040   4.581   5.094   1.882
 6835SOL    HW121041   4.558   5.097   1.975
 6835SOL    HW221042   4.586   5.186   1.856
 6836SOL     OW21043   4.593   4.692   2.717
 6836SOL    HW121044   4.642   4.620   2.757
 6836SOL    HW221045   4.557   4.741   2.791
 6837SOL     OW21046   4.809   4.712   1.955
 6837SOL    HW121047   4.781   4.760   1.876
 6837SOL    HW221048   4.882   4.658   1.925
 6838SOL     OW21049   3.946   5.023   3.714
 6838SOL    HW121050   3.879   4.960   3.689
 6838SOL    HW221051   3.935   5.033   3.809
 6839SOL     OW21052   3.811   4.954   2.532
 6839SOL    HW121053   3.811   4.903   2.612
 6839SOL    HW221054   3.874   4.911   2.475
 6840SOL     OW21055   4.396   5.102   3.471
 6840SOL    HW121056   4.318   5.072   3.519
 6840SOL    HW221057   4.427   5.178   3.520
 6841SOL     OW21058   4.153   4.158   2.388
 6841SOL    HW121059   4.183   4.087   2.331
 6841SOL    HW221060   4.105   4.113   2.457
 6842SOL     OW21061   0.124   5.230   2.911
 6842SOL    HW121062   0.039   5.205   2.874
 6842SOL    HW221063   0.107   5.243   3.004
 6843SOL     OW21064   4.055   4.280   3.154
 6843SOL    HW121065   4.110   4.225   3.209
 6843SOL    HW221066   4.074   4.252   3.065
 6844SOL     OW21067   5.146   3.942   2.977
 6844SOL    HW121068   5.193   3.879   3.031
 6844SOL    HW221069   5.100   3.998   3.040
 6845SOL     OW21070   4.729   3.742   3.003
 6845SOL    HW121071   4.676   3.674   2.962
 6845SOL    HW221072   4.817   3.704   3.008
 6846SOL     OW21073   4.527   5.046   2.146
 6846SOL    HW121074   4.469   4.973   2.167
 6846SOL    HW221075   4.583   5.055   2.224
 6847SOL     OW21076   4.346   5.299   3.155
 6847SOL    HW121077   4.352   0.053   3.234
 6847SOL    HW221078   4.437   5.280   3.132
 6848SOL     OW21079   5.056   3.770   2.029
 6848SOL    HW121080   5.079   3.729   1.946
 6848SOL    HW221081   4.971   3.732   2.052
 6849SOL     OW21082   5.027   4.182   2.543
 6849SOL    HW121083   4.973   4.261   2.547
 6849SOL    HW221084   5.016   4.141   2.629
 6850SOL     OW21085   0.002   3.950   2.744
 6850SOL    HW121086   5.236   3.937   2.812
 6850SOL    HW221087   5.274   4.029   2.698
 6851SOL     OW21088   3.766   4.793   2.170
 6851SOL    HW121089   3.860   4.787   2.153
 6851SOL    HW221090   3.740   4.704   2.192
 6852SOL     OW21091   3.952   4.347   3.848
 6852SOL    HW121092   3.863   4.346   3.883
 6852SOL    HW221093   3.943   4.322   3.756
 6853SOL     OW21094   3.949   4.006   4.716
 6853SOL    HW121095   3.977   3.971   4.800
 6853SOL    HW221096   3.859   3.974   4.706
 6854SOL     OW21097   3.727   4.107   4.362
 6854SOL    HW121098   3.645   4.132   4.404
 6854SOL    HW221099   3.706   4.028   4.313
 6855SOL     OW21100   4.291   5.007   4.905
 6855SOL    HW121101   4.206   5.005   4.860
 6855SOL    HW221102   4.303   5.098   4.930
 6856SOL     OW21103   5.275   5.231   4.416
 6856SOL    HW121104   5.269   5.216   4.510
 6856SOL    HW221105   5.184   5.231   4.386
 6857SOL     OW21106   4.859   4.423   4.423
 6857SOL    HW121107   4.909   4.504   4.413
 6857SOL    HW221108   4.810   4.435   4.504
 6858SOL     OW21109   4.478   4.867   4.763
 6858SOL    HW121110   4.411   4.899   4.824
 6858SOL    HW221111   4.509   4.945   4.717
 6859SOL     OW21112   4.594   4.496   5.547
 6859SOL    HW121113   4.576   4.567   5.608
 6859SOL    HW221114   4.615   4.540   5.464
 6860SOL     OW21115   4.410   4.725   4.371
 6860SOL    HW121116   4.475   4.715   4.441
 6860SOL    HW221117   4.341   4.779   4.410
 6861SOL     OW21118   4.434   4.873   5.538
 6861SOL    HW121119   4.482   4.952   5.561
 6861SOL    HW221120   4.351   4.905   5.501
 6862SOL     OW21121   4.061   5.149   4.783
 6862SOL    HW121122   3.983   5.104   4.750
 6862SOL    HW221123   4.099   5.191   4.707
 6863SOL     OW21124   5.127   5.237   5.065
 6863SOL    HW121125   5.146   0.007   5.127
 6863SOL    HW221126   5.105   5.162   5.119
 6864SOL     OW21127   4.174   4.122   5.210
 6864SOL    HW121128   4.249   4.063   5.216
 6864SOL    HW221129   4.098   4.066   5.224
 6865SOL     OW21130   4.865   5.050   5.425
 6865SOL    HW121131   4.886   5.065   5.518
 6865SOL    HW221132   4.804   4.977   5.426
 6866SOL     OW21133   3.933   5.157   4.244
 6866SOL    HW121134   3.961   5.237   4.288
 6866SOL    HW221135   3.883   5.110   4.311
 6867SOL     OW21136   3.983   4.811   4.616
 6867SOL    HW121137   3.981   4.724   4.655
 6867SOL    HW221138   3.926   4.864   4.672
 6868SOL     OW21139   4.308   4.706   3.859
 6868SOL    HW121140   4.355   4.754   3.791
 6868SOL    HW221141   4.347   4.736   3.941
 6869SOL     OW21142   3.839   4.377   4.284
 6869SOL    HW121143   3.810   4.288   4.305
 6869SOL    HW221144   3.831   4.425   4.366
 6870SOL     OW21145   3.710   0.013   3.822
 6870SOL    HW121146   3.725   5.224   3.852
 6870SOL    HW221147   3.732   0.069   3.896
 6871SOL     OW21148   0.112   4.657   4.288
 6871SOL    HW121149   0.199   4.625   4.310
 6871SOL    HW221150   0.125   4.750   4.270
 6872SOL     OW21151   3.848   4.467   5.310
 6872SOL    HW121152   3.939   4.493   5.316
 6872SOL    HW221153   3.798   4.549   5.317
 6873SOL     OW21154   4.346   5.098   4.462
 6873SOL    HW121155   4.292   5.019   4.459
 6873SOL    HW221156   4.328   5.143   4.379
 6874SOL     OW21157   5.022   4.973   5.143
 6874SOL    HW121158   5.048   4.900   5.087
 6874SOL    HW221159   5.068   4.957   5.226
 6875SOL     OW21160   4.539   3.725   4.234
 6875SOL    HW121161   4.580   3.809   4.213
 6875SOL    HW221162   4.446   3.745   4.242
 6876SOL     OW21163   3.914   4.689   4.995
 6876SOL    HW121164   3.999   4.647   4.981
 6876SOL    HW221165   3.852   4.635   4.945
 6877SOL     OW21166   4.058   3.974   5.538
 6877SOL    HW121167   4.102   4.057   5.555
 6877SOL    HW221168   3.968   3.987   5.568
 6878SOL     OW21169   5.178   5.154   4.675
 6878SOL    HW121170   5.110   5.163   4.741
 6878SOL    HW221171   5.164   5.066   4.638
 6879SOL     OW21172   0.043   0.164   4.288
 6879SOL    HW121173   0.086   0.125   4.212
 6879SOL    HW221174   0.033   0.092   4.349
 6880SOL     OW21175   4.320   4.444   3.991
 6880SOL    HW121176   4.325   4.526   3.942
 6880SOL    HW221177   4.255   4.461   4.059
 6881SOL     OW21178   4.995   4.061   4.643
 6881SOL    HW121179   4.907   4.032   4.664
 6881SOL    HW221180   5.050   4.026   4.713
 6882SOL     OW21181   4.514   4.342   5.174
 6882SOL    HW121182   4.488   4.317   5.263
 6882SOL    HW221183   4.475   4.274   5.119
 6883SOL     OW21184   5.114   4.205   5.405
 6883SOL    HW121185   5.116   4.242   5.493
 6883SOL    HW221186   5.191   4.148   5.401
 6884SOL     OW21187   4.676   4.611   5.307
 6884SOL    HW121188   4.730   4.540   5.271
 6884SOL    HW221189   4.629   4.646   5.231
 6885SOL     OW21190   4.715   4.137   4.962
 6885SOL    HW121191   4.628   4.156   4.996
 6885SOL    HW221192   4.698   4.091   4.879
 6886SOL     OW21193   4.775   4.422   4.149
 6886SOL    HW121194   4.792   4.416   4.243
 6886SOL    HW221195   4.692   4.376   4.136
 6887SOL     OW21196   3.812   4.545   4.501
 6887SOL    HW121197   3.893   4.538   4.551
 6887SOL    HW221198   3.768   4.623   4.536
 6888SOL     OW21199   4.619   4.072   3.918
 6888SOL    HW121200   4.658   4.134   3.856
 6888SOL    HW221201   4.634   3.986   3.879
 6889SOL     OW21202   5.093   4.870   4.271
 6889SOL    HW121203   5.183   4.870   4.240
 6889SOL    HW221204   5.047   4.929   4.212
 6890SOL     OW21205   4.274   3.905   4.618
 6890SOL    HW121206   4.276   3.934   4.709
 6890SOL    HW221207   4.275   3.985   4.566
 6891SOL     OW21208   4.744   5.167   4.195
 6891SOL    HW121209   4.668   5.224   4.190
 6891SOL    HW221210   4.761   5.157   4.289
 6892SOL     OW21211   4.938   5.262   5.282
 6892SOL    HW121212   4.915   5.179   5.324
 6892SOL    HW221213   4.899   5.256   5.195
 6893SOL     OW21214   4.043   4.680   3.975
 6893SOL    HW121215   4.126   4.700   3.930
 6893SOL    HW221216   4.013   4.599   3.935
 6894SOL     OW21217   4.188   4.987   5.465
 6894SOL    HW121218   4.162   4.990   5.373
 6894SOL    HW221219   4.106   4.987   5.514
 6895SOL     OW21220   4.789   0.171   3.935
 6895SOL    HW121221   4.803   0.117   4.012
 6895SOL    HW221222   4.865   0.154   3.880
 6896SOL     OW21223   3.925   4.004   5.226
 6896SOL    HW121224   3.844   4.054   5.222
 6896SOL    HW221225   3.907   3.931   5.285
 6897SOL     OW21226   5.119   3.831   4.148
 6897SOL    HW121227   5.100   3.813   4.056
 6897SOL    HW221228   5.214   3.847   4.150
 6898SOL     OW21229   4.118   4.419   4.200
 6898SOL    HW121230   4.137   4.326   4.212
 6898SOL    HW221231   4.024   4.426   4.217
 6899SOL     OW21232   4.361   3.846   3.828
 6899SOL    HW121233   4.429   3.779   3.842
 6899SOL    HW221234   4.311   3.814   3.753
 6900SOL     OW21235   4.489   4.003   5.479
 6900SOL    HW121236   4.566   3.946   5.478
 6900SOL    HW221237   4.442   3.978   5.558
 6901SOL     OW21238   5.057   4.316   5.156
 6901SOL    HW121239   5.089   4.284   5.241
 6901SOL    HW221240   5.100   4.401   5.144
 6902SOL     OW21241   4.537   5.118   4.661
 6902SOL    HW121242   4.618   5.106   4.611
 6902SOL    HW221243   4.468   5.125   4.594
 6903SOL     OW21244   4.651   4.233   4.626
 6903SOL    HW121245   4.628   4.224   4.534
 6903SOL    HW221246   4.683   4.146   4.652
 6904SOL     OW21247   4.273   3.787   4.225
 6904SOL    HW121248   4.193   3.788   4.277
 6904SOL    HW221249   4.267   3.865   4.170
 6905SOL     OW21250   5.134   4.904   3.767
 6905SOL    HW121251   5.140   4.825   3.820
 6905SOL    HW221252   5.046   4.937   3.783
 6906SOL     OW21253   4.015   3.771   3.909
 6906SOL    HW121254   4.074   3.836   3.869
 6906SOL    HW221255   4.074   3.708   3.951
 6907SOL     OW21256   4.662   3.971   4.183
 6907SOL    HW121257   4.636   4.011   4.100
 6907SOL    HW221258   4.757   3.984   4.187
 6908SOL     OW21259   4.801   4.406   5.184
 6908SOL    HW121260   4.735   4.337   5.186
 6908SOL    HW221261   4.884   4.359   5.175
 6909SOL     OW21262   4.985   5.265   4.493
 6909SOL    HW121263   4.946   0.051   4.475
 6909SOL    HW221264   5.039   5.278   4.571
 6910SOL     OW21265   4.190   4.872   4.453
 6910SOL    HW121266   4.122   4.852   4.517
 6910SOL    HW221267   4.149   4.855   4.368
 6911SOL     OW21268   4.747   4.266   3.747
 6911SOL    HW121269   4.703   4.348   3.727
 6911SOL    HW221270   4.809   4.288   3.817
 6912SOL     OW21271   3.804   4.278   5.116
 6912SOL    HW121272   3.896   4.277   5.090
 6912SOL    HW221273   3.799   4.348   5.181
 6913SOL     OW21274   4.283   3.951   4.891
 6913SOL    HW121275   4.325   3.876   4.931
 6913SOL    HW221276   4.192   3.947   4.920
 6914SOL     OW21277   4.592   4.183   4.363
 6914SOL    HW121278   4.546   4.238   4.299
 6914SOL    HW221279   4.613   4.103   4.315
 6915SOL     OW21280   4.739   3.777   4.475
 6915SOL    HW121281   4.681   3.770   4.399
 6915SOL    HW221282   4.717   3.702   4.529
 6916SOL     OW21283   5.151   4.902   4.573
 6916SOL    HW121284   5.100   4.822   4.585
 6916SOL    HW221285   5.168   4.906   4.479
 6917SOL     OW21286   4.202   5.148   3.875
 6917SOL    HW121287   4.142   5.095   3.927
 6917SOL    HW221288   4.209   5.101   3.792
 6918SOL     OW21289   5.128   4.285   3.805
 6918SOL    HW121290   5.054   4.276   3.866
 6918SOL    HW221291   5.203   4.247   3.851
 6919SOL     OW21292   4.249   3.987   4.041
 6919SOL    HW121293   4.295   3.940   3.971
 6919SOL    HW221294   4.226   4.071   4.002
 6920SOL     OW21295   4.786   5.073   5.053
 6920SOL    HW121296   4.708   5.049   5.103
 6920SOL    HW221297   4.859   5.036   5.103
 6921SOL     OW21298   4.849   4.923   4.832
 6921SOL    HW121299   4.799   4.966   4.902
 6921SOL    HW221300   4.805   4.949   4.751
 6922SOL     OW21301   4.642   3.821   5.120
 6922SOL    HW121302   4.664   3.803   5.028
 6922SOL    HW221303   4.721   3.860   5.156
 6923SOL     OW21304   4.705   4.832   5.455
 6923SOL    HW121305   4.613   4.852   5.472
 6923SOL    HW221306   4.703   4.758   5.394
 6924SOL     OW21307   4.428   4.783   4.095
 6924SOL    HW121308   4.416   4.766   4.189
 6924SOL    HW221309   4.506   4.732   4.072
 6925SOL     OW21310   4.143   4.539   4.975
 6925SOL    HW121311   4.211   4.549   5.042
 6925SOL    HW221312   4.108   4.451   4.989
 6926SOL     OW21313   4.988   4.099   5.002
 6926SOL    HW121314   5.023   4.178   5.042
 6926SOL    HW221315   4.898   4.122   4.977
 6927SOL     OW21316   4.068   4.834   4.212
 6927SOL    HW121317   4.071   4.907   4.151
 6927SOL    HW221318   4.068   4.755   4.157
 6928SOL     OW21319   4.275   4.260   4.584
 6928SOL    HW121320   4.290   4.318   4.509
 6928SOL    HW221321   4.341   4.286   4.648
 6929SOL     OW21322   4.985   5.078   4.111
 6929SOL    HW121323   5.038   5.154   4.137
 6929SOL    HW221324   4.896   5.100   4.139
 6930SOL     OW21325   4.978   5.182   4.854
 6930SOL    HW121326   5.032   5.205   4.929
 6930SOL    HW221327   4.940   5.097   4.877
 6931SOL     OW21328   4.073   5.236   5.037
 6931SOL    HW121329   4.061   5.201   4.949
 6931SOL    HW221330   4.166   5.256   5.043
 6932SOL     OW21331   4.139   4.469   5.326
 6932SOL    HW121332   4.201   4.513   5.268
 6932SOL    HW221333   4.178   4.383   5.342
 6933SOL     OW21334   4.718   3.851   5.479
 6933SOL    HW121335   4.776   3.923   5.454
 6933SOL    HW221336   4.765   3.772   5.453
 6934SOL     OW21337   4.221   3.764   5.472
 6934SOL    HW121338   4.178   3.710   5.407
 6934SOL    HW221339   4.163   3.839   5.484
 6935SOL     OW21340   4.307   4.597   4.755
 6935SOL    HW121341   4.338   4.687   4.754
 6935SOL    HW221342   4.251   4.591   4.833
 6936SOL     OW21343   5.086   4.580   4.759
 6936SOL    HW121344   5.009   4.560   4.707
 6936SOL    HW221345   5.140   4.501   4.754
 6937SOL     OW21346   4.927   4.255   3.987
 6937SOL    HW121347   4.934   4.175   4.040
 6937SOL    HW221348   4.883   4.318   4.045
 6938SOL     OW21349   4.022   3.922   4.971
 6938SOL    HW121350   3.985   3.954   5.053
 6938SOL    HW221351   4.003   3.828   4.972
 6939SOL     OW21352   3.778   5.047   5.009
 6939SOL    HW121353   3.801   4.982   5.075
 6939SOL    HW221354   3.813   5.129   5.043
 6940SOL     OW21355   4.447   4.354   4.781
 6940SOL    HW121356   4.523   4.339   4.724
 6940SOL    HW221357   4.419   4.443   4.760
 6941SOL     OW21358   4.028   3.788   4.347
 6941SOL    HW121359   4.008   3.879   4.370
 6941SOL    HW221360   4.036   3.743   4.432
 6942SOL     OW21361   0.034   4.120   4.082
 6942SOL    HW121362   0.052   4.044   4.138
 6942SOL    HW221363   0.022   4.193   4.143
 6943SOL     OW21364   4.751   4.483   4.683
 6943SOL    HW121365   4.748   4.500   4.777
 6943SOL    HW221366   4.725   4.391   4.675
 6944SOL     OW21367   4.077   4.640   5.533
 6944SOL    HW121368   4.159   4.659   5.579
 6944SOL    HW221369   4.102   4.577   5.465
 6945SOL     OW21370   5.028   4.552   3.760
 6945SOL    HW121371   5.065   4.464   3.763
 6945SOL    HW221372   5.055   4.588   3.676
 6946SOL     OW21373   4.780   5.081   4.548
 6946SOL    HW121374   4.787   4.995   4.506
 6946SOL    HW221375   4.866   5.121   4.534
 6947SOL     OW21376   4.033   4.533   4.671
 6947SOL    HW121377   4.126   4.554   4.665
 6947SOL    HW221378   4.030   4.442   4.703
 6948SOL     OW21379   4.054   4.251   4.736
 6948SOL    HW121380   4.020   4.163   4.722
 6948SOL    HW221381   4.131   4.256   4.679
 6949SOL     OW21382   4.856   4.100   5.406
 6949SOL    HW121383   4.808   4.154   5.468
 6949SOL    HW221384   4.943   4.139   5.401
 6950SOL     OW21385   4.885   3.925   5.193
 6950SOL    HW121386   4.873   3.988   5.265
 6950SOL    HW221387   4.924   3.977   5.123
 6951SOL     OW21388   3.730   5.039   3.914
 6951SOL    HW121389   3.639   5.057   3.889
 6951SOL    HW221390   3.728   4.951   3.952
 6952SOL     OW21391   4.704   4.515   4.950
 6952SOL    HW121392   4.762   4.494   5.023
 6952SOL    HW221393   4.620   4.477   4.973
 6953SOL     OW21394   3.760   4.269   4.841
 6953SOL    HW121395   3.840   4.257   4.790
 6953SOL    HW221396   3.789   4.272   4.932
 6954SOL     OW21397   3.915   4.244   5.452
 6954SOL    HW121398   3.972   4.205   5.385
 6954SOL    HW221399   3.875   4.318   5.408
 6955SOL     OW21400   5.114   4.661   5.390
 6955SOL    HW121401   5.120   4.755   5.377
 6955SOL    HW221402   5.117   4.624   5.301
 6956SOL     OW21403   4.540   4.293   4.085
 6956SOL    HW121404   4.544   4.219   4.025
 6956SOL    HW221405   4.466   4.346   4.054
 6957SOL     OW21406   3.928   5.276   5.469
 6957SOL    HW121407   3.912   0.028   5.548
 6957SOL    HW221408   3.941   5.187   5.502
 6958SOL     OW21409   4.427   4.173   4.982
 6958SOL    HW121410   4.373   4.100   4.952
 6958SOL    HW221411   4.422   4.236   4.910
 6959SOL     OW21412   4.187   4.216   3.910
 6959SOL    HW121413   4.246   4.289   3.932
 6959SOL    HW221414   4.102   4.258   3.898
 6960SOL     OW21415   3.868   4.863   5.195
 6960SOL    HW121416   3.870   4.812   5.276
 6960SOL    HW221417   3.886   4.799   5.126
 6961SOL     OW21418   5.049   4.769   4.951
 6961SOL    HW121419   5.073   4.707   4.882
 6961SOL    HW221420   4.979   4.822   4.912
 6962SOL     OW21421   5.034   4.585   4.040
 6962SOL    HW121422   4.953   4.550   4.077
 6962SOL    HW221423   5.023   4.575   3.946
 6963SOL     OW21424   3.819   4.987   4.746
 6963SOL    HW121425   3.797   5.005   4.837
 6963SOL    HW221426   3.739   4.948   4.710
 6964SOL     OW21427   4.470   0.030   5.438
 6964SOL    HW121428   4.378   0.058   5.440
 6964SOL    HW221429   4.504   0.065   5.355
 6965SOL     OW21430   0.078   3.885   4.256
 6965SOL    HW121431   0.161   3.870   4.210
 6965SOL    HW221432   0.065   3.807   4.308
 6966SOL     OW21433   5.017   4.643   4.396
 6966SOL    HW121434   5.095   4.589   4.383
 6966SOL    HW221435   5.035   4.723   4.347
 6967SOL     OW21436   4.541   4.992   5.143
 6967SOL    HW121437   4.510   5.028   5.226
 6967SOL    HW221438   4.467   5.003   5.083
 6968SOL     OW21439   3.985   4.039   4.440
 6968SOL    HW121440   3.899   4.075   4.417
 6968SOL    HW221441   3.983   4.032   4.536
 6969SOL     OW21442   4.549   4.727   5.094
 6969SOL    HW121443   4.596   4.720   5.011
 6969SOL    HW221444   4.551   4.820   5.115
 6970SOL     OW21445   4.640   4.636   4.015
 6970SOL    HW121446   4.702   4.669   3.949
 6970SOL    HW221447   4.688   4.566   4.059
 6971SOL     OW21448   4.088   5.026   5.221
 6971SOL    HW121449   4.078   5.100   5.161
 6971SOL    HW221450   4.013   4.970   5.204
 6972SOL     OW21451   4.779   4.834   4.437
 6972SOL    HW121452   4.707   4.783   4.474
 6972SOL    HW221453   4.837   4.769   4.398
 6973SOL     OW21454   4.739   3.963   4.693
 6973SOL    HW121455   4.737   3.916   4.609
 6973SOL    HW221456   4.735   3.894   4.759
 6974SOL     OW21457   3.982   5.050   4.008
 6974SOL    HW121458   3.890   5.052   3.980
 6974SOL    HW221459   3.983   5.095   4.092
 6975SOL     OW21460   3.836   4.747   5.443
 6975SOL    HW121461   3.760   4.723   5.496
 6975SOL    HW221462   3.911   4.709   5.489
 6976SOL     OW21463   4.399   3.920   5.224
 6976SOL    HW121464   4.483   3.900   5.183
 6976SOL    HW221465   4.422   3.952   5.311
 6977SOL     OW21466   3.803   4.057   3.759
 6977SOL    HW121467   3.716   4.038   3.724
 6977SOL    HW221468   3.833   4.132   3.708
 6978SOL     OW21469   5.164   4.584   5.127
 6978SOL    HW121470   5.111   4.641   5.072
 6978SOL    HW221471   5.253   4.591   5.092
 6979SOL     OW21472   3.791   3.880   4.033
 6979SOL    HW121473   3.778   3.960   3.982
 6979SOL    HW221474   3.876   3.847   4.003
 6980SOL     OW21475   4.908   5.058   3.845
 6980SOL    HW121476   4.814   5.041   3.844
 6980SOL    HW221477   4.933   5.055   3.937
 6981SOL     OW21478   4.343   4.555   5.158
 6981SOL    HW121479   4.400   4.630   5.142
 6981SOL    HW221480   4.403   4.481   5.166
 6982SOL     OW21481   4.441   4.287   5.427
 6982SOL    HW121482   4.483   4.348   5.488
 6982SOL    HW221483   4.466   4.200   5.460
 6983SOL     OW21484   5.184   4.927   5.357
 6983SOL    HW121485   5.172   4.939   5.451
 6983SOL    HW221486   5.278   4.931   5.343
 6984SOL     OW21487   4.939   4.044   4.179
 6984SOL    HW121488   5.000   3.972   4.167
 6984SOL    HW221489   4.969   4.088   4.259
 6985SOL     OW21490   4.314   4.461   4.394
 6985SOL    HW121491   4.352   4.547   4.380
 6985SOL    HW221492   4.246   4.453   4.326
 6986SOL     OW21493   4.581   5.094   3.744
 6986SOL    HW121494   4.558   5.097   3.837
 6986SOL    HW221495   4.586   5.186   3.718
 6987SOL     OW21496   4.593   4.692   4.579
 6987SOL    HW121497   4.642   4.620   4.619
 6987SOL    HW221498   4.557   4.741   4.653
 6988SOL     OW21499   4.809   4.712   3.817
 6988SOL    HW121500   4.781   4.760   3.738
 6988SOL    HW221501   4.882   4.658   3.787
 6989SOL     OW21502   3.946   5.023   5.576
 6989SOL    HW121503   3.879   4.960   5.551
 6989SOL    HW221504   3.935   5.033   5.671
 6990SOL     OW21505   3.811   4.954   4.394
 6990SOL    HW121506   3.811   4.903   4.474
 6990SOL    HW221507   3.874   4.911   4.337
 6991SOL     OW21508   4.396   5.102   5.333
 6991SOL    HW121509   4.318   5.072   5.381
 6991SOL    HW221510   4.427   5.178   5.382
 6992SOL     OW21511   4.153   4.158   4.250
 6992SOL    HW121512   4.183   4.087   4.193
 6992SOL    HW221513   4.105   4.113   4.319
 6993SOL     OW21514   0.124   5.230   4.773
 6993SOL    HW121515   0.039   5.205   4.736
 6993SOL    HW221516   0.107   5.243   4.866
 6994SOL     OW21517   4.055   4.280   5.016
 6994SOL    HW121518   4.110   4.225   5.071
 6994SOL    HW221519   4.074   4.252   4.927
 6995SOL     OW21520   5.146   3.943   4.839
 6995SOL    HW121521   5.192   3.879   4.893
 6995SOL    HW221522   5.100   3.998   4.902
 6996SOL     OW21523   4.729   3.742   4.865
 6996SOL    HW121524   4.676   3.674   4.823
 6996SOL    HW221525   4.817   3.704   4.870
 6997SOL     OW21526   4.527   5.046   4.008
 6997SOL    HW121527   4.469   4.973   4.029
 6997SOL    HW221528   4.583   5.055   4.086
 6998SOL     OW21529   4.346   5.299   5.017
 6998SOL    HW121530   4.352   0.053   5.096
 6998SOL    HW221531   4.437   5.280   4.994
 6999SOL     OW21532   5.056   3.770   3.891
 6999SOL    HW121533   5.079   3.729   3.808
 6999SOL    HW221534   4.971   3.732   3.914
 7000SOL     OW21535   5.027   4.182   4.405
 7000SOL    HW121536   4.973   4.261   4.409
 7000SOL    HW221537   5.016   4.141   4.491
 7001SOL     OW21538   0.002   3.950   4.606
 7001SOL    HW121539   5.237   3.937   4.674
 7001SOL    HW221540   5.274   4.029   4.560
 7002SOL     OW21541   3.766   4.793   4.032
 7002SOL    HW121542   3.860   4.787   4.015
 7002SOL    HW221543   3.740   4.704   4.054
 7003SOL     OW21544   3.953   4.347   5.710
 7003SOL    HW121545   3.863   4.346   5.745
 7003SOL    HW221546   3.943   4.322   5.618
 7004SOL     OW21547   3.949   4.006   6.578
 7004SOL    HW121548   3.977   3.971   6.663
 7004SOL    HW221549   3.859   3.974   6.568
 7005SOL     OW21550   3.727   4.107   6.224
 7005SOL    HW121551   3.645   4.133   6.266
 7005SOL    HW221552   3.706   4.028   6.175
 7006SOL     OW21553   4.291   5.007   6.767
 7006SOL    HW121554   4.206   5.005   6.722
 7006SOL    HW221555   4.303   5.099   6.791
 7007SOL     OW21556   5.275   5.231   6.278
 7007SOL    HW121557   5.269   5.216   6.372
 7007SOL    HW221558   5.184   5.231   6.248
 7008SOL     OW21559   4.859   4.423   6.285
 7008SOL    HW121560   4.910   4.504   6.275
 7008SOL    HW221561   4.810   4.435   6.366
 7009SOL     OW21562   4.478   4.867   6.625
 7009SOL    HW121563   4.411   4.899   6.686
 7009SOL    HW221564   4.509   4.945   6.579
 7010SOL     OW21565   4.594   4.498   7.407
 7010SOL    HW121566   4.570   4.572   7.462
 7010SOL    HW221567   4.617   4.537   7.323
 7011SOL     OW21568   4.410   4.725   6.233
 7011SOL    HW121569   4.475   4.715   6.303
 7011SOL    HW221570   4.341   4.779   6.272
 7012SOL     OW21571   4.433   4.874   7.400
 7012SOL    HW121572   4.482   4.953   7.422
 7012SOL    HW221573   4.351   4.906   7.362
 7013SOL     OW21574   4.061   5.149   6.645
 7013SOL    HW121575   3.983   5.104   6.612
 7013SOL    HW221576   4.099   5.191   6.569
 7014SOL     OW21577   5.128   5.237   6.927
 7014SOL    HW121578   5.146   0.007   6.989
 7014SOL    HW221579   5.104   5.162   6.981
 7015SOL     OW21580   4.174   4.122   7.073
 7015SOL    HW121581   4.249   4.063   7.078
 7015SOL    HW221582   4.098   4.066   7.086
 7016SOL     OW21583   4.865   5.049   7.286
 7016SOL    HW121584   4.887   5.064   7.377
 7016SOL    HW221585   4.803   4.976   7.287
 7017SOL     OW21586   3.933   5.157   6.107
 7017SOL    HW121587   3.961   5.237   6.150
 7017SOL    HW221588   3.883   5.110   6.173
 7018SOL     OW21589   3.984   4.811   6.478
 7018SOL    HW121590   3.981   4.724   6.517
 7018SOL    HW221591   3.926   4.864   6.534
 7019SOL     OW21592   4.308   4.706   5.721
 7019SOL    HW121593   4.355   4.754   5.653
 7019SOL    HW221594   4.347   4.736   5.803
 7020SOL     OW21595   3.839   4.377   6.146
 7020SOL    HW121596   3.810   4.288   6.167
 7020SOL    HW221597   3.831   4.425   6.228
 7021SOL     OW21598   3.710   0.013   5.683
 7021SOL    HW121599   3.725   5.224   5.714
 7021SOL    HW221600   3.732   0.069   5.758
 7022SOL     OW21601   0.112   4.657   6.151
 7022SOL    HW121602   0.200   4.625   6.172
 7022SOL    HW221603   0.124   4.750   6.132
 7023SOL     OW21604   3.847   4.466   7.172
 7023SOL    HW121605   3.939   4.494   7.177
 7023SOL    HW221606   3.798   4.548   7.179
 7024SOL     OW21607   4.346   5.098   6.324
 7024SOL    HW121608   4.292   5.019   6.321
 7024SOL    HW221609   4.328   5.143   6.241
 7025SOL     OW21610   5.021   4.973   7.005
 7025SOL    HW121611   5.048   4.900   6.948
 7025SOL    HW221612   5.068   4.956   7.087
 7026SOL     OW21613   4.539   3.725   6.096
 7026SOL    HW121614   4.580   3.809   6.075
 7026SOL    HW221615   4.446   3.745   6.104
 7027SOL     OW21616   3.914   4.689   6.857
 7027SOL    HW121617   3.999   4.647   6.843
 7027SOL    HW221618   3.852   4.636   6.808
 7028SOL     OW21619   4.058   3.972   7.402
 7028SOL    HW121620   4.102   4.057   7.415
 7028SOL    HW221621   3.968   3.987   7.430
 7029SOL     OW21622   5.178   5.153   6.537
 7029SOL    HW121623   5.110   5.163   6.603
 7029SOL    HW221624   5.164   5.066   6.500
 7030SOL     OW21625   0.043   0.164   6.150
 7030SOL    HW121626   0.086   0.126   6.074
 7030SOL    HW221627   0.033   0.091   6.211
 7031SOL     OW21628   4.320   4.444   5.853
 7031SOL    HW121629   4.325   4.526   5.804
 7031SOL    HW221630   4.255   4.461   5.921
 7032SOL     OW21631   4.995   4.061   6.505
 7032SOL    HW121632   4.907   4.032   6.526
 7032SOL    HW221633   5.050   4.026   6.575
 7033SOL     OW21634   4.514   4.342   7.036
 7033SOL    HW121635   4.488   4.317   7.125
 7033SOL    HW221636   4.475   4.274   6.981
 7034SOL     OW21637   5.115   4.206   7.267
 7034SOL    HW121638   5.117   4.242   7.355
 7034SOL    HW221639   5.191   4.149   7.262
 7035SOL     OW21640   4.677   4.611   7.168
 7035SOL    HW121641   4.730   4.540   7.132
 7035SOL    HW221642   4.629   4.646   7.093
 7036SOL     OW21643   4.715   4.137   6.823
 7036SOL    HW121644   4.628   4.156   6.858
 7036SOL    HW221645   4.698   4.090   6.741
 7037SOL     OW21646   4.775   4.422   6.011
 7037SOL    HW121647   4.792   4.416   6.105
 7037SOL    HW221648   4.692   4.376   5.998
 7038SOL     OW21649   3.812   4.545   6.362
 7038SOL    HW121650   3.893   4.538   6.413
 7038SOL    HW221651   3.768   4.623   6.398
 7039SOL     OW21652   4.619   4.072   5.780
 7039SOL    HW121653   4.658   4.134   5.718
 7039SOL    HW221654   4.634   3.986   5.741
 7040SOL     OW21655   5.093   4.869   6.133
 7040SOL    HW121656   5.183   4.870   6.102
 7040SOL    HW221657   5.047   4.929   6.074
 7041SOL     OW21658   4.274   3.905   6.480
 7041SOL    HW121659   4.276   3.934   6.571
 7041SOL    HW221660   4.275   3.985   6.428
 7042SOL     OW21661   4.744   5.167   6.057
 7042SOL    HW121662   4.668   5.224   6.052
 7042SOL    HW221663   4.761   5.157   6.151
 7043SOL     OW21664   4.939   5.261   7.144
 7043SOL    HW121665   4.916   5.178   7.186
 7043SOL    HW221666   4.899   5.257   7.058
 7044SOL     OW21667   4.043   4.680   5.837
 7044SOL    HW121668   4.126   4.700   5.792
 7044SOL    HW221669   4.013   4.599   5.797
 7045SOL     OW21670   4.187   4.987   7.329
 7045SOL    HW121671   4.160   4.990   7.237
 7045SOL    HW221672   4.104   4.987   7.377
 7046SOL     OW21673   4.789   0.172   5.797
 7046SOL    HW121674   4.803   0.117   5.874
 7046SOL    HW221675   4.865   0.154   5.741
 7047SOL     OW21676   3.925   4.004   7.088
 7047SOL    HW121677   3.843   4.052   7.084
 7047SOL    HW221678   3.906   3.929   7.144
 7048SOL     OW21679   5.119   3.831   6.010
 7048SOL    HW121680   5.100   3.813   5.918
 7048SOL    HW221681   5.214   3.847   6.012
 7049SOL     OW21682   4.118   4.419   6.062
 7049SOL    HW121683   4.137   4.326   6.074
 7049SOL    HW221684   4.024   4.426   6.079
 7050SOL     OW21685   4.361   3.846   5.691
 7050SOL    HW121686   4.429   3.779   5.703
 7050SOL    HW221687   4.311   3.814   5.615
 7051SOL     OW21688   4.488   4.002   7.341
 7051SOL    HW121689   4.566   3.946   7.340
 7051SOL    HW221690   4.445   3.982   7.424
 7052SOL     OW21691   5.057   4.316   7.018
 7052SOL    HW121692   5.089   4.285   7.102
 7052SOL    HW221693   5.101   4.401   7.006
 7053SOL     OW21694   4.537   5.118   6.523
 7053SOL    HW121695   4.618   5.106   6.473
 7053SOL    HW221696   4.468   5.125   6.456
 7054SOL     OW21697   4.652   4.233   6.488
 7054SOL    HW121698   4.628   4.224   6.396
 7054SOL    HW221699   4.683   4.146   6.514
 7055SOL     OW21700   4.273   3.787   6.087
 7055SOL    HW121701   4.193   3.788   6.139
 7055SOL    HW221702   4.267   3.865   6.032
 7056SOL     OW21703   5.134   4.904   5.629
 7056SOL    HW121704   5.139   4.824   5.682
 7056SOL    HW221705   5.046   4.938   5.645
 7057SOL     OW21706   4.015   3.772   5.771
 7057SOL    HW121707   4.074   3.836   5.731
 7057SOL    HW221708   4.074   3.709   5.813
 7058SOL     OW21709   4.662   3.971   6.045
 7058SOL    HW121710   4.636   4.011   5.962
 7058SOL    HW221711   4.757   3.984   6.049
 7059SOL     OW21712   4.801   4.406   7.046
 7059SOL    HW121713   4.735   4.337   7.048
 7059SOL    HW221714   4.884   4.359   7.037
 7060SOL     OW21715   4.985   5.265   6.355
 7060SOL    HW121716   4.946   0.051   6.337
 7060SOL    HW221717   5.039   5.278   6.433
 7061SOL     OW21718   4.190   4.872   6.315
 7061SOL    HW121719   4.122   4.852   6.379
 7061SOL    HW221720   4.149   4.855   6.230
 7062SOL     OW21721   4.747   4.266   5.609
 7062SOL    HW121722   4.703   4.348   5.589
 7062SOL    HW221723   4.809   4.288   5.679
 7063SOL     OW21724   3.804   4.278   6.978
 7063SOL    HW121725   3.896   4.277   6.951
 7063SOL    HW221726   3.799   4.348   7.043
 7064SOL     OW21727   4.283   3.951   6.753
 7064SOL    HW121728   4.325   3.876   6.794
 7064SOL    HW221729   4.192   3.947   6.782
 7065SOL     OW21730   4.592   4.183   6.225
 7065SOL    HW121731   4.546   4.238   6.161
 7065SOL    HW221732   4.613   4.103   6.177
 7066SOL     OW21733   4.739   3.777   6.337
 7066SOL    HW121734   4.681   3.771   6.261
 7066SOL    HW221735   4.717   3.702   6.391
 7067SOL     OW21736   5.151   4.902   6.435
 7067SOL    HW121737   5.100   4.822   6.447
 7067SOL    HW221738   5.169   4.906   6.341
 7068SOL     OW21739   4.202   5.148   5.737
 7068SOL    HW121740   4.142   5.095   5.789
 7068SOL    HW221741   4.209   5.101   5.654
 7069SOL     OW21742   5.128   4.285   5.667
 7069SOL    HW121743   5.055   4.276   5.728
 7069SOL    HW221744   5.203   4.247   5.713
 7070SOL     OW21745   4.249   3.987   5.903
 7070SOL    HW121746   4.295   3.940   5.833
 7070SOL    HW221747   4.226   4.071   5.864
 7071SOL     OW21748   4.786   5.073   6.915
 7071SOL    HW121749   4.708   5.049   6.965
 7071SOL    HW221750   4.859   5.036   6.965
 7072SOL     OW21751   4.849   4.923   6.694
 7072SOL    HW121752   4.799   4.966   6.764
 7072SOL    HW221753   4.805   4.949   6.613
 7073SOL     OW21754   4.641   3.821   6.981
 7073SOL    HW121755   4.664   3.803   6.890
 7073SOL    HW221756   4.721   3.860   7.018
 7074SOL     OW21757   4.706   4.831   7.319
 7074SOL    HW121758   4.614   4.852   7.334
 7074SOL    HW221759   4.704   4.757   7.258
 7075SOL     OW21760   4.428   4.783   5.957
 7075SOL    HW121761   4.416   4.766   6.051
 7075SOL    HW221762   4.506   4.732   5.934
 7076SOL     OW21763   4.143   4.539   6.837
 7076SOL    HW121764   4.211   4.549   6.904
 7076SOL    HW221765   4.108   4.451   6.851
 7077SOL     OW21766   4.988   4.099   6.863
 7077SOL    HW121767   5.023   4.178   6.904
 7077SOL    HW221768   4.898   4.122   6.839
 7078SOL     OW21769   4.068   4.834   6.074
 7078SOL    HW121770   4.071   4.907   6.013
 7078SOL    HW221771   4.068   4.756   6.019
 7079SOL     OW21772   4.275   4.260   6.446
 7079SOL    HW121773   4.290   4.318   6.371
 7079SOL    HW221774   4.341   4.286   6.510
 7080SOL     OW21775   4.985   5.078   5.973
 7080SOL    HW121776   5.038   5.154   5.999
 7080SOL    HW221777   4.896   5.100   6.001
 7081SOL     OW21778   4.978   5.182   6.716
 7081SOL    HW121779   5.032   5.205   6.791
 7081SOL    HW221780   4.940   5.097   6.738
 7082SOL     OW21781   4.073   5.236   6.899
 7082SOL    HW121782   4.062   5.200   6.811
 7082SOL    HW221783   4.166   5.256   6.905
 7083SOL     OW21784   4.139   4.469   7.188
 7083SOL    HW121785   4.201   4.513   7.131
 7083SOL    HW221786   4.177   4.383   7.203
 7084SOL     OW21787   4.718   3.851   7.340
 7084SOL    HW121788   4.776   3.923   7.315
 7084SOL    HW221789   4.765   3.772   7.315
 7085SOL     OW21790   4.222   3.763   7.334
 7085SOL    HW121791   4.178   3.709   7.268
 7085SOL    HW221792   4.164   3.838   7.346
 7086SOL     OW21793   4.308   4.596   6.617
 7086SOL    HW121794   4.338   4.687   6.616
 7086SOL    HW221795   4.251   4.591   6.694
 7087SOL     OW21796   5.086   4.580   6.621
 7087SOL    HW121797   5.009   4.560   6.568
 7087SOL    HW221798   5.140   4.501   6.616
 7088SOL     OW21799   4.927   4.255   5.849
 7088SOL    HW121800   4.934   4.175   5.902
 7088SOL    HW221801   4.883   4.318   5.907
 7089SOL     OW21802   4.022   3.922   6.833
 7089SOL    HW121803   3.985   3.954   6.915
 7089SOL    HW221804   4.003   3.828   6.833
 7090SOL     OW21805   3.778   5.047   6.871
 7090SOL    HW121806   3.801   4.982   6.937
 7090SOL    HW221807   3.813   5.129   6.905
 7091SOL     OW21808   4.447   4.354   6.643
 7091SOL    HW121809   4.523   4.339   6.586
 7091SOL    HW221810   4.419   4.443   6.622
 7092SOL     OW21811   4.027   3.788   6.209
 7092SOL    HW121812   4.007   3.878   6.232
 7092SOL    HW221813   4.035   3.743   6.294
 7093SOL     OW21814   0.034   4.120   5.944
 7093SOL    HW121815   0.052   4.044   6.000
 7093SOL    HW221816   0.022   4.193   6.005
 7094SOL     OW21817   4.751   4.483   6.545
 7094SOL    HW121818   4.748   4.500   6.639
 7094SOL    HW221819   4.725   4.391   6.537
 7095SOL     OW21820   4.077   4.639   7.396
 7095SOL    HW121821   4.160   4.659   7.439
 7095SOL    HW221822   4.101   4.577   7.327
 7096SOL     OW21823   5.028   4.552   5.622
 7096SOL    HW121824   5.065   4.464   5.625
 7096SOL    HW221825   5.055   4.588   5.538
 7097SOL     OW21826   4.780   5.081   6.410
 7097SOL    HW121827   4.787   4.995   6.368
 7097SOL    HW221828   4.866   5.121   6.396
 7098SOL     OW21829   4.032   4.532   6.533
 7098SOL    HW121830   4.126   4.553   6.526
 7098SOL    HW221831   4.030   4.442   6.565
 7099SOL     OW21832   4.054   4.251   6.599
 7099SOL    HW121833   4.019   4.163   6.584
 7099SOL    HW221834   4.131   4.256   6.541
 7100SOL     OW21835   4.857   4.100   7.266
 7100SOL    HW121836   4.809   4.155   7.328
 7100SOL    HW221837   4.944   4.139   7.261
 7101SOL     OW21838   4.885   3.925   7.055
 7101SOL    HW121839   4.873   3.987   7.126
 7101SOL    HW221840   4.924   3.977   6.984
 7102SOL     OW21841   3.730   5.039   5.777
 7102SOL    HW121842   3.640   5.057   5.751
 7102SOL    HW221843   3.728   4.951   5.814
 7103SOL     OW21844   4.704   4.515   6.812
 7103SOL    HW121845   4.761   4.493   6.885
 7103SOL    HW221846   4.620   4.476   6.835
 7104SOL     OW21847   3.760   4.269   6.703
 7104SOL    HW121848   3.840   4.257   6.652
 7104SOL    HW221849   3.788   4.272   6.794
 7105SOL     OW21850   3.917   4.244   7.314
 7105SOL    HW121851   3.970   4.202   7.246
 7105SOL    HW221852   3.875   4.318   7.270
 7106SOL     OW21853   5.113   4.661   7.253
 7106SOL    HW121854   5.119   4.755   7.240
 7106SOL    HW221855   5.116   4.624   7.164
 7107SOL     OW21856   4.540   4.293   5.947
 7107SOL    HW121857   4.544   4.219   5.887
 7107SOL    HW221858   4.466   4.346   5.916
 7108SOL     OW21859   3.928   5.275   7.330
 7108SOL    HW121860   3.894   0.023   7.405
 7108SOL    HW221861   3.943   5.186   7.363
 7109SOL     OW21862   4.427   4.173   6.844
 7109SOL    HW121863   4.373   4.100   6.815
 7109SOL    HW221864   4.422   4.236   6.772
 7110SOL     OW21865   4.187   4.216   5.772
 7110SOL    HW121866   4.246   4.289   5.794
 7110SOL    HW221867   4.102   4.257   5.760
 7111SOL     OW21868   3.868   4.863   7.057
 7111SOL    HW121869   3.870   4.812   7.138
 7111SOL    HW221870   3.886   4.798   6.989
 7112SOL     OW21871   5.049   4.769   6.813
 7112SOL    HW121872   5.073   4.707   6.744
 7112SOL    HW221873   4.979   4.822   6.774
 7113SOL     OW21874   5.034   4.585   5.902
 7113SOL    HW121875   4.953   4.550   5.939
 7113SOL    HW221876   5.023   4.575   5.808
 7114SOL     OW21877   3.819   4.987   6.608
 7114SOL    HW121878   3.797   5.005   6.699
 7114SOL    HW221879   3.739   4.948   6.572
 7115SOL     OW21880   4.469   0.028   7.302
 7115SOL    HW121881   4.377   0.057   7.302
 7115SOL    HW221882   4.506   0.066   7.223
 7116SOL     OW21883   0.078   3.886   6.118
 7116SOL    HW121884   0.161   3.870   6.072
 7116SOL    HW221885   0.065   3.807   6.170
 7117SOL     OW21886   5.017   4.643   6.258
 7117SOL    HW121887   5.095   4.589   6.245
 7117SOL    HW221888   5.036   4.723   6.209
 7118SOL     OW21889   4.541   4.992   7.005
 7118SOL    HW121890   4.510   5.028   7.088
 7118SOL    HW221891   4.467   5.003   6.945
 7119SOL     OW21892   3.985   4.039   6.302
 7119SOL    HW121893   3.899   4.075   6.279
 7119SOL    HW221894   3.983   4.032   6.398
 7120SOL     OW21895   4.549   4.727   6.957
 7120SOL    HW121896   4.595   4.719   6.873
 7120SOL    HW221897   4.551   4.820   6.977
 7121SOL     OW21898   4.640   4.636   5.877
 7121SOL    HW121899   4.702   4.669   5.811
 7121SOL    HW221900   4.688   4.566   5.921
 7122SOL     OW21901   4.088   5.027   7.084
 7122SOL    HW121902   4.078   5.100   7.023
 7122SOL    HW221903   4.013   4.970   7.066
 7123SOL     OW21904   4.779   4.834   6.299
 7123SOL    HW121905   4.707   4.783   6.336
 7123SOL    HW221906   4.837   4.769   6.260
 7124SOL     OW21907   4.739   3.963   6.555
 7124SOL    HW121908   4.737   3.916   6.471
 7124SOL    HW221909   4.735   3.894   6.621
 7125SOL     OW21910   3.982   5.050   5.870
 7125SOL    HW121911   3.890   5.052   5.842
 7125SOL    HW221912   3.983   5.095   5.954
 7126SOL     OW21913   3.837   4.748   7.306
 7126SOL    HW121914   3.760   4.724   7.358
 7126SOL    HW221915   3.911   4.709   7.352
 7127SOL     OW21916   4.398   3.920   7.086
 7127SOL    HW121917   4.483   3.900   7.045
 7127SOL    HW221918   4.421   3.951   7.173
 7128SOL     OW21919   3.803   4.057   5.621
 7128SOL    HW121920   3.716   4.038   5.586
 7128SOL    HW221921   3.833   4.132   5.570
 7129SOL     OW21922   5.164   4.584   6.990
 7129SOL    HW121923   5.111   4.641   6.934
 7129SOL    HW221924   5.253   4.591   6.954
 7130SOL     OW21925   3.791   3.880   5.895
 7130SOL    HW121926   3.777   3.960   5.844
 7130SOL    HW221927   3.876   3.847   5.865
 7131SOL     OW21928   4.908   5.058   5.707
 7131SOL    HW121929   4.814   5.041   5.706
 7131SOL    HW221930   4.933   5.055   5.799
 7132SOL     OW21931   4.343   4.555   7.020
 7132SOL    HW121932   4.400   4.630   7.004
 7132SOL    HW221933   4.403   4.481   7.028
 7133SOL     OW21934   4.442   4.286   7.290
 7133SOL    HW121935   4.483   4.347   7.351
 7133SOL    HW221936   4.466   4.199   7.322
 7134SOL     OW21937   5.184   4.926   7.218
 7134SOL    HW121938   5.172   4.939   7.312
 7134SOL    HW221939   5.278   4.931   7.205
 7135SOL     OW21940   4.939   4.044   6.041
 7135SOL    HW121941   5.000   3.972   6.029
 7135SOL    HW221942   4.969   4.088   6.121
 7136SOL     OW21943   4.314   4.461   6.256
 7136SOL    HW121944   4.352   4.547   6.242
 7136SOL    HW221945   4.246   4.453   6.188
 7137SOL     OW21946   4.581   5.094   5.606
 7137SOL    HW121947   4.558   5.097   5.699
 7137SOL    HW221948   4.586   5.186   5.580
 7138SOL     OW21949   4.593   4.692   6.441
 7138SOL    HW121950   4.642   4.620   6.481
 7138SOL    HW221951   4.557   4.741   6.516
 7139SOL     OW21952   4.809   4.712   5.679
 7139SOL    HW121953   4.781   4.760   5.600
 7139SOL    HW221954   4.882   4.658   5.649
 7140SOL     OW21955   3.945   5.022   7.441
 7140SOL    HW121956   3.880   4.958   7.410
 7140SOL    HW221957   3.923   5.035   7.533
 7141SOL     OW21958   3.811   4.954   6.256
 7141SOL    HW121959   3.810   4.903   6.336
 7141SOL    HW221960   3.874   4.911   6.199
 7142SOL     OW21961   4.395   5.100   7.195
 7142SOL    HW121962   4.317   5.072   7.243
 7142SOL    HW221963   4.427   5.177   7.243
 7143SOL     OW21964   4.153   4.158   6.112
 7143SOL    HW121965   4.183   4.087   6.055
 7143SOL    HW221966   4.105   4.113   6.181
 7144SOL     OW21967   0.124   5.230   6.635
 7144SOL    HW121968   0.039   5.205   6.598
 7144SOL    HW221969   0.107   5.242   6.728
 7145SOL     OW21970   4.055   4.280   6.878
 7145SOL    HW121971   4.111   4.225   6.933
 7145SOL    HW221972   4.074   4.252   6.789
 7146SOL     OW21973   5.146   3.943   6.701
 7146SOL    HW121974   5.192   3.878   6.755
 7146SOL    HW221975   5.100   3.998   6.764
 7147SOL     OW21976   4.729   3.742   6.727
 7147SOL    HW121977   4.676   3.674   6.686
 7147SOL    HW221978   4.817   3.704   6.732
 7148SOL     OW21979   4.527   5.046   5.870
 7148SOL    HW121980   4.469   4.973   5.890
 7148SOL    HW221981   4.582   5.055   5.948
 7149SOL     OW21982   4.346   5.300   6.879
 7149SOL    HW121983   4.352   0.053   6.958
 7149SOL    HW221984   4.437   5.280   6.856
 7150SOL     OW21985   5.056   3.770   5.753
 7150SOL    HW121986   5.079   3.729   5.670
 7150SOL    HW221987   4.971   3.732   5.776
 7151SOL     OW21988   5.027   4.182   6.267
 7151SOL    HW121989   4.973   4.261   6.271
 7151SOL    HW221990   5.016   4.141   6.353
 7152SOL     OW21991   0.002   3.950   6.467
 7152SOL    HW121992   5.237   3.937   6.536
 7152SOL    HW221993   5.274   4.029   6.422
 7153SOL     OW21994   3.766   4.793   5.894
 7153SOL    HW121995   3.860   4.787   5.877
 7153SOL    HW221996   3.740   4.704   5.916
 7154SOL     OW21997   3.952   4.343   7.573
 7154SOL    HW121998   3.862   4.351   7.604
 7154SOL    HW221999   3.944   4.321   7.480
 7155SOL     OW22000   4.002   0.125   7.958
 7155SOL    HW122001   3.975   0.210   7.993
 7155SOL    HW222002   4.007   0.138   7.863
 7156SOL     OW22003   3.941   5.157   7.991
 7156SOL    HW122004   3.955   5.251   7.997
 7156SOL    HW222005   3.883   5.137   8.065
 7157SOL     OW22006   4.309   4.705   7.580
 7157SOL    HW122007   4.354   4.756   7.511
 7157SOL    HW222008   4.347   4.737   7.662
 7158SOL     OW22009   3.724   0.010   7.537
 7158SOL    HW122010   3.727   5.221   7.573
 7158SOL    HW222011   3.723   0.067   7.613
 7159SOL     OW22012   0.117   4.651   8.013
 7159SOL    HW122013   0.209   4.640   8.037
 7159SOL    HW222014   0.107   4.746   7.999
 7160SOL     OW22015   4.525   3.719   7.938
 7160SOL    HW122016   4.575   3.799   7.921
 7160SOL    HW222017   4.434   3.748   7.946
 7161SOL     OW22018   4.315   4.448   7.709
 7161SOL    HW122019   4.317   4.531   7.660
 7161SOL    HW222020   4.255   4.465   7.782
 7162SOL     OW22021   3.783   4.587   0.087
 7162SOL    HW122022   3.847   4.522   0.114
 7162SOL    HW222023   3.782   4.651   0.159
 7163SOL     OW22024   4.609   4.070   7.639
 7163SOL    HW122025   4.651   4.129   7.576
 7163SOL    HW222026   4.640   3.983   7.615
 7164SOL     OW22027   4.046   4.680   7.698
 7164SOL    HW122028   4.126   4.697   7.648
 7164SOL    HW222029   4.009   4.602   7.657
 7165SOL     OW22030   4.795   0.182   7.648
 7165SOL    HW122031   4.790   0.141   7.734
 7165SOL    HW222032   4.877   0.150   7.610
 7166SOL     OW22033   5.132   3.850   7.855
 7166SOL    HW122034   5.096   3.826   7.770
 7166SOL    HW222035   5.227   3.851   7.841
 7167SOL     OW22036   4.116   4.422   7.918
 7167SOL    HW122037   4.117   4.327   7.927
 7167SOL    HW222038   4.025   4.447   7.933
 7168SOL     OW22039   4.355   3.843   7.559
 7168SOL    HW122040   4.428   3.782   7.570
 7168SOL    HW222041   4.310   3.812   7.480
 7169SOL     OW22042   4.256   3.799   7.959
 7169SOL    HW122043   4.171   3.803   8.002
 7169SOL    HW222044   4.254   3.870   7.895
 7170SOL     OW22045   5.136   4.907   7.490
 7170SOL    HW122046   5.145   4.829   7.545
 7170SOL    HW222047   5.047   4.938   7.508
 7171SOL     OW22048   4.016   3.773   7.633
 7171SOL    HW122049   4.074   3.834   7.587
 7171SOL    HW222050   4.075   3.709   7.672
 7172SOL     OW22051   4.667   3.950   7.909
 7172SOL    HW122052   4.625   4.013   7.851
 7172SOL    HW222053   4.758   3.978   7.913
 7173SOL     OW22054   4.163   4.873   0.099
 7173SOL    HW122055   4.089   4.913   0.145
 7173SOL    HW222056   4.132   4.861   0.009
 7174SOL     OW22057   4.750   4.267   7.467
 7174SOL    HW122058   4.703   4.348   7.450
 7174SOL    HW222059   4.803   4.286   7.544
 7175SOL     OW22060   4.194   5.152   7.600
 7175SOL    HW122061   4.137   5.098   7.655
 7175SOL    HW222062   4.205   5.100   7.520
 7176SOL     OW22063   5.128   4.284   7.531
 7176SOL    HW122064   5.053   4.275   7.589
 7176SOL    HW222065   5.201   4.244   7.579
 7177SOL     OW22066   4.249   3.990   7.769
 7177SOL    HW122067   4.294   3.941   7.701
 7177SOL    HW222068   4.226   4.073   7.728
 7178SOL     OW22069   4.433   4.783   7.812
 7178SOL    HW122070   4.408   4.769   7.903
 7178SOL    HW222071   4.514   4.733   7.801
 7179SOL     OW22072   4.088   4.828   7.926
 7179SOL    HW122073   4.065   4.907   7.877
 7179SOL    HW222074   4.076   4.757   7.863
 7180SOL     OW22075   4.954   5.103   7.833
 7180SOL    HW122076   5.035   5.127   7.878
 7180SOL    HW222077   4.902   5.058   7.900
 7181SOL     OW22078   0.038   4.374   7.924
 7181SOL    HW122079   5.280   4.385   7.999
 7181SOL    HW222080   0.039   4.460   7.882
 7182SOL     OW22081   4.925   4.253   7.712
 7182SOL    HW122082   4.930   4.169   7.758
 7182SOL    HW222083   4.894   4.315   7.778
 7183SOL     OW22084   0.024   4.129   7.804
 7183SOL    HW122085   0.035   4.061   7.871
 7183SOL    HW222086   0.024   4.211   7.853
 7184SOL     OW22087   5.036   4.556   7.490
 7184SOL    HW122088   5.066   4.465   7.488
 7184SOL    HW222089   5.058   4.591   7.404
 7185SOL     OW22090   3.733   5.044   7.640
 7185SOL    HW122091   3.643   5.058   7.611
 7185SOL    HW222092   3.734   4.955   7.675
 7186SOL     OW22093   4.567   4.329   7.755
 7186SOL    HW122094   4.559   4.236   7.733
 7186SOL    HW222095   4.477   4.361   7.759
 7187SOL     OW22096   4.185   4.217   7.642
 7187SOL    HW122097   4.244   4.291   7.657
 7187SOL    HW222098   4.100   4.258   7.623
 7188SOL     OW22099   5.032   4.575   7.773
 7188SOL    HW122100   4.939   4.588   7.790
 7188SOL    HW222101   5.038   4.571   7.678
 7189SOL     OW22102   0.183   3.867   7.990
 7189SOL    HW122103   0.155   3.851   7.900
 7189SOL    HW222104   0.139   3.799   8.042
 7190SOL     OW22105   4.655   4.632   7.760
 7190SOL    HW122106   4.705   4.657   7.683
 7190SOL    HW222107   4.642   4.537   7.751
 7191SOL     OW22108   3.982   5.055   7.748
 7191SOL    HW122109   3.891   5.059   7.718
 7191SOL    HW222110   3.981   5.096   7.835
 7192SOL     OW22111   3.802   4.056   7.483
 7192SOL    HW122112   3.715   4.037   7.446
 7192SOL    HW222113   3.833   4.132   7.434
 7193SOL     OW22114   3.793   3.881   7.757
 7193SOL    HW122115   3.777   3.957   7.701
 7193SOL    HW222116   3.876   3.845   7.725
 7194SOL     OW22117   4.906   5.055   7.568
 7194SOL    HW122118   4.812   5.040   7.561
 7194SOL    HW222119   4.922   5.067   7.661
 7195SOL     OW22120   4.937   4.044   7.901
 7195SOL    HW122121   5.009   3.982   7.890
 7195SOL    HW222122   4.955   4.087   7.985
 7196SOL     OW22123   4.353   4.459   8.053
 7196SOL    HW122124   4.356   4.541   0.024
 7196SOL    HW222125   4.265   4.459   8.015
 7197SOL     OW22126   4.584   5.094   7.467
 7197SOL    HW122127   4.561   5.096   7.560
 7197SOL    HW222128   4.585   5.186   7.440
 7198SOL     OW22129   4.804   4.702   7.543
 7198SOL    HW122130   4.777   4.755   7.467
 7198SOL    HW222131   4.881   4.654   7.512
 7199SOL     OW22132   4.111   4.151   7.984
 7199SOL    HW122133   4.161   4.100   7.921
 7199SOL    HW222134   4.162   4.148   8.064
 7200SOL     OW22135   4.530   5.048   7.730
 7200SOL    HW122136   4.477   4.971   7.751
 7200SOL    HW222137   4.544   5.091   7.814
 7201SOL     OW22138   5.060   3.768   7.609
 7201SOL    HW122139   5.080   3.723   7.527
 7201SOL    HW222140   4.976   3.732   7.637
 7202SOL     OW22141   3.775   4.800   7.750
 7202SOL    HW122142   3.870   4.793   7.739
 7202SOL    HW222143   3.745   4.710   7.765
   5.30000   5.30000   8.08000
