Built with Packmol
21912
    1LIG      O    1   2.227   2.220   0.053
    1LIG      C    2   2.292   2.270   0.173
    1LIG     C1    3   2.221   2.217   0.301
    1LIG     O1    4   2.285   2.267   0.423
    1LIG     C2    5   2.220   2.218   0.544
    1LIG     C3    6   2.291   2.273   0.670
    1LIG     O2    7   2.227   2.225   0.791
    1LIG     C4    8   2.290   2.275   0.912
    1LIG     C5    9   2.218   2.220   1.038
    1LIG     O3   10   2.281   2.270   1.160
    1LIG     C6   11   2.216   2.221   1.280
    1LIG     C7   12   2.288   2.277   1.406
    1LIG     O4   13   2.224   2.229   1.528
    1LIG     C8   14   2.288   2.279   1.649
    1LIG     C9   15   2.215   2.223   1.774
    1LIG     O5   16   2.278   2.273   1.895
    1LIG    C10   17   2.214   2.224   2.016
    1LIG    C11   18   2.287   2.280   2.142
    1LIG     O6   19   2.223   2.231   2.263
    1LIG    C12   20   2.286   2.280   2.384
    1LIG    C13   21   2.213   2.225   2.509
    1LIG     O7   22   2.277   2.274   2.631
    1LIG    C14   23   2.213   2.225   2.752
    1LIG    C15   24   2.285   2.280   2.878
    1LIG     O8   25   2.221   2.231   3.000
    1LIG    C16   26   2.285   2.281   3.121
    1LIG    C17   27   2.214   2.226   3.247
    1LIG     O9   28   2.277   2.275   3.369
    1LIG    C18   29   2.212   2.226   3.489
    1LIG    C19   30   2.284   2.281   3.614
    1LIG    O10   31   2.220   2.232   3.736
    1LIG    C20   32   2.284   2.282   3.857
    1LIG    C21   33   2.212   2.226   3.982
    1LIG    O11   34   2.276   2.275   4.103
    1LIG    C22   35   2.212   2.226   4.224
    1LIG    C23   36   2.284   2.282   4.350
    1LIG    O12   37   2.220   2.233   4.471
    1LIG    C24   38   2.284   2.282   4.593
    1LIG    C25   39   2.212   2.227   4.719
    1LIG    O13   40   2.275   2.276   4.841
    1LIG    C26   41   2.211   2.227   4.961
    1LIG    C27   42   2.283   2.282   5.086
    1LIG    O14   43   2.219   2.233   5.208
    1LIG    C28   44   2.284   2.282   5.329
    1LIG    C29   45   2.212   2.226   5.455
    1LIG    O15   46   2.276   2.275   5.577
    1LIG    C30   47   2.212   2.226   5.697
    1LIG    C31   48   2.284   2.281   5.822
    1LIG    O16   49   2.220   2.232   5.943
    1LIG    C32   50   2.284   2.281   6.065
    1LIG    C33   51   2.212   2.226   6.191
    1LIG    O17   52   2.276   2.275   6.312
    1LIG    C34   53   2.212   2.225   6.433
    1LIG    C35   54   2.283   2.280   6.559
    1LIG    O18   55   2.220   2.231   6.680
    1LIG    C36   56   2.284   2.280   6.801
    1LIG    C37   57   2.213   2.225   6.927
    1LIG    O19   58   2.277   2.274   7.049
    1LIG    C38   59   2.213   2.224   7.169
    1LIG    C39   60   2.284   2.279   7.295
    1LIG    O20   61   2.221   2.230   7.417
    1LIG    C40   62   2.285   2.279   7.538
    1LIG    C41   63   2.214   2.224   7.664
    1LIG    O21   64   2.277   2.273   7.786
    1LIG    C42   65   2.213   2.223   7.906
    1LIG    C43   66   2.285   2.278   8.031
    1LIG    O22   67   2.222   2.229   8.153
    1LIG    C44   68   2.286   2.278   8.274
    1LIG    C45   69   2.214   2.222   8.399
    1LIG    O23   70   2.277   2.271   8.521
    1LIG    C46   71   2.214   2.222   8.642
    1LIG    C47   72   2.286   2.278   8.767
    1LIG    O24   73   2.223   2.228   8.888
    1LIG    C48   74   2.286   2.277   9.010
    1LIG    C49   75   2.214   2.221   9.135
    1LIG    O25   76   2.278   2.270   9.256
    1LIG    C50   77   2.215   2.221   9.378
    1LIG    C51   78   2.287   2.277   9.503
    1LIG    O26   79   2.223   2.227   9.624
    1LIG    C52   80   2.287   2.276   9.746
    1LIG    C53   81   2.215   2.219   9.871
    1LIG    O27   82   2.279   2.269   9.991
    1LIG    C54   83   2.216   2.219  10.113
    1LIG    C55   84   2.288   2.275  10.240
    1LIG    O28   85   2.224   2.225  10.361
    1LIG    C56   86   2.288   2.274  10.482
    1LIG    C57   87   2.217   2.218  10.609
    1LIG    O29   88   2.281   2.267  10.731
    1LIG    C58   89   2.217   2.217  10.852
    1LIG    C59   90   2.288   2.272  10.978
    1LIG      H   91   2.289   2.380   0.171
    1LIG     H1   92   2.397   2.239   0.172
    1LIG     H2   93   2.224   2.108   0.301
    1LIG     H3   94   2.116   2.248   0.300
    1LIG     H4   95   2.222   2.108   0.546
    1LIG     H5   96   2.115   2.249   0.545
    1LIG     H6   97   2.289   2.383   0.668
    1LIG     H7   98   2.396   2.242   0.669
    1LIG     H8   99   2.288   2.384   0.913
    1LIG     H9  100   2.395   2.244   0.914
    1LIG    H10  101   2.221   2.111   1.037
    1LIG    H11  102   2.113   2.251   1.036
    1LIG    H12  103   2.219   2.112   1.282
    1LIG    H13  104   2.111   2.252   1.281
    1LIG    H14  105   2.285   2.387   1.404
    1LIG    H15  106   2.393   2.246   1.405
    1LIG    H16  107   2.285   2.388   1.650
    1LIG    H17  108   2.393   2.248   1.651
    1LIG    H18  109   2.218   2.114   1.772
    1LIG    H19  110   2.110   2.254   1.772
    1LIG    H20  111   2.217   2.114   2.018
    1LIG    H21  112   2.109   2.255   2.018
    1LIG    H22  113   2.284   2.389   2.140
    1LIG    H23  114   2.392   2.249   2.140
    1LIG    H24  115   2.283   2.389   2.386
    1LIG    H25  116   2.391   2.249   2.386
    1LIG    H26  117   2.216   2.115   2.508
    1LIG    H27  118   2.108   2.256   2.508
    1LIG    H28  119   2.216   2.115   2.754
    1LIG    H29  120   2.108   2.256   2.753
    1LIG    H30  121   2.282   2.390   2.877
    1LIG    H31  122   2.390   2.249   2.877
    1LIG    H32  123   2.282   2.391   3.122
    1LIG    H33  124   2.390   2.250   3.122
    1LIG    H34  125   2.216   2.117   3.245
    1LIG    H35  126   2.108   2.257   3.245
    1LIG    H36  127   2.215   2.116   3.490
    1LIG    H37  128   2.107   2.257   3.490
    1LIG    H38  129   2.281   2.391   3.613
    1LIG    H39  130   2.389   2.250   3.613
    1LIG    H40  131   2.282   2.391   3.858
    1LIG    H41  132   2.390   2.251   3.858
    1LIG    H42  133   2.215   2.117   3.981
    1LIG    H43  134   2.107   2.257   3.980
    1LIG    H44  135   2.215   2.117   4.226
    1LIG    H45  136   2.107   2.257   4.226
    1LIG    H46  137   2.281   2.392   4.348
    1LIG    H47  138   2.389   2.251   4.349
    1LIG    H48  139   2.281   2.391   4.594
    1LIG    H49  140   2.389   2.251   4.594
    1LIG    H50  141   2.214   2.117   4.718
    1LIG    H51  142   2.107   2.258   4.717
    1LIG    H52  143   2.214   2.117   4.963
    1LIG    H53  144   2.106   2.258   4.963
    1LIG    H54  145   2.280   2.392   5.085
    1LIG    H55  146   2.388   2.251   5.085
    1LIG    H56  147   2.281   2.391   5.331
    1LIG    H57  148   2.389   2.251   5.330
    1LIG    H58  149   2.215   2.117   5.453
    1LIG    H59  150   2.107   2.257   5.454
    1LIG    H60  151   2.215   2.116   5.699
    1LIG    H61  152   2.107   2.257   5.699
    1LIG    H62  153   2.281   2.391   5.821
    1LIG    H63  154   2.389   2.250   5.821
    1LIG    H64  155   2.281   2.390   6.066
    1LIG    H65  156   2.389   2.250   6.066
    1LIG    H66  157   2.215   2.116   6.189
    1LIG    H67  158   2.107   2.257   6.189
    1LIG    H68  159   2.215   2.116   6.434
    1LIG    H69  160   2.107   2.256   6.434
    1LIG    H70  161   2.280   2.390   6.558
    1LIG    H71  162   2.389   2.250   6.557
    1LIG    H72  163   2.281   2.390   6.802
    1LIG    H73  164   2.389   2.250   6.802
    1LIG    H74  165   2.216   2.116   6.926
    1LIG    H75  166   2.108   2.256   6.926
    1LIG    H76  167   2.216   2.115   7.170
    1LIG    H77  168   2.107   2.255   7.171
    1LIG    H78  169   2.281   2.388   7.294
    1LIG    H79  170   2.389   2.248   7.294
    1LIG    H80  171   2.282   2.389   7.539
    1LIG    H81  172   2.390   2.249   7.539
    1LIG    H82  173   2.217   2.114   7.662
    1LIG    H83  174   2.108   2.254   7.663
    1LIG    H84  175   2.217   2.113   7.907
    1LIG    H85  176   2.108   2.253   7.907
    1LIG    H86  177   2.282   2.388   8.030
    1LIG    H87  178   2.391   2.248   8.029
    1LIG    H88  179   2.283   2.388   8.276
    1LIG    H89  180   2.391   2.248   8.275
    1LIG    H90  181   2.217   2.113   8.398
    1LIG    H91  182   2.109   2.253   8.398
    1LIG    H92  183   2.217   2.112   8.644
    1LIG    H93  184   2.109   2.252   8.644
    1LIG    H94  185   2.283   2.387   8.766
    1LIG    H95  186   2.392   2.247   8.766
    1LIG    H96  187   2.283   2.386   9.012
    1LIG    H97  188   2.391   2.246   9.011
    1LIG    H98  189   2.217   2.111   9.133
    1LIG    H99  190   2.109   2.251   9.134
    1LIG   H100  191   2.218   2.111   9.379
    1LIG   H101  192   2.110   2.251   9.380
    1LIG   H102  193   2.284   2.386   9.502
    1LIG   H103  194   2.392   2.246   9.501
    1LIG   H104  195   2.284   2.385   9.747
    1LIG   H105  196   2.392   2.245   9.747
    1LIG   H106  197   2.219   2.110   9.869
    1LIG   H107  198   2.110   2.250   9.870
    1LIG   H108  199   2.219   2.110  10.114
    1LIG   H109  200   2.111   2.250  10.115
    1LIG   H110  201   2.284   2.384  10.239
    1LIG   H111  202   2.393   2.244  10.238
    1LIG   H112  203   2.285   2.384  10.484
    1LIG   H113  204   2.394   2.244  10.483
    1LIG   H114  205   2.221   2.109  10.607
    1LIG   H115  206   2.112   2.249  10.608
    1LIG   H116  207   2.221   2.107  10.852
    1LIG   H117  208   2.112   2.249  10.853
    1LIG   H118  209   2.393   2.242  10.978
    1LIG   H119  210   2.241   2.235  11.073
    1MOL     C1  211   1.903   1.837   5.547
    1MOL     H1  212   1.895   1.730   5.570
    1MOL     O1  213   1.854   1.901   5.664
    1MOL     C2  214   1.857   2.045   5.662
    1MOL     H2  215   1.961   2.079   5.656
    1MOL     C3  216   1.795   2.091   5.792
    1MOL     H3  217   1.694   2.046   5.800
    1MOL     H4  218   1.785   2.200   5.792
    1MOL     O2  219   1.874   2.048   5.902
    1MOL     C4  220   1.818   2.090   6.025
    1MOL     C5  221   1.810   1.875   5.430
    1MOL     H5  222   1.709   1.844   5.459
    1MOL     O3  223   1.845   1.815   5.307
    1MOL     C6  224   1.809   1.678   5.296
    1MOL     C7  225   1.810   2.027   5.410
    1MOL     H6  226   1.909   2.058   5.374
    1MOL     O4  227   1.709   2.063   5.316
    1MOL     C8  228   1.757   2.094   5.186
    1MOL     C9  229   1.779   2.101   5.540
    1MOL     H7  230   1.671   2.090   5.559
    1MOL     O5  231   1.811   2.239   5.518
    1MOL    C10  232   1.718   2.337   5.556
    1MOL     H8  233   1.621   2.292   5.578
    1MOL     O6  234   1.755   2.403   5.676
    1MOL    C11  235   1.884   2.466   5.673
    1MOL     H9  236   1.962   2.392   5.651
    1MOL    C12  237   1.908   2.522   5.813
    1MOL    H10  238   1.822   2.585   5.841
    1MOL    H11  239   1.998   2.586   5.812
    1MOL     O7  240   1.925   2.415   5.904
    1MOL    C13  241   1.963   2.461   6.032
    1MOL    C14  242   1.705   2.444   5.446
    1MOL    H12  243   1.626   2.513   5.479
    1MOL     O8  244   1.671   2.391   5.319
    1MOL    C15  245   1.537   2.348   5.306
    1MOL    C16  246   1.834   2.525   5.430
    1MOL    H13  247   1.911   2.460   5.386
    1MOL     O9  248   1.810   2.637   5.347
    1MOL    C17  249   1.857   2.624   5.214
    1MOL    C18  250   1.886   2.576   5.565
    1MOL    H14  251   1.822   2.659   5.596
    1MOL    O10  252   2.020   2.624   5.542
    1MOL    C19  253   2.056   2.752   5.589
    1MOL    H15  254   1.967   2.806   5.623
    1MOL    O11  255   2.140   2.746   5.702
    1MOL    C20  256   2.263   2.675   5.684
    1MOL    H16  257   2.242   2.570   5.661
    1MOL    C21  258   2.338   2.685   5.816
    1MOL    H17  259   2.335   2.790   5.850
    1MOL    H18  260   2.443   2.656   5.802
    1MOL    O12  261   2.276   2.600   5.912
    1MOL    C22  262   2.343   2.605   6.037
    1MOL    C23  263   2.129   2.830   5.478
    1MOL    H19  264   2.151   2.930   5.520
    1MOL    O13  265   2.055   2.844   5.359
    1MOL    C24  266   1.948   2.937   5.365
    1MOL    C25  267   2.262   2.763   5.443
    1MOL    H20  268   2.241   2.667   5.394
    1MOL    O14  269   2.338   2.848   5.358
    1MOL    C26  270   2.335   2.812   5.221
    1MOL    C27  271   2.346   2.735   5.568
    1MOL    H21  272   2.391   2.830   5.601
    1MOL    O15  273   2.450   2.644   5.529
    1MOL    C28  274   2.584   2.674   5.559
    1MOL    H22  275   2.593   2.780   5.587
    1MOL    O16  276   2.631   2.603   5.672
    1MOL    C29  277   2.623   2.460   5.659
    1MOL    H23  278   2.518   2.431   5.644
    1MOL    C30  279   2.670   2.401   5.791
    1MOL    H24  280   2.644   2.294   5.794
    1MOL    H25  281   2.616   2.451   5.874
    1MOL    O17  282   2.810   2.418   5.805
    1MOL    C31  283   2.861   2.352   5.918
    1MOL    C32  284   2.674   2.641   5.439
    1MOL    H26  285   2.776   2.671   5.467
    1MOL    O18  286   2.636   2.706   5.319
    1MOL    C33  287   2.672   2.843   5.313
    1MOL    C34  288   2.675   2.490   5.411
    1MOL    H27  289   2.576   2.460   5.373
    1MOL    O19  290   2.776   2.460   5.316
    1MOL    C35  291   2.728   2.430   5.186
    1MOL    C36  292   2.705   2.410   5.538
    1MOL    H28  293   2.812   2.422   5.562
    1MOL    O20  294   2.675   2.273   5.510
    1MOL    C37  295   2.767   2.174   5.549
    1MOL    H29  296   2.863   2.220   5.576
    1MOL    O21  297   2.727   2.104   5.665
    1MOL    C38  298   2.599   2.039   5.654
    1MOL    H30  299   2.522   2.114   5.631
    1MOL    C39  300   2.568   1.979   5.791
    1MOL    H31  301   2.461   1.955   5.797
    1MOL    H32  302   2.589   2.055   5.868
    1MOL    O22  303   2.647   1.864   5.812
    1MOL    C40  304   2.609   1.795   5.930
    1MOL    C41  305   2.785   2.072   5.434
    1MOL    H33  306   2.863   2.002   5.467
    1MOL    O23  307   2.822   2.131   5.311
    1MOL    C42  308   2.956   2.176   5.305
    1MOL    C43  309   2.656   1.993   5.410
    1MOL    H34  310   2.581   2.060   5.367
    1MOL    O24  311   2.683   1.884   5.322
    1MOL    C44  312   2.637   1.903   5.190
    1MOL    C45  313   2.601   1.935   5.541
    1MOL    H35  314   2.665   1.851   5.572
    1MOL    O25  315   2.469   1.887   5.513
    1MOL    C46  316   2.432   1.759   5.558
    1MOL    H36  317   2.521   1.703   5.588
    1MOL    O26  318   2.351   1.763   5.674
    1MOL    C47  319   2.230   1.838   5.661
    1MOL    H37  320   2.253   1.942   5.636
    1MOL    C48  321   2.163   1.833   5.798
    1MOL    H38  322   2.154   1.728   5.830
    1MOL    H39  323   2.062   1.875   5.792
    1MOL    O27  324   2.243   1.906   5.889
    1MOL    C49  325   2.183   1.916   6.017
    1MOL    C50  326   2.354   1.686   5.447
    1MOL    H40  327   2.333   1.584   5.486
    1MOL    O28  328   2.423   1.676   5.325
    1MOL    C51  329   2.533   1.586   5.325
    1MOL    C52  330   2.220   1.755   5.420
    1MOL    H41  331   2.239   1.852   5.373
    1MOL    O29  332   2.139   1.673   5.336
    1MOL    C53  333   2.141   1.710   5.199
    1MOL    C54  334   2.141   1.780   5.549
    1MOL    H42  335   2.098   1.684   5.582
    1MOL    O30  336   2.035   1.871   5.517
    1MOL    H43  337   1.979   2.372   6.094
    1MOL    H44  338   2.056   2.519   6.027
    1MOL    H45  339   1.885   2.523   6.078
    1MOL    H46  340   1.886   2.057   6.104
    1MOL    H47  341   1.807   2.199   6.029
    1MOL    H48  342   1.719   2.044   6.042
    1MOL    H49  343   2.251   1.975   6.079
    1MOL    H50  344   2.086   1.966   6.011
    1MOL    H51  345   2.170   1.817   6.063
    1MOL    H52  346   2.671   1.705   5.936
    1MOL    H53  347   2.628   1.856   6.020
    1MOL    H54  348   2.503   1.767   5.928
    1MOL    H55  349   2.969   2.371   5.920
    1MOL    H56  350   2.817   2.391   6.012
    1MOL    H57  351   2.843   2.244   5.913
    1MOL    H58  352   2.290   2.536   6.104
    1MOL    H59  353   2.448   2.573   6.028
    1MOL    H60  354   2.341   2.706   6.080
    1MOL    H61  355   2.977   2.198   5.199
    1MOL    H62  356   2.972   2.268   5.362
    1MOL    H63  357   3.026   2.099   5.339
    1MOL    H64  358   2.816   2.415   5.123
    1MOL    H65  359   2.669   2.338   5.186
    1MOL    H66  360   2.669   2.513   5.145
    1MOL    H67  361   2.657   2.875   5.210
    1MOL    H68  362   2.609   2.905   5.378
    1MOL    H69  363   2.778   2.858   5.340
    1MOL    H70  364   2.392   2.889   5.168
    1MOL    H71  365   2.384   2.715   5.204
    1MOL    H72  366   2.232   2.810   5.182
    1MOL    H73  367   1.915   2.954   5.262
    1MOL    H74  368   1.863   2.898   5.423
    1MOL    H75  369   1.981   3.033   5.408
    1MOL    H76  370   1.827   2.716   5.161
    1MOL    H77  371   1.966   2.616   5.211
    1MOL    H78  372   1.811   2.538   5.164
    1MOL    H79  373   1.519   2.332   5.200
    1MOL    H80  374   1.519   2.253   5.359
    1MOL    H81  375   1.467   2.425   5.343
    1MOL    H82  376   1.669   2.113   5.124
    1MOL    H83  377   1.819   2.184   5.188
    1MOL    H84  378   1.814   2.010   5.143
    1MOL    H85  379   1.821   1.651   5.191
    1MOL    H86  380   1.875   1.614   5.356
    1MOL    H87  381   1.705   1.662   5.326
    1MOL    H88  382   2.081   1.636   5.146
    1MOL    H89  383   2.095   1.809   5.184
    1MOL    H90  384   2.243   1.710   5.158
    1MOL    H91  385   2.561   1.571   5.220
    1MOL    H92  386   2.619   1.627   5.379
    1MOL    H93  387   2.504   1.489   5.368
    1MOL    H94  388   2.669   1.815   5.133
    1MOL    H95  389   2.527   1.908   5.186
    1MOL    H96  390   2.680   1.993   5.144
    2SOL     OW  391   0.230   0.628   0.113
    2SOL    HW1  392   0.137   0.626   0.150
    2SOL    HW2  393   0.231   0.589   0.021
    3SOL     OW  394   0.225   0.275   0.996
    3SOL    HW1  395   0.260   0.258   1.088
    3SOL    HW2  396   0.137   0.230   0.984
    4SOL     OW  397   0.019   0.368   0.647
    4SOL    HW1  398  -0.063   0.411   0.686
    4SOL    HW2  399  -0.009   0.295   0.584
    5SOL     OW  400   0.569   1.275   1.165
    5SOL    HW1  401   0.476   1.268   1.128
    5SOL    HW2  402   0.580   1.364   1.209
    6SOL     OW  403   1.555   1.511   0.703
    6SOL    HW1  404   1.498   1.495   0.784
    6SOL    HW2  405   1.496   1.521   0.623
    7SOL     OW  406   1.135   0.703   0.717
    7SOL    HW1  407   1.192   0.781   0.692
    7SOL    HW2  408   1.075   0.729   0.793
    8SOL     OW  409   1.755   0.607   0.231
    8SOL    HW1  410   1.743   0.594   0.132
    8SOL    HW2  411   1.725   0.526   0.280
    9SOL     OW  412   0.768   1.144   1.023
    9SOL    HW1  413   0.690   1.161   1.083
    9SOL    HW2  414   0.802   1.231   0.987
   10SOL     OW  415   0.850   0.798   1.823
   10SOL    HW1  416   0.846   0.874   1.888
   10SOL    HW2  417   0.872   0.834   1.732
   11SOL     OW  418   0.685   1.012   0.665
   11SOL    HW1  419   0.754   0.996   0.735
   11SOL    HW2  420   0.612   1.069   0.703
   12SOL     OW  421   0.686   1.161   1.803
   12SOL    HW1  422   0.746   1.240   1.817
   12SOL    HW2  423   0.600   1.192   1.762
   13SOL     OW  424   0.335   1.435   1.061
   13SOL    HW1  425   0.257   1.404   1.008
   13SOL    HW2  426   0.393   1.493   1.004
   14SOL     OW  427   1.460   1.505   1.339
   14SOL    HW1  428   1.484   1.599   1.365
   14SOL    HW2  429   1.444   1.451   1.421
   15SOL     OW  430   0.438   0.392   1.499
   15SOL    HW1  431   0.520   0.336   1.508
   15SOL    HW2  432   0.357   0.334   1.503
   16SOL     OW  433   1.603   0.447   0.737
   16SOL    HW1  434   1.529   0.493   0.687
   16SOL    HW2  435   1.654   0.515   0.790
   17SOL     OW  436   0.231   1.713   0.483
   17SOL    HW1  437   0.265   1.790   0.537
   17SOL    HW2  438   0.275   1.713   0.393
   18SOL     OW  439   1.127   1.341   1.690
   18SOL    HW1  440   1.174   1.341   1.778
   18SOL    HW2  441   1.079   1.254   1.679
   19SOL     OW  442   0.230   1.434   0.538
   19SOL    HW1  443   0.204   1.530   0.538
   19SOL    HW2  444   0.159   1.380   0.583
   20SOL     OW  445   0.240   1.091   0.886
   20SOL    HW1  446   0.254   1.007   0.938
   20SOL    HW2  447   0.185   1.155   0.941
   21SOL     OW  448   0.620   1.786   1.439
   21SOL    HW1  449   0.528   1.769   1.474
   21SOL    HW2  450   0.648   1.878   1.465
   22SOL     OW  451   0.606   0.964   0.123
   22SOL    HW1  452   0.613   1.048   0.069
   22SOL    HW2  453   0.652   0.977   0.211
   23SOL     OW  454   1.594   0.114   1.480
   23SOL    HW1  455   1.576   0.181   1.408
   23SOL    HW2  456   1.591   0.160   1.569
   24SOL     OW  457   0.122   0.643   0.563
   24SOL    HW1  458   0.077   0.555   0.580
   24SOL    HW2  459   0.121   0.697   0.647
   25SOL     OW  460   1.842   1.767   0.359
   25SOL    HW1  461   1.896   1.738   0.439
   25SOL    HW2  462   1.872   1.857   0.330
   26SOL     OW  463   0.027   1.596   0.117
   26SOL    HW1  464   0.008   1.500   0.138
   26SOL    HW2  465  -0.006   1.654   0.192
   27SOL     OW  466   1.689   0.922   0.612
   27SOL    HW1  467   1.784   0.893   0.620
   27SOL    HW2  468   1.681   0.987   0.537
   28SOL     OW  469   1.641   1.108   0.432
   28SOL    HW1  470   1.727   1.110   0.380
   28SOL    HW2  471   1.655   1.155   0.520
   29SOL     OW  472   0.113   0.737   1.597
   29SOL    HW1  473   0.201   0.724   1.642
   29SOL    HW2  474   0.100   0.834   1.575
   30SOL     OW  475   0.613   1.365   0.726
   30SOL    HW1  476   0.564   1.278   0.735
   30SOL    HW2  477   0.590   1.408   0.639
   31SOL     OW  478   1.293   1.228   1.423
   31SOL    HW1  479   1.330   1.155   1.365
   31SOL    HW2  480   1.345   1.233   1.508
   32SOL     OW  481   0.809   0.004   0.502
   32SOL    HW1  482   0.849   0.095   0.493
   32SOL    HW2  483   0.709   0.012   0.508
   33SOL     OW  484   0.197   0.976   1.264
   33SOL    HW1  485   0.286   0.931   1.250
   33SOL    HW2  486   0.124   0.911   1.245
   34SOL     OW  487   1.525   0.999   0.190
   34SOL    HW1  488   1.462   0.923   0.203
   34SOL    HW2  489   1.573   1.017   0.276
   35SOL     OW  490   1.187   1.792   1.616
   35SOL    HW1  491   1.211   1.852   1.540
   35SOL    HW2  492   1.194   1.697   1.586
   36SOL     OW  493   0.317   0.251   1.801
   36SOL    HW1  494   0.388   0.322   1.807
   36SOL    HW2  495   0.229   0.290   1.829
   37SOL     OW  496   1.466   1.417   0.953
   37SOL    HW1  497   1.407   1.423   1.033
   37SOL    HW2  498   1.451   1.329   0.907
   38SOL     OW  499   1.667   1.714   0.572
   38SOL    HW1  500   1.626   1.691   0.484
   38SOL    HW2  501   1.649   1.640   0.637
   39SOL     OW  502   0.598   0.729   0.270
   39SOL    HW1  503   0.622   0.798   0.202
   39SOL    HW2  504   0.520   0.762   0.324
   40SOL     OW  505   1.281   0.345   0.944
   40SOL    HW1  506   1.195   0.295   0.931
   40SOL    HW2  507   1.343   0.291   1.000
   41SOL     OW  508   1.576   1.662   0.307
   41SOL    HW1  509   1.665   1.708   0.310
   41SOL    HW2  510   1.555   1.638   0.212
   42SOL     OW  511   0.807   0.605   1.465
   42SOL    HW1  512   0.760   0.602   1.554
   42SOL    HW2  513   0.756   0.550   1.399
   43SOL     OW  514   1.394   0.469   1.674
   43SOL    HW1  515   1.374   0.512   1.762
   43SOL    HW2  516   1.472   0.407   1.683
   44SOL     OW  517   0.973   0.890   1.572
   44SOL    HW1  518   1.019   0.806   1.543
   44SOL    HW2  519   0.917   0.924   1.497
   45SOL     OW  520   0.991   0.410   1.242
   45SOL    HW1  521   0.914   0.444   1.296
   45SOL    HW2  522   0.957   0.359   1.163
   46SOL     OW  523   1.041   0.701   0.429
   46SOL    HW1  524   1.067   0.697   0.525
   46SOL    HW2  525   0.956   0.650   0.415
   47SOL     OW  526   0.076   0.811   0.789
   47SOL    HW1  527   0.175   0.799   0.798
   47SOL    HW2  528   0.052   0.906   0.810
   48SOL     OW  529   0.130   1.821   1.571
   48SOL    HW1  530   0.120   1.806   1.670
   48SOL    HW2  531   0.044   1.857   1.535
   49SOL     OW  532   0.865   0.348   0.195
   49SOL    HW1  533   0.924   0.411   0.146
   49SOL    HW2  534   0.884   0.254   0.166
   50SOL     OW  535   1.719   0.585   1.831
   50SOL    HW1  536   1.693   0.674   1.795
   50SOL    HW2  537   1.717   0.517   1.758
   51SOL     OW  538   1.362   1.144   0.545
   51SOL    HW1  539   1.445   1.115   0.497
   51SOL    HW2  540   1.313   1.211   0.489
   52SOL     OW  541   0.550   0.196   0.885
   52SOL    HW1  542   0.545   0.191   0.985
   52SOL    HW2  543   0.552   0.292   0.856
   53SOL     OW  544   1.008   1.456   0.477
   53SOL    HW1  545   0.962   1.528   0.425
   53SOL    HW2  546   1.004   1.476   0.575
   54SOL     OW  547   0.351   1.801   0.853
   54SOL    HW1  548   0.401   1.715   0.859
   54SOL    HW2  549   0.416   1.878   0.850
   55SOL     OW  550   1.795   1.066   0.873
   55SOL    HW1  551   1.733   1.051   0.797
   55SOL    HW2  552   1.743   1.077   0.958
   56SOL     OW  553   1.227   1.550   1.506
   56SOL    HW1  554   1.233   1.473   1.570
   56SOL    HW2  555   1.175   1.524   1.426
   57SOL     OW  556   0.321   0.943   0.242
   57SOL    HW1  557   0.403   0.982   0.200
   57SOL    HW2  558   0.294   0.861   0.193
   58SOL     OW  559   1.458   0.735   0.728
   58SOL    HW1  560   1.453   0.670   0.803
   58SOL    HW2  561   1.538   0.794   0.741
   59SOL     OW  562   0.461   1.266   1.727
   59SOL    HW1  563   0.411   1.267   1.641
   59SOL    HW2  564   0.398   1.248   1.803
   60SOL     OW  565   1.111   1.776   0.237
   60SOL    HW1  566   1.051   1.714   0.287
   60SOL    HW2  567   1.142   1.732   0.152
   61SOL     OW  568   0.202   0.285   1.498
   61SOL    HW1  569   0.122   0.345   1.485
   61SOL    HW2  570   0.192   0.236   1.584
   62SOL     OW  571   1.632   1.377   0.081
   62SOL    HW1  572   1.600   1.471   0.071
   62SOL    HW2  573   1.556   1.314   0.069
   63SOL     OW  574   0.464   1.743   0.323
   63SOL    HW1  575   0.497   1.782   0.409
   63SOL    HW2  576   0.540   1.736   0.258
   64SOL     OW  577   1.400   0.107   0.426
   64SOL    HW1  578   1.376   0.070   0.336
   64SOL    HW2  579   1.499   0.123   0.430
   65SOL     OW  580   0.249   1.785   1.241
   65SOL    HW1  581   0.306   1.720   1.291
   65SOL    HW2  582   0.233   1.752   1.148
   66SOL     OW  583   0.940   1.698   0.904
   66SOL    HW1  584   1.020   1.641   0.925
   66SOL    HW2  585   0.891   1.658   0.827
   67SOL     OW  586   0.382   0.700   0.480
   67SOL    HW1  587   0.427   0.610   0.477
   67SOL    HW2  588   0.288   0.689   0.513
   68SOL     OW  589   1.547   0.222   1.729
   68SOL    HW1  590   1.542   0.259   1.821
   68SOL    HW2  591   1.475   0.153   1.717
   69SOL     OW  592   0.614   0.122   0.117
   69SOL    HW1  593   0.712   0.100   0.124
   69SOL    HW2  594   0.583   0.105   0.024
   70SOL     OW  595   0.781   0.264   1.749
   70SOL    HW1  596   0.848   0.203   1.792
   70SOL    HW2  597   0.708   0.283   1.814
   71SOL     OW  598   0.888   1.514   1.195
   71SOL    HW1  599   0.865   1.489   1.101
   71SOL    HW2  600   0.949   1.445   1.234
   72SOL     OW  601   1.351   0.590   1.433
   72SOL    HW1  602   1.379   0.547   1.518
   72SOL    HW2  603   1.376   0.686   1.434
   73SOL     OW  604   0.803   1.402   0.924
   73SOL    HW1  605   0.893   1.416   0.882
   73SOL    HW2  606   0.732   1.404   0.853
   74SOL     OW  607   0.922   0.503   0.899
   74SOL    HW1  608   0.897   0.494   0.803
   74SOL    HW2  609   0.970   0.421   0.930
   75SOL     OW  610   0.539   0.064   0.512
   75SOL    HW1  611   0.458   0.065   0.570
   75SOL    HW2  612   0.542   0.147   0.457
   76SOL     OW  613   1.434   1.188   0.041
   76SOL    HW1  614   1.466   1.112   0.098
   76SOL    HW2  615   1.342   1.215   0.071
   77SOL     OW  616   0.297   0.035   0.171
   77SOL    HW1  617   0.346   0.119   0.150
   77SOL    HW2  618   0.359  -0.030   0.216
   78SOL     OW  619   0.935   0.236   0.480
   78SOL    HW1  620   0.887   0.277   0.402
   78SOL    HW2  621   1.034   0.234   0.461
   79SOL     OW  622   1.076   0.683   1.464
   79SOL    HW1  623   0.996   0.622   1.467
   79SOL    HW2  624   1.157   0.630   1.440
   80SOL     OW  625   1.227   1.570   0.793
   80SOL    HW1  626   1.248   1.644   0.728
   80SOL    HW2  627   1.295   1.570   0.866
   81SOL     OW  628   0.459   1.152   0.741
   81SOL    HW1  629   0.388   1.125   0.806
   81SOL    HW2  630   0.433   1.124   0.648
   82SOL     OW  631   1.271   1.797   0.591
   82SOL    HW1  632   1.315   1.861   0.527
   82SOL    HW2  633   1.221   1.849   0.661
   83SOL     OW  634   1.032   0.549   0.016
   83SOL    HW1  635   0.991   0.631  -0.023
   83SOL    HW2  636   1.096   0.575   0.089
   84SOL     OW  637   0.078   0.556   1.386
   84SOL    HW1  638   0.170   0.555   1.345
   84SOL    HW2  639   0.072   0.630   1.453
   85SOL     OW  640   0.561   0.222   1.147
   85SOL    HW1  641   0.599   0.138   1.184
   85SOL    HW2  642   0.473   0.241   1.191
   86SOL     OW  643   0.866   0.454   0.642
   86SOL    HW1  644   0.834   0.526   0.580
   86SOL    HW2  645   0.890   0.373   0.589
   87SOL     OW  646   1.017   0.039   0.753
   87SOL    HW1  647   0.945   0.044   0.684
   87SOL    HW2  648   0.993  -0.030   0.822
   88SOL     OW  649   1.429   1.173   0.867
   88SOL    HW1  650   1.374   1.089   0.860
   88SOL    HW2  651   1.455   1.202   0.775
   89SOL     OW  652   1.466   0.590   0.992
   89SOL    HW1  653   1.436   0.495   0.999
   89SOL    HW2  654   1.539   0.606   1.058
   90SOL     OW  655   1.857   0.833   0.377
   90SOL    HW1  656   1.899   0.769   0.441
   90SOL    HW2  657   1.819   0.782   0.299
   91SOL     OW  658   0.488   1.385   0.174
   91SOL    HW1  659   0.401   1.370   0.221
   91SOL    HW2  660   0.471   1.411   0.079
   92SOL     OW  661   1.664   1.280   0.657
   92SOL    HW1  662   1.763   1.288   0.671
   92SOL    HW2  663   1.619   1.364   0.688
   93SOL     OW  664   1.390   0.575   0.078
   93SOL    HW1  665   1.336   0.554   0.159
   93SOL    HW2  666   1.481   0.534   0.087
   94SOL     OW  667   0.527   0.256   0.328
   94SOL    HW1  668   0.554   0.197   0.253
   94SOL    HW2  669   0.527   0.351   0.297
   95SOL     OW  670   1.754   1.223   1.588
   95SOL    HW1  671   1.845   1.184   1.575
   95SOL    HW2  672   1.762   1.319   1.612
   96SOL     OW  673   1.064   1.347   1.340
   96SOL    HW1  674   0.984   1.324   1.395
   96SOL    HW2  675   1.147   1.321   1.389
   97SOL     OW  676   1.592   1.629   1.625
   97SOL    HW1  677   1.619   1.663   1.535
   97SOL    HW2  678   1.671   1.591   1.671
   98SOL     OW  679   1.111   1.195   1.100
   98SOL    HW1  680   1.071   1.239   1.181
   98SOL    HW2  681   1.070   1.232   1.017
   99SOL     OW  682   1.638   1.099   1.079
   99SOL    HW1  683   1.643   1.180   1.138
   99SOL    HW2  684   1.552   1.101   1.028
  100SOL     OW  685   0.915   0.089   1.402
  100SOL    HW1  686   0.940   0.069   1.307
  100SOL    HW2  687   0.987   0.145   1.444
  101SOL     OW  688   0.980   1.116   1.719
  101SOL    HW1  689   0.881   1.122   1.729
  101SOL    HW2  690   1.003   1.036   1.663
  102SOL     OW  691   0.705   1.050   0.368
  102SOL    HW1  692   0.691   1.057   0.467
  102SOL    HW2  693   0.789   0.999   0.350
  103SOL     OW  694   0.410   0.813   1.251
  103SOL    HW1  695   0.496   0.825   1.301
  103SOL    HW2  696   0.368   0.726   1.278
  104SOL     OW  697   1.274   0.386   1.262
  104SOL    HW1  698   1.295   0.460   1.326
  104SOL    HW2  699   1.185   0.403   1.219
  105SOL     OW  700   0.064   1.564   1.331
  105SOL    HW1  701   0.018   1.646   1.297
  105SOL    HW2  702   0.162   1.583   1.340
  106SOL     OW  703   0.367   1.100   0.501
  106SOL    HW1  704   0.360   1.183   0.445
  106SOL    HW2  705   0.371   1.020   0.441
  107SOL     OW  706   0.566   0.537   0.865
  107SOL    HW1  707   0.578   0.603   0.791
  107SOL    HW2  708   0.612   0.571   0.948
  108SOL     OW  709   1.252   1.348   0.388
  108SOL    HW1  710   1.302   1.425   0.428
  108SOL    HW2  711   1.157   1.350   0.420
  109SOL     OW  712   1.272   1.445   1.142
  109SOL    HW1  713   1.319   1.458   1.229
  109SOL    HW2  714   1.206   1.371   1.151
  110SOL     OW  715   1.582   0.639   0.472
  110SOL    HW1  716   1.551   0.700   0.545
  110SOL    HW2  717   1.632   0.691   0.403
  111SOL     OW  718   0.354   1.510   1.329
  111SOL    HW1  719   0.333   1.466   1.242
  111SOL    HW2  720   0.451   1.536   1.332
  112SOL     OW  721   0.402   0.751   1.598
  112SOL    HW1  722   0.470   0.806   1.551
  112SOL    HW2  723   0.442   0.663   1.625
  113SOL     OW  724   1.587   0.779   1.670
  113SOL    HW1  725   1.495   0.817   1.665
  113SOL    HW2  726   1.647   0.826   1.605
  114SOL     OW  727   1.013   0.105   1.770
  114SOL    HW1  728   1.019   0.190   1.718
  114SOL    HW2  729   1.045   0.029   1.713
  115SOL     OW  730   0.504   0.050   1.740
  115SOL    HW1  731   0.462  -0.007   1.670
  115SOL    HW2  732   0.438   0.119   1.772
  116SOL     OW  733   0.573   0.870   1.029
  116SOL    HW1  734   0.617   0.959   1.020
  116SOL    HW2  735   0.510   0.870   1.106
  117SOL     OW  736   1.360   0.862   1.045
  117SOL    HW1  737   1.285   0.862   0.979
  117SOL    HW2  738   1.397   0.770   1.054
  118SOL     OW  739   1.209   0.525   0.275
  118SOL    HW1  740   1.222   0.441   0.329
  118SOL    HW2  741   1.180   0.599   0.335
  119SOL     OW  742   0.307   0.213   1.231
  119SOL    HW1  743   0.284   0.250   1.321
  119SOL    HW2  744   0.277   0.118   1.225
  120SOL     OW  745   0.037   1.310   1.282
  120SOL    HW1  746   0.090   1.261   1.350
  120SOL    HW2  747   0.059   1.408   1.287
  121SOL     OW  748   0.732   0.634   1.064
  121SOL    HW1  749   0.791   0.608   0.988
  121SOL    HW2  750   0.704   0.730   1.053
  122SOL     OW  751   1.728   0.935   1.854
  122SOL    HW1  752   1.682   0.928   1.765
  122SOL    HW2  753   1.666   0.979   1.920
  123SOL     OW  754   0.307   0.063   0.618
  123SOL    HW1  755   0.296   0.157   0.651
  123SOL    HW2  756   0.302   0.000   0.695
  124SOL     OW  757   1.622   0.367   0.374
  124SOL    HW1  758   1.624   0.291   0.438
  124SOL    HW2  759   1.574   0.444   0.414
  125SOL     OW  760   1.023   0.766   0.966
  125SOL    HW1  761   1.038   0.787   1.062
  125SOL    HW2  762   0.993   0.671   0.957
  126SOL     OW  763   0.980   1.573   1.700
  126SOL    HW1  764   0.960   1.617   1.612
  126SOL    HW2  765   1.019   1.482   1.684
  127SOL     OW  766   1.859   1.518   1.605
  127SOL    HW1  767   1.873   1.545   1.510
  127SOL    HW2  768   1.942   1.540   1.658
  128SOL     OW  769   0.350   0.898   1.804
  128SOL    HW1  770   0.426   0.942   1.852
  128SOL    HW2  771   0.385   0.851   1.722
  129SOL     OW  772   1.540   0.274   0.125
  129SOL    HW1  773   1.479   0.199   0.148
  129SOL    HW2  774   1.562   0.326   0.208
  130SOL     OW  775   1.303   0.838   0.042
  130SOL    HW1  776   1.337   0.745   0.057
  130SOL    HW2  777   1.321   0.865  -0.053
  131SOL     OW  778   1.068   1.333   0.849
  131SOL    HW1  779   1.075   1.249   0.794
  131SOL    HW2  780   1.130   1.402   0.813
  132SOL     OW  781   0.319   0.810   0.949
  132SOL    HW1  782   0.412   0.846   0.954
  132SOL    HW2  783   0.313   0.725   1.001
  133SOL     OW  784   0.339   0.509   1.006
  133SOL    HW1  785   0.287   0.426   0.989
  133SOL    HW2  786   0.416   0.514   0.942
  134SOL     OW  787   1.138   0.380   1.678
  134SOL    HW1  788   1.093   0.443   1.742
  134SOL    HW2  789   1.231   0.411   1.661
  135SOL     OW  790   1.160   0.207   1.477
  135SOL    HW1  791   1.160   0.271   1.554
  135SOL    HW2  792   1.188   0.255   1.394
  136SOL     OW  793   0.008   1.326   0.200
  136SOL    HW1  794  -0.085   1.347   0.169
  136SOL    HW2  795   0.018   1.227   0.213
  137SOL     OW  796   0.088   1.801   0.927
  137SOL    HW1  797   0.046   1.715   0.900
  137SOL    HW2  798   0.182   1.804   0.893
  138SOL     OW  799   0.504   1.568   0.910
  138SOL    HW1  800   0.570   1.642   0.919
  138SOL    HW2  801   0.548   1.489   0.868
  139SOL     OW  802   1.002   0.796   1.238
  139SOL    HW1  803   1.043   0.764   1.324
  139SOL    HW2  804   0.906   0.769   1.235
  140SOL     OW  805   0.040   0.544   1.114
  140SOL    HW1  806   0.125   0.511   1.073
  140SOL    HW2  807   0.053   0.559   1.212
  141SOL     OW  808   0.189   0.520   1.722
  141SOL    HW1  809   0.248   0.480   1.652
  141SOL    HW2  810   0.131   0.591   1.681
  142SOL     OW  811   1.369   0.950   1.660
  142SOL    HW1  812   1.408   1.039   1.680
  142SOL    HW2  813   1.379   0.930   1.563
  143SOL     OW  814   0.815   0.572   0.325
  143SOL    HW1  815   0.822   0.483   0.279
  143SOL    HW2  816   0.721   0.606   0.317
  144SOL     OW  817   1.657   0.604   1.206
  144SOL    HW1  818   1.619   0.535   1.268
  144SOL    HW2  819   1.739   0.568   1.162
  145SOL     OW  820   0.252   1.564   1.744
  145SOL    HW1  821   0.222   1.621   1.820
  145SOL    HW2  822   0.245   1.467   1.770
  146SOL     OW  823   0.671   0.464   1.269
  146SOL    HW1  824   0.637   0.375   1.239
  146SOL    HW2  825   0.697   0.518   1.189
  147SOL     OW  826   0.930   1.678   1.465
  147SOL    HW1  827   0.906   1.660   1.370
  147SOL    HW2  828   0.960   1.772   1.475
  148SOL     OW  829   0.473   0.500   0.191
  148SOL    HW1  830   0.534   0.580   0.195
  148SOL    HW2  831   0.378   0.531   0.198
  149SOL     OW  832   0.159   1.137   1.466
  149SOL    HW1  833   0.181   1.076   1.542
  149SOL    HW2  834   0.169   1.088   1.380
  150SOL     OW  835   1.347   1.059   1.234
  150SOL    HW1  836   1.371   0.996   1.160
  150SOL    HW2  837   1.257   1.099   1.216
  151SOL     OW  838   1.302   0.855   0.309
  151SOL    HW1  839   1.216   0.824   0.351
  151SOL    HW2  840   1.298   0.841   0.210
  152SOL     OW  841   1.759   1.747   1.154
  152SOL    HW1  842   1.820   1.777   1.081
  152SOL    HW2  843   1.721   1.658   1.132
  153SOL     OW  844   1.252   1.731   1.128
  153SOL    HW1  845   1.336   1.736   1.074
  153SOL    HW2  846   1.229   1.635   1.146
  154SOL     OW  847   0.083   1.258   1.022
  154SOL    HW1  848   0.078   1.257   1.122
  154SOL    HW2  849   0.000   1.217   0.984
  155SOL     OW  850   0.688   1.662   1.716
  155SOL    HW1  851   0.632   1.743   1.725
  155SOL    HW2  852   0.740   1.666   1.630
  156SOL     OW  853   0.903   0.086   0.133
  156SOL    HW1  854   0.954   0.087   0.047
  156SOL    HW2  855   0.959   0.044   0.204
  157SOL     OW  856   1.726   0.135   0.523
  157SOL    HW1  857   1.799   0.118   0.456
  157SOL    HW2  858   1.695   0.048   0.561
  158SOL     OW  859   1.388   1.573   0.477
  158SOL    HW1  860   1.455   1.585   0.403
  158SOL    HW2  861   1.348   1.662   0.500
  159SOL     OW  862   0.130   1.794   1.851
  159SOL    HW1  863   0.089   1.720   1.904
  159SOL    HW2  864   0.194   1.845   1.909
  160SOL     OW  865   1.280   0.927   0.672
  160SOL    HW1  866   1.340   0.846   0.674
  160SOL    HW2  867   1.320   0.996   0.612
  161SOL     OW  868   0.830   1.273   1.422
  161SOL    HW1  869   0.825   1.306   1.517
  161SOL    HW2  870   0.744   1.292   1.376
  162SOL     OW  871   0.672   1.616   0.154
  162SOL    HW1  872   0.681   1.626   0.055
  162SOL    HW2  873   0.632   1.527   0.175
  163SOL     OW  874   1.650   1.720   1.394
  163SOL    HW1  875   1.703   1.730   1.310
  163SOL    HW2  876   1.623   1.810   1.428
  164SOL     OW  877   1.841   0.175   0.963
  164SOL    HW1  878   1.880   0.090   0.927
  164SOL    HW2  879   1.743   0.177   0.944
  165SOL     OW  880   0.263   0.326   0.720
  165SOL    HW1  881   0.184   0.377   0.686
  165SOL    HW2  882   0.254   0.311   0.818
  166SOL     OW  883   1.194   1.612   0.031
  166SOL    HW1  884   1.200   1.519   0.068
  166SOL    HW2  885   1.135   1.612  -0.049
  167SOL     OW  886   0.822   1.002   1.372
  167SOL    HW1  887   0.862   1.001   1.280
  167SOL    HW2  888   0.832   1.094   1.412
  168SOL     OW  889   0.916   0.910   0.291
  168SOL    HW1  890   0.979   0.948   0.223
  168SOL    HW2  891   0.956   0.827   0.330
  169SOL     OW  892   1.504   1.607   0.044
  169SOL    HW1  893   1.412   1.644   0.051
  169SOL    HW2  894   1.542   1.627  -0.046
  170SOL     OW  895   0.372   1.288   1.490
  170SOL    HW1  896   0.359   1.381   1.456
  170SOL    HW2  897   0.288   1.236   1.477
  171SOL     OW  898   1.614   1.292   1.289
  171SOL    HW1  899   1.674   1.295   1.369
  171SOL    HW2  900   1.539   1.356   1.302
  172SOL     OW  901   1.039   1.098   0.696
  172SOL    HW1  902   0.969   1.051   0.750
  172SOL    HW2  903   1.098   1.030   0.653
  173SOL     OW  904   1.014   0.236   0.971
  173SOL    HW1  905   1.006   0.200   0.878
  173SOL    HW2  906   1.012   0.160   1.036
  174SOL     OW  907   0.590   1.487   0.491
  174SOL    HW1  908   0.632   1.429   0.421
  174SOL    HW2  909   0.546   1.566   0.447
  175SOL     OW  910   1.709   0.385   1.381
  175SOL    HW1  911   1.782   0.454   1.385
  175SOL    HW2  912   1.737   0.310   1.322
  176SOL     OW  913   0.255   1.348   0.290
  176SOL    HW1  914   0.159   1.349   0.263
  176SOL    HW2  915   0.267   1.401   0.374
  177SOL     OW  916   0.105   1.013   1.726
  177SOL    HW1  917   0.028   0.980   1.780
  177SOL    HW2  918   0.190   0.983   1.768
  178SOL     OW  919   0.672   0.203   1.489
  178SOL    HW1  920   0.762   0.187   1.449
  178SOL    HW2  921   0.680   0.208   1.588
  179SOL     OW  922   0.075   0.345   0.033
  179SOL    HW1  923  -0.017   0.317   0.004
  179SOL    HW2  924   0.106   0.422  -0.023
  180SOL     OW  925   1.440   0.856   1.398
  180SOL    HW1  926   1.383   0.908   1.335
  180SOL    HW2  927   1.536   0.868   1.374
  181SOL     OW  928   0.072   0.166   0.318
  181SOL    HW1  929   0.055   0.249   0.264
  181SOL    HW2  930   0.162   0.129   0.296
  182SOL     OW  931   1.183   1.335   0.119
  182SOL    HW1  932   1.084   1.324   0.121
  182SOL    HW2  933   1.217   1.350   0.212
  183SOL     OW  934   0.613   0.842   1.431
  183SOL    HW1  935   0.669   0.923   1.414
  183SOL    HW2  936   0.672   0.762   1.434
  184SOL     OW  937   1.493   1.767   0.959
  184SOL    HW1  938   1.526   1.831   0.890
  184SOL    HW2  939   1.559   1.761   1.034
  185SOL     OW  940   0.716   0.565   1.708
  185SOL    HW1  941   0.735   0.630   1.782
  185SOL    HW2  942   0.776   0.485   1.717
  186SOL     OW  943   1.450   1.220   1.633
  186SOL    HW1  944   1.441   1.210   1.732
  186SOL    HW2  945   1.546   1.213   1.607
  187SOL     OW  946   0.390   1.741   1.560
  187SOL    HW1  947   0.299   1.782   1.558
  187SOL    HW2  948   0.383   1.647   1.592
  188SOL     OW  949   1.674   0.883   1.254
  188SOL    HW1  950   1.647   0.794   1.217
  188SOL    HW2  951   1.675   0.951   1.181
  189SOL     OW  952   1.225   0.325   0.449
  189SOL    HW1  953   1.290   0.251   0.438
  189SOL    HW2  954   1.245   0.375   0.533
  190SOL     OW  955   0.594   0.745   0.652
  190SOL    HW1  956   0.644   0.830   0.633
  190SOL    HW2  957   0.506   0.747   0.604
  191SOL     OW  958   1.777   0.342   1.642
  191SOL    HW1  959   1.760   0.373   1.548
  191SOL    HW2  960   1.693   0.305   1.680
  192SOL     OW  961   1.730   0.934   1.517
  192SOL    HW1  962   1.768   1.025   1.532
  192SOL    HW2  963   1.722   0.917   1.418
  193SOL     OW  964   0.859   1.374   0.016
  193SOL    HW1  965   0.813   1.389   0.104
  193SOL    HW2  966   0.903   1.459  -0.014
  194SOL     OW  967   0.661   1.790   0.953
  194SOL    HW1  968   0.615   1.878   0.940
  194SOL    HW2  969   0.760   1.802   0.946
  195SOL     OW  970   0.859   0.956   0.861
  195SOL    HW1  971   0.913   0.887   0.909
  195SOL    HW2  972   0.827   1.025   0.927
  196SOL     OW  973   1.083   0.984   0.087
  196SOL    HW1  974   1.060   1.037   0.005
  196SOL    HW2  975   1.164   0.928   0.068
  197SOL     OW  976   1.861   1.569   0.851
  197SOL    HW1  977   1.790   1.557   0.781
  197SOL    HW2  978   1.862   1.490   0.911
  198SOL     OW  979   0.221   1.314   1.844
  198SOL    HW1  980   0.156   1.241   1.823
  198SOL    HW2  981   0.225   1.328   1.942
  199SOL     OW  982   0.079   1.240   0.653
  199SOL    HW1  983   0.078   1.193   0.741
  199SOL    HW2  984   0.161   1.212   0.602
  200SOL     OW  985   0.672   1.391   1.624
  200SOL    HW1  986   0.594   1.341   1.662
  200SOL    HW2  987   0.669   1.486   1.655
  201SOL     OW  988   1.824   0.192   1.227
  201SOL    HW1  989   1.820   0.102   1.271
  201SOL    HW2  990   1.827   0.181   1.128
  202SOL     OW  991   0.428   0.424   0.520
  202SOL    HW1  992   0.458   0.352   0.458
  202SOL    HW2  993   0.389   0.384   0.603
  203SOL     OW  994   1.705   1.487   1.104
  203SOL    HW1  995   1.612   1.462   1.077
  203SOL    HW2  996   1.731   1.437   1.186
  204SOL     OW  997   0.317   0.547   1.280
  204SOL    HW1  998   0.355   0.488   1.352
  204SOL    HW2  999   0.357   0.521   1.192
  205SOL     OW 1000   0.812   1.586   0.687
  205SOL    HW1 1001   0.844   1.596   0.593
  205SOL    HW2 1002   0.733   1.524   0.689
  206SOL     OW 1003   1.424   0.214   1.112
  206SOL    HW1 1004   1.476   0.149   1.167
  206SOL    HW2 1005   1.375   0.277   1.173
  207SOL     OW 1006   1.001   0.034   1.154
  207SOL    HW1 1007   0.938  -0.038   1.123
  207SOL    HW2 1008   1.094  -0.002   1.154
  208SOL     OW 1009   0.770   1.330   0.301
  208SOL    HW1 1010   0.724   1.243   0.318
  208SOL    HW2 1011   0.861   1.327   0.342
  209SOL     OW 1012   0.618   1.567   1.284
  209SOL    HW1 1013   0.613   1.649   1.341
  209SOL    HW2 1014   0.707   1.564   1.239
  210SOL     OW 1015   1.352   0.052   0.168
  210SOL    HW1 1016   1.387   0.011   0.084
  210SOL    HW2 1017   1.262   0.014   0.188
  211SOL     OW 1018   1.300   0.453   0.691
  211SOL    HW1 1019   1.241   0.533   0.695
  211SOL    HW2 1020   1.315   0.418   0.784
  212SOL     OW 1021   1.593   0.221   0.882
  212SOL    HW1 1022   1.509   0.220   0.936
  212SOL    HW2 1023   1.595   0.304   0.826
  213SOL     OW 1024   0.039   1.077   0.300
  213SOL    HW1 1025   0.138   1.066   0.291
  213SOL    HW2 1026  -0.001   0.991   0.332
  214SOL     OW 1027   0.875   1.646   0.337
  214SOL    HW1 1028   0.798   1.611   0.283
  214SOL    HW2 1029   0.843   1.717   0.399
  215SOL     OW 1030   0.230   0.628   1.975
  215SOL    HW1 1031   0.137   0.626   2.012
  215SOL    HW2 1032   0.231   0.589   1.883
  216SOL     OW 1033   0.225   0.275   2.858
  216SOL    HW1 1034   0.260   0.258   2.950
  216SOL    HW2 1035   0.137   0.230   2.846
  217SOL     OW 1036   0.019   0.368   2.509
  217SOL    HW1 1037  -0.063   0.411   2.548
  217SOL    HW2 1038  -0.009   0.295   2.446
  218SOL     OW 1039   0.569   1.275   3.027
  218SOL    HW1 1040   0.476   1.268   2.990
  218SOL    HW2 1041   0.580   1.364   3.071
  219SOL     OW 1042   1.555   1.511   2.565
  219SOL    HW1 1043   1.498   1.495   2.646
  219SOL    HW2 1044   1.496   1.521   2.485
  220SOL     OW 1045   1.135   0.703   2.579
  220SOL    HW1 1046   1.192   0.781   2.554
  220SOL    HW2 1047   1.075   0.729   2.655
  221SOL     OW 1048   1.755   0.607   2.093
  221SOL    HW1 1049   1.743   0.594   1.994
  221SOL    HW2 1050   1.725   0.526   2.142
  222SOL     OW 1051   0.768   1.144   2.885
  222SOL    HW1 1052   0.690   1.161   2.945
  222SOL    HW2 1053   0.802   1.231   2.849
  223SOL     OW 1054   0.850   0.798   3.685
  223SOL    HW1 1055   0.846   0.874   3.750
  223SOL    HW2 1056   0.872   0.834   3.594
  224SOL     OW 1057   0.685   1.012   2.527
  224SOL    HW1 1058   0.754   0.996   2.597
  224SOL    HW2 1059   0.612   1.069   2.565
  225SOL     OW 1060   0.686   1.161   3.665
  225SOL    HW1 1061   0.746   1.240   3.679
  225SOL    HW2 1062   0.600   1.192   3.624
  226SOL     OW 1063   0.335   1.435   2.923
  226SOL    HW1 1064   0.257   1.404   2.870
  226SOL    HW2 1065   0.393   1.493   2.866
  227SOL     OW 1066   1.460   1.505   3.201
  227SOL    HW1 1067   1.484   1.599   3.227
  227SOL    HW2 1068   1.444   1.451   3.283
  228SOL     OW 1069   0.438   0.392   3.361
  228SOL    HW1 1070   0.520   0.336   3.370
  228SOL    HW2 1071   0.357   0.334   3.365
  229SOL     OW 1072   1.603   0.447   2.599
  229SOL    HW1 1073   1.529   0.493   2.549
  229SOL    HW2 1074   1.654   0.515   2.652
  230SOL     OW 1075   0.231   1.713   2.345
  230SOL    HW1 1076   0.265   1.790   2.399
  230SOL    HW2 1077   0.275   1.713   2.255
  231SOL     OW 1078   1.127   1.341   3.552
  231SOL    HW1 1079   1.174   1.341   3.640
  231SOL    HW2 1080   1.079   1.254   3.541
  232SOL     OW 1081   0.230   1.434   2.400
  232SOL    HW1 1082   0.204   1.530   2.400
  232SOL    HW2 1083   0.159   1.380   2.445
  233SOL     OW 1084   0.240   1.091   2.748
  233SOL    HW1 1085   0.254   1.007   2.800
  233SOL    HW2 1086   0.185   1.155   2.803
  234SOL     OW 1087   0.620   1.786   3.301
  234SOL    HW1 1088   0.528   1.769   3.336
  234SOL    HW2 1089   0.648   1.878   3.327
  235SOL     OW 1090   0.606   0.964   1.985
  235SOL    HW1 1091   0.613   1.048   1.931
  235SOL    HW2 1092   0.652   0.977   2.073
  236SOL     OW 1093   1.594   0.114   3.342
  236SOL    HW1 1094   1.576   0.181   3.270
  236SOL    HW2 1095   1.591   0.160   3.431
  237SOL     OW 1096   0.122   0.643   2.425
  237SOL    HW1 1097   0.077   0.555   2.442
  237SOL    HW2 1098   0.121   0.697   2.509
  238SOL     OW 1099   1.842   1.767   2.221
  238SOL    HW1 1100   1.896   1.738   2.301
  238SOL    HW2 1101   1.872   1.857   2.192
  239SOL     OW 1102   0.027   1.596   1.979
  239SOL    HW1 1103   0.008   1.500   2.000
  239SOL    HW2 1104  -0.006   1.654   2.054
  240SOL     OW 1105   1.689   0.922   2.474
  240SOL    HW1 1106   1.784   0.893   2.482
  240SOL    HW2 1107   1.681   0.987   2.399
  241SOL     OW 1108   1.641   1.108   2.294
  241SOL    HW1 1109   1.727   1.110   2.242
  241SOL    HW2 1110   1.655   1.155   2.382
  242SOL     OW 1111   0.113   0.737   3.459
  242SOL    HW1 1112   0.201   0.724   3.504
  242SOL    HW2 1113   0.100   0.834   3.437
  243SOL     OW 1114   0.613   1.365   2.588
  243SOL    HW1 1115   0.564   1.278   2.597
  243SOL    HW2 1116   0.590   1.408   2.501
  244SOL     OW 1117   1.293   1.228   3.285
  244SOL    HW1 1118   1.330   1.155   3.227
  244SOL    HW2 1119   1.345   1.233   3.370
  245SOL     OW 1120   0.809   0.004   2.364
  245SOL    HW1 1121   0.849   0.095   2.355
  245SOL    HW2 1122   0.709   0.012   2.370
  246SOL     OW 1123   0.197   0.976   3.126
  246SOL    HW1 1124   0.286   0.931   3.112
  246SOL    HW2 1125   0.124   0.911   3.107
  247SOL     OW 1126   1.525   0.999   2.052
  247SOL    HW1 1127   1.462   0.923   2.065
  247SOL    HW2 1128   1.573   1.017   2.138
  248SOL     OW 1129   1.187   1.792   3.478
  248SOL    HW1 1130   1.211   1.852   3.402
  248SOL    HW2 1131   1.194   1.697   3.448
  249SOL     OW 1132   0.317   0.251   3.663
  249SOL    HW1 1133   0.388   0.322   3.669
  249SOL    HW2 1134   0.229   0.290   3.691
  250SOL     OW 1135   1.466   1.417   2.815
  250SOL    HW1 1136   1.407   1.423   2.895
  250SOL    HW2 1137   1.451   1.329   2.769
  251SOL     OW 1138   1.667   1.714   2.434
  251SOL    HW1 1139   1.626   1.691   2.346
  251SOL    HW2 1140   1.649   1.640   2.499
  252SOL     OW 1141   0.598   0.729   2.132
  252SOL    HW1 1142   0.622   0.798   2.064
  252SOL    HW2 1143   0.520   0.762   2.186
  253SOL     OW 1144   1.281   0.345   2.806
  253SOL    HW1 1145   1.195   0.295   2.793
  253SOL    HW2 1146   1.343   0.291   2.862
  254SOL     OW 1147   1.576   1.662   2.169
  254SOL    HW1 1148   1.665   1.708   2.172
  254SOL    HW2 1149   1.555   1.638   2.074
  255SOL     OW 1150   0.807   0.605   3.327
  255SOL    HW1 1151   0.760   0.602   3.416
  255SOL    HW2 1152   0.756   0.550   3.261
  256SOL     OW 1153   1.394   0.469   3.536
  256SOL    HW1 1154   1.374   0.512   3.624
  256SOL    HW2 1155   1.472   0.407   3.545
  257SOL     OW 1156   0.973   0.890   3.434
  257SOL    HW1 1157   1.019   0.806   3.405
  257SOL    HW2 1158   0.917   0.924   3.359
  258SOL     OW 1159   0.991   0.410   3.104
  258SOL    HW1 1160   0.914   0.444   3.158
  258SOL    HW2 1161   0.957   0.359   3.025
  259SOL     OW 1162   1.041   0.701   2.291
  259SOL    HW1 1163   1.067   0.697   2.387
  259SOL    HW2 1164   0.956   0.650   2.277
  260SOL     OW 1165   0.076   0.811   2.651
  260SOL    HW1 1166   0.175   0.799   2.660
  260SOL    HW2 1167   0.052   0.906   2.672
  261SOL     OW 1168   0.130   1.821   3.433
  261SOL    HW1 1169   0.120   1.806   3.532
  261SOL    HW2 1170   0.044   1.857   3.397
  262SOL     OW 1171   0.865   0.348   2.057
  262SOL    HW1 1172   0.924   0.411   2.008
  262SOL    HW2 1173   0.884   0.254   2.028
  263SOL     OW 1174   1.719   0.585   3.693
  263SOL    HW1 1175   1.693   0.674   3.657
  263SOL    HW2 1176   1.717   0.517   3.620
  264SOL     OW 1177   1.362   1.144   2.407
  264SOL    HW1 1178   1.445   1.115   2.359
  264SOL    HW2 1179   1.313   1.211   2.351
  265SOL     OW 1180   0.550   0.196   2.747
  265SOL    HW1 1181   0.545   0.191   2.847
  265SOL    HW2 1182   0.552   0.292   2.718
  266SOL     OW 1183   1.008   1.456   2.339
  266SOL    HW1 1184   0.962   1.528   2.287
  266SOL    HW2 1185   1.004   1.476   2.437
  267SOL     OW 1186   0.351   1.801   2.715
  267SOL    HW1 1187   0.401   1.715   2.721
  267SOL    HW2 1188   0.416   1.878   2.712
  268SOL     OW 1189   1.795   1.066   2.735
  268SOL    HW1 1190   1.733   1.051   2.659
  268SOL    HW2 1191   1.743   1.077   2.820
  269SOL     OW 1192   1.227   1.550   3.368
  269SOL    HW1 1193   1.233   1.473   3.432
  269SOL    HW2 1194   1.175   1.524   3.288
  270SOL     OW 1195   0.321   0.943   2.104
  270SOL    HW1 1196   0.403   0.982   2.062
  270SOL    HW2 1197   0.294   0.861   2.055
  271SOL     OW 1198   1.458   0.735   2.590
  271SOL    HW1 1199   1.453   0.670   2.665
  271SOL    HW2 1200   1.538   0.794   2.603
  272SOL     OW 1201   0.461   1.266   3.589
  272SOL    HW1 1202   0.411   1.267   3.503
  272SOL    HW2 1203   0.398   1.248   3.665
  273SOL     OW 1204   1.111   1.776   2.099
  273SOL    HW1 1205   1.051   1.714   2.149
  273SOL    HW2 1206   1.142   1.732   2.014
  274SOL     OW 1207   0.202   0.285   3.360
  274SOL    HW1 1208   0.122   0.345   3.347
  274SOL    HW2 1209   0.192   0.236   3.446
  275SOL     OW 1210   1.632   1.377   1.943
  275SOL    HW1 1211   1.600   1.471   1.933
  275SOL    HW2 1212   1.556   1.314   1.931
  276SOL     OW 1213   0.464   1.743   2.185
  276SOL    HW1 1214   0.497   1.782   2.271
  276SOL    HW2 1215   0.540   1.736   2.120
  277SOL     OW 1216   1.400   0.107   2.288
  277SOL    HW1 1217   1.376   0.070   2.198
  277SOL    HW2 1218   1.499   0.123   2.292
  278SOL     OW 1219   0.249   1.785   3.103
  278SOL    HW1 1220   0.306   1.720   3.153
  278SOL    HW2 1221   0.233   1.752   3.010
  279SOL     OW 1222   0.940   1.698   2.766
  279SOL    HW1 1223   1.020   1.641   2.787
  279SOL    HW2 1224   0.891   1.658   2.689
  280SOL     OW 1225   0.382   0.700   2.342
  280SOL    HW1 1226   0.427   0.610   2.339
  280SOL    HW2 1227   0.288   0.689   2.375
  281SOL     OW 1228   1.547   0.222   3.591
  281SOL    HW1 1229   1.542   0.259   3.683
  281SOL    HW2 1230   1.475   0.153   3.579
  282SOL     OW 1231   0.614   0.122   1.979
  282SOL    HW1 1232   0.712   0.100   1.986
  282SOL    HW2 1233   0.583   0.105   1.886
  283SOL     OW 1234   0.781   0.264   3.611
  283SOL    HW1 1235   0.848   0.203   3.654
  283SOL    HW2 1236   0.708   0.283   3.676
  284SOL     OW 1237   0.888   1.514   3.057
  284SOL    HW1 1238   0.865   1.489   2.963
  284SOL    HW2 1239   0.949   1.445   3.096
  285SOL     OW 1240   1.351   0.590   3.295
  285SOL    HW1 1241   1.379   0.547   3.380
  285SOL    HW2 1242   1.376   0.686   3.296
  286SOL     OW 1243   0.803   1.402   2.786
  286SOL    HW1 1244   0.893   1.416   2.744
  286SOL    HW2 1245   0.732   1.404   2.715
  287SOL     OW 1246   0.922   0.503   2.761
  287SOL    HW1 1247   0.897   0.494   2.665
  287SOL    HW2 1248   0.970   0.421   2.792
  288SOL     OW 1249   0.539   0.064   2.374
  288SOL    HW1 1250   0.458   0.065   2.432
  288SOL    HW2 1251   0.542   0.147   2.319
  289SOL     OW 1252   1.434   1.188   1.903
  289SOL    HW1 1253   1.466   1.112   1.960
  289SOL    HW2 1254   1.342   1.215   1.933
  290SOL     OW 1255   0.297   0.035   2.033
  290SOL    HW1 1256   0.346   0.119   2.012
  290SOL    HW2 1257   0.359  -0.030   2.078
  291SOL     OW 1258   0.935   0.236   2.342
  291SOL    HW1 1259   0.887   0.277   2.264
  291SOL    HW2 1260   1.034   0.234   2.323
  292SOL     OW 1261   1.076   0.683   3.326
  292SOL    HW1 1262   0.996   0.622   3.329
  292SOL    HW2 1263   1.157   0.630   3.302
  293SOL     OW 1264   1.227   1.570   2.655
  293SOL    HW1 1265   1.248   1.644   2.590
  293SOL    HW2 1266   1.295   1.570   2.728
  294SOL     OW 1267   0.459   1.152   2.603
  294SOL    HW1 1268   0.388   1.125   2.668
  294SOL    HW2 1269   0.433   1.124   2.510
  295SOL     OW 1270   1.271   1.797   2.453
  295SOL    HW1 1271   1.315   1.861   2.389
  295SOL    HW2 1272   1.221   1.849   2.523
  296SOL     OW 1273   1.032   0.549   1.878
  296SOL    HW1 1274   0.991   0.631   1.839
  296SOL    HW2 1275   1.096   0.575   1.951
  297SOL     OW 1276   0.078   0.556   3.248
  297SOL    HW1 1277   0.170   0.555   3.207
  297SOL    HW2 1278   0.072   0.630   3.315
  298SOL     OW 1279   0.561   0.222   3.009
  298SOL    HW1 1280   0.599   0.138   3.046
  298SOL    HW2 1281   0.473   0.241   3.053
  299SOL     OW 1282   0.866   0.454   2.504
  299SOL    HW1 1283   0.834   0.526   2.442
  299SOL    HW2 1284   0.890   0.373   2.451
  300SOL     OW 1285   1.017   0.039   2.615
  300SOL    HW1 1286   0.945   0.044   2.546
  300SOL    HW2 1287   0.993  -0.030   2.684
  301SOL     OW 1288   1.429   1.173   2.729
  301SOL    HW1 1289   1.374   1.089   2.722
  301SOL    HW2 1290   1.455   1.202   2.637
  302SOL     OW 1291   1.466   0.590   2.854
  302SOL    HW1 1292   1.436   0.495   2.861
  302SOL    HW2 1293   1.539   0.606   2.920
  303SOL     OW 1294   1.857   0.833   2.239
  303SOL    HW1 1295   1.899   0.769   2.303
  303SOL    HW2 1296   1.819   0.782   2.161
  304SOL     OW 1297   0.488   1.385   2.036
  304SOL    HW1 1298   0.401   1.370   2.083
  304SOL    HW2 1299   0.471   1.411   1.941
  305SOL     OW 1300   1.664   1.280   2.519
  305SOL    HW1 1301   1.763   1.288   2.533
  305SOL    HW2 1302   1.619   1.364   2.550
  306SOL     OW 1303   1.390   0.575   1.940
  306SOL    HW1 1304   1.336   0.554   2.021
  306SOL    HW2 1305   1.481   0.534   1.949
  307SOL     OW 1306   0.527   0.256   2.190
  307SOL    HW1 1307   0.554   0.197   2.115
  307SOL    HW2 1308   0.527   0.351   2.159
  308SOL     OW 1309   1.754   1.223   3.450
  308SOL    HW1 1310   1.845   1.184   3.437
  308SOL    HW2 1311   1.762   1.319   3.474
  309SOL     OW 1312   1.064   1.347   3.202
  309SOL    HW1 1313   0.984   1.324   3.257
  309SOL    HW2 1314   1.147   1.321   3.251
  310SOL     OW 1315   1.592   1.629   3.487
  310SOL    HW1 1316   1.619   1.663   3.397
  310SOL    HW2 1317   1.671   1.591   3.533
  311SOL     OW 1318   1.111   1.195   2.962
  311SOL    HW1 1319   1.071   1.239   3.043
  311SOL    HW2 1320   1.070   1.232   2.879
  312SOL     OW 1321   1.638   1.099   2.941
  312SOL    HW1 1322   1.643   1.180   3.000
  312SOL    HW2 1323   1.552   1.101   2.890
  313SOL     OW 1324   0.915   0.089   3.264
  313SOL    HW1 1325   0.940   0.069   3.169
  313SOL    HW2 1326   0.987   0.145   3.306
  314SOL     OW 1327   0.980   1.116   3.581
  314SOL    HW1 1328   0.881   1.122   3.591
  314SOL    HW2 1329   1.003   1.036   3.525
  315SOL     OW 1330   0.705   1.050   2.230
  315SOL    HW1 1331   0.691   1.057   2.329
  315SOL    HW2 1332   0.789   0.999   2.212
  316SOL     OW 1333   0.410   0.813   3.113
  316SOL    HW1 1334   0.496   0.825   3.163
  316SOL    HW2 1335   0.368   0.726   3.140
  317SOL     OW 1336   1.274   0.386   3.124
  317SOL    HW1 1337   1.295   0.460   3.188
  317SOL    HW2 1338   1.185   0.403   3.081
  318SOL     OW 1339   0.064   1.564   3.193
  318SOL    HW1 1340   0.018   1.646   3.159
  318SOL    HW2 1341   0.162   1.583   3.202
  319SOL     OW 1342   0.367   1.100   2.363
  319SOL    HW1 1343   0.360   1.183   2.307
  319SOL    HW2 1344   0.371   1.020   2.303
  320SOL     OW 1345   0.566   0.537   2.727
  320SOL    HW1 1346   0.578   0.603   2.653
  320SOL    HW2 1347   0.612   0.571   2.810
  321SOL     OW 1348   1.252   1.348   2.250
  321SOL    HW1 1349   1.302   1.425   2.290
  321SOL    HW2 1350   1.157   1.350   2.282
  322SOL     OW 1351   1.272   1.445   3.004
  322SOL    HW1 1352   1.319   1.458   3.091
  322SOL    HW2 1353   1.206   1.371   3.013
  323SOL     OW 1354   1.582   0.639   2.334
  323SOL    HW1 1355   1.551   0.700   2.407
  323SOL    HW2 1356   1.632   0.691   2.265
  324SOL     OW 1357   0.354   1.510   3.191
  324SOL    HW1 1358   0.333   1.466   3.104
  324SOL    HW2 1359   0.451   1.536   3.194
  325SOL     OW 1360   0.402   0.751   3.460
  325SOL    HW1 1361   0.470   0.806   3.413
  325SOL    HW2 1362   0.442   0.663   3.487
  326SOL     OW 1363   1.587   0.779   3.532
  326SOL    HW1 1364   1.495   0.817   3.527
  326SOL    HW2 1365   1.647   0.826   3.467
  327SOL     OW 1366   1.013   0.105   3.632
  327SOL    HW1 1367   1.019   0.190   3.580
  327SOL    HW2 1368   1.045   0.029   3.575
  328SOL     OW 1369   0.504   0.050   3.602
  328SOL    HW1 1370   0.462  -0.007   3.532
  328SOL    HW2 1371   0.438   0.119   3.634
  329SOL     OW 1372   0.573   0.870   2.891
  329SOL    HW1 1373   0.617   0.959   2.882
  329SOL    HW2 1374   0.510   0.870   2.968
  330SOL     OW 1375   1.360   0.862   2.907
  330SOL    HW1 1376   1.285   0.862   2.841
  330SOL    HW2 1377   1.397   0.770   2.916
  331SOL     OW 1378   1.209   0.525   2.137
  331SOL    HW1 1379   1.222   0.441   2.191
  331SOL    HW2 1380   1.180   0.599   2.197
  332SOL     OW 1381   0.307   0.213   3.093
  332SOL    HW1 1382   0.284   0.250   3.183
  332SOL    HW2 1383   0.277   0.118   3.087
  333SOL     OW 1384   0.037   1.310   3.144
  333SOL    HW1 1385   0.090   1.261   3.212
  333SOL    HW2 1386   0.059   1.408   3.149
  334SOL     OW 1387   0.732   0.634   2.926
  334SOL    HW1 1388   0.791   0.608   2.850
  334SOL    HW2 1389   0.704   0.730   2.915
  335SOL     OW 1390   1.728   0.935   3.716
  335SOL    HW1 1391   1.682   0.928   3.627
  335SOL    HW2 1392   1.666   0.979   3.782
  336SOL     OW 1393   0.307   0.063   2.480
  336SOL    HW1 1394   0.296   0.157   2.513
  336SOL    HW2 1395   0.302   0.000   2.557
  337SOL     OW 1396   1.622   0.367   2.236
  337SOL    HW1 1397   1.624   0.291   2.300
  337SOL    HW2 1398   1.574   0.444   2.276
  338SOL     OW 1399   1.023   0.766   2.828
  338SOL    HW1 1400   1.038   0.787   2.924
  338SOL    HW2 1401   0.993   0.671   2.819
  339SOL     OW 1402   0.980   1.573   3.562
  339SOL    HW1 1403   0.960   1.617   3.474
  339SOL    HW2 1404   1.019   1.482   3.546
  340SOL     OW 1405   1.859   1.518   3.467
  340SOL    HW1 1406   1.873   1.545   3.372
  340SOL    HW2 1407   1.942   1.540   3.520
  341SOL     OW 1408   0.350   0.898   3.666
  341SOL    HW1 1409   0.426   0.942   3.714
  341SOL    HW2 1410   0.385   0.851   3.584
  342SOL     OW 1411   1.540   0.274   1.987
  342SOL    HW1 1412   1.479   0.199   2.010
  342SOL    HW2 1413   1.562   0.326   2.070
  343SOL     OW 1414   1.303   0.838   1.904
  343SOL    HW1 1415   1.337   0.745   1.919
  343SOL    HW2 1416   1.321   0.865   1.809
  344SOL     OW 1417   1.068   1.333   2.711
  344SOL    HW1 1418   1.075   1.249   2.656
  344SOL    HW2 1419   1.130   1.402   2.675
  345SOL     OW 1420   0.319   0.810   2.811
  345SOL    HW1 1421   0.412   0.846   2.816
  345SOL    HW2 1422   0.313   0.725   2.863
  346SOL     OW 1423   0.339   0.509   2.868
  346SOL    HW1 1424   0.287   0.426   2.851
  346SOL    HW2 1425   0.416   0.514   2.804
  347SOL     OW 1426   1.138   0.380   3.540
  347SOL    HW1 1427   1.093   0.443   3.604
  347SOL    HW2 1428   1.231   0.411   3.523
  348SOL     OW 1429   1.160   0.207   3.339
  348SOL    HW1 1430   1.160   0.271   3.416
  348SOL    HW2 1431   1.188   0.255   3.256
  349SOL     OW 1432   0.008   1.326   2.062
  349SOL    HW1 1433  -0.085   1.347   2.031
  349SOL    HW2 1434   0.018   1.227   2.075
  350SOL     OW 1435   0.088   1.801   2.789
  350SOL    HW1 1436   0.046   1.715   2.762
  350SOL    HW2 1437   0.182   1.804   2.755
  351SOL     OW 1438   0.504   1.568   2.772
  351SOL    HW1 1439   0.570   1.642   2.781
  351SOL    HW2 1440   0.548   1.489   2.730
  352SOL     OW 1441   1.002   0.796   3.100
  352SOL    HW1 1442   1.043   0.764   3.186
  352SOL    HW2 1443   0.906   0.769   3.097
  353SOL     OW 1444   0.040   0.544   2.976
  353SOL    HW1 1445   0.125   0.511   2.935
  353SOL    HW2 1446   0.053   0.559   3.074
  354SOL     OW 1447   0.189   0.520   3.584
  354SOL    HW1 1448   0.248   0.480   3.514
  354SOL    HW2 1449   0.131   0.591   3.543
  355SOL     OW 1450   1.369   0.950   3.522
  355SOL    HW1 1451   1.408   1.039   3.542
  355SOL    HW2 1452   1.379   0.930   3.425
  356SOL     OW 1453   0.815   0.572   2.187
  356SOL    HW1 1454   0.822   0.483   2.141
  356SOL    HW2 1455   0.721   0.606   2.179
  357SOL     OW 1456   1.657   0.604   3.068
  357SOL    HW1 1457   1.619   0.535   3.130
  357SOL    HW2 1458   1.739   0.568   3.024
  358SOL     OW 1459   0.252   1.564   3.606
  358SOL    HW1 1460   0.222   1.621   3.682
  358SOL    HW2 1461   0.245   1.467   3.632
  359SOL     OW 1462   0.671   0.464   3.131
  359SOL    HW1 1463   0.637   0.375   3.101
  359SOL    HW2 1464   0.697   0.518   3.051
  360SOL     OW 1465   0.930   1.678   3.327
  360SOL    HW1 1466   0.906   1.660   3.232
  360SOL    HW2 1467   0.960   1.772   3.337
  361SOL     OW 1468   0.473   0.500   2.053
  361SOL    HW1 1469   0.534   0.580   2.057
  361SOL    HW2 1470   0.378   0.531   2.060
  362SOL     OW 1471   0.159   1.137   3.328
  362SOL    HW1 1472   0.181   1.076   3.404
  362SOL    HW2 1473   0.169   1.088   3.242
  363SOL     OW 1474   1.347   1.059   3.096
  363SOL    HW1 1475   1.371   0.996   3.022
  363SOL    HW2 1476   1.257   1.099   3.078
  364SOL     OW 1477   1.302   0.855   2.171
  364SOL    HW1 1478   1.216   0.824   2.213
  364SOL    HW2 1479   1.298   0.841   2.072
  365SOL     OW 1480   1.759   1.747   3.016
  365SOL    HW1 1481   1.820   1.777   2.943
  365SOL    HW2 1482   1.721   1.658   2.994
  366SOL     OW 1483   1.252   1.731   2.990
  366SOL    HW1 1484   1.336   1.736   2.936
  366SOL    HW2 1485   1.229   1.635   3.008
  367SOL     OW 1486   0.083   1.258   2.884
  367SOL    HW1 1487   0.078   1.257   2.984
  367SOL    HW2 1488   0.000   1.217   2.846
  368SOL     OW 1489   0.688   1.662   3.578
  368SOL    HW1 1490   0.632   1.743   3.587
  368SOL    HW2 1491   0.740   1.666   3.492
  369SOL     OW 1492   1.726   0.135   2.385
  369SOL    HW1 1493   1.799   0.118   2.318
  369SOL    HW2 1494   1.695   0.048   2.423
  370SOL     OW 1495   1.388   1.573   2.339
  370SOL    HW1 1496   1.455   1.585   2.265
  370SOL    HW2 1497   1.348   1.662   2.362
  371SOL     OW 1498   0.130   1.794   3.713
  371SOL    HW1 1499   0.089   1.720   3.766
  371SOL    HW2 1500   0.194   1.845   3.771
  372SOL     OW 1501   1.280   0.927   2.534
  372SOL    HW1 1502   1.340   0.846   2.536
  372SOL    HW2 1503   1.320   0.996   2.474
  373SOL     OW 1504   0.830   1.273   3.284
  373SOL    HW1 1505   0.825   1.306   3.379
  373SOL    HW2 1506   0.744   1.292   3.238
  374SOL     OW 1507   0.672   1.616   2.016
  374SOL    HW1 1508   0.681   1.626   1.917
  374SOL    HW2 1509   0.632   1.527   2.037
  375SOL     OW 1510   1.650   1.720   3.256
  375SOL    HW1 1511   1.703   1.730   3.172
  375SOL    HW2 1512   1.623   1.810   3.290
  376SOL     OW 1513   1.841   0.175   2.825
  376SOL    HW1 1514   1.880   0.090   2.789
  376SOL    HW2 1515   1.743   0.177   2.806
  377SOL     OW 1516   0.263   0.326   2.582
  377SOL    HW1 1517   0.184   0.377   2.548
  377SOL    HW2 1518   0.254   0.311   2.680
  378SOL     OW 1519   1.194   1.612   1.893
  378SOL    HW1 1520   1.200   1.519   1.930
  378SOL    HW2 1521   1.135   1.612   1.813
  379SOL     OW 1522   0.822   1.002   3.234
  379SOL    HW1 1523   0.862   1.001   3.142
  379SOL    HW2 1524   0.832   1.094   3.274
  380SOL     OW 1525   0.916   0.910   2.153
  380SOL    HW1 1526   0.979   0.948   2.085
  380SOL    HW2 1527   0.956   0.827   2.192
  381SOL     OW 1528   1.504   1.607   1.906
  381SOL    HW1 1529   1.412   1.644   1.913
  381SOL    HW2 1530   1.542   1.627   1.816
  382SOL     OW 1531   0.372   1.288   3.352
  382SOL    HW1 1532   0.359   1.381   3.318
  382SOL    HW2 1533   0.288   1.236   3.339
  383SOL     OW 1534   1.614   1.292   3.151
  383SOL    HW1 1535   1.674   1.295   3.231
  383SOL    HW2 1536   1.539   1.356   3.164
  384SOL     OW 1537   1.039   1.098   2.558
  384SOL    HW1 1538   0.969   1.051   2.612
  384SOL    HW2 1539   1.098   1.030   2.515
  385SOL     OW 1540   1.014   0.236   2.833
  385SOL    HW1 1541   1.006   0.200   2.740
  385SOL    HW2 1542   1.012   0.160   2.898
  386SOL     OW 1543   0.590   1.487   2.353
  386SOL    HW1 1544   0.632   1.429   2.283
  386SOL    HW2 1545   0.546   1.566   2.309
  387SOL     OW 1546   1.709   0.385   3.243
  387SOL    HW1 1547   1.782   0.454   3.247
  387SOL    HW2 1548   1.737   0.310   3.184
  388SOL     OW 1549   0.255   1.348   2.152
  388SOL    HW1 1550   0.159   1.349   2.125
  388SOL    HW2 1551   0.267   1.401   2.236
  389SOL     OW 1552   0.105   1.013   3.588
  389SOL    HW1 1553   0.028   0.980   3.642
  389SOL    HW2 1554   0.190   0.983   3.630
  390SOL     OW 1555   0.672   0.203   3.351
  390SOL    HW1 1556   0.762   0.187   3.311
  390SOL    HW2 1557   0.680   0.208   3.450
  391SOL     OW 1558   0.075   0.345   1.895
  391SOL    HW1 1559  -0.017   0.317   1.866
  391SOL    HW2 1560   0.106   0.422   1.839
  392SOL     OW 1561   1.440   0.856   3.260
  392SOL    HW1 1562   1.383   0.908   3.197
  392SOL    HW2 1563   1.536   0.868   3.236
  393SOL     OW 1564   0.072   0.166   2.180
  393SOL    HW1 1565   0.055   0.249   2.126
  393SOL    HW2 1566   0.162   0.129   2.158
  394SOL     OW 1567   1.183   1.335   1.981
  394SOL    HW1 1568   1.084   1.324   1.983
  394SOL    HW2 1569   1.217   1.350   2.074
  395SOL     OW 1570   0.613   0.842   3.293
  395SOL    HW1 1571   0.669   0.923   3.276
  395SOL    HW2 1572   0.672   0.762   3.296
  396SOL     OW 1573   1.493   1.767   2.821
  396SOL    HW1 1574   1.526   1.831   2.752
  396SOL    HW2 1575   1.559   1.761   2.896
  397SOL     OW 1576   0.716   0.565   3.570
  397SOL    HW1 1577   0.735   0.630   3.644
  397SOL    HW2 1578   0.776   0.485   3.579
  398SOL     OW 1579   1.450   1.220   3.495
  398SOL    HW1 1580   1.441   1.210   3.594
  398SOL    HW2 1581   1.546   1.213   3.469
  399SOL     OW 1582   0.390   1.741   3.422
  399SOL    HW1 1583   0.299   1.782   3.420
  399SOL    HW2 1584   0.383   1.647   3.454
  400SOL     OW 1585   1.674   0.883   3.116
  400SOL    HW1 1586   1.647   0.794   3.079
  400SOL    HW2 1587   1.675   0.951   3.043
  401SOL     OW 1588   1.225   0.325   2.311
  401SOL    HW1 1589   1.290   0.251   2.300
  401SOL    HW2 1590   1.245   0.375   2.395
  402SOL     OW 1591   0.594   0.745   2.514
  402SOL    HW1 1592   0.644   0.830   2.495
  402SOL    HW2 1593   0.506   0.747   2.466
  403SOL     OW 1594   1.777   0.342   3.504
  403SOL    HW1 1595   1.760   0.373   3.410
  403SOL    HW2 1596   1.693   0.305   3.542
  404SOL     OW 1597   1.730   0.934   3.379
  404SOL    HW1 1598   1.768   1.025   3.394
  404SOL    HW2 1599   1.722   0.917   3.280
  405SOL     OW 1600   0.859   1.374   1.878
  405SOL    HW1 1601   0.813   1.389   1.966
  405SOL    HW2 1602   0.903   1.459   1.848
  406SOL     OW 1603   0.661   1.790   2.815
  406SOL    HW1 1604   0.615   1.878   2.802
  406SOL    HW2 1605   0.760   1.802   2.808
  407SOL     OW 1606   0.859   0.956   2.723
  407SOL    HW1 1607   0.913   0.887   2.771
  407SOL    HW2 1608   0.827   1.025   2.789
  408SOL     OW 1609   1.083   0.984   1.949
  408SOL    HW1 1610   1.060   1.037   1.867
  408SOL    HW2 1611   1.164   0.928   1.930
  409SOL     OW 1612   1.861   1.569   2.713
  409SOL    HW1 1613   1.790   1.557   2.643
  409SOL    HW2 1614   1.862   1.490   2.773
  410SOL     OW 1615   0.221   1.314   3.706
  410SOL    HW1 1616   0.156   1.241   3.685
  410SOL    HW2 1617   0.225   1.328   3.804
  411SOL     OW 1618   0.079   1.240   2.515
  411SOL    HW1 1619   0.078   1.193   2.603
  411SOL    HW2 1620   0.161   1.212   2.464
  412SOL     OW 1621   0.672   1.391   3.486
  412SOL    HW1 1622   0.594   1.341   3.524
  412SOL    HW2 1623   0.669   1.486   3.517
  413SOL     OW 1624   1.824   0.192   3.089
  413SOL    HW1 1625   1.820   0.102   3.133
  413SOL    HW2 1626   1.827   0.181   2.990
  414SOL     OW 1627   0.428   0.424   2.382
  414SOL    HW1 1628   0.458   0.352   2.320
  414SOL    HW2 1629   0.389   0.384   2.465
  415SOL     OW 1630   1.705   1.487   2.966
  415SOL    HW1 1631   1.612   1.462   2.939
  415SOL    HW2 1632   1.731   1.437   3.048
  416SOL     OW 1633   0.317   0.547   3.142
  416SOL    HW1 1634   0.355   0.488   3.214
  416SOL    HW2 1635   0.357   0.521   3.054
  417SOL     OW 1636   0.812   1.586   2.549
  417SOL    HW1 1637   0.844   1.596   2.455
  417SOL    HW2 1638   0.733   1.524   2.551
  418SOL     OW 1639   1.424   0.214   2.974
  418SOL    HW1 1640   1.476   0.149   3.029
  418SOL    HW2 1641   1.375   0.277   3.035
  419SOL     OW 1642   1.001   0.034   3.016
  419SOL    HW1 1643   0.938  -0.038   2.985
  419SOL    HW2 1644   1.094  -0.002   3.016
  420SOL     OW 1645   0.770   1.330   2.163
  420SOL    HW1 1646   0.724   1.243   2.180
  420SOL    HW2 1647   0.861   1.327   2.204
  421SOL     OW 1648   0.618   1.567   3.146
  421SOL    HW1 1649   0.613   1.649   3.203
  421SOL    HW2 1650   0.707   1.564   3.101
  422SOL     OW 1651   1.352   0.052   2.030
  422SOL    HW1 1652   1.387   0.011   1.946
  422SOL    HW2 1653   1.262   0.014   2.050
  423SOL     OW 1654   1.300   0.453   2.553
  423SOL    HW1 1655   1.241   0.533   2.557
  423SOL    HW2 1656   1.315   0.418   2.646
  424SOL     OW 1657   1.593   0.221   2.744
  424SOL    HW1 1658   1.509   0.220   2.798
  424SOL    HW2 1659   1.595   0.304   2.688
  425SOL     OW 1660   0.039   1.077   2.162
  425SOL    HW1 1661   0.138   1.066   2.153
  425SOL    HW2 1662  -0.001   0.991   2.194
  426SOL     OW 1663   0.875   1.646   2.199
  426SOL    HW1 1664   0.798   1.611   2.145
  426SOL    HW2 1665   0.843   1.717   2.261
  427SOL     OW 1666   0.230   0.628   3.837
  427SOL    HW1 1667   0.137   0.626   3.874
  427SOL    HW2 1668   0.231   0.589   3.745
  428SOL     OW 1669   0.225   0.275   4.720
  428SOL    HW1 1670   0.260   0.258   4.812
  428SOL    HW2 1671   0.137   0.230   4.708
  429SOL     OW 1672   0.019   0.368   4.371
  429SOL    HW1 1673  -0.063   0.411   4.410
  429SOL    HW2 1674  -0.009   0.295   4.308
  430SOL     OW 1675   0.569   1.275   4.889
  430SOL    HW1 1676   0.476   1.268   4.852
  430SOL    HW2 1677   0.580   1.364   4.933
  431SOL     OW 1678   1.555   1.511   4.427
  431SOL    HW1 1679   1.498   1.495   4.508
  431SOL    HW2 1680   1.496   1.521   4.347
  432SOL     OW 1681   1.135   0.703   4.441
  432SOL    HW1 1682   1.192   0.781   4.416
  432SOL    HW2 1683   1.075   0.729   4.517
  433SOL     OW 1684   1.755   0.607   3.955
  433SOL    HW1 1685   1.743   0.594   3.856
  433SOL    HW2 1686   1.725   0.526   4.004
  434SOL     OW 1687   0.768   1.144   4.747
  434SOL    HW1 1688   0.690   1.161   4.807
  434SOL    HW2 1689   0.802   1.231   4.711
  435SOL     OW 1690   0.850   0.798   5.547
  435SOL    HW1 1691   0.846   0.874   5.612
  435SOL    HW2 1692   0.872   0.834   5.456
  436SOL     OW 1693   0.685   1.012   4.389
  436SOL    HW1 1694   0.754   0.996   4.459
  436SOL    HW2 1695   0.612   1.069   4.427
  437SOL     OW 1696   0.686   1.161   5.527
  437SOL    HW1 1697   0.746   1.240   5.541
  437SOL    HW2 1698   0.600   1.192   5.486
  438SOL     OW 1699   0.335   1.435   4.785
  438SOL    HW1 1700   0.257   1.404   4.732
  438SOL    HW2 1701   0.393   1.493   4.728
  439SOL     OW 1702   1.460   1.505   5.063
  439SOL    HW1 1703   1.484   1.599   5.089
  439SOL    HW2 1704   1.444   1.451   5.145
  440SOL     OW 1705   0.438   0.392   5.223
  440SOL    HW1 1706   0.520   0.336   5.232
  440SOL    HW2 1707   0.357   0.334   5.227
  441SOL     OW 1708   1.603   0.447   4.461
  441SOL    HW1 1709   1.529   0.493   4.411
  441SOL    HW2 1710   1.654   0.515   4.514
  442SOL     OW 1711   0.231   1.713   4.207
  442SOL    HW1 1712   0.265   1.790   4.261
  442SOL    HW2 1713   0.275   1.713   4.117
  443SOL     OW 1714   1.127   1.341   5.414
  443SOL    HW1 1715   1.174   1.341   5.502
  443SOL    HW2 1716   1.079   1.254   5.403
  444SOL     OW 1717   0.230   1.434   4.262
  444SOL    HW1 1718   0.204   1.530   4.262
  444SOL    HW2 1719   0.159   1.380   4.307
  445SOL     OW 1720   0.240   1.091   4.610
  445SOL    HW1 1721   0.254   1.007   4.662
  445SOL    HW2 1722   0.185   1.155   4.665
  446SOL     OW 1723   0.620   1.786   5.163
  446SOL    HW1 1724   0.528   1.769   5.198
  446SOL    HW2 1725   0.648   1.878   5.189
  447SOL     OW 1726   0.606   0.964   3.847
  447SOL    HW1 1727   0.613   1.048   3.793
  447SOL    HW2 1728   0.652   0.977   3.935
  448SOL     OW 1729   1.594   0.114   5.204
  448SOL    HW1 1730   1.576   0.181   5.132
  448SOL    HW2 1731   1.591   0.160   5.293
  449SOL     OW 1732   0.122   0.643   4.287
  449SOL    HW1 1733   0.077   0.555   4.304
  449SOL    HW2 1734   0.121   0.697   4.371
  450SOL     OW 1735   1.842   1.767   4.083
  450SOL    HW1 1736   1.896   1.738   4.163
  450SOL    HW2 1737   1.872   1.857   4.054
  451SOL     OW 1738   0.027   1.596   3.841
  451SOL    HW1 1739   0.008   1.500   3.862
  451SOL    HW2 1740  -0.006   1.654   3.916
  452SOL     OW 1741   1.689   0.922   4.336
  452SOL    HW1 1742   1.784   0.893   4.344
  452SOL    HW2 1743   1.681   0.987   4.261
  453SOL     OW 1744   1.641   1.108   4.156
  453SOL    HW1 1745   1.727   1.110   4.104
  453SOL    HW2 1746   1.655   1.155   4.244
  454SOL     OW 1747   0.113   0.737   5.321
  454SOL    HW1 1748   0.201   0.724   5.366
  454SOL    HW2 1749   0.100   0.834   5.299
  455SOL     OW 1750   0.613   1.365   4.450
  455SOL    HW1 1751   0.564   1.278   4.459
  455SOL    HW2 1752   0.590   1.408   4.363
  456SOL     OW 1753   1.293   1.228   5.147
  456SOL    HW1 1754   1.330   1.155   5.089
  456SOL    HW2 1755   1.345   1.233   5.232
  457SOL     OW 1756   0.809   0.004   4.226
  457SOL    HW1 1757   0.849   0.095   4.217
  457SOL    HW2 1758   0.709   0.012   4.232
  458SOL     OW 1759   0.197   0.976   4.988
  458SOL    HW1 1760   0.286   0.931   4.974
  458SOL    HW2 1761   0.124   0.911   4.969
  459SOL     OW 1762   1.525   0.999   3.914
  459SOL    HW1 1763   1.462   0.923   3.927
  459SOL    HW2 1764   1.573   1.017   4.000
  460SOL     OW 1765   1.187   1.792   5.340
  460SOL    HW1 1766   1.211   1.852   5.264
  460SOL    HW2 1767   1.194   1.697   5.310
  461SOL     OW 1768   0.317   0.251   5.525
  461SOL    HW1 1769   0.388   0.322   5.531
  461SOL    HW2 1770   0.229   0.290   5.553
  462SOL     OW 1771   1.466   1.417   4.677
  462SOL    HW1 1772   1.407   1.423   4.757
  462SOL    HW2 1773   1.451   1.329   4.631
  463SOL     OW 1774   1.667   1.714   4.296
  463SOL    HW1 1775   1.626   1.691   4.208
  463SOL    HW2 1776   1.649   1.640   4.361
  464SOL     OW 1777   0.598   0.729   3.994
  464SOL    HW1 1778   0.622   0.798   3.926
  464SOL    HW2 1779   0.520   0.762   4.048
  465SOL     OW 1780   1.281   0.345   4.668
  465SOL    HW1 1781   1.195   0.295   4.655
  465SOL    HW2 1782   1.343   0.291   4.724
  466SOL     OW 1783   1.576   1.662   4.031
  466SOL    HW1 1784   1.665   1.708   4.034
  466SOL    HW2 1785   1.555   1.638   3.936
  467SOL     OW 1786   0.807   0.605   5.189
  467SOL    HW1 1787   0.760   0.602   5.278
  467SOL    HW2 1788   0.756   0.550   5.123
  468SOL     OW 1789   1.394   0.469   5.398
  468SOL    HW1 1790   1.374   0.512   5.486
  468SOL    HW2 1791   1.472   0.407   5.407
  469SOL     OW 1792   0.973   0.890   5.296
  469SOL    HW1 1793   1.019   0.806   5.267
  469SOL    HW2 1794   0.917   0.924   5.221
  470SOL     OW 1795   0.991   0.410   4.966
  470SOL    HW1 1796   0.914   0.444   5.020
  470SOL    HW2 1797   0.957   0.359   4.887
  471SOL     OW 1798   1.041   0.701   4.153
  471SOL    HW1 1799   1.067   0.697   4.249
  471SOL    HW2 1800   0.956   0.650   4.139
  472SOL     OW 1801   0.076   0.811   4.513
  472SOL    HW1 1802   0.175   0.799   4.522
  472SOL    HW2 1803   0.052   0.906   4.534
  473SOL     OW 1804   0.130   1.821   5.295
  473SOL    HW1 1805   0.120   1.806   5.394
  473SOL    HW2 1806   0.044   1.857   5.259
  474SOL     OW 1807   0.865   0.348   3.919
  474SOL    HW1 1808   0.924   0.411   3.870
  474SOL    HW2 1809   0.884   0.254   3.890
  475SOL     OW 1810   1.719   0.585   5.555
  475SOL    HW1 1811   1.693   0.674   5.519
  475SOL    HW2 1812   1.717   0.517   5.482
  476SOL     OW 1813   1.362   1.144   4.269
  476SOL    HW1 1814   1.445   1.115   4.221
  476SOL    HW2 1815   1.313   1.211   4.213
  477SOL     OW 1816   0.550   0.196   4.609
  477SOL    HW1 1817   0.545   0.191   4.709
  477SOL    HW2 1818   0.552   0.292   4.580
  478SOL     OW 1819   1.008   1.456   4.201
  478SOL    HW1 1820   0.962   1.528   4.149
  478SOL    HW2 1821   1.004   1.476   4.299
  479SOL     OW 1822   0.351   1.801   4.577
  479SOL    HW1 1823   0.401   1.715   4.583
  479SOL    HW2 1824   0.416   1.878   4.574
  480SOL     OW 1825   1.795   1.066   4.597
  480SOL    HW1 1826   1.733   1.051   4.521
  480SOL    HW2 1827   1.743   1.077   4.682
  481SOL     OW 1828   1.227   1.550   5.230
  481SOL    HW1 1829   1.233   1.473   5.294
  481SOL    HW2 1830   1.175   1.524   5.150
  482SOL     OW 1831   0.321   0.943   3.966
  482SOL    HW1 1832   0.403   0.982   3.924
  482SOL    HW2 1833   0.294   0.861   3.917
  483SOL     OW 1834   1.458   0.735   4.452
  483SOL    HW1 1835   1.453   0.670   4.527
  483SOL    HW2 1836   1.538   0.794   4.465
  484SOL     OW 1837   0.461   1.266   5.451
  484SOL    HW1 1838   0.411   1.267   5.365
  484SOL    HW2 1839   0.398   1.248   5.527
  485SOL     OW 1840   1.111   1.776   3.961
  485SOL    HW1 1841   1.051   1.714   4.011
  485SOL    HW2 1842   1.142   1.732   3.876
  486SOL     OW 1843   0.202   0.285   5.222
  486SOL    HW1 1844   0.122   0.345   5.209
  486SOL    HW2 1845   0.192   0.236   5.308
  487SOL     OW 1846   1.632   1.377   3.805
  487SOL    HW1 1847   1.600   1.471   3.795
  487SOL    HW2 1848   1.556   1.314   3.793
  488SOL     OW 1849   0.464   1.743   4.047
  488SOL    HW1 1850   0.497   1.782   4.133
  488SOL    HW2 1851   0.540   1.736   3.982
  489SOL     OW 1852   1.400   0.107   4.150
  489SOL    HW1 1853   1.376   0.070   4.060
  489SOL    HW2 1854   1.499   0.123   4.154
  490SOL     OW 1855   0.249   1.785   4.965
  490SOL    HW1 1856   0.306   1.720   5.015
  490SOL    HW2 1857   0.233   1.752   4.872
  491SOL     OW 1858   0.940   1.698   4.628
  491SOL    HW1 1859   1.020   1.641   4.649
  491SOL    HW2 1860   0.891   1.658   4.551
  492SOL     OW 1861   0.382   0.700   4.204
  492SOL    HW1 1862   0.427   0.610   4.201
  492SOL    HW2 1863   0.288   0.689   4.237
  493SOL     OW 1864   1.547   0.222   5.453
  493SOL    HW1 1865   1.542   0.259   5.545
  493SOL    HW2 1866   1.475   0.153   5.441
  494SOL     OW 1867   0.614   0.122   3.841
  494SOL    HW1 1868   0.712   0.100   3.848
  494SOL    HW2 1869   0.583   0.105   3.748
  495SOL     OW 1870   0.781   0.264   5.473
  495SOL    HW1 1871   0.848   0.203   5.516
  495SOL    HW2 1872   0.708   0.283   5.538
  496SOL     OW 1873   0.888   1.514   4.919
  496SOL    HW1 1874   0.865   1.489   4.825
  496SOL    HW2 1875   0.949   1.445   4.958
  497SOL     OW 1876   1.351   0.590   5.157
  497SOL    HW1 1877   1.379   0.547   5.242
  497SOL    HW2 1878   1.376   0.686   5.158
  498SOL     OW 1879   0.803   1.402   4.648
  498SOL    HW1 1880   0.893   1.416   4.606
  498SOL    HW2 1881   0.732   1.404   4.577
  499SOL     OW 1882   0.922   0.503   4.623
  499SOL    HW1 1883   0.897   0.494   4.527
  499SOL    HW2 1884   0.970   0.421   4.654
  500SOL     OW 1885   0.539   0.064   4.236
  500SOL    HW1 1886   0.458   0.065   4.294
  500SOL    HW2 1887   0.542   0.147   4.181
  501SOL     OW 1888   1.434   1.188   3.765
  501SOL    HW1 1889   1.466   1.112   3.822
  501SOL    HW2 1890   1.342   1.215   3.795
  502SOL     OW 1891   0.297   0.035   3.895
  502SOL    HW1 1892   0.346   0.119   3.874
  502SOL    HW2 1893   0.359  -0.030   3.940
  503SOL     OW 1894   0.935   0.236   4.204
  503SOL    HW1 1895   0.887   0.277   4.126
  503SOL    HW2 1896   1.034   0.234   4.185
  504SOL     OW 1897   1.076   0.683   5.188
  504SOL    HW1 1898   0.996   0.622   5.191
  504SOL    HW2 1899   1.157   0.630   5.164
  505SOL     OW 1900   1.227   1.570   4.517
  505SOL    HW1 1901   1.248   1.644   4.452
  505SOL    HW2 1902   1.295   1.570   4.590
  506SOL     OW 1903   0.459   1.152   4.465
  506SOL    HW1 1904   0.388   1.125   4.530
  506SOL    HW2 1905   0.433   1.124   4.372
  507SOL     OW 1906   1.271   1.797   4.315
  507SOL    HW1 1907   1.315   1.861   4.251
  507SOL    HW2 1908   1.221   1.849   4.385
  508SOL     OW 1909   1.032   0.549   3.740
  508SOL    HW1 1910   0.991   0.631   3.701
  508SOL    HW2 1911   1.096   0.575   3.813
  509SOL     OW 1912   0.078   0.556   5.110
  509SOL    HW1 1913   0.170   0.555   5.069
  509SOL    HW2 1914   0.072   0.630   5.177
  510SOL     OW 1915   0.561   0.222   4.871
  510SOL    HW1 1916   0.599   0.138   4.908
  510SOL    HW2 1917   0.473   0.241   4.915
  511SOL     OW 1918   0.866   0.454   4.366
  511SOL    HW1 1919   0.834   0.526   4.304
  511SOL    HW2 1920   0.890   0.373   4.313
  512SOL     OW 1921   1.017   0.039   4.477
  512SOL    HW1 1922   0.945   0.044   4.408
  512SOL    HW2 1923   0.993  -0.030   4.546
  513SOL     OW 1924   1.429   1.173   4.591
  513SOL    HW1 1925   1.374   1.089   4.584
  513SOL    HW2 1926   1.455   1.202   4.499
  514SOL     OW 1927   1.466   0.590   4.716
  514SOL    HW1 1928   1.436   0.495   4.723
  514SOL    HW2 1929   1.539   0.606   4.782
  515SOL     OW 1930   1.857   0.833   4.101
  515SOL    HW1 1931   1.899   0.769   4.165
  515SOL    HW2 1932   1.819   0.782   4.023
  516SOL     OW 1933   0.488   1.385   3.898
  516SOL    HW1 1934   0.401   1.370   3.945
  516SOL    HW2 1935   0.471   1.411   3.803
  517SOL     OW 1936   1.664   1.280   4.381
  517SOL    HW1 1937   1.763   1.288   4.395
  517SOL    HW2 1938   1.619   1.364   4.412
  518SOL     OW 1939   1.390   0.575   3.802
  518SOL    HW1 1940   1.336   0.554   3.883
  518SOL    HW2 1941   1.481   0.534   3.811
  519SOL     OW 1942   0.527   0.256   4.052
  519SOL    HW1 1943   0.554   0.197   3.977
  519SOL    HW2 1944   0.527   0.351   4.021
  520SOL     OW 1945   1.754   1.223   5.312
  520SOL    HW1 1946   1.845   1.184   5.299
  520SOL    HW2 1947   1.762   1.319   5.336
  521SOL     OW 1948   1.064   1.347   5.064
  521SOL    HW1 1949   0.984   1.324   5.119
  521SOL    HW2 1950   1.147   1.321   5.113
  522SOL     OW 1951   1.111   1.195   4.824
  522SOL    HW1 1952   1.071   1.239   4.905
  522SOL    HW2 1953   1.070   1.232   4.741
  523SOL     OW 1954   1.638   1.099   4.803
  523SOL    HW1 1955   1.643   1.180   4.862
  523SOL    HW2 1956   1.552   1.101   4.752
  524SOL     OW 1957   0.915   0.089   5.126
  524SOL    HW1 1958   0.940   0.069   5.031
  524SOL    HW2 1959   0.987   0.145   5.168
  525SOL     OW 1960   0.980   1.116   5.443
  525SOL    HW1 1961   0.881   1.122   5.453
  525SOL    HW2 1962   1.003   1.036   5.387
  526SOL     OW 1963   0.705   1.050   4.092
  526SOL    HW1 1964   0.691   1.057   4.191
  526SOL    HW2 1965   0.789   0.999   4.074
  527SOL     OW 1966   0.410   0.813   4.975
  527SOL    HW1 1967   0.496   0.825   5.025
  527SOL    HW2 1968   0.368   0.726   5.002
  528SOL     OW 1969   1.274   0.386   4.986
  528SOL    HW1 1970   1.295   0.460   5.050
  528SOL    HW2 1971   1.185   0.403   4.943
  529SOL     OW 1972   0.064   1.564   5.055
  529SOL    HW1 1973   0.018   1.646   5.021
  529SOL    HW2 1974   0.162   1.583   5.064
  530SOL     OW 1975   0.367   1.100   4.225
  530SOL    HW1 1976   0.360   1.183   4.169
  530SOL    HW2 1977   0.371   1.020   4.165
  531SOL     OW 1978   0.566   0.537   4.589
  531SOL    HW1 1979   0.578   0.603   4.515
  531SOL    HW2 1980   0.612   0.571   4.672
  532SOL     OW 1981   1.252   1.348   4.112
  532SOL    HW1 1982   1.302   1.425   4.152
  532SOL    HW2 1983   1.157   1.350   4.144
  533SOL     OW 1984   1.272   1.445   4.866
  533SOL    HW1 1985   1.319   1.458   4.953
  533SOL    HW2 1986   1.206   1.371   4.875
  534SOL     OW 1987   1.582   0.639   4.196
  534SOL    HW1 1988   1.551   0.700   4.269
  534SOL    HW2 1989   1.632   0.691   4.127
  535SOL     OW 1990   0.354   1.510   5.053
  535SOL    HW1 1991   0.333   1.466   4.966
  535SOL    HW2 1992   0.451   1.536   5.056
  536SOL     OW 1993   0.402   0.751   5.322
  536SOL    HW1 1994   0.470   0.806   5.275
  536SOL    HW2 1995   0.442   0.663   5.349
  537SOL     OW 1996   1.587   0.779   5.394
  537SOL    HW1 1997   1.495   0.817   5.389
  537SOL    HW2 1998   1.647   0.826   5.329
  538SOL     OW 1999   1.013   0.105   5.494
  538SOL    HW1 2000   1.019   0.190   5.442
  538SOL    HW2 2001   1.045   0.029   5.437
  539SOL     OW 2002   0.504   0.050   5.464
  539SOL    HW1 2003   0.462  -0.007   5.394
  539SOL    HW2 2004   0.438   0.119   5.496
  540SOL     OW 2005   0.573   0.870   4.753
  540SOL    HW1 2006   0.617   0.959   4.744
  540SOL    HW2 2007   0.510   0.870   4.830
  541SOL     OW 2008   1.360   0.862   4.769
  541SOL    HW1 2009   1.285   0.862   4.703
  541SOL    HW2 2010   1.397   0.770   4.778
  542SOL     OW 2011   1.209   0.525   3.999
  542SOL    HW1 2012   1.222   0.441   4.053
  542SOL    HW2 2013   1.180   0.599   4.059
  543SOL     OW 2014   0.307   0.213   4.955
  543SOL    HW1 2015   0.284   0.250   5.045
  543SOL    HW2 2016   0.277   0.118   4.949
  544SOL     OW 2017   0.037   1.310   5.006
  544SOL    HW1 2018   0.090   1.261   5.074
  544SOL    HW2 2019   0.059   1.408   5.011
  545SOL     OW 2020   0.732   0.634   4.788
  545SOL    HW1 2021   0.791   0.608   4.712
  545SOL    HW2 2022   0.704   0.730   4.777
  546SOL     OW 2023   1.728   0.935   5.578
  546SOL    HW1 2024   1.682   0.928   5.489
  546SOL    HW2 2025   1.666   0.979   5.644
  547SOL     OW 2026   0.307   0.063   4.342
  547SOL    HW1 2027   0.296   0.157   4.375
  547SOL    HW2 2028   0.302   0.000   4.419
  548SOL     OW 2029   1.622   0.367   4.098
  548SOL    HW1 2030   1.624   0.291   4.162
  548SOL    HW2 2031   1.574   0.444   4.138
  549SOL     OW 2032   1.023   0.766   4.690
  549SOL    HW1 2033   1.038   0.787   4.786
  549SOL    HW2 2034   0.993   0.671   4.681
  550SOL     OW 2035   0.980   1.573   5.424
  550SOL    HW1 2036   0.960   1.617   5.336
  550SOL    HW2 2037   1.019   1.482   5.408
  551SOL     OW 2038   0.350   0.898   5.528
  551SOL    HW1 2039   0.426   0.942   5.576
  551SOL    HW2 2040   0.385   0.851   5.446
  552SOL     OW 2041   1.540   0.274   3.849
  552SOL    HW1 2042   1.479   0.199   3.872
  552SOL    HW2 2043   1.562   0.326   3.932
  553SOL     OW 2044   1.303   0.838   3.766
  553SOL    HW1 2045   1.337   0.745   3.781
  553SOL    HW2 2046   1.321   0.865   3.671
  554SOL     OW 2047   1.068   1.333   4.573
  554SOL    HW1 2048   1.075   1.249   4.518
  554SOL    HW2 2049   1.130   1.402   4.537
  555SOL     OW 2050   0.319   0.810   4.673
  555SOL    HW1 2051   0.412   0.846   4.678
  555SOL    HW2 2052   0.313   0.725   4.725
  556SOL     OW 2053   0.339   0.509   4.730
  556SOL    HW1 2054   0.287   0.426   4.713
  556SOL    HW2 2055   0.416   0.514   4.666
  557SOL     OW 2056   1.138   0.380   5.402
  557SOL    HW1 2057   1.093   0.443   5.466
  557SOL    HW2 2058   1.231   0.411   5.385
  558SOL     OW 2059   1.160   0.207   5.201
  558SOL    HW1 2060   1.160   0.271   5.278
  558SOL    HW2 2061   1.188   0.255   5.118
  559SOL     OW 2062   0.008   1.326   3.924
  559SOL    HW1 2063  -0.085   1.347   3.893
  559SOL    HW2 2064   0.018   1.227   3.937
  560SOL     OW 2065   0.088   1.801   4.651
  560SOL    HW1 2066   0.046   1.715   4.624
  560SOL    HW2 2067   0.182   1.804   4.617
  561SOL     OW 2068   0.504   1.568   4.634
  561SOL    HW1 2069   0.570   1.642   4.643
  561SOL    HW2 2070   0.548   1.489   4.592
  562SOL     OW 2071   1.002   0.796   4.962
  562SOL    HW1 2072   1.043   0.764   5.048
  562SOL    HW2 2073   0.906   0.769   4.959
  563SOL     OW 2074   0.040   0.544   4.838
  563SOL    HW1 2075   0.125   0.511   4.797
  563SOL    HW2 2076   0.053   0.559   4.936
  564SOL     OW 2077   0.189   0.520   5.446
  564SOL    HW1 2078   0.248   0.480   5.376
  564SOL    HW2 2079   0.131   0.591   5.405
  565SOL     OW 2080   1.369   0.950   5.384
  565SOL    HW1 2081   1.408   1.039   5.404
  565SOL    HW2 2082   1.379   0.930   5.287
  566SOL     OW 2083   0.815   0.572   4.049
  566SOL    HW1 2084   0.822   0.483   4.003
  566SOL    HW2 2085   0.721   0.606   4.041
  567SOL     OW 2086   1.657   0.604   4.930
  567SOL    HW1 2087   1.619   0.535   4.992
  567SOL    HW2 2088   1.739   0.568   4.886
  568SOL     OW 2089   0.252   1.564   5.468
  568SOL    HW1 2090   0.222   1.621   5.544
  568SOL    HW2 2091   0.245   1.467   5.494
  569SOL     OW 2092   0.671   0.464   4.993
  569SOL    HW1 2093   0.637   0.375   4.963
  569SOL    HW2 2094   0.697   0.518   4.913
  570SOL     OW 2095   0.930   1.678   5.189
  570SOL    HW1 2096   0.906   1.660   5.094
  570SOL    HW2 2097   0.960   1.772   5.199
  571SOL     OW 2098   0.473   0.500   3.915
  571SOL    HW1 2099   0.534   0.580   3.919
  571SOL    HW2 2100   0.378   0.531   3.922
  572SOL     OW 2101   0.159   1.137   5.190
  572SOL    HW1 2102   0.181   1.076   5.266
  572SOL    HW2 2103   0.169   1.088   5.104
  573SOL     OW 2104   1.347   1.059   4.958
  573SOL    HW1 2105   1.371   0.996   4.884
  573SOL    HW2 2106   1.257   1.099   4.940
  574SOL     OW 2107   1.302   0.855   4.033
  574SOL    HW1 2108   1.216   0.824   4.075
  574SOL    HW2 2109   1.298   0.841   3.934
  575SOL     OW 2110   1.759   1.747   4.878
  575SOL    HW1 2111   1.820   1.777   4.805
  575SOL    HW2 2112   1.721   1.658   4.856
  576SOL     OW 2113   1.252   1.731   4.852
  576SOL    HW1 2114   1.336   1.736   4.798
  576SOL    HW2 2115   1.229   1.635   4.870
  577SOL     OW 2116   0.083   1.258   4.746
  577SOL    HW1 2117   0.078   1.257   4.846
  577SOL    HW2 2118   0.000   1.217   4.708
  578SOL     OW 2119   0.688   1.662   5.440
  578SOL    HW1 2120   0.632   1.743   5.449
  578SOL    HW2 2121   0.740   1.666   5.354
  579SOL     OW 2122   1.726   0.135   4.247
  579SOL    HW1 2123   1.799   0.118   4.180
  579SOL    HW2 2124   1.695   0.048   4.285
  580SOL     OW 2125   1.388   1.573   4.201
  580SOL    HW1 2126   1.455   1.585   4.127
  580SOL    HW2 2127   1.348   1.662   4.224
  581SOL     OW 2128   0.130   1.794   5.575
  581SOL    HW1 2129   0.089   1.720   5.628
  581SOL    HW2 2130   0.194   1.845   5.633
  582SOL     OW 2131   1.280   0.927   4.396
  582SOL    HW1 2132   1.340   0.846   4.398
  582SOL    HW2 2133   1.320   0.996   4.336
  583SOL     OW 2134   0.830   1.273   5.146
  583SOL    HW1 2135   0.825   1.306   5.241
  583SOL    HW2 2136   0.744   1.292   5.100
  584SOL     OW 2137   0.672   1.616   3.878
  584SOL    HW1 2138   0.681   1.626   3.779
  584SOL    HW2 2139   0.632   1.527   3.899
  585SOL     OW 2140   1.650   1.720   5.118
  585SOL    HW1 2141   1.703   1.730   5.034
  585SOL    HW2 2142   1.623   1.810   5.152
  586SOL     OW 2143   1.841   0.175   4.687
  586SOL    HW1 2144   1.880   0.090   4.651
  586SOL    HW2 2145   1.743   0.177   4.668
  587SOL     OW 2146   0.263   0.326   4.444
  587SOL    HW1 2147   0.184   0.377   4.410
  587SOL    HW2 2148   0.254   0.311   4.542
  588SOL     OW 2149   1.194   1.612   3.755
  588SOL    HW1 2150   1.200   1.519   3.792
  588SOL    HW2 2151   1.135   1.612   3.675
  589SOL     OW 2152   0.822   1.002   5.096
  589SOL    HW1 2153   0.862   1.001   5.004
  589SOL    HW2 2154   0.832   1.094   5.136
  590SOL     OW 2155   0.916   0.910   4.015
  590SOL    HW1 2156   0.979   0.948   3.947
  590SOL    HW2 2157   0.956   0.827   4.054
  591SOL     OW 2158   1.504   1.607   3.768
  591SOL    HW1 2159   1.412   1.644   3.775
  591SOL    HW2 2160   1.542   1.627   3.678
  592SOL     OW 2161   0.372   1.288   5.214
  592SOL    HW1 2162   0.359   1.381   5.180
  592SOL    HW2 2163   0.288   1.236   5.201
  593SOL     OW 2164   1.614   1.292   5.013
  593SOL    HW1 2165   1.674   1.295   5.093
  593SOL    HW2 2166   1.539   1.356   5.026
  594SOL     OW 2167   1.039   1.098   4.420
  594SOL    HW1 2168   0.969   1.051   4.474
  594SOL    HW2 2169   1.098   1.030   4.377
  595SOL     OW 2170   1.014   0.236   4.695
  595SOL    HW1 2171   1.006   0.200   4.602
  595SOL    HW2 2172   1.012   0.160   4.760
  596SOL     OW 2173   0.590   1.487   4.215
  596SOL    HW1 2174   0.632   1.429   4.145
  596SOL    HW2 2175   0.546   1.566   4.171
  597SOL     OW 2176   1.709   0.385   5.105
  597SOL    HW1 2177   1.782   0.454   5.109
  597SOL    HW2 2178   1.737   0.310   5.046
  598SOL     OW 2179   0.255   1.348   4.014
  598SOL    HW1 2180   0.159   1.349   3.987
  598SOL    HW2 2181   0.267   1.401   4.098
  599SOL     OW 2182   0.105   1.013   5.450
  599SOL    HW1 2183   0.028   0.980   5.504
  599SOL    HW2 2184   0.190   0.983   5.492
  600SOL     OW 2185   0.672   0.203   5.213
  600SOL    HW1 2186   0.762   0.187   5.173
  600SOL    HW2 2187   0.680   0.208   5.312
  601SOL     OW 2188   0.075   0.345   3.757
  601SOL    HW1 2189  -0.017   0.317   3.728
  601SOL    HW2 2190   0.106   0.422   3.701
  602SOL     OW 2191   1.440   0.856   5.122
  602SOL    HW1 2192   1.383   0.908   5.059
  602SOL    HW2 2193   1.536   0.868   5.098
  603SOL     OW 2194   0.072   0.166   4.042
  603SOL    HW1 2195   0.055   0.249   3.988
  603SOL    HW2 2196   0.162   0.129   4.020
  604SOL     OW 2197   1.183   1.335   3.843
  604SOL    HW1 2198   1.084   1.324   3.845
  604SOL    HW2 2199   1.217   1.350   3.936
  605SOL     OW 2200   0.613   0.842   5.155
  605SOL    HW1 2201   0.669   0.923   5.138
  605SOL    HW2 2202   0.672   0.762   5.158
  606SOL     OW 2203   1.493   1.767   4.683
  606SOL    HW1 2204   1.526   1.831   4.614
  606SOL    HW2 2205   1.559   1.761   4.758
  607SOL     OW 2206   0.716   0.565   5.432
  607SOL    HW1 2207   0.735   0.630   5.506
  607SOL    HW2 2208   0.776   0.485   5.441
  608SOL     OW 2209   1.450   1.220   5.357
  608SOL    HW1 2210   1.441   1.210   5.456
  608SOL    HW2 2211   1.546   1.213   5.331
  609SOL     OW 2212   0.390   1.741   5.284
  609SOL    HW1 2213   0.299   1.782   5.282
  609SOL    HW2 2214   0.383   1.647   5.316
  610SOL     OW 2215   1.674   0.883   4.978
  610SOL    HW1 2216   1.647   0.794   4.941
  610SOL    HW2 2217   1.675   0.951   4.905
  611SOL     OW 2218   1.225   0.325   4.173
  611SOL    HW1 2219   1.290   0.251   4.162
  611SOL    HW2 2220   1.245   0.375   4.257
  612SOL     OW 2221   0.594   0.745   4.376
  612SOL    HW1 2222   0.644   0.830   4.357
  612SOL    HW2 2223   0.506   0.747   4.328
  613SOL     OW 2224   1.777   0.342   5.366
  613SOL    HW1 2225   1.760   0.373   5.272
  613SOL    HW2 2226   1.693   0.305   5.404
  614SOL     OW 2227   1.730   0.934   5.241
  614SOL    HW1 2228   1.768   1.025   5.256
  614SOL    HW2 2229   1.722   0.917   5.142
  615SOL     OW 2230   0.859   1.374   3.740
  615SOL    HW1 2231   0.813   1.389   3.828
  615SOL    HW2 2232   0.903   1.459   3.710
  616SOL     OW 2233   0.661   1.790   4.677
  616SOL    HW1 2234   0.615   1.878   4.664
  616SOL    HW2 2235   0.760   1.802   4.670
  617SOL     OW 2236   0.859   0.956   4.585
  617SOL    HW1 2237   0.913   0.887   4.633
  617SOL    HW2 2238   0.827   1.025   4.651
  618SOL     OW 2239   1.083   0.984   3.811
  618SOL    HW1 2240   1.060   1.037   3.729
  618SOL    HW2 2241   1.164   0.928   3.792
  619SOL     OW 2242   1.861   1.569   4.575
  619SOL    HW1 2243   1.790   1.557   4.505
  619SOL    HW2 2244   1.862   1.490   4.635
  620SOL     OW 2245   0.221   1.314   5.568
  620SOL    HW1 2246   0.156   1.241   5.547
  620SOL    HW2 2247   0.225   1.328   5.666
  621SOL     OW 2248   0.079   1.240   4.377
  621SOL    HW1 2249   0.078   1.193   4.465
  621SOL    HW2 2250   0.161   1.212   4.326
  622SOL     OW 2251   0.672   1.391   5.348
  622SOL    HW1 2252   0.594   1.341   5.386
  622SOL    HW2 2253   0.669   1.486   5.379
  623SOL     OW 2254   1.824   0.192   4.951
  623SOL    HW1 2255   1.820   0.102   4.995
  623SOL    HW2 2256   1.827   0.181   4.852
  624SOL     OW 2257   0.428   0.424   4.244
  624SOL    HW1 2258   0.458   0.352   4.182
  624SOL    HW2 2259   0.389   0.384   4.327
  625SOL     OW 2260   1.705   1.487   4.828
  625SOL    HW1 2261   1.612   1.462   4.801
  625SOL    HW2 2262   1.731   1.437   4.910
  626SOL     OW 2263   0.317   0.547   5.004
  626SOL    HW1 2264   0.355   0.488   5.076
  626SOL    HW2 2265   0.357   0.521   4.916
  627SOL     OW 2266   0.812   1.586   4.411
  627SOL    HW1 2267   0.844   1.596   4.317
  627SOL    HW2 2268   0.733   1.524   4.413
  628SOL     OW 2269   1.424   0.214   4.836
  628SOL    HW1 2270   1.476   0.149   4.891
  628SOL    HW2 2271   1.375   0.277   4.897
  629SOL     OW 2272   1.001   0.034   4.878
  629SOL    HW1 2273   0.938  -0.038   4.847
  629SOL    HW2 2274   1.094  -0.002   4.878
  630SOL     OW 2275   0.770   1.330   4.025
  630SOL    HW1 2276   0.724   1.243   4.042
  630SOL    HW2 2277   0.861   1.327   4.066
  631SOL     OW 2278   0.618   1.567   5.008
  631SOL    HW1 2279   0.613   1.649   5.065
  631SOL    HW2 2280   0.707   1.564   4.963
  632SOL     OW 2281   1.352   0.052   3.892
  632SOL    HW1 2282   1.387   0.011   3.808
  632SOL    HW2 2283   1.262   0.014   3.912
  633SOL     OW 2284   1.300   0.453   4.415
  633SOL    HW1 2285   1.241   0.533   4.419
  633SOL    HW2 2286   1.315   0.418   4.508
  634SOL     OW 2287   1.593   0.221   4.606
  634SOL    HW1 2288   1.509   0.220   4.660
  634SOL    HW2 2289   1.595   0.304   4.550
  635SOL     OW 2290   0.039   1.077   4.024
  635SOL    HW1 2291   0.138   1.066   4.015
  635SOL    HW2 2292  -0.001   0.991   4.056
  636SOL     OW 2293   0.875   1.646   4.061
  636SOL    HW1 2294   0.798   1.611   4.007
  636SOL    HW2 2295   0.843   1.717   4.123
  637SOL     OW 2296   0.230   0.628   5.699
  637SOL    HW1 2297   0.137   0.626   5.736
  637SOL    HW2 2298   0.231   0.589   5.607
  638SOL     OW 2299   0.225   0.275   6.582
  638SOL    HW1 2300   0.260   0.258   6.674
  638SOL    HW2 2301   0.137   0.230   6.570
  639SOL     OW 2302   0.019   0.368   6.233
  639SOL    HW1 2303  -0.063   0.411   6.272
  639SOL    HW2 2304  -0.009   0.295   6.170
  640SOL     OW 2305   0.569   1.275   6.751
  640SOL    HW1 2306   0.476   1.268   6.714
  640SOL    HW2 2307   0.580   1.364   6.795
  641SOL     OW 2308   1.555   1.511   6.289
  641SOL    HW1 2309   1.498   1.495   6.370
  641SOL    HW2 2310   1.496   1.521   6.209
  642SOL     OW 2311   1.135   0.703   6.303
  642SOL    HW1 2312   1.192   0.781   6.278
  642SOL    HW2 2313   1.075   0.729   6.379
  643SOL     OW 2314   1.755   0.607   5.817
  643SOL    HW1 2315   1.743   0.594   5.718
  643SOL    HW2 2316   1.725   0.526   5.866
  644SOL     OW 2317   0.768   1.144   6.609
  644SOL    HW1 2318   0.690   1.161   6.669
  644SOL    HW2 2319   0.802   1.231   6.573
  645SOL     OW 2320   0.850   0.798   7.409
  645SOL    HW1 2321   0.846   0.874   7.474
  645SOL    HW2 2322   0.872   0.834   7.318
  646SOL     OW 2323   0.685   1.012   6.251
  646SOL    HW1 2324   0.754   0.996   6.321
  646SOL    HW2 2325   0.612   1.069   6.289
  647SOL     OW 2326   0.686   1.161   7.389
  647SOL    HW1 2327   0.746   1.240   7.403
  647SOL    HW2 2328   0.600   1.192   7.348
  648SOL     OW 2329   0.335   1.435   6.647
  648SOL    HW1 2330   0.257   1.404   6.594
  648SOL    HW2 2331   0.393   1.493   6.590
  649SOL     OW 2332   1.460   1.505   6.925
  649SOL    HW1 2333   1.484   1.599   6.951
  649SOL    HW2 2334   1.444   1.451   7.007
  650SOL     OW 2335   0.438   0.392   7.085
  650SOL    HW1 2336   0.520   0.336   7.094
  650SOL    HW2 2337   0.357   0.334   7.089
  651SOL     OW 2338   1.603   0.447   6.323
  651SOL    HW1 2339   1.529   0.493   6.273
  651SOL    HW2 2340   1.654   0.515   6.376
  652SOL     OW 2341   0.231   1.713   6.069
  652SOL    HW1 2342   0.265   1.790   6.123
  652SOL    HW2 2343   0.275   1.713   5.979
  653SOL     OW 2344   1.127   1.341   7.276
  653SOL    HW1 2345   1.174   1.341   7.364
  653SOL    HW2 2346   1.079   1.254   7.265
  654SOL     OW 2347   0.230   1.434   6.124
  654SOL    HW1 2348   0.204   1.530   6.124
  654SOL    HW2 2349   0.159   1.380   6.169
  655SOL     OW 2350   0.240   1.091   6.472
  655SOL    HW1 2351   0.254   1.007   6.524
  655SOL    HW2 2352   0.185   1.155   6.527
  656SOL     OW 2353   0.620   1.786   7.025
  656SOL    HW1 2354   0.528   1.769   7.060
  656SOL    HW2 2355   0.648   1.878   7.051
  657SOL     OW 2356   0.606   0.964   5.709
  657SOL    HW1 2357   0.613   1.048   5.655
  657SOL    HW2 2358   0.652   0.977   5.797
  658SOL     OW 2359   1.594   0.114   7.066
  658SOL    HW1 2360   1.576   0.181   6.994
  658SOL    HW2 2361   1.591   0.160   7.155
  659SOL     OW 2362   0.122   0.643   6.149
  659SOL    HW1 2363   0.077   0.555   6.166
  659SOL    HW2 2364   0.121   0.697   6.233
  660SOL     OW 2365   1.842   1.767   5.945
  660SOL    HW1 2366   1.896   1.738   6.025
  660SOL    HW2 2367   1.872   1.857   5.916
  661SOL     OW 2368   0.027   1.596   5.703
  661SOL    HW1 2369   0.008   1.500   5.724
  661SOL    HW2 2370  -0.006   1.654   5.778
  662SOL     OW 2371   1.689   0.922   6.198
  662SOL    HW1 2372   1.784   0.893   6.206
  662SOL    HW2 2373   1.681   0.987   6.123
  663SOL     OW 2374   1.641   1.108   6.018
  663SOL    HW1 2375   1.727   1.110   5.966
  663SOL    HW2 2376   1.655   1.155   6.106
  664SOL     OW 2377   0.113   0.737   7.183
  664SOL    HW1 2378   0.201   0.724   7.228
  664SOL    HW2 2379   0.100   0.834   7.161
  665SOL     OW 2380   0.613   1.365   6.312
  665SOL    HW1 2381   0.564   1.278   6.321
  665SOL    HW2 2382   0.590   1.408   6.225
  666SOL     OW 2383   1.293   1.228   7.009
  666SOL    HW1 2384   1.330   1.155   6.951
  666SOL    HW2 2385   1.345   1.233   7.094
  667SOL     OW 2386   0.809   0.004   6.088
  667SOL    HW1 2387   0.849   0.095   6.079
  667SOL    HW2 2388   0.709   0.012   6.094
  668SOL     OW 2389   0.197   0.976   6.850
  668SOL    HW1 2390   0.286   0.931   6.836
  668SOL    HW2 2391   0.124   0.911   6.831
  669SOL     OW 2392   1.525   0.999   5.776
  669SOL    HW1 2393   1.462   0.923   5.789
  669SOL    HW2 2394   1.573   1.017   5.862
  670SOL     OW 2395   1.187   1.792   7.202
  670SOL    HW1 2396   1.211   1.852   7.126
  670SOL    HW2 2397   1.194   1.697   7.172
  671SOL     OW 2398   0.317   0.251   7.387
  671SOL    HW1 2399   0.388   0.322   7.393
  671SOL    HW2 2400   0.229   0.290   7.415
  672SOL     OW 2401   1.466   1.417   6.539
  672SOL    HW1 2402   1.407   1.423   6.619
  672SOL    HW2 2403   1.451   1.329   6.493
  673SOL     OW 2404   1.667   1.714   6.158
  673SOL    HW1 2405   1.626   1.691   6.070
  673SOL    HW2 2406   1.649   1.640   6.223
  674SOL     OW 2407   0.598   0.729   5.856
  674SOL    HW1 2408   0.622   0.798   5.788
  674SOL    HW2 2409   0.520   0.762   5.910
  675SOL     OW 2410   1.281   0.345   6.530
  675SOL    HW1 2411   1.195   0.295   6.517
  675SOL    HW2 2412   1.343   0.291   6.586
  676SOL     OW 2413   1.576   1.662   5.893
  676SOL    HW1 2414   1.665   1.708   5.896
  676SOL    HW2 2415   1.555   1.638   5.798
  677SOL     OW 2416   0.807   0.605   7.051
  677SOL    HW1 2417   0.760   0.602   7.140
  677SOL    HW2 2418   0.756   0.550   6.985
  678SOL     OW 2419   1.394   0.469   7.260
  678SOL    HW1 2420   1.374   0.512   7.348
  678SOL    HW2 2421   1.472   0.407   7.269
  679SOL     OW 2422   0.973   0.890   7.158
  679SOL    HW1 2423   1.019   0.806   7.129
  679SOL    HW2 2424   0.917   0.924   7.083
  680SOL     OW 2425   0.991   0.410   6.828
  680SOL    HW1 2426   0.914   0.444   6.882
  680SOL    HW2 2427   0.957   0.359   6.749
  681SOL     OW 2428   1.041   0.701   6.015
  681SOL    HW1 2429   1.067   0.697   6.111
  681SOL    HW2 2430   0.956   0.650   6.001
  682SOL     OW 2431   0.076   0.811   6.375
  682SOL    HW1 2432   0.175   0.799   6.384
  682SOL    HW2 2433   0.052   0.906   6.396
  683SOL     OW 2434   0.130   1.821   7.157
  683SOL    HW1 2435   0.120   1.806   7.256
  683SOL    HW2 2436   0.044   1.857   7.121
  684SOL     OW 2437   0.865   0.348   5.781
  684SOL    HW1 2438   0.924   0.411   5.732
  684SOL    HW2 2439   0.884   0.254   5.752
  685SOL     OW 2440   1.719   0.585   7.417
  685SOL    HW1 2441   1.693   0.674   7.381
  685SOL    HW2 2442   1.717   0.517   7.344
  686SOL     OW 2443   1.362   1.144   6.131
  686SOL    HW1 2444   1.445   1.115   6.083
  686SOL    HW2 2445   1.313   1.211   6.075
  687SOL     OW 2446   0.550   0.196   6.471
  687SOL    HW1 2447   0.545   0.191   6.571
  687SOL    HW2 2448   0.552   0.292   6.442
  688SOL     OW 2449   1.008   1.456   6.063
  688SOL    HW1 2450   0.962   1.528   6.011
  688SOL    HW2 2451   1.004   1.476   6.161
  689SOL     OW 2452   0.351   1.801   6.439
  689SOL    HW1 2453   0.401   1.715   6.445
  689SOL    HW2 2454   0.416   1.878   6.436
  690SOL     OW 2455   1.795   1.066   6.459
  690SOL    HW1 2456   1.733   1.051   6.383
  690SOL    HW2 2457   1.743   1.077   6.544
  691SOL     OW 2458   1.227   1.550   7.092
  691SOL    HW1 2459   1.233   1.473   7.156
  691SOL    HW2 2460   1.175   1.524   7.012
  692SOL     OW 2461   0.321   0.943   5.828
  692SOL    HW1 2462   0.403   0.982   5.786
  692SOL    HW2 2463   0.294   0.861   5.779
  693SOL     OW 2464   1.458   0.735   6.314
  693SOL    HW1 2465   1.453   0.670   6.389
  693SOL    HW2 2466   1.538   0.794   6.327
  694SOL     OW 2467   0.461   1.266   7.313
  694SOL    HW1 2468   0.411   1.267   7.227
  694SOL    HW2 2469   0.398   1.248   7.389
  695SOL     OW 2470   1.111   1.776   5.823
  695SOL    HW1 2471   1.051   1.714   5.873
  695SOL    HW2 2472   1.142   1.732   5.738
  696SOL     OW 2473   0.202   0.285   7.084
  696SOL    HW1 2474   0.122   0.345   7.071
  696SOL    HW2 2475   0.192   0.236   7.170
  697SOL     OW 2476   1.632   1.377   5.667
  697SOL    HW1 2477   1.600   1.471   5.657
  697SOL    HW2 2478   1.556   1.314   5.655
  698SOL     OW 2479   0.464   1.743   5.909
  698SOL    HW1 2480   0.497   1.782   5.995
  698SOL    HW2 2481   0.540   1.736   5.844
  699SOL     OW 2482   1.400   0.107   6.012
  699SOL    HW1 2483   1.376   0.070   5.922
  699SOL    HW2 2484   1.499   0.123   6.016
  700SOL     OW 2485   0.249   1.785   6.827
  700SOL    HW1 2486   0.306   1.720   6.877
  700SOL    HW2 2487   0.233   1.752   6.734
  701SOL     OW 2488   0.940   1.698   6.490
  701SOL    HW1 2489   1.020   1.641   6.511
  701SOL    HW2 2490   0.891   1.658   6.413
  702SOL     OW 2491   0.382   0.700   6.066
  702SOL    HW1 2492   0.427   0.610   6.063
  702SOL    HW2 2493   0.288   0.689   6.099
  703SOL     OW 2494   1.547   0.222   7.315
  703SOL    HW1 2495   1.542   0.259   7.407
  703SOL    HW2 2496   1.475   0.153   7.303
  704SOL     OW 2497   0.614   0.122   5.703
  704SOL    HW1 2498   0.712   0.100   5.710
  704SOL    HW2 2499   0.583   0.105   5.610
  705SOL     OW 2500   0.781   0.264   7.335
  705SOL    HW1 2501   0.848   0.203   7.378
  705SOL    HW2 2502   0.708   0.283   7.400
  706SOL     OW 2503   0.888   1.514   6.781
  706SOL    HW1 2504   0.865   1.489   6.687
  706SOL    HW2 2505   0.949   1.445   6.820
  707SOL     OW 2506   1.351   0.590   7.019
  707SOL    HW1 2507   1.379   0.547   7.104
  707SOL    HW2 2508   1.376   0.686   7.020
  708SOL     OW 2509   0.803   1.402   6.510
  708SOL    HW1 2510   0.893   1.416   6.468
  708SOL    HW2 2511   0.732   1.404   6.439
  709SOL     OW 2512   0.922   0.503   6.485
  709SOL    HW1 2513   0.897   0.494   6.389
  709SOL    HW2 2514   0.970   0.421   6.516
  710SOL     OW 2515   0.539   0.064   6.098
  710SOL    HW1 2516   0.458   0.065   6.156
  710SOL    HW2 2517   0.542   0.147   6.043
  711SOL     OW 2518   1.434   1.188   5.627
  711SOL    HW1 2519   1.466   1.112   5.684
  711SOL    HW2 2520   1.342   1.215   5.657
  712SOL     OW 2521   0.297   0.035   5.757
  712SOL    HW1 2522   0.346   0.119   5.736
  712SOL    HW2 2523   0.359  -0.030   5.802
  713SOL     OW 2524   0.935   0.236   6.066
  713SOL    HW1 2525   0.887   0.277   5.988
  713SOL    HW2 2526   1.034   0.234   6.047
  714SOL     OW 2527   1.076   0.683   7.050
  714SOL    HW1 2528   0.996   0.622   7.053
  714SOL    HW2 2529   1.157   0.630   7.026
  715SOL     OW 2530   1.227   1.570   6.379
  715SOL    HW1 2531   1.248   1.644   6.314
  715SOL    HW2 2532   1.295   1.570   6.452
  716SOL     OW 2533   0.459   1.152   6.327
  716SOL    HW1 2534   0.388   1.125   6.392
  716SOL    HW2 2535   0.433   1.124   6.234
  717SOL     OW 2536   1.271   1.797   6.177
  717SOL    HW1 2537   1.315   1.861   6.113
  717SOL    HW2 2538   1.221   1.849   6.247
  718SOL     OW 2539   1.032   0.549   5.602
  718SOL    HW1 2540   0.991   0.631   5.563
  718SOL    HW2 2541   1.096   0.575   5.675
  719SOL     OW 2542   0.078   0.556   6.972
  719SOL    HW1 2543   0.170   0.555   6.931
  719SOL    HW2 2544   0.072   0.630   7.039
  720SOL     OW 2545   0.561   0.222   6.733
  720SOL    HW1 2546   0.599   0.138   6.770
  720SOL    HW2 2547   0.473   0.241   6.777
  721SOL     OW 2548   0.866   0.454   6.228
  721SOL    HW1 2549   0.834   0.526   6.166
  721SOL    HW2 2550   0.890   0.373   6.175
  722SOL     OW 2551   1.017   0.039   6.339
  722SOL    HW1 2552   0.945   0.044   6.270
  722SOL    HW2 2553   0.993  -0.030   6.408
  723SOL     OW 2554   1.429   1.173   6.453
  723SOL    HW1 2555   1.374   1.089   6.446
  723SOL    HW2 2556   1.455   1.202   6.361
  724SOL     OW 2557   1.466   0.590   6.578
  724SOL    HW1 2558   1.436   0.495   6.585
  724SOL    HW2 2559   1.539   0.606   6.644
  725SOL     OW 2560   1.857   0.833   5.963
  725SOL    HW1 2561   1.899   0.769   6.027
  725SOL    HW2 2562   1.819   0.782   5.885
  726SOL     OW 2563   0.488   1.385   5.760
  726SOL    HW1 2564   0.401   1.370   5.807
  726SOL    HW2 2565   0.471   1.411   5.665
  727SOL     OW 2566   1.664   1.280   6.243
  727SOL    HW1 2567   1.763   1.288   6.257
  727SOL    HW2 2568   1.619   1.364   6.274
  728SOL     OW 2569   1.390   0.575   5.664
  728SOL    HW1 2570   1.336   0.554   5.745
  728SOL    HW2 2571   1.481   0.534   5.673
  729SOL     OW 2572   0.527   0.256   5.914
  729SOL    HW1 2573   0.554   0.197   5.839
  729SOL    HW2 2574   0.527   0.351   5.883
  730SOL     OW 2575   1.754   1.223   7.174
  730SOL    HW1 2576   1.845   1.184   7.161
  730SOL    HW2 2577   1.762   1.319   7.198
  731SOL     OW 2578   1.064   1.347   6.926
  731SOL    HW1 2579   0.984   1.324   6.981
  731SOL    HW2 2580   1.147   1.321   6.975
  732SOL     OW 2581   1.592   1.629   7.211
  732SOL    HW1 2582   1.619   1.663   7.121
  732SOL    HW2 2583   1.671   1.591   7.257
  733SOL     OW 2584   1.111   1.195   6.686
  733SOL    HW1 2585   1.071   1.239   6.767
  733SOL    HW2 2586   1.070   1.232   6.603
  734SOL     OW 2587   1.638   1.099   6.665
  734SOL    HW1 2588   1.643   1.180   6.724
  734SOL    HW2 2589   1.552   1.101   6.614
  735SOL     OW 2590   0.915   0.089   6.988
  735SOL    HW1 2591   0.940   0.069   6.893
  735SOL    HW2 2592   0.987   0.145   7.030
  736SOL     OW 2593   0.980   1.116   7.305
  736SOL    HW1 2594   0.881   1.122   7.315
  736SOL    HW2 2595   1.003   1.036   7.249
  737SOL     OW 2596   0.705   1.050   5.954
  737SOL    HW1 2597   0.691   1.057   6.053
  737SOL    HW2 2598   0.789   0.999   5.936
  738SOL     OW 2599   0.410   0.813   6.837
  738SOL    HW1 2600   0.496   0.825   6.887
  738SOL    HW2 2601   0.368   0.726   6.864
  739SOL     OW 2602   1.274   0.386   6.848
  739SOL    HW1 2603   1.295   0.460   6.912
  739SOL    HW2 2604   1.185   0.403   6.805
  740SOL     OW 2605   0.064   1.564   6.917
  740SOL    HW1 2606   0.018   1.646   6.883
  740SOL    HW2 2607   0.162   1.583   6.926
  741SOL     OW 2608   0.367   1.100   6.087
  741SOL    HW1 2609   0.360   1.183   6.031
  741SOL    HW2 2610   0.371   1.020   6.027
  742SOL     OW 2611   0.566   0.537   6.451
  742SOL    HW1 2612   0.578   0.603   6.377
  742SOL    HW2 2613   0.612   0.571   6.534
  743SOL     OW 2614   1.252   1.348   5.974
  743SOL    HW1 2615   1.302   1.425   6.014
  743SOL    HW2 2616   1.157   1.350   6.006
  744SOL     OW 2617   1.272   1.445   6.728
  744SOL    HW1 2618   1.319   1.458   6.815
  744SOL    HW2 2619   1.206   1.371   6.737
  745SOL     OW 2620   1.582   0.639   6.058
  745SOL    HW1 2621   1.551   0.700   6.131
  745SOL    HW2 2622   1.632   0.691   5.989
  746SOL     OW 2623   0.354   1.510   6.915
  746SOL    HW1 2624   0.333   1.466   6.828
  746SOL    HW2 2625   0.451   1.536   6.918
  747SOL     OW 2626   0.402   0.751   7.184
  747SOL    HW1 2627   0.470   0.806   7.137
  747SOL    HW2 2628   0.442   0.663   7.211
  748SOL     OW 2629   1.587   0.779   7.256
  748SOL    HW1 2630   1.495   0.817   7.251
  748SOL    HW2 2631   1.647   0.826   7.191
  749SOL     OW 2632   1.013   0.105   7.356
  749SOL    HW1 2633   1.019   0.190   7.304
  749SOL    HW2 2634   1.045   0.029   7.299
  750SOL     OW 2635   0.504   0.050   7.326
  750SOL    HW1 2636   0.462  -0.007   7.256
  750SOL    HW2 2637   0.438   0.119   7.358
  751SOL     OW 2638   0.573   0.870   6.615
  751SOL    HW1 2639   0.617   0.959   6.606
  751SOL    HW2 2640   0.510   0.870   6.692
  752SOL     OW 2641   1.360   0.862   6.631
  752SOL    HW1 2642   1.285   0.862   6.565
  752SOL    HW2 2643   1.397   0.770   6.640
  753SOL     OW 2644   1.209   0.525   5.861
  753SOL    HW1 2645   1.222   0.441   5.915
  753SOL    HW2 2646   1.180   0.599   5.921
  754SOL     OW 2647   0.307   0.213   6.817
  754SOL    HW1 2648   0.284   0.250   6.907
  754SOL    HW2 2649   0.277   0.118   6.811
  755SOL     OW 2650   0.037   1.310   6.868
  755SOL    HW1 2651   0.090   1.261   6.936
  755SOL    HW2 2652   0.059   1.408   6.873
  756SOL     OW 2653   0.732   0.634   6.650
  756SOL    HW1 2654   0.791   0.608   6.574
  756SOL    HW2 2655   0.704   0.730   6.639
  757SOL     OW 2656   1.728   0.935   7.440
  757SOL    HW1 2657   1.682   0.928   7.351
  757SOL    HW2 2658   1.666   0.979   7.506
  758SOL     OW 2659   0.307   0.063   6.204
  758SOL    HW1 2660   0.296   0.157   6.237
  758SOL    HW2 2661   0.302   0.000   6.281
  759SOL     OW 2662   1.622   0.367   5.960
  759SOL    HW1 2663   1.624   0.291   6.024
  759SOL    HW2 2664   1.574   0.444   6.000
  760SOL     OW 2665   1.023   0.766   6.552
  760SOL    HW1 2666   1.038   0.787   6.648
  760SOL    HW2 2667   0.993   0.671   6.543
  761SOL     OW 2668   0.980   1.573   7.286
  761SOL    HW1 2669   0.960   1.617   7.198
  761SOL    HW2 2670   1.019   1.482   7.270
  762SOL     OW 2671   1.859   1.518   7.191
  762SOL    HW1 2672   1.873   1.545   7.096
  762SOL    HW2 2673   1.942   1.540   7.244
  763SOL     OW 2674   0.350   0.898   7.390
  763SOL    HW1 2675   0.426   0.942   7.438
  763SOL    HW2 2676   0.385   0.851   7.308
  764SOL     OW 2677   1.540   0.274   5.711
  764SOL    HW1 2678   1.479   0.199   5.734
  764SOL    HW2 2679   1.562   0.326   5.794
  765SOL     OW 2680   1.303   0.838   5.628
  765SOL    HW1 2681   1.337   0.745   5.643
  765SOL    HW2 2682   1.321   0.865   5.533
  766SOL     OW 2683   1.068   1.333   6.435
  766SOL    HW1 2684   1.075   1.249   6.380
  766SOL    HW2 2685   1.130   1.402   6.399
  767SOL     OW 2686   0.319   0.810   6.535
  767SOL    HW1 2687   0.412   0.846   6.540
  767SOL    HW2 2688   0.313   0.725   6.587
  768SOL     OW 2689   0.339   0.509   6.592
  768SOL    HW1 2690   0.287   0.426   6.575
  768SOL    HW2 2691   0.416   0.514   6.528
  769SOL     OW 2692   1.138   0.380   7.264
  769SOL    HW1 2693   1.093   0.443   7.328
  769SOL    HW2 2694   1.231   0.411   7.247
  770SOL     OW 2695   1.160   0.207   7.063
  770SOL    HW1 2696   1.160   0.271   7.140
  770SOL    HW2 2697   1.188   0.255   6.980
  771SOL     OW 2698   0.008   1.326   5.786
  771SOL    HW1 2699  -0.085   1.347   5.755
  771SOL    HW2 2700   0.018   1.227   5.799
  772SOL     OW 2701   0.088   1.801   6.513
  772SOL    HW1 2702   0.046   1.715   6.486
  772SOL    HW2 2703   0.182   1.804   6.479
  773SOL     OW 2704   0.504   1.568   6.496
  773SOL    HW1 2705   0.570   1.642   6.505
  773SOL    HW2 2706   0.548   1.489   6.454
  774SOL     OW 2707   1.002   0.796   6.824
  774SOL    HW1 2708   1.043   0.764   6.910
  774SOL    HW2 2709   0.906   0.769   6.821
  775SOL     OW 2710   0.040   0.544   6.700
  775SOL    HW1 2711   0.125   0.511   6.659
  775SOL    HW2 2712   0.053   0.559   6.798
  776SOL     OW 2713   0.189   0.520   7.308
  776SOL    HW1 2714   0.248   0.480   7.238
  776SOL    HW2 2715   0.131   0.591   7.267
  777SOL     OW 2716   1.369   0.950   7.246
  777SOL    HW1 2717   1.408   1.039   7.266
  777SOL    HW2 2718   1.379   0.930   7.149
  778SOL     OW 2719   0.815   0.572   5.911
  778SOL    HW1 2720   0.822   0.483   5.865
  778SOL    HW2 2721   0.721   0.606   5.903
  779SOL     OW 2722   1.657   0.604   6.792
  779SOL    HW1 2723   1.619   0.535   6.854
  779SOL    HW2 2724   1.739   0.568   6.748
  780SOL     OW 2725   0.252   1.564   7.330
  780SOL    HW1 2726   0.222   1.621   7.406
  780SOL    HW2 2727   0.245   1.467   7.356
  781SOL     OW 2728   0.671   0.464   6.855
  781SOL    HW1 2729   0.637   0.375   6.825
  781SOL    HW2 2730   0.697   0.518   6.775
  782SOL     OW 2731   0.930   1.678   7.051
  782SOL    HW1 2732   0.906   1.660   6.956
  782SOL    HW2 2733   0.960   1.772   7.061
  783SOL     OW 2734   0.473   0.500   5.777
  783SOL    HW1 2735   0.534   0.580   5.781
  783SOL    HW2 2736   0.378   0.531   5.784
  784SOL     OW 2737   0.159   1.137   7.052
  784SOL    HW1 2738   0.181   1.076   7.128
  784SOL    HW2 2739   0.169   1.088   6.966
  785SOL     OW 2740   1.347   1.059   6.820
  785SOL    HW1 2741   1.371   0.996   6.746
  785SOL    HW2 2742   1.257   1.099   6.802
  786SOL     OW 2743   1.302   0.855   5.895
  786SOL    HW1 2744   1.216   0.824   5.937
  786SOL    HW2 2745   1.298   0.841   5.796
  787SOL     OW 2746   1.759   1.747   6.740
  787SOL    HW1 2747   1.820   1.777   6.667
  787SOL    HW2 2748   1.721   1.658   6.718
  788SOL     OW 2749   1.252   1.731   6.714
  788SOL    HW1 2750   1.336   1.736   6.660
  788SOL    HW2 2751   1.229   1.635   6.732
  789SOL     OW 2752   0.083   1.258   6.608
  789SOL    HW1 2753   0.078   1.257   6.708
  789SOL    HW2 2754   0.000   1.217   6.570
  790SOL     OW 2755   0.688   1.662   7.302
  790SOL    HW1 2756   0.632   1.743   7.311
  790SOL    HW2 2757   0.740   1.666   7.216
  791SOL     OW 2758   1.726   0.135   6.109
  791SOL    HW1 2759   1.799   0.118   6.042
  791SOL    HW2 2760   1.695   0.048   6.147
  792SOL     OW 2761   1.388   1.573   6.063
  792SOL    HW1 2762   1.455   1.585   5.989
  792SOL    HW2 2763   1.348   1.662   6.086
  793SOL     OW 2764   0.130   1.794   7.437
  793SOL    HW1 2765   0.089   1.720   7.490
  793SOL    HW2 2766   0.194   1.845   7.495
  794SOL     OW 2767   1.280   0.927   6.258
  794SOL    HW1 2768   1.340   0.846   6.260
  794SOL    HW2 2769   1.320   0.996   6.198
  795SOL     OW 2770   0.830   1.273   7.008
  795SOL    HW1 2771   0.825   1.306   7.103
  795SOL    HW2 2772   0.744   1.292   6.962
  796SOL     OW 2773   0.672   1.616   5.740
  796SOL    HW1 2774   0.681   1.626   5.641
  796SOL    HW2 2775   0.632   1.527   5.761
  797SOL     OW 2776   1.650   1.720   6.980
  797SOL    HW1 2777   1.703   1.730   6.896
  797SOL    HW2 2778   1.623   1.810   7.014
  798SOL     OW 2779   1.841   0.175   6.549
  798SOL    HW1 2780   1.880   0.090   6.513
  798SOL    HW2 2781   1.743   0.177   6.530
  799SOL     OW 2782   0.263   0.326   6.306
  799SOL    HW1 2783   0.184   0.377   6.272
  799SOL    HW2 2784   0.254   0.311   6.404
  800SOL     OW 2785   1.194   1.612   5.617
  800SOL    HW1 2786   1.200   1.519   5.654
  800SOL    HW2 2787   1.135   1.612   5.537
  801SOL     OW 2788   0.822   1.002   6.958
  801SOL    HW1 2789   0.862   1.001   6.866
  801SOL    HW2 2790   0.832   1.094   6.998
  802SOL     OW 2791   0.916   0.910   5.877
  802SOL    HW1 2792   0.979   0.948   5.809
  802SOL    HW2 2793   0.956   0.827   5.916
  803SOL     OW 2794   1.504   1.607   5.630
  803SOL    HW1 2795   1.412   1.644   5.637
  803SOL    HW2 2796   1.542   1.627   5.540
  804SOL     OW 2797   0.372   1.288   7.076
  804SOL    HW1 2798   0.359   1.381   7.042
  804SOL    HW2 2799   0.288   1.236   7.063
  805SOL     OW 2800   1.614   1.292   6.875
  805SOL    HW1 2801   1.674   1.295   6.955
  805SOL    HW2 2802   1.539   1.356   6.888
  806SOL     OW 2803   1.039   1.098   6.282
  806SOL    HW1 2804   0.969   1.051   6.336
  806SOL    HW2 2805   1.098   1.030   6.239
  807SOL     OW 2806   1.014   0.236   6.557
  807SOL    HW1 2807   1.006   0.200   6.464
  807SOL    HW2 2808   1.012   0.160   6.622
  808SOL     OW 2809   0.590   1.487   6.077
  808SOL    HW1 2810   0.632   1.429   6.007
  808SOL    HW2 2811   0.546   1.566   6.033
  809SOL     OW 2812   1.709   0.385   6.967
  809SOL    HW1 2813   1.782   0.454   6.971
  809SOL    HW2 2814   1.737   0.310   6.908
  810SOL     OW 2815   0.255   1.348   5.876
  810SOL    HW1 2816   0.159   1.349   5.849
  810SOL    HW2 2817   0.267   1.401   5.960
  811SOL     OW 2818   0.105   1.013   7.312
  811SOL    HW1 2819   0.028   0.980   7.366
  811SOL    HW2 2820   0.190   0.983   7.354
  812SOL     OW 2821   0.672   0.203   7.075
  812SOL    HW1 2822   0.762   0.187   7.035
  812SOL    HW2 2823   0.680   0.208   7.174
  813SOL     OW 2824   0.075   0.345   5.619
  813SOL    HW1 2825  -0.017   0.317   5.590
  813SOL    HW2 2826   0.106   0.422   5.563
  814SOL     OW 2827   1.440   0.856   6.984
  814SOL    HW1 2828   1.383   0.908   6.921
  814SOL    HW2 2829   1.536   0.868   6.960
  815SOL     OW 2830   0.072   0.166   5.904
  815SOL    HW1 2831   0.055   0.249   5.850
  815SOL    HW2 2832   0.162   0.129   5.882
  816SOL     OW 2833   1.183   1.335   5.705
  816SOL    HW1 2834   1.084   1.324   5.707
  816SOL    HW2 2835   1.217   1.350   5.798
  817SOL     OW 2836   0.613   0.842   7.017
  817SOL    HW1 2837   0.669   0.923   7.000
  817SOL    HW2 2838   0.672   0.762   7.020
  818SOL     OW 2839   1.493   1.767   6.545
  818SOL    HW1 2840   1.526   1.831   6.476
  818SOL    HW2 2841   1.559   1.761   6.620
  819SOL     OW 2842   0.716   0.565   7.294
  819SOL    HW1 2843   0.735   0.630   7.368
  819SOL    HW2 2844   0.776   0.485   7.303
  820SOL     OW 2845   1.450   1.220   7.219
  820SOL    HW1 2846   1.441   1.210   7.318
  820SOL    HW2 2847   1.546   1.213   7.193
  821SOL     OW 2848   0.390   1.741   7.146
  821SOL    HW1 2849   0.299   1.782   7.144
  821SOL    HW2 2850   0.383   1.647   7.178
  822SOL     OW 2851   1.674   0.883   6.840
  822SOL    HW1 2852   1.647   0.794   6.803
  822SOL    HW2 2853   1.675   0.951   6.767
  823SOL     OW 2854   1.225   0.325   6.035
  823SOL    HW1 2855   1.290   0.251   6.024
  823SOL    HW2 2856   1.245   0.375   6.119
  824SOL     OW 2857   0.594   0.745   6.238
  824SOL    HW1 2858   0.644   0.830   6.219
  824SOL    HW2 2859   0.506   0.747   6.190
  825SOL     OW 2860   1.777   0.342   7.228
  825SOL    HW1 2861   1.760   0.373   7.134
  825SOL    HW2 2862   1.693   0.305   7.266
  826SOL     OW 2863   1.730   0.934   7.103
  826SOL    HW1 2864   1.768   1.025   7.118
  826SOL    HW2 2865   1.722   0.917   7.004
  827SOL     OW 2866   0.859   1.374   5.602
  827SOL    HW1 2867   0.813   1.389   5.690
  827SOL    HW2 2868   0.903   1.459   5.572
  828SOL     OW 2869   0.661   1.790   6.539
  828SOL    HW1 2870   0.615   1.878   6.526
  828SOL    HW2 2871   0.760   1.802   6.532
  829SOL     OW 2872   0.859   0.956   6.447
  829SOL    HW1 2873   0.913   0.887   6.495
  829SOL    HW2 2874   0.827   1.025   6.513
  830SOL     OW 2875   1.083   0.984   5.673
  830SOL    HW1 2876   1.060   1.037   5.591
  830SOL    HW2 2877   1.164   0.928   5.654
  831SOL     OW 2878   1.861   1.569   6.437
  831SOL    HW1 2879   1.790   1.557   6.367
  831SOL    HW2 2880   1.862   1.490   6.497
  832SOL     OW 2881   0.221   1.314   7.430
  832SOL    HW1 2882   0.156   1.241   7.409
  832SOL    HW2 2883   0.225   1.328   7.528
  833SOL     OW 2884   0.079   1.240   6.239
  833SOL    HW1 2885   0.078   1.193   6.327
  833SOL    HW2 2886   0.161   1.212   6.188
  834SOL     OW 2887   0.672   1.391   7.210
  834SOL    HW1 2888   0.594   1.341   7.248
  834SOL    HW2 2889   0.669   1.486   7.241
  835SOL     OW 2890   1.824   0.192   6.813
  835SOL    HW1 2891   1.820   0.102   6.857
  835SOL    HW2 2892   1.827   0.181   6.714
  836SOL     OW 2893   0.428   0.424   6.106
  836SOL    HW1 2894   0.458   0.352   6.044
  836SOL    HW2 2895   0.389   0.384   6.189
  837SOL     OW 2896   1.705   1.487   6.690
  837SOL    HW1 2897   1.612   1.462   6.663
  837SOL    HW2 2898   1.731   1.437   6.772
  838SOL     OW 2899   0.317   0.547   6.866
  838SOL    HW1 2900   0.355   0.488   6.938
  838SOL    HW2 2901   0.357   0.521   6.778
  839SOL     OW 2902   0.812   1.586   6.273
  839SOL    HW1 2903   0.844   1.596   6.179
  839SOL    HW2 2904   0.733   1.524   6.275
  840SOL     OW 2905   1.424   0.214   6.698
  840SOL    HW1 2906   1.476   0.149   6.753
  840SOL    HW2 2907   1.375   0.277   6.759
  841SOL     OW 2908   1.001   0.034   6.740
  841SOL    HW1 2909   0.938  -0.038   6.709
  841SOL    HW2 2910   1.094  -0.002   6.740
  842SOL     OW 2911   0.770   1.330   5.887
  842SOL    HW1 2912   0.724   1.243   5.904
  842SOL    HW2 2913   0.861   1.327   5.928
  843SOL     OW 2914   0.618   1.567   6.870
  843SOL    HW1 2915   0.613   1.649   6.927
  843SOL    HW2 2916   0.707   1.564   6.825
  844SOL     OW 2917   1.352   0.052   5.754
  844SOL    HW1 2918   1.387   0.011   5.670
  844SOL    HW2 2919   1.262   0.014   5.774
  845SOL     OW 2920   1.300   0.453   6.277
  845SOL    HW1 2921   1.241   0.533   6.281
  845SOL    HW2 2922   1.315   0.418   6.370
  846SOL     OW 2923   1.593   0.221   6.468
  846SOL    HW1 2924   1.509   0.220   6.522
  846SOL    HW2 2925   1.595   0.304   6.412
  847SOL     OW 2926   0.039   1.077   5.886
  847SOL    HW1 2927   0.138   1.066   5.877
  847SOL    HW2 2928  -0.001   0.991   5.918
  848SOL     OW 2929   0.875   1.646   5.923
  848SOL    HW1 2930   0.798   1.611   5.869
  848SOL    HW2 2931   0.843   1.717   5.985
  849SOL     OW 2932   0.230   0.628   7.561
  849SOL    HW1 2933   0.137   0.626   7.598
  849SOL    HW2 2934   0.231   0.589   7.469
  850SOL     OW 2935   0.225   0.275   8.444
  850SOL    HW1 2936   0.260   0.258   8.536
  850SOL    HW2 2937   0.137   0.230   8.432
  851SOL     OW 2938   0.019   0.368   8.095
  851SOL    HW1 2939  -0.063   0.411   8.134
  851SOL    HW2 2940  -0.009   0.295   8.032
  852SOL     OW 2941   0.569   1.275   8.613
  852SOL    HW1 2942   0.476   1.268   8.576
  852SOL    HW2 2943   0.580   1.364   8.657
  853SOL     OW 2944   1.555   1.511   8.151
  853SOL    HW1 2945   1.498   1.495   8.232
  853SOL    HW2 2946   1.496   1.521   8.071
  854SOL     OW 2947   1.135   0.703   8.165
  854SOL    HW1 2948   1.192   0.781   8.140
  854SOL    HW2 2949   1.075   0.729   8.241
  855SOL     OW 2950   1.755   0.607   7.679
  855SOL    HW1 2951   1.743   0.594   7.580
  855SOL    HW2 2952   1.725   0.526   7.728
  856SOL     OW 2953   0.768   1.144   8.471
  856SOL    HW1 2954   0.690   1.161   8.531
  856SOL    HW2 2955   0.802   1.231   8.435
  857SOL     OW 2956   0.850   0.798   9.271
  857SOL    HW1 2957   0.846   0.874   9.336
  857SOL    HW2 2958   0.872   0.834   9.180
  858SOL     OW 2959   0.685   1.012   8.113
  858SOL    HW1 2960   0.754   0.996   8.183
  858SOL    HW2 2961   0.612   1.069   8.151
  859SOL     OW 2962   0.686   1.161   9.251
  859SOL    HW1 2963   0.746   1.240   9.265
  859SOL    HW2 2964   0.600   1.192   9.210
  860SOL     OW 2965   0.335   1.435   8.509
  860SOL    HW1 2966   0.257   1.404   8.456
  860SOL    HW2 2967   0.393   1.493   8.452
  861SOL     OW 2968   1.460   1.505   8.787
  861SOL    HW1 2969   1.484   1.599   8.813
  861SOL    HW2 2970   1.444   1.451   8.869
  862SOL     OW 2971   0.438   0.392   8.947
  862SOL    HW1 2972   0.520   0.336   8.956
  862SOL    HW2 2973   0.357   0.334   8.951
  863SOL     OW 2974   1.603   0.447   8.185
  863SOL    HW1 2975   1.529   0.493   8.135
  863SOL    HW2 2976   1.654   0.515   8.238
  864SOL     OW 2977   0.231   1.713   7.931
  864SOL    HW1 2978   0.265   1.790   7.985
  864SOL    HW2 2979   0.275   1.713   7.841
  865SOL     OW 2980   1.127   1.341   9.138
  865SOL    HW1 2981   1.174   1.341   9.226
  865SOL    HW2 2982   1.079   1.254   9.127
  866SOL     OW 2983   0.230   1.434   7.986
  866SOL    HW1 2984   0.204   1.530   7.986
  866SOL    HW2 2985   0.159   1.380   8.031
  867SOL     OW 2986   0.240   1.091   8.334
  867SOL    HW1 2987   0.254   1.007   8.386
  867SOL    HW2 2988   0.185   1.155   8.389
  868SOL     OW 2989   0.620   1.786   8.887
  868SOL    HW1 2990   0.528   1.769   8.922
  868SOL    HW2 2991   0.648   1.878   8.913
  869SOL     OW 2992   0.606   0.964   7.571
  869SOL    HW1 2993   0.613   1.048   7.517
  869SOL    HW2 2994   0.652   0.977   7.659
  870SOL     OW 2995   1.594   0.114   8.928
  870SOL    HW1 2996   1.576   0.181   8.856
  870SOL    HW2 2997   1.591   0.160   9.017
  871SOL     OW 2998   0.122   0.643   8.011
  871SOL    HW1 2999   0.077   0.555   8.028
  871SOL    HW2 3000   0.121   0.697   8.095
  872SOL     OW 3001   1.842   1.767   7.807
  872SOL    HW1 3002   1.896   1.738   7.887
  872SOL    HW2 3003   1.872   1.857   7.778
  873SOL     OW 3004   0.027   1.596   7.565
  873SOL    HW1 3005   0.008   1.500   7.586
  873SOL    HW2 3006  -0.006   1.654   7.640
  874SOL     OW 3007   1.689   0.922   8.060
  874SOL    HW1 3008   1.784   0.893   8.068
  874SOL    HW2 3009   1.681   0.987   7.985
  875SOL     OW 3010   1.641   1.108   7.880
  875SOL    HW1 3011   1.727   1.110   7.828
  875SOL    HW2 3012   1.655   1.155   7.968
  876SOL     OW 3013   0.113   0.737   9.045
  876SOL    HW1 3014   0.201   0.724   9.090
  876SOL    HW2 3015   0.100   0.834   9.023
  877SOL     OW 3016   0.613   1.365   8.174
  877SOL    HW1 3017   0.564   1.278   8.183
  877SOL    HW2 3018   0.590   1.408   8.087
  878SOL     OW 3019   1.293   1.228   8.871
  878SOL    HW1 3020   1.330   1.155   8.813
  878SOL    HW2 3021   1.345   1.233   8.956
  879SOL     OW 3022   0.809   0.004   7.950
  879SOL    HW1 3023   0.849   0.095   7.941
  879SOL    HW2 3024   0.709   0.012   7.956
  880SOL     OW 3025   0.197   0.976   8.712
  880SOL    HW1 3026   0.286   0.931   8.698
  880SOL    HW2 3027   0.124   0.911   8.693
  881SOL     OW 3028   1.525   0.999   7.638
  881SOL    HW1 3029   1.462   0.923   7.651
  881SOL    HW2 3030   1.573   1.017   7.724
  882SOL     OW 3031   1.187   1.792   9.064
  882SOL    HW1 3032   1.211   1.852   8.988
  882SOL    HW2 3033   1.194   1.697   9.034
  883SOL     OW 3034   0.317   0.251   9.249
  883SOL    HW1 3035   0.388   0.322   9.255
  883SOL    HW2 3036   0.229   0.290   9.277
  884SOL     OW 3037   1.466   1.417   8.401
  884SOL    HW1 3038   1.407   1.423   8.481
  884SOL    HW2 3039   1.451   1.329   8.355
  885SOL     OW 3040   1.667   1.714   8.020
  885SOL    HW1 3041   1.626   1.691   7.932
  885SOL    HW2 3042   1.649   1.640   8.085
  886SOL     OW 3043   0.598   0.729   7.718
  886SOL    HW1 3044   0.622   0.798   7.650
  886SOL    HW2 3045   0.520   0.762   7.772
  887SOL     OW 3046   1.281   0.345   8.392
  887SOL    HW1 3047   1.195   0.295   8.379
  887SOL    HW2 3048   1.343   0.291   8.448
  888SOL     OW 3049   1.576   1.662   7.755
  888SOL    HW1 3050   1.665   1.708   7.758
  888SOL    HW2 3051   1.555   1.638   7.660
  889SOL     OW 3052   0.807   0.605   8.913
  889SOL    HW1 3053   0.760   0.602   9.002
  889SOL    HW2 3054   0.756   0.550   8.847
  890SOL     OW 3055   1.394   0.469   9.122
  890SOL    HW1 3056   1.374   0.512   9.210
  890SOL    HW2 3057   1.472   0.407   9.131
  891SOL     OW 3058   0.973   0.890   9.020
  891SOL    HW1 3059   1.019   0.806   8.991
  891SOL    HW2 3060   0.917   0.924   8.945
  892SOL     OW 3061   0.991   0.410   8.690
  892SOL    HW1 3062   0.914   0.444   8.744
  892SOL    HW2 3063   0.957   0.359   8.611
  893SOL     OW 3064   1.041   0.701   7.877
  893SOL    HW1 3065   1.067   0.697   7.973
  893SOL    HW2 3066   0.956   0.650   7.863
  894SOL     OW 3067   0.076   0.811   8.237
  894SOL    HW1 3068   0.175   0.799   8.246
  894SOL    HW2 3069   0.052   0.906   8.258
  895SOL     OW 3070   0.130   1.821   9.019
  895SOL    HW1 3071   0.120   1.806   9.118
  895SOL    HW2 3072   0.044   1.857   8.983
  896SOL     OW 3073   0.865   0.348   7.643
  896SOL    HW1 3074   0.924   0.411   7.594
  896SOL    HW2 3075   0.884   0.254   7.614
  897SOL     OW 3076   1.719   0.585   9.279
  897SOL    HW1 3077   1.693   0.674   9.243
  897SOL    HW2 3078   1.717   0.517   9.206
  898SOL     OW 3079   1.362   1.144   7.993
  898SOL    HW1 3080   1.445   1.115   7.945
  898SOL    HW2 3081   1.313   1.211   7.937
  899SOL     OW 3082   0.550   0.196   8.333
  899SOL    HW1 3083   0.545   0.191   8.433
  899SOL    HW2 3084   0.552   0.292   8.304
  900SOL     OW 3085   1.008   1.456   7.925
  900SOL    HW1 3086   0.962   1.528   7.873
  900SOL    HW2 3087   1.004   1.476   8.023
  901SOL     OW 3088   0.351   1.801   8.301
  901SOL    HW1 3089   0.401   1.715   8.307
  901SOL    HW2 3090   0.416   1.878   8.298
  902SOL     OW 3091   1.795   1.066   8.321
  902SOL    HW1 3092   1.733   1.051   8.245
  902SOL    HW2 3093   1.743   1.077   8.406
  903SOL     OW 3094   1.227   1.550   8.954
  903SOL    HW1 3095   1.233   1.473   9.018
  903SOL    HW2 3096   1.175   1.524   8.874
  904SOL     OW 3097   0.321   0.943   7.690
  904SOL    HW1 3098   0.403   0.982   7.648
  904SOL    HW2 3099   0.294   0.861   7.641
  905SOL     OW 3100   1.458   0.735   8.176
  905SOL    HW1 3101   1.453   0.670   8.251
  905SOL    HW2 3102   1.538   0.794   8.189
  906SOL     OW 3103   0.461   1.266   9.175
  906SOL    HW1 3104   0.411   1.267   9.089
  906SOL    HW2 3105   0.398   1.248   9.251
  907SOL     OW 3106   1.111   1.776   7.685
  907SOL    HW1 3107   1.051   1.714   7.735
  907SOL    HW2 3108   1.142   1.732   7.600
  908SOL     OW 3109   0.202   0.285   8.946
  908SOL    HW1 3110   0.122   0.345   8.933
  908SOL    HW2 3111   0.192   0.236   9.032
  909SOL     OW 3112   1.632   1.377   7.529
  909SOL    HW1 3113   1.600   1.471   7.519
  909SOL    HW2 3114   1.556   1.314   7.517
  910SOL     OW 3115   0.464   1.743   7.771
  910SOL    HW1 3116   0.497   1.782   7.857
  910SOL    HW2 3117   0.540   1.736   7.706
  911SOL     OW 3118   1.400   0.107   7.874
  911SOL    HW1 3119   1.376   0.070   7.784
  911SOL    HW2 3120   1.499   0.123   7.878
  912SOL     OW 3121   0.249   1.785   8.689
  912SOL    HW1 3122   0.306   1.720   8.739
  912SOL    HW2 3123   0.233   1.752   8.596
  913SOL     OW 3124   0.940   1.698   8.352
  913SOL    HW1 3125   1.020   1.641   8.373
  913SOL    HW2 3126   0.891   1.658   8.275
  914SOL     OW 3127   0.382   0.700   7.928
  914SOL    HW1 3128   0.427   0.610   7.925
  914SOL    HW2 3129   0.288   0.689   7.961
  915SOL     OW 3130   1.547   0.222   9.177
  915SOL    HW1 3131   1.542   0.259   9.269
  915SOL    HW2 3132   1.475   0.153   9.165
  916SOL     OW 3133   0.614   0.122   7.565
  916SOL    HW1 3134   0.712   0.100   7.572
  916SOL    HW2 3135   0.583   0.105   7.472
  917SOL     OW 3136   0.781   0.264   9.197
  917SOL    HW1 3137   0.848   0.203   9.240
  917SOL    HW2 3138   0.708   0.283   9.262
  918SOL     OW 3139   0.888   1.514   8.643
  918SOL    HW1 3140   0.865   1.489   8.549
  918SOL    HW2 3141   0.949   1.445   8.682
  919SOL     OW 3142   1.351   0.590   8.881
  919SOL    HW1 3143   1.379   0.547   8.966
  919SOL    HW2 3144   1.376   0.686   8.882
  920SOL     OW 3145   0.803   1.402   8.372
  920SOL    HW1 3146   0.893   1.416   8.330
  920SOL    HW2 3147   0.732   1.404   8.301
  921SOL     OW 3148   0.922   0.503   8.347
  921SOL    HW1 3149   0.897   0.494   8.251
  921SOL    HW2 3150   0.970   0.421   8.378
  922SOL     OW 3151   0.539   0.064   7.960
  922SOL    HW1 3152   0.458   0.065   8.018
  922SOL    HW2 3153   0.542   0.147   7.905
  923SOL     OW 3154   1.434   1.188   7.489
  923SOL    HW1 3155   1.466   1.112   7.546
  923SOL    HW2 3156   1.342   1.215   7.519
  924SOL     OW 3157   0.297   0.035   7.619
  924SOL    HW1 3158   0.346   0.119   7.598
  924SOL    HW2 3159   0.359  -0.030   7.664
  925SOL     OW 3160   0.935   0.236   7.928
  925SOL    HW1 3161   0.887   0.277   7.850
  925SOL    HW2 3162   1.034   0.234   7.909
  926SOL     OW 3163   1.076   0.683   8.912
  926SOL    HW1 3164   0.996   0.622   8.915
  926SOL    HW2 3165   1.157   0.630   8.888
  927SOL     OW 3166   1.227   1.570   8.241
  927SOL    HW1 3167   1.248   1.644   8.176
  927SOL    HW2 3168   1.295   1.570   8.314
  928SOL     OW 3169   0.459   1.152   8.189
  928SOL    HW1 3170   0.388   1.125   8.254
  928SOL    HW2 3171   0.433   1.124   8.096
  929SOL     OW 3172   1.271   1.797   8.039
  929SOL    HW1 3173   1.315   1.861   7.975
  929SOL    HW2 3174   1.221   1.849   8.109
  930SOL     OW 3175   1.032   0.549   7.464
  930SOL    HW1 3176   0.991   0.631   7.425
  930SOL    HW2 3177   1.096   0.575   7.537
  931SOL     OW 3178   0.078   0.556   8.834
  931SOL    HW1 3179   0.170   0.555   8.793
  931SOL    HW2 3180   0.072   0.630   8.901
  932SOL     OW 3181   0.561   0.222   8.595
  932SOL    HW1 3182   0.599   0.138   8.632
  932SOL    HW2 3183   0.473   0.241   8.639
  933SOL     OW 3184   0.866   0.454   8.090
  933SOL    HW1 3185   0.834   0.526   8.028
  933SOL    HW2 3186   0.890   0.373   8.037
  934SOL     OW 3187   1.017   0.039   8.201
  934SOL    HW1 3188   0.945   0.044   8.132
  934SOL    HW2 3189   0.993  -0.030   8.270
  935SOL     OW 3190   1.429   1.173   8.315
  935SOL    HW1 3191   1.374   1.089   8.308
  935SOL    HW2 3192   1.455   1.202   8.223
  936SOL     OW 3193   1.466   0.590   8.440
  936SOL    HW1 3194   1.436   0.495   8.447
  936SOL    HW2 3195   1.539   0.606   8.506
  937SOL     OW 3196   1.857   0.833   7.825
  937SOL    HW1 3197   1.899   0.769   7.889
  937SOL    HW2 3198   1.819   0.782   7.747
  938SOL     OW 3199   0.488   1.385   7.622
  938SOL    HW1 3200   0.401   1.370   7.669
  938SOL    HW2 3201   0.471   1.411   7.527
  939SOL     OW 3202   1.664   1.280   8.105
  939SOL    HW1 3203   1.763   1.288   8.119
  939SOL    HW2 3204   1.619   1.364   8.136
  940SOL     OW 3205   1.390   0.575   7.526
  940SOL    HW1 3206   1.336   0.554   7.607
  940SOL    HW2 3207   1.481   0.534   7.535
  941SOL     OW 3208   0.527   0.256   7.776
  941SOL    HW1 3209   0.554   0.197   7.701
  941SOL    HW2 3210   0.527   0.351   7.745
  942SOL     OW 3211   1.754   1.223   9.036
  942SOL    HW1 3212   1.845   1.184   9.023
  942SOL    HW2 3213   1.762   1.319   9.060
  943SOL     OW 3214   1.064   1.347   8.788
  943SOL    HW1 3215   0.984   1.324   8.843
  943SOL    HW2 3216   1.147   1.321   8.837
  944SOL     OW 3217   1.592   1.629   9.073
  944SOL    HW1 3218   1.619   1.663   8.983
  944SOL    HW2 3219   1.671   1.591   9.119
  945SOL     OW 3220   1.111   1.195   8.548
  945SOL    HW1 3221   1.071   1.239   8.629
  945SOL    HW2 3222   1.070   1.232   8.465
  946SOL     OW 3223   1.638   1.099   8.527
  946SOL    HW1 3224   1.643   1.180   8.586
  946SOL    HW2 3225   1.552   1.101   8.476
  947SOL     OW 3226   0.915   0.089   8.850
  947SOL    HW1 3227   0.940   0.069   8.755
  947SOL    HW2 3228   0.987   0.145   8.892
  948SOL     OW 3229   0.980   1.116   9.167
  948SOL    HW1 3230   0.881   1.122   9.177
  948SOL    HW2 3231   1.003   1.036   9.111
  949SOL     OW 3232   0.705   1.050   7.816
  949SOL    HW1 3233   0.691   1.057   7.915
  949SOL    HW2 3234   0.789   0.999   7.798
  950SOL     OW 3235   0.410   0.813   8.699
  950SOL    HW1 3236   0.496   0.825   8.749
  950SOL    HW2 3237   0.368   0.726   8.726
  951SOL     OW 3238   1.274   0.386   8.710
  951SOL    HW1 3239   1.295   0.460   8.774
  951SOL    HW2 3240   1.185   0.403   8.667
  952SOL     OW 3241   0.064   1.564   8.779
  952SOL    HW1 3242   0.018   1.646   8.745
  952SOL    HW2 3243   0.162   1.583   8.788
  953SOL     OW 3244   0.367   1.100   7.949
  953SOL    HW1 3245   0.360   1.183   7.893
  953SOL    HW2 3246   0.371   1.020   7.889
  954SOL     OW 3247   0.566   0.537   8.313
  954SOL    HW1 3248   0.578   0.603   8.239
  954SOL    HW2 3249   0.612   0.571   8.396
  955SOL     OW 3250   1.252   1.348   7.836
  955SOL    HW1 3251   1.302   1.425   7.876
  955SOL    HW2 3252   1.157   1.350   7.868
  956SOL     OW 3253   1.272   1.445   8.590
  956SOL    HW1 3254   1.319   1.458   8.677
  956SOL    HW2 3255   1.206   1.371   8.599
  957SOL     OW 3256   1.582   0.639   7.920
  957SOL    HW1 3257   1.551   0.700   7.993
  957SOL    HW2 3258   1.632   0.691   7.851
  958SOL     OW 3259   0.354   1.510   8.777
  958SOL    HW1 3260   0.333   1.466   8.690
  958SOL    HW2 3261   0.451   1.536   8.780
  959SOL     OW 3262   0.402   0.751   9.046
  959SOL    HW1 3263   0.470   0.806   8.999
  959SOL    HW2 3264   0.442   0.663   9.073
  960SOL     OW 3265   1.587   0.779   9.118
  960SOL    HW1 3266   1.495   0.817   9.113
  960SOL    HW2 3267   1.647   0.826   9.053
  961SOL     OW 3268   1.013   0.105   9.218
  961SOL    HW1 3269   1.019   0.190   9.166
  961SOL    HW2 3270   1.045   0.029   9.161
  962SOL     OW 3271   0.504   0.050   9.188
  962SOL    HW1 3272   0.462  -0.007   9.118
  962SOL    HW2 3273   0.438   0.119   9.220
  963SOL     OW 3274   0.573   0.870   8.477
  963SOL    HW1 3275   0.617   0.959   8.468
  963SOL    HW2 3276   0.510   0.870   8.554
  964SOL     OW 3277   1.360   0.862   8.493
  964SOL    HW1 3278   1.285   0.862   8.427
  964SOL    HW2 3279   1.397   0.770   8.502
  965SOL     OW 3280   1.209   0.525   7.723
  965SOL    HW1 3281   1.222   0.441   7.777
  965SOL    HW2 3282   1.180   0.599   7.783
  966SOL     OW 3283   0.307   0.213   8.679
  966SOL    HW1 3284   0.284   0.250   8.769
  966SOL    HW2 3285   0.277   0.118   8.673
  967SOL     OW 3286   0.037   1.310   8.730
  967SOL    HW1 3287   0.090   1.261   8.798
  967SOL    HW2 3288   0.059   1.408   8.735
  968SOL     OW 3289   0.732   0.634   8.512
  968SOL    HW1 3290   0.791   0.608   8.436
  968SOL    HW2 3291   0.704   0.730   8.501
  969SOL     OW 3292   1.728   0.935   9.302
  969SOL    HW1 3293   1.682   0.928   9.213
  969SOL    HW2 3294   1.666   0.979   9.368
  970SOL     OW 3295   0.307   0.063   8.066
  970SOL    HW1 3296   0.296   0.157   8.099
  970SOL    HW2 3297   0.302   0.000   8.143
  971SOL     OW 3298   1.622   0.367   7.822
  971SOL    HW1 3299   1.624   0.291   7.886
  971SOL    HW2 3300   1.574   0.444   7.862
  972SOL     OW 3301   1.023   0.766   8.414
  972SOL    HW1 3302   1.038   0.787   8.510
  972SOL    HW2 3303   0.993   0.671   8.405
  973SOL     OW 3304   0.980   1.573   9.148
  973SOL    HW1 3305   0.960   1.617   9.060
  973SOL    HW2 3306   1.019   1.482   9.132
  974SOL     OW 3307   1.859   1.518   9.053
  974SOL    HW1 3308   1.873   1.545   8.958
  974SOL    HW2 3309   1.942   1.540   9.106
  975SOL     OW 3310   0.350   0.898   9.252
  975SOL    HW1 3311   0.426   0.942   9.300
  975SOL    HW2 3312   0.385   0.851   9.170
  976SOL     OW 3313   1.540   0.274   7.573
  976SOL    HW1 3314   1.479   0.199   7.596
  976SOL    HW2 3315   1.562   0.326   7.656
  977SOL     OW 3316   1.303   0.838   7.490
  977SOL    HW1 3317   1.337   0.745   7.505
  977SOL    HW2 3318   1.321   0.865   7.395
  978SOL     OW 3319   1.068   1.333   8.297
  978SOL    HW1 3320   1.075   1.249   8.242
  978SOL    HW2 3321   1.130   1.402   8.261
  979SOL     OW 3322   0.319   0.810   8.397
  979SOL    HW1 3323   0.412   0.846   8.402
  979SOL    HW2 3324   0.313   0.725   8.449
  980SOL     OW 3325   0.339   0.509   8.454
  980SOL    HW1 3326   0.287   0.426   8.437
  980SOL    HW2 3327   0.416   0.514   8.390
  981SOL     OW 3328   1.138   0.380   9.126
  981SOL    HW1 3329   1.093   0.443   9.190
  981SOL    HW2 3330   1.231   0.411   9.109
  982SOL     OW 3331   1.160   0.207   8.925
  982SOL    HW1 3332   1.160   0.271   9.002
  982SOL    HW2 3333   1.188   0.255   8.842
  983SOL     OW 3334   0.008   1.326   7.648
  983SOL    HW1 3335  -0.085   1.347   7.617
  983SOL    HW2 3336   0.018   1.227   7.661
  984SOL     OW 3337   0.088   1.801   8.375
  984SOL    HW1 3338   0.046   1.715   8.348
  984SOL    HW2 3339   0.182   1.804   8.341
  985SOL     OW 3340   0.504   1.568   8.358
  985SOL    HW1 3341   0.570   1.642   8.367
  985SOL    HW2 3342   0.548   1.489   8.316
  986SOL     OW 3343   1.002   0.796   8.686
  986SOL    HW1 3344   1.043   0.764   8.772
  986SOL    HW2 3345   0.906   0.769   8.683
  987SOL     OW 3346   0.040   0.544   8.562
  987SOL    HW1 3347   0.125   0.511   8.521
  987SOL    HW2 3348   0.053   0.559   8.660
  988SOL     OW 3349   0.189   0.520   9.170
  988SOL    HW1 3350   0.248   0.480   9.100
  988SOL    HW2 3351   0.131   0.591   9.129
  989SOL     OW 3352   1.369   0.950   9.108
  989SOL    HW1 3353   1.408   1.039   9.128
  989SOL    HW2 3354   1.379   0.930   9.011
  990SOL     OW 3355   0.815   0.572   7.773
  990SOL    HW1 3356   0.822   0.483   7.727
  990SOL    HW2 3357   0.721   0.606   7.765
  991SOL     OW 3358   1.657   0.604   8.654
  991SOL    HW1 3359   1.619   0.535   8.716
  991SOL    HW2 3360   1.739   0.568   8.610
  992SOL     OW 3361   0.252   1.564   9.192
  992SOL    HW1 3362   0.222   1.621   9.268
  992SOL    HW2 3363   0.245   1.467   9.218
  993SOL     OW 3364   0.671   0.464   8.717
  993SOL    HW1 3365   0.637   0.375   8.687
  993SOL    HW2 3366   0.697   0.518   8.637
  994SOL     OW 3367   0.930   1.678   8.913
  994SOL    HW1 3368   0.906   1.660   8.818
  994SOL    HW2 3369   0.960   1.772   8.923
  995SOL     OW 3370   0.473   0.500   7.639
  995SOL    HW1 3371   0.534   0.580   7.643
  995SOL    HW2 3372   0.378   0.531   7.646
  996SOL     OW 3373   0.159   1.137   8.914
  996SOL    HW1 3374   0.181   1.076   8.990
  996SOL    HW2 3375   0.169   1.088   8.828
  997SOL     OW 3376   1.347   1.059   8.682
  997SOL    HW1 3377   1.371   0.996   8.608
  997SOL    HW2 3378   1.257   1.099   8.664
  998SOL     OW 3379   1.302   0.855   7.757
  998SOL    HW1 3380   1.216   0.824   7.799
  998SOL    HW2 3381   1.298   0.841   7.658
  999SOL     OW 3382   1.759   1.747   8.602
  999SOL    HW1 3383   1.820   1.777   8.529
  999SOL    HW2 3384   1.721   1.658   8.580
 1000SOL     OW 3385   1.252   1.731   8.576
 1000SOL    HW1 3386   1.336   1.736   8.522
 1000SOL    HW2 3387   1.229   1.635   8.594
 1001SOL     OW 3388   0.083   1.258   8.470
 1001SOL    HW1 3389   0.078   1.257   8.570
 1001SOL    HW2 3390   0.000   1.217   8.432
 1002SOL     OW 3391   0.688   1.662   9.164
 1002SOL    HW1 3392   0.632   1.743   9.173
 1002SOL    HW2 3393   0.740   1.666   9.078
 1003SOL     OW 3394   1.726   0.135   7.971
 1003SOL    HW1 3395   1.799   0.118   7.904
 1003SOL    HW2 3396   1.695   0.048   8.009
 1004SOL     OW 3397   1.388   1.573   7.925
 1004SOL    HW1 3398   1.455   1.585   7.851
 1004SOL    HW2 3399   1.348   1.662   7.948
 1005SOL     OW 3400   0.130   1.794   9.299
 1005SOL    HW1 3401   0.089   1.720   9.352
 1005SOL    HW2 3402   0.194   1.845   9.357
 1006SOL     OW 3403   1.280   0.927   8.120
 1006SOL    HW1 3404   1.340   0.846   8.122
 1006SOL    HW2 3405   1.320   0.996   8.060
 1007SOL     OW 3406   0.830   1.273   8.870
 1007SOL    HW1 3407   0.825   1.306   8.965
 1007SOL    HW2 3408   0.744   1.292   8.824
 1008SOL     OW 3409   0.672   1.616   7.602
 1008SOL    HW1 3410   0.681   1.626   7.503
 1008SOL    HW2 3411   0.632   1.527   7.623
 1009SOL     OW 3412   1.650   1.720   8.842
 1009SOL    HW1 3413   1.703   1.730   8.758
 1009SOL    HW2 3414   1.623   1.810   8.876
 1010SOL     OW 3415   1.841   0.175   8.411
 1010SOL    HW1 3416   1.880   0.090   8.375
 1010SOL    HW2 3417   1.743   0.177   8.392
 1011SOL     OW 3418   0.263   0.326   8.168
 1011SOL    HW1 3419   0.184   0.377   8.134
 1011SOL    HW2 3420   0.254   0.311   8.266
 1012SOL     OW 3421   1.194   1.612   7.479
 1012SOL    HW1 3422   1.200   1.519   7.516
 1012SOL    HW2 3423   1.135   1.612   7.399
 1013SOL     OW 3424   0.822   1.002   8.820
 1013SOL    HW1 3425   0.862   1.001   8.728
 1013SOL    HW2 3426   0.832   1.094   8.860
 1014SOL     OW 3427   0.916   0.910   7.739
 1014SOL    HW1 3428   0.979   0.948   7.671
 1014SOL    HW2 3429   0.956   0.827   7.778
 1015SOL     OW 3430   1.504   1.607   7.492
 1015SOL    HW1 3431   1.412   1.644   7.499
 1015SOL    HW2 3432   1.542   1.627   7.402
 1016SOL     OW 3433   0.372   1.288   8.938
 1016SOL    HW1 3434   0.359   1.381   8.904
 1016SOL    HW2 3435   0.288   1.236   8.925
 1017SOL     OW 3436   1.614   1.292   8.737
 1017SOL    HW1 3437   1.674   1.295   8.817
 1017SOL    HW2 3438   1.539   1.356   8.750
 1018SOL     OW 3439   1.039   1.098   8.144
 1018SOL    HW1 3440   0.969   1.051   8.198
 1018SOL    HW2 3441   1.098   1.030   8.101
 1019SOL     OW 3442   1.014   0.236   8.419
 1019SOL    HW1 3443   1.006   0.200   8.326
 1019SOL    HW2 3444   1.012   0.160   8.484
 1020SOL     OW 3445   0.590   1.487   7.939
 1020SOL    HW1 3446   0.632   1.429   7.869
 1020SOL    HW2 3447   0.546   1.566   7.895
 1021SOL     OW 3448   1.709   0.385   8.829
 1021SOL    HW1 3449   1.782   0.454   8.833
 1021SOL    HW2 3450   1.737   0.310   8.770
 1022SOL     OW 3451   0.255   1.348   7.738
 1022SOL    HW1 3452   0.159   1.349   7.711
 1022SOL    HW2 3453   0.267   1.401   7.822
 1023SOL     OW 3454   0.105   1.013   9.174
 1023SOL    HW1 3455   0.028   0.980   9.228
 1023SOL    HW2 3456   0.190   0.983   9.216
 1024SOL     OW 3457   0.672   0.203   8.937
 1024SOL    HW1 3458   0.762   0.187   8.897
 1024SOL    HW2 3459   0.680   0.208   9.036
 1025SOL     OW 3460   0.075   0.345   7.481
 1025SOL    HW1 3461  -0.017   0.317   7.452
 1025SOL    HW2 3462   0.106   0.422   7.425
 1026SOL     OW 3463   1.440   0.856   8.846
 1026SOL    HW1 3464   1.383   0.908   8.783
 1026SOL    HW2 3465   1.536   0.868   8.822
 1027SOL     OW 3466   0.072   0.166   7.766
 1027SOL    HW1 3467   0.055   0.249   7.712
 1027SOL    HW2 3468   0.162   0.129   7.744
 1028SOL     OW 3469   1.183   1.335   7.567
 1028SOL    HW1 3470   1.084   1.324   7.569
 1028SOL    HW2 3471   1.217   1.350   7.660
 1029SOL     OW 3472   0.613   0.842   8.879
 1029SOL    HW1 3473   0.669   0.923   8.862
 1029SOL    HW2 3474   0.672   0.762   8.882
 1030SOL     OW 3475   1.493   1.767   8.407
 1030SOL    HW1 3476   1.526   1.831   8.338
 1030SOL    HW2 3477   1.559   1.761   8.482
 1031SOL     OW 3478   0.716   0.565   9.156
 1031SOL    HW1 3479   0.735   0.630   9.230
 1031SOL    HW2 3480   0.776   0.485   9.165
 1032SOL     OW 3481   1.450   1.220   9.081
 1032SOL    HW1 3482   1.441   1.210   9.180
 1032SOL    HW2 3483   1.546   1.213   9.055
 1033SOL     OW 3484   0.390   1.741   9.008
 1033SOL    HW1 3485   0.299   1.782   9.006
 1033SOL    HW2 3486   0.383   1.647   9.040
 1034SOL     OW 3487   1.674   0.883   8.702
 1034SOL    HW1 3488   1.647   0.794   8.665
 1034SOL    HW2 3489   1.675   0.951   8.629
 1035SOL     OW 3490   1.225   0.325   7.897
 1035SOL    HW1 3491   1.290   0.251   7.886
 1035SOL    HW2 3492   1.245   0.375   7.981
 1036SOL     OW 3493   0.594   0.745   8.100
 1036SOL    HW1 3494   0.644   0.830   8.081
 1036SOL    HW2 3495   0.506   0.747   8.052
 1037SOL     OW 3496   1.777   0.342   9.090
 1037SOL    HW1 3497   1.760   0.373   8.996
 1037SOL    HW2 3498   1.693   0.305   9.128
 1038SOL     OW 3499   1.730   0.934   8.965
 1038SOL    HW1 3500   1.768   1.025   8.980
 1038SOL    HW2 3501   1.722   0.917   8.866
 1039SOL     OW 3502   0.859   1.374   7.464
 1039SOL    HW1 3503   0.813   1.389   7.552
 1039SOL    HW2 3504   0.903   1.459   7.434
 1040SOL     OW 3505   0.661   1.790   8.401
 1040SOL    HW1 3506   0.615   1.878   8.388
 1040SOL    HW2 3507   0.760   1.802   8.394
 1041SOL     OW 3508   0.859   0.956   8.309
 1041SOL    HW1 3509   0.913   0.887   8.357
 1041SOL    HW2 3510   0.827   1.025   8.375
 1042SOL     OW 3511   1.083   0.984   7.535
 1042SOL    HW1 3512   1.060   1.037   7.453
 1042SOL    HW2 3513   1.164   0.928   7.516
 1043SOL     OW 3514   1.861   1.569   8.299
 1043SOL    HW1 3515   1.790   1.557   8.229
 1043SOL    HW2 3516   1.862   1.490   8.359
 1044SOL     OW 3517   0.221   1.314   9.292
 1044SOL    HW1 3518   0.156   1.241   9.271
 1044SOL    HW2 3519   0.225   1.328   9.390
 1045SOL     OW 3520   0.079   1.240   8.101
 1045SOL    HW1 3521   0.078   1.193   8.189
 1045SOL    HW2 3522   0.161   1.212   8.050
 1046SOL     OW 3523   0.672   1.391   9.072
 1046SOL    HW1 3524   0.594   1.341   9.110
 1046SOL    HW2 3525   0.669   1.486   9.103
 1047SOL     OW 3526   1.824   0.192   8.675
 1047SOL    HW1 3527   1.820   0.102   8.719
 1047SOL    HW2 3528   1.827   0.181   8.576
 1048SOL     OW 3529   0.428   0.424   7.968
 1048SOL    HW1 3530   0.458   0.352   7.906
 1048SOL    HW2 3531   0.389   0.384   8.051
 1049SOL     OW 3532   1.705   1.487   8.552
 1049SOL    HW1 3533   1.612   1.462   8.525
 1049SOL    HW2 3534   1.731   1.437   8.634
 1050SOL     OW 3535   0.317   0.547   8.728
 1050SOL    HW1 3536   0.355   0.488   8.800
 1050SOL    HW2 3537   0.357   0.521   8.640
 1051SOL     OW 3538   0.812   1.586   8.135
 1051SOL    HW1 3539   0.844   1.596   8.041
 1051SOL    HW2 3540   0.733   1.524   8.137
 1052SOL     OW 3541   1.424   0.214   8.560
 1052SOL    HW1 3542   1.476   0.149   8.615
 1052SOL    HW2 3543   1.375   0.277   8.621
 1053SOL     OW 3544   1.001   0.034   8.602
 1053SOL    HW1 3545   0.938  -0.038   8.571
 1053SOL    HW2 3546   1.094  -0.002   8.602
 1054SOL     OW 3547   0.770   1.330   7.749
 1054SOL    HW1 3548   0.724   1.243   7.766
 1054SOL    HW2 3549   0.861   1.327   7.790
 1055SOL     OW 3550   0.618   1.567   8.732
 1055SOL    HW1 3551   0.613   1.649   8.789
 1055SOL    HW2 3552   0.707   1.564   8.687
 1056SOL     OW 3553   1.352   0.052   7.616
 1056SOL    HW1 3554   1.387   0.011   7.532
 1056SOL    HW2 3555   1.262   0.014   7.636
 1057SOL     OW 3556   1.300   0.453   8.139
 1057SOL    HW1 3557   1.241   0.533   8.143
 1057SOL    HW2 3558   1.315   0.418   8.232
 1058SOL     OW 3559   1.593   0.221   8.330
 1058SOL    HW1 3560   1.509   0.220   8.384
 1058SOL    HW2 3561   1.595   0.304   8.274
 1059SOL     OW 3562   0.039   1.077   7.748
 1059SOL    HW1 3563   0.138   1.066   7.739
 1059SOL    HW2 3564  -0.001   0.991   7.780
 1060SOL     OW 3565   0.875   1.646   7.785
 1060SOL    HW1 3566   0.798   1.611   7.731
 1060SOL    HW2 3567   0.843   1.717   7.847
 1061SOL     OW 3568   0.230   0.628   9.423
 1061SOL    HW1 3569   0.137   0.626   9.460
 1061SOL    HW2 3570   0.231   0.589   9.331
 1062SOL     OW 3571   0.225   0.275  10.306
 1062SOL    HW1 3572   0.260   0.258  10.398
 1062SOL    HW2 3573   0.137   0.230  10.294
 1063SOL     OW 3574   0.019   0.368   9.957
 1063SOL    HW1 3575  -0.063   0.411   9.996
 1063SOL    HW2 3576  -0.009   0.295   9.894
 1064SOL     OW 3577   0.569   1.275  10.475
 1064SOL    HW1 3578   0.476   1.268  10.438
 1064SOL    HW2 3579   0.580   1.364  10.519
 1065SOL     OW 3580   1.555   1.511  10.013
 1065SOL    HW1 3581   1.498   1.495  10.094
 1065SOL    HW2 3582   1.496   1.521   9.933
 1066SOL     OW 3583   1.135   0.703  10.027
 1066SOL    HW1 3584   1.192   0.781  10.002
 1066SOL    HW2 3585   1.075   0.729  10.103
 1067SOL     OW 3586   1.755   0.607   9.541
 1067SOL    HW1 3587   1.743   0.594   9.442
 1067SOL    HW2 3588   1.725   0.526   9.590
 1068SOL     OW 3589   0.768   1.144  10.333
 1068SOL    HW1 3590   0.690   1.161  10.393
 1068SOL    HW2 3591   0.802   1.231  10.297
 1069SOL     OW 3592   0.850   0.798  11.133
 1069SOL    HW1 3593   0.846   0.874  11.198
 1069SOL    HW2 3594   0.872   0.834  11.042
 1070SOL     OW 3595   0.685   1.012   9.975
 1070SOL    HW1 3596   0.754   0.996  10.045
 1070SOL    HW2 3597   0.612   1.069  10.013
 1071SOL     OW 3598   0.335   1.435  10.371
 1071SOL    HW1 3599   0.257   1.404  10.318
 1071SOL    HW2 3600   0.393   1.493  10.314
 1072SOL     OW 3601   1.460   1.505  10.649
 1072SOL    HW1 3602   1.484   1.599  10.675
 1072SOL    HW2 3603   1.444   1.451  10.731
 1073SOL     OW 3604   0.438   0.392  10.809
 1073SOL    HW1 3605   0.520   0.336  10.818
 1073SOL    HW2 3606   0.357   0.334  10.813
 1074SOL     OW 3607   1.603   0.447  10.047
 1074SOL    HW1 3608   1.529   0.493   9.997
 1074SOL    HW2 3609   1.654   0.515  10.100
 1075SOL     OW 3610   0.231   1.713   9.793
 1075SOL    HW1 3611   0.265   1.790   9.847
 1075SOL    HW2 3612   0.275   1.713   9.703
 1076SOL     OW 3613   0.230   1.434   9.848
 1076SOL    HW1 3614   0.204   1.530   9.848
 1076SOL    HW2 3615   0.159   1.380   9.893
 1077SOL     OW 3616   0.240   1.091  10.196
 1077SOL    HW1 3617   0.254   1.007  10.248
 1077SOL    HW2 3618   0.185   1.155  10.251
 1078SOL     OW 3619   0.620   1.786  10.749
 1078SOL    HW1 3620   0.528   1.769  10.784
 1078SOL    HW2 3621   0.648   1.878  10.775
 1079SOL     OW 3622   0.606   0.964   9.433
 1079SOL    HW1 3623   0.613   1.048   9.379
 1079SOL    HW2 3624   0.652   0.977   9.521
 1080SOL     OW 3625   1.594   0.114  10.790
 1080SOL    HW1 3626   1.576   0.181  10.718
 1080SOL    HW2 3627   1.591   0.160  10.879
 1081SOL     OW 3628   0.122   0.643   9.873
 1081SOL    HW1 3629   0.077   0.555   9.890
 1081SOL    HW2 3630   0.121   0.697   9.957
 1082SOL     OW 3631   1.842   1.767   9.669
 1082SOL    HW1 3632   1.896   1.738   9.749
 1082SOL    HW2 3633   1.872   1.857   9.640
 1083SOL     OW 3634   0.027   1.596   9.427
 1083SOL    HW1 3635   0.008   1.500   9.448
 1083SOL    HW2 3636  -0.006   1.654   9.502
 1084SOL     OW 3637   1.689   0.922   9.922
 1084SOL    HW1 3638   1.784   0.893   9.930
 1084SOL    HW2 3639   1.681   0.987   9.847
 1085SOL     OW 3640   1.641   1.108   9.742
 1085SOL    HW1 3641   1.727   1.110   9.690
 1085SOL    HW2 3642   1.655   1.155   9.830
 1086SOL     OW 3643   0.113   0.737  10.907
 1086SOL    HW1 3644   0.201   0.724  10.952
 1086SOL    HW2 3645   0.100   0.834  10.885
 1087SOL     OW 3646   0.613   1.365  10.036
 1087SOL    HW1 3647   0.564   1.278  10.045
 1087SOL    HW2 3648   0.590   1.408   9.949
 1088SOL     OW 3649   1.293   1.228  10.733
 1088SOL    HW1 3650   1.330   1.155  10.675
 1088SOL    HW2 3651   1.345   1.233  10.818
 1089SOL     OW 3652   0.809   0.004   9.812
 1089SOL    HW1 3653   0.849   0.095   9.803
 1089SOL    HW2 3654   0.709   0.012   9.818
 1090SOL     OW 3655   0.197   0.976  10.574
 1090SOL    HW1 3656   0.286   0.931  10.560
 1090SOL    HW2 3657   0.124   0.911  10.555
 1091SOL     OW 3658   1.525   0.999   9.500
 1091SOL    HW1 3659   1.462   0.923   9.513
 1091SOL    HW2 3660   1.573   1.017   9.586
 1092SOL     OW 3661   1.187   1.792  10.926
 1092SOL    HW1 3662   1.211   1.852  10.850
 1092SOL    HW2 3663   1.194   1.697  10.896
 1093SOL     OW 3664   0.317   0.251  11.111
 1093SOL    HW1 3665   0.388   0.322  11.117
 1093SOL    HW2 3666   0.229   0.290  11.139
 1094SOL     OW 3667   1.466   1.417  10.263
 1094SOL    HW1 3668   1.407   1.423  10.343
 1094SOL    HW2 3669   1.451   1.329  10.217
 1095SOL     OW 3670   1.667   1.714   9.882
 1095SOL    HW1 3671   1.626   1.691   9.794
 1095SOL    HW2 3672   1.649   1.640   9.947
 1096SOL     OW 3673   0.598   0.729   9.580
 1096SOL    HW1 3674   0.622   0.798   9.512
 1096SOL    HW2 3675   0.520   0.762   9.634
 1097SOL     OW 3676   1.281   0.345  10.254
 1097SOL    HW1 3677   1.195   0.295  10.241
 1097SOL    HW2 3678   1.343   0.291  10.310
 1098SOL     OW 3679   1.576   1.662   9.617
 1098SOL    HW1 3680   1.665   1.708   9.620
 1098SOL    HW2 3681   1.555   1.638   9.522
 1099SOL     OW 3682   0.807   0.605  10.775
 1099SOL    HW1 3683   0.760   0.602  10.864
 1099SOL    HW2 3684   0.756   0.550  10.709
 1100SOL     OW 3685   0.973   0.890  10.882
 1100SOL    HW1 3686   1.019   0.806  10.853
 1100SOL    HW2 3687   0.917   0.924  10.807
 1101SOL     OW 3688   0.991   0.410  10.552
 1101SOL    HW1 3689   0.914   0.444  10.606
 1101SOL    HW2 3690   0.957   0.359  10.473
 1102SOL     OW 3691   1.041   0.701   9.739
 1102SOL    HW1 3692   1.067   0.697   9.835
 1102SOL    HW2 3693   0.956   0.650   9.725
 1103SOL     OW 3694   0.076   0.811  10.099
 1103SOL    HW1 3695   0.175   0.799  10.108
 1103SOL    HW2 3696   0.052   0.906  10.120
 1104SOL     OW 3697   0.130   1.821  10.881
 1104SOL    HW1 3698   0.120   1.806  10.980
 1104SOL    HW2 3699   0.044   1.857  10.845
 1105SOL     OW 3700   0.865   0.348   9.505
 1105SOL    HW1 3701   0.924   0.411   9.456
 1105SOL    HW2 3702   0.884   0.254   9.476
 1106SOL     OW 3703   1.362   1.144   9.855
 1106SOL    HW1 3704   1.445   1.115   9.807
 1106SOL    HW2 3705   1.313   1.211   9.799
 1107SOL     OW 3706   0.550   0.196  10.195
 1107SOL    HW1 3707   0.545   0.191  10.295
 1107SOL    HW2 3708   0.552   0.292  10.166
 1108SOL     OW 3709   1.008   1.456   9.787
 1108SOL    HW1 3710   0.962   1.528   9.735
 1108SOL    HW2 3711   1.004   1.476   9.885
 1109SOL     OW 3712   0.351   1.801  10.163
 1109SOL    HW1 3713   0.401   1.715  10.169
 1109SOL    HW2 3714   0.416   1.878  10.160
 1110SOL     OW 3715   1.795   1.066  10.183
 1110SOL    HW1 3716   1.733   1.051  10.107
 1110SOL    HW2 3717   1.743   1.077  10.268
 1111SOL     OW 3718   1.227   1.550  10.816
 1111SOL    HW1 3719   1.233   1.473  10.880
 1111SOL    HW2 3720   1.175   1.524  10.736
 1112SOL     OW 3721   0.321   0.943   9.552
 1112SOL    HW1 3722   0.403   0.982   9.510
 1112SOL    HW2 3723   0.294   0.861   9.503
 1113SOL     OW 3724   1.458   0.735  10.038
 1113SOL    HW1 3725   1.453   0.670  10.113
 1113SOL    HW2 3726   1.538   0.794  10.051
 1114SOL     OW 3727   0.461   1.266  11.037
 1114SOL    HW1 3728   0.411   1.267  10.951
 1114SOL    HW2 3729   0.398   1.248  11.113
 1115SOL     OW 3730   1.111   1.776   9.547
 1115SOL    HW1 3731   1.051   1.714   9.597
 1115SOL    HW2 3732   1.142   1.732   9.462
 1116SOL     OW 3733   0.202   0.285  10.808
 1116SOL    HW1 3734   0.122   0.345  10.795
 1116SOL    HW2 3735   0.192   0.236  10.894
 1117SOL     OW 3736   1.632   1.377   9.391
 1117SOL    HW1 3737   1.600   1.471   9.381
 1117SOL    HW2 3738   1.556   1.314   9.379
 1118SOL     OW 3739   0.464   1.743   9.633
 1118SOL    HW1 3740   0.497   1.782   9.719
 1118SOL    HW2 3741   0.540   1.736   9.568
 1119SOL     OW 3742   1.400   0.107   9.736
 1119SOL    HW1 3743   1.376   0.070   9.646
 1119SOL    HW2 3744   1.499   0.123   9.740
 1120SOL     OW 3745   0.249   1.785  10.551
 1120SOL    HW1 3746   0.306   1.720  10.601
 1120SOL    HW2 3747   0.233   1.752  10.458
 1121SOL     OW 3748   0.940   1.698  10.214
 1121SOL    HW1 3749   1.020   1.641  10.235
 1121SOL    HW2 3750   0.891   1.658  10.137
 1122SOL     OW 3751   0.382   0.700   9.790
 1122SOL    HW1 3752   0.427   0.610   9.787
 1122SOL    HW2 3753   0.288   0.689   9.823
 1123SOL     OW 3754   0.614   0.122   9.427
 1123SOL    HW1 3755   0.712   0.100   9.434
 1123SOL    HW2 3756   0.583   0.105   9.334
 1124SOL     OW 3757   0.781   0.264  11.059
 1124SOL    HW1 3758   0.848   0.203  11.102
 1124SOL    HW2 3759   0.708   0.283  11.124
 1125SOL     OW 3760   0.888   1.514  10.505
 1125SOL    HW1 3761   0.865   1.489  10.411
 1125SOL    HW2 3762   0.949   1.445  10.544
 1126SOL     OW 3763   1.351   0.590  10.743
 1126SOL    HW1 3764   1.379   0.547  10.828
 1126SOL    HW2 3765   1.376   0.686  10.744
 1127SOL     OW 3766   0.803   1.402  10.234
 1127SOL    HW1 3767   0.893   1.416  10.192
 1127SOL    HW2 3768   0.732   1.404  10.163
 1128SOL     OW 3769   0.922   0.503  10.209
 1128SOL    HW1 3770   0.897   0.494  10.113
 1128SOL    HW2 3771   0.970   0.421  10.240
 1129SOL     OW 3772   0.539   0.064   9.822
 1129SOL    HW1 3773   0.458   0.065   9.880
 1129SOL    HW2 3774   0.542   0.147   9.767
 1130SOL     OW 3775   1.434   1.188   9.351
 1130SOL    HW1 3776   1.466   1.112   9.408
 1130SOL    HW2 3777   1.342   1.215   9.381
 1131SOL     OW 3778   0.297   0.035   9.481
 1131SOL    HW1 3779   0.346   0.119   9.460
 1131SOL    HW2 3780   0.359  -0.030   9.526
 1132SOL     OW 3781   0.935   0.236   9.790
 1132SOL    HW1 3782   0.887   0.277   9.712
 1132SOL    HW2 3783   1.034   0.234   9.771
 1133SOL     OW 3784   1.076   0.683  10.774
 1133SOL    HW1 3785   0.996   0.622  10.777
 1133SOL    HW2 3786   1.157   0.630  10.750
 1134SOL     OW 3787   1.227   1.570  10.103
 1134SOL    HW1 3788   1.248   1.644  10.038
 1134SOL    HW2 3789   1.295   1.570  10.176
 1135SOL     OW 3790   0.459   1.152  10.051
 1135SOL    HW1 3791   0.388   1.125  10.116
 1135SOL    HW2 3792   0.433   1.124   9.958
 1136SOL     OW 3793   1.271   1.797   9.901
 1136SOL    HW1 3794   1.315   1.861   9.837
 1136SOL    HW2 3795   1.221   1.849   9.971
 1137SOL     OW 3796   1.032   0.549   9.326
 1137SOL    HW1 3797   0.991   0.631   9.287
 1137SOL    HW2 3798   1.096   0.575   9.399
 1138SOL     OW 3799   0.078   0.556  10.696
 1138SOL    HW1 3800   0.170   0.555  10.655
 1138SOL    HW2 3801   0.072   0.630  10.763
 1139SOL     OW 3802   0.561   0.222  10.457
 1139SOL    HW1 3803   0.599   0.138  10.494
 1139SOL    HW2 3804   0.473   0.241  10.501
 1140SOL     OW 3805   0.866   0.454   9.952
 1140SOL    HW1 3806   0.834   0.526   9.890
 1140SOL    HW2 3807   0.890   0.373   9.899
 1141SOL     OW 3808   1.017   0.039  10.063
 1141SOL    HW1 3809   0.945   0.044   9.994
 1141SOL    HW2 3810   0.993  -0.030  10.132
 1142SOL     OW 3811   1.429   1.173  10.177
 1142SOL    HW1 3812   1.374   1.089  10.170
 1142SOL    HW2 3813   1.455   1.202  10.085
 1143SOL     OW 3814   1.466   0.590  10.302
 1143SOL    HW1 3815   1.436   0.495  10.309
 1143SOL    HW2 3816   1.539   0.606  10.368
 1144SOL     OW 3817   1.857   0.833   9.687
 1144SOL    HW1 3818   1.899   0.769   9.751
 1144SOL    HW2 3819   1.819   0.782   9.609
 1145SOL     OW 3820   0.488   1.385   9.484
 1145SOL    HW1 3821   0.401   1.370   9.531
 1145SOL    HW2 3822   0.471   1.411   9.389
 1146SOL     OW 3823   1.664   1.280   9.967
 1146SOL    HW1 3824   1.763   1.288   9.981
 1146SOL    HW2 3825   1.619   1.364   9.998
 1147SOL     OW 3826   1.390   0.575   9.388
 1147SOL    HW1 3827   1.336   0.554   9.469
 1147SOL    HW2 3828   1.481   0.534   9.397
 1148SOL     OW 3829   0.527   0.256   9.638
 1148SOL    HW1 3830   0.554   0.197   9.563
 1148SOL    HW2 3831   0.527   0.351   9.607
 1149SOL     OW 3832   1.754   1.223  10.898
 1149SOL    HW1 3833   1.845   1.184  10.885
 1149SOL    HW2 3834   1.762   1.319  10.922
 1150SOL     OW 3835   1.064   1.347  10.650
 1150SOL    HW1 3836   0.984   1.324  10.705
 1150SOL    HW2 3837   1.147   1.321  10.699
 1151SOL     OW 3838   1.111   1.195  10.410
 1151SOL    HW1 3839   1.071   1.239  10.491
 1151SOL    HW2 3840   1.070   1.232  10.327
 1152SOL     OW 3841   1.638   1.099  10.389
 1152SOL    HW1 3842   1.643   1.180  10.448
 1152SOL    HW2 3843   1.552   1.101  10.338
 1153SOL     OW 3844   0.915   0.089  10.712
 1153SOL    HW1 3845   0.940   0.069  10.617
 1153SOL    HW2 3846   0.987   0.145  10.754
 1154SOL     OW 3847   0.705   1.050   9.678
 1154SOL    HW1 3848   0.691   1.057   9.777
 1154SOL    HW2 3849   0.789   0.999   9.660
 1155SOL     OW 3850   0.410   0.813  10.561
 1155SOL    HW1 3851   0.496   0.825  10.611
 1155SOL    HW2 3852   0.368   0.726  10.588
 1156SOL     OW 3853   1.274   0.386  10.572
 1156SOL    HW1 3854   1.295   0.460  10.636
 1156SOL    HW2 3855   1.185   0.403  10.529
 1157SOL     OW 3856   0.064   1.564  10.641
 1157SOL    HW1 3857   0.018   1.646  10.607
 1157SOL    HW2 3858   0.162   1.583  10.650
 1158SOL     OW 3859   0.367   1.100   9.811
 1158SOL    HW1 3860   0.360   1.183   9.755
 1158SOL    HW2 3861   0.371   1.020   9.751
 1159SOL     OW 3862   0.566   0.537  10.175
 1159SOL    HW1 3863   0.578   0.603  10.101
 1159SOL    HW2 3864   0.612   0.571  10.258
 1160SOL     OW 3865   1.252   1.348   9.698
 1160SOL    HW1 3866   1.302   1.425   9.738
 1160SOL    HW2 3867   1.157   1.350   9.730
 1161SOL     OW 3868   1.272   1.445  10.452
 1161SOL    HW1 3869   1.319   1.458  10.539
 1161SOL    HW2 3870   1.206   1.371  10.461
 1162SOL     OW 3871   1.582   0.639   9.782
 1162SOL    HW1 3872   1.551   0.700   9.855
 1162SOL    HW2 3873   1.632   0.691   9.713
 1163SOL     OW 3874   0.354   1.510  10.639
 1163SOL    HW1 3875   0.333   1.466  10.552
 1163SOL    HW2 3876   0.451   1.536  10.642
 1164SOL     OW 3877   0.402   0.751  10.908
 1164SOL    HW1 3878   0.470   0.806  10.861
 1164SOL    HW2 3879   0.442   0.663  10.935
 1165SOL     OW 3880   1.587   0.779  10.980
 1165SOL    HW1 3881   1.495   0.817  10.975
 1165SOL    HW2 3882   1.647   0.826  10.915
 1166SOL     OW 3883   0.573   0.870  10.339
 1166SOL    HW1 3884   0.617   0.959  10.330
 1166SOL    HW2 3885   0.510   0.870  10.416
 1167SOL     OW 3886   1.360   0.862  10.355
 1167SOL    HW1 3887   1.285   0.862  10.289
 1167SOL    HW2 3888   1.397   0.770  10.364
 1168SOL     OW 3889   1.209   0.525   9.585
 1168SOL    HW1 3890   1.222   0.441   9.639
 1168SOL    HW2 3891   1.180   0.599   9.645
 1169SOL     OW 3892   0.307   0.213  10.541
 1169SOL    HW1 3893   0.284   0.250  10.631
 1169SOL    HW2 3894   0.277   0.118  10.535
 1170SOL     OW 3895   0.037   1.310  10.592
 1170SOL    HW1 3896   0.090   1.261  10.660
 1170SOL    HW2 3897   0.059   1.408  10.597
 1171SOL     OW 3898   0.732   0.634  10.374
 1171SOL    HW1 3899   0.791   0.608  10.298
 1171SOL    HW2 3900   0.704   0.730  10.363
 1172SOL     OW 3901   0.307   0.063   9.928
 1172SOL    HW1 3902   0.296   0.157   9.961
 1172SOL    HW2 3903   0.302   0.000  10.005
 1173SOL     OW 3904   1.622   0.367   9.684
 1173SOL    HW1 3905   1.624   0.291   9.748
 1173SOL    HW2 3906   1.574   0.444   9.724
 1174SOL     OW 3907   1.023   0.766  10.276
 1174SOL    HW1 3908   1.038   0.787  10.372
 1174SOL    HW2 3909   0.993   0.671  10.267
 1175SOL     OW 3910   0.980   1.573  11.010
 1175SOL    HW1 3911   0.960   1.617  10.922
 1175SOL    HW2 3912   1.019   1.482  10.994
 1176SOL     OW 3913   1.859   1.518  10.915
 1176SOL    HW1 3914   1.873   1.545  10.820
 1176SOL    HW2 3915   1.942   1.540  10.968
 1177SOL     OW 3916   0.350   0.898  11.114
 1177SOL    HW1 3917   0.426   0.942  11.162
 1177SOL    HW2 3918   0.385   0.851  11.032
 1178SOL     OW 3919   1.540   0.274   9.435
 1178SOL    HW1 3920   1.479   0.199   9.458
 1178SOL    HW2 3921   1.562   0.326   9.518
 1179SOL     OW 3922   1.303   0.838   9.352
 1179SOL    HW1 3923   1.337   0.745   9.367
 1179SOL    HW2 3924   1.321   0.865   9.257
 1180SOL     OW 3925   1.068   1.333  10.159
 1180SOL    HW1 3926   1.075   1.249  10.104
 1180SOL    HW2 3927   1.130   1.402  10.123
 1181SOL     OW 3928   0.319   0.810  10.259
 1181SOL    HW1 3929   0.412   0.846  10.264
 1181SOL    HW2 3930   0.313   0.725  10.311
 1182SOL     OW 3931   0.339   0.509  10.316
 1182SOL    HW1 3932   0.287   0.426  10.299
 1182SOL    HW2 3933   0.416   0.514  10.252
 1183SOL     OW 3934   1.160   0.207  10.787
 1183SOL    HW1 3935   1.160   0.271  10.864
 1183SOL    HW2 3936   1.188   0.255  10.704
 1184SOL     OW 3937   0.008   1.326   9.510
 1184SOL    HW1 3938  -0.085   1.347   9.479
 1184SOL    HW2 3939   0.018   1.227   9.523
 1185SOL     OW 3940   0.088   1.801  10.237
 1185SOL    HW1 3941   0.046   1.715  10.210
 1185SOL    HW2 3942   0.182   1.804  10.203
 1186SOL     OW 3943   0.504   1.568  10.220
 1186SOL    HW1 3944   0.570   1.642  10.229
 1186SOL    HW2 3945   0.548   1.489  10.178
 1187SOL     OW 3946   1.002   0.796  10.548
 1187SOL    HW1 3947   1.043   0.764  10.634
 1187SOL    HW2 3948   0.906   0.769  10.545
 1188SOL     OW 3949   0.040   0.544  10.424
 1188SOL    HW1 3950   0.125   0.511  10.383
 1188SOL    HW2 3951   0.053   0.559  10.522
 1189SOL     OW 3952   0.815   0.572   9.635
 1189SOL    HW1 3953   0.822   0.483   9.589
 1189SOL    HW2 3954   0.721   0.606   9.627
 1190SOL     OW 3955   1.657   0.604  10.516
 1190SOL    HW1 3956   1.619   0.535  10.578
 1190SOL    HW2 3957   1.739   0.568  10.472
 1191SOL     OW 3958   0.252   1.564  11.054
 1191SOL    HW1 3959   0.222   1.621  11.130
 1191SOL    HW2 3960   0.245   1.467  11.080
 1192SOL     OW 3961   0.671   0.464  10.579
 1192SOL    HW1 3962   0.637   0.375  10.549
 1192SOL    HW2 3963   0.697   0.518  10.499
 1193SOL     OW 3964   0.930   1.678  10.775
 1193SOL    HW1 3965   0.906   1.660  10.680
 1193SOL    HW2 3966   0.960   1.772  10.785
 1194SOL     OW 3967   0.473   0.500   9.501
 1194SOL    HW1 3968   0.534   0.580   9.505
 1194SOL    HW2 3969   0.378   0.531   9.508
 1195SOL     OW 3970   0.159   1.137  10.776
 1195SOL    HW1 3971   0.181   1.076  10.852
 1195SOL    HW2 3972   0.169   1.088  10.690
 1196SOL     OW 3973   1.347   1.059  10.544
 1196SOL    HW1 3974   1.371   0.996  10.470
 1196SOL    HW2 3975   1.257   1.099  10.526
 1197SOL     OW 3976   1.302   0.855   9.619
 1197SOL    HW1 3977   1.216   0.824   9.661
 1197SOL    HW2 3978   1.298   0.841   9.520
 1198SOL     OW 3979   1.759   1.747  10.464
 1198SOL    HW1 3980   1.820   1.777  10.391
 1198SOL    HW2 3981   1.721   1.658  10.442
 1199SOL     OW 3982   1.252   1.731  10.438
 1199SOL    HW1 3983   1.336   1.736  10.384
 1199SOL    HW2 3984   1.229   1.635  10.456
 1200SOL     OW 3985   0.083   1.258  10.332
 1200SOL    HW1 3986   0.078   1.257  10.432
 1200SOL    HW2 3987   0.000   1.217  10.294
 1201SOL     OW 3988   1.726   0.135   9.833
 1201SOL    HW1 3989   1.799   0.118   9.766
 1201SOL    HW2 3990   1.695   0.048   9.871
 1202SOL     OW 3991   1.388   1.573   9.787
 1202SOL    HW1 3992   1.455   1.585   9.713
 1202SOL    HW2 3993   1.348   1.662   9.810
 1203SOL     OW 3994   1.280   0.927   9.982
 1203SOL    HW1 3995   1.340   0.846   9.984
 1203SOL    HW2 3996   1.320   0.996   9.922
 1204SOL     OW 3997   0.830   1.273  10.732
 1204SOL    HW1 3998   0.825   1.306  10.827
 1204SOL    HW2 3999   0.744   1.292  10.686
 1205SOL     OW 4000   0.672   1.616   9.464
 1205SOL    HW1 4001   0.681   1.626   9.365
 1205SOL    HW2 4002   0.632   1.527   9.485
 1206SOL     OW 4003   1.650   1.720  10.704
 1206SOL    HW1 4004   1.703   1.730  10.620
 1206SOL    HW2 4005   1.623   1.810  10.738
 1207SOL     OW 4006   1.841   0.175  10.273
 1207SOL    HW1 4007   1.880   0.090  10.237
 1207SOL    HW2 4008   1.743   0.177  10.254
 1208SOL     OW 4009   0.263   0.326  10.030
 1208SOL    HW1 4010   0.184   0.377   9.996
 1208SOL    HW2 4011   0.254   0.311  10.128
 1209SOL     OW 4012   1.194   1.612   9.341
 1209SOL    HW1 4013   1.200   1.519   9.378
 1209SOL    HW2 4014   1.135   1.612   9.261
 1210SOL     OW 4015   0.822   1.002  10.682
 1210SOL    HW1 4016   0.862   1.001  10.590
 1210SOL    HW2 4017   0.832   1.094  10.722
 1211SOL     OW 4018   0.916   0.910   9.601
 1211SOL    HW1 4019   0.979   0.948   9.533
 1211SOL    HW2 4020   0.956   0.827   9.640
 1212SOL     OW 4021   1.504   1.607   9.354
 1212SOL    HW1 4022   1.412   1.644   9.361
 1212SOL    HW2 4023   1.542   1.627   9.264
 1213SOL     OW 4024   0.372   1.288  10.800
 1213SOL    HW1 4025   0.359   1.381  10.766
 1213SOL    HW2 4026   0.288   1.236  10.787
 1214SOL     OW 4027   1.614   1.292  10.599
 1214SOL    HW1 4028   1.674   1.295  10.679
 1214SOL    HW2 4029   1.539   1.356  10.612
 1215SOL     OW 4030   1.039   1.098  10.006
 1215SOL    HW1 4031   0.969   1.051  10.060
 1215SOL    HW2 4032   1.098   1.030   9.963
 1216SOL     OW 4033   1.014   0.236  10.281
 1216SOL    HW1 4034   1.006   0.200  10.188
 1216SOL    HW2 4035   1.012   0.160  10.346
 1217SOL     OW 4036   0.590   1.487   9.801
 1217SOL    HW1 4037   0.632   1.429   9.731
 1217SOL    HW2 4038   0.546   1.566   9.757
 1218SOL     OW 4039   1.709   0.385  10.691
 1218SOL    HW1 4040   1.782   0.454  10.695
 1218SOL    HW2 4041   1.737   0.310  10.632
 1219SOL     OW 4042   0.255   1.348   9.600
 1219SOL    HW1 4043   0.159   1.349   9.573
 1219SOL    HW2 4044   0.267   1.401   9.684
 1220SOL     OW 4045   0.105   1.013  11.036
 1220SOL    HW1 4046   0.028   0.980  11.090
 1220SOL    HW2 4047   0.190   0.983  11.078
 1221SOL     OW 4048   0.672   0.203  10.799
 1221SOL    HW1 4049   0.762   0.187  10.759
 1221SOL    HW2 4050   0.680   0.208  10.898
 1222SOL     OW 4051   0.075   0.345   9.343
 1222SOL    HW1 4052  -0.017   0.317   9.314
 1222SOL    HW2 4053   0.106   0.422   9.287
 1223SOL     OW 4054   1.440   0.856  10.708
 1223SOL    HW1 4055   1.383   0.908  10.645
 1223SOL    HW2 4056   1.536   0.868  10.684
 1224SOL     OW 4057   0.072   0.166   9.628
 1224SOL    HW1 4058   0.055   0.249   9.574
 1224SOL    HW2 4059   0.162   0.129   9.606
 1225SOL     OW 4060   1.183   1.335   9.429
 1225SOL    HW1 4061   1.084   1.324   9.431
 1225SOL    HW2 4062   1.217   1.350   9.522
 1226SOL     OW 4063   0.613   0.842  10.741
 1226SOL    HW1 4064   0.669   0.923  10.724
 1226SOL    HW2 4065   0.672   0.762  10.744
 1227SOL     OW 4066   1.493   1.767  10.269
 1227SOL    HW1 4067   1.526   1.831  10.200
 1227SOL    HW2 4068   1.559   1.761  10.344
 1228SOL     OW 4069   0.716   0.565  11.018
 1228SOL    HW1 4070   0.735   0.630  11.092
 1228SOL    HW2 4071   0.776   0.485  11.027
 1229SOL     OW 4072   0.390   1.741  10.870
 1229SOL    HW1 4073   0.299   1.782  10.868
 1229SOL    HW2 4074   0.383   1.647  10.902
 1230SOL     OW 4075   1.674   0.883  10.564
 1230SOL    HW1 4076   1.647   0.794  10.527
 1230SOL    HW2 4077   1.675   0.951  10.491
 1231SOL     OW 4078   1.225   0.325   9.759
 1231SOL    HW1 4079   1.290   0.251   9.748
 1231SOL    HW2 4080   1.245   0.375   9.843
 1232SOL     OW 4081   0.594   0.745   9.962
 1232SOL    HW1 4082   0.644   0.830   9.943
 1232SOL    HW2 4083   0.506   0.747   9.914
 1233SOL     OW 4084   1.777   0.342  10.952
 1233SOL    HW1 4085   1.760   0.373  10.858
 1233SOL    HW2 4086   1.693   0.305  10.990
 1234SOL     OW 4087   1.730   0.934  10.827
 1234SOL    HW1 4088   1.768   1.025  10.842
 1234SOL    HW2 4089   1.722   0.917  10.728
 1235SOL     OW 4090   0.859   1.374   9.326
 1235SOL    HW1 4091   0.813   1.389   9.414
 1235SOL    HW2 4092   0.903   1.459   9.296
 1236SOL     OW 4093   0.661   1.790  10.263
 1236SOL    HW1 4094   0.615   1.878  10.250
 1236SOL    HW2 4095   0.760   1.802  10.256
 1237SOL     OW 4096   0.859   0.956  10.171
 1237SOL    HW1 4097   0.913   0.887  10.219
 1237SOL    HW2 4098   0.827   1.025  10.237
 1238SOL     OW 4099   1.083   0.984   9.397
 1238SOL    HW1 4100   1.060   1.037   9.315
 1238SOL    HW2 4101   1.164   0.928   9.378
 1239SOL     OW 4102   1.861   1.569  10.161
 1239SOL    HW1 4103   1.790   1.557  10.091
 1239SOL    HW2 4104   1.862   1.490  10.221
 1240SOL     OW 4105   0.079   1.240   9.963
 1240SOL    HW1 4106   0.078   1.193  10.051
 1240SOL    HW2 4107   0.161   1.212   9.912
 1241SOL     OW 4108   0.672   1.391  10.934
 1241SOL    HW1 4109   0.594   1.341  10.972
 1241SOL    HW2 4110   0.669   1.486  10.965
 1242SOL     OW 4111   1.824   0.192  10.537
 1242SOL    HW1 4112   1.820   0.102  10.581
 1242SOL    HW2 4113   1.827   0.181  10.438
 1243SOL     OW 4114   0.428   0.424   9.830
 1243SOL    HW1 4115   0.458   0.352   9.768
 1243SOL    HW2 4116   0.389   0.384   9.913
 1244SOL     OW 4117   1.705   1.487  10.414
 1244SOL    HW1 4118   1.612   1.462  10.387
 1244SOL    HW2 4119   1.731   1.437  10.496
 1245SOL     OW 4120   0.317   0.547  10.590
 1245SOL    HW1 4121   0.355   0.488  10.662
 1245SOL    HW2 4122   0.357   0.521  10.502
 1246SOL     OW 4123   0.812   1.586   9.997
 1246SOL    HW1 4124   0.844   1.596   9.903
 1246SOL    HW2 4125   0.733   1.524   9.999
 1247SOL     OW 4126   1.424   0.214  10.422
 1247SOL    HW1 4127   1.476   0.149  10.477
 1247SOL    HW2 4128   1.375   0.277  10.483
 1248SOL     OW 4129   1.001   0.034  10.464
 1248SOL    HW1 4130   0.938  -0.038  10.433
 1248SOL    HW2 4131   1.094  -0.002  10.464
 1249SOL     OW 4132   0.770   1.330   9.611
 1249SOL    HW1 4133   0.724   1.243   9.628
 1249SOL    HW2 4134   0.861   1.327   9.652
 1250SOL     OW 4135   0.618   1.567  10.594
 1250SOL    HW1 4136   0.613   1.649  10.651
 1250SOL    HW2 4137   0.707   1.564  10.549
 1251SOL     OW 4138   1.352   0.052   9.478
 1251SOL    HW1 4139   1.387   0.011   9.394
 1251SOL    HW2 4140   1.262   0.014   9.498
 1252SOL     OW 4141   1.300   0.453  10.001
 1252SOL    HW1 4142   1.241   0.533  10.005
 1252SOL    HW2 4143   1.315   0.418  10.094
 1253SOL     OW 4144   1.593   0.221  10.192
 1253SOL    HW1 4145   1.509   0.220  10.246
 1253SOL    HW2 4146   1.595   0.304  10.136
 1254SOL     OW 4147   0.039   1.077   9.610
 1254SOL    HW1 4148   0.138   1.066   9.601
 1254SOL    HW2 4149  -0.001   0.991   9.642
 1255SOL     OW 4150   0.875   1.646   9.647
 1255SOL    HW1 4151   0.798   1.611   9.593
 1255SOL    HW2 4152   0.843   1.717   9.709
 1256SOL     OW 4153   0.230   2.490   0.113
 1256SOL    HW1 4154   0.137   2.488   0.150
 1256SOL    HW2 4155   0.231   2.451   0.021
 1257SOL     OW 4156   0.225   2.137   0.996
 1257SOL    HW1 4157   0.260   2.120   1.088
 1257SOL    HW2 4158   0.137   2.092   0.984
 1258SOL     OW 4159   0.019   2.230   0.647
 1258SOL    HW1 4160  -0.063   2.273   0.686
 1258SOL    HW2 4161  -0.009   2.157   0.584
 1259SOL     OW 4162   0.569   3.137   1.165
 1259SOL    HW1 4163   0.476   3.130   1.128
 1259SOL    HW2 4164   0.580   3.226   1.209
 1260SOL     OW 4165   1.555   3.373   0.703
 1260SOL    HW1 4166   1.498   3.357   0.784
 1260SOL    HW2 4167   1.496   3.383   0.623
 1261SOL     OW 4168   1.135   2.565   0.717
 1261SOL    HW1 4169   1.192   2.643   0.692
 1261SOL    HW2 4170   1.075   2.591   0.793
 1262SOL     OW 4171   1.755   2.469   0.231
 1262SOL    HW1 4172   1.743   2.456   0.132
 1262SOL    HW2 4173   1.725   2.388   0.280
 1263SOL     OW 4174   0.768   3.006   1.023
 1263SOL    HW1 4175   0.690   3.023   1.083
 1263SOL    HW2 4176   0.802   3.093   0.987
 1264SOL     OW 4177   0.850   2.660   1.823
 1264SOL    HW1 4178   0.846   2.736   1.888
 1264SOL    HW2 4179   0.872   2.696   1.732
 1265SOL     OW 4180   0.685   2.874   0.665
 1265SOL    HW1 4181   0.754   2.858   0.735
 1265SOL    HW2 4182   0.612   2.931   0.703
 1266SOL     OW 4183   0.686   3.023   1.803
 1266SOL    HW1 4184   0.746   3.102   1.817
 1266SOL    HW2 4185   0.600   3.054   1.762
 1267SOL     OW 4186   0.335   3.297   1.061
 1267SOL    HW1 4187   0.257   3.266   1.008
 1267SOL    HW2 4188   0.393   3.355   1.004
 1268SOL     OW 4189   1.460   3.367   1.339
 1268SOL    HW1 4190   1.484   3.461   1.365
 1268SOL    HW2 4191   1.444   3.313   1.421
 1269SOL     OW 4192   0.438   2.254   1.499
 1269SOL    HW1 4193   0.520   2.198   1.508
 1269SOL    HW2 4194   0.357   2.196   1.503
 1270SOL     OW 4195   1.603   2.309   0.737
 1270SOL    HW1 4196   1.529   2.355   0.687
 1270SOL    HW2 4197   1.654   2.377   0.790
 1271SOL     OW 4198   0.231   3.575   0.483
 1271SOL    HW1 4199   0.265   3.652   0.537
 1271SOL    HW2 4200   0.275   3.575   0.393
 1272SOL     OW 4201   1.127   3.203   1.690
 1272SOL    HW1 4202   1.174   3.203   1.778
 1272SOL    HW2 4203   1.079   3.116   1.679
 1273SOL     OW 4204   0.230   3.296   0.538
 1273SOL    HW1 4205   0.204   3.392   0.538
 1273SOL    HW2 4206   0.159   3.242   0.583
 1274SOL     OW 4207   0.240   2.953   0.886
 1274SOL    HW1 4208   0.254   2.869   0.938
 1274SOL    HW2 4209   0.185   3.017   0.941
 1275SOL     OW 4210   0.620   3.648   1.439
 1275SOL    HW1 4211   0.528   3.631   1.474
 1275SOL    HW2 4212   0.648   3.740   1.465
 1276SOL     OW 4213   0.606   2.826   0.123
 1276SOL    HW1 4214   0.613   2.910   0.069
 1276SOL    HW2 4215   0.652   2.839   0.211
 1277SOL     OW 4216   1.594   1.976   1.480
 1277SOL    HW1 4217   1.576   2.043   1.408
 1277SOL    HW2 4218   1.591   2.022   1.569
 1278SOL     OW 4219   0.122   2.505   0.563
 1278SOL    HW1 4220   0.077   2.417   0.580
 1278SOL    HW2 4221   0.121   2.559   0.647
 1279SOL     OW 4222   1.842   3.629   0.359
 1279SOL    HW1 4223   1.896   3.600   0.439
 1279SOL    HW2 4224   1.872   3.719   0.330
 1280SOL     OW 4225   0.027   3.458   0.117
 1280SOL    HW1 4226   0.008   3.362   0.138
 1280SOL    HW2 4227  -0.006   3.516   0.192
 1281SOL     OW 4228   1.689   2.784   0.612
 1281SOL    HW1 4229   1.784   2.755   0.620
 1281SOL    HW2 4230   1.681   2.849   0.537
 1282SOL     OW 4231   1.641   2.970   0.432
 1282SOL    HW1 4232   1.727   2.972   0.380
 1282SOL    HW2 4233   1.655   3.017   0.520
 1283SOL     OW 4234   0.113   2.599   1.597
 1283SOL    HW1 4235   0.201   2.586   1.642
 1283SOL    HW2 4236   0.100   2.696   1.575
 1284SOL     OW 4237   0.613   3.227   0.726
 1284SOL    HW1 4238   0.564   3.140   0.735
 1284SOL    HW2 4239   0.590   3.270   0.639
 1285SOL     OW 4240   1.293   3.090   1.423
 1285SOL    HW1 4241   1.330   3.017   1.365
 1285SOL    HW2 4242   1.345   3.095   1.508
 1286SOL     OW 4243   0.809   1.866   0.502
 1286SOL    HW1 4244   0.849   1.957   0.493
 1286SOL    HW2 4245   0.709   1.874   0.508
 1287SOL     OW 4246   0.197   2.838   1.264
 1287SOL    HW1 4247   0.286   2.793   1.250
 1287SOL    HW2 4248   0.124   2.773   1.245
 1288SOL     OW 4249   1.525   2.861   0.190
 1288SOL    HW1 4250   1.462   2.785   0.203
 1288SOL    HW2 4251   1.573   2.879   0.276
 1289SOL     OW 4252   1.187   3.654   1.616
 1289SOL    HW1 4253   1.211   3.714   1.540
 1289SOL    HW2 4254   1.194   3.559   1.586
 1290SOL     OW 4255   0.317   2.113   1.801
 1290SOL    HW1 4256   0.388   2.184   1.807
 1290SOL    HW2 4257   0.229   2.152   1.829
 1291SOL     OW 4258   1.466   3.279   0.953
 1291SOL    HW1 4259   1.407   3.285   1.033
 1291SOL    HW2 4260   1.451   3.191   0.907
 1292SOL     OW 4261   1.667   3.576   0.572
 1292SOL    HW1 4262   1.626   3.553   0.484
 1292SOL    HW2 4263   1.649   3.502   0.637
 1293SOL     OW 4264   0.598   2.591   0.270
 1293SOL    HW1 4265   0.622   2.660   0.202
 1293SOL    HW2 4266   0.520   2.624   0.324
 1294SOL     OW 4267   1.281   2.207   0.944
 1294SOL    HW1 4268   1.195   2.157   0.931
 1294SOL    HW2 4269   1.343   2.153   1.000
 1295SOL     OW 4270   1.576   3.524   0.307
 1295SOL    HW1 4271   1.665   3.570   0.310
 1295SOL    HW2 4272   1.555   3.500   0.212
 1296SOL     OW 4273   0.807   2.467   1.465
 1296SOL    HW1 4274   0.760   2.464   1.554
 1296SOL    HW2 4275   0.756   2.412   1.399
 1297SOL     OW 4276   1.394   2.331   1.674
 1297SOL    HW1 4277   1.374   2.374   1.762
 1297SOL    HW2 4278   1.472   2.269   1.683
 1298SOL     OW 4279   0.973   2.752   1.572
 1298SOL    HW1 4280   1.019   2.668   1.543
 1298SOL    HW2 4281   0.917   2.786   1.497
 1299SOL     OW 4282   0.991   2.272   1.242
 1299SOL    HW1 4283   0.914   2.306   1.296
 1299SOL    HW2 4284   0.957   2.221   1.163
 1300SOL     OW 4285   1.041   2.563   0.429
 1300SOL    HW1 4286   1.067   2.559   0.525
 1300SOL    HW2 4287   0.956   2.512   0.415
 1301SOL     OW 4288   0.076   2.673   0.789
 1301SOL    HW1 4289   0.175   2.661   0.798
 1301SOL    HW2 4290   0.052   2.768   0.810
 1302SOL     OW 4291   0.130   3.683   1.571
 1302SOL    HW1 4292   0.120   3.668   1.670
 1302SOL    HW2 4293   0.044   3.719   1.535
 1303SOL     OW 4294   0.865   2.210   0.195
 1303SOL    HW1 4295   0.924   2.273   0.146
 1303SOL    HW2 4296   0.884   2.116   0.166
 1304SOL     OW 4297   1.719   2.447   1.831
 1304SOL    HW1 4298   1.693   2.536   1.795
 1304SOL    HW2 4299   1.717   2.379   1.758
 1305SOL     OW 4300   1.362   3.006   0.545
 1305SOL    HW1 4301   1.445   2.977   0.497
 1305SOL    HW2 4302   1.313   3.073   0.489
 1306SOL     OW 4303   0.550   2.058   0.885
 1306SOL    HW1 4304   0.545   2.053   0.985
 1306SOL    HW2 4305   0.552   2.154   0.856
 1307SOL     OW 4306   1.008   3.318   0.477
 1307SOL    HW1 4307   0.962   3.390   0.425
 1307SOL    HW2 4308   1.004   3.338   0.575
 1308SOL     OW 4309   0.351   3.663   0.853
 1308SOL    HW1 4310   0.401   3.577   0.859
 1308SOL    HW2 4311   0.416   3.740   0.850
 1309SOL     OW 4312   1.795   2.928   0.873
 1309SOL    HW1 4313   1.733   2.913   0.797
 1309SOL    HW2 4314   1.743   2.939   0.958
 1310SOL     OW 4315   1.227   3.412   1.506
 1310SOL    HW1 4316   1.233   3.335   1.570
 1310SOL    HW2 4317   1.175   3.386   1.426
 1311SOL     OW 4318   0.321   2.805   0.242
 1311SOL    HW1 4319   0.403   2.844   0.200
 1311SOL    HW2 4320   0.294   2.723   0.193
 1312SOL     OW 4321   1.458   2.597   0.728
 1312SOL    HW1 4322   1.453   2.532   0.803
 1312SOL    HW2 4323   1.538   2.656   0.741
 1313SOL     OW 4324   0.461   3.128   1.727
 1313SOL    HW1 4325   0.411   3.129   1.641
 1313SOL    HW2 4326   0.398   3.110   1.803
 1314SOL     OW 4327   1.111   3.638   0.237
 1314SOL    HW1 4328   1.051   3.576   0.287
 1314SOL    HW2 4329   1.142   3.594   0.152
 1315SOL     OW 4330   0.202   2.147   1.498
 1315SOL    HW1 4331   0.122   2.207   1.485
 1315SOL    HW2 4332   0.192   2.098   1.584
 1316SOL     OW 4333   1.632   3.239   0.081
 1316SOL    HW1 4334   1.600   3.333   0.071
 1316SOL    HW2 4335   1.556   3.176   0.069
 1317SOL     OW 4336   0.464   3.605   0.323
 1317SOL    HW1 4337   0.497   3.644   0.409
 1317SOL    HW2 4338   0.540   3.598   0.258
 1318SOL     OW 4339   1.400   1.969   0.426
 1318SOL    HW1 4340   1.376   1.932   0.336
 1318SOL    HW2 4341   1.499   1.985   0.430
 1319SOL     OW 4342   0.249   3.647   1.241
 1319SOL    HW1 4343   0.306   3.582   1.291
 1319SOL    HW2 4344   0.233   3.614   1.148
 1320SOL     OW 4345   0.940   3.560   0.904
 1320SOL    HW1 4346   1.020   3.503   0.925
 1320SOL    HW2 4347   0.891   3.520   0.827
 1321SOL     OW 4348   0.382   2.562   0.480
 1321SOL    HW1 4349   0.427   2.472   0.477
 1321SOL    HW2 4350   0.288   2.551   0.513
 1322SOL     OW 4351   1.547   2.084   1.729
 1322SOL    HW1 4352   1.542   2.121   1.821
 1322SOL    HW2 4353   1.475   2.015   1.717
 1323SOL     OW 4354   0.614   1.984   0.117
 1323SOL    HW1 4355   0.712   1.962   0.124
 1323SOL    HW2 4356   0.583   1.967   0.024
 1324SOL     OW 4357   0.781   2.126   1.749
 1324SOL    HW1 4358   0.848   2.065   1.792
 1324SOL    HW2 4359   0.708   2.145   1.814
 1325SOL     OW 4360   0.888   3.376   1.195
 1325SOL    HW1 4361   0.865   3.351   1.101
 1325SOL    HW2 4362   0.949   3.307   1.234
 1326SOL     OW 4363   1.351   2.452   1.433
 1326SOL    HW1 4364   1.379   2.409   1.518
 1326SOL    HW2 4365   1.376   2.548   1.434
 1327SOL     OW 4366   0.803   3.264   0.924
 1327SOL    HW1 4367   0.893   3.278   0.882
 1327SOL    HW2 4368   0.732   3.266   0.853
 1328SOL     OW 4369   0.922   2.365   0.899
 1328SOL    HW1 4370   0.897   2.356   0.803
 1328SOL    HW2 4371   0.970   2.283   0.930
 1329SOL     OW 4372   0.539   1.926   0.512
 1329SOL    HW1 4373   0.458   1.927   0.570
 1329SOL    HW2 4374   0.542   2.009   0.457
 1330SOL     OW 4375   1.434   3.050   0.041
 1330SOL    HW1 4376   1.466   2.974   0.098
 1330SOL    HW2 4377   1.342   3.077   0.071
 1331SOL     OW 4378   0.297   1.897   0.171
 1331SOL    HW1 4379   0.346   1.981   0.150
 1331SOL    HW2 4380   0.359   1.832   0.216
 1332SOL     OW 4381   0.935   2.098   0.480
 1332SOL    HW1 4382   0.887   2.139   0.402
 1332SOL    HW2 4383   1.034   2.096   0.461
 1333SOL     OW 4384   1.076   2.545   1.464
 1333SOL    HW1 4385   0.996   2.484   1.467
 1333SOL    HW2 4386   1.157   2.492   1.440
 1334SOL     OW 4387   1.227   3.432   0.793
 1334SOL    HW1 4388   1.248   3.506   0.728
 1334SOL    HW2 4389   1.295   3.432   0.866
 1335SOL     OW 4390   0.459   3.014   0.741
 1335SOL    HW1 4391   0.388   2.987   0.806
 1335SOL    HW2 4392   0.433   2.986   0.648
 1336SOL     OW 4393   1.271   3.659   0.591
 1336SOL    HW1 4394   1.315   3.723   0.527
 1336SOL    HW2 4395   1.221   3.711   0.661
 1337SOL     OW 4396   1.032   2.411   0.016
 1337SOL    HW1 4397   0.991   2.493  -0.023
 1337SOL    HW2 4398   1.096   2.437   0.089
 1338SOL     OW 4399   0.078   2.418   1.386
 1338SOL    HW1 4400   0.170   2.417   1.345
 1338SOL    HW2 4401   0.072   2.492   1.453
 1339SOL     OW 4402   0.561   2.084   1.147
 1339SOL    HW1 4403   0.599   2.000   1.184
 1339SOL    HW2 4404   0.473   2.103   1.191
 1340SOL     OW 4405   0.866   2.316   0.642
 1340SOL    HW1 4406   0.834   2.388   0.580
 1340SOL    HW2 4407   0.890   2.235   0.589
 1341SOL     OW 4408   1.017   1.901   0.753
 1341SOL    HW1 4409   0.945   1.906   0.684
 1341SOL    HW2 4410   0.993   1.832   0.822
 1342SOL     OW 4411   1.429   3.035   0.867
 1342SOL    HW1 4412   1.374   2.951   0.860
 1342SOL    HW2 4413   1.455   3.064   0.775
 1343SOL     OW 4414   1.466   2.452   0.992
 1343SOL    HW1 4415   1.436   2.357   0.999
 1343SOL    HW2 4416   1.539   2.468   1.058
 1344SOL     OW 4417   1.857   2.695   0.377
 1344SOL    HW1 4418   1.899   2.631   0.441
 1344SOL    HW2 4419   1.819   2.644   0.299
 1345SOL     OW 4420   0.488   3.247   0.174
 1345SOL    HW1 4421   0.401   3.232   0.221
 1345SOL    HW2 4422   0.471   3.273   0.079
 1346SOL     OW 4423   1.664   3.142   0.657
 1346SOL    HW1 4424   1.763   3.150   0.671
 1346SOL    HW2 4425   1.619   3.226   0.688
 1347SOL     OW 4426   1.390   2.437   0.078
 1347SOL    HW1 4427   1.336   2.416   0.159
 1347SOL    HW2 4428   1.481   2.396   0.087
 1348SOL     OW 4429   0.527   2.118   0.328
 1348SOL    HW1 4430   0.554   2.059   0.253
 1348SOL    HW2 4431   0.527   2.213   0.297
 1349SOL     OW 4432   1.754   3.085   1.588
 1349SOL    HW1 4433   1.845   3.046   1.575
 1349SOL    HW2 4434   1.762   3.181   1.612
 1350SOL     OW 4435   1.064   3.209   1.340
 1350SOL    HW1 4436   0.984   3.186   1.395
 1350SOL    HW2 4437   1.147   3.183   1.389
 1351SOL     OW 4438   1.592   3.491   1.625
 1351SOL    HW1 4439   1.619   3.525   1.535
 1351SOL    HW2 4440   1.671   3.453   1.671
 1352SOL     OW 4441   1.111   3.057   1.100
 1352SOL    HW1 4442   1.071   3.101   1.181
 1352SOL    HW2 4443   1.070   3.094   1.017
 1353SOL     OW 4444   1.638   2.961   1.079
 1353SOL    HW1 4445   1.643   3.042   1.138
 1353SOL    HW2 4446   1.552   2.963   1.028
 1354SOL     OW 4447   0.915   1.951   1.402
 1354SOL    HW1 4448   0.940   1.931   1.307
 1354SOL    HW2 4449   0.987   2.007   1.444
 1355SOL     OW 4450   0.980   2.978   1.719
 1355SOL    HW1 4451   0.881   2.984   1.729
 1355SOL    HW2 4452   1.003   2.898   1.663
 1356SOL     OW 4453   0.705   2.912   0.368
 1356SOL    HW1 4454   0.691   2.919   0.467
 1356SOL    HW2 4455   0.789   2.861   0.350
 1357SOL     OW 4456   0.410   2.675   1.251
 1357SOL    HW1 4457   0.496   2.687   1.301
 1357SOL    HW2 4458   0.368   2.588   1.278
 1358SOL     OW 4459   1.274   2.248   1.262
 1358SOL    HW1 4460   1.295   2.322   1.326
 1358SOL    HW2 4461   1.185   2.265   1.219
 1359SOL     OW 4462   0.064   3.426   1.331
 1359SOL    HW1 4463   0.018   3.508   1.297
 1359SOL    HW2 4464   0.162   3.445   1.340
 1360SOL     OW 4465   0.367   2.962   0.501
 1360SOL    HW1 4466   0.360   3.045   0.445
 1360SOL    HW2 4467   0.371   2.882   0.441
 1361SOL     OW 4468   0.566   2.399   0.865
 1361SOL    HW1 4469   0.578   2.465   0.791
 1361SOL    HW2 4470   0.612   2.433   0.948
 1362SOL     OW 4471   1.252   3.210   0.388
 1362SOL    HW1 4472   1.302   3.287   0.428
 1362SOL    HW2 4473   1.157   3.212   0.420
 1363SOL     OW 4474   1.272   3.307   1.142
 1363SOL    HW1 4475   1.319   3.320   1.229
 1363SOL    HW2 4476   1.206   3.233   1.151
 1364SOL     OW 4477   1.582   2.501   0.472
 1364SOL    HW1 4478   1.551   2.562   0.545
 1364SOL    HW2 4479   1.632   2.553   0.403
 1365SOL     OW 4480   0.354   3.372   1.329
 1365SOL    HW1 4481   0.333   3.328   1.242
 1365SOL    HW2 4482   0.451   3.398   1.332
 1366SOL     OW 4483   0.402   2.613   1.598
 1366SOL    HW1 4484   0.470   2.668   1.551
 1366SOL    HW2 4485   0.442   2.525   1.625
 1367SOL     OW 4486   1.587   2.641   1.670
 1367SOL    HW1 4487   1.495   2.679   1.665
 1367SOL    HW2 4488   1.647   2.688   1.605
 1368SOL     OW 4489   1.013   1.967   1.770
 1368SOL    HW1 4490   1.019   2.052   1.718
 1368SOL    HW2 4491   1.045   1.891   1.713
 1369SOL     OW 4492   0.504   1.912   1.740
 1369SOL    HW1 4493   0.462   1.855   1.670
 1369SOL    HW2 4494   0.438   1.981   1.772
 1370SOL     OW 4495   0.573   2.732   1.029
 1370SOL    HW1 4496   0.617   2.821   1.020
 1370SOL    HW2 4497   0.510   2.732   1.106
 1371SOL     OW 4498   1.360   2.724   1.045
 1371SOL    HW1 4499   1.285   2.724   0.979
 1371SOL    HW2 4500   1.397   2.632   1.054
 1372SOL     OW 4501   1.209   2.387   0.275
 1372SOL    HW1 4502   1.222   2.303   0.329
 1372SOL    HW2 4503   1.180   2.461   0.335
 1373SOL     OW 4504   0.307   2.075   1.231
 1373SOL    HW1 4505   0.284   2.112   1.321
 1373SOL    HW2 4506   0.277   1.980   1.225
 1374SOL     OW 4507   0.037   3.172   1.282
 1374SOL    HW1 4508   0.090   3.123   1.350
 1374SOL    HW2 4509   0.059   3.270   1.287
 1375SOL     OW 4510   0.732   2.496   1.064
 1375SOL    HW1 4511   0.791   2.470   0.988
 1375SOL    HW2 4512   0.704   2.592   1.053
 1376SOL     OW 4513   1.728   2.797   1.854
 1376SOL    HW1 4514   1.682   2.790   1.765
 1376SOL    HW2 4515   1.666   2.841   1.920
 1377SOL     OW 4516   0.307   1.925   0.618
 1377SOL    HW1 4517   0.296   2.019   0.651
 1377SOL    HW2 4518   0.302   1.862   0.695
 1378SOL     OW 4519   1.622   2.229   0.374
 1378SOL    HW1 4520   1.624   2.153   0.438
 1378SOL    HW2 4521   1.574   2.306   0.414
 1379SOL     OW 4522   1.023   2.628   0.966
 1379SOL    HW1 4523   1.038   2.649   1.062
 1379SOL    HW2 4524   0.993   2.533   0.957
 1380SOL     OW 4525   0.980   3.435   1.700
 1380SOL    HW1 4526   0.960   3.479   1.612
 1380SOL    HW2 4527   1.019   3.344   1.684
 1381SOL     OW 4528   1.859   3.380   1.605
 1381SOL    HW1 4529   1.873   3.407   1.510
 1381SOL    HW2 4530   1.942   3.402   1.658
 1382SOL     OW 4531   0.350   2.760   1.804
 1382SOL    HW1 4532   0.426   2.804   1.852
 1382SOL    HW2 4533   0.385   2.713   1.722
 1383SOL     OW 4534   1.540   2.136   0.125
 1383SOL    HW1 4535   1.479   2.061   0.148
 1383SOL    HW2 4536   1.562   2.188   0.208
 1384SOL     OW 4537   1.303   2.700   0.042
 1384SOL    HW1 4538   1.337   2.607   0.057
 1384SOL    HW2 4539   1.321   2.727  -0.053
 1385SOL     OW 4540   1.068   3.195   0.849
 1385SOL    HW1 4541   1.075   3.111   0.794
 1385SOL    HW2 4542   1.130   3.264   0.813
 1386SOL     OW 4543   0.319   2.672   0.949
 1386SOL    HW1 4544   0.412   2.708   0.954
 1386SOL    HW2 4545   0.313   2.587   1.001
 1387SOL     OW 4546   0.339   2.371   1.006
 1387SOL    HW1 4547   0.287   2.288   0.989
 1387SOL    HW2 4548   0.416   2.376   0.942
 1388SOL     OW 4549   1.138   2.242   1.678
 1388SOL    HW1 4550   1.093   2.305   1.742
 1388SOL    HW2 4551   1.231   2.273   1.661
 1389SOL     OW 4552   1.160   2.069   1.477
 1389SOL    HW1 4553   1.160   2.133   1.554
 1389SOL    HW2 4554   1.188   2.117   1.394
 1390SOL     OW 4555   0.008   3.188   0.200
 1390SOL    HW1 4556  -0.085   3.209   0.169
 1390SOL    HW2 4557   0.018   3.089   0.213
 1391SOL     OW 4558   0.088   3.663   0.927
 1391SOL    HW1 4559   0.046   3.577   0.900
 1391SOL    HW2 4560   0.182   3.666   0.893
 1392SOL     OW 4561   0.504   3.430   0.910
 1392SOL    HW1 4562   0.570   3.504   0.919
 1392SOL    HW2 4563   0.548   3.351   0.868
 1393SOL     OW 4564   1.002   2.658   1.238
 1393SOL    HW1 4565   1.043   2.626   1.324
 1393SOL    HW2 4566   0.906   2.631   1.235
 1394SOL     OW 4567   0.040   2.406   1.114
 1394SOL    HW1 4568   0.125   2.373   1.073
 1394SOL    HW2 4569   0.053   2.421   1.212
 1395SOL     OW 4570   0.189   2.382   1.722
 1395SOL    HW1 4571   0.248   2.342   1.652
 1395SOL    HW2 4572   0.131   2.453   1.681
 1396SOL     OW 4573   1.369   2.812   1.660
 1396SOL    HW1 4574   1.408   2.901   1.680
 1396SOL    HW2 4575   1.379   2.792   1.563
 1397SOL     OW 4576   0.815   2.434   0.325
 1397SOL    HW1 4577   0.822   2.345   0.279
 1397SOL    HW2 4578   0.721   2.468   0.317
 1398SOL     OW 4579   1.657   2.466   1.206
 1398SOL    HW1 4580   1.619   2.397   1.268
 1398SOL    HW2 4581   1.739   2.430   1.162
 1399SOL     OW 4582   0.252   3.426   1.744
 1399SOL    HW1 4583   0.222   3.483   1.820
 1399SOL    HW2 4584   0.245   3.329   1.770
 1400SOL     OW 4585   0.671   2.326   1.269
 1400SOL    HW1 4586   0.637   2.237   1.239
 1400SOL    HW2 4587   0.697   2.380   1.189
 1401SOL     OW 4588   0.930   3.540   1.465
 1401SOL    HW1 4589   0.906   3.522   1.370
 1401SOL    HW2 4590   0.960   3.634   1.475
 1402SOL     OW 4591   0.473   2.362   0.191
 1402SOL    HW1 4592   0.534   2.442   0.195
 1402SOL    HW2 4593   0.378   2.393   0.198
 1403SOL     OW 4594   0.159   2.999   1.466
 1403SOL    HW1 4595   0.181   2.938   1.542
 1403SOL    HW2 4596   0.169   2.950   1.380
 1404SOL     OW 4597   1.347   2.921   1.234
 1404SOL    HW1 4598   1.371   2.858   1.160
 1404SOL    HW2 4599   1.257   2.961   1.216
 1405SOL     OW 4600   1.302   2.717   0.309
 1405SOL    HW1 4601   1.216   2.686   0.351
 1405SOL    HW2 4602   1.298   2.703   0.210
 1406SOL     OW 4603   1.759   3.609   1.154
 1406SOL    HW1 4604   1.820   3.639   1.081
 1406SOL    HW2 4605   1.721   3.520   1.132
 1407SOL     OW 4606   1.252   3.593   1.128
 1407SOL    HW1 4607   1.336   3.598   1.074
 1407SOL    HW2 4608   1.229   3.497   1.146
 1408SOL     OW 4609   0.083   3.120   1.022
 1408SOL    HW1 4610   0.078   3.119   1.122
 1408SOL    HW2 4611   0.000   3.079   0.984
 1409SOL     OW 4612   0.688   3.524   1.716
 1409SOL    HW1 4613   0.632   3.605   1.725
 1409SOL    HW2 4614   0.740   3.528   1.630
 1410SOL     OW 4615   0.903   1.948   0.133
 1410SOL    HW1 4616   0.954   1.949   0.047
 1410SOL    HW2 4617   0.959   1.906   0.204
 1411SOL     OW 4618   1.726   1.997   0.523
 1411SOL    HW1 4619   1.799   1.980   0.456
 1411SOL    HW2 4620   1.695   1.910   0.561
 1412SOL     OW 4621   1.388   3.435   0.477
 1412SOL    HW1 4622   1.455   3.447   0.403
 1412SOL    HW2 4623   1.348   3.524   0.500
 1413SOL     OW 4624   0.130   3.656   1.851
 1413SOL    HW1 4625   0.089   3.582   1.904
 1413SOL    HW2 4626   0.194   3.707   1.909
 1414SOL     OW 4627   1.280   2.789   0.672
 1414SOL    HW1 4628   1.340   2.708   0.674
 1414SOL    HW2 4629   1.320   2.858   0.612
 1415SOL     OW 4630   0.830   3.135   1.422
 1415SOL    HW1 4631   0.825   3.168   1.517
 1415SOL    HW2 4632   0.744   3.154   1.376
 1416SOL     OW 4633   0.672   3.478   0.154
 1416SOL    HW1 4634   0.681   3.488   0.055
 1416SOL    HW2 4635   0.632   3.389   0.175
 1417SOL     OW 4636   1.650   3.582   1.394
 1417SOL    HW1 4637   1.703   3.592   1.310
 1417SOL    HW2 4638   1.623   3.672   1.428
 1418SOL     OW 4639   1.841   2.037   0.963
 1418SOL    HW1 4640   1.880   1.952   0.927
 1418SOL    HW2 4641   1.743   2.039   0.944
 1419SOL     OW 4642   0.263   2.188   0.720
 1419SOL    HW1 4643   0.184   2.239   0.686
 1419SOL    HW2 4644   0.254   2.173   0.818
 1420SOL     OW 4645   1.194   3.474   0.031
 1420SOL    HW1 4646   1.200   3.381   0.068
 1420SOL    HW2 4647   1.135   3.474  -0.049
 1421SOL     OW 4648   0.822   2.864   1.372
 1421SOL    HW1 4649   0.862   2.863   1.280
 1421SOL    HW2 4650   0.832   2.956   1.412
 1422SOL     OW 4651   0.916   2.772   0.291
 1422SOL    HW1 4652   0.979   2.810   0.223
 1422SOL    HW2 4653   0.956   2.689   0.330
 1423SOL     OW 4654   1.504   3.469   0.044
 1423SOL    HW1 4655   1.412   3.506   0.051
 1423SOL    HW2 4656   1.542   3.489  -0.046
 1424SOL     OW 4657   0.372   3.150   1.490
 1424SOL    HW1 4658   0.359   3.243   1.456
 1424SOL    HW2 4659   0.288   3.098   1.477
 1425SOL     OW 4660   1.614   3.154   1.289
 1425SOL    HW1 4661   1.674   3.157   1.369
 1425SOL    HW2 4662   1.539   3.218   1.302
 1426SOL     OW 4663   1.039   2.960   0.696
 1426SOL    HW1 4664   0.969   2.913   0.750
 1426SOL    HW2 4665   1.098   2.892   0.653
 1427SOL     OW 4666   1.014   2.098   0.971
 1427SOL    HW1 4667   1.006   2.062   0.878
 1427SOL    HW2 4668   1.012   2.022   1.036
 1428SOL     OW 4669   0.590   3.349   0.491
 1428SOL    HW1 4670   0.632   3.291   0.421
 1428SOL    HW2 4671   0.546   3.428   0.447
 1429SOL     OW 4672   1.709   2.247   1.381
 1429SOL    HW1 4673   1.782   2.316   1.385
 1429SOL    HW2 4674   1.737   2.172   1.322
 1430SOL     OW 4675   0.255   3.210   0.290
 1430SOL    HW1 4676   0.159   3.211   0.263
 1430SOL    HW2 4677   0.267   3.263   0.374
 1431SOL     OW 4678   0.105   2.875   1.726
 1431SOL    HW1 4679   0.028   2.842   1.780
 1431SOL    HW2 4680   0.190   2.845   1.768
 1432SOL     OW 4681   0.672   2.065   1.489
 1432SOL    HW1 4682   0.762   2.049   1.449
 1432SOL    HW2 4683   0.680   2.070   1.588
 1433SOL     OW 4684   0.075   2.207   0.033
 1433SOL    HW1 4685  -0.017   2.179   0.004
 1433SOL    HW2 4686   0.106   2.284  -0.023
 1434SOL     OW 4687   1.440   2.718   1.398
 1434SOL    HW1 4688   1.383   2.770   1.335
 1434SOL    HW2 4689   1.536   2.730   1.374
 1435SOL     OW 4690   0.072   2.028   0.318
 1435SOL    HW1 4691   0.055   2.111   0.264
 1435SOL    HW2 4692   0.162   1.991   0.296
 1436SOL     OW 4693   1.183   3.197   0.119
 1436SOL    HW1 4694   1.084   3.186   0.121
 1436SOL    HW2 4695   1.217   3.212   0.212
 1437SOL     OW 4696   0.613   2.704   1.431
 1437SOL    HW1 4697   0.669   2.785   1.414
 1437SOL    HW2 4698   0.672   2.624   1.434
 1438SOL     OW 4699   1.493   3.629   0.959
 1438SOL    HW1 4700   1.526   3.693   0.890
 1438SOL    HW2 4701   1.559   3.623   1.034
 1439SOL     OW 4702   0.716   2.427   1.708
 1439SOL    HW1 4703   0.735   2.492   1.782
 1439SOL    HW2 4704   0.776   2.347   1.717
 1440SOL     OW 4705   1.450   3.082   1.633
 1440SOL    HW1 4706   1.441   3.072   1.732
 1440SOL    HW2 4707   1.546   3.075   1.607
 1441SOL     OW 4708   0.390   3.603   1.560
 1441SOL    HW1 4709   0.299   3.644   1.558
 1441SOL    HW2 4710   0.383   3.509   1.592
 1442SOL     OW 4711   1.674   2.745   1.254
 1442SOL    HW1 4712   1.647   2.656   1.217
 1442SOL    HW2 4713   1.675   2.813   1.181
 1443SOL     OW 4714   1.225   2.187   0.449
 1443SOL    HW1 4715   1.290   2.113   0.438
 1443SOL    HW2 4716   1.245   2.237   0.533
 1444SOL     OW 4717   0.594   2.607   0.652
 1444SOL    HW1 4718   0.644   2.692   0.633
 1444SOL    HW2 4719   0.506   2.609   0.604
 1445SOL     OW 4720   1.777   2.204   1.642
 1445SOL    HW1 4721   1.760   2.235   1.548
 1445SOL    HW2 4722   1.693   2.167   1.680
 1446SOL     OW 4723   1.730   2.796   1.517
 1446SOL    HW1 4724   1.768   2.887   1.532
 1446SOL    HW2 4725   1.722   2.779   1.418
 1447SOL     OW 4726   0.859   3.236   0.016
 1447SOL    HW1 4727   0.813   3.251   0.104
 1447SOL    HW2 4728   0.903   3.321  -0.014
 1448SOL     OW 4729   0.661   3.652   0.953
 1448SOL    HW1 4730   0.615   3.740   0.940
 1448SOL    HW2 4731   0.760   3.664   0.946
 1449SOL     OW 4732   0.859   2.818   0.861
 1449SOL    HW1 4733   0.913   2.749   0.909
 1449SOL    HW2 4734   0.827   2.887   0.927
 1450SOL     OW 4735   1.083   2.846   0.087
 1450SOL    HW1 4736   1.060   2.899   0.005
 1450SOL    HW2 4737   1.164   2.790   0.068
 1451SOL     OW 4738   1.861   3.431   0.851
 1451SOL    HW1 4739   1.790   3.419   0.781
 1451SOL    HW2 4740   1.862   3.352   0.911
 1452SOL     OW 4741   0.221   3.176   1.844
 1452SOL    HW1 4742   0.156   3.103   1.823
 1452SOL    HW2 4743   0.225   3.190   1.942
 1453SOL     OW 4744   0.079   3.102   0.653
 1453SOL    HW1 4745   0.078   3.055   0.741
 1453SOL    HW2 4746   0.161   3.074   0.602
 1454SOL     OW 4747   0.672   3.253   1.624
 1454SOL    HW1 4748   0.594   3.203   1.662
 1454SOL    HW2 4749   0.669   3.348   1.655
 1455SOL     OW 4750   1.824   2.054   1.227
 1455SOL    HW1 4751   1.820   1.964   1.271
 1455SOL    HW2 4752   1.827   2.043   1.128
 1456SOL     OW 4753   0.428   2.286   0.520
 1456SOL    HW1 4754   0.458   2.214   0.458
 1456SOL    HW2 4755   0.389   2.246   0.603
 1457SOL     OW 4756   1.705   3.349   1.104
 1457SOL    HW1 4757   1.612   3.324   1.077
 1457SOL    HW2 4758   1.731   3.299   1.186
 1458SOL     OW 4759   0.317   2.409   1.280
 1458SOL    HW1 4760   0.355   2.350   1.352
 1458SOL    HW2 4761   0.357   2.383   1.192
 1459SOL     OW 4762   0.812   3.448   0.687
 1459SOL    HW1 4763   0.844   3.458   0.593
 1459SOL    HW2 4764   0.733   3.386   0.689
 1460SOL     OW 4765   1.424   2.076   1.112
 1460SOL    HW1 4766   1.476   2.011   1.167
 1460SOL    HW2 4767   1.375   2.139   1.173
 1461SOL     OW 4768   1.001   1.896   1.154
 1461SOL    HW1 4769   0.938   1.824   1.123
 1461SOL    HW2 4770   1.094   1.860   1.154
 1462SOL     OW 4771   0.770   3.192   0.301
 1462SOL    HW1 4772   0.724   3.105   0.318
 1462SOL    HW2 4773   0.861   3.189   0.342
 1463SOL     OW 4774   0.618   3.429   1.284
 1463SOL    HW1 4775   0.613   3.511   1.341
 1463SOL    HW2 4776   0.707   3.426   1.239
 1464SOL     OW 4777   1.352   1.914   0.168
 1464SOL    HW1 4778   1.387   1.873   0.084
 1464SOL    HW2 4779   1.262   1.876   0.188
 1465SOL     OW 4780   1.300   2.315   0.691
 1465SOL    HW1 4781   1.241   2.395   0.695
 1465SOL    HW2 4782   1.315   2.280   0.784
 1466SOL     OW 4783   1.593   2.083   0.882
 1466SOL    HW1 4784   1.509   2.082   0.936
 1466SOL    HW2 4785   1.595   2.166   0.826
 1467SOL     OW 4786   0.039   2.939   0.300
 1467SOL    HW1 4787   0.138   2.928   0.291
 1467SOL    HW2 4788  -0.001   2.853   0.332
 1468SOL     OW 4789   0.875   3.508   0.337
 1468SOL    HW1 4790   0.798   3.473   0.283
 1468SOL    HW2 4791   0.843   3.579   0.399
 1469SOL     OW 4792   0.230   2.490   1.975
 1469SOL    HW1 4793   0.137   2.488   2.012
 1469SOL    HW2 4794   0.231   2.451   1.883
 1470SOL     OW 4795   0.225   2.137   2.858
 1470SOL    HW1 4796   0.260   2.120   2.950
 1470SOL    HW2 4797   0.137   2.092   2.846
 1471SOL     OW 4798   0.019   2.230   2.509
 1471SOL    HW1 4799  -0.063   2.273   2.548
 1471SOL    HW2 4800  -0.009   2.157   2.446
 1472SOL     OW 4801   0.569   3.137   3.027
 1472SOL    HW1 4802   0.476   3.130   2.990
 1472SOL    HW2 4803   0.580   3.226   3.071
 1473SOL     OW 4804   1.555   3.373   2.565
 1473SOL    HW1 4805   1.498   3.357   2.646
 1473SOL    HW2 4806   1.496   3.383   2.485
 1474SOL     OW 4807   1.135   2.565   2.579
 1474SOL    HW1 4808   1.192   2.643   2.554
 1474SOL    HW2 4809   1.075   2.591   2.655
 1475SOL     OW 4810   1.755   2.469   2.093
 1475SOL    HW1 4811   1.743   2.456   1.994
 1475SOL    HW2 4812   1.725   2.388   2.142
 1476SOL     OW 4813   0.768   3.006   2.885
 1476SOL    HW1 4814   0.690   3.023   2.945
 1476SOL    HW2 4815   0.802   3.093   2.849
 1477SOL     OW 4816   0.850   2.660   3.685
 1477SOL    HW1 4817   0.846   2.736   3.750
 1477SOL    HW2 4818   0.872   2.696   3.594
 1478SOL     OW 4819   0.685   2.874   2.527
 1478SOL    HW1 4820   0.754   2.858   2.597
 1478SOL    HW2 4821   0.612   2.931   2.565
 1479SOL     OW 4822   0.686   3.023   3.665
 1479SOL    HW1 4823   0.746   3.102   3.679
 1479SOL    HW2 4824   0.600   3.054   3.624
 1480SOL     OW 4825   0.335   3.297   2.923
 1480SOL    HW1 4826   0.257   3.266   2.870
 1480SOL    HW2 4827   0.393   3.355   2.866
 1481SOL     OW 4828   1.460   3.367   3.201
 1481SOL    HW1 4829   1.484   3.461   3.227
 1481SOL    HW2 4830   1.444   3.313   3.283
 1482SOL     OW 4831   0.438   2.254   3.361
 1482SOL    HW1 4832   0.520   2.198   3.370
 1482SOL    HW2 4833   0.357   2.196   3.365
 1483SOL     OW 4834   1.603   2.309   2.599
 1483SOL    HW1 4835   1.529   2.355   2.549
 1483SOL    HW2 4836   1.654   2.377   2.652
 1484SOL     OW 4837   0.231   3.575   2.345
 1484SOL    HW1 4838   0.265   3.652   2.399
 1484SOL    HW2 4839   0.275   3.575   2.255
 1485SOL     OW 4840   1.127   3.203   3.552
 1485SOL    HW1 4841   1.174   3.203   3.640
 1485SOL    HW2 4842   1.079   3.116   3.541
 1486SOL     OW 4843   0.230   3.296   2.400
 1486SOL    HW1 4844   0.204   3.392   2.400
 1486SOL    HW2 4845   0.159   3.242   2.445
 1487SOL     OW 4846   0.240   2.953   2.748
 1487SOL    HW1 4847   0.254   2.869   2.800
 1487SOL    HW2 4848   0.185   3.017   2.803
 1488SOL     OW 4849   0.620   3.648   3.301
 1488SOL    HW1 4850   0.528   3.631   3.336
 1488SOL    HW2 4851   0.648   3.740   3.327
 1489SOL     OW 4852   0.606   2.826   1.985
 1489SOL    HW1 4853   0.613   2.910   1.931
 1489SOL    HW2 4854   0.652   2.839   2.073
 1490SOL     OW 4855   1.594   1.976   3.342
 1490SOL    HW1 4856   1.576   2.043   3.270
 1490SOL    HW2 4857   1.591   2.022   3.431
 1491SOL     OW 4858   0.122   2.505   2.425
 1491SOL    HW1 4859   0.077   2.417   2.442
 1491SOL    HW2 4860   0.121   2.559   2.509
 1492SOL     OW 4861   1.842   3.629   2.221
 1492SOL    HW1 4862   1.896   3.600   2.301
 1492SOL    HW2 4863   1.872   3.719   2.192
 1493SOL     OW 4864   0.027   3.458   1.979
 1493SOL    HW1 4865   0.008   3.362   2.000
 1493SOL    HW2 4866  -0.006   3.516   2.054
 1494SOL     OW 4867   1.689   2.784   2.474
 1494SOL    HW1 4868   1.784   2.755   2.482
 1494SOL    HW2 4869   1.681   2.849   2.399
 1495SOL     OW 4870   1.641   2.970   2.294
 1495SOL    HW1 4871   1.727   2.972   2.242
 1495SOL    HW2 4872   1.655   3.017   2.382
 1496SOL     OW 4873   0.113   2.599   3.459
 1496SOL    HW1 4874   0.201   2.586   3.504
 1496SOL    HW2 4875   0.100   2.696   3.437
 1497SOL     OW 4876   0.613   3.227   2.588
 1497SOL    HW1 4877   0.564   3.140   2.597
 1497SOL    HW2 4878   0.590   3.270   2.501
 1498SOL     OW 4879   1.293   3.090   3.285
 1498SOL    HW1 4880   1.330   3.017   3.227
 1498SOL    HW2 4881   1.345   3.095   3.370
 1499SOL     OW 4882   0.809   1.866   2.364
 1499SOL    HW1 4883   0.849   1.957   2.355
 1499SOL    HW2 4884   0.709   1.874   2.370
 1500SOL     OW 4885   0.197   2.838   3.126
 1500SOL    HW1 4886   0.286   2.793   3.112
 1500SOL    HW2 4887   0.124   2.773   3.107
 1501SOL     OW 4888   1.525   2.861   2.052
 1501SOL    HW1 4889   1.462   2.785   2.065
 1501SOL    HW2 4890   1.573   2.879   2.138
 1502SOL     OW 4891   1.187   3.654   3.478
 1502SOL    HW1 4892   1.211   3.714   3.402
 1502SOL    HW2 4893   1.194   3.559   3.448
 1503SOL     OW 4894   0.317   2.113   3.663
 1503SOL    HW1 4895   0.388   2.184   3.669
 1503SOL    HW2 4896   0.229   2.152   3.691
 1504SOL     OW 4897   1.466   3.279   2.815
 1504SOL    HW1 4898   1.407   3.285   2.895
 1504SOL    HW2 4899   1.451   3.191   2.769
 1505SOL     OW 4900   1.667   3.576   2.434
 1505SOL    HW1 4901   1.626   3.553   2.346
 1505SOL    HW2 4902   1.649   3.502   2.499
 1506SOL     OW 4903   0.598   2.591   2.132
 1506SOL    HW1 4904   0.622   2.660   2.064
 1506SOL    HW2 4905   0.520   2.624   2.186
 1507SOL     OW 4906   1.281   2.207   2.806
 1507SOL    HW1 4907   1.195   2.157   2.793
 1507SOL    HW2 4908   1.343   2.153   2.862
 1508SOL     OW 4909   1.576   3.524   2.169
 1508SOL    HW1 4910   1.665   3.570   2.172
 1508SOL    HW2 4911   1.555   3.500   2.074
 1509SOL     OW 4912   0.807   2.467   3.327
 1509SOL    HW1 4913   0.760   2.464   3.416
 1509SOL    HW2 4914   0.756   2.412   3.261
 1510SOL     OW 4915   1.394   2.331   3.536
 1510SOL    HW1 4916   1.374   2.374   3.624
 1510SOL    HW2 4917   1.472   2.269   3.545
 1511SOL     OW 4918   0.973   2.752   3.434
 1511SOL    HW1 4919   1.019   2.668   3.405
 1511SOL    HW2 4920   0.917   2.786   3.359
 1512SOL     OW 4921   0.991   2.272   3.104
 1512SOL    HW1 4922   0.914   2.306   3.158
 1512SOL    HW2 4923   0.957   2.221   3.025
 1513SOL     OW 4924   1.041   2.563   2.291
 1513SOL    HW1 4925   1.067   2.559   2.387
 1513SOL    HW2 4926   0.956   2.512   2.277
 1514SOL     OW 4927   0.076   2.673   2.651
 1514SOL    HW1 4928   0.175   2.661   2.660
 1514SOL    HW2 4929   0.052   2.768   2.672
 1515SOL     OW 4930   0.130   3.683   3.433
 1515SOL    HW1 4931   0.120   3.668   3.532
 1515SOL    HW2 4932   0.044   3.719   3.397
 1516SOL     OW 4933   0.865   2.210   2.057
 1516SOL    HW1 4934   0.924   2.273   2.008
 1516SOL    HW2 4935   0.884   2.116   2.028
 1517SOL     OW 4936   1.719   2.447   3.693
 1517SOL    HW1 4937   1.693   2.536   3.657
 1517SOL    HW2 4938   1.717   2.379   3.620
 1518SOL     OW 4939   1.362   3.006   2.407
 1518SOL    HW1 4940   1.445   2.977   2.359
 1518SOL    HW2 4941   1.313   3.073   2.351
 1519SOL     OW 4942   0.550   2.058   2.747
 1519SOL    HW1 4943   0.545   2.053   2.847
 1519SOL    HW2 4944   0.552   2.154   2.718
 1520SOL     OW 4945   1.008   3.318   2.339
 1520SOL    HW1 4946   0.962   3.390   2.287
 1520SOL    HW2 4947   1.004   3.338   2.437
 1521SOL     OW 4948   0.351   3.663   2.715
 1521SOL    HW1 4949   0.401   3.577   2.721
 1521SOL    HW2 4950   0.416   3.740   2.712
 1522SOL     OW 4951   1.795   2.928   2.735
 1522SOL    HW1 4952   1.733   2.913   2.659
 1522SOL    HW2 4953   1.743   2.939   2.820
 1523SOL     OW 4954   1.227   3.412   3.368
 1523SOL    HW1 4955   1.233   3.335   3.432
 1523SOL    HW2 4956   1.175   3.386   3.288
 1524SOL     OW 4957   0.321   2.805   2.104
 1524SOL    HW1 4958   0.403   2.844   2.062
 1524SOL    HW2 4959   0.294   2.723   2.055
 1525SOL     OW 4960   1.458   2.597   2.590
 1525SOL    HW1 4961   1.453   2.532   2.665
 1525SOL    HW2 4962   1.538   2.656   2.603
 1526SOL     OW 4963   0.461   3.128   3.589
 1526SOL    HW1 4964   0.411   3.129   3.503
 1526SOL    HW2 4965   0.398   3.110   3.665
 1527SOL     OW 4966   1.111   3.638   2.099
 1527SOL    HW1 4967   1.051   3.576   2.149
 1527SOL    HW2 4968   1.142   3.594   2.014
 1528SOL     OW 4969   0.202   2.147   3.360
 1528SOL    HW1 4970   0.122   2.207   3.347
 1528SOL    HW2 4971   0.192   2.098   3.446
 1529SOL     OW 4972   1.632   3.239   1.943
 1529SOL    HW1 4973   1.600   3.333   1.933
 1529SOL    HW2 4974   1.556   3.176   1.931
 1530SOL     OW 4975   0.464   3.605   2.185
 1530SOL    HW1 4976   0.497   3.644   2.271
 1530SOL    HW2 4977   0.540   3.598   2.120
 1531SOL     OW 4978   1.400   1.969   2.288
 1531SOL    HW1 4979   1.376   1.932   2.198
 1531SOL    HW2 4980   1.499   1.985   2.292
 1532SOL     OW 4981   0.249   3.647   3.103
 1532SOL    HW1 4982   0.306   3.582   3.153
 1532SOL    HW2 4983   0.233   3.614   3.010
 1533SOL     OW 4984   0.940   3.560   2.766
 1533SOL    HW1 4985   1.020   3.503   2.787
 1533SOL    HW2 4986   0.891   3.520   2.689
 1534SOL     OW 4987   0.382   2.562   2.342
 1534SOL    HW1 4988   0.427   2.472   2.339
 1534SOL    HW2 4989   0.288   2.551   2.375
 1535SOL     OW 4990   1.547   2.084   3.591
 1535SOL    HW1 4991   1.542   2.121   3.683
 1535SOL    HW2 4992   1.475   2.015   3.579
 1536SOL     OW 4993   0.614   1.984   1.979
 1536SOL    HW1 4994   0.712   1.962   1.986
 1536SOL    HW2 4995   0.583   1.967   1.886
 1537SOL     OW 4996   0.781   2.126   3.611
 1537SOL    HW1 4997   0.848   2.065   3.654
 1537SOL    HW2 4998   0.708   2.145   3.676
 1538SOL     OW 4999   0.888   3.376   3.057
 1538SOL    HW1 5000   0.865   3.351   2.963
 1538SOL    HW2 5001   0.949   3.307   3.096
 1539SOL     OW 5002   1.351   2.452   3.295
 1539SOL    HW1 5003   1.379   2.409   3.380
 1539SOL    HW2 5004   1.376   2.548   3.296
 1540SOL     OW 5005   0.803   3.264   2.786
 1540SOL    HW1 5006   0.893   3.278   2.744
 1540SOL    HW2 5007   0.732   3.266   2.715
 1541SOL     OW 5008   0.922   2.365   2.761
 1541SOL    HW1 5009   0.897   2.356   2.665
 1541SOL    HW2 5010   0.970   2.283   2.792
 1542SOL     OW 5011   0.539   1.926   2.374
 1542SOL    HW1 5012   0.458   1.927   2.432
 1542SOL    HW2 5013   0.542   2.009   2.319
 1543SOL     OW 5014   1.434   3.050   1.903
 1543SOL    HW1 5015   1.466   2.974   1.960
 1543SOL    HW2 5016   1.342   3.077   1.933
 1544SOL     OW 5017   0.297   1.897   2.033
 1544SOL    HW1 5018   0.346   1.981   2.012
 1544SOL    HW2 5019   0.359   1.832   2.078
 1545SOL     OW 5020   0.935   2.098   2.342
 1545SOL    HW1 5021   0.887   2.139   2.264
 1545SOL    HW2 5022   1.034   2.096   2.323
 1546SOL     OW 5023   1.076   2.545   3.326
 1546SOL    HW1 5024   0.996   2.484   3.329
 1546SOL    HW2 5025   1.157   2.492   3.302
 1547SOL     OW 5026   1.227   3.432   2.655
 1547SOL    HW1 5027   1.248   3.506   2.590
 1547SOL    HW2 5028   1.295   3.432   2.728
 1548SOL     OW 5029   0.459   3.014   2.603
 1548SOL    HW1 5030   0.388   2.987   2.668
 1548SOL    HW2 5031   0.433   2.986   2.510
 1549SOL     OW 5032   1.271   3.659   2.453
 1549SOL    HW1 5033   1.315   3.723   2.389
 1549SOL    HW2 5034   1.221   3.711   2.523
 1550SOL     OW 5035   1.032   2.411   1.878
 1550SOL    HW1 5036   0.991   2.493   1.839
 1550SOL    HW2 5037   1.096   2.437   1.951
 1551SOL     OW 5038   0.078   2.418   3.248
 1551SOL    HW1 5039   0.170   2.417   3.207
 1551SOL    HW2 5040   0.072   2.492   3.315
 1552SOL     OW 5041   0.561   2.084   3.009
 1552SOL    HW1 5042   0.599   2.000   3.046
 1552SOL    HW2 5043   0.473   2.103   3.053
 1553SOL     OW 5044   0.866   2.316   2.504
 1553SOL    HW1 5045   0.834   2.388   2.442
 1553SOL    HW2 5046   0.890   2.235   2.451
 1554SOL     OW 5047   1.017   1.901   2.615
 1554SOL    HW1 5048   0.945   1.906   2.546
 1554SOL    HW2 5049   0.993   1.832   2.684
 1555SOL     OW 5050   1.429   3.035   2.729
 1555SOL    HW1 5051   1.374   2.951   2.722
 1555SOL    HW2 5052   1.455   3.064   2.637
 1556SOL     OW 5053   1.466   2.452   2.854
 1556SOL    HW1 5054   1.436   2.357   2.861
 1556SOL    HW2 5055   1.539   2.468   2.920
 1557SOL     OW 5056   1.857   2.695   2.239
 1557SOL    HW1 5057   1.899   2.631   2.303
 1557SOL    HW2 5058   1.819   2.644   2.161
 1558SOL     OW 5059   0.488   3.247   2.036
 1558SOL    HW1 5060   0.401   3.232   2.083
 1558SOL    HW2 5061   0.471   3.273   1.941
 1559SOL     OW 5062   1.664   3.142   2.519
 1559SOL    HW1 5063   1.763   3.150   2.533
 1559SOL    HW2 5064   1.619   3.226   2.550
 1560SOL     OW 5065   1.390   2.437   1.940
 1560SOL    HW1 5066   1.336   2.416   2.021
 1560SOL    HW2 5067   1.481   2.396   1.949
 1561SOL     OW 5068   0.527   2.118   2.190
 1561SOL    HW1 5069   0.554   2.059   2.115
 1561SOL    HW2 5070   0.527   2.213   2.159
 1562SOL     OW 5071   1.754   3.085   3.450
 1562SOL    HW1 5072   1.845   3.046   3.437
 1562SOL    HW2 5073   1.762   3.181   3.474
 1563SOL     OW 5074   1.064   3.209   3.202
 1563SOL    HW1 5075   0.984   3.186   3.257
 1563SOL    HW2 5076   1.147   3.183   3.251
 1564SOL     OW 5077   1.592   3.491   3.487
 1564SOL    HW1 5078   1.619   3.525   3.397
 1564SOL    HW2 5079   1.671   3.453   3.533
 1565SOL     OW 5080   1.111   3.057   2.962
 1565SOL    HW1 5081   1.071   3.101   3.043
 1565SOL    HW2 5082   1.070   3.094   2.879
 1566SOL     OW 5083   1.638   2.961   2.941
 1566SOL    HW1 5084   1.643   3.042   3.000
 1566SOL    HW2 5085   1.552   2.963   2.890
 1567SOL     OW 5086   0.915   1.951   3.264
 1567SOL    HW1 5087   0.940   1.931   3.169
 1567SOL    HW2 5088   0.987   2.007   3.306
 1568SOL     OW 5089   0.980   2.978   3.581
 1568SOL    HW1 5090   0.881   2.984   3.591
 1568SOL    HW2 5091   1.003   2.898   3.525
 1569SOL     OW 5092   0.705   2.912   2.230
 1569SOL    HW1 5093   0.691   2.919   2.329
 1569SOL    HW2 5094   0.789   2.861   2.212
 1570SOL     OW 5095   0.410   2.675   3.113
 1570SOL    HW1 5096   0.496   2.687   3.163
 1570SOL    HW2 5097   0.368   2.588   3.140
 1571SOL     OW 5098   1.274   2.248   3.124
 1571SOL    HW1 5099   1.295   2.322   3.188
 1571SOL    HW2 5100   1.185   2.265   3.081
 1572SOL     OW 5101   0.064   3.426   3.193
 1572SOL    HW1 5102   0.018   3.508   3.159
 1572SOL    HW2 5103   0.162   3.445   3.202
 1573SOL     OW 5104   0.367   2.962   2.363
 1573SOL    HW1 5105   0.360   3.045   2.307
 1573SOL    HW2 5106   0.371   2.882   2.303
 1574SOL     OW 5107   0.566   2.399   2.727
 1574SOL    HW1 5108   0.578   2.465   2.653
 1574SOL    HW2 5109   0.612   2.433   2.810
 1575SOL     OW 5110   1.252   3.210   2.250
 1575SOL    HW1 5111   1.302   3.287   2.290
 1575SOL    HW2 5112   1.157   3.212   2.282
 1576SOL     OW 5113   1.272   3.307   3.004
 1576SOL    HW1 5114   1.319   3.320   3.091
 1576SOL    HW2 5115   1.206   3.233   3.013
 1577SOL     OW 5116   1.582   2.501   2.334
 1577SOL    HW1 5117   1.551   2.562   2.407
 1577SOL    HW2 5118   1.632   2.553   2.265
 1578SOL     OW 5119   0.354   3.372   3.191
 1578SOL    HW1 5120   0.333   3.328   3.104
 1578SOL    HW2 5121   0.451   3.398   3.194
 1579SOL     OW 5122   0.402   2.613   3.460
 1579SOL    HW1 5123   0.470   2.668   3.413
 1579SOL    HW2 5124   0.442   2.525   3.487
 1580SOL     OW 5125   1.587   2.641   3.532
 1580SOL    HW1 5126   1.495   2.679   3.527
 1580SOL    HW2 5127   1.647   2.688   3.467
 1581SOL     OW 5128   1.013   1.967   3.632
 1581SOL    HW1 5129   1.019   2.052   3.580
 1581SOL    HW2 5130   1.045   1.891   3.575
 1582SOL     OW 5131   0.504   1.912   3.602
 1582SOL    HW1 5132   0.462   1.855   3.532
 1582SOL    HW2 5133   0.438   1.981   3.634
 1583SOL     OW 5134   0.573   2.732   2.891
 1583SOL    HW1 5135   0.617   2.821   2.882
 1583SOL    HW2 5136   0.510   2.732   2.968
 1584SOL     OW 5137   1.360   2.724   2.907
 1584SOL    HW1 5138   1.285   2.724   2.841
 1584SOL    HW2 5139   1.397   2.632   2.916
 1585SOL     OW 5140   1.209   2.387   2.137
 1585SOL    HW1 5141   1.222   2.303   2.191
 1585SOL    HW2 5142   1.180   2.461   2.197
 1586SOL     OW 5143   0.307   2.075   3.093
 1586SOL    HW1 5144   0.284   2.112   3.183
 1586SOL    HW2 5145   0.277   1.980   3.087
 1587SOL     OW 5146   0.037   3.172   3.144
 1587SOL    HW1 5147   0.090   3.123   3.212
 1587SOL    HW2 5148   0.059   3.270   3.149
 1588SOL     OW 5149   0.732   2.496   2.926
 1588SOL    HW1 5150   0.791   2.470   2.850
 1588SOL    HW2 5151   0.704   2.592   2.915
 1589SOL     OW 5152   1.728   2.797   3.716
 1589SOL    HW1 5153   1.682   2.790   3.627
 1589SOL    HW2 5154   1.666   2.841   3.782
 1590SOL     OW 5155   0.307   1.925   2.480
 1590SOL    HW1 5156   0.296   2.019   2.513
 1590SOL    HW2 5157   0.302   1.862   2.557
 1591SOL     OW 5158   1.622   2.229   2.236
 1591SOL    HW1 5159   1.624   2.153   2.300
 1591SOL    HW2 5160   1.574   2.306   2.276
 1592SOL     OW 5161   1.023   2.628   2.828
 1592SOL    HW1 5162   1.038   2.649   2.924
 1592SOL    HW2 5163   0.993   2.533   2.819
 1593SOL     OW 5164   0.980   3.435   3.562
 1593SOL    HW1 5165   0.960   3.479   3.474
 1593SOL    HW2 5166   1.019   3.344   3.546
 1594SOL     OW 5167   1.859   3.380   3.467
 1594SOL    HW1 5168   1.873   3.407   3.372
 1594SOL    HW2 5169   1.942   3.402   3.520
 1595SOL     OW 5170   0.350   2.760   3.666
 1595SOL    HW1 5171   0.426   2.804   3.714
 1595SOL    HW2 5172   0.385   2.713   3.584
 1596SOL     OW 5173   1.540   2.136   1.987
 1596SOL    HW1 5174   1.479   2.061   2.010
 1596SOL    HW2 5175   1.562   2.188   2.070
 1597SOL     OW 5176   1.303   2.700   1.904
 1597SOL    HW1 5177   1.337   2.607   1.919
 1597SOL    HW2 5178   1.321   2.727   1.809
 1598SOL     OW 5179   1.068   3.195   2.711
 1598SOL    HW1 5180   1.075   3.111   2.656
 1598SOL    HW2 5181   1.130   3.264   2.675
 1599SOL     OW 5182   0.319   2.672   2.811
 1599SOL    HW1 5183   0.412   2.708   2.816
 1599SOL    HW2 5184   0.313   2.587   2.863
 1600SOL     OW 5185   0.339   2.371   2.868
 1600SOL    HW1 5186   0.287   2.288   2.851
 1600SOL    HW2 5187   0.416   2.376   2.804
 1601SOL     OW 5188   1.138   2.242   3.540
 1601SOL    HW1 5189   1.093   2.305   3.604
 1601SOL    HW2 5190   1.231   2.273   3.523
 1602SOL     OW 5191   1.160   2.069   3.339
 1602SOL    HW1 5192   1.160   2.133   3.416
 1602SOL    HW2 5193   1.188   2.117   3.256
 1603SOL     OW 5194   0.008   3.188   2.062
 1603SOL    HW1 5195  -0.085   3.209   2.031
 1603SOL    HW2 5196   0.018   3.089   2.075
 1604SOL     OW 5197   0.088   3.663   2.789
 1604SOL    HW1 5198   0.046   3.577   2.762
 1604SOL    HW2 5199   0.182   3.666   2.755
 1605SOL     OW 5200   0.504   3.430   2.772
 1605SOL    HW1 5201   0.570   3.504   2.781
 1605SOL    HW2 5202   0.548   3.351   2.730
 1606SOL     OW 5203   1.002   2.658   3.100
 1606SOL    HW1 5204   1.043   2.626   3.186
 1606SOL    HW2 5205   0.906   2.631   3.097
 1607SOL     OW 5206   0.040   2.406   2.976
 1607SOL    HW1 5207   0.125   2.373   2.935
 1607SOL    HW2 5208   0.053   2.421   3.074
 1608SOL     OW 5209   0.189   2.382   3.584
 1608SOL    HW1 5210   0.248   2.342   3.514
 1608SOL    HW2 5211   0.131   2.453   3.543
 1609SOL     OW 5212   1.369   2.812   3.522
 1609SOL    HW1 5213   1.408   2.901   3.542
 1609SOL    HW2 5214   1.379   2.792   3.425
 1610SOL     OW 5215   0.815   2.434   2.187
 1610SOL    HW1 5216   0.822   2.345   2.141
 1610SOL    HW2 5217   0.721   2.468   2.179
 1611SOL     OW 5218   1.657   2.466   3.068
 1611SOL    HW1 5219   1.619   2.397   3.130
 1611SOL    HW2 5220   1.739   2.430   3.024
 1612SOL     OW 5221   0.252   3.426   3.606
 1612SOL    HW1 5222   0.222   3.483   3.682
 1612SOL    HW2 5223   0.245   3.329   3.632
 1613SOL     OW 5224   0.671   2.326   3.131
 1613SOL    HW1 5225   0.637   2.237   3.101
 1613SOL    HW2 5226   0.697   2.380   3.051
 1614SOL     OW 5227   0.930   3.540   3.327
 1614SOL    HW1 5228   0.906   3.522   3.232
 1614SOL    HW2 5229   0.960   3.634   3.337
 1615SOL     OW 5230   0.473   2.362   2.053
 1615SOL    HW1 5231   0.534   2.442   2.057
 1615SOL    HW2 5232   0.378   2.393   2.060
 1616SOL     OW 5233   0.159   2.999   3.328
 1616SOL    HW1 5234   0.181   2.938   3.404
 1616SOL    HW2 5235   0.169   2.950   3.242
 1617SOL     OW 5236   1.347   2.921   3.096
 1617SOL    HW1 5237   1.371   2.858   3.022
 1617SOL    HW2 5238   1.257   2.961   3.078
 1618SOL     OW 5239   1.302   2.717   2.171
 1618SOL    HW1 5240   1.216   2.686   2.213
 1618SOL    HW2 5241   1.298   2.703   2.072
 1619SOL     OW 5242   1.759   3.609   3.016
 1619SOL    HW1 5243   1.820   3.639   2.943
 1619SOL    HW2 5244   1.721   3.520   2.994
 1620SOL     OW 5245   1.252   3.593   2.990
 1620SOL    HW1 5246   1.336   3.598   2.936
 1620SOL    HW2 5247   1.229   3.497   3.008
 1621SOL     OW 5248   0.083   3.120   2.884
 1621SOL    HW1 5249   0.078   3.119   2.984
 1621SOL    HW2 5250   0.000   3.079   2.846
 1622SOL     OW 5251   0.688   3.524   3.578
 1622SOL    HW1 5252   0.632   3.605   3.587
 1622SOL    HW2 5253   0.740   3.528   3.492
 1623SOL     OW 5254   1.726   1.997   2.385
 1623SOL    HW1 5255   1.799   1.980   2.318
 1623SOL    HW2 5256   1.695   1.910   2.423
 1624SOL     OW 5257   1.388   3.435   2.339
 1624SOL    HW1 5258   1.455   3.447   2.265
 1624SOL    HW2 5259   1.348   3.524   2.362
 1625SOL     OW 5260   0.130   3.656   3.713
 1625SOL    HW1 5261   0.089   3.582   3.766
 1625SOL    HW2 5262   0.194   3.707   3.771
 1626SOL     OW 5263   1.280   2.789   2.534
 1626SOL    HW1 5264   1.340   2.708   2.536
 1626SOL    HW2 5265   1.320   2.858   2.474
 1627SOL     OW 5266   0.830   3.135   3.284
 1627SOL    HW1 5267   0.825   3.168   3.379
 1627SOL    HW2 5268   0.744   3.154   3.238
 1628SOL     OW 5269   0.672   3.478   2.016
 1628SOL    HW1 5270   0.681   3.488   1.917
 1628SOL    HW2 5271   0.632   3.389   2.037
 1629SOL     OW 5272   1.650   3.582   3.256
 1629SOL    HW1 5273   1.703   3.592   3.172
 1629SOL    HW2 5274   1.623   3.672   3.290
 1630SOL     OW 5275   1.841   2.037   2.825
 1630SOL    HW1 5276   1.880   1.952   2.789
 1630SOL    HW2 5277   1.743   2.039   2.806
 1631SOL     OW 5278   0.263   2.188   2.582
 1631SOL    HW1 5279   0.184   2.239   2.548
 1631SOL    HW2 5280   0.254   2.173   2.680
 1632SOL     OW 5281   1.194   3.474   1.893
 1632SOL    HW1 5282   1.200   3.381   1.930
 1632SOL    HW2 5283   1.135   3.474   1.813
 1633SOL     OW 5284   0.822   2.864   3.234
 1633SOL    HW1 5285   0.862   2.863   3.142
 1633SOL    HW2 5286   0.832   2.956   3.274
 1634SOL     OW 5287   0.916   2.772   2.153
 1634SOL    HW1 5288   0.979   2.810   2.085
 1634SOL    HW2 5289   0.956   2.689   2.192
 1635SOL     OW 5290   1.504   3.469   1.906
 1635SOL    HW1 5291   1.412   3.506   1.913
 1635SOL    HW2 5292   1.542   3.489   1.816
 1636SOL     OW 5293   0.372   3.150   3.352
 1636SOL    HW1 5294   0.359   3.243   3.318
 1636SOL    HW2 5295   0.288   3.098   3.339
 1637SOL     OW 5296   1.614   3.154   3.151
 1637SOL    HW1 5297   1.674   3.157   3.231
 1637SOL    HW2 5298   1.539   3.218   3.164
 1638SOL     OW 5299   1.039   2.960   2.558
 1638SOL    HW1 5300   0.969   2.913   2.612
 1638SOL    HW2 5301   1.098   2.892   2.515
 1639SOL     OW 5302   1.014   2.098   2.833
 1639SOL    HW1 5303   1.006   2.062   2.740
 1639SOL    HW2 5304   1.012   2.022   2.898
 1640SOL     OW 5305   0.590   3.349   2.353
 1640SOL    HW1 5306   0.632   3.291   2.283
 1640SOL    HW2 5307   0.546   3.428   2.309
 1641SOL     OW 5308   1.709   2.247   3.243
 1641SOL    HW1 5309   1.782   2.316   3.247
 1641SOL    HW2 5310   1.737   2.172   3.184
 1642SOL     OW 5311   0.255   3.210   2.152
 1642SOL    HW1 5312   0.159   3.211   2.125
 1642SOL    HW2 5313   0.267   3.263   2.236
 1643SOL     OW 5314   0.105   2.875   3.588
 1643SOL    HW1 5315   0.028   2.842   3.642
 1643SOL    HW2 5316   0.190   2.845   3.630
 1644SOL     OW 5317   0.672   2.065   3.351
 1644SOL    HW1 5318   0.762   2.049   3.311
 1644SOL    HW2 5319   0.680   2.070   3.450
 1645SOL     OW 5320   0.075   2.207   1.895
 1645SOL    HW1 5321  -0.017   2.179   1.866
 1645SOL    HW2 5322   0.106   2.284   1.839
 1646SOL     OW 5323   1.440   2.718   3.260
 1646SOL    HW1 5324   1.383   2.770   3.197
 1646SOL    HW2 5325   1.536   2.730   3.236
 1647SOL     OW 5326   0.072   2.028   2.180
 1647SOL    HW1 5327   0.055   2.111   2.126
 1647SOL    HW2 5328   0.162   1.991   2.158
 1648SOL     OW 5329   1.183   3.197   1.981
 1648SOL    HW1 5330   1.084   3.186   1.983
 1648SOL    HW2 5331   1.217   3.212   2.074
 1649SOL     OW 5332   0.613   2.704   3.293
 1649SOL    HW1 5333   0.669   2.785   3.276
 1649SOL    HW2 5334   0.672   2.624   3.296
 1650SOL     OW 5335   1.493   3.629   2.821
 1650SOL    HW1 5336   1.526   3.693   2.752
 1650SOL    HW2 5337   1.559   3.623   2.896
 1651SOL     OW 5338   0.716   2.427   3.570
 1651SOL    HW1 5339   0.735   2.492   3.644
 1651SOL    HW2 5340   0.776   2.347   3.579
 1652SOL     OW 5341   1.450   3.082   3.495
 1652SOL    HW1 5342   1.441   3.072   3.594
 1652SOL    HW2 5343   1.546   3.075   3.469
 1653SOL     OW 5344   0.390   3.603   3.422
 1653SOL    HW1 5345   0.299   3.644   3.420
 1653SOL    HW2 5346   0.383   3.509   3.454
 1654SOL     OW 5347   1.674   2.745   3.116
 1654SOL    HW1 5348   1.647   2.656   3.079
 1654SOL    HW2 5349   1.675   2.813   3.043
 1655SOL     OW 5350   1.225   2.187   2.311
 1655SOL    HW1 5351   1.290   2.113   2.300
 1655SOL    HW2 5352   1.245   2.237   2.395
 1656SOL     OW 5353   0.594   2.607   2.514
 1656SOL    HW1 5354   0.644   2.692   2.495
 1656SOL    HW2 5355   0.506   2.609   2.466
 1657SOL     OW 5356   1.777   2.204   3.504
 1657SOL    HW1 5357   1.760   2.235   3.410
 1657SOL    HW2 5358   1.693   2.167   3.542
 1658SOL     OW 5359   1.730   2.796   3.379
 1658SOL    HW1 5360   1.768   2.887   3.394
 1658SOL    HW2 5361   1.722   2.779   3.280
 1659SOL     OW 5362   0.859   3.236   1.878
 1659SOL    HW1 5363   0.813   3.251   1.966
 1659SOL    HW2 5364   0.903   3.321   1.848
 1660SOL     OW 5365   0.661   3.652   2.815
 1660SOL    HW1 5366   0.615   3.740   2.802
 1660SOL    HW2 5367   0.760   3.664   2.808
 1661SOL     OW 5368   0.859   2.818   2.723
 1661SOL    HW1 5369   0.913   2.749   2.771
 1661SOL    HW2 5370   0.827   2.887   2.789
 1662SOL     OW 5371   1.083   2.846   1.949
 1662SOL    HW1 5372   1.060   2.899   1.867
 1662SOL    HW2 5373   1.164   2.790   1.930
 1663SOL     OW 5374   1.861   3.431   2.713
 1663SOL    HW1 5375   1.790   3.419   2.643
 1663SOL    HW2 5376   1.862   3.352   2.773
 1664SOL     OW 5377   0.221   3.176   3.706
 1664SOL    HW1 5378   0.156   3.103   3.685
 1664SOL    HW2 5379   0.225   3.190   3.804
 1665SOL     OW 5380   0.079   3.102   2.515
 1665SOL    HW1 5381   0.078   3.055   2.603
 1665SOL    HW2 5382   0.161   3.074   2.464
 1666SOL     OW 5383   0.672   3.253   3.486
 1666SOL    HW1 5384   0.594   3.203   3.524
 1666SOL    HW2 5385   0.669   3.348   3.517
 1667SOL     OW 5386   1.824   2.054   3.089
 1667SOL    HW1 5387   1.820   1.964   3.133
 1667SOL    HW2 5388   1.827   2.043   2.990
 1668SOL     OW 5389   0.428   2.286   2.382
 1668SOL    HW1 5390   0.458   2.214   2.320
 1668SOL    HW2 5391   0.389   2.246   2.465
 1669SOL     OW 5392   1.705   3.349   2.966
 1669SOL    HW1 5393   1.612   3.324   2.939
 1669SOL    HW2 5394   1.731   3.299   3.048
 1670SOL     OW 5395   0.317   2.409   3.142
 1670SOL    HW1 5396   0.355   2.350   3.214
 1670SOL    HW2 5397   0.357   2.383   3.054
 1671SOL     OW 5398   0.812   3.448   2.549
 1671SOL    HW1 5399   0.844   3.458   2.455
 1671SOL    HW2 5400   0.733   3.386   2.551
 1672SOL     OW 5401   1.424   2.076   2.974
 1672SOL    HW1 5402   1.476   2.011   3.029
 1672SOL    HW2 5403   1.375   2.139   3.035
 1673SOL     OW 5404   1.001   1.896   3.016
 1673SOL    HW1 5405   0.938   1.824   2.985
 1673SOL    HW2 5406   1.094   1.860   3.016
 1674SOL     OW 5407   0.770   3.192   2.163
 1674SOL    HW1 5408   0.724   3.105   2.180
 1674SOL    HW2 5409   0.861   3.189   2.204
 1675SOL     OW 5410   0.618   3.429   3.146
 1675SOL    HW1 5411   0.613   3.511   3.203
 1675SOL    HW2 5412   0.707   3.426   3.101
 1676SOL     OW 5413   1.352   1.914   2.030
 1676SOL    HW1 5414   1.387   1.873   1.946
 1676SOL    HW2 5415   1.262   1.876   2.050
 1677SOL     OW 5416   1.300   2.315   2.553
 1677SOL    HW1 5417   1.241   2.395   2.557
 1677SOL    HW2 5418   1.315   2.280   2.646
 1678SOL     OW 5419   1.593   2.083   2.744
 1678SOL    HW1 5420   1.509   2.082   2.798
 1678SOL    HW2 5421   1.595   2.166   2.688
 1679SOL     OW 5422   0.039   2.939   2.162
 1679SOL    HW1 5423   0.138   2.928   2.153
 1679SOL    HW2 5424  -0.001   2.853   2.194
 1680SOL     OW 5425   0.875   3.508   2.199
 1680SOL    HW1 5426   0.798   3.473   2.145
 1680SOL    HW2 5427   0.843   3.579   2.261
 1681SOL     OW 5428   0.230   2.490   3.837
 1681SOL    HW1 5429   0.137   2.488   3.874
 1681SOL    HW2 5430   0.231   2.451   3.745
 1682SOL     OW 5431   0.225   2.137   4.720
 1682SOL    HW1 5432   0.260   2.120   4.812
 1682SOL    HW2 5433   0.137   2.092   4.708
 1683SOL     OW 5434   0.019   2.230   4.371
 1683SOL    HW1 5435  -0.063   2.273   4.410
 1683SOL    HW2 5436  -0.009   2.157   4.308
 1684SOL     OW 5437   0.569   3.137   4.889
 1684SOL    HW1 5438   0.476   3.130   4.852
 1684SOL    HW2 5439   0.580   3.226   4.933
 1685SOL     OW 5440   1.555   3.373   4.427
 1685SOL    HW1 5441   1.498   3.357   4.508
 1685SOL    HW2 5442   1.496   3.383   4.347
 1686SOL     OW 5443   1.135   2.565   4.441
 1686SOL    HW1 5444   1.192   2.643   4.416
 1686SOL    HW2 5445   1.075   2.591   4.517
 1687SOL     OW 5446   1.755   2.469   3.955
 1687SOL    HW1 5447   1.743   2.456   3.856
 1687SOL    HW2 5448   1.725   2.388   4.004
 1688SOL     OW 5449   0.768   3.006   4.747
 1688SOL    HW1 5450   0.690   3.023   4.807
 1688SOL    HW2 5451   0.802   3.093   4.711
 1689SOL     OW 5452   0.850   2.660   5.547
 1689SOL    HW1 5453   0.846   2.736   5.612
 1689SOL    HW2 5454   0.872   2.696   5.456
 1690SOL     OW 5455   0.685   2.874   4.389
 1690SOL    HW1 5456   0.754   2.858   4.459
 1690SOL    HW2 5457   0.612   2.931   4.427
 1691SOL     OW 5458   0.686   3.023   5.527
 1691SOL    HW1 5459   0.746   3.102   5.541
 1691SOL    HW2 5460   0.600   3.054   5.486
 1692SOL     OW 5461   0.335   3.297   4.785
 1692SOL    HW1 5462   0.257   3.266   4.732
 1692SOL    HW2 5463   0.393   3.355   4.728
 1693SOL     OW 5464   1.460   3.367   5.063
 1693SOL    HW1 5465   1.484   3.461   5.089
 1693SOL    HW2 5466   1.444   3.313   5.145
 1694SOL     OW 5467   0.438   2.254   5.223
 1694SOL    HW1 5468   0.520   2.198   5.232
 1694SOL    HW2 5469   0.357   2.196   5.227
 1695SOL     OW 5470   1.603   2.309   4.461
 1695SOL    HW1 5471   1.529   2.355   4.411
 1695SOL    HW2 5472   1.654   2.377   4.514
 1696SOL     OW 5473   0.231   3.575   4.207
 1696SOL    HW1 5474   0.265   3.652   4.261
 1696SOL    HW2 5475   0.275   3.575   4.117
 1697SOL     OW 5476   1.127   3.203   5.414
 1697SOL    HW1 5477   1.174   3.203   5.502
 1697SOL    HW2 5478   1.079   3.116   5.403
 1698SOL     OW 5479   0.230   3.296   4.262
 1698SOL    HW1 5480   0.204   3.392   4.262
 1698SOL    HW2 5481   0.159   3.242   4.307
 1699SOL     OW 5482   0.240   2.953   4.610
 1699SOL    HW1 5483   0.254   2.869   4.662
 1699SOL    HW2 5484   0.185   3.017   4.665
 1700SOL     OW 5485   0.620   3.648   5.163
 1700SOL    HW1 5486   0.528   3.631   5.198
 1700SOL    HW2 5487   0.648   3.740   5.189
 1701SOL     OW 5488   0.606   2.826   3.847
 1701SOL    HW1 5489   0.613   2.910   3.793
 1701SOL    HW2 5490   0.652   2.839   3.935
 1702SOL     OW 5491   0.122   2.505   4.287
 1702SOL    HW1 5492   0.077   2.417   4.304
 1702SOL    HW2 5493   0.121   2.559   4.371
 1703SOL     OW 5494   1.842   3.629   4.083
 1703SOL    HW1 5495   1.896   3.600   4.163
 1703SOL    HW2 5496   1.872   3.719   4.054
 1704SOL     OW 5497   0.027   3.458   3.841
 1704SOL    HW1 5498   0.008   3.362   3.862
 1704SOL    HW2 5499  -0.006   3.516   3.916
 1705SOL     OW 5500   1.689   2.784   4.336
 1705SOL    HW1 5501   1.784   2.755   4.344
 1705SOL    HW2 5502   1.681   2.849   4.261
 1706SOL     OW 5503   1.641   2.970   4.156
 1706SOL    HW1 5504   1.727   2.972   4.104
 1706SOL    HW2 5505   1.655   3.017   4.244
 1707SOL     OW 5506   0.113   2.599   5.321
 1707SOL    HW1 5507   0.201   2.586   5.366
 1707SOL    HW2 5508   0.100   2.696   5.299
 1708SOL     OW 5509   0.613   3.227   4.450
 1708SOL    HW1 5510   0.564   3.140   4.459
 1708SOL    HW2 5511   0.590   3.270   4.363
 1709SOL     OW 5512   1.293   3.090   5.147
 1709SOL    HW1 5513   1.330   3.017   5.089
 1709SOL    HW2 5514   1.345   3.095   5.232
 1710SOL     OW 5515   0.809   1.866   4.226
 1710SOL    HW1 5516   0.849   1.957   4.217
 1710SOL    HW2 5517   0.709   1.874   4.232
 1711SOL     OW 5518   0.197   2.838   4.988
 1711SOL    HW1 5519   0.286   2.793   4.974
 1711SOL    HW2 5520   0.124   2.773   4.969
 1712SOL     OW 5521   1.525   2.861   3.914
 1712SOL    HW1 5522   1.462   2.785   3.927
 1712SOL    HW2 5523   1.573   2.879   4.000
 1713SOL     OW 5524   1.187   3.654   5.340
 1713SOL    HW1 5525   1.211   3.714   5.264
 1713SOL    HW2 5526   1.194   3.559   5.310
 1714SOL     OW 5527   0.317   2.113   5.525
 1714SOL    HW1 5528   0.388   2.184   5.531
 1714SOL    HW2 5529   0.229   2.152   5.553
 1715SOL     OW 5530   1.466   3.279   4.677
 1715SOL    HW1 5531   1.407   3.285   4.757
 1715SOL    HW2 5532   1.451   3.191   4.631
 1716SOL     OW 5533   1.667   3.576   4.296
 1716SOL    HW1 5534   1.626   3.553   4.208
 1716SOL    HW2 5535   1.649   3.502   4.361
 1717SOL     OW 5536   0.598   2.591   3.994
 1717SOL    HW1 5537   0.622   2.660   3.926
 1717SOL    HW2 5538   0.520   2.624   4.048
 1718SOL     OW 5539   1.281   2.207   4.668
 1718SOL    HW1 5540   1.195   2.157   4.655
 1718SOL    HW2 5541   1.343   2.153   4.724
 1719SOL     OW 5542   1.576   3.524   4.031
 1719SOL    HW1 5543   1.665   3.570   4.034
 1719SOL    HW2 5544   1.555   3.500   3.936
 1720SOL     OW 5545   0.807   2.467   5.189
 1720SOL    HW1 5546   0.760   2.464   5.278
 1720SOL    HW2 5547   0.756   2.412   5.123
 1721SOL     OW 5548   0.973   2.752   5.296
 1721SOL    HW1 5549   1.019   2.668   5.267
 1721SOL    HW2 5550   0.917   2.786   5.221
 1722SOL     OW 5551   0.991   2.272   4.966
 1722SOL    HW1 5552   0.914   2.306   5.020
 1722SOL    HW2 5553   0.957   2.221   4.887
 1723SOL     OW 5554   1.041   2.563   4.153
 1723SOL    HW1 5555   1.067   2.559   4.249
 1723SOL    HW2 5556   0.956   2.512   4.139
 1724SOL     OW 5557   0.076   2.673   4.513
 1724SOL    HW1 5558   0.175   2.661   4.522
 1724SOL    HW2 5559   0.052   2.768   4.534
 1725SOL     OW 5560   0.130   3.683   5.295
 1725SOL    HW1 5561   0.120   3.668   5.394
 1725SOL    HW2 5562   0.044   3.719   5.259
 1726SOL     OW 5563   0.865   2.210   3.919
 1726SOL    HW1 5564   0.924   2.273   3.870
 1726SOL    HW2 5565   0.884   2.116   3.890
 1727SOL     OW 5566   1.362   3.006   4.269
 1727SOL    HW1 5567   1.445   2.977   4.221
 1727SOL    HW2 5568   1.313   3.073   4.213
 1728SOL     OW 5569   0.550   2.058   4.609
 1728SOL    HW1 5570   0.545   2.053   4.709
 1728SOL    HW2 5571   0.552   2.154   4.580
 1729SOL     OW 5572   1.008   3.318   4.201
 1729SOL    HW1 5573   0.962   3.390   4.149
 1729SOL    HW2 5574   1.004   3.338   4.299
 1730SOL     OW 5575   0.351   3.663   4.577
 1730SOL    HW1 5576   0.401   3.577   4.583
 1730SOL    HW2 5577   0.416   3.740   4.574
 1731SOL     OW 5578   1.795   2.928   4.597
 1731SOL    HW1 5579   1.733   2.913   4.521
 1731SOL    HW2 5580   1.743   2.939   4.682
 1732SOL     OW 5581   1.227   3.412   5.230
 1732SOL    HW1 5582   1.233   3.335   5.294
 1732SOL    HW2 5583   1.175   3.386   5.150
 1733SOL     OW 5584   0.321   2.805   3.966
 1733SOL    HW1 5585   0.403   2.844   3.924
 1733SOL    HW2 5586   0.294   2.723   3.917
 1734SOL     OW 5587   1.458   2.597   4.452
 1734SOL    HW1 5588   1.453   2.532   4.527
 1734SOL    HW2 5589   1.538   2.656   4.465
 1735SOL     OW 5590   0.461   3.128   5.451
 1735SOL    HW1 5591   0.411   3.129   5.365
 1735SOL    HW2 5592   0.398   3.110   5.527
 1736SOL     OW 5593   1.111   3.638   3.961
 1736SOL    HW1 5594   1.051   3.576   4.011
 1736SOL    HW2 5595   1.142   3.594   3.876
 1737SOL     OW 5596   0.202   2.147   5.222
 1737SOL    HW1 5597   0.122   2.207   5.209
 1737SOL    HW2 5598   0.192   2.098   5.308
 1738SOL     OW 5599   1.632   3.239   3.805
 1738SOL    HW1 5600   1.600   3.333   3.795
 1738SOL    HW2 5601   1.556   3.176   3.793
 1739SOL     OW 5602   0.464   3.605   4.047
 1739SOL    HW1 5603   0.497   3.644   4.133
 1739SOL    HW2 5604   0.540   3.598   3.982
 1740SOL     OW 5605   1.400   1.969   4.150
 1740SOL    HW1 5606   1.376   1.932   4.060
 1740SOL    HW2 5607   1.499   1.985   4.154
 1741SOL     OW 5608   0.249   3.647   4.965
 1741SOL    HW1 5609   0.306   3.582   5.015
 1741SOL    HW2 5610   0.233   3.614   4.872
 1742SOL     OW 5611   0.940   3.560   4.628
 1742SOL    HW1 5612   1.020   3.503   4.649
 1742SOL    HW2 5613   0.891   3.520   4.551
 1743SOL     OW 5614   0.382   2.562   4.204
 1743SOL    HW1 5615   0.427   2.472   4.201
 1743SOL    HW2 5616   0.288   2.551   4.237
 1744SOL     OW 5617   0.614   1.984   3.841
 1744SOL    HW1 5618   0.712   1.962   3.848
 1744SOL    HW2 5619   0.583   1.967   3.748
 1745SOL     OW 5620   0.781   2.126   5.473
 1745SOL    HW1 5621   0.848   2.065   5.516
 1745SOL    HW2 5622   0.708   2.145   5.538
 1746SOL     OW 5623   0.888   3.376   4.919
 1746SOL    HW1 5624   0.865   3.351   4.825
 1746SOL    HW2 5625   0.949   3.307   4.958
 1747SOL     OW 5626   0.803   3.264   4.648
 1747SOL    HW1 5627   0.893   3.278   4.606
 1747SOL    HW2 5628   0.732   3.266   4.577
 1748SOL     OW 5629   0.922   2.365   4.623
 1748SOL    HW1 5630   0.897   2.356   4.527
 1748SOL    HW2 5631   0.970   2.283   4.654
 1749SOL     OW 5632   0.539   1.926   4.236
 1749SOL    HW1 5633   0.458   1.927   4.294
 1749SOL    HW2 5634   0.542   2.009   4.181
 1750SOL     OW 5635   1.434   3.050   3.765
 1750SOL    HW1 5636   1.466   2.974   3.822
 1750SOL    HW2 5637   1.342   3.077   3.795
 1751SOL     OW 5638   0.297   1.897   3.895
 1751SOL    HW1 5639   0.346   1.981   3.874
 1751SOL    HW2 5640   0.359   1.832   3.940
 1752SOL     OW 5641   0.935   2.098   4.204
 1752SOL    HW1 5642   0.887   2.139   4.126
 1752SOL    HW2 5643   1.034   2.096   4.185
 1753SOL     OW 5644   1.076   2.545   5.188
 1753SOL    HW1 5645   0.996   2.484   5.191
 1753SOL    HW2 5646   1.157   2.492   5.164
 1754SOL     OW 5647   1.227   3.432   4.517
 1754SOL    HW1 5648   1.248   3.506   4.452
 1754SOL    HW2 5649   1.295   3.432   4.590
 1755SOL     OW 5650   0.459   3.014   4.465
 1755SOL    HW1 5651   0.388   2.987   4.530
 1755SOL    HW2 5652   0.433   2.986   4.372
 1756SOL     OW 5653   1.271   3.659   4.315
 1756SOL    HW1 5654   1.315   3.723   4.251
 1756SOL    HW2 5655   1.221   3.711   4.385
 1757SOL     OW 5656   1.032   2.411   3.740
 1757SOL    HW1 5657   0.991   2.493   3.701
 1757SOL    HW2 5658   1.096   2.437   3.813
 1758SOL     OW 5659   0.078   2.418   5.110
 1758SOL    HW1 5660   0.170   2.417   5.069
 1758SOL    HW2 5661   0.072   2.492   5.177
 1759SOL     OW 5662   0.561   2.084   4.871
 1759SOL    HW1 5663   0.599   2.000   4.908
 1759SOL    HW2 5664   0.473   2.103   4.915
 1760SOL     OW 5665   0.866   2.316   4.366
 1760SOL    HW1 5666   0.834   2.388   4.304
 1760SOL    HW2 5667   0.890   2.235   4.313
 1761SOL     OW 5668   1.017   1.901   4.477
 1761SOL    HW1 5669   0.945   1.906   4.408
 1761SOL    HW2 5670   0.993   1.832   4.546
 1762SOL     OW 5671   1.429   3.035   4.591
 1762SOL    HW1 5672   1.374   2.951   4.584
 1762SOL    HW2 5673   1.455   3.064   4.499
 1763SOL     OW 5674   1.466   2.452   4.716
 1763SOL    HW1 5675   1.436   2.357   4.723
 1763SOL    HW2 5676   1.539   2.468   4.782
 1764SOL     OW 5677   1.857   2.695   4.101
 1764SOL    HW1 5678   1.899   2.631   4.165
 1764SOL    HW2 5679   1.819   2.644   4.023
 1765SOL     OW 5680   0.488   3.247   3.898
 1765SOL    HW1 5681   0.401   3.232   3.945
 1765SOL    HW2 5682   0.471   3.273   3.803
 1766SOL     OW 5683   1.664   3.142   4.381
 1766SOL    HW1 5684   1.763   3.150   4.395
 1766SOL    HW2 5685   1.619   3.226   4.412
 1767SOL     OW 5686   1.390   2.437   3.802
 1767SOL    HW1 5687   1.336   2.416   3.883
 1767SOL    HW2 5688   1.481   2.396   3.811
 1768SOL     OW 5689   0.527   2.118   4.052
 1768SOL    HW1 5690   0.554   2.059   3.977
 1768SOL    HW2 5691   0.527   2.213   4.021
 1769SOL     OW 5692   1.064   3.209   5.064
 1769SOL    HW1 5693   0.984   3.186   5.119
 1769SOL    HW2 5694   1.147   3.183   5.113
 1770SOL     OW 5695   1.592   3.491   5.349
 1770SOL    HW1 5696   1.619   3.525   5.259
 1770SOL    HW2 5697   1.671   3.453   5.395
 1771SOL     OW 5698   1.111   3.057   4.824
 1771SOL    HW1 5699   1.071   3.101   4.905
 1771SOL    HW2 5700   1.070   3.094   4.741
 1772SOL     OW 5701   1.638   2.961   4.803
 1772SOL    HW1 5702   1.643   3.042   4.862
 1772SOL    HW2 5703   1.552   2.963   4.752
 1773SOL     OW 5704   0.915   1.951   5.126
 1773SOL    HW1 5705   0.940   1.931   5.031
 1773SOL    HW2 5706   0.987   2.007   5.168
 1774SOL     OW 5707   0.980   2.978   5.443
 1774SOL    HW1 5708   0.881   2.984   5.453
 1774SOL    HW2 5709   1.003   2.898   5.387
 1775SOL     OW 5710   0.705   2.912   4.092
 1775SOL    HW1 5711   0.691   2.919   4.191
 1775SOL    HW2 5712   0.789   2.861   4.074
 1776SOL     OW 5713   0.410   2.675   4.975
 1776SOL    HW1 5714   0.496   2.687   5.025
 1776SOL    HW2 5715   0.368   2.588   5.002
 1777SOL     OW 5716   1.274   2.248   4.986
 1777SOL    HW1 5717   1.295   2.322   5.050
 1777SOL    HW2 5718   1.185   2.265   4.943
 1778SOL     OW 5719   0.064   3.426   5.055
 1778SOL    HW1 5720   0.018   3.508   5.021
 1778SOL    HW2 5721   0.162   3.445   5.064
 1779SOL     OW 5722   0.367   2.962   4.225
 1779SOL    HW1 5723   0.360   3.045   4.169
 1779SOL    HW2 5724   0.371   2.882   4.165
 1780SOL     OW 5725   0.566   2.399   4.589
 1780SOL    HW1 5726   0.578   2.465   4.515
 1780SOL    HW2 5727   0.612   2.433   4.672
 1781SOL     OW 5728   1.252   3.210   4.112
 1781SOL    HW1 5729   1.302   3.287   4.152
 1781SOL    HW2 5730   1.157   3.212   4.144
 1782SOL     OW 5731   1.272   3.307   4.866
 1782SOL    HW1 5732   1.319   3.320   4.953
 1782SOL    HW2 5733   1.206   3.233   4.875
 1783SOL     OW 5734   1.582   2.501   4.196
 1783SOL    HW1 5735   1.551   2.562   4.269
 1783SOL    HW2 5736   1.632   2.553   4.127
 1784SOL     OW 5737   0.354   3.372   5.053
 1784SOL    HW1 5738   0.333   3.328   4.966
 1784SOL    HW2 5739   0.451   3.398   5.056
 1785SOL     OW 5740   0.402   2.613   5.322
 1785SOL    HW1 5741   0.470   2.668   5.275
 1785SOL    HW2 5742   0.442   2.525   5.349
 1786SOL     OW 5743   1.587   2.641   5.394
 1786SOL    HW1 5744   1.495   2.679   5.389
 1786SOL    HW2 5745   1.647   2.688   5.329
 1787SOL     OW 5746   1.013   1.967   5.494
 1787SOL    HW1 5747   1.019   2.052   5.442
 1787SOL    HW2 5748   1.045   1.891   5.437
 1788SOL     OW 5749   0.504   1.912   5.464
 1788SOL    HW1 5750   0.462   1.855   5.394
 1788SOL    HW2 5751   0.438   1.981   5.496
 1789SOL     OW 5752   0.573   2.732   4.753
 1789SOL    HW1 5753   0.617   2.821   4.744
 1789SOL    HW2 5754   0.510   2.732   4.830
 1790SOL     OW 5755   1.360   2.724   4.769
 1790SOL    HW1 5756   1.285   2.724   4.703
 1790SOL    HW2 5757   1.397   2.632   4.778
 1791SOL     OW 5758   1.209   2.387   3.999
 1791SOL    HW1 5759   1.222   2.303   4.053
 1791SOL    HW2 5760   1.180   2.461   4.059
 1792SOL     OW 5761   0.307   2.075   4.955
 1792SOL    HW1 5762   0.284   2.112   5.045
 1792SOL    HW2 5763   0.277   1.980   4.949
 1793SOL     OW 5764   0.037   3.172   5.006
 1793SOL    HW1 5765   0.090   3.123   5.074
 1793SOL    HW2 5766   0.059   3.270   5.011
 1794SOL     OW 5767   0.732   2.496   4.788
 1794SOL    HW1 5768   0.791   2.470   4.712
 1794SOL    HW2 5769   0.704   2.592   4.777
 1795SOL     OW 5770   1.728   2.797   5.578
 1795SOL    HW1 5771   1.682   2.790   5.489
 1795SOL    HW2 5772   1.666   2.841   5.644
 1796SOL     OW 5773   0.307   1.925   4.342
 1796SOL    HW1 5774   0.296   2.019   4.375
 1796SOL    HW2 5775   0.302   1.862   4.419
 1797SOL     OW 5776   1.622   2.229   4.098
 1797SOL    HW1 5777   1.624   2.153   4.162
 1797SOL    HW2 5778   1.574   2.306   4.138
 1798SOL     OW 5779   1.023   2.628   4.690
 1798SOL    HW1 5780   1.038   2.649   4.786
 1798SOL    HW2 5781   0.993   2.533   4.681
 1799SOL     OW 5782   0.980   3.435   5.424
 1799SOL    HW1 5783   0.960   3.479   5.336
 1799SOL    HW2 5784   1.019   3.344   5.408
 1800SOL     OW 5785   1.859   3.380   5.329
 1800SOL    HW1 5786   1.873   3.407   5.234
 1800SOL    HW2 5787   1.942   3.402   5.382
 1801SOL     OW 5788   0.350   2.760   5.528
 1801SOL    HW1 5789   0.426   2.804   5.576
 1801SOL    HW2 5790   0.385   2.713   5.446
 1802SOL     OW 5791   1.540   2.136   3.849
 1802SOL    HW1 5792   1.479   2.061   3.872
 1802SOL    HW2 5793   1.562   2.188   3.932
 1803SOL     OW 5794   1.303   2.700   3.766
 1803SOL    HW1 5795   1.337   2.607   3.781
 1803SOL    HW2 5796   1.321   2.727   3.671
 1804SOL     OW 5797   1.068   3.195   4.573
 1804SOL    HW1 5798   1.075   3.111   4.518
 1804SOL    HW2 5799   1.130   3.264   4.537
 1805SOL     OW 5800   0.319   2.672   4.673
 1805SOL    HW1 5801   0.412   2.708   4.678
 1805SOL    HW2 5802   0.313   2.587   4.725
 1806SOL     OW 5803   0.339   2.371   4.730
 1806SOL    HW1 5804   0.287   2.288   4.713
 1806SOL    HW2 5805   0.416   2.376   4.666
 1807SOL     OW 5806   1.138   2.242   5.402
 1807SOL    HW1 5807   1.093   2.305   5.466
 1807SOL    HW2 5808   1.231   2.273   5.385
 1808SOL     OW 5809   1.160   2.069   5.201
 1808SOL    HW1 5810   1.160   2.133   5.278
 1808SOL    HW2 5811   1.188   2.117   5.118
 1809SOL     OW 5812   0.008   3.188   3.924
 1809SOL    HW1 5813  -0.085   3.209   3.893
 1809SOL    HW2 5814   0.018   3.089   3.937
 1810SOL     OW 5815   0.088   3.663   4.651
 1810SOL    HW1 5816   0.046   3.577   4.624
 1810SOL    HW2 5817   0.182   3.666   4.617
 1811SOL     OW 5818   0.504   3.430   4.634
 1811SOL    HW1 5819   0.570   3.504   4.643
 1811SOL    HW2 5820   0.548   3.351   4.592
 1812SOL     OW 5821   1.002   2.658   4.962
 1812SOL    HW1 5822   1.043   2.626   5.048
 1812SOL    HW2 5823   0.906   2.631   4.959
 1813SOL     OW 5824   0.040   2.406   4.838
 1813SOL    HW1 5825   0.125   2.373   4.797
 1813SOL    HW2 5826   0.053   2.421   4.936
 1814SOL     OW 5827   0.189   2.382   5.446
 1814SOL    HW1 5828   0.248   2.342   5.376
 1814SOL    HW2 5829   0.131   2.453   5.405
 1815SOL     OW 5830   1.369   2.812   5.384
 1815SOL    HW1 5831   1.408   2.901   5.404
 1815SOL    HW2 5832   1.379   2.792   5.287
 1816SOL     OW 5833   0.815   2.434   4.049
 1816SOL    HW1 5834   0.822   2.345   4.003
 1816SOL    HW2 5835   0.721   2.468   4.041
 1817SOL     OW 5836   1.657   2.466   4.930
 1817SOL    HW1 5837   1.619   2.397   4.992
 1817SOL    HW2 5838   1.739   2.430   4.886
 1818SOL     OW 5839   0.252   3.426   5.468
 1818SOL    HW1 5840   0.222   3.483   5.544
 1818SOL    HW2 5841   0.245   3.329   5.494
 1819SOL     OW 5842   0.671   2.326   4.993
 1819SOL    HW1 5843   0.637   2.237   4.963
 1819SOL    HW2 5844   0.697   2.380   4.913
 1820SOL     OW 5845   0.930   3.540   5.189
 1820SOL    HW1 5846   0.906   3.522   5.094
 1820SOL    HW2 5847   0.960   3.634   5.199
 1821SOL     OW 5848   0.473   2.362   3.915
 1821SOL    HW1 5849   0.534   2.442   3.919
 1821SOL    HW2 5850   0.378   2.393   3.922
 1822SOL     OW 5851   0.159   2.999   5.190
 1822SOL    HW1 5852   0.181   2.938   5.266
 1822SOL    HW2 5853   0.169   2.950   5.104
 1823SOL     OW 5854   1.347   2.921   4.958
 1823SOL    HW1 5855   1.371   2.858   4.884
 1823SOL    HW2 5856   1.257   2.961   4.940
 1824SOL     OW 5857   1.302   2.717   4.033
 1824SOL    HW1 5858   1.216   2.686   4.075
 1824SOL    HW2 5859   1.298   2.703   3.934
 1825SOL     OW 5860   1.759   3.609   4.878
 1825SOL    HW1 5861   1.820   3.639   4.805
 1825SOL    HW2 5862   1.721   3.520   4.856
 1826SOL     OW 5863   1.252   3.593   4.852
 1826SOL    HW1 5864   1.336   3.598   4.798
 1826SOL    HW2 5865   1.229   3.497   4.870
 1827SOL     OW 5866   0.083   3.120   4.746
 1827SOL    HW1 5867   0.078   3.119   4.846
 1827SOL    HW2 5868   0.000   3.079   4.708
 1828SOL     OW 5869   0.688   3.524   5.440
 1828SOL    HW1 5870   0.632   3.605   5.449
 1828SOL    HW2 5871   0.740   3.528   5.354
 1829SOL     OW 5872   1.726   1.997   4.247
 1829SOL    HW1 5873   1.799   1.980   4.180
 1829SOL    HW2 5874   1.695   1.910   4.285
 1830SOL     OW 5875   1.388   3.435   4.201
 1830SOL    HW1 5876   1.455   3.447   4.127
 1830SOL    HW2 5877   1.348   3.524   4.224
 1831SOL     OW 5878   0.130   3.656   5.575
 1831SOL    HW1 5879   0.089   3.582   5.628
 1831SOL    HW2 5880   0.194   3.707   5.633
 1832SOL     OW 5881   1.280   2.789   4.396
 1832SOL    HW1 5882   1.340   2.708   4.398
 1832SOL    HW2 5883   1.320   2.858   4.336
 1833SOL     OW 5884   0.830   3.135   5.146
 1833SOL    HW1 5885   0.825   3.168   5.241
 1833SOL    HW2 5886   0.744   3.154   5.100
 1834SOL     OW 5887   0.672   3.478   3.878
 1834SOL    HW1 5888   0.681   3.488   3.779
 1834SOL    HW2 5889   0.632   3.389   3.899
 1835SOL     OW 5890   1.650   3.582   5.118
 1835SOL    HW1 5891   1.703   3.592   5.034
 1835SOL    HW2 5892   1.623   3.672   5.152
 1836SOL     OW 5893   1.841   2.037   4.687
 1836SOL    HW1 5894   1.880   1.952   4.651
 1836SOL    HW2 5895   1.743   2.039   4.668
 1837SOL     OW 5896   0.263   2.188   4.444
 1837SOL    HW1 5897   0.184   2.239   4.410
 1837SOL    HW2 5898   0.254   2.173   4.542
 1838SOL     OW 5899   1.194   3.474   3.755
 1838SOL    HW1 5900   1.200   3.381   3.792
 1838SOL    HW2 5901   1.135   3.474   3.675
 1839SOL     OW 5902   0.822   2.864   5.096
 1839SOL    HW1 5903   0.862   2.863   5.004
 1839SOL    HW2 5904   0.832   2.956   5.136
 1840SOL     OW 5905   0.916   2.772   4.015
 1840SOL    HW1 5906   0.979   2.810   3.947
 1840SOL    HW2 5907   0.956   2.689   4.054
 1841SOL     OW 5908   1.504   3.469   3.768
 1841SOL    HW1 5909   1.412   3.506   3.775
 1841SOL    HW2 5910   1.542   3.489   3.678
 1842SOL     OW 5911   0.372   3.150   5.214
 1842SOL    HW1 5912   0.359   3.243   5.180
 1842SOL    HW2 5913   0.288   3.098   5.201
 1843SOL     OW 5914   1.614   3.154   5.013
 1843SOL    HW1 5915   1.674   3.157   5.093
 1843SOL    HW2 5916   1.539   3.218   5.026
 1844SOL     OW 5917   1.039   2.960   4.420
 1844SOL    HW1 5918   0.969   2.913   4.474
 1844SOL    HW2 5919   1.098   2.892   4.377
 1845SOL     OW 5920   1.014   2.098   4.695
 1845SOL    HW1 5921   1.006   2.062   4.602
 1845SOL    HW2 5922   1.012   2.022   4.760
 1846SOL     OW 5923   0.590   3.349   4.215
 1846SOL    HW1 5924   0.632   3.291   4.145
 1846SOL    HW2 5925   0.546   3.428   4.171
 1847SOL     OW 5926   0.255   3.210   4.014
 1847SOL    HW1 5927   0.159   3.211   3.987
 1847SOL    HW2 5928   0.267   3.263   4.098
 1848SOL     OW 5929   0.105   2.875   5.450
 1848SOL    HW1 5930   0.028   2.842   5.504
 1848SOL    HW2 5931   0.190   2.845   5.492
 1849SOL     OW 5932   0.672   2.065   5.213
 1849SOL    HW1 5933   0.762   2.049   5.173
 1849SOL    HW2 5934   0.680   2.070   5.312
 1850SOL     OW 5935   0.075   2.207   3.757
 1850SOL    HW1 5936  -0.017   2.179   3.728
 1850SOL    HW2 5937   0.106   2.284   3.701
 1851SOL     OW 5938   1.440   2.718   5.122
 1851SOL    HW1 5939   1.383   2.770   5.059
 1851SOL    HW2 5940   1.536   2.730   5.098
 1852SOL     OW 5941   0.072   2.028   4.042
 1852SOL    HW1 5942   0.055   2.111   3.988
 1852SOL    HW2 5943   0.162   1.991   4.020
 1853SOL     OW 5944   1.183   3.197   3.843
 1853SOL    HW1 5945   1.084   3.186   3.845
 1853SOL    HW2 5946   1.217   3.212   3.936
 1854SOL     OW 5947   0.613   2.704   5.155
 1854SOL    HW1 5948   0.669   2.785   5.138
 1854SOL    HW2 5949   0.672   2.624   5.158
 1855SOL     OW 5950   1.493   3.629   4.683
 1855SOL    HW1 5951   1.526   3.693   4.614
 1855SOL    HW2 5952   1.559   3.623   4.758
 1856SOL     OW 5953   0.716   2.427   5.432
 1856SOL    HW1 5954   0.735   2.492   5.506
 1856SOL    HW2 5955   0.776   2.347   5.441
 1857SOL     OW 5956   1.450   3.082   5.357
 1857SOL    HW1 5957   1.441   3.072   5.456
 1857SOL    HW2 5958   1.546   3.075   5.331
 1858SOL     OW 5959   0.390   3.603   5.284
 1858SOL    HW1 5960   0.299   3.644   5.282
 1858SOL    HW2 5961   0.383   3.509   5.316
 1859SOL     OW 5962   1.674   2.745   4.978
 1859SOL    HW1 5963   1.647   2.656   4.941
 1859SOL    HW2 5964   1.675   2.813   4.905
 1860SOL     OW 5965   1.225   2.187   4.173
 1860SOL    HW1 5966   1.290   2.113   4.162
 1860SOL    HW2 5967   1.245   2.237   4.257
 1861SOL     OW 5968   0.594   2.607   4.376
 1861SOL    HW1 5969   0.644   2.692   4.357
 1861SOL    HW2 5970   0.506   2.609   4.328
 1862SOL     OW 5971   0.859   3.236   3.740
 1862SOL    HW1 5972   0.813   3.251   3.828
 1862SOL    HW2 5973   0.903   3.321   3.710
 1863SOL     OW 5974   0.661   3.652   4.677
 1863SOL    HW1 5975   0.615   3.740   4.664
 1863SOL    HW2 5976   0.760   3.664   4.670
 1864SOL     OW 5977   0.859   2.818   4.585
 1864SOL    HW1 5978   0.913   2.749   4.633
 1864SOL    HW2 5979   0.827   2.887   4.651
 1865SOL     OW 5980   1.083   2.846   3.811
 1865SOL    HW1 5981   1.060   2.899   3.729
 1865SOL    HW2 5982   1.164   2.790   3.792
 1866SOL     OW 5983   1.861   3.431   4.575
 1866SOL    HW1 5984   1.790   3.419   4.505
 1866SOL    HW2 5985   1.862   3.352   4.635
 1867SOL     OW 5986   0.221   3.176   5.568
 1867SOL    HW1 5987   0.156   3.103   5.547
 1867SOL    HW2 5988   0.225   3.190   5.666
 1868SOL     OW 5989   0.079   3.102   4.377
 1868SOL    HW1 5990   0.078   3.055   4.465
 1868SOL    HW2 5991   0.161   3.074   4.326
 1869SOL     OW 5992   0.672   3.253   5.348
 1869SOL    HW1 5993   0.594   3.203   5.386
 1869SOL    HW2 5994   0.669   3.348   5.379
 1870SOL     OW 5995   1.824   2.054   4.951
 1870SOL    HW1 5996   1.820   1.964   4.995
 1870SOL    HW2 5997   1.827   2.043   4.852
 1871SOL     OW 5998   0.428   2.286   4.244
 1871SOL    HW1 5999   0.458   2.214   4.182
 1871SOL    HW2 6000   0.389   2.246   4.327
 1872SOL     OW 6001   1.705   3.349   4.828
 1872SOL    HW1 6002   1.612   3.324   4.801
 1872SOL    HW2 6003   1.731   3.299   4.910
 1873SOL     OW 6004   0.317   2.409   5.004
 1873SOL    HW1 6005   0.355   2.350   5.076
 1873SOL    HW2 6006   0.357   2.383   4.916
 1874SOL     OW 6007   0.812   3.448   4.411
 1874SOL    HW1 6008   0.844   3.458   4.317
 1874SOL    HW2 6009   0.733   3.386   4.413
 1875SOL     OW 6010   1.424   2.076   4.836
 1875SOL    HW1 6011   1.476   2.011   4.891
 1875SOL    HW2 6012   1.375   2.139   4.897
 1876SOL     OW 6013   1.001   1.896   4.878
 1876SOL    HW1 6014   0.938   1.824   4.847
 1876SOL    HW2 6015   1.094   1.860   4.878
 1877SOL     OW 6016   0.770   3.192   4.025
 1877SOL    HW1 6017   0.724   3.105   4.042
 1877SOL    HW2 6018   0.861   3.189   4.066
 1878SOL     OW 6019   0.618   3.429   5.008
 1878SOL    HW1 6020   0.613   3.511   5.065
 1878SOL    HW2 6021   0.707   3.426   4.963
 1879SOL     OW 6022   1.352   1.914   3.892
 1879SOL    HW1 6023   1.387   1.873   3.808
 1879SOL    HW2 6024   1.262   1.876   3.912
 1880SOL     OW 6025   1.300   2.315   4.415
 1880SOL    HW1 6026   1.241   2.395   4.419
 1880SOL    HW2 6027   1.315   2.280   4.508
 1881SOL     OW 6028   1.593   2.083   4.606
 1881SOL    HW1 6029   1.509   2.082   4.660
 1881SOL    HW2 6030   1.595   2.166   4.550
 1882SOL     OW 6031   0.039   2.939   4.024
 1882SOL    HW1 6032   0.138   2.928   4.015
 1882SOL    HW2 6033  -0.001   2.853   4.056
 1883SOL     OW 6034   0.875   3.508   4.061
 1883SOL    HW1 6035   0.798   3.473   4.007
 1883SOL    HW2 6036   0.843   3.579   4.123
 1884SOL     OW 6037   0.230   2.490   5.699
 1884SOL    HW1 6038   0.137   2.488   5.736
 1884SOL    HW2 6039   0.231   2.451   5.607
 1885SOL     OW 6040   0.225   2.137   6.582
 1885SOL    HW1 6041   0.260   2.120   6.674
 1885SOL    HW2 6042   0.137   2.092   6.570
 1886SOL     OW 6043   0.019   2.230   6.233
 1886SOL    HW1 6044  -0.063   2.273   6.272
 1886SOL    HW2 6045  -0.009   2.157   6.170
 1887SOL     OW 6046   0.569   3.137   6.751
 1887SOL    HW1 6047   0.476   3.130   6.714
 1887SOL    HW2 6048   0.580   3.226   6.795
 1888SOL     OW 6049   1.555   3.373   6.289
 1888SOL    HW1 6050   1.498   3.357   6.370
 1888SOL    HW2 6051   1.496   3.383   6.209
 1889SOL     OW 6052   1.135   2.565   6.303
 1889SOL    HW1 6053   1.192   2.643   6.278
 1889SOL    HW2 6054   1.075   2.591   6.379
 1890SOL     OW 6055   0.768   3.006   6.609
 1890SOL    HW1 6056   0.690   3.023   6.669
 1890SOL    HW2 6057   0.802   3.093   6.573
 1891SOL     OW 6058   0.850   2.660   7.409
 1891SOL    HW1 6059   0.846   2.736   7.474
 1891SOL    HW2 6060   0.872   2.696   7.318
 1892SOL     OW 6061   0.685   2.874   6.251
 1892SOL    HW1 6062   0.754   2.858   6.321
 1892SOL    HW2 6063   0.612   2.931   6.289
 1893SOL     OW 6064   0.686   3.023   7.389
 1893SOL    HW1 6065   0.746   3.102   7.403
 1893SOL    HW2 6066   0.600   3.054   7.348
 1894SOL     OW 6067   0.335   3.297   6.647
 1894SOL    HW1 6068   0.257   3.266   6.594
 1894SOL    HW2 6069   0.393   3.355   6.590
 1895SOL     OW 6070   1.460   3.367   6.925
 1895SOL    HW1 6071   1.484   3.461   6.951
 1895SOL    HW2 6072   1.444   3.313   7.007
 1896SOL     OW 6073   0.438   2.254   7.085
 1896SOL    HW1 6074   0.520   2.198   7.094
 1896SOL    HW2 6075   0.357   2.196   7.089
 1897SOL     OW 6076   1.603   2.309   6.323
 1897SOL    HW1 6077   1.529   2.355   6.273
 1897SOL    HW2 6078   1.654   2.377   6.376
 1898SOL     OW 6079   0.231   3.575   6.069
 1898SOL    HW1 6080   0.265   3.652   6.123
 1898SOL    HW2 6081   0.275   3.575   5.979
 1899SOL     OW 6082   1.127   3.203   7.276
 1899SOL    HW1 6083   1.174   3.203   7.364
 1899SOL    HW2 6084   1.079   3.116   7.265
 1900SOL     OW 6085   0.230   3.296   6.124
 1900SOL    HW1 6086   0.204   3.392   6.124
 1900SOL    HW2 6087   0.159   3.242   6.169
 1901SOL     OW 6088   0.240   2.953   6.472
 1901SOL    HW1 6089   0.254   2.869   6.524
 1901SOL    HW2 6090   0.185   3.017   6.527
 1902SOL     OW 6091   0.620   3.648   7.025
 1902SOL    HW1 6092   0.528   3.631   7.060
 1902SOL    HW2 6093   0.648   3.740   7.051
 1903SOL     OW 6094   0.606   2.826   5.709
 1903SOL    HW1 6095   0.613   2.910   5.655
 1903SOL    HW2 6096   0.652   2.839   5.797
 1904SOL     OW 6097   1.594   1.976   7.066
 1904SOL    HW1 6098   1.576   2.043   6.994
 1904SOL    HW2 6099   1.591   2.022   7.155
 1905SOL     OW 6100   0.122   2.505   6.149
 1905SOL    HW1 6101   0.077   2.417   6.166
 1905SOL    HW2 6102   0.121   2.559   6.233
 1906SOL     OW 6103   1.842   3.629   5.945
 1906SOL    HW1 6104   1.896   3.600   6.025
 1906SOL    HW2 6105   1.872   3.719   5.916
 1907SOL     OW 6106   0.027   3.458   5.703
 1907SOL    HW1 6107   0.008   3.362   5.724
 1907SOL    HW2 6108  -0.006   3.516   5.778
 1908SOL     OW 6109   1.689   2.784   6.198
 1908SOL    HW1 6110   1.784   2.755   6.206
 1908SOL    HW2 6111   1.681   2.849   6.123
 1909SOL     OW 6112   1.641   2.970   6.018
 1909SOL    HW1 6113   1.727   2.972   5.966
 1909SOL    HW2 6114   1.655   3.017   6.106
 1910SOL     OW 6115   0.113   2.599   7.183
 1910SOL    HW1 6116   0.201   2.586   7.228
 1910SOL    HW2 6117   0.100   2.696   7.161
 1911SOL     OW 6118   0.613   3.227   6.312
 1911SOL    HW1 6119   0.564   3.140   6.321
 1911SOL    HW2 6120   0.590   3.270   6.225
 1912SOL     OW 6121   1.293   3.090   7.009
 1912SOL    HW1 6122   1.330   3.017   6.951
 1912SOL    HW2 6123   1.345   3.095   7.094
 1913SOL     OW 6124   0.809   1.866   6.088
 1913SOL    HW1 6125   0.849   1.957   6.079
 1913SOL    HW2 6126   0.709   1.874   6.094
 1914SOL     OW 6127   0.197   2.838   6.850
 1914SOL    HW1 6128   0.286   2.793   6.836
 1914SOL    HW2 6129   0.124   2.773   6.831
 1915SOL     OW 6130   1.525   2.861   5.776
 1915SOL    HW1 6131   1.462   2.785   5.789
 1915SOL    HW2 6132   1.573   2.879   5.862
 1916SOL     OW 6133   1.187   3.654   7.202
 1916SOL    HW1 6134   1.211   3.714   7.126
 1916SOL    HW2 6135   1.194   3.559   7.172
 1917SOL     OW 6136   0.317   2.113   7.387
 1917SOL    HW1 6137   0.388   2.184   7.393
 1917SOL    HW2 6138   0.229   2.152   7.415
 1918SOL     OW 6139   1.466   3.279   6.539
 1918SOL    HW1 6140   1.407   3.285   6.619
 1918SOL    HW2 6141   1.451   3.191   6.493
 1919SOL     OW 6142   1.667   3.576   6.158
 1919SOL    HW1 6143   1.626   3.553   6.070
 1919SOL    HW2 6144   1.649   3.502   6.223
 1920SOL     OW 6145   0.598   2.591   5.856
 1920SOL    HW1 6146   0.622   2.660   5.788
 1920SOL    HW2 6147   0.520   2.624   5.910
 1921SOL     OW 6148   1.281   2.207   6.530
 1921SOL    HW1 6149   1.195   2.157   6.517
 1921SOL    HW2 6150   1.343   2.153   6.586
 1922SOL     OW 6151   1.576   3.524   5.893
 1922SOL    HW1 6152   1.665   3.570   5.896
 1922SOL    HW2 6153   1.555   3.500   5.798
 1923SOL     OW 6154   0.807   2.467   7.051
 1923SOL    HW1 6155   0.760   2.464   7.140
 1923SOL    HW2 6156   0.756   2.412   6.985
 1924SOL     OW 6157   1.394   2.331   7.260
 1924SOL    HW1 6158   1.374   2.374   7.348
 1924SOL    HW2 6159   1.472   2.269   7.269
 1925SOL     OW 6160   0.973   2.752   7.158
 1925SOL    HW1 6161   1.019   2.668   7.129
 1925SOL    HW2 6162   0.917   2.786   7.083
 1926SOL     OW 6163   0.991   2.272   6.828
 1926SOL    HW1 6164   0.914   2.306   6.882
 1926SOL    HW2 6165   0.957   2.221   6.749
 1927SOL     OW 6166   1.041   2.563   6.015
 1927SOL    HW1 6167   1.067   2.559   6.111
 1927SOL    HW2 6168   0.956   2.512   6.001
 1928SOL     OW 6169   0.076   2.673   6.375
 1928SOL    HW1 6170   0.175   2.661   6.384
 1928SOL    HW2 6171   0.052   2.768   6.396
 1929SOL     OW 6172   0.130   3.683   7.157
 1929SOL    HW1 6173   0.120   3.668   7.256
 1929SOL    HW2 6174   0.044   3.719   7.121
 1930SOL     OW 6175   0.865   2.210   5.781
 1930SOL    HW1 6176   0.924   2.273   5.732
 1930SOL    HW2 6177   0.884   2.116   5.752
 1931SOL     OW 6178   1.719   2.447   7.417
 1931SOL    HW1 6179   1.693   2.536   7.381
 1931SOL    HW2 6180   1.717   2.379   7.344
 1932SOL     OW 6181   1.362   3.006   6.131
 1932SOL    HW1 6182   1.445   2.977   6.083
 1932SOL    HW2 6183   1.313   3.073   6.075
 1933SOL     OW 6184   0.550   2.058   6.471
 1933SOL    HW1 6185   0.545   2.053   6.571
 1933SOL    HW2 6186   0.552   2.154   6.442
 1934SOL     OW 6187   1.008   3.318   6.063
 1934SOL    HW1 6188   0.962   3.390   6.011
 1934SOL    HW2 6189   1.004   3.338   6.161
 1935SOL     OW 6190   0.351   3.663   6.439
 1935SOL    HW1 6191   0.401   3.577   6.445
 1935SOL    HW2 6192   0.416   3.740   6.436
 1936SOL     OW 6193   1.795   2.928   6.459
 1936SOL    HW1 6194   1.733   2.913   6.383
 1936SOL    HW2 6195   1.743   2.939   6.544
 1937SOL     OW 6196   1.227   3.412   7.092
 1937SOL    HW1 6197   1.233   3.335   7.156
 1937SOL    HW2 6198   1.175   3.386   7.012
 1938SOL     OW 6199   0.321   2.805   5.828
 1938SOL    HW1 6200   0.403   2.844   5.786
 1938SOL    HW2 6201   0.294   2.723   5.779
 1939SOL     OW 6202   1.458   2.597   6.314
 1939SOL    HW1 6203   1.453   2.532   6.389
 1939SOL    HW2 6204   1.538   2.656   6.327
 1940SOL     OW 6205   0.461   3.128   7.313
 1940SOL    HW1 6206   0.411   3.129   7.227
 1940SOL    HW2 6207   0.398   3.110   7.389
 1941SOL     OW 6208   1.111   3.638   5.823
 1941SOL    HW1 6209   1.051   3.576   5.873
 1941SOL    HW2 6210   1.142   3.594   5.738
 1942SOL     OW 6211   0.202   2.147   7.084
 1942SOL    HW1 6212   0.122   2.207   7.071
 1942SOL    HW2 6213   0.192   2.098   7.170
 1943SOL     OW 6214   1.632   3.239   5.667
 1943SOL    HW1 6215   1.600   3.333   5.657
 1943SOL    HW2 6216   1.556   3.176   5.655
 1944SOL     OW 6217   0.464   3.605   5.909
 1944SOL    HW1 6218   0.497   3.644   5.995
 1944SOL    HW2 6219   0.540   3.598   5.844
 1945SOL     OW 6220   1.400   1.969   6.012
 1945SOL    HW1 6221   1.376   1.932   5.922
 1945SOL    HW2 6222   1.499   1.985   6.016
 1946SOL     OW 6223   0.249   3.647   6.827
 1946SOL    HW1 6224   0.306   3.582   6.877
 1946SOL    HW2 6225   0.233   3.614   6.734
 1947SOL     OW 6226   0.940   3.560   6.490
 1947SOL    HW1 6227   1.020   3.503   6.511
 1947SOL    HW2 6228   0.891   3.520   6.413
 1948SOL     OW 6229   0.382   2.562   6.066
 1948SOL    HW1 6230   0.427   2.472   6.063
 1948SOL    HW2 6231   0.288   2.551   6.099
 1949SOL     OW 6232   1.547   2.084   7.315
 1949SOL    HW1 6233   1.542   2.121   7.407
 1949SOL    HW2 6234   1.475   2.015   7.303
 1950SOL     OW 6235   0.614   1.984   5.703
 1950SOL    HW1 6236   0.712   1.962   5.710
 1950SOL    HW2 6237   0.583   1.967   5.610
 1951SOL     OW 6238   0.781   2.126   7.335
 1951SOL    HW1 6239   0.848   2.065   7.378
 1951SOL    HW2 6240   0.708   2.145   7.400
 1952SOL     OW 6241   0.888   3.376   6.781
 1952SOL    HW1 6242   0.865   3.351   6.687
 1952SOL    HW2 6243   0.949   3.307   6.820
 1953SOL     OW 6244   1.351   2.452   7.019
 1953SOL    HW1 6245   1.379   2.409   7.104
 1953SOL    HW2 6246   1.376   2.548   7.020
 1954SOL     OW 6247   0.803   3.264   6.510
 1954SOL    HW1 6248   0.893   3.278   6.468
 1954SOL    HW2 6249   0.732   3.266   6.439
 1955SOL     OW 6250   0.922   2.365   6.485
 1955SOL    HW1 6251   0.897   2.356   6.389
 1955SOL    HW2 6252   0.970   2.283   6.516
 1956SOL     OW 6253   0.539   1.926   6.098
 1956SOL    HW1 6254   0.458   1.927   6.156
 1956SOL    HW2 6255   0.542   2.009   6.043
 1957SOL     OW 6256   1.434   3.050   5.627
 1957SOL    HW1 6257   1.466   2.974   5.684
 1957SOL    HW2 6258   1.342   3.077   5.657
 1958SOL     OW 6259   0.297   1.897   5.757
 1958SOL    HW1 6260   0.346   1.981   5.736
 1958SOL    HW2 6261   0.359   1.832   5.802
 1959SOL     OW 6262   0.935   2.098   6.066
 1959SOL    HW1 6263   0.887   2.139   5.988
 1959SOL    HW2 6264   1.034   2.096   6.047
 1960SOL     OW 6265   1.076   2.545   7.050
 1960SOL    HW1 6266   0.996   2.484   7.053
 1960SOL    HW2 6267   1.157   2.492   7.026
 1961SOL     OW 6268   1.227   3.432   6.379
 1961SOL    HW1 6269   1.248   3.506   6.314
 1961SOL    HW2 6270   1.295   3.432   6.452
 1962SOL     OW 6271   0.459   3.014   6.327
 1962SOL    HW1 6272   0.388   2.987   6.392
 1962SOL    HW2 6273   0.433   2.986   6.234
 1963SOL     OW 6274   1.271   3.659   6.177
 1963SOL    HW1 6275   1.315   3.723   6.113
 1963SOL    HW2 6276   1.221   3.711   6.247
 1964SOL     OW 6277   1.032   2.411   5.602
 1964SOL    HW1 6278   0.991   2.493   5.563
 1964SOL    HW2 6279   1.096   2.437   5.675
 1965SOL     OW 6280   0.078   2.418   6.972
 1965SOL    HW1 6281   0.170   2.417   6.931
 1965SOL    HW2 6282   0.072   2.492   7.039
 1966SOL     OW 6283   0.561   2.084   6.733
 1966SOL    HW1 6284   0.599   2.000   6.770
 1966SOL    HW2 6285   0.473   2.103   6.777
 1967SOL     OW 6286   0.866   2.316   6.228
 1967SOL    HW1 6287   0.834   2.388   6.166
 1967SOL    HW2 6288   0.890   2.235   6.175
 1968SOL     OW 6289   1.017   1.901   6.339
 1968SOL    HW1 6290   0.945   1.906   6.270
 1968SOL    HW2 6291   0.993   1.832   6.408
 1969SOL     OW 6292   1.429   3.035   6.453
 1969SOL    HW1 6293   1.374   2.951   6.446
 1969SOL    HW2 6294   1.455   3.064   6.361
 1970SOL     OW 6295   1.466   2.452   6.578
 1970SOL    HW1 6296   1.436   2.357   6.585
 1970SOL    HW2 6297   1.539   2.468   6.644
 1971SOL     OW 6298   0.488   3.247   5.760
 1971SOL    HW1 6299   0.401   3.232   5.807
 1971SOL    HW2 6300   0.471   3.273   5.665
 1972SOL     OW 6301   1.664   3.142   6.243
 1972SOL    HW1 6302   1.763   3.150   6.257
 1972SOL    HW2 6303   1.619   3.226   6.274
 1973SOL     OW 6304   1.390   2.437   5.664
 1973SOL    HW1 6305   1.336   2.416   5.745
 1973SOL    HW2 6306   1.481   2.396   5.673
 1974SOL     OW 6307   0.527   2.118   5.914
 1974SOL    HW1 6308   0.554   2.059   5.839
 1974SOL    HW2 6309   0.527   2.213   5.883
 1975SOL     OW 6310   1.754   3.085   7.174
 1975SOL    HW1 6311   1.845   3.046   7.161
 1975SOL    HW2 6312   1.762   3.181   7.198
 1976SOL     OW 6313   1.064   3.209   6.926
 1976SOL    HW1 6314   0.984   3.186   6.981
 1976SOL    HW2 6315   1.147   3.183   6.975
 1977SOL     OW 6316   1.592   3.491   7.211
 1977SOL    HW1 6317   1.619   3.525   7.121
 1977SOL    HW2 6318   1.671   3.453   7.257
 1978SOL     OW 6319   1.111   3.057   6.686
 1978SOL    HW1 6320   1.071   3.101   6.767
 1978SOL    HW2 6321   1.070   3.094   6.603
 1979SOL     OW 6322   1.638   2.961   6.665
 1979SOL    HW1 6323   1.643   3.042   6.724
 1979SOL    HW2 6324   1.552   2.963   6.614
 1980SOL     OW 6325   0.915   1.951   6.988
 1980SOL    HW1 6326   0.940   1.931   6.893
 1980SOL    HW2 6327   0.987   2.007   7.030
 1981SOL     OW 6328   0.980   2.978   7.305
 1981SOL    HW1 6329   0.881   2.984   7.315
 1981SOL    HW2 6330   1.003   2.898   7.249
 1982SOL     OW 6331   0.705   2.912   5.954
 1982SOL    HW1 6332   0.691   2.919   6.053
 1982SOL    HW2 6333   0.789   2.861   5.936
 1983SOL     OW 6334   0.410   2.675   6.837
 1983SOL    HW1 6335   0.496   2.687   6.887
 1983SOL    HW2 6336   0.368   2.588   6.864
 1984SOL     OW 6337   1.274   2.248   6.848
 1984SOL    HW1 6338   1.295   2.322   6.912
 1984SOL    HW2 6339   1.185   2.265   6.805
 1985SOL     OW 6340   0.064   3.426   6.917
 1985SOL    HW1 6341   0.018   3.508   6.883
 1985SOL    HW2 6342   0.162   3.445   6.926
 1986SOL     OW 6343   0.367   2.962   6.087
 1986SOL    HW1 6344   0.360   3.045   6.031
 1986SOL    HW2 6345   0.371   2.882   6.027
 1987SOL     OW 6346   0.566   2.399   6.451
 1987SOL    HW1 6347   0.578   2.465   6.377
 1987SOL    HW2 6348   0.612   2.433   6.534
 1988SOL     OW 6349   1.252   3.210   5.974
 1988SOL    HW1 6350   1.302   3.287   6.014
 1988SOL    HW2 6351   1.157   3.212   6.006
 1989SOL     OW 6352   1.272   3.307   6.728
 1989SOL    HW1 6353   1.319   3.320   6.815
 1989SOL    HW2 6354   1.206   3.233   6.737
 1990SOL     OW 6355   1.582   2.501   6.058
 1990SOL    HW1 6356   1.551   2.562   6.131
 1990SOL    HW2 6357   1.632   2.553   5.989
 1991SOL     OW 6358   0.354   3.372   6.915
 1991SOL    HW1 6359   0.333   3.328   6.828
 1991SOL    HW2 6360   0.451   3.398   6.918
 1992SOL     OW 6361   0.402   2.613   7.184
 1992SOL    HW1 6362   0.470   2.668   7.137
 1992SOL    HW2 6363   0.442   2.525   7.211
 1993SOL     OW 6364   1.587   2.641   7.256
 1993SOL    HW1 6365   1.495   2.679   7.251
 1993SOL    HW2 6366   1.647   2.688   7.191
 1994SOL     OW 6367   1.013   1.967   7.356
 1994SOL    HW1 6368   1.019   2.052   7.304
 1994SOL    HW2 6369   1.045   1.891   7.299
 1995SOL     OW 6370   0.504   1.912   7.326
 1995SOL    HW1 6371   0.462   1.855   7.256
 1995SOL    HW2 6372   0.438   1.981   7.358
 1996SOL     OW 6373   0.573   2.732   6.615
 1996SOL    HW1 6374   0.617   2.821   6.606
 1996SOL    HW2 6375   0.510   2.732   6.692
 1997SOL     OW 6376   1.360   2.724   6.631
 1997SOL    HW1 6377   1.285   2.724   6.565
 1997SOL    HW2 6378   1.397   2.632   6.640
 1998SOL     OW 6379   1.209   2.387   5.861
 1998SOL    HW1 6380   1.222   2.303   5.915
 1998SOL    HW2 6381   1.180   2.461   5.921
 1999SOL     OW 6382   0.307   2.075   6.817
 1999SOL    HW1 6383   0.284   2.112   6.907
 1999SOL    HW2 6384   0.277   1.980   6.811
 2000SOL     OW 6385   0.037   3.172   6.868
 2000SOL    HW1 6386   0.090   3.123   6.936
 2000SOL    HW2 6387   0.059   3.270   6.873
 2001SOL     OW 6388   0.732   2.496   6.650
 2001SOL    HW1 6389   0.791   2.470   6.574
 2001SOL    HW2 6390   0.704   2.592   6.639
 2002SOL     OW 6391   1.728   2.797   7.440
 2002SOL    HW1 6392   1.682   2.790   7.351
 2002SOL    HW2 6393   1.666   2.841   7.506
 2003SOL     OW 6394   0.307   1.925   6.204
 2003SOL    HW1 6395   0.296   2.019   6.237
 2003SOL    HW2 6396   0.302   1.862   6.281
 2004SOL     OW 6397   1.622   2.229   5.960
 2004SOL    HW1 6398   1.624   2.153   6.024
 2004SOL    HW2 6399   1.574   2.306   6.000
 2005SOL     OW 6400   1.023   2.628   6.552
 2005SOL    HW1 6401   1.038   2.649   6.648
 2005SOL    HW2 6402   0.993   2.533   6.543
 2006SOL     OW 6403   0.980   3.435   7.286
 2006SOL    HW1 6404   0.960   3.479   7.198
 2006SOL    HW2 6405   1.019   3.344   7.270
 2007SOL     OW 6406   1.859   3.380   7.191
 2007SOL    HW1 6407   1.873   3.407   7.096
 2007SOL    HW2 6408   1.942   3.402   7.244
 2008SOL     OW 6409   0.350   2.760   7.390
 2008SOL    HW1 6410   0.426   2.804   7.438
 2008SOL    HW2 6411   0.385   2.713   7.308
 2009SOL     OW 6412   1.540   2.136   5.711
 2009SOL    HW1 6413   1.479   2.061   5.734
 2009SOL    HW2 6414   1.562   2.188   5.794
 2010SOL     OW 6415   1.303   2.700   5.628
 2010SOL    HW1 6416   1.337   2.607   5.643
 2010SOL    HW2 6417   1.321   2.727   5.533
 2011SOL     OW 6418   1.068   3.195   6.435
 2011SOL    HW1 6419   1.075   3.111   6.380
 2011SOL    HW2 6420   1.130   3.264   6.399
 2012SOL     OW 6421   0.319   2.672   6.535
 2012SOL    HW1 6422   0.412   2.708   6.540
 2012SOL    HW2 6423   0.313   2.587   6.587
 2013SOL     OW 6424   0.339   2.371   6.592
 2013SOL    HW1 6425   0.287   2.288   6.575
 2013SOL    HW2 6426   0.416   2.376   6.528
 2014SOL     OW 6427   1.138   2.242   7.264
 2014SOL    HW1 6428   1.093   2.305   7.328
 2014SOL    HW2 6429   1.231   2.273   7.247
 2015SOL     OW 6430   1.160   2.069   7.063
 2015SOL    HW1 6431   1.160   2.133   7.140
 2015SOL    HW2 6432   1.188   2.117   6.980
 2016SOL     OW 6433   0.008   3.188   5.786
 2016SOL    HW1 6434  -0.085   3.209   5.755
 2016SOL    HW2 6435   0.018   3.089   5.799
 2017SOL     OW 6436   0.088   3.663   6.513
 2017SOL    HW1 6437   0.046   3.577   6.486
 2017SOL    HW2 6438   0.182   3.666   6.479
 2018SOL     OW 6439   0.504   3.430   6.496
 2018SOL    HW1 6440   0.570   3.504   6.505
 2018SOL    HW2 6441   0.548   3.351   6.454
 2019SOL     OW 6442   1.002   2.658   6.824
 2019SOL    HW1 6443   1.043   2.626   6.910
 2019SOL    HW2 6444   0.906   2.631   6.821
 2020SOL     OW 6445   0.040   2.406   6.700
 2020SOL    HW1 6446   0.125   2.373   6.659
 2020SOL    HW2 6447   0.053   2.421   6.798
 2021SOL     OW 6448   0.189   2.382   7.308
 2021SOL    HW1 6449   0.248   2.342   7.238
 2021SOL    HW2 6450   0.131   2.453   7.267
 2022SOL     OW 6451   1.369   2.812   7.246
 2022SOL    HW1 6452   1.408   2.901   7.266
 2022SOL    HW2 6453   1.379   2.792   7.149
 2023SOL     OW 6454   0.815   2.434   5.911
 2023SOL    HW1 6455   0.822   2.345   5.865
 2023SOL    HW2 6456   0.721   2.468   5.903
 2024SOL     OW 6457   1.657   2.466   6.792
 2024SOL    HW1 6458   1.619   2.397   6.854
 2024SOL    HW2 6459   1.739   2.430   6.748
 2025SOL     OW 6460   0.252   3.426   7.330
 2025SOL    HW1 6461   0.222   3.483   7.406
 2025SOL    HW2 6462   0.245   3.329   7.356
 2026SOL     OW 6463   0.671   2.326   6.855
 2026SOL    HW1 6464   0.637   2.237   6.825
 2026SOL    HW2 6465   0.697   2.380   6.775
 2027SOL     OW 6466   0.930   3.540   7.051
 2027SOL    HW1 6467   0.906   3.522   6.956
 2027SOL    HW2 6468   0.960   3.634   7.061
 2028SOL     OW 6469   0.473   2.362   5.777
 2028SOL    HW1 6470   0.534   2.442   5.781
 2028SOL    HW2 6471   0.378   2.393   5.784
 2029SOL     OW 6472   0.159   2.999   7.052
 2029SOL    HW1 6473   0.181   2.938   7.128
 2029SOL    HW2 6474   0.169   2.950   6.966
 2030SOL     OW 6475   1.347   2.921   6.820
 2030SOL    HW1 6476   1.371   2.858   6.746
 2030SOL    HW2 6477   1.257   2.961   6.802
 2031SOL     OW 6478   1.302   2.717   5.895
 2031SOL    HW1 6479   1.216   2.686   5.937
 2031SOL    HW2 6480   1.298   2.703   5.796
 2032SOL     OW 6481   1.759   3.609   6.740
 2032SOL    HW1 6482   1.820   3.639   6.667
 2032SOL    HW2 6483   1.721   3.520   6.718
 2033SOL     OW 6484   1.252   3.593   6.714
 2033SOL    HW1 6485   1.336   3.598   6.660
 2033SOL    HW2 6486   1.229   3.497   6.732
 2034SOL     OW 6487   0.083   3.120   6.608
 2034SOL    HW1 6488   0.078   3.119   6.708
 2034SOL    HW2 6489   0.000   3.079   6.570
 2035SOL     OW 6490   0.688   3.524   7.302
 2035SOL    HW1 6491   0.632   3.605   7.311
 2035SOL    HW2 6492   0.740   3.528   7.216
 2036SOL     OW 6493   1.388   3.435   6.063
 2036SOL    HW1 6494   1.455   3.447   5.989
 2036SOL    HW2 6495   1.348   3.524   6.086
 2037SOL     OW 6496   0.130   3.656   7.437
 2037SOL    HW1 6497   0.089   3.582   7.490
 2037SOL    HW2 6498   0.194   3.707   7.495
 2038SOL     OW 6499   1.280   2.789   6.258
 2038SOL    HW1 6500   1.340   2.708   6.260
 2038SOL    HW2 6501   1.320   2.858   6.198
 2039SOL     OW 6502   0.830   3.135   7.008
 2039SOL    HW1 6503   0.825   3.168   7.103
 2039SOL    HW2 6504   0.744   3.154   6.962
 2040SOL     OW 6505   0.672   3.478   5.740
 2040SOL    HW1 6506   0.681   3.488   5.641
 2040SOL    HW2 6507   0.632   3.389   5.761
 2041SOL     OW 6508   1.650   3.582   6.980
 2041SOL    HW1 6509   1.703   3.592   6.896
 2041SOL    HW2 6510   1.623   3.672   7.014
 2042SOL     OW 6511   1.841   2.037   6.549
 2042SOL    HW1 6512   1.880   1.952   6.513
 2042SOL    HW2 6513   1.743   2.039   6.530
 2043SOL     OW 6514   0.263   2.188   6.306
 2043SOL    HW1 6515   0.184   2.239   6.272
 2043SOL    HW2 6516   0.254   2.173   6.404
 2044SOL     OW 6517   1.194   3.474   5.617
 2044SOL    HW1 6518   1.200   3.381   5.654
 2044SOL    HW2 6519   1.135   3.474   5.537
 2045SOL     OW 6520   0.822   2.864   6.958
 2045SOL    HW1 6521   0.862   2.863   6.866
 2045SOL    HW2 6522   0.832   2.956   6.998
 2046SOL     OW 6523   0.916   2.772   5.877
 2046SOL    HW1 6524   0.979   2.810   5.809
 2046SOL    HW2 6525   0.956   2.689   5.916
 2047SOL     OW 6526   1.504   3.469   5.630
 2047SOL    HW1 6527   1.412   3.506   5.637
 2047SOL    HW2 6528   1.542   3.489   5.540
 2048SOL     OW 6529   0.372   3.150   7.076
 2048SOL    HW1 6530   0.359   3.243   7.042
 2048SOL    HW2 6531   0.288   3.098   7.063
 2049SOL     OW 6532   1.614   3.154   6.875
 2049SOL    HW1 6533   1.674   3.157   6.955
 2049SOL    HW2 6534   1.539   3.218   6.888
 2050SOL     OW 6535   1.039   2.960   6.282
 2050SOL    HW1 6536   0.969   2.913   6.336
 2050SOL    HW2 6537   1.098   2.892   6.239
 2051SOL     OW 6538   1.014   2.098   6.557
 2051SOL    HW1 6539   1.006   2.062   6.464
 2051SOL    HW2 6540   1.012   2.022   6.622
 2052SOL     OW 6541   0.590   3.349   6.077
 2052SOL    HW1 6542   0.632   3.291   6.007
 2052SOL    HW2 6543   0.546   3.428   6.033
 2053SOL     OW 6544   1.709   2.247   6.967
 2053SOL    HW1 6545   1.782   2.316   6.971
 2053SOL    HW2 6546   1.737   2.172   6.908
 2054SOL     OW 6547   0.255   3.210   5.876
 2054SOL    HW1 6548   0.159   3.211   5.849
 2054SOL    HW2 6549   0.267   3.263   5.960
 2055SOL     OW 6550   0.105   2.875   7.312
 2055SOL    HW1 6551   0.028   2.842   7.366
 2055SOL    HW2 6552   0.190   2.845   7.354
 2056SOL     OW 6553   0.672   2.065   7.075
 2056SOL    HW1 6554   0.762   2.049   7.035
 2056SOL    HW2 6555   0.680   2.070   7.174
 2057SOL     OW 6556   0.075   2.207   5.619
 2057SOL    HW1 6557  -0.017   2.179   5.590
 2057SOL    HW2 6558   0.106   2.284   5.563
 2058SOL     OW 6559   1.440   2.718   6.984
 2058SOL    HW1 6560   1.383   2.770   6.921
 2058SOL    HW2 6561   1.536   2.730   6.960
 2059SOL     OW 6562   0.072   2.028   5.904
 2059SOL    HW1 6563   0.055   2.111   5.850
 2059SOL    HW2 6564   0.162   1.991   5.882
 2060SOL     OW 6565   1.183   3.197   5.705
 2060SOL    HW1 6566   1.084   3.186   5.707
 2060SOL    HW2 6567   1.217   3.212   5.798
 2061SOL     OW 6568   0.613   2.704   7.017
 2061SOL    HW1 6569   0.669   2.785   7.000
 2061SOL    HW2 6570   0.672   2.624   7.020
 2062SOL     OW 6571   1.493   3.629   6.545
 2062SOL    HW1 6572   1.526   3.693   6.476
 2062SOL    HW2 6573   1.559   3.623   6.620
 2063SOL     OW 6574   0.716   2.427   7.294
 2063SOL    HW1 6575   0.735   2.492   7.368
 2063SOL    HW2 6576   0.776   2.347   7.303
 2064SOL     OW 6577   1.450   3.082   7.219
 2064SOL    HW1 6578   1.441   3.072   7.318
 2064SOL    HW2 6579   1.546   3.075   7.193
 2065SOL     OW 6580   0.390   3.603   7.146
 2065SOL    HW1 6581   0.299   3.644   7.144
 2065SOL    HW2 6582   0.383   3.509   7.178
 2066SOL     OW 6583   1.674   2.745   6.840
 2066SOL    HW1 6584   1.647   2.656   6.803
 2066SOL    HW2 6585   1.675   2.813   6.767
 2067SOL     OW 6586   1.225   2.187   6.035
 2067SOL    HW1 6587   1.290   2.113   6.024
 2067SOL    HW2 6588   1.245   2.237   6.119
 2068SOL     OW 6589   0.594   2.607   6.238
 2068SOL    HW1 6590   0.644   2.692   6.219
 2068SOL    HW2 6591   0.506   2.609   6.190
 2069SOL     OW 6592   1.777   2.204   7.228
 2069SOL    HW1 6593   1.760   2.235   7.134
 2069SOL    HW2 6594   1.693   2.167   7.266
 2070SOL     OW 6595   1.730   2.796   7.103
 2070SOL    HW1 6596   1.768   2.887   7.118
 2070SOL    HW2 6597   1.722   2.779   7.004
 2071SOL     OW 6598   0.859   3.236   5.602
 2071SOL    HW1 6599   0.813   3.251   5.690
 2071SOL    HW2 6600   0.903   3.321   5.572
 2072SOL     OW 6601   0.661   3.652   6.539
 2072SOL    HW1 6602   0.615   3.740   6.526
 2072SOL    HW2 6603   0.760   3.664   6.532
 2073SOL     OW 6604   0.859   2.818   6.447
 2073SOL    HW1 6605   0.913   2.749   6.495
 2073SOL    HW2 6606   0.827   2.887   6.513
 2074SOL     OW 6607   1.083   2.846   5.673
 2074SOL    HW1 6608   1.060   2.899   5.591
 2074SOL    HW2 6609   1.164   2.790   5.654
 2075SOL     OW 6610   1.861   3.431   6.437
 2075SOL    HW1 6611   1.790   3.419   6.367
 2075SOL    HW2 6612   1.862   3.352   6.497
 2076SOL     OW 6613   0.221   3.176   7.430
 2076SOL    HW1 6614   0.156   3.103   7.409
 2076SOL    HW2 6615   0.225   3.190   7.528
 2077SOL     OW 6616   0.079   3.102   6.239
 2077SOL    HW1 6617   0.078   3.055   6.327
 2077SOL    HW2 6618   0.161   3.074   6.188
 2078SOL     OW 6619   0.672   3.253   7.210
 2078SOL    HW1 6620   0.594   3.203   7.248
 2078SOL    HW2 6621   0.669   3.348   7.241
 2079SOL     OW 6622   1.824   2.054   6.813
 2079SOL    HW1 6623   1.820   1.964   6.857
 2079SOL    HW2 6624   1.827   2.043   6.714
 2080SOL     OW 6625   0.428   2.286   6.106
 2080SOL    HW1 6626   0.458   2.214   6.044
 2080SOL    HW2 6627   0.389   2.246   6.189
 2081SOL     OW 6628   1.705   3.349   6.690
 2081SOL    HW1 6629   1.612   3.324   6.663
 2081SOL    HW2 6630   1.731   3.299   6.772
 2082SOL     OW 6631   0.317   2.409   6.866
 2082SOL    HW1 6632   0.355   2.350   6.938
 2082SOL    HW2 6633   0.357   2.383   6.778
 2083SOL     OW 6634   0.812   3.448   6.273
 2083SOL    HW1 6635   0.844   3.458   6.179
 2083SOL    HW2 6636   0.733   3.386   6.275
 2084SOL     OW 6637   1.424   2.076   6.698
 2084SOL    HW1 6638   1.476   2.011   6.753
 2084SOL    HW2 6639   1.375   2.139   6.759
 2085SOL     OW 6640   1.001   1.896   6.740
 2085SOL    HW1 6641   0.938   1.824   6.709
 2085SOL    HW2 6642   1.094   1.860   6.740
 2086SOL     OW 6643   0.770   3.192   5.887
 2086SOL    HW1 6644   0.724   3.105   5.904
 2086SOL    HW2 6645   0.861   3.189   5.928
 2087SOL     OW 6646   0.618   3.429   6.870
 2087SOL    HW1 6647   0.613   3.511   6.927
 2087SOL    HW2 6648   0.707   3.426   6.825
 2088SOL     OW 6649   1.352   1.914   5.754
 2088SOL    HW1 6650   1.387   1.873   5.670
 2088SOL    HW2 6651   1.262   1.876   5.774
 2089SOL     OW 6652   1.300   2.315   6.277
 2089SOL    HW1 6653   1.241   2.395   6.281
 2089SOL    HW2 6654   1.315   2.280   6.370
 2090SOL     OW 6655   1.593   2.083   6.468
 2090SOL    HW1 6656   1.509   2.082   6.522
 2090SOL    HW2 6657   1.595   2.166   6.412
 2091SOL     OW 6658   0.039   2.939   5.886
 2091SOL    HW1 6659   0.138   2.928   5.877
 2091SOL    HW2 6660  -0.001   2.853   5.918
 2092SOL     OW 6661   0.875   3.508   5.923
 2092SOL    HW1 6662   0.798   3.473   5.869
 2092SOL    HW2 6663   0.843   3.579   5.985
 2093SOL     OW 6664   0.230   2.490   7.561
 2093SOL    HW1 6665   0.137   2.488   7.598
 2093SOL    HW2 6666   0.231   2.451   7.469
 2094SOL     OW 6667   0.225   2.137   8.444
 2094SOL    HW1 6668   0.260   2.120   8.536
 2094SOL    HW2 6669   0.137   2.092   8.432
 2095SOL     OW 6670   0.019   2.230   8.095
 2095SOL    HW1 6671  -0.063   2.273   8.134
 2095SOL    HW2 6672  -0.009   2.157   8.032
 2096SOL     OW 6673   0.569   3.137   8.613
 2096SOL    HW1 6674   0.476   3.130   8.576
 2096SOL    HW2 6675   0.580   3.226   8.657
 2097SOL     OW 6676   1.555   3.373   8.151
 2097SOL    HW1 6677   1.498   3.357   8.232
 2097SOL    HW2 6678   1.496   3.383   8.071
 2098SOL     OW 6679   1.135   2.565   8.165
 2098SOL    HW1 6680   1.192   2.643   8.140
 2098SOL    HW2 6681   1.075   2.591   8.241
 2099SOL     OW 6682   1.755   2.469   7.679
 2099SOL    HW1 6683   1.743   2.456   7.580
 2099SOL    HW2 6684   1.725   2.388   7.728
 2100SOL     OW 6685   0.768   3.006   8.471
 2100SOL    HW1 6686   0.690   3.023   8.531
 2100SOL    HW2 6687   0.802   3.093   8.435
 2101SOL     OW 6688   0.850   2.660   9.271
 2101SOL    HW1 6689   0.846   2.736   9.336
 2101SOL    HW2 6690   0.872   2.696   9.180
 2102SOL     OW 6691   0.685   2.874   8.113
 2102SOL    HW1 6692   0.754   2.858   8.183
 2102SOL    HW2 6693   0.612   2.931   8.151
 2103SOL     OW 6694   0.686   3.023   9.251
 2103SOL    HW1 6695   0.746   3.102   9.265
 2103SOL    HW2 6696   0.600   3.054   9.210
 2104SOL     OW 6697   0.335   3.297   8.509
 2104SOL    HW1 6698   0.257   3.266   8.456
 2104SOL    HW2 6699   0.393   3.355   8.452
 2105SOL     OW 6700   1.460   3.367   8.787
 2105SOL    HW1 6701   1.484   3.461   8.813
 2105SOL    HW2 6702   1.444   3.313   8.869
 2106SOL     OW 6703   0.438   2.254   8.947
 2106SOL    HW1 6704   0.520   2.198   8.956
 2106SOL    HW2 6705   0.357   2.196   8.951
 2107SOL     OW 6706   1.603   2.309   8.185
 2107SOL    HW1 6707   1.529   2.355   8.135
 2107SOL    HW2 6708   1.654   2.377   8.238
 2108SOL     OW 6709   0.231   3.575   7.931
 2108SOL    HW1 6710   0.265   3.652   7.985
 2108SOL    HW2 6711   0.275   3.575   7.841
 2109SOL     OW 6712   1.127   3.203   9.138
 2109SOL    HW1 6713   1.174   3.203   9.226
 2109SOL    HW2 6714   1.079   3.116   9.127
 2110SOL     OW 6715   0.230   3.296   7.986
 2110SOL    HW1 6716   0.204   3.392   7.986
 2110SOL    HW2 6717   0.159   3.242   8.031
 2111SOL     OW 6718   0.240   2.953   8.334
 2111SOL    HW1 6719   0.254   2.869   8.386
 2111SOL    HW2 6720   0.185   3.017   8.389
 2112SOL     OW 6721   0.620   3.648   8.887
 2112SOL    HW1 6722   0.528   3.631   8.922
 2112SOL    HW2 6723   0.648   3.740   8.913
 2113SOL     OW 6724   0.606   2.826   7.571
 2113SOL    HW1 6725   0.613   2.910   7.517
 2113SOL    HW2 6726   0.652   2.839   7.659
 2114SOL     OW 6727   1.594   1.976   8.928
 2114SOL    HW1 6728   1.576   2.043   8.856
 2114SOL    HW2 6729   1.591   2.022   9.017
 2115SOL     OW 6730   0.122   2.505   8.011
 2115SOL    HW1 6731   0.077   2.417   8.028
 2115SOL    HW2 6732   0.121   2.559   8.095
 2116SOL     OW 6733   1.842   3.629   7.807
 2116SOL    HW1 6734   1.896   3.600   7.887
 2116SOL    HW2 6735   1.872   3.719   7.778
 2117SOL     OW 6736   0.027   3.458   7.565
 2117SOL    HW1 6737   0.008   3.362   7.586
 2117SOL    HW2 6738  -0.006   3.516   7.640
 2118SOL     OW 6739   1.689   2.784   8.060
 2118SOL    HW1 6740   1.784   2.755   8.068
 2118SOL    HW2 6741   1.681   2.849   7.985
 2119SOL     OW 6742   1.641   2.970   7.880
 2119SOL    HW1 6743   1.727   2.972   7.828
 2119SOL    HW2 6744   1.655   3.017   7.968
 2120SOL     OW 6745   0.113   2.599   9.045
 2120SOL    HW1 6746   0.201   2.586   9.090
 2120SOL    HW2 6747   0.100   2.696   9.023
 2121SOL     OW 6748   0.613   3.227   8.174
 2121SOL    HW1 6749   0.564   3.140   8.183
 2121SOL    HW2 6750   0.590   3.270   8.087
 2122SOL     OW 6751   1.293   3.090   8.871
 2122SOL    HW1 6752   1.330   3.017   8.813
 2122SOL    HW2 6753   1.345   3.095   8.956
 2123SOL     OW 6754   0.809   1.866   7.950
 2123SOL    HW1 6755   0.849   1.957   7.941
 2123SOL    HW2 6756   0.709   1.874   7.956
 2124SOL     OW 6757   0.197   2.838   8.712
 2124SOL    HW1 6758   0.286   2.793   8.698
 2124SOL    HW2 6759   0.124   2.773   8.693
 2125SOL     OW 6760   1.525   2.861   7.638
 2125SOL    HW1 6761   1.462   2.785   7.651
 2125SOL    HW2 6762   1.573   2.879   7.724
 2126SOL     OW 6763   1.187   3.654   9.064
 2126SOL    HW1 6764   1.211   3.714   8.988
 2126SOL    HW2 6765   1.194   3.559   9.034
 2127SOL     OW 6766   0.317   2.113   9.249
 2127SOL    HW1 6767   0.388   2.184   9.255
 2127SOL    HW2 6768   0.229   2.152   9.277
 2128SOL     OW 6769   1.466   3.279   8.401
 2128SOL    HW1 6770   1.407   3.285   8.481
 2128SOL    HW2 6771   1.451   3.191   8.355
 2129SOL     OW 6772   1.667   3.576   8.020
 2129SOL    HW1 6773   1.626   3.553   7.932
 2129SOL    HW2 6774   1.649   3.502   8.085
 2130SOL     OW 6775   0.598   2.591   7.718
 2130SOL    HW1 6776   0.622   2.660   7.650
 2130SOL    HW2 6777   0.520   2.624   7.772
 2131SOL     OW 6778   1.281   2.207   8.392
 2131SOL    HW1 6779   1.195   2.157   8.379
 2131SOL    HW2 6780   1.343   2.153   8.448
 2132SOL     OW 6781   1.576   3.524   7.755
 2132SOL    HW1 6782   1.665   3.570   7.758
 2132SOL    HW2 6783   1.555   3.500   7.660
 2133SOL     OW 6784   0.807   2.467   8.913
 2133SOL    HW1 6785   0.760   2.464   9.002
 2133SOL    HW2 6786   0.756   2.412   8.847
 2134SOL     OW 6787   1.394   2.331   9.122
 2134SOL    HW1 6788   1.374   2.374   9.210
 2134SOL    HW2 6789   1.472   2.269   9.131
 2135SOL     OW 6790   0.973   2.752   9.020
 2135SOL    HW1 6791   1.019   2.668   8.991
 2135SOL    HW2 6792   0.917   2.786   8.945
 2136SOL     OW 6793   0.991   2.272   8.690
 2136SOL    HW1 6794   0.914   2.306   8.744
 2136SOL    HW2 6795   0.957   2.221   8.611
 2137SOL     OW 6796   1.041   2.563   7.877
 2137SOL    HW1 6797   1.067   2.559   7.973
 2137SOL    HW2 6798   0.956   2.512   7.863
 2138SOL     OW 6799   0.076   2.673   8.237
 2138SOL    HW1 6800   0.175   2.661   8.246
 2138SOL    HW2 6801   0.052   2.768   8.258
 2139SOL     OW 6802   0.130   3.683   9.019
 2139SOL    HW1 6803   0.120   3.668   9.118
 2139SOL    HW2 6804   0.044   3.719   8.983
 2140SOL     OW 6805   0.865   2.210   7.643
 2140SOL    HW1 6806   0.924   2.273   7.594
 2140SOL    HW2 6807   0.884   2.116   7.614
 2141SOL     OW 6808   1.719   2.447   9.279
 2141SOL    HW1 6809   1.693   2.536   9.243
 2141SOL    HW2 6810   1.717   2.379   9.206
 2142SOL     OW 6811   1.362   3.006   7.993
 2142SOL    HW1 6812   1.445   2.977   7.945
 2142SOL    HW2 6813   1.313   3.073   7.937
 2143SOL     OW 6814   0.550   2.058   8.333
 2143SOL    HW1 6815   0.545   2.053   8.433
 2143SOL    HW2 6816   0.552   2.154   8.304
 2144SOL     OW 6817   1.008   3.318   7.925
 2144SOL    HW1 6818   0.962   3.390   7.873
 2144SOL    HW2 6819   1.004   3.338   8.023
 2145SOL     OW 6820   0.351   3.663   8.301
 2145SOL    HW1 6821   0.401   3.577   8.307
 2145SOL    HW2 6822   0.416   3.740   8.298
 2146SOL     OW 6823   1.795   2.928   8.321
 2146SOL    HW1 6824   1.733   2.913   8.245
 2146SOL    HW2 6825   1.743   2.939   8.406
 2147SOL     OW 6826   1.227   3.412   8.954
 2147SOL    HW1 6827   1.233   3.335   9.018
 2147SOL    HW2 6828   1.175   3.386   8.874
 2148SOL     OW 6829   0.321   2.805   7.690
 2148SOL    HW1 6830   0.403   2.844   7.648
 2148SOL    HW2 6831   0.294   2.723   7.641
 2149SOL     OW 6832   1.458   2.597   8.176
 2149SOL    HW1 6833   1.453   2.532   8.251
 2149SOL    HW2 6834   1.538   2.656   8.189
 2150SOL     OW 6835   0.461   3.128   9.175
 2150SOL    HW1 6836   0.411   3.129   9.089
 2150SOL    HW2 6837   0.398   3.110   9.251
 2151SOL     OW 6838   1.111   3.638   7.685
 2151SOL    HW1 6839   1.051   3.576   7.735
 2151SOL    HW2 6840   1.142   3.594   7.600
 2152SOL     OW 6841   0.202   2.147   8.946
 2152SOL    HW1 6842   0.122   2.207   8.933
 2152SOL    HW2 6843   0.192   2.098   9.032
 2153SOL     OW 6844   1.632   3.239   7.529
 2153SOL    HW1 6845   1.600   3.333   7.519
 2153SOL    HW2 6846   1.556   3.176   7.517
 2154SOL     OW 6847   0.464   3.605   7.771
 2154SOL    HW1 6848   0.497   3.644   7.857
 2154SOL    HW2 6849   0.540   3.598   7.706
 2155SOL     OW 6850   1.400   1.969   7.874
 2155SOL    HW1 6851   1.376   1.932   7.784
 2155SOL    HW2 6852   1.499   1.985   7.878
 2156SOL     OW 6853   0.249   3.647   8.689
 2156SOL    HW1 6854   0.306   3.582   8.739
 2156SOL    HW2 6855   0.233   3.614   8.596
 2157SOL     OW 6856   0.940   3.560   8.352
 2157SOL    HW1 6857   1.020   3.503   8.373
 2157SOL    HW2 6858   0.891   3.520   8.275
 2158SOL     OW 6859   0.382   2.562   7.928
 2158SOL    HW1 6860   0.427   2.472   7.925
 2158SOL    HW2 6861   0.288   2.551   7.961
 2159SOL     OW 6862   1.547   2.084   9.177
 2159SOL    HW1 6863   1.542   2.121   9.269
 2159SOL    HW2 6864   1.475   2.015   9.165
 2160SOL     OW 6865   0.614   1.984   7.565
 2160SOL    HW1 6866   0.712   1.962   7.572
 2160SOL    HW2 6867   0.583   1.967   7.472
 2161SOL     OW 6868   0.781   2.126   9.197
 2161SOL    HW1 6869   0.848   2.065   9.240
 2161SOL    HW2 6870   0.708   2.145   9.262
 2162SOL     OW 6871   0.888   3.376   8.643
 2162SOL    HW1 6872   0.865   3.351   8.549
 2162SOL    HW2 6873   0.949   3.307   8.682
 2163SOL     OW 6874   1.351   2.452   8.881
 2163SOL    HW1 6875   1.379   2.409   8.966
 2163SOL    HW2 6876   1.376   2.548   8.882
 2164SOL     OW 6877   0.803   3.264   8.372
 2164SOL    HW1 6878   0.893   3.278   8.330
 2164SOL    HW2 6879   0.732   3.266   8.301
 2165SOL     OW 6880   0.922   2.365   8.347
 2165SOL    HW1 6881   0.897   2.356   8.251
 2165SOL    HW2 6882   0.970   2.283   8.378
 2166SOL     OW 6883   0.539   1.926   7.960
 2166SOL    HW1 6884   0.458   1.927   8.018
 2166SOL    HW2 6885   0.542   2.009   7.905
 2167SOL     OW 6886   1.434   3.050   7.489
 2167SOL    HW1 6887   1.466   2.974   7.546
 2167SOL    HW2 6888   1.342   3.077   7.519
 2168SOL     OW 6889   0.297   1.897   7.619
 2168SOL    HW1 6890   0.346   1.981   7.598
 2168SOL    HW2 6891   0.359   1.832   7.664
 2169SOL     OW 6892   0.935   2.098   7.928
 2169SOL    HW1 6893   0.887   2.139   7.850
 2169SOL    HW2 6894   1.034   2.096   7.909
 2170SOL     OW 6895   1.076   2.545   8.912
 2170SOL    HW1 6896   0.996   2.484   8.915
 2170SOL    HW2 6897   1.157   2.492   8.888
 2171SOL     OW 6898   1.227   3.432   8.241
 2171SOL    HW1 6899   1.248   3.506   8.176
 2171SOL    HW2 6900   1.295   3.432   8.314
 2172SOL     OW 6901   0.459   3.014   8.189
 2172SOL    HW1 6902   0.388   2.987   8.254
 2172SOL    HW2 6903   0.433   2.986   8.096
 2173SOL     OW 6904   1.271   3.659   8.039
 2173SOL    HW1 6905   1.315   3.723   7.975
 2173SOL    HW2 6906   1.221   3.711   8.109
 2174SOL     OW 6907   1.032   2.411   7.464
 2174SOL    HW1 6908   0.991   2.493   7.425
 2174SOL    HW2 6909   1.096   2.437   7.537
 2175SOL     OW 6910   0.078   2.418   8.834
 2175SOL    HW1 6911   0.170   2.417   8.793
 2175SOL    HW2 6912   0.072   2.492   8.901
 2176SOL     OW 6913   0.561   2.084   8.595
 2176SOL    HW1 6914   0.599   2.000   8.632
 2176SOL    HW2 6915   0.473   2.103   8.639
 2177SOL     OW 6916   0.866   2.316   8.090
 2177SOL    HW1 6917   0.834   2.388   8.028
 2177SOL    HW2 6918   0.890   2.235   8.037
 2178SOL     OW 6919   1.017   1.901   8.201
 2178SOL    HW1 6920   0.945   1.906   8.132
 2178SOL    HW2 6921   0.993   1.832   8.270
 2179SOL     OW 6922   1.429   3.035   8.315
 2179SOL    HW1 6923   1.374   2.951   8.308
 2179SOL    HW2 6924   1.455   3.064   8.223
 2180SOL     OW 6925   1.466   2.452   8.440
 2180SOL    HW1 6926   1.436   2.357   8.447
 2180SOL    HW2 6927   1.539   2.468   8.506
 2181SOL     OW 6928   1.857   2.695   7.825
 2181SOL    HW1 6929   1.899   2.631   7.889
 2181SOL    HW2 6930   1.819   2.644   7.747
 2182SOL     OW 6931   0.488   3.247   7.622
 2182SOL    HW1 6932   0.401   3.232   7.669
 2182SOL    HW2 6933   0.471   3.273   7.527
 2183SOL     OW 6934   1.664   3.142   8.105
 2183SOL    HW1 6935   1.763   3.150   8.119
 2183SOL    HW2 6936   1.619   3.226   8.136
 2184SOL     OW 6937   1.390   2.437   7.526
 2184SOL    HW1 6938   1.336   2.416   7.607
 2184SOL    HW2 6939   1.481   2.396   7.535
 2185SOL     OW 6940   0.527   2.118   7.776
 2185SOL    HW1 6941   0.554   2.059   7.701
 2185SOL    HW2 6942   0.527   2.213   7.745
 2186SOL     OW 6943   1.754   3.085   9.036
 2186SOL    HW1 6944   1.845   3.046   9.023
 2186SOL    HW2 6945   1.762   3.181   9.060
 2187SOL     OW 6946   1.064   3.209   8.788
 2187SOL    HW1 6947   0.984   3.186   8.843
 2187SOL    HW2 6948   1.147   3.183   8.837
 2188SOL     OW 6949   1.592   3.491   9.073
 2188SOL    HW1 6950   1.619   3.525   8.983
 2188SOL    HW2 6951   1.671   3.453   9.119
 2189SOL     OW 6952   1.111   3.057   8.548
 2189SOL    HW1 6953   1.071   3.101   8.629
 2189SOL    HW2 6954   1.070   3.094   8.465
 2190SOL     OW 6955   1.638   2.961   8.527
 2190SOL    HW1 6956   1.643   3.042   8.586
 2190SOL    HW2 6957   1.552   2.963   8.476
 2191SOL     OW 6958   0.915   1.951   8.850
 2191SOL    HW1 6959   0.940   1.931   8.755
 2191SOL    HW2 6960   0.987   2.007   8.892
 2192SOL     OW 6961   0.980   2.978   9.167
 2192SOL    HW1 6962   0.881   2.984   9.177
 2192SOL    HW2 6963   1.003   2.898   9.111
 2193SOL     OW 6964   0.705   2.912   7.816
 2193SOL    HW1 6965   0.691   2.919   7.915
 2193SOL    HW2 6966   0.789   2.861   7.798
 2194SOL     OW 6967   0.410   2.675   8.699
 2194SOL    HW1 6968   0.496   2.687   8.749
 2194SOL    HW2 6969   0.368   2.588   8.726
 2195SOL     OW 6970   1.274   2.248   8.710
 2195SOL    HW1 6971   1.295   2.322   8.774
 2195SOL    HW2 6972   1.185   2.265   8.667
 2196SOL     OW 6973   0.064   3.426   8.779
 2196SOL    HW1 6974   0.018   3.508   8.745
 2196SOL    HW2 6975   0.162   3.445   8.788
 2197SOL     OW 6976   0.367   2.962   7.949
 2197SOL    HW1 6977   0.360   3.045   7.893
 2197SOL    HW2 6978   0.371   2.882   7.889
 2198SOL     OW 6979   0.566   2.399   8.313
 2198SOL    HW1 6980   0.578   2.465   8.239
 2198SOL    HW2 6981   0.612   2.433   8.396
 2199SOL     OW 6982   1.252   3.210   7.836
 2199SOL    HW1 6983   1.302   3.287   7.876
 2199SOL    HW2 6984   1.157   3.212   7.868
 2200SOL     OW 6985   1.272   3.307   8.590
 2200SOL    HW1 6986   1.319   3.320   8.677
 2200SOL    HW2 6987   1.206   3.233   8.599
 2201SOL     OW 6988   1.582   2.501   7.920
 2201SOL    HW1 6989   1.551   2.562   7.993
 2201SOL    HW2 6990   1.632   2.553   7.851
 2202SOL     OW 6991   0.354   3.372   8.777
 2202SOL    HW1 6992   0.333   3.328   8.690
 2202SOL    HW2 6993   0.451   3.398   8.780
 2203SOL     OW 6994   0.402   2.613   9.046
 2203SOL    HW1 6995   0.470   2.668   8.999
 2203SOL    HW2 6996   0.442   2.525   9.073
 2204SOL     OW 6997   1.587   2.641   9.118
 2204SOL    HW1 6998   1.495   2.679   9.113
 2204SOL    HW2 6999   1.647   2.688   9.053
 2205SOL     OW 7000   1.013   1.967   9.218
 2205SOL    HW1 7001   1.019   2.052   9.166
 2205SOL    HW2 7002   1.045   1.891   9.161
 2206SOL     OW 7003   0.504   1.912   9.188
 2206SOL    HW1 7004   0.462   1.855   9.118
 2206SOL    HW2 7005   0.438   1.981   9.220
 2207SOL     OW 7006   0.573   2.732   8.477
 2207SOL    HW1 7007   0.617   2.821   8.468
 2207SOL    HW2 7008   0.510   2.732   8.554
 2208SOL     OW 7009   1.360   2.724   8.493
 2208SOL    HW1 7010   1.285   2.724   8.427
 2208SOL    HW2 7011   1.397   2.632   8.502
 2209SOL     OW 7012   1.209   2.387   7.723
 2209SOL    HW1 7013   1.222   2.303   7.777
 2209SOL    HW2 7014   1.180   2.461   7.783
 2210SOL     OW 7015   0.307   2.075   8.679
 2210SOL    HW1 7016   0.284   2.112   8.769
 2210SOL    HW2 7017   0.277   1.980   8.673
 2211SOL     OW 7018   0.037   3.172   8.730
 2211SOL    HW1 7019   0.090   3.123   8.798
 2211SOL    HW2 7020   0.059   3.270   8.735
 2212SOL     OW 7021   0.732   2.496   8.512
 2212SOL    HW1 7022   0.791   2.470   8.436
 2212SOL    HW2 7023   0.704   2.592   8.501
 2213SOL     OW 7024   1.728   2.797   9.302
 2213SOL    HW1 7025   1.682   2.790   9.213
 2213SOL    HW2 7026   1.666   2.841   9.368
 2214SOL     OW 7027   0.307   1.925   8.066
 2214SOL    HW1 7028   0.296   2.019   8.099
 2214SOL    HW2 7029   0.302   1.862   8.143
 2215SOL     OW 7030   1.622   2.229   7.822
 2215SOL    HW1 7031   1.624   2.153   7.886
 2215SOL    HW2 7032   1.574   2.306   7.862
 2216SOL     OW 7033   1.023   2.628   8.414
 2216SOL    HW1 7034   1.038   2.649   8.510
 2216SOL    HW2 7035   0.993   2.533   8.405
 2217SOL     OW 7036   0.980   3.435   9.148
 2217SOL    HW1 7037   0.960   3.479   9.060
 2217SOL    HW2 7038   1.019   3.344   9.132
 2218SOL     OW 7039   1.859   3.380   9.053
 2218SOL    HW1 7040   1.873   3.407   8.958
 2218SOL    HW2 7041   1.942   3.402   9.106
 2219SOL     OW 7042   0.350   2.760   9.252
 2219SOL    HW1 7043   0.426   2.804   9.300
 2219SOL    HW2 7044   0.385   2.713   9.170
 2220SOL     OW 7045   1.540   2.136   7.573
 2220SOL    HW1 7046   1.479   2.061   7.596
 2220SOL    HW2 7047   1.562   2.188   7.656
 2221SOL     OW 7048   1.303   2.700   7.490
 2221SOL    HW1 7049   1.337   2.607   7.505
 2221SOL    HW2 7050   1.321   2.727   7.395
 2222SOL     OW 7051   1.068   3.195   8.297
 2222SOL    HW1 7052   1.075   3.111   8.242
 2222SOL    HW2 7053   1.130   3.264   8.261
 2223SOL     OW 7054   0.319   2.672   8.397
 2223SOL    HW1 7055   0.412   2.708   8.402
 2223SOL    HW2 7056   0.313   2.587   8.449
 2224SOL     OW 7057   0.339   2.371   8.454
 2224SOL    HW1 7058   0.287   2.288   8.437
 2224SOL    HW2 7059   0.416   2.376   8.390
 2225SOL     OW 7060   1.138   2.242   9.126
 2225SOL    HW1 7061   1.093   2.305   9.190
 2225SOL    HW2 7062   1.231   2.273   9.109
 2226SOL     OW 7063   1.160   2.069   8.925
 2226SOL    HW1 7064   1.160   2.133   9.002
 2226SOL    HW2 7065   1.188   2.117   8.842
 2227SOL     OW 7066   0.008   3.188   7.648
 2227SOL    HW1 7067  -0.085   3.209   7.617
 2227SOL    HW2 7068   0.018   3.089   7.661
 2228SOL     OW 7069   0.088   3.663   8.375
 2228SOL    HW1 7070   0.046   3.577   8.348
 2228SOL    HW2 7071   0.182   3.666   8.341
 2229SOL     OW 7072   0.504   3.430   8.358
 2229SOL    HW1 7073   0.570   3.504   8.367
 2229SOL    HW2 7074   0.548   3.351   8.316
 2230SOL     OW 7075   1.002   2.658   8.686
 2230SOL    HW1 7076   1.043   2.626   8.772
 2230SOL    HW2 7077   0.906   2.631   8.683
 2231SOL     OW 7078   0.040   2.406   8.562
 2231SOL    HW1 7079   0.125   2.373   8.521
 2231SOL    HW2 7080   0.053   2.421   8.660
 2232SOL     OW 7081   0.189   2.382   9.170
 2232SOL    HW1 7082   0.248   2.342   9.100
 2232SOL    HW2 7083   0.131   2.453   9.129
 2233SOL     OW 7084   1.369   2.812   9.108
 2233SOL    HW1 7085   1.408   2.901   9.128
 2233SOL    HW2 7086   1.379   2.792   9.011
 2234SOL     OW 7087   0.815   2.434   7.773
 2234SOL    HW1 7088   0.822   2.345   7.727
 2234SOL    HW2 7089   0.721   2.468   7.765
 2235SOL     OW 7090   1.657   2.466   8.654
 2235SOL    HW1 7091   1.619   2.397   8.716
 2235SOL    HW2 7092   1.739   2.430   8.610
 2236SOL     OW 7093   0.252   3.426   9.192
 2236SOL    HW1 7094   0.222   3.483   9.268
 2236SOL    HW2 7095   0.245   3.329   9.218
 2237SOL     OW 7096   0.671   2.326   8.717
 2237SOL    HW1 7097   0.637   2.237   8.687
 2237SOL    HW2 7098   0.697   2.380   8.637
 2238SOL     OW 7099   0.930   3.540   8.913
 2238SOL    HW1 7100   0.906   3.522   8.818
 2238SOL    HW2 7101   0.960   3.634   8.923
 2239SOL     OW 7102   0.473   2.362   7.639
 2239SOL    HW1 7103   0.534   2.442   7.643
 2239SOL    HW2 7104   0.378   2.393   7.646
 2240SOL     OW 7105   0.159   2.999   8.914
 2240SOL    HW1 7106   0.181   2.938   8.990
 2240SOL    HW2 7107   0.169   2.950   8.828
 2241SOL     OW 7108   1.347   2.921   8.682
 2241SOL    HW1 7109   1.371   2.858   8.608
 2241SOL    HW2 7110   1.257   2.961   8.664
 2242SOL     OW 7111   1.302   2.717   7.757
 2242SOL    HW1 7112   1.216   2.686   7.799
 2242SOL    HW2 7113   1.298   2.703   7.658
 2243SOL     OW 7114   1.759   3.609   8.602
 2243SOL    HW1 7115   1.820   3.639   8.529
 2243SOL    HW2 7116   1.721   3.520   8.580
 2244SOL     OW 7117   1.252   3.593   8.576
 2244SOL    HW1 7118   1.336   3.598   8.522
 2244SOL    HW2 7119   1.229   3.497   8.594
 2245SOL     OW 7120   0.083   3.120   8.470
 2245SOL    HW1 7121   0.078   3.119   8.570
 2245SOL    HW2 7122   0.000   3.079   8.432
 2246SOL     OW 7123   0.688   3.524   9.164
 2246SOL    HW1 7124   0.632   3.605   9.173
 2246SOL    HW2 7125   0.740   3.528   9.078
 2247SOL     OW 7126   1.726   1.997   7.971
 2247SOL    HW1 7127   1.799   1.980   7.904
 2247SOL    HW2 7128   1.695   1.910   8.009
 2248SOL     OW 7129   1.388   3.435   7.925
 2248SOL    HW1 7130   1.455   3.447   7.851
 2248SOL    HW2 7131   1.348   3.524   7.948
 2249SOL     OW 7132   0.130   3.656   9.299
 2249SOL    HW1 7133   0.089   3.582   9.352
 2249SOL    HW2 7134   0.194   3.707   9.357
 2250SOL     OW 7135   1.280   2.789   8.120
 2250SOL    HW1 7136   1.340   2.708   8.122
 2250SOL    HW2 7137   1.320   2.858   8.060
 2251SOL     OW 7138   0.830   3.135   8.870
 2251SOL    HW1 7139   0.825   3.168   8.965
 2251SOL    HW2 7140   0.744   3.154   8.824
 2252SOL     OW 7141   0.672   3.478   7.602
 2252SOL    HW1 7142   0.681   3.488   7.503
 2252SOL    HW2 7143   0.632   3.389   7.623
 2253SOL     OW 7144   1.650   3.582   8.842
 2253SOL    HW1 7145   1.703   3.592   8.758
 2253SOL    HW2 7146   1.623   3.672   8.876
 2254SOL     OW 7147   1.841   2.037   8.411
 2254SOL    HW1 7148   1.880   1.952   8.375
 2254SOL    HW2 7149   1.743   2.039   8.392
 2255SOL     OW 7150   0.263   2.188   8.168
 2255SOL    HW1 7151   0.184   2.239   8.134
 2255SOL    HW2 7152   0.254   2.173   8.266
 2256SOL     OW 7153   1.194   3.474   7.479
 2256SOL    HW1 7154   1.200   3.381   7.516
 2256SOL    HW2 7155   1.135   3.474   7.399
 2257SOL     OW 7156   0.822   2.864   8.820
 2257SOL    HW1 7157   0.862   2.863   8.728
 2257SOL    HW2 7158   0.832   2.956   8.860
 2258SOL     OW 7159   0.916   2.772   7.739
 2258SOL    HW1 7160   0.979   2.810   7.671
 2258SOL    HW2 7161   0.956   2.689   7.778
 2259SOL     OW 7162   1.504   3.469   7.492
 2259SOL    HW1 7163   1.412   3.506   7.499
 2259SOL    HW2 7164   1.542   3.489   7.402
 2260SOL     OW 7165   0.372   3.150   8.938
 2260SOL    HW1 7166   0.359   3.243   8.904
 2260SOL    HW2 7167   0.288   3.098   8.925
 2261SOL     OW 7168   1.614   3.154   8.737
 2261SOL    HW1 7169   1.674   3.157   8.817
 2261SOL    HW2 7170   1.539   3.218   8.750
 2262SOL     OW 7171   1.039   2.960   8.144
 2262SOL    HW1 7172   0.969   2.913   8.198
 2262SOL    HW2 7173   1.098   2.892   8.101
 2263SOL     OW 7174   1.014   2.098   8.419
 2263SOL    HW1 7175   1.006   2.062   8.326
 2263SOL    HW2 7176   1.012   2.022   8.484
 2264SOL     OW 7177   0.590   3.349   7.939
 2264SOL    HW1 7178   0.632   3.291   7.869
 2264SOL    HW2 7179   0.546   3.428   7.895
 2265SOL     OW 7180   1.709   2.247   8.829
 2265SOL    HW1 7181   1.782   2.316   8.833
 2265SOL    HW2 7182   1.737   2.172   8.770
 2266SOL     OW 7183   0.255   3.210   7.738
 2266SOL    HW1 7184   0.159   3.211   7.711
 2266SOL    HW2 7185   0.267   3.263   7.822
 2267SOL     OW 7186   0.105   2.875   9.174
 2267SOL    HW1 7187   0.028   2.842   9.228
 2267SOL    HW2 7188   0.190   2.845   9.216
 2268SOL     OW 7189   0.672   2.065   8.937
 2268SOL    HW1 7190   0.762   2.049   8.897
 2268SOL    HW2 7191   0.680   2.070   9.036
 2269SOL     OW 7192   0.075   2.207   7.481
 2269SOL    HW1 7193  -0.017   2.179   7.452
 2269SOL    HW2 7194   0.106   2.284   7.425
 2270SOL     OW 7195   1.440   2.718   8.846
 2270SOL    HW1 7196   1.383   2.770   8.783
 2270SOL    HW2 7197   1.536   2.730   8.822
 2271SOL     OW 7198   0.072   2.028   7.766
 2271SOL    HW1 7199   0.055   2.111   7.712
 2271SOL    HW2 7200   0.162   1.991   7.744
 2272SOL     OW 7201   1.183   3.197   7.567
 2272SOL    HW1 7202   1.084   3.186   7.569
 2272SOL    HW2 7203   1.217   3.212   7.660
 2273SOL     OW 7204   0.613   2.704   8.879
 2273SOL    HW1 7205   0.669   2.785   8.862
 2273SOL    HW2 7206   0.672   2.624   8.882
 2274SOL     OW 7207   1.493   3.629   8.407
 2274SOL    HW1 7208   1.526   3.693   8.338
 2274SOL    HW2 7209   1.559   3.623   8.482
 2275SOL     OW 7210   0.716   2.427   9.156
 2275SOL    HW1 7211   0.735   2.492   9.230
 2275SOL    HW2 7212   0.776   2.347   9.165
 2276SOL     OW 7213   1.450   3.082   9.081
 2276SOL    HW1 7214   1.441   3.072   9.180
 2276SOL    HW2 7215   1.546   3.075   9.055
 2277SOL     OW 7216   0.390   3.603   9.008
 2277SOL    HW1 7217   0.299   3.644   9.006
 2277SOL    HW2 7218   0.383   3.509   9.040
 2278SOL     OW 7219   1.674   2.745   8.702
 2278SOL    HW1 7220   1.647   2.656   8.665
 2278SOL    HW2 7221   1.675   2.813   8.629
 2279SOL     OW 7222   1.225   2.187   7.897
 2279SOL    HW1 7223   1.290   2.113   7.886
 2279SOL    HW2 7224   1.245   2.237   7.981
 2280SOL     OW 7225   0.594   2.607   8.100
 2280SOL    HW1 7226   0.644   2.692   8.081
 2280SOL    HW2 7227   0.506   2.609   8.052
 2281SOL     OW 7228   1.777   2.204   9.090
 2281SOL    HW1 7229   1.760   2.235   8.996
 2281SOL    HW2 7230   1.693   2.167   9.128
 2282SOL     OW 7231   1.730   2.796   8.965
 2282SOL    HW1 7232   1.768   2.887   8.980
 2282SOL    HW2 7233   1.722   2.779   8.866
 2283SOL     OW 7234   0.859   3.236   7.464
 2283SOL    HW1 7235   0.813   3.251   7.552
 2283SOL    HW2 7236   0.903   3.321   7.434
 2284SOL     OW 7237   0.661   3.652   8.401
 2284SOL    HW1 7238   0.615   3.740   8.388
 2284SOL    HW2 7239   0.760   3.664   8.394
 2285SOL     OW 7240   0.859   2.818   8.309
 2285SOL    HW1 7241   0.913   2.749   8.357
 2285SOL    HW2 7242   0.827   2.887   8.375
 2286SOL     OW 7243   1.083   2.846   7.535
 2286SOL    HW1 7244   1.060   2.899   7.453
 2286SOL    HW2 7245   1.164   2.790   7.516
 2287SOL     OW 7246   1.861   3.431   8.299
 2287SOL    HW1 7247   1.790   3.419   8.229
 2287SOL    HW2 7248   1.862   3.352   8.359
 2288SOL     OW 7249   0.221   3.176   9.292
 2288SOL    HW1 7250   0.156   3.103   9.271
 2288SOL    HW2 7251   0.225   3.190   9.390
 2289SOL     OW 7252   0.079   3.102   8.101
 2289SOL    HW1 7253   0.078   3.055   8.189
 2289SOL    HW2 7254   0.161   3.074   8.050
 2290SOL     OW 7255   0.672   3.253   9.072
 2290SOL    HW1 7256   0.594   3.203   9.110
 2290SOL    HW2 7257   0.669   3.348   9.103
 2291SOL     OW 7258   1.824   2.054   8.675
 2291SOL    HW1 7259   1.820   1.964   8.719
 2291SOL    HW2 7260   1.827   2.043   8.576
 2292SOL     OW 7261   0.428   2.286   7.968
 2292SOL    HW1 7262   0.458   2.214   7.906
 2292SOL    HW2 7263   0.389   2.246   8.051
 2293SOL     OW 7264   1.705   3.349   8.552
 2293SOL    HW1 7265   1.612   3.324   8.525
 2293SOL    HW2 7266   1.731   3.299   8.634
 2294SOL     OW 7267   0.317   2.409   8.728
 2294SOL    HW1 7268   0.355   2.350   8.800
 2294SOL    HW2 7269   0.357   2.383   8.640
 2295SOL     OW 7270   0.812   3.448   8.135
 2295SOL    HW1 7271   0.844   3.458   8.041
 2295SOL    HW2 7272   0.733   3.386   8.137
 2296SOL     OW 7273   1.424   2.076   8.560
 2296SOL    HW1 7274   1.476   2.011   8.615
 2296SOL    HW2 7275   1.375   2.139   8.621
 2297SOL     OW 7276   1.001   1.896   8.602
 2297SOL    HW1 7277   0.938   1.824   8.571
 2297SOL    HW2 7278   1.094   1.860   8.602
 2298SOL     OW 7279   0.770   3.192   7.749
 2298SOL    HW1 7280   0.724   3.105   7.766
 2298SOL    HW2 7281   0.861   3.189   7.790
 2299SOL     OW 7282   0.618   3.429   8.732
 2299SOL    HW1 7283   0.613   3.511   8.789
 2299SOL    HW2 7284   0.707   3.426   8.687
 2300SOL     OW 7285   1.352   1.914   7.616
 2300SOL    HW1 7286   1.387   1.873   7.532
 2300SOL    HW2 7287   1.262   1.876   7.636
 2301SOL     OW 7288   1.300   2.315   8.139
 2301SOL    HW1 7289   1.241   2.395   8.143
 2301SOL    HW2 7290   1.315   2.280   8.232
 2302SOL     OW 7291   1.593   2.083   8.330
 2302SOL    HW1 7292   1.509   2.082   8.384
 2302SOL    HW2 7293   1.595   2.166   8.274
 2303SOL     OW 7294   0.039   2.939   7.748
 2303SOL    HW1 7295   0.138   2.928   7.739
 2303SOL    HW2 7296  -0.001   2.853   7.780
 2304SOL     OW 7297   0.875   3.508   7.785
 2304SOL    HW1 7298   0.798   3.473   7.731
 2304SOL    HW2 7299   0.843   3.579   7.847
 2305SOL     OW 7300   0.230   2.490   9.423
 2305SOL    HW1 7301   0.137   2.488   9.460
 2305SOL    HW2 7302   0.231   2.451   9.331
 2306SOL     OW 7303   0.225   2.137  10.306
 2306SOL    HW1 7304   0.260   2.120  10.398
 2306SOL    HW2 7305   0.137   2.092  10.294
 2307SOL     OW 7306   0.019   2.230   9.957
 2307SOL    HW1 7307  -0.063   2.273   9.996
 2307SOL    HW2 7308  -0.009   2.157   9.894
 2308SOL     OW 7309   0.569   3.137  10.475
 2308SOL    HW1 7310   0.476   3.130  10.438
 2308SOL    HW2 7311   0.580   3.226  10.519
 2309SOL     OW 7312   1.555   3.373  10.013
 2309SOL    HW1 7313   1.498   3.357  10.094
 2309SOL    HW2 7314   1.496   3.383   9.933
 2310SOL     OW 7315   1.135   2.565  10.027
 2310SOL    HW1 7316   1.192   2.643  10.002
 2310SOL    HW2 7317   1.075   2.591  10.103
 2311SOL     OW 7318   1.755   2.469   9.541
 2311SOL    HW1 7319   1.743   2.456   9.442
 2311SOL    HW2 7320   1.725   2.388   9.590
 2312SOL     OW 7321   0.768   3.006  10.333
 2312SOL    HW1 7322   0.690   3.023  10.393
 2312SOL    HW2 7323   0.802   3.093  10.297
 2313SOL     OW 7324   0.850   2.660  11.133
 2313SOL    HW1 7325   0.846   2.736  11.198
 2313SOL    HW2 7326   0.872   2.696  11.042
 2314SOL     OW 7327   0.685   2.874   9.975
 2314SOL    HW1 7328   0.754   2.858  10.045
 2314SOL    HW2 7329   0.612   2.931  10.013
 2315SOL     OW 7330   0.335   3.297  10.371
 2315SOL    HW1 7331   0.257   3.266  10.318
 2315SOL    HW2 7332   0.393   3.355  10.314
 2316SOL     OW 7333   1.460   3.367  10.649
 2316SOL    HW1 7334   1.484   3.461  10.675
 2316SOL    HW2 7335   1.444   3.313  10.731
 2317SOL     OW 7336   0.438   2.254  10.809
 2317SOL    HW1 7337   0.520   2.198  10.818
 2317SOL    HW2 7338   0.357   2.196  10.813
 2318SOL     OW 7339   1.603   2.309  10.047
 2318SOL    HW1 7340   1.529   2.355   9.997
 2318SOL    HW2 7341   1.654   2.377  10.100
 2319SOL     OW 7342   0.231   3.575   9.793
 2319SOL    HW1 7343   0.265   3.652   9.847
 2319SOL    HW2 7344   0.275   3.575   9.703
 2320SOL     OW 7345   0.230   3.296   9.848
 2320SOL    HW1 7346   0.204   3.392   9.848
 2320SOL    HW2 7347   0.159   3.242   9.893
 2321SOL     OW 7348   0.240   2.953  10.196
 2321SOL    HW1 7349   0.254   2.869  10.248
 2321SOL    HW2 7350   0.185   3.017  10.251
 2322SOL     OW 7351   0.620   3.648  10.749
 2322SOL    HW1 7352   0.528   3.631  10.784
 2322SOL    HW2 7353   0.648   3.740  10.775
 2323SOL     OW 7354   0.606   2.826   9.433
 2323SOL    HW1 7355   0.613   2.910   9.379
 2323SOL    HW2 7356   0.652   2.839   9.521
 2324SOL     OW 7357   1.594   1.976  10.790
 2324SOL    HW1 7358   1.576   2.043  10.718
 2324SOL    HW2 7359   1.591   2.022  10.879
 2325SOL     OW 7360   0.122   2.505   9.873
 2325SOL    HW1 7361   0.077   2.417   9.890
 2325SOL    HW2 7362   0.121   2.559   9.957
 2326SOL     OW 7363   1.842   3.629   9.669
 2326SOL    HW1 7364   1.896   3.600   9.749
 2326SOL    HW2 7365   1.872   3.719   9.640
 2327SOL     OW 7366   0.027   3.458   9.427
 2327SOL    HW1 7367   0.008   3.362   9.448
 2327SOL    HW2 7368  -0.006   3.516   9.502
 2328SOL     OW 7369   1.689   2.784   9.922
 2328SOL    HW1 7370   1.784   2.755   9.930
 2328SOL    HW2 7371   1.681   2.849   9.847
 2329SOL     OW 7372   1.641   2.970   9.742
 2329SOL    HW1 7373   1.727   2.972   9.690
 2329SOL    HW2 7374   1.655   3.017   9.830
 2330SOL     OW 7375   0.113   2.599  10.907
 2330SOL    HW1 7376   0.201   2.586  10.952
 2330SOL    HW2 7377   0.100   2.696  10.885
 2331SOL     OW 7378   0.613   3.227  10.036
 2331SOL    HW1 7379   0.564   3.140  10.045
 2331SOL    HW2 7380   0.590   3.270   9.949
 2332SOL     OW 7381   1.293   3.090  10.733
 2332SOL    HW1 7382   1.330   3.017  10.675
 2332SOL    HW2 7383   1.345   3.095  10.818
 2333SOL     OW 7384   0.809   1.866   9.812
 2333SOL    HW1 7385   0.849   1.957   9.803
 2333SOL    HW2 7386   0.709   1.874   9.818
 2334SOL     OW 7387   0.197   2.838  10.574
 2334SOL    HW1 7388   0.286   2.793  10.560
 2334SOL    HW2 7389   0.124   2.773  10.555
 2335SOL     OW 7390   1.525   2.861   9.500
 2335SOL    HW1 7391   1.462   2.785   9.513
 2335SOL    HW2 7392   1.573   2.879   9.586
 2336SOL     OW 7393   1.187   3.654  10.926
 2336SOL    HW1 7394   1.211   3.714  10.850
 2336SOL    HW2 7395   1.194   3.559  10.896
 2337SOL     OW 7396   0.317   2.113  11.111
 2337SOL    HW1 7397   0.388   2.184  11.117
 2337SOL    HW2 7398   0.229   2.152  11.139
 2338SOL     OW 7399   1.466   3.279  10.263
 2338SOL    HW1 7400   1.407   3.285  10.343
 2338SOL    HW2 7401   1.451   3.191  10.217
 2339SOL     OW 7402   1.667   3.576   9.882
 2339SOL    HW1 7403   1.626   3.553   9.794
 2339SOL    HW2 7404   1.649   3.502   9.947
 2340SOL     OW 7405   0.598   2.591   9.580
 2340SOL    HW1 7406   0.622   2.660   9.512
 2340SOL    HW2 7407   0.520   2.624   9.634
 2341SOL     OW 7408   1.281   2.207  10.254
 2341SOL    HW1 7409   1.195   2.157  10.241
 2341SOL    HW2 7410   1.343   2.153  10.310
 2342SOL     OW 7411   1.576   3.524   9.617
 2342SOL    HW1 7412   1.665   3.570   9.620
 2342SOL    HW2 7413   1.555   3.500   9.522
 2343SOL     OW 7414   0.807   2.467  10.775
 2343SOL    HW1 7415   0.760   2.464  10.864
 2343SOL    HW2 7416   0.756   2.412  10.709
 2344SOL     OW 7417   0.973   2.752  10.882
 2344SOL    HW1 7418   1.019   2.668  10.853
 2344SOL    HW2 7419   0.917   2.786  10.807
 2345SOL     OW 7420   0.991   2.272  10.552
 2345SOL    HW1 7421   0.914   2.306  10.606
 2345SOL    HW2 7422   0.957   2.221  10.473
 2346SOL     OW 7423   1.041   2.563   9.739
 2346SOL    HW1 7424   1.067   2.559   9.835
 2346SOL    HW2 7425   0.956   2.512   9.725
 2347SOL     OW 7426   0.076   2.673  10.099
 2347SOL    HW1 7427   0.175   2.661  10.108
 2347SOL    HW2 7428   0.052   2.768  10.120
 2348SOL     OW 7429   0.130   3.683  10.881
 2348SOL    HW1 7430   0.120   3.668  10.980
 2348SOL    HW2 7431   0.044   3.719  10.845
 2349SOL     OW 7432   0.865   2.210   9.505
 2349SOL    HW1 7433   0.924   2.273   9.456
 2349SOL    HW2 7434   0.884   2.116   9.476
 2350SOL     OW 7435   1.362   3.006   9.855
 2350SOL    HW1 7436   1.445   2.977   9.807
 2350SOL    HW2 7437   1.313   3.073   9.799
 2351SOL     OW 7438   0.550   2.058  10.195
 2351SOL    HW1 7439   0.545   2.053  10.295
 2351SOL    HW2 7440   0.552   2.154  10.166
 2352SOL     OW 7441   1.008   3.318   9.787
 2352SOL    HW1 7442   0.962   3.390   9.735
 2352SOL    HW2 7443   1.004   3.338   9.885
 2353SOL     OW 7444   0.351   3.663  10.163
 2353SOL    HW1 7445   0.401   3.577  10.169
 2353SOL    HW2 7446   0.416   3.740  10.160
 2354SOL     OW 7447   1.795   2.928  10.183
 2354SOL    HW1 7448   1.733   2.913  10.107
 2354SOL    HW2 7449   1.743   2.939  10.268
 2355SOL     OW 7450   1.227   3.412  10.816
 2355SOL    HW1 7451   1.233   3.335  10.880
 2355SOL    HW2 7452   1.175   3.386  10.736
 2356SOL     OW 7453   0.321   2.805   9.552
 2356SOL    HW1 7454   0.403   2.844   9.510
 2356SOL    HW2 7455   0.294   2.723   9.503
 2357SOL     OW 7456   1.458   2.597  10.038
 2357SOL    HW1 7457   1.453   2.532  10.113
 2357SOL    HW2 7458   1.538   2.656  10.051
 2358SOL     OW 7459   0.461   3.128  11.037
 2358SOL    HW1 7460   0.411   3.129  10.951
 2358SOL    HW2 7461   0.398   3.110  11.113
 2359SOL     OW 7462   1.111   3.638   9.547
 2359SOL    HW1 7463   1.051   3.576   9.597
 2359SOL    HW2 7464   1.142   3.594   9.462
 2360SOL     OW 7465   0.202   2.147  10.808
 2360SOL    HW1 7466   0.122   2.207  10.795
 2360SOL    HW2 7467   0.192   2.098  10.894
 2361SOL     OW 7468   1.632   3.239   9.391
 2361SOL    HW1 7469   1.600   3.333   9.381
 2361SOL    HW2 7470   1.556   3.176   9.379
 2362SOL     OW 7471   0.464   3.605   9.633
 2362SOL    HW1 7472   0.497   3.644   9.719
 2362SOL    HW2 7473   0.540   3.598   9.568
 2363SOL     OW 7474   1.400   1.969   9.736
 2363SOL    HW1 7475   1.376   1.932   9.646
 2363SOL    HW2 7476   1.499   1.985   9.740
 2364SOL     OW 7477   0.249   3.647  10.551
 2364SOL    HW1 7478   0.306   3.582  10.601
 2364SOL    HW2 7479   0.233   3.614  10.458
 2365SOL     OW 7480   0.940   3.560  10.214
 2365SOL    HW1 7481   1.020   3.503  10.235
 2365SOL    HW2 7482   0.891   3.520  10.137
 2366SOL     OW 7483   0.382   2.562   9.790
 2366SOL    HW1 7484   0.427   2.472   9.787
 2366SOL    HW2 7485   0.288   2.551   9.823
 2367SOL     OW 7486   0.614   1.984   9.427
 2367SOL    HW1 7487   0.712   1.962   9.434
 2367SOL    HW2 7488   0.583   1.967   9.334
 2368SOL     OW 7489   0.781   2.126  11.059
 2368SOL    HW1 7490   0.848   2.065  11.102
 2368SOL    HW2 7491   0.708   2.145  11.124
 2369SOL     OW 7492   0.888   3.376  10.505
 2369SOL    HW1 7493   0.865   3.351  10.411
 2369SOL    HW2 7494   0.949   3.307  10.544
 2370SOL     OW 7495   1.351   2.452  10.743
 2370SOL    HW1 7496   1.379   2.409  10.828
 2370SOL    HW2 7497   1.376   2.548  10.744
 2371SOL     OW 7498   0.803   3.264  10.234
 2371SOL    HW1 7499   0.893   3.278  10.192
 2371SOL    HW2 7500   0.732   3.266  10.163
 2372SOL     OW 7501   0.922   2.365  10.209
 2372SOL    HW1 7502   0.897   2.356  10.113
 2372SOL    HW2 7503   0.970   2.283  10.240
 2373SOL     OW 7504   0.539   1.926   9.822
 2373SOL    HW1 7505   0.458   1.927   9.880
 2373SOL    HW2 7506   0.542   2.009   9.767
 2374SOL     OW 7507   1.434   3.050   9.351
 2374SOL    HW1 7508   1.466   2.974   9.408
 2374SOL    HW2 7509   1.342   3.077   9.381
 2375SOL     OW 7510   0.297   1.897   9.481
 2375SOL    HW1 7511   0.346   1.981   9.460
 2375SOL    HW2 7512   0.359   1.832   9.526
 2376SOL     OW 7513   0.935   2.098   9.790
 2376SOL    HW1 7514   0.887   2.139   9.712
 2376SOL    HW2 7515   1.034   2.096   9.771
 2377SOL     OW 7516   1.076   2.545  10.774
 2377SOL    HW1 7517   0.996   2.484  10.777
 2377SOL    HW2 7518   1.157   2.492  10.750
 2378SOL     OW 7519   1.227   3.432  10.103
 2378SOL    HW1 7520   1.248   3.506  10.038
 2378SOL    HW2 7521   1.295   3.432  10.176
 2379SOL     OW 7522   0.459   3.014  10.051
 2379SOL    HW1 7523   0.388   2.987  10.116
 2379SOL    HW2 7524   0.433   2.986   9.958
 2380SOL     OW 7525   1.271   3.659   9.901
 2380SOL    HW1 7526   1.315   3.723   9.837
 2380SOL    HW2 7527   1.221   3.711   9.971
 2381SOL     OW 7528   1.032   2.411   9.326
 2381SOL    HW1 7529   0.991   2.493   9.287
 2381SOL    HW2 7530   1.096   2.437   9.399
 2382SOL     OW 7531   0.078   2.418  10.696
 2382SOL    HW1 7532   0.170   2.417  10.655
 2382SOL    HW2 7533   0.072   2.492  10.763
 2383SOL     OW 7534   0.561   2.084  10.457
 2383SOL    HW1 7535   0.599   2.000  10.494
 2383SOL    HW2 7536   0.473   2.103  10.501
 2384SOL     OW 7537   0.866   2.316   9.952
 2384SOL    HW1 7538   0.834   2.388   9.890
 2384SOL    HW2 7539   0.890   2.235   9.899
 2385SOL     OW 7540   1.017   1.901  10.063
 2385SOL    HW1 7541   0.945   1.906   9.994
 2385SOL    HW2 7542   0.993   1.832  10.132
 2386SOL     OW 7543   1.429   3.035  10.177
 2386SOL    HW1 7544   1.374   2.951  10.170
 2386SOL    HW2 7545   1.455   3.064  10.085
 2387SOL     OW 7546   1.466   2.452  10.302
 2387SOL    HW1 7547   1.436   2.357  10.309
 2387SOL    HW2 7548   1.539   2.468  10.368
 2388SOL     OW 7549   1.857   2.695   9.687
 2388SOL    HW1 7550   1.899   2.631   9.751
 2388SOL    HW2 7551   1.819   2.644   9.609
 2389SOL     OW 7552   0.488   3.247   9.484
 2389SOL    HW1 7553   0.401   3.232   9.531
 2389SOL    HW2 7554   0.471   3.273   9.389
 2390SOL     OW 7555   1.664   3.142   9.967
 2390SOL    HW1 7556   1.763   3.150   9.981
 2390SOL    HW2 7557   1.619   3.226   9.998
 2391SOL     OW 7558   1.390   2.437   9.388
 2391SOL    HW1 7559   1.336   2.416   9.469
 2391SOL    HW2 7560   1.481   2.396   9.397
 2392SOL     OW 7561   0.527   2.118   9.638
 2392SOL    HW1 7562   0.554   2.059   9.563
 2392SOL    HW2 7563   0.527   2.213   9.607
 2393SOL     OW 7564   1.754   3.085  10.898
 2393SOL    HW1 7565   1.845   3.046  10.885
 2393SOL    HW2 7566   1.762   3.181  10.922
 2394SOL     OW 7567   1.064   3.209  10.650
 2394SOL    HW1 7568   0.984   3.186  10.705
 2394SOL    HW2 7569   1.147   3.183  10.699
 2395SOL     OW 7570   1.111   3.057  10.410
 2395SOL    HW1 7571   1.071   3.101  10.491
 2395SOL    HW2 7572   1.070   3.094  10.327
 2396SOL     OW 7573   1.638   2.961  10.389
 2396SOL    HW1 7574   1.643   3.042  10.448
 2396SOL    HW2 7575   1.552   2.963  10.338
 2397SOL     OW 7576   0.915   1.951  10.712
 2397SOL    HW1 7577   0.940   1.931  10.617
 2397SOL    HW2 7578   0.987   2.007  10.754
 2398SOL     OW 7579   0.705   2.912   9.678
 2398SOL    HW1 7580   0.691   2.919   9.777
 2398SOL    HW2 7581   0.789   2.861   9.660
 2399SOL     OW 7582   0.410   2.675  10.561
 2399SOL    HW1 7583   0.496   2.687  10.611
 2399SOL    HW2 7584   0.368   2.588  10.588
 2400SOL     OW 7585   1.274   2.248  10.572
 2400SOL    HW1 7586   1.295   2.322  10.636
 2400SOL    HW2 7587   1.185   2.265  10.529
 2401SOL     OW 7588   0.064   3.426  10.641
 2401SOL    HW1 7589   0.018   3.508  10.607
 2401SOL    HW2 7590   0.162   3.445  10.650
 2402SOL     OW 7591   0.367   2.962   9.811
 2402SOL    HW1 7592   0.360   3.045   9.755
 2402SOL    HW2 7593   0.371   2.882   9.751
 2403SOL     OW 7594   0.566   2.399  10.175
 2403SOL    HW1 7595   0.578   2.465  10.101
 2403SOL    HW2 7596   0.612   2.433  10.258
 2404SOL     OW 7597   1.252   3.210   9.698
 2404SOL    HW1 7598   1.302   3.287   9.738
 2404SOL    HW2 7599   1.157   3.212   9.730
 2405SOL     OW 7600   1.272   3.307  10.452
 2405SOL    HW1 7601   1.319   3.320  10.539
 2405SOL    HW2 7602   1.206   3.233  10.461
 2406SOL     OW 7603   1.582   2.501   9.782
 2406SOL    HW1 7604   1.551   2.562   9.855
 2406SOL    HW2 7605   1.632   2.553   9.713
 2407SOL     OW 7606   0.354   3.372  10.639
 2407SOL    HW1 7607   0.333   3.328  10.552
 2407SOL    HW2 7608   0.451   3.398  10.642
 2408SOL     OW 7609   0.402   2.613  10.908
 2408SOL    HW1 7610   0.470   2.668  10.861
 2408SOL    HW2 7611   0.442   2.525  10.935
 2409SOL     OW 7612   1.587   2.641  10.980
 2409SOL    HW1 7613   1.495   2.679  10.975
 2409SOL    HW2 7614   1.647   2.688  10.915
 2410SOL     OW 7615   0.573   2.732  10.339
 2410SOL    HW1 7616   0.617   2.821  10.330
 2410SOL    HW2 7617   0.510   2.732  10.416
 2411SOL     OW 7618   1.360   2.724  10.355
 2411SOL    HW1 7619   1.285   2.724  10.289
 2411SOL    HW2 7620   1.397   2.632  10.364
 2412SOL     OW 7621   1.209   2.387   9.585
 2412SOL    HW1 7622   1.222   2.303   9.639
 2412SOL    HW2 7623   1.180   2.461   9.645
 2413SOL     OW 7624   0.307   2.075  10.541
 2413SOL    HW1 7625   0.284   2.112  10.631
 2413SOL    HW2 7626   0.277   1.980  10.535
 2414SOL     OW 7627   0.037   3.172  10.592
 2414SOL    HW1 7628   0.090   3.123  10.660
 2414SOL    HW2 7629   0.059   3.270  10.597
 2415SOL     OW 7630   0.732   2.496  10.374
 2415SOL    HW1 7631   0.791   2.470  10.298
 2415SOL    HW2 7632   0.704   2.592  10.363
 2416SOL     OW 7633   0.307   1.925   9.928
 2416SOL    HW1 7634   0.296   2.019   9.961
 2416SOL    HW2 7635   0.302   1.862  10.005
 2417SOL     OW 7636   1.622   2.229   9.684
 2417SOL    HW1 7637   1.624   2.153   9.748
 2417SOL    HW2 7638   1.574   2.306   9.724
 2418SOL     OW 7639   1.023   2.628  10.276
 2418SOL    HW1 7640   1.038   2.649  10.372
 2418SOL    HW2 7641   0.993   2.533  10.267
 2419SOL     OW 7642   0.980   3.435  11.010
 2419SOL    HW1 7643   0.960   3.479  10.922
 2419SOL    HW2 7644   1.019   3.344  10.994
 2420SOL     OW 7645   1.859   3.380  10.915
 2420SOL    HW1 7646   1.873   3.407  10.820
 2420SOL    HW2 7647   1.942   3.402  10.968
 2421SOL     OW 7648   0.350   2.760  11.114
 2421SOL    HW1 7649   0.426   2.804  11.162
 2421SOL    HW2 7650   0.385   2.713  11.032
 2422SOL     OW 7651   1.540   2.136   9.435
 2422SOL    HW1 7652   1.479   2.061   9.458
 2422SOL    HW2 7653   1.562   2.188   9.518
 2423SOL     OW 7654   1.303   2.700   9.352
 2423SOL    HW1 7655   1.337   2.607   9.367
 2423SOL    HW2 7656   1.321   2.727   9.257
 2424SOL     OW 7657   1.068   3.195  10.159
 2424SOL    HW1 7658   1.075   3.111  10.104
 2424SOL    HW2 7659   1.130   3.264  10.123
 2425SOL     OW 7660   0.319   2.672  10.259
 2425SOL    HW1 7661   0.412   2.708  10.264
 2425SOL    HW2 7662   0.313   2.587  10.311
 2426SOL     OW 7663   0.339   2.371  10.316
 2426SOL    HW1 7664   0.287   2.288  10.299
 2426SOL    HW2 7665   0.416   2.376  10.252
 2427SOL     OW 7666   1.160   2.069  10.787
 2427SOL    HW1 7667   1.160   2.133  10.864
 2427SOL    HW2 7668   1.188   2.117  10.704
 2428SOL     OW 7669   0.008   3.188   9.510
 2428SOL    HW1 7670  -0.085   3.209   9.479
 2428SOL    HW2 7671   0.018   3.089   9.523
 2429SOL     OW 7672   0.088   3.663  10.237
 2429SOL    HW1 7673   0.046   3.577  10.210
 2429SOL    HW2 7674   0.182   3.666  10.203
 2430SOL     OW 7675   0.504   3.430  10.220
 2430SOL    HW1 7676   0.570   3.504  10.229
 2430SOL    HW2 7677   0.548   3.351  10.178
 2431SOL     OW 7678   1.002   2.658  10.548
 2431SOL    HW1 7679   1.043   2.626  10.634
 2431SOL    HW2 7680   0.906   2.631  10.545
 2432SOL     OW 7681   0.040   2.406  10.424
 2432SOL    HW1 7682   0.125   2.373  10.383
 2432SOL    HW2 7683   0.053   2.421  10.522
 2433SOL     OW 7684   0.815   2.434   9.635
 2433SOL    HW1 7685   0.822   2.345   9.589
 2433SOL    HW2 7686   0.721   2.468   9.627
 2434SOL     OW 7687   1.657   2.466  10.516
 2434SOL    HW1 7688   1.619   2.397  10.578
 2434SOL    HW2 7689   1.739   2.430  10.472
 2435SOL     OW 7690   0.252   3.426  11.054
 2435SOL    HW1 7691   0.222   3.483  11.130
 2435SOL    HW2 7692   0.245   3.329  11.080
 2436SOL     OW 7693   0.671   2.326  10.579
 2436SOL    HW1 7694   0.637   2.237  10.549
 2436SOL    HW2 7695   0.697   2.380  10.499
 2437SOL     OW 7696   0.930   3.540  10.775
 2437SOL    HW1 7697   0.906   3.522  10.680
 2437SOL    HW2 7698   0.960   3.634  10.785
 2438SOL     OW 7699   0.473   2.362   9.501
 2438SOL    HW1 7700   0.534   2.442   9.505
 2438SOL    HW2 7701   0.378   2.393   9.508
 2439SOL     OW 7702   0.159   2.999  10.776
 2439SOL    HW1 7703   0.181   2.938  10.852
 2439SOL    HW2 7704   0.169   2.950  10.690
 2440SOL     OW 7705   1.347   2.921  10.544
 2440SOL    HW1 7706   1.371   2.858  10.470
 2440SOL    HW2 7707   1.257   2.961  10.526
 2441SOL     OW 7708   1.302   2.717   9.619
 2441SOL    HW1 7709   1.216   2.686   9.661
 2441SOL    HW2 7710   1.298   2.703   9.520
 2442SOL     OW 7711   1.759   3.609  10.464
 2442SOL    HW1 7712   1.820   3.639  10.391
 2442SOL    HW2 7713   1.721   3.520  10.442
 2443SOL     OW 7714   1.252   3.593  10.438
 2443SOL    HW1 7715   1.336   3.598  10.384
 2443SOL    HW2 7716   1.229   3.497  10.456
 2444SOL     OW 7717   0.083   3.120  10.332
 2444SOL    HW1 7718   0.078   3.119  10.432
 2444SOL    HW2 7719   0.000   3.079  10.294
 2445SOL     OW 7720   1.726   1.997   9.833
 2445SOL    HW1 7721   1.799   1.980   9.766
 2445SOL    HW2 7722   1.695   1.910   9.871
 2446SOL     OW 7723   1.388   3.435   9.787
 2446SOL    HW1 7724   1.455   3.447   9.713
 2446SOL    HW2 7725   1.348   3.524   9.810
 2447SOL     OW 7726   1.280   2.789   9.982
 2447SOL    HW1 7727   1.340   2.708   9.984
 2447SOL    HW2 7728   1.320   2.858   9.922
 2448SOL     OW 7729   0.830   3.135  10.732
 2448SOL    HW1 7730   0.825   3.168  10.827
 2448SOL    HW2 7731   0.744   3.154  10.686
 2449SOL     OW 7732   0.672   3.478   9.464
 2449SOL    HW1 7733   0.681   3.488   9.365
 2449SOL    HW2 7734   0.632   3.389   9.485
 2450SOL     OW 7735   1.650   3.582  10.704
 2450SOL    HW1 7736   1.703   3.592  10.620
 2450SOL    HW2 7737   1.623   3.672  10.738
 2451SOL     OW 7738   1.841   2.037  10.273
 2451SOL    HW1 7739   1.880   1.952  10.237
 2451SOL    HW2 7740   1.743   2.039  10.254
 2452SOL     OW 7741   0.263   2.188  10.030
 2452SOL    HW1 7742   0.184   2.239   9.996
 2452SOL    HW2 7743   0.254   2.173  10.128
 2453SOL     OW 7744   1.194   3.474   9.341
 2453SOL    HW1 7745   1.200   3.381   9.378
 2453SOL    HW2 7746   1.135   3.474   9.261
 2454SOL     OW 7747   0.822   2.864  10.682
 2454SOL    HW1 7748   0.862   2.863  10.590
 2454SOL    HW2 7749   0.832   2.956  10.722
 2455SOL     OW 7750   0.916   2.772   9.601
 2455SOL    HW1 7751   0.979   2.810   9.533
 2455SOL    HW2 7752   0.956   2.689   9.640
 2456SOL     OW 7753   1.504   3.469   9.354
 2456SOL    HW1 7754   1.412   3.506   9.361
 2456SOL    HW2 7755   1.542   3.489   9.264
 2457SOL     OW 7756   0.372   3.150  10.800
 2457SOL    HW1 7757   0.359   3.243  10.766
 2457SOL    HW2 7758   0.288   3.098  10.787
 2458SOL     OW 7759   1.614   3.154  10.599
 2458SOL    HW1 7760   1.674   3.157  10.679
 2458SOL    HW2 7761   1.539   3.218  10.612
 2459SOL     OW 7762   1.039   2.960  10.006
 2459SOL    HW1 7763   0.969   2.913  10.060
 2459SOL    HW2 7764   1.098   2.892   9.963
 2460SOL     OW 7765   1.014   2.098  10.281
 2460SOL    HW1 7766   1.006   2.062  10.188
 2460SOL    HW2 7767   1.012   2.022  10.346
 2461SOL     OW 7768   0.590   3.349   9.801
 2461SOL    HW1 7769   0.632   3.291   9.731
 2461SOL    HW2 7770   0.546   3.428   9.757
 2462SOL     OW 7771   1.709   2.247  10.691
 2462SOL    HW1 7772   1.782   2.316  10.695
 2462SOL    HW2 7773   1.737   2.172  10.632
 2463SOL     OW 7774   0.255   3.210   9.600
 2463SOL    HW1 7775   0.159   3.211   9.573
 2463SOL    HW2 7776   0.267   3.263   9.684
 2464SOL     OW 7777   0.105   2.875  11.036
 2464SOL    HW1 7778   0.028   2.842  11.090
 2464SOL    HW2 7779   0.190   2.845  11.078
 2465SOL     OW 7780   0.672   2.065  10.799
 2465SOL    HW1 7781   0.762   2.049  10.759
 2465SOL    HW2 7782   0.680   2.070  10.898
 2466SOL     OW 7783   0.075   2.207   9.343
 2466SOL    HW1 7784  -0.017   2.179   9.314
 2466SOL    HW2 7785   0.106   2.284   9.287
 2467SOL     OW 7786   1.440   2.718  10.708
 2467SOL    HW1 7787   1.383   2.770  10.645
 2467SOL    HW2 7788   1.536   2.730  10.684
 2468SOL     OW 7789   0.072   2.028   9.628
 2468SOL    HW1 7790   0.055   2.111   9.574
 2468SOL    HW2 7791   0.162   1.991   9.606
 2469SOL     OW 7792   1.183   3.197   9.429
 2469SOL    HW1 7793   1.084   3.186   9.431
 2469SOL    HW2 7794   1.217   3.212   9.522
 2470SOL     OW 7795   0.613   2.704  10.741
 2470SOL    HW1 7796   0.669   2.785  10.724
 2470SOL    HW2 7797   0.672   2.624  10.744
 2471SOL     OW 7798   1.493   3.629  10.269
 2471SOL    HW1 7799   1.526   3.693  10.200
 2471SOL    HW2 7800   1.559   3.623  10.344
 2472SOL     OW 7801   0.716   2.427  11.018
 2472SOL    HW1 7802   0.735   2.492  11.092
 2472SOL    HW2 7803   0.776   2.347  11.027
 2473SOL     OW 7804   0.390   3.603  10.870
 2473SOL    HW1 7805   0.299   3.644  10.868
 2473SOL    HW2 7806   0.383   3.509  10.902
 2474SOL     OW 7807   1.674   2.745  10.564
 2474SOL    HW1 7808   1.647   2.656  10.527
 2474SOL    HW2 7809   1.675   2.813  10.491
 2475SOL     OW 7810   1.225   2.187   9.759
 2475SOL    HW1 7811   1.290   2.113   9.748
 2475SOL    HW2 7812   1.245   2.237   9.843
 2476SOL     OW 7813   0.594   2.607   9.962
 2476SOL    HW1 7814   0.644   2.692   9.943
 2476SOL    HW2 7815   0.506   2.609   9.914
 2477SOL     OW 7816   1.777   2.204  10.952
 2477SOL    HW1 7817   1.760   2.235  10.858
 2477SOL    HW2 7818   1.693   2.167  10.990
 2478SOL     OW 7819   1.730   2.796  10.827
 2478SOL    HW1 7820   1.768   2.887  10.842
 2478SOL    HW2 7821   1.722   2.779  10.728
 2479SOL     OW 7822   0.859   3.236   9.326
 2479SOL    HW1 7823   0.813   3.251   9.414
 2479SOL    HW2 7824   0.903   3.321   9.296
 2480SOL     OW 7825   0.661   3.652  10.263
 2480SOL    HW1 7826   0.615   3.740  10.250
 2480SOL    HW2 7827   0.760   3.664  10.256
 2481SOL     OW 7828   0.859   2.818  10.171
 2481SOL    HW1 7829   0.913   2.749  10.219
 2481SOL    HW2 7830   0.827   2.887  10.237
 2482SOL     OW 7831   1.083   2.846   9.397
 2482SOL    HW1 7832   1.060   2.899   9.315
 2482SOL    HW2 7833   1.164   2.790   9.378
 2483SOL     OW 7834   1.861   3.431  10.161
 2483SOL    HW1 7835   1.790   3.419  10.091
 2483SOL    HW2 7836   1.862   3.352  10.221
 2484SOL     OW 7837   0.079   3.102   9.963
 2484SOL    HW1 7838   0.078   3.055  10.051
 2484SOL    HW2 7839   0.161   3.074   9.912
 2485SOL     OW 7840   0.672   3.253  10.934
 2485SOL    HW1 7841   0.594   3.203  10.972
 2485SOL    HW2 7842   0.669   3.348  10.965
 2486SOL     OW 7843   1.824   2.054  10.537
 2486SOL    HW1 7844   1.820   1.964  10.581
 2486SOL    HW2 7845   1.827   2.043  10.438
 2487SOL     OW 7846   0.428   2.286   9.830
 2487SOL    HW1 7847   0.458   2.214   9.768
 2487SOL    HW2 7848   0.389   2.246   9.913
 2488SOL     OW 7849   1.705   3.349  10.414
 2488SOL    HW1 7850   1.612   3.324  10.387
 2488SOL    HW2 7851   1.731   3.299  10.496
 2489SOL     OW 7852   0.317   2.409  10.590
 2489SOL    HW1 7853   0.355   2.350  10.662
 2489SOL    HW2 7854   0.357   2.383  10.502
 2490SOL     OW 7855   0.812   3.448   9.997
 2490SOL    HW1 7856   0.844   3.458   9.903
 2490SOL    HW2 7857   0.733   3.386   9.999
 2491SOL     OW 7858   1.424   2.076  10.422
 2491SOL    HW1 7859   1.476   2.011  10.477
 2491SOL    HW2 7860   1.375   2.139  10.483
 2492SOL     OW 7861   1.001   1.896  10.464
 2492SOL    HW1 7862   0.938   1.824  10.433
 2492SOL    HW2 7863   1.094   1.860  10.464
 2493SOL     OW 7864   0.770   3.192   9.611
 2493SOL    HW1 7865   0.724   3.105   9.628
 2493SOL    HW2 7866   0.861   3.189   9.652
 2494SOL     OW 7867   0.618   3.429  10.594
 2494SOL    HW1 7868   0.613   3.511  10.651
 2494SOL    HW2 7869   0.707   3.426  10.549
 2495SOL     OW 7870   1.352   1.914   9.478
 2495SOL    HW1 7871   1.387   1.873   9.394
 2495SOL    HW2 7872   1.262   1.876   9.498
 2496SOL     OW 7873   1.300   2.315  10.001
 2496SOL    HW1 7874   1.241   2.395  10.005
 2496SOL    HW2 7875   1.315   2.280  10.094
 2497SOL     OW 7876   1.593   2.083  10.192
 2497SOL    HW1 7877   1.509   2.082  10.246
 2497SOL    HW2 7878   1.595   2.166  10.136
 2498SOL     OW 7879   0.039   2.939   9.610
 2498SOL    HW1 7880   0.138   2.928   9.601
 2498SOL    HW2 7881  -0.001   2.853   9.642
 2499SOL     OW 7882   0.875   3.508   9.647
 2499SOL    HW1 7883   0.798   3.473   9.593
 2499SOL    HW2 7884   0.843   3.579   9.709
 2500SOL     OW 7885   0.230   4.352   0.113
 2500SOL    HW1 7886   0.137   4.350   0.150
 2500SOL    HW2 7887   0.231   4.313   0.021
 2501SOL     OW 7888   0.225   3.999   0.996
 2501SOL    HW1 7889   0.260   3.982   1.088
 2501SOL    HW2 7890   0.137   3.954   0.984
 2502SOL     OW 7891   0.019   4.092   0.647
 2502SOL    HW1 7892  -0.063   4.135   0.686
 2502SOL    HW2 7893  -0.009   4.019   0.584
 2503SOL     OW 7894   1.755   4.331   0.231
 2503SOL    HW1 7895   1.743   4.318   0.132
 2503SOL    HW2 7896   1.725   4.250   0.280
 2504SOL     OW 7897   0.685   4.736   0.665
 2504SOL    HW1 7898   0.754   4.720   0.735
 2504SOL    HW2 7899   0.612   4.793   0.703
 2505SOL     OW 7900   0.438   4.116   1.499
 2505SOL    HW1 7901   0.520   4.060   1.508
 2505SOL    HW2 7902   0.357   4.058   1.503
 2506SOL     OW 7903   1.603   4.171   0.737
 2506SOL    HW1 7904   1.529   4.217   0.687
 2506SOL    HW2 7905   1.654   4.239   0.790
 2507SOL     OW 7906   1.594   3.838   1.480
 2507SOL    HW1 7907   1.576   3.905   1.408
 2507SOL    HW2 7908   1.591   3.884   1.569
 2508SOL     OW 7909   0.122   4.367   0.563
 2508SOL    HW1 7910   0.077   4.279   0.580
 2508SOL    HW2 7911   0.121   4.421   0.647
 2509SOL     OW 7912   0.113   4.461   1.597
 2509SOL    HW1 7913   0.201   4.448   1.642
 2509SOL    HW2 7914   0.100   4.558   1.575
 2510SOL     OW 7915   0.809   3.728   0.502
 2510SOL    HW1 7916   0.849   3.819   0.493
 2510SOL    HW2 7917   0.709   3.736   0.508
 2511SOL     OW 7918   0.317   3.975   1.801
 2511SOL    HW1 7919   0.388   4.046   1.807
 2511SOL    HW2 7920   0.229   4.014   1.829
 2512SOL     OW 7921   1.281   4.069   0.944
 2512SOL    HW1 7922   1.195   4.019   0.931
 2512SOL    HW2 7923   1.343   4.015   1.000
 2513SOL     OW 7924   0.807   4.329   1.465
 2513SOL    HW1 7925   0.760   4.326   1.554
 2513SOL    HW2 7926   0.756   4.274   1.399
 2514SOL     OW 7927   1.394   4.193   1.674
 2514SOL    HW1 7928   1.374   4.236   1.762
 2514SOL    HW2 7929   1.472   4.131   1.683
 2515SOL     OW 7930   0.991   4.134   1.242
 2515SOL    HW1 7931   0.914   4.168   1.296
 2515SOL    HW2 7932   0.957   4.083   1.163
 2516SOL     OW 7933   1.041   4.425   0.429
 2516SOL    HW1 7934   1.067   4.421   0.525
 2516SOL    HW2 7935   0.956   4.374   0.415
 2517SOL     OW 7936   0.076   4.535   0.789
 2517SOL    HW1 7937   0.175   4.523   0.798
 2517SOL    HW2 7938   0.052   4.630   0.810
 2518SOL     OW 7939   0.865   4.072   0.195
 2518SOL    HW1 7940   0.924   4.135   0.146
 2518SOL    HW2 7941   0.884   3.978   0.166
 2519SOL     OW 7942   1.719   4.309   1.831
 2519SOL    HW1 7943   1.693   4.398   1.795
 2519SOL    HW2 7944   1.717   4.241   1.758
 2520SOL     OW 7945   0.550   3.920   0.885
 2520SOL    HW1 7946   0.545   3.915   0.985
 2520SOL    HW2 7947   0.552   4.016   0.856
 2521SOL     OW 7948   1.458   4.459   0.728
 2521SOL    HW1 7949   1.453   4.394   0.803
 2521SOL    HW2 7950   1.538   4.518   0.741
 2522SOL     OW 7951   0.202   4.009   1.498
 2522SOL    HW1 7952   0.122   4.069   1.485
 2522SOL    HW2 7953   0.192   3.960   1.584
 2523SOL     OW 7954   1.400   3.831   0.426
 2523SOL    HW1 7955   1.376   3.794   0.336
 2523SOL    HW2 7956   1.499   3.847   0.430
 2524SOL     OW 7957   0.382   4.424   0.480
 2524SOL    HW1 7958   0.427   4.334   0.477
 2524SOL    HW2 7959   0.288   4.413   0.513
 2525SOL     OW 7960   1.547   3.946   1.729
 2525SOL    HW1 7961   1.542   3.983   1.821
 2525SOL    HW2 7962   1.475   3.877   1.717
 2526SOL     OW 7963   0.614   3.846   0.117
 2526SOL    HW1 7964   0.712   3.824   0.124
 2526SOL    HW2 7965   0.583   3.829   0.024
 2527SOL     OW 7966   0.781   3.988   1.749
 2527SOL    HW1 7967   0.848   3.927   1.792
 2527SOL    HW2 7968   0.708   4.007   1.814
 2528SOL     OW 7969   1.351   4.314   1.433
 2528SOL    HW1 7970   1.379   4.271   1.518
 2528SOL    HW2 7971   1.376   4.410   1.434
 2529SOL     OW 7972   0.922   4.227   0.899
 2529SOL    HW1 7973   0.897   4.218   0.803
 2529SOL    HW2 7974   0.970   4.145   0.930
 2530SOL     OW 7975   0.539   3.788   0.512
 2530SOL    HW1 7976   0.458   3.789   0.570
 2530SOL    HW2 7977   0.542   3.871   0.457
 2531SOL     OW 7978   0.297   3.759   0.171
 2531SOL    HW1 7979   0.346   3.843   0.150
 2531SOL    HW2 7980   0.359   3.694   0.216
 2532SOL     OW 7981   0.935   3.960   0.480
 2532SOL    HW1 7982   0.887   4.001   0.402
 2532SOL    HW2 7983   1.034   3.958   0.461
 2533SOL     OW 7984   1.076   4.407   1.464
 2533SOL    HW1 7985   0.996   4.346   1.467
 2533SOL    HW2 7986   1.157   4.354   1.440
 2534SOL     OW 7987   1.032   4.273   0.016
 2534SOL    HW1 7988   0.991   4.355  -0.023
 2534SOL    HW2 7989   1.096   4.299   0.089
 2535SOL     OW 7990   0.078   4.280   1.386
 2535SOL    HW1 7991   0.170   4.279   1.345
 2535SOL    HW2 7992   0.072   4.354   1.453
 2536SOL     OW 7993   0.561   3.946   1.147
 2536SOL    HW1 7994   0.599   3.862   1.184
 2536SOL    HW2 7995   0.473   3.965   1.191
 2537SOL     OW 7996   0.866   4.178   0.642
 2537SOL    HW1 7997   0.834   4.250   0.580
 2537SOL    HW2 7998   0.890   4.097   0.589
 2538SOL     OW 7999   1.017   3.763   0.753
 2538SOL    HW1 8000   0.945   3.768   0.684
 2538SOL    HW2 8001   0.993   3.694   0.822
 2539SOL     OW 8002   1.466   4.314   0.992
 2539SOL    HW1 8003   1.436   4.219   0.999
 2539SOL    HW2 8004   1.539   4.330   1.058
 2540SOL     OW 8005   1.390   4.299   0.078
 2540SOL    HW1 8006   1.336   4.278   0.159
 2540SOL    HW2 8007   1.481   4.258   0.087
 2541SOL     OW 8008   0.527   3.980   0.328
 2541SOL    HW1 8009   0.554   3.921   0.253
 2541SOL    HW2 8010   0.527   4.075   0.297
 2542SOL     OW 8011   0.915   3.813   1.402
 2542SOL    HW1 8012   0.940   3.793   1.307
 2542SOL    HW2 8013   0.987   3.869   1.444
 2543SOL     OW 8014   0.410   4.537   1.251
 2543SOL    HW1 8015   0.496   4.549   1.301
 2543SOL    HW2 8016   0.368   4.450   1.278
 2544SOL     OW 8017   1.274   4.110   1.262
 2544SOL    HW1 8018   1.295   4.184   1.326
 2544SOL    HW2 8019   1.185   4.127   1.219
 2545SOL     OW 8020   0.566   4.261   0.865
 2545SOL    HW1 8021   0.578   4.327   0.791
 2545SOL    HW2 8022   0.612   4.295   0.948
 2546SOL     OW 8023   1.582   4.363   0.472
 2546SOL    HW1 8024   1.551   4.424   0.545
 2546SOL    HW2 8025   1.632   4.415   0.403
 2547SOL     OW 8026   1.013   3.829   1.770
 2547SOL    HW1 8027   1.019   3.914   1.718
 2547SOL    HW2 8028   1.045   3.753   1.713
 2548SOL     OW 8029   0.504   3.774   1.740
 2548SOL    HW1 8030   0.462   3.717   1.670
 2548SOL    HW2 8031   0.438   3.843   1.772
 2549SOL     OW 8032   1.209   4.249   0.275
 2549SOL    HW1 8033   1.222   4.165   0.329
 2549SOL    HW2 8034   1.180   4.323   0.335
 2550SOL     OW 8035   0.307   3.937   1.231
 2550SOL    HW1 8036   0.284   3.974   1.321
 2550SOL    HW2 8037   0.277   3.842   1.225
 2551SOL     OW 8038   0.732   4.358   1.064
 2551SOL    HW1 8039   0.791   4.332   0.988
 2551SOL    HW2 8040   0.704   4.454   1.053
 2552SOL     OW 8041   1.728   4.659   1.854
 2552SOL    HW1 8042   1.682   4.652   1.765
 2552SOL    HW2 8043   1.666   4.703   1.920
 2553SOL     OW 8044   0.307   3.787   0.618
 2553SOL    HW1 8045   0.296   3.881   0.651
 2553SOL    HW2 8046   0.302   3.724   0.695
 2554SOL     OW 8047   1.622   4.091   0.374
 2554SOL    HW1 8048   1.624   4.015   0.438
 2554SOL    HW2 8049   1.574   4.168   0.414
 2555SOL     OW 8050   1.540   3.998   0.125
 2555SOL    HW1 8051   1.479   3.923   0.148
 2555SOL    HW2 8052   1.562   4.050   0.208
 2556SOL     OW 8053   0.319   4.534   0.949
 2556SOL    HW1 8054   0.412   4.570   0.954
 2556SOL    HW2 8055   0.313   4.449   1.001
 2557SOL     OW 8056   0.339   4.233   1.006
 2557SOL    HW1 8057   0.287   4.150   0.989
 2557SOL    HW2 8058   0.416   4.238   0.942
 2558SOL     OW 8059   1.138   4.104   1.678
 2558SOL    HW1 8060   1.093   4.167   1.742
 2558SOL    HW2 8061   1.231   4.135   1.661
 2559SOL     OW 8062   1.160   3.931   1.477
 2559SOL    HW1 8063   1.160   3.995   1.554
 2559SOL    HW2 8064   1.188   3.979   1.394
 2560SOL     OW 8065   0.040   4.268   1.114
 2560SOL    HW1 8066   0.125   4.235   1.073
 2560SOL    HW2 8067   0.053   4.283   1.212
 2561SOL     OW 8068   0.189   4.244   1.722
 2561SOL    HW1 8069   0.248   4.204   1.652
 2561SOL    HW2 8070   0.131   4.315   1.681
 2562SOL     OW 8071   0.815   4.296   0.325
 2562SOL    HW1 8072   0.822   4.207   0.279
 2562SOL    HW2 8073   0.721   4.330   0.317
 2563SOL     OW 8074   1.657   4.328   1.206
 2563SOL    HW1 8075   1.619   4.259   1.268
 2563SOL    HW2 8076   1.739   4.292   1.162
 2564SOL     OW 8077   0.671   4.188   1.269
 2564SOL    HW1 8078   0.637   4.099   1.239
 2564SOL    HW2 8079   0.697   4.242   1.189
 2565SOL     OW 8080   0.473   4.224   0.191
 2565SOL    HW1 8081   0.534   4.304   0.195
 2565SOL    HW2 8082   0.378   4.255   0.198
 2566SOL     OW 8083   0.903   3.810   0.133
 2566SOL    HW1 8084   0.954   3.811   0.047
 2566SOL    HW2 8085   0.959   3.768   0.204
 2567SOL     OW 8086   1.726   3.859   0.523
 2567SOL    HW1 8087   1.799   3.842   0.456
 2567SOL    HW2 8088   1.695   3.772   0.561
 2568SOL     OW 8089   1.280   4.651   0.672
 2568SOL    HW1 8090   1.340   4.570   0.674
 2568SOL    HW2 8091   1.320   4.720   0.612
 2569SOL     OW 8092   1.841   3.899   0.963
 2569SOL    HW1 8093   1.880   3.814   0.927
 2569SOL    HW2 8094   1.743   3.901   0.944
 2570SOL     OW 8095   0.263   4.050   0.720
 2570SOL    HW1 8096   0.184   4.101   0.686
 2570SOL    HW2 8097   0.254   4.035   0.818
 2571SOL     OW 8098   1.039   4.822   0.696
 2571SOL    HW1 8099   0.969   4.775   0.750
 2571SOL    HW2 8100   1.098   4.754   0.653
 2572SOL     OW 8101   1.014   3.960   0.971
 2572SOL    HW1 8102   1.006   3.924   0.878
 2572SOL    HW2 8103   1.012   3.884   1.036
 2573SOL     OW 8104   1.709   4.109   1.381
 2573SOL    HW1 8105   1.782   4.178   1.385
 2573SOL    HW2 8106   1.737   4.034   1.322
 2574SOL     OW 8107   0.672   3.927   1.489
 2574SOL    HW1 8108   0.762   3.911   1.449
 2574SOL    HW2 8109   0.680   3.932   1.588
 2575SOL     OW 8110   0.075   4.069   0.033
 2575SOL    HW1 8111  -0.017   4.041   0.004
 2575SOL    HW2 8112   0.106   4.146  -0.023
 2576SOL     OW 8113   0.072   3.890   0.318
 2576SOL    HW1 8114   0.055   3.973   0.264
 2576SOL    HW2 8115   0.162   3.853   0.296
 2577SOL     OW 8116   0.716   4.289   1.708
 2577SOL    HW1 8117   0.735   4.354   1.782
 2577SOL    HW2 8118   0.776   4.209   1.717
 2578SOL     OW 8119   1.225   4.049   0.449
 2578SOL    HW1 8120   1.290   3.975   0.438
 2578SOL    HW2 8121   1.245   4.099   0.533
 2579SOL     OW 8122   1.777   4.066   1.642
 2579SOL    HW1 8123   1.760   4.097   1.548
 2579SOL    HW2 8124   1.693   4.029   1.680
 2580SOL     OW 8125   1.083   4.708   0.087
 2580SOL    HW1 8126   1.060   4.761   0.005
 2580SOL    HW2 8127   1.164   4.652   0.068
 2581SOL     OW 8128   1.824   3.916   1.227
 2581SOL    HW1 8129   1.820   3.826   1.271
 2581SOL    HW2 8130   1.827   3.905   1.128
 2582SOL     OW 8131   0.428   4.148   0.520
 2582SOL    HW1 8132   0.458   4.076   0.458
 2582SOL    HW2 8133   0.389   4.108   0.603
 2583SOL     OW 8134   0.317   4.271   1.280
 2583SOL    HW1 8135   0.355   4.212   1.352
 2583SOL    HW2 8136   0.357   4.245   1.192
 2584SOL     OW 8137   1.424   3.938   1.112
 2584SOL    HW1 8138   1.476   3.873   1.167
 2584SOL    HW2 8139   1.375   4.001   1.173
 2585SOL     OW 8140   1.001   3.758   1.154
 2585SOL    HW1 8141   0.938   3.686   1.123
 2585SOL    HW2 8142   1.094   3.722   1.154
 2586SOL     OW 8143   1.352   3.776   0.168
 2586SOL    HW1 8144   1.387   3.735   0.084
 2586SOL    HW2 8145   1.262   3.738   0.188
 2587SOL     OW 8146   1.300   4.177   0.691
 2587SOL    HW1 8147   1.241   4.257   0.695
 2587SOL    HW2 8148   1.315   4.142   0.784
 2588SOL     OW 8149   1.593   3.945   0.882
 2588SOL    HW1 8150   1.509   3.944   0.936
 2588SOL    HW2 8151   1.595   4.028   0.826
 2589SOL     OW 8152   0.230   4.352   1.975
 2589SOL    HW1 8153   0.137   4.350   2.012
 2589SOL    HW2 8154   0.231   4.313   1.883
 2590SOL     OW 8155   0.225   3.999   2.858
 2590SOL    HW1 8156   0.260   3.982   2.950
 2590SOL    HW2 8157   0.137   3.954   2.846
 2591SOL     OW 8158   0.019   4.092   2.509
 2591SOL    HW1 8159  -0.063   4.135   2.548
 2591SOL    HW2 8160  -0.009   4.019   2.446
 2592SOL     OW 8161   1.755   4.331   2.093
 2592SOL    HW1 8162   1.743   4.318   1.994
 2592SOL    HW2 8163   1.725   4.250   2.142
 2593SOL     OW 8164   0.685   4.736   2.527
 2593SOL    HW1 8165   0.754   4.720   2.597
 2593SOL    HW2 8166   0.612   4.793   2.565
 2594SOL     OW 8167   0.438   4.116   3.361
 2594SOL    HW1 8168   0.520   4.060   3.370
 2594SOL    HW2 8169   0.357   4.058   3.365
 2595SOL     OW 8170   1.603   4.171   2.599
 2595SOL    HW1 8171   1.529   4.217   2.549
 2595SOL    HW2 8172   1.654   4.239   2.652
 2596SOL     OW 8173   1.594   3.838   3.342
 2596SOL    HW1 8174   1.576   3.905   3.270
 2596SOL    HW2 8175   1.591   3.884   3.431
 2597SOL     OW 8176   0.122   4.367   2.425
 2597SOL    HW1 8177   0.077   4.279   2.442
 2597SOL    HW2 8178   0.121   4.421   2.509
 2598SOL     OW 8179   0.113   4.461   3.459
 2598SOL    HW1 8180   0.201   4.448   3.504
 2598SOL    HW2 8181   0.100   4.558   3.437
 2599SOL     OW 8182   0.809   3.728   2.364
 2599SOL    HW1 8183   0.849   3.819   2.355
 2599SOL    HW2 8184   0.709   3.736   2.370
 2600SOL     OW 8185   0.317   3.975   3.663
 2600SOL    HW1 8186   0.388   4.046   3.669
 2600SOL    HW2 8187   0.229   4.014   3.691
 2601SOL     OW 8188   1.281   4.069   2.806
 2601SOL    HW1 8189   1.195   4.019   2.793
 2601SOL    HW2 8190   1.343   4.015   2.862
 2602SOL     OW 8191   0.807   4.329   3.327
 2602SOL    HW1 8192   0.760   4.326   3.416
 2602SOL    HW2 8193   0.756   4.274   3.261
 2603SOL     OW 8194   1.394   4.193   3.536
 2603SOL    HW1 8195   1.374   4.236   3.624
 2603SOL    HW2 8196   1.472   4.131   3.545
 2604SOL     OW 8197   0.991   4.134   3.104
 2604SOL    HW1 8198   0.914   4.168   3.158
 2604SOL    HW2 8199   0.957   4.083   3.025
 2605SOL     OW 8200   1.041   4.425   2.291
 2605SOL    HW1 8201   1.067   4.421   2.387
 2605SOL    HW2 8202   0.956   4.374   2.277
 2606SOL     OW 8203   0.076   4.535   2.651
 2606SOL    HW1 8204   0.175   4.523   2.660
 2606SOL    HW2 8205   0.052   4.630   2.672
 2607SOL     OW 8206   0.865   4.072   2.057
 2607SOL    HW1 8207   0.924   4.135   2.008
 2607SOL    HW2 8208   0.884   3.978   2.028
 2608SOL     OW 8209   1.719   4.309   3.693
 2608SOL    HW1 8210   1.693   4.398   3.657
 2608SOL    HW2 8211   1.717   4.241   3.620
 2609SOL     OW 8212   0.550   3.920   2.747
 2609SOL    HW1 8213   0.545   3.915   2.847
 2609SOL    HW2 8214   0.552   4.016   2.718
 2610SOL     OW 8215   1.458   4.459   2.590
 2610SOL    HW1 8216   1.453   4.394   2.665
 2610SOL    HW2 8217   1.538   4.518   2.603
 2611SOL     OW 8218   0.202   4.009   3.360
 2611SOL    HW1 8219   0.122   4.069   3.347
 2611SOL    HW2 8220   0.192   3.960   3.446
 2612SOL     OW 8221   1.400   3.831   2.288
 2612SOL    HW1 8222   1.376   3.794   2.198
 2612SOL    HW2 8223   1.499   3.847   2.292
 2613SOL     OW 8224   0.382   4.424   2.342
 2613SOL    HW1 8225   0.427   4.334   2.339
 2613SOL    HW2 8226   0.288   4.413   2.375
 2614SOL     OW 8227   1.547   3.946   3.591
 2614SOL    HW1 8228   1.542   3.983   3.683
 2614SOL    HW2 8229   1.475   3.877   3.579
 2615SOL     OW 8230   0.614   3.846   1.979
 2615SOL    HW1 8231   0.712   3.824   1.986
 2615SOL    HW2 8232   0.583   3.829   1.886
 2616SOL     OW 8233   0.781   3.988   3.611
 2616SOL    HW1 8234   0.848   3.927   3.654
 2616SOL    HW2 8235   0.708   4.007   3.676
 2617SOL     OW 8236   1.351   4.314   3.295
 2617SOL    HW1 8237   1.379   4.271   3.380
 2617SOL    HW2 8238   1.376   4.410   3.296
 2618SOL     OW 8239   0.922   4.227   2.761
 2618SOL    HW1 8240   0.897   4.218   2.665
 2618SOL    HW2 8241   0.970   4.145   2.792
 2619SOL     OW 8242   0.539   3.788   2.374
 2619SOL    HW1 8243   0.458   3.789   2.432
 2619SOL    HW2 8244   0.542   3.871   2.319
 2620SOL     OW 8245   0.297   3.759   2.033
 2620SOL    HW1 8246   0.346   3.843   2.012
 2620SOL    HW2 8247   0.359   3.694   2.078
 2621SOL     OW 8248   0.935   3.960   2.342
 2621SOL    HW1 8249   0.887   4.001   2.264
 2621SOL    HW2 8250   1.034   3.958   2.323
 2622SOL     OW 8251   1.076   4.407   3.326
 2622SOL    HW1 8252   0.996   4.346   3.329
 2622SOL    HW2 8253   1.157   4.354   3.302
 2623SOL     OW 8254   1.032   4.273   1.878
 2623SOL    HW1 8255   0.991   4.355   1.839
 2623SOL    HW2 8256   1.096   4.299   1.951
 2624SOL     OW 8257   0.078   4.280   3.248
 2624SOL    HW1 8258   0.170   4.279   3.207
 2624SOL    HW2 8259   0.072   4.354   3.315
 2625SOL     OW 8260   0.561   3.946   3.009
 2625SOL    HW1 8261   0.599   3.862   3.046
 2625SOL    HW2 8262   0.473   3.965   3.053
 2626SOL     OW 8263   0.866   4.178   2.504
 2626SOL    HW1 8264   0.834   4.250   2.442
 2626SOL    HW2 8265   0.890   4.097   2.451
 2627SOL     OW 8266   1.017   3.763   2.615
 2627SOL    HW1 8267   0.945   3.768   2.546
 2627SOL    HW2 8268   0.993   3.694   2.684
 2628SOL     OW 8269   1.466   4.314   2.854
 2628SOL    HW1 8270   1.436   4.219   2.861
 2628SOL    HW2 8271   1.539   4.330   2.920
 2629SOL     OW 8272   1.390   4.299   1.940
 2629SOL    HW1 8273   1.336   4.278   2.021
 2629SOL    HW2 8274   1.481   4.258   1.949
 2630SOL     OW 8275   0.527   3.980   2.190
 2630SOL    HW1 8276   0.554   3.921   2.115
 2630SOL    HW2 8277   0.527   4.075   2.159
 2631SOL     OW 8278   0.915   3.813   3.264
 2631SOL    HW1 8279   0.940   3.793   3.169
 2631SOL    HW2 8280   0.987   3.869   3.306
 2632SOL     OW 8281   0.410   4.537   3.113
 2632SOL    HW1 8282   0.496   4.549   3.163
 2632SOL    HW2 8283   0.368   4.450   3.140
 2633SOL     OW 8284   1.274   4.110   3.124
 2633SOL    HW1 8285   1.295   4.184   3.188
 2633SOL    HW2 8286   1.185   4.127   3.081
 2634SOL     OW 8287   0.566   4.261   2.727
 2634SOL    HW1 8288   0.578   4.327   2.653
 2634SOL    HW2 8289   0.612   4.295   2.810
 2635SOL     OW 8290   1.582   4.363   2.334
 2635SOL    HW1 8291   1.551   4.424   2.407
 2635SOL    HW2 8292   1.632   4.415   2.265
 2636SOL     OW 8293   1.013   3.829   3.632
 2636SOL    HW1 8294   1.019   3.914   3.580
 2636SOL    HW2 8295   1.045   3.753   3.575
 2637SOL     OW 8296   0.504   3.774   3.602
 2637SOL    HW1 8297   0.462   3.717   3.532
 2637SOL    HW2 8298   0.438   3.843   3.634
 2638SOL     OW 8299   1.209   4.249   2.137
 2638SOL    HW1 8300   1.222   4.165   2.191
 2638SOL    HW2 8301   1.180   4.323   2.197
 2639SOL     OW 8302   0.307   3.937   3.093
 2639SOL    HW1 8303   0.284   3.974   3.183
 2639SOL    HW2 8304   0.277   3.842   3.087
 2640SOL     OW 8305   0.732   4.358   2.926
 2640SOL    HW1 8306   0.791   4.332   2.850
 2640SOL    HW2 8307   0.704   4.454   2.915
 2641SOL     OW 8308   1.728   4.659   3.716
 2641SOL    HW1 8309   1.682   4.652   3.627
 2641SOL    HW2 8310   1.666   4.703   3.782
 2642SOL     OW 8311   0.307   3.787   2.480
 2642SOL    HW1 8312   0.296   3.881   2.513
 2642SOL    HW2 8313   0.302   3.724   2.557
 2643SOL     OW 8314   1.622   4.091   2.236
 2643SOL    HW1 8315   1.624   4.015   2.300
 2643SOL    HW2 8316   1.574   4.168   2.276
 2644SOL     OW 8317   1.540   3.998   1.987
 2644SOL    HW1 8318   1.479   3.923   2.010
 2644SOL    HW2 8319   1.562   4.050   2.070
 2645SOL     OW 8320   0.319   4.534   2.811
 2645SOL    HW1 8321   0.412   4.570   2.816
 2645SOL    HW2 8322   0.313   4.449   2.863
 2646SOL     OW 8323   0.339   4.233   2.868
 2646SOL    HW1 8324   0.287   4.150   2.851
 2646SOL    HW2 8325   0.416   4.238   2.804
 2647SOL     OW 8326   1.138   4.104   3.540
 2647SOL    HW1 8327   1.093   4.167   3.604
 2647SOL    HW2 8328   1.231   4.135   3.523
 2648SOL     OW 8329   1.160   3.931   3.339
 2648SOL    HW1 8330   1.160   3.995   3.416
 2648SOL    HW2 8331   1.188   3.979   3.256
 2649SOL     OW 8332   0.040   4.268   2.976
 2649SOL    HW1 8333   0.125   4.235   2.935
 2649SOL    HW2 8334   0.053   4.283   3.074
 2650SOL     OW 8335   0.189   4.244   3.584
 2650SOL    HW1 8336   0.248   4.204   3.514
 2650SOL    HW2 8337   0.131   4.315   3.543
 2651SOL     OW 8338   0.815   4.296   2.187
 2651SOL    HW1 8339   0.822   4.207   2.141
 2651SOL    HW2 8340   0.721   4.330   2.179
 2652SOL     OW 8341   1.657   4.328   3.068
 2652SOL    HW1 8342   1.619   4.259   3.130
 2652SOL    HW2 8343   1.739   4.292   3.024
 2653SOL     OW 8344   0.671   4.188   3.131
 2653SOL    HW1 8345   0.637   4.099   3.101
 2653SOL    HW2 8346   0.697   4.242   3.051
 2654SOL     OW 8347   0.473   4.224   2.053
 2654SOL    HW1 8348   0.534   4.304   2.057
 2654SOL    HW2 8349   0.378   4.255   2.060
 2655SOL     OW 8350   1.726   3.859   2.385
 2655SOL    HW1 8351   1.799   3.842   2.318
 2655SOL    HW2 8352   1.695   3.772   2.423
 2656SOL     OW 8353   1.280   4.651   2.534
 2656SOL    HW1 8354   1.340   4.570   2.536
 2656SOL    HW2 8355   1.320   4.720   2.474
 2657SOL     OW 8356   1.841   3.899   2.825
 2657SOL    HW1 8357   1.880   3.814   2.789
 2657SOL    HW2 8358   1.743   3.901   2.806
 2658SOL     OW 8359   0.263   4.050   2.582
 2658SOL    HW1 8360   0.184   4.101   2.548
 2658SOL    HW2 8361   0.254   4.035   2.680
 2659SOL     OW 8362   0.916   4.634   2.153
 2659SOL    HW1 8363   0.979   4.672   2.085
 2659SOL    HW2 8364   0.956   4.551   2.192
 2660SOL     OW 8365   1.039   4.822   2.558
 2660SOL    HW1 8366   0.969   4.775   2.612
 2660SOL    HW2 8367   1.098   4.754   2.515
 2661SOL     OW 8368   1.014   3.960   2.833
 2661SOL    HW1 8369   1.006   3.924   2.740
 2661SOL    HW2 8370   1.012   3.884   2.898
 2662SOL     OW 8371   1.709   4.109   3.243
 2662SOL    HW1 8372   1.782   4.178   3.247
 2662SOL    HW2 8373   1.737   4.034   3.184
 2663SOL     OW 8374   0.672   3.927   3.351
 2663SOL    HW1 8375   0.762   3.911   3.311
 2663SOL    HW2 8376   0.680   3.932   3.450
 2664SOL     OW 8377   0.075   4.069   1.895
 2664SOL    HW1 8378  -0.017   4.041   1.866
 2664SOL    HW2 8379   0.106   4.146   1.839
 2665SOL     OW 8380   0.072   3.890   2.180
 2665SOL    HW1 8381   0.055   3.973   2.126
 2665SOL    HW2 8382   0.162   3.853   2.158
 2666SOL     OW 8383   0.716   4.289   3.570
 2666SOL    HW1 8384   0.735   4.354   3.644
 2666SOL    HW2 8385   0.776   4.209   3.579
 2667SOL     OW 8386   1.225   4.049   2.311
 2667SOL    HW1 8387   1.290   3.975   2.300
 2667SOL    HW2 8388   1.245   4.099   2.395
 2668SOL     OW 8389   1.777   4.066   3.504
 2668SOL    HW1 8390   1.760   4.097   3.410
 2668SOL    HW2 8391   1.693   4.029   3.542
 2669SOL     OW 8392   1.083   4.708   1.949
 2669SOL    HW1 8393   1.060   4.761   1.867
 2669SOL    HW2 8394   1.164   4.652   1.930
 2670SOL     OW 8395   1.824   3.916   3.089
 2670SOL    HW1 8396   1.820   3.826   3.133
 2670SOL    HW2 8397   1.827   3.905   2.990
 2671SOL     OW 8398   0.428   4.148   2.382
 2671SOL    HW1 8399   0.458   4.076   2.320
 2671SOL    HW2 8400   0.389   4.108   2.465
 2672SOL     OW 8401   0.317   4.271   3.142
 2672SOL    HW1 8402   0.355   4.212   3.214
 2672SOL    HW2 8403   0.357   4.245   3.054
 2673SOL     OW 8404   1.424   3.938   2.974
 2673SOL    HW1 8405   1.476   3.873   3.029
 2673SOL    HW2 8406   1.375   4.001   3.035
 2674SOL     OW 8407   1.001   3.758   3.016
 2674SOL    HW1 8408   0.938   3.686   2.985
 2674SOL    HW2 8409   1.094   3.722   3.016
 2675SOL     OW 8410   1.352   3.776   2.030
 2675SOL    HW1 8411   1.387   3.735   1.946
 2675SOL    HW2 8412   1.262   3.738   2.050
 2676SOL     OW 8413   1.300   4.177   2.553
 2676SOL    HW1 8414   1.241   4.257   2.557
 2676SOL    HW2 8415   1.315   4.142   2.646
 2677SOL     OW 8416   1.593   3.945   2.744
 2677SOL    HW1 8417   1.509   3.944   2.798
 2677SOL    HW2 8418   1.595   4.028   2.688
 2678SOL     OW 8419   0.230   4.352   3.837
 2678SOL    HW1 8420   0.137   4.350   3.874
 2678SOL    HW2 8421   0.231   4.313   3.745
 2679SOL     OW 8422   0.225   3.999   4.720
 2679SOL    HW1 8423   0.260   3.982   4.812
 2679SOL    HW2 8424   0.137   3.954   4.708
 2680SOL     OW 8425   0.019   4.092   4.371
 2680SOL    HW1 8426  -0.063   4.135   4.410
 2680SOL    HW2 8427  -0.009   4.019   4.308
 2681SOL     OW 8428   1.755   4.331   3.955
 2681SOL    HW1 8429   1.743   4.318   3.856
 2681SOL    HW2 8430   1.725   4.250   4.004
 2682SOL     OW 8431   0.685   4.736   4.389
 2682SOL    HW1 8432   0.754   4.720   4.459
 2682SOL    HW2 8433   0.612   4.793   4.427
 2683SOL     OW 8434   0.438   4.116   5.223
 2683SOL    HW1 8435   0.520   4.060   5.232
 2683SOL    HW2 8436   0.357   4.058   5.227
 2684SOL     OW 8437   1.603   4.171   4.461
 2684SOL    HW1 8438   1.529   4.217   4.411
 2684SOL    HW2 8439   1.654   4.239   4.514
 2685SOL     OW 8440   1.594   3.838   5.204
 2685SOL    HW1 8441   1.576   3.905   5.132
 2685SOL    HW2 8442   1.591   3.884   5.293
 2686SOL     OW 8443   0.122   4.367   4.287
 2686SOL    HW1 8444   0.077   4.279   4.304
 2686SOL    HW2 8445   0.121   4.421   4.371
 2687SOL     OW 8446   0.113   4.461   5.321
 2687SOL    HW1 8447   0.201   4.448   5.366
 2687SOL    HW2 8448   0.100   4.558   5.299
 2688SOL     OW 8449   0.809   3.728   4.226
 2688SOL    HW1 8450   0.849   3.819   4.217
 2688SOL    HW2 8451   0.709   3.736   4.232
 2689SOL     OW 8452   0.317   3.975   5.525
 2689SOL    HW1 8453   0.388   4.046   5.531
 2689SOL    HW2 8454   0.229   4.014   5.553
 2690SOL     OW 8455   1.281   4.069   4.668
 2690SOL    HW1 8456   1.195   4.019   4.655
 2690SOL    HW2 8457   1.343   4.015   4.724
 2691SOL     OW 8458   0.807   4.329   5.189
 2691SOL    HW1 8459   0.760   4.326   5.278
 2691SOL    HW2 8460   0.756   4.274   5.123
 2692SOL     OW 8461   1.394   4.193   5.398
 2692SOL    HW1 8462   1.374   4.236   5.486
 2692SOL    HW2 8463   1.472   4.131   5.407
 2693SOL     OW 8464   0.991   4.134   4.966
 2693SOL    HW1 8465   0.914   4.168   5.020
 2693SOL    HW2 8466   0.957   4.083   4.887
 2694SOL     OW 8467   1.041   4.425   4.153
 2694SOL    HW1 8468   1.067   4.421   4.249
 2694SOL    HW2 8469   0.956   4.374   4.139
 2695SOL     OW 8470   0.076   4.535   4.513
 2695SOL    HW1 8471   0.175   4.523   4.522
 2695SOL    HW2 8472   0.052   4.630   4.534
 2696SOL     OW 8473   0.865   4.072   3.919
 2696SOL    HW1 8474   0.924   4.135   3.870
 2696SOL    HW2 8475   0.884   3.978   3.890
 2697SOL     OW 8476   1.719   4.309   5.555
 2697SOL    HW1 8477   1.693   4.398   5.519
 2697SOL    HW2 8478   1.717   4.241   5.482
 2698SOL     OW 8479   0.550   3.920   4.609
 2698SOL    HW1 8480   0.545   3.915   4.709
 2698SOL    HW2 8481   0.552   4.016   4.580
 2699SOL     OW 8482   1.458   4.459   4.452
 2699SOL    HW1 8483   1.453   4.394   4.527
 2699SOL    HW2 8484   1.538   4.518   4.465
 2700SOL     OW 8485   0.202   4.009   5.222
 2700SOL    HW1 8486   0.122   4.069   5.209
 2700SOL    HW2 8487   0.192   3.960   5.308
 2701SOL     OW 8488   1.400   3.831   4.150
 2701SOL    HW1 8489   1.376   3.794   4.060
 2701SOL    HW2 8490   1.499   3.847   4.154
 2702SOL     OW 8491   0.382   4.424   4.204
 2702SOL    HW1 8492   0.427   4.334   4.201
 2702SOL    HW2 8493   0.288   4.413   4.237
 2703SOL     OW 8494   1.547   3.946   5.453
 2703SOL    HW1 8495   1.542   3.983   5.545
 2703SOL    HW2 8496   1.475   3.877   5.441
 2704SOL     OW 8497   0.614   3.846   3.841
 2704SOL    HW1 8498   0.712   3.824   3.848
 2704SOL    HW2 8499   0.583   3.829   3.748
 2705SOL     OW 8500   0.781   3.988   5.473
 2705SOL    HW1 8501   0.848   3.927   5.516
 2705SOL    HW2 8502   0.708   4.007   5.538
 2706SOL     OW 8503   1.351   4.314   5.157
 2706SOL    HW1 8504   1.379   4.271   5.242
 2706SOL    HW2 8505   1.376   4.410   5.158
 2707SOL     OW 8506   0.922   4.227   4.623
 2707SOL    HW1 8507   0.897   4.218   4.527
 2707SOL    HW2 8508   0.970   4.145   4.654
 2708SOL     OW 8509   0.539   3.788   4.236
 2708SOL    HW1 8510   0.458   3.789   4.294
 2708SOL    HW2 8511   0.542   3.871   4.181
 2709SOL     OW 8512   0.297   3.759   3.895
 2709SOL    HW1 8513   0.346   3.843   3.874
 2709SOL    HW2 8514   0.359   3.694   3.940
 2710SOL     OW 8515   0.935   3.960   4.204
 2710SOL    HW1 8516   0.887   4.001   4.126
 2710SOL    HW2 8517   1.034   3.958   4.185
 2711SOL     OW 8518   1.076   4.407   5.188
 2711SOL    HW1 8519   0.996   4.346   5.191
 2711SOL    HW2 8520   1.157   4.354   5.164
 2712SOL     OW 8521   1.032   4.273   3.740
 2712SOL    HW1 8522   0.991   4.355   3.701
 2712SOL    HW2 8523   1.096   4.299   3.813
 2713SOL     OW 8524   0.078   4.280   5.110
 2713SOL    HW1 8525   0.170   4.279   5.069
 2713SOL    HW2 8526   0.072   4.354   5.177
 2714SOL     OW 8527   0.561   3.946   4.871
 2714SOL    HW1 8528   0.599   3.862   4.908
 2714SOL    HW2 8529   0.473   3.965   4.915
 2715SOL     OW 8530   0.866   4.178   4.366
 2715SOL    HW1 8531   0.834   4.250   4.304
 2715SOL    HW2 8532   0.890   4.097   4.313
 2716SOL     OW 8533   1.017   3.763   4.477
 2716SOL    HW1 8534   0.945   3.768   4.408
 2716SOL    HW2 8535   0.993   3.694   4.546
 2717SOL     OW 8536   1.466   4.314   4.716
 2717SOL    HW1 8537   1.436   4.219   4.723
 2717SOL    HW2 8538   1.539   4.330   4.782
 2718SOL     OW 8539   1.390   4.299   3.802
 2718SOL    HW1 8540   1.336   4.278   3.883
 2718SOL    HW2 8541   1.481   4.258   3.811
 2719SOL     OW 8542   0.527   3.980   4.052
 2719SOL    HW1 8543   0.554   3.921   3.977
 2719SOL    HW2 8544   0.527   4.075   4.021
 2720SOL     OW 8545   0.915   3.813   5.126
 2720SOL    HW1 8546   0.940   3.793   5.031
 2720SOL    HW2 8547   0.987   3.869   5.168
 2721SOL     OW 8548   0.410   4.537   4.975
 2721SOL    HW1 8549   0.496   4.549   5.025
 2721SOL    HW2 8550   0.368   4.450   5.002
 2722SOL     OW 8551   1.274   4.110   4.986
 2722SOL    HW1 8552   1.295   4.184   5.050
 2722SOL    HW2 8553   1.185   4.127   4.943
 2723SOL     OW 8554   0.566   4.261   4.589
 2723SOL    HW1 8555   0.578   4.327   4.515
 2723SOL    HW2 8556   0.612   4.295   4.672
 2724SOL     OW 8557   1.582   4.363   4.196
 2724SOL    HW1 8558   1.551   4.424   4.269
 2724SOL    HW2 8559   1.632   4.415   4.127
 2725SOL     OW 8560   1.013   3.829   5.494
 2725SOL    HW1 8561   1.019   3.914   5.442
 2725SOL    HW2 8562   1.045   3.753   5.437
 2726SOL     OW 8563   0.504   3.774   5.464
 2726SOL    HW1 8564   0.462   3.717   5.394
 2726SOL    HW2 8565   0.438   3.843   5.496
 2727SOL     OW 8566   1.209   4.249   3.999
 2727SOL    HW1 8567   1.222   4.165   4.053
 2727SOL    HW2 8568   1.180   4.323   4.059
 2728SOL     OW 8569   0.307   3.937   4.955
 2728SOL    HW1 8570   0.284   3.974   5.045
 2728SOL    HW2 8571   0.277   3.842   4.949
 2729SOL     OW 8572   0.732   4.358   4.788
 2729SOL    HW1 8573   0.791   4.332   4.712
 2729SOL    HW2 8574   0.704   4.454   4.777
 2730SOL     OW 8575   1.728   4.659   5.578
 2730SOL    HW1 8576   1.682   4.652   5.489
 2730SOL    HW2 8577   1.666   4.703   5.644
 2731SOL     OW 8578   0.307   3.787   4.342
 2731SOL    HW1 8579   0.296   3.881   4.375
 2731SOL    HW2 8580   0.302   3.724   4.419
 2732SOL     OW 8581   1.622   4.091   4.098
 2732SOL    HW1 8582   1.624   4.015   4.162
 2732SOL    HW2 8583   1.574   4.168   4.138
 2733SOL     OW 8584   1.540   3.998   3.849
 2733SOL    HW1 8585   1.479   3.923   3.872
 2733SOL    HW2 8586   1.562   4.050   3.932
 2734SOL     OW 8587   0.319   4.534   4.673
 2734SOL    HW1 8588   0.412   4.570   4.678
 2734SOL    HW2 8589   0.313   4.449   4.725
 2735SOL     OW 8590   0.339   4.233   4.730
 2735SOL    HW1 8591   0.287   4.150   4.713
 2735SOL    HW2 8592   0.416   4.238   4.666
 2736SOL     OW 8593   1.138   4.104   5.402
 2736SOL    HW1 8594   1.093   4.167   5.466
 2736SOL    HW2 8595   1.231   4.135   5.385
 2737SOL     OW 8596   1.160   3.931   5.201
 2737SOL    HW1 8597   1.160   3.995   5.278
 2737SOL    HW2 8598   1.188   3.979   5.118
 2738SOL     OW 8599   0.040   4.268   4.838
 2738SOL    HW1 8600   0.125   4.235   4.797
 2738SOL    HW2 8601   0.053   4.283   4.936
 2739SOL     OW 8602   0.189   4.244   5.446
 2739SOL    HW1 8603   0.248   4.204   5.376
 2739SOL    HW2 8604   0.131   4.315   5.405
 2740SOL     OW 8605   0.815   4.296   4.049
 2740SOL    HW1 8606   0.822   4.207   4.003
 2740SOL    HW2 8607   0.721   4.330   4.041
 2741SOL     OW 8608   1.657   4.328   4.930
 2741SOL    HW1 8609   1.619   4.259   4.992
 2741SOL    HW2 8610   1.739   4.292   4.886
 2742SOL     OW 8611   0.671   4.188   4.993
 2742SOL    HW1 8612   0.637   4.099   4.963
 2742SOL    HW2 8613   0.697   4.242   4.913
 2743SOL     OW 8614   0.473   4.224   3.915
 2743SOL    HW1 8615   0.534   4.304   3.919
 2743SOL    HW2 8616   0.378   4.255   3.922
 2744SOL     OW 8617   1.726   3.859   4.247
 2744SOL    HW1 8618   1.799   3.842   4.180
 2744SOL    HW2 8619   1.695   3.772   4.285
 2745SOL     OW 8620   1.280   4.651   4.396
 2745SOL    HW1 8621   1.340   4.570   4.398
 2745SOL    HW2 8622   1.320   4.720   4.336
 2746SOL     OW 8623   1.841   3.899   4.687
 2746SOL    HW1 8624   1.880   3.814   4.651
 2746SOL    HW2 8625   1.743   3.901   4.668
 2747SOL     OW 8626   0.263   4.050   4.444
 2747SOL    HW1 8627   0.184   4.101   4.410
 2747SOL    HW2 8628   0.254   4.035   4.542
 2748SOL     OW 8629   0.916   4.634   4.015
 2748SOL    HW1 8630   0.979   4.672   3.947
 2748SOL    HW2 8631   0.956   4.551   4.054
 2749SOL     OW 8632   1.039   4.822   4.420
 2749SOL    HW1 8633   0.969   4.775   4.474
 2749SOL    HW2 8634   1.098   4.754   4.377
 2750SOL     OW 8635   1.014   3.960   4.695
 2750SOL    HW1 8636   1.006   3.924   4.602
 2750SOL    HW2 8637   1.012   3.884   4.760
 2751SOL     OW 8638   1.709   4.109   5.105
 2751SOL    HW1 8639   1.782   4.178   5.109
 2751SOL    HW2 8640   1.737   4.034   5.046
 2752SOL     OW 8641   0.672   3.927   5.213
 2752SOL    HW1 8642   0.762   3.911   5.173
 2752SOL    HW2 8643   0.680   3.932   5.312
 2753SOL     OW 8644   0.075   4.069   3.757
 2753SOL    HW1 8645  -0.017   4.041   3.728
 2753SOL    HW2 8646   0.106   4.146   3.701
 2754SOL     OW 8647   0.072   3.890   4.042
 2754SOL    HW1 8648   0.055   3.973   3.988
 2754SOL    HW2 8649   0.162   3.853   4.020
 2755SOL     OW 8650   0.716   4.289   5.432
 2755SOL    HW1 8651   0.735   4.354   5.506
 2755SOL    HW2 8652   0.776   4.209   5.441
 2756SOL     OW 8653   1.225   4.049   4.173
 2756SOL    HW1 8654   1.290   3.975   4.162
 2756SOL    HW2 8655   1.245   4.099   4.257
 2757SOL     OW 8656   1.777   4.066   5.366
 2757SOL    HW1 8657   1.760   4.097   5.272
 2757SOL    HW2 8658   1.693   4.029   5.404
 2758SOL     OW 8659   1.083   4.708   3.811
 2758SOL    HW1 8660   1.060   4.761   3.729
 2758SOL    HW2 8661   1.164   4.652   3.792
 2759SOL     OW 8662   1.824   3.916   4.951
 2759SOL    HW1 8663   1.820   3.826   4.995
 2759SOL    HW2 8664   1.827   3.905   4.852
 2760SOL     OW 8665   0.428   4.148   4.244
 2760SOL    HW1 8666   0.458   4.076   4.182
 2760SOL    HW2 8667   0.389   4.108   4.327
 2761SOL     OW 8668   0.317   4.271   5.004
 2761SOL    HW1 8669   0.355   4.212   5.076
 2761SOL    HW2 8670   0.357   4.245   4.916
 2762SOL     OW 8671   1.424   3.938   4.836
 2762SOL    HW1 8672   1.476   3.873   4.891
 2762SOL    HW2 8673   1.375   4.001   4.897
 2763SOL     OW 8674   1.001   3.758   4.878
 2763SOL    HW1 8675   0.938   3.686   4.847
 2763SOL    HW2 8676   1.094   3.722   4.878
 2764SOL     OW 8677   1.352   3.776   3.892
 2764SOL    HW1 8678   1.387   3.735   3.808
 2764SOL    HW2 8679   1.262   3.738   3.912
 2765SOL     OW 8680   1.300   4.177   4.415
 2765SOL    HW1 8681   1.241   4.257   4.419
 2765SOL    HW2 8682   1.315   4.142   4.508
 2766SOL     OW 8683   1.593   3.945   4.606
 2766SOL    HW1 8684   1.509   3.944   4.660
 2766SOL    HW2 8685   1.595   4.028   4.550
 2767SOL     OW 8686   0.230   4.352   5.699
 2767SOL    HW1 8687   0.137   4.350   5.736
 2767SOL    HW2 8688   0.231   4.313   5.607
 2768SOL     OW 8689   0.225   3.999   6.582
 2768SOL    HW1 8690   0.260   3.982   6.674
 2768SOL    HW2 8691   0.137   3.954   6.570
 2769SOL     OW 8692   0.019   4.092   6.233
 2769SOL    HW1 8693  -0.063   4.135   6.272
 2769SOL    HW2 8694  -0.009   4.019   6.170
 2770SOL     OW 8695   1.755   4.331   5.817
 2770SOL    HW1 8696   1.743   4.318   5.718
 2770SOL    HW2 8697   1.725   4.250   5.866
 2771SOL     OW 8698   0.685   4.736   6.251
 2771SOL    HW1 8699   0.754   4.720   6.321
 2771SOL    HW2 8700   0.612   4.793   6.289
 2772SOL     OW 8701   0.438   4.116   7.085
 2772SOL    HW1 8702   0.520   4.060   7.094
 2772SOL    HW2 8703   0.357   4.058   7.089
 2773SOL     OW 8704   1.603   4.171   6.323
 2773SOL    HW1 8705   1.529   4.217   6.273
 2773SOL    HW2 8706   1.654   4.239   6.376
 2774SOL     OW 8707   1.594   3.838   7.066
 2774SOL    HW1 8708   1.576   3.905   6.994
 2774SOL    HW2 8709   1.591   3.884   7.155
 2775SOL     OW 8710   0.122   4.367   6.149
 2775SOL    HW1 8711   0.077   4.279   6.166
 2775SOL    HW2 8712   0.121   4.421   6.233
 2776SOL     OW 8713   0.113   4.461   7.183
 2776SOL    HW1 8714   0.201   4.448   7.228
 2776SOL    HW2 8715   0.100   4.558   7.161
 2777SOL     OW 8716   0.809   3.728   6.088
 2777SOL    HW1 8717   0.849   3.819   6.079
 2777SOL    HW2 8718   0.709   3.736   6.094
 2778SOL     OW 8719   0.317   3.975   7.387
 2778SOL    HW1 8720   0.388   4.046   7.393
 2778SOL    HW2 8721   0.229   4.014   7.415
 2779SOL     OW 8722   1.281   4.069   6.530
 2779SOL    HW1 8723   1.195   4.019   6.517
 2779SOL    HW2 8724   1.343   4.015   6.586
 2780SOL     OW 8725   0.807   4.329   7.051
 2780SOL    HW1 8726   0.760   4.326   7.140
 2780SOL    HW2 8727   0.756   4.274   6.985
 2781SOL     OW 8728   1.394   4.193   7.260
 2781SOL    HW1 8729   1.374   4.236   7.348
 2781SOL    HW2 8730   1.472   4.131   7.269
 2782SOL     OW 8731   0.991   4.134   6.828
 2782SOL    HW1 8732   0.914   4.168   6.882
 2782SOL    HW2 8733   0.957   4.083   6.749
 2783SOL     OW 8734   1.041   4.425   6.015
 2783SOL    HW1 8735   1.067   4.421   6.111
 2783SOL    HW2 8736   0.956   4.374   6.001
 2784SOL     OW 8737   0.076   4.535   6.375
 2784SOL    HW1 8738   0.175   4.523   6.384
 2784SOL    HW2 8739   0.052   4.630   6.396
 2785SOL     OW 8740   0.865   4.072   5.781
 2785SOL    HW1 8741   0.924   4.135   5.732
 2785SOL    HW2 8742   0.884   3.978   5.752
 2786SOL     OW 8743   1.719   4.309   7.417
 2786SOL    HW1 8744   1.693   4.398   7.381
 2786SOL    HW2 8745   1.717   4.241   7.344
 2787SOL     OW 8746   0.550   3.920   6.471
 2787SOL    HW1 8747   0.545   3.915   6.571
 2787SOL    HW2 8748   0.552   4.016   6.442
 2788SOL     OW 8749   1.458   4.459   6.314
 2788SOL    HW1 8750   1.453   4.394   6.389
 2788SOL    HW2 8751   1.538   4.518   6.327
 2789SOL     OW 8752   0.202   4.009   7.084
 2789SOL    HW1 8753   0.122   4.069   7.071
 2789SOL    HW2 8754   0.192   3.960   7.170
 2790SOL     OW 8755   1.400   3.831   6.012
 2790SOL    HW1 8756   1.376   3.794   5.922
 2790SOL    HW2 8757   1.499   3.847   6.016
 2791SOL     OW 8758   0.382   4.424   6.066
 2791SOL    HW1 8759   0.427   4.334   6.063
 2791SOL    HW2 8760   0.288   4.413   6.099
 2792SOL     OW 8761   1.547   3.946   7.315
 2792SOL    HW1 8762   1.542   3.983   7.407
 2792SOL    HW2 8763   1.475   3.877   7.303
 2793SOL     OW 8764   0.614   3.846   5.703
 2793SOL    HW1 8765   0.712   3.824   5.710
 2793SOL    HW2 8766   0.583   3.829   5.610
 2794SOL     OW 8767   0.781   3.988   7.335
 2794SOL    HW1 8768   0.848   3.927   7.378
 2794SOL    HW2 8769   0.708   4.007   7.400
 2795SOL     OW 8770   1.351   4.314   7.019
 2795SOL    HW1 8771   1.379   4.271   7.104
 2795SOL    HW2 8772   1.376   4.410   7.020
 2796SOL     OW 8773   0.922   4.227   6.485
 2796SOL    HW1 8774   0.897   4.218   6.389
 2796SOL    HW2 8775   0.970   4.145   6.516
 2797SOL     OW 8776   0.539   3.788   6.098
 2797SOL    HW1 8777   0.458   3.789   6.156
 2797SOL    HW2 8778   0.542   3.871   6.043
 2798SOL     OW 8779   0.297   3.759   5.757
 2798SOL    HW1 8780   0.346   3.843   5.736
 2798SOL    HW2 8781   0.359   3.694   5.802
 2799SOL     OW 8782   0.935   3.960   6.066
 2799SOL    HW1 8783   0.887   4.001   5.988
 2799SOL    HW2 8784   1.034   3.958   6.047
 2800SOL     OW 8785   1.076   4.407   7.050
 2800SOL    HW1 8786   0.996   4.346   7.053
 2800SOL    HW2 8787   1.157   4.354   7.026
 2801SOL     OW 8788   1.032   4.273   5.602
 2801SOL    HW1 8789   0.991   4.355   5.563
 2801SOL    HW2 8790   1.096   4.299   5.675
 2802SOL     OW 8791   0.078   4.280   6.972
 2802SOL    HW1 8792   0.170   4.279   6.931
 2802SOL    HW2 8793   0.072   4.354   7.039
 2803SOL     OW 8794   0.561   3.946   6.733
 2803SOL    HW1 8795   0.599   3.862   6.770
 2803SOL    HW2 8796   0.473   3.965   6.777
 2804SOL     OW 8797   0.866   4.178   6.228
 2804SOL    HW1 8798   0.834   4.250   6.166
 2804SOL    HW2 8799   0.890   4.097   6.175
 2805SOL     OW 8800   1.017   3.763   6.339
 2805SOL    HW1 8801   0.945   3.768   6.270
 2805SOL    HW2 8802   0.993   3.694   6.408
 2806SOL     OW 8803   1.466   4.314   6.578
 2806SOL    HW1 8804   1.436   4.219   6.585
 2806SOL    HW2 8805   1.539   4.330   6.644
 2807SOL     OW 8806   1.390   4.299   5.664
 2807SOL    HW1 8807   1.336   4.278   5.745
 2807SOL    HW2 8808   1.481   4.258   5.673
 2808SOL     OW 8809   0.527   3.980   5.914
 2808SOL    HW1 8810   0.554   3.921   5.839
 2808SOL    HW2 8811   0.527   4.075   5.883
 2809SOL     OW 8812   0.915   3.813   6.988
 2809SOL    HW1 8813   0.940   3.793   6.893
 2809SOL    HW2 8814   0.987   3.869   7.030
 2810SOL     OW 8815   0.410   4.537   6.837
 2810SOL    HW1 8816   0.496   4.549   6.887
 2810SOL    HW2 8817   0.368   4.450   6.864
 2811SOL     OW 8818   1.274   4.110   6.848
 2811SOL    HW1 8819   1.295   4.184   6.912
 2811SOL    HW2 8820   1.185   4.127   6.805
 2812SOL     OW 8821   0.566   4.261   6.451
 2812SOL    HW1 8822   0.578   4.327   6.377
 2812SOL    HW2 8823   0.612   4.295   6.534
 2813SOL     OW 8824   1.582   4.363   6.058
 2813SOL    HW1 8825   1.551   4.424   6.131
 2813SOL    HW2 8826   1.632   4.415   5.989
 2814SOL     OW 8827   1.013   3.829   7.356
 2814SOL    HW1 8828   1.019   3.914   7.304
 2814SOL    HW2 8829   1.045   3.753   7.299
 2815SOL     OW 8830   0.504   3.774   7.326
 2815SOL    HW1 8831   0.462   3.717   7.256
 2815SOL    HW2 8832   0.438   3.843   7.358
 2816SOL     OW 8833   1.209   4.249   5.861
 2816SOL    HW1 8834   1.222   4.165   5.915
 2816SOL    HW2 8835   1.180   4.323   5.921
 2817SOL     OW 8836   0.307   3.937   6.817
 2817SOL    HW1 8837   0.284   3.974   6.907
 2817SOL    HW2 8838   0.277   3.842   6.811
 2818SOL     OW 8839   0.732   4.358   6.650
 2818SOL    HW1 8840   0.791   4.332   6.574
 2818SOL    HW2 8841   0.704   4.454   6.639
 2819SOL     OW 8842   1.728   4.659   7.440
 2819SOL    HW1 8843   1.682   4.652   7.351
 2819SOL    HW2 8844   1.666   4.703   7.506
 2820SOL     OW 8845   0.307   3.787   6.204
 2820SOL    HW1 8846   0.296   3.881   6.237
 2820SOL    HW2 8847   0.302   3.724   6.281
 2821SOL     OW 8848   1.622   4.091   5.960
 2821SOL    HW1 8849   1.624   4.015   6.024
 2821SOL    HW2 8850   1.574   4.168   6.000
 2822SOL     OW 8851   1.540   3.998   5.711
 2822SOL    HW1 8852   1.479   3.923   5.734
 2822SOL    HW2 8853   1.562   4.050   5.794
 2823SOL     OW 8854   0.319   4.534   6.535
 2823SOL    HW1 8855   0.412   4.570   6.540
 2823SOL    HW2 8856   0.313   4.449   6.587
 2824SOL     OW 8857   0.339   4.233   6.592
 2824SOL    HW1 8858   0.287   4.150   6.575
 2824SOL    HW2 8859   0.416   4.238   6.528
 2825SOL     OW 8860   1.138   4.104   7.264
 2825SOL    HW1 8861   1.093   4.167   7.328
 2825SOL    HW2 8862   1.231   4.135   7.247
 2826SOL     OW 8863   1.160   3.931   7.063
 2826SOL    HW1 8864   1.160   3.995   7.140
 2826SOL    HW2 8865   1.188   3.979   6.980
 2827SOL     OW 8866   0.040   4.268   6.700
 2827SOL    HW1 8867   0.125   4.235   6.659
 2827SOL    HW2 8868   0.053   4.283   6.798
 2828SOL     OW 8869   0.189   4.244   7.308
 2828SOL    HW1 8870   0.248   4.204   7.238
 2828SOL    HW2 8871   0.131   4.315   7.267
 2829SOL     OW 8872   0.815   4.296   5.911
 2829SOL    HW1 8873   0.822   4.207   5.865
 2829SOL    HW2 8874   0.721   4.330   5.903
 2830SOL     OW 8875   1.657   4.328   6.792
 2830SOL    HW1 8876   1.619   4.259   6.854
 2830SOL    HW2 8877   1.739   4.292   6.748
 2831SOL     OW 8878   0.671   4.188   6.855
 2831SOL    HW1 8879   0.637   4.099   6.825
 2831SOL    HW2 8880   0.697   4.242   6.775
 2832SOL     OW 8881   0.473   4.224   5.777
 2832SOL    HW1 8882   0.534   4.304   5.781
 2832SOL    HW2 8883   0.378   4.255   5.784
 2833SOL     OW 8884   1.726   3.859   6.109
 2833SOL    HW1 8885   1.799   3.842   6.042
 2833SOL    HW2 8886   1.695   3.772   6.147
 2834SOL     OW 8887   1.280   4.651   6.258
 2834SOL    HW1 8888   1.340   4.570   6.260
 2834SOL    HW2 8889   1.320   4.720   6.198
 2835SOL     OW 8890   1.841   3.899   6.549
 2835SOL    HW1 8891   1.880   3.814   6.513
 2835SOL    HW2 8892   1.743   3.901   6.530
 2836SOL     OW 8893   0.263   4.050   6.306
 2836SOL    HW1 8894   0.184   4.101   6.272
 2836SOL    HW2 8895   0.254   4.035   6.404
 2837SOL     OW 8896   0.916   4.634   5.877
 2837SOL    HW1 8897   0.979   4.672   5.809
 2837SOL    HW2 8898   0.956   4.551   5.916
 2838SOL     OW 8899   1.039   4.822   6.282
 2838SOL    HW1 8900   0.969   4.775   6.336
 2838SOL    HW2 8901   1.098   4.754   6.239
 2839SOL     OW 8902   1.014   3.960   6.557
 2839SOL    HW1 8903   1.006   3.924   6.464
 2839SOL    HW2 8904   1.012   3.884   6.622
 2840SOL     OW 8905   1.709   4.109   6.967
 2840SOL    HW1 8906   1.782   4.178   6.971
 2840SOL    HW2 8907   1.737   4.034   6.908
 2841SOL     OW 8908   0.672   3.927   7.075
 2841SOL    HW1 8909   0.762   3.911   7.035
 2841SOL    HW2 8910   0.680   3.932   7.174
 2842SOL     OW 8911   0.075   4.069   5.619
 2842SOL    HW1 8912  -0.017   4.041   5.590
 2842SOL    HW2 8913   0.106   4.146   5.563
 2843SOL     OW 8914   0.072   3.890   5.904
 2843SOL    HW1 8915   0.055   3.973   5.850
 2843SOL    HW2 8916   0.162   3.853   5.882
 2844SOL     OW 8917   0.716   4.289   7.294
 2844SOL    HW1 8918   0.735   4.354   7.368
 2844SOL    HW2 8919   0.776   4.209   7.303
 2845SOL     OW 8920   1.225   4.049   6.035
 2845SOL    HW1 8921   1.290   3.975   6.024
 2845SOL    HW2 8922   1.245   4.099   6.119
 2846SOL     OW 8923   1.777   4.066   7.228
 2846SOL    HW1 8924   1.760   4.097   7.134
 2846SOL    HW2 8925   1.693   4.029   7.266
 2847SOL     OW 8926   1.083   4.708   5.673
 2847SOL    HW1 8927   1.060   4.761   5.591
 2847SOL    HW2 8928   1.164   4.652   5.654
 2848SOL     OW 8929   1.824   3.916   6.813
 2848SOL    HW1 8930   1.820   3.826   6.857
 2848SOL    HW2 8931   1.827   3.905   6.714
 2849SOL     OW 8932   0.428   4.148   6.106
 2849SOL    HW1 8933   0.458   4.076   6.044
 2849SOL    HW2 8934   0.389   4.108   6.189
 2850SOL     OW 8935   0.317   4.271   6.866
 2850SOL    HW1 8936   0.355   4.212   6.938
 2850SOL    HW2 8937   0.357   4.245   6.778
 2851SOL     OW 8938   1.424   3.938   6.698
 2851SOL    HW1 8939   1.476   3.873   6.753
 2851SOL    HW2 8940   1.375   4.001   6.759
 2852SOL     OW 8941   1.001   3.758   6.740
 2852SOL    HW1 8942   0.938   3.686   6.709
 2852SOL    HW2 8943   1.094   3.722   6.740
 2853SOL     OW 8944   1.352   3.776   5.754
 2853SOL    HW1 8945   1.387   3.735   5.670
 2853SOL    HW2 8946   1.262   3.738   5.774
 2854SOL     OW 8947   1.300   4.177   6.277
 2854SOL    HW1 8948   1.241   4.257   6.281
 2854SOL    HW2 8949   1.315   4.142   6.370
 2855SOL     OW 8950   1.593   3.945   6.468
 2855SOL    HW1 8951   1.509   3.944   6.522
 2855SOL    HW2 8952   1.595   4.028   6.412
 2856SOL     OW 8953   0.230   4.352   7.561
 2856SOL    HW1 8954   0.137   4.350   7.598
 2856SOL    HW2 8955   0.231   4.313   7.469
 2857SOL     OW 8956   0.225   3.999   8.444
 2857SOL    HW1 8957   0.260   3.982   8.536
 2857SOL    HW2 8958   0.137   3.954   8.432
 2858SOL     OW 8959   0.019   4.092   8.095
 2858SOL    HW1 8960  -0.063   4.135   8.134
 2858SOL    HW2 8961  -0.009   4.019   8.032
 2859SOL     OW 8962   1.755   4.331   7.679
 2859SOL    HW1 8963   1.743   4.318   7.580
 2859SOL    HW2 8964   1.725   4.250   7.728
 2860SOL     OW 8965   0.685   4.736   8.113
 2860SOL    HW1 8966   0.754   4.720   8.183
 2860SOL    HW2 8967   0.612   4.793   8.151
 2861SOL     OW 8968   0.438   4.116   8.947
 2861SOL    HW1 8969   0.520   4.060   8.956
 2861SOL    HW2 8970   0.357   4.058   8.951
 2862SOL     OW 8971   1.603   4.171   8.185
 2862SOL    HW1 8972   1.529   4.217   8.135
 2862SOL    HW2 8973   1.654   4.239   8.238
 2863SOL     OW 8974   1.594   3.838   8.928
 2863SOL    HW1 8975   1.576   3.905   8.856
 2863SOL    HW2 8976   1.591   3.884   9.017
 2864SOL     OW 8977   0.122   4.367   8.011
 2864SOL    HW1 8978   0.077   4.279   8.028
 2864SOL    HW2 8979   0.121   4.421   8.095
 2865SOL     OW 8980   0.113   4.461   9.045
 2865SOL    HW1 8981   0.201   4.448   9.090
 2865SOL    HW2 8982   0.100   4.558   9.023
 2866SOL     OW 8983   0.809   3.728   7.950
 2866SOL    HW1 8984   0.849   3.819   7.941
 2866SOL    HW2 8985   0.709   3.736   7.956
 2867SOL     OW 8986   0.317   3.975   9.249
 2867SOL    HW1 8987   0.388   4.046   9.255
 2867SOL    HW2 8988   0.229   4.014   9.277
 2868SOL     OW 8989   1.281   4.069   8.392
 2868SOL    HW1 8990   1.195   4.019   8.379
 2868SOL    HW2 8991   1.343   4.015   8.448
 2869SOL     OW 8992   0.807   4.329   8.913
 2869SOL    HW1 8993   0.760   4.326   9.002
 2869SOL    HW2 8994   0.756   4.274   8.847
 2870SOL     OW 8995   1.394   4.193   9.122
 2870SOL    HW1 8996   1.374   4.236   9.210
 2870SOL    HW2 8997   1.472   4.131   9.131
 2871SOL     OW 8998   0.991   4.134   8.690
 2871SOL    HW1 8999   0.914   4.168   8.744
 2871SOL    HW2 9000   0.957   4.083   8.611
 2872SOL     OW 9001   1.041   4.425   7.877
 2872SOL    HW1 9002   1.067   4.421   7.973
 2872SOL    HW2 9003   0.956   4.374   7.863
 2873SOL     OW 9004   0.076   4.535   8.237
 2873SOL    HW1 9005   0.175   4.523   8.246
 2873SOL    HW2 9006   0.052   4.630   8.258
 2874SOL     OW 9007   0.865   4.072   7.643
 2874SOL    HW1 9008   0.924   4.135   7.594
 2874SOL    HW2 9009   0.884   3.978   7.614
 2875SOL     OW 9010   1.719   4.309   9.279
 2875SOL    HW1 9011   1.693   4.398   9.243
 2875SOL    HW2 9012   1.717   4.241   9.206
 2876SOL     OW 9013   0.550   3.920   8.333
 2876SOL    HW1 9014   0.545   3.915   8.433
 2876SOL    HW2 9015   0.552   4.016   8.304
 2877SOL     OW 9016   1.458   4.459   8.176
 2877SOL    HW1 9017   1.453   4.394   8.251
 2877SOL    HW2 9018   1.538   4.518   8.189
 2878SOL     OW 9019   0.202   4.009   8.946
 2878SOL    HW1 9020   0.122   4.069   8.933
 2878SOL    HW2 9021   0.192   3.960   9.032
 2879SOL     OW 9022   1.400   3.831   7.874
 2879SOL    HW1 9023   1.376   3.794   7.784
 2879SOL    HW2 9024   1.499   3.847   7.878
 2880SOL     OW 9025   0.382   4.424   7.928
 2880SOL    HW1 9026   0.427   4.334   7.925
 2880SOL    HW2 9027   0.288   4.413   7.961
 2881SOL     OW 9028   1.547   3.946   9.177
 2881SOL    HW1 9029   1.542   3.983   9.269
 2881SOL    HW2 9030   1.475   3.877   9.165
 2882SOL     OW 9031   0.614   3.846   7.565
 2882SOL    HW1 9032   0.712   3.824   7.572
 2882SOL    HW2 9033   0.583   3.829   7.472
 2883SOL     OW 9034   0.781   3.988   9.197
 2883SOL    HW1 9035   0.848   3.927   9.240
 2883SOL    HW2 9036   0.708   4.007   9.262
 2884SOL     OW 9037   1.351   4.314   8.881
 2884SOL    HW1 9038   1.379   4.271   8.966
 2884SOL    HW2 9039   1.376   4.410   8.882
 2885SOL     OW 9040   0.922   4.227   8.347
 2885SOL    HW1 9041   0.897   4.218   8.251
 2885SOL    HW2 9042   0.970   4.145   8.378
 2886SOL     OW 9043   0.539   3.788   7.960
 2886SOL    HW1 9044   0.458   3.789   8.018
 2886SOL    HW2 9045   0.542   3.871   7.905
 2887SOL     OW 9046   0.297   3.759   7.619
 2887SOL    HW1 9047   0.346   3.843   7.598
 2887SOL    HW2 9048   0.359   3.694   7.664
 2888SOL     OW 9049   0.935   3.960   7.928
 2888SOL    HW1 9050   0.887   4.001   7.850
 2888SOL    HW2 9051   1.034   3.958   7.909
 2889SOL     OW 9052   1.076   4.407   8.912
 2889SOL    HW1 9053   0.996   4.346   8.915
 2889SOL    HW2 9054   1.157   4.354   8.888
 2890SOL     OW 9055   1.032   4.273   7.464
 2890SOL    HW1 9056   0.991   4.355   7.425
 2890SOL    HW2 9057   1.096   4.299   7.537
 2891SOL     OW 9058   0.078   4.280   8.834
 2891SOL    HW1 9059   0.170   4.279   8.793
 2891SOL    HW2 9060   0.072   4.354   8.901
 2892SOL     OW 9061   0.561   3.946   8.595
 2892SOL    HW1 9062   0.599   3.862   8.632
 2892SOL    HW2 9063   0.473   3.965   8.639
 2893SOL     OW 9064   0.866   4.178   8.090
 2893SOL    HW1 9065   0.834   4.250   8.028
 2893SOL    HW2 9066   0.890   4.097   8.037
 2894SOL     OW 9067   1.017   3.763   8.201
 2894SOL    HW1 9068   0.945   3.768   8.132
 2894SOL    HW2 9069   0.993   3.694   8.270
 2895SOL     OW 9070   1.466   4.314   8.440
 2895SOL    HW1 9071   1.436   4.219   8.447
 2895SOL    HW2 9072   1.539   4.330   8.506
 2896SOL     OW 9073   1.390   4.299   7.526
 2896SOL    HW1 9074   1.336   4.278   7.607
 2896SOL    HW2 9075   1.481   4.258   7.535
 2897SOL     OW 9076   0.527   3.980   7.776
 2897SOL    HW1 9077   0.554   3.921   7.701
 2897SOL    HW2 9078   0.527   4.075   7.745
 2898SOL     OW 9079   0.915   3.813   8.850
 2898SOL    HW1 9080   0.940   3.793   8.755
 2898SOL    HW2 9081   0.987   3.869   8.892
 2899SOL     OW 9082   0.410   4.537   8.699
 2899SOL    HW1 9083   0.496   4.549   8.749
 2899SOL    HW2 9084   0.368   4.450   8.726
 2900SOL     OW 9085   1.274   4.110   8.710
 2900SOL    HW1 9086   1.295   4.184   8.774
 2900SOL    HW2 9087   1.185   4.127   8.667
 2901SOL     OW 9088   0.566   4.261   8.313
 2901SOL    HW1 9089   0.578   4.327   8.239
 2901SOL    HW2 9090   0.612   4.295   8.396
 2902SOL     OW 9091   1.582   4.363   7.920
 2902SOL    HW1 9092   1.551   4.424   7.993
 2902SOL    HW2 9093   1.632   4.415   7.851
 2903SOL     OW 9094   1.013   3.829   9.218
 2903SOL    HW1 9095   1.019   3.914   9.166
 2903SOL    HW2 9096   1.045   3.753   9.161
 2904SOL     OW 9097   0.504   3.774   9.188
 2904SOL    HW1 9098   0.462   3.717   9.118
 2904SOL    HW2 9099   0.438   3.843   9.220
 2905SOL     OW 9100   1.209   4.249   7.723
 2905SOL    HW1 9101   1.222   4.165   7.777
 2905SOL    HW2 9102   1.180   4.323   7.783
 2906SOL     OW 9103   0.307   3.937   8.679
 2906SOL    HW1 9104   0.284   3.974   8.769
 2906SOL    HW2 9105   0.277   3.842   8.673
 2907SOL     OW 9106   0.732   4.358   8.512
 2907SOL    HW1 9107   0.791   4.332   8.436
 2907SOL    HW2 9108   0.704   4.454   8.501
 2908SOL     OW 9109   1.728   4.659   9.302
 2908SOL    HW1 9110   1.682   4.652   9.213
 2908SOL    HW2 9111   1.666   4.703   9.368
 2909SOL     OW 9112   0.307   3.787   8.066
 2909SOL    HW1 9113   0.296   3.881   8.099
 2909SOL    HW2 9114   0.302   3.724   8.143
 2910SOL     OW 9115   1.622   4.091   7.822
 2910SOL    HW1 9116   1.624   4.015   7.886
 2910SOL    HW2 9117   1.574   4.168   7.862
 2911SOL     OW 9118   1.540   3.998   7.573
 2911SOL    HW1 9119   1.479   3.923   7.596
 2911SOL    HW2 9120   1.562   4.050   7.656
 2912SOL     OW 9121   0.319   4.534   8.397
 2912SOL    HW1 9122   0.412   4.570   8.402
 2912SOL    HW2 9123   0.313   4.449   8.449
 2913SOL     OW 9124   0.339   4.233   8.454
 2913SOL    HW1 9125   0.287   4.150   8.437
 2913SOL    HW2 9126   0.416   4.238   8.390
 2914SOL     OW 9127   1.138   4.104   9.126
 2914SOL    HW1 9128   1.093   4.167   9.190
 2914SOL    HW2 9129   1.231   4.135   9.109
 2915SOL     OW 9130   1.160   3.931   8.925
 2915SOL    HW1 9131   1.160   3.995   9.002
 2915SOL    HW2 9132   1.188   3.979   8.842
 2916SOL     OW 9133   0.040   4.268   8.562
 2916SOL    HW1 9134   0.125   4.235   8.521
 2916SOL    HW2 9135   0.053   4.283   8.660
 2917SOL     OW 9136   0.189   4.244   9.170
 2917SOL    HW1 9137   0.248   4.204   9.100
 2917SOL    HW2 9138   0.131   4.315   9.129
 2918SOL     OW 9139   0.815   4.296   7.773
 2918SOL    HW1 9140   0.822   4.207   7.727
 2918SOL    HW2 9141   0.721   4.330   7.765
 2919SOL     OW 9142   1.657   4.328   8.654
 2919SOL    HW1 9143   1.619   4.259   8.716
 2919SOL    HW2 9144   1.739   4.292   8.610
 2920SOL     OW 9145   0.671   4.188   8.717
 2920SOL    HW1 9146   0.637   4.099   8.687
 2920SOL    HW2 9147   0.697   4.242   8.637
 2921SOL     OW 9148   0.473   4.224   7.639
 2921SOL    HW1 9149   0.534   4.304   7.643
 2921SOL    HW2 9150   0.378   4.255   7.646
 2922SOL     OW 9151   1.726   3.859   7.971
 2922SOL    HW1 9152   1.799   3.842   7.904
 2922SOL    HW2 9153   1.695   3.772   8.009
 2923SOL     OW 9154   1.280   4.651   8.120
 2923SOL    HW1 9155   1.340   4.570   8.122
 2923SOL    HW2 9156   1.320   4.720   8.060
 2924SOL     OW 9157   1.841   3.899   8.411
 2924SOL    HW1 9158   1.880   3.814   8.375
 2924SOL    HW2 9159   1.743   3.901   8.392
 2925SOL     OW 9160   0.263   4.050   8.168
 2925SOL    HW1 9161   0.184   4.101   8.134
 2925SOL    HW2 9162   0.254   4.035   8.266
 2926SOL     OW 9163   0.916   4.634   7.739
 2926SOL    HW1 9164   0.979   4.672   7.671
 2926SOL    HW2 9165   0.956   4.551   7.778
 2927SOL     OW 9166   1.039   4.822   8.144
 2927SOL    HW1 9167   0.969   4.775   8.198
 2927SOL    HW2 9168   1.098   4.754   8.101
 2928SOL     OW 9169   1.014   3.960   8.419
 2928SOL    HW1 9170   1.006   3.924   8.326
 2928SOL    HW2 9171   1.012   3.884   8.484
 2929SOL     OW 9172   1.709   4.109   8.829
 2929SOL    HW1 9173   1.782   4.178   8.833
 2929SOL    HW2 9174   1.737   4.034   8.770
 2930SOL     OW 9175   0.672   3.927   8.937
 2930SOL    HW1 9176   0.762   3.911   8.897
 2930SOL    HW2 9177   0.680   3.932   9.036
 2931SOL     OW 9178   0.075   4.069   7.481
 2931SOL    HW1 9179  -0.017   4.041   7.452
 2931SOL    HW2 9180   0.106   4.146   7.425
 2932SOL     OW 9181   0.072   3.890   7.766
 2932SOL    HW1 9182   0.055   3.973   7.712
 2932SOL    HW2 9183   0.162   3.853   7.744
 2933SOL     OW 9184   0.716   4.289   9.156
 2933SOL    HW1 9185   0.735   4.354   9.230
 2933SOL    HW2 9186   0.776   4.209   9.165
 2934SOL     OW 9187   1.225   4.049   7.897
 2934SOL    HW1 9188   1.290   3.975   7.886
 2934SOL    HW2 9189   1.245   4.099   7.981
 2935SOL     OW 9190   1.777   4.066   9.090
 2935SOL    HW1 9191   1.760   4.097   8.996
 2935SOL    HW2 9192   1.693   4.029   9.128
 2936SOL     OW 9193   1.083   4.708   7.535
 2936SOL    HW1 9194   1.060   4.761   7.453
 2936SOL    HW2 9195   1.164   4.652   7.516
 2937SOL     OW 9196   1.824   3.916   8.675
 2937SOL    HW1 9197   1.820   3.826   8.719
 2937SOL    HW2 9198   1.827   3.905   8.576
 2938SOL     OW 9199   0.428   4.148   7.968
 2938SOL    HW1 9200   0.458   4.076   7.906
 2938SOL    HW2 9201   0.389   4.108   8.051
 2939SOL     OW 9202   0.317   4.271   8.728
 2939SOL    HW1 9203   0.355   4.212   8.800
 2939SOL    HW2 9204   0.357   4.245   8.640
 2940SOL     OW 9205   1.424   3.938   8.560
 2940SOL    HW1 9206   1.476   3.873   8.615
 2940SOL    HW2 9207   1.375   4.001   8.621
 2941SOL     OW 9208   1.001   3.758   8.602
 2941SOL    HW1 9209   0.938   3.686   8.571
 2941SOL    HW2 9210   1.094   3.722   8.602
 2942SOL     OW 9211   1.352   3.776   7.616
 2942SOL    HW1 9212   1.387   3.735   7.532
 2942SOL    HW2 9213   1.262   3.738   7.636
 2943SOL     OW 9214   1.300   4.177   8.139
 2943SOL    HW1 9215   1.241   4.257   8.143
 2943SOL    HW2 9216   1.315   4.142   8.232
 2944SOL     OW 9217   1.593   3.945   8.330
 2944SOL    HW1 9218   1.509   3.944   8.384
 2944SOL    HW2 9219   1.595   4.028   8.274
 2945SOL     OW 9220   0.230   4.352   9.423
 2945SOL    HW1 9221   0.137   4.350   9.460
 2945SOL    HW2 9222   0.231   4.313   9.331
 2946SOL     OW 9223   0.225   3.999  10.306
 2946SOL    HW1 9224   0.260   3.982  10.398
 2946SOL    HW2 9225   0.137   3.954  10.294
 2947SOL     OW 9226   0.019   4.092   9.957
 2947SOL    HW1 9227  -0.063   4.135   9.996
 2947SOL    HW2 9228  -0.009   4.019   9.894
 2948SOL     OW 9229   1.755   4.331   9.541
 2948SOL    HW1 9230   1.743   4.318   9.442
 2948SOL    HW2 9231   1.725   4.250   9.590
 2949SOL     OW 9232   0.685   4.736   9.975
 2949SOL    HW1 9233   0.754   4.720  10.045
 2949SOL    HW2 9234   0.612   4.793  10.013
 2950SOL     OW 9235   0.438   4.116  10.809
 2950SOL    HW1 9236   0.520   4.060  10.818
 2950SOL    HW2 9237   0.357   4.058  10.813
 2951SOL     OW 9238   1.603   4.171  10.047
 2951SOL    HW1 9239   1.529   4.217   9.997
 2951SOL    HW2 9240   1.654   4.239  10.100
 2952SOL     OW 9241   1.594   3.838  10.790
 2952SOL    HW1 9242   1.576   3.905  10.718
 2952SOL    HW2 9243   1.591   3.884  10.879
 2953SOL     OW 9244   0.122   4.367   9.873
 2953SOL    HW1 9245   0.077   4.279   9.890
 2953SOL    HW2 9246   0.121   4.421   9.957
 2954SOL     OW 9247   0.113   4.461  10.907
 2954SOL    HW1 9248   0.201   4.448  10.952
 2954SOL    HW2 9249   0.100   4.558  10.885
 2955SOL     OW 9250   0.809   3.728   9.812
 2955SOL    HW1 9251   0.849   3.819   9.803
 2955SOL    HW2 9252   0.709   3.736   9.818
 2956SOL     OW 9253   0.317   3.975  11.111
 2956SOL    HW1 9254   0.388   4.046  11.117
 2956SOL    HW2 9255   0.229   4.014  11.139
 2957SOL     OW 9256   1.281   4.069  10.254
 2957SOL    HW1 9257   1.195   4.019  10.241
 2957SOL    HW2 9258   1.343   4.015  10.310
 2958SOL     OW 9259   0.807   4.329  10.775
 2958SOL    HW1 9260   0.760   4.326  10.864
 2958SOL    HW2 9261   0.756   4.274  10.709
 2959SOL     OW 9262   0.991   4.134  10.552
 2959SOL    HW1 9263   0.914   4.168  10.606
 2959SOL    HW2 9264   0.957   4.083  10.473
 2960SOL     OW 9265   1.041   4.425   9.739
 2960SOL    HW1 9266   1.067   4.421   9.835
 2960SOL    HW2 9267   0.956   4.374   9.725
 2961SOL     OW 9268   0.076   4.535  10.099
 2961SOL    HW1 9269   0.175   4.523  10.108
 2961SOL    HW2 9270   0.052   4.630  10.120
 2962SOL     OW 9271   0.865   4.072   9.505
 2962SOL    HW1 9272   0.924   4.135   9.456
 2962SOL    HW2 9273   0.884   3.978   9.476
 2963SOL     OW 9274   0.550   3.920  10.195
 2963SOL    HW1 9275   0.545   3.915  10.295
 2963SOL    HW2 9276   0.552   4.016  10.166
 2964SOL     OW 9277   1.458   4.459  10.038
 2964SOL    HW1 9278   1.453   4.394  10.113
 2964SOL    HW2 9279   1.538   4.518  10.051
 2965SOL     OW 9280   0.202   4.009  10.808
 2965SOL    HW1 9281   0.122   4.069  10.795
 2965SOL    HW2 9282   0.192   3.960  10.894
 2966SOL     OW 9283   1.400   3.831   9.736
 2966SOL    HW1 9284   1.376   3.794   9.646
 2966SOL    HW2 9285   1.499   3.847   9.740
 2967SOL     OW 9286   0.382   4.424   9.790
 2967SOL    HW1 9287   0.427   4.334   9.787
 2967SOL    HW2 9288   0.288   4.413   9.823
 2968SOL     OW 9289   0.614   3.846   9.427
 2968SOL    HW1 9290   0.712   3.824   9.434
 2968SOL    HW2 9291   0.583   3.829   9.334
 2969SOL     OW 9292   0.781   3.988  11.059
 2969SOL    HW1 9293   0.848   3.927  11.102
 2969SOL    HW2 9294   0.708   4.007  11.124
 2970SOL     OW 9295   1.351   4.314  10.743
 2970SOL    HW1 9296   1.379   4.271  10.828
 2970SOL    HW2 9297   1.376   4.410  10.744
 2971SOL     OW 9298   0.922   4.227  10.209
 2971SOL    HW1 9299   0.897   4.218  10.113
 2971SOL    HW2 9300   0.970   4.145  10.240
 2972SOL     OW 9301   0.539   3.788   9.822
 2972SOL    HW1 9302   0.458   3.789   9.880
 2972SOL    HW2 9303   0.542   3.871   9.767
 2973SOL     OW 9304   0.297   3.759   9.481
 2973SOL    HW1 9305   0.346   3.843   9.460
 2973SOL    HW2 9306   0.359   3.694   9.526
 2974SOL     OW 9307   0.935   3.960   9.790
 2974SOL    HW1 9308   0.887   4.001   9.712
 2974SOL    HW2 9309   1.034   3.958   9.771
 2975SOL     OW 9310   1.076   4.407  10.774
 2975SOL    HW1 9311   0.996   4.346  10.777
 2975SOL    HW2 9312   1.157   4.354  10.750
 2976SOL     OW 9313   1.032   4.273   9.326
 2976SOL    HW1 9314   0.991   4.355   9.287
 2976SOL    HW2 9315   1.096   4.299   9.399
 2977SOL     OW 9316   0.078   4.280  10.696
 2977SOL    HW1 9317   0.170   4.279  10.655
 2977SOL    HW2 9318   0.072   4.354  10.763
 2978SOL     OW 9319   0.561   3.946  10.457
 2978SOL    HW1 9320   0.599   3.862  10.494
 2978SOL    HW2 9321   0.473   3.965  10.501
 2979SOL     OW 9322   0.866   4.178   9.952
 2979SOL    HW1 9323   0.834   4.250   9.890
 2979SOL    HW2 9324   0.890   4.097   9.899
 2980SOL     OW 9325   1.017   3.763  10.063
 2980SOL    HW1 9326   0.945   3.768   9.994
 2980SOL    HW2 9327   0.993   3.694  10.132
 2981SOL     OW 9328   1.466   4.314  10.302
 2981SOL    HW1 9329   1.436   4.219  10.309
 2981SOL    HW2 9330   1.539   4.330  10.368
 2982SOL     OW 9331   1.390   4.299   9.388
 2982SOL    HW1 9332   1.336   4.278   9.469
 2982SOL    HW2 9333   1.481   4.258   9.397
 2983SOL     OW 9334   0.527   3.980   9.638
 2983SOL    HW1 9335   0.554   3.921   9.563
 2983SOL    HW2 9336   0.527   4.075   9.607
 2984SOL     OW 9337   0.915   3.813  10.712
 2984SOL    HW1 9338   0.940   3.793  10.617
 2984SOL    HW2 9339   0.987   3.869  10.754
 2985SOL     OW 9340   0.410   4.537  10.561
 2985SOL    HW1 9341   0.496   4.549  10.611
 2985SOL    HW2 9342   0.368   4.450  10.588
 2986SOL     OW 9343   1.274   4.110  10.572
 2986SOL    HW1 9344   1.295   4.184  10.636
 2986SOL    HW2 9345   1.185   4.127  10.529
 2987SOL     OW 9346   0.566   4.261  10.175
 2987SOL    HW1 9347   0.578   4.327  10.101
 2987SOL    HW2 9348   0.612   4.295  10.258
 2988SOL     OW 9349   1.582   4.363   9.782
 2988SOL    HW1 9350   1.551   4.424   9.855
 2988SOL    HW2 9351   1.632   4.415   9.713
 2989SOL     OW 9352   0.402   4.475  10.908
 2989SOL    HW1 9353   0.470   4.530  10.861
 2989SOL    HW2 9354   0.442   4.387  10.935
 2990SOL     OW 9355   1.209   4.249   9.585
 2990SOL    HW1 9356   1.222   4.165   9.639
 2990SOL    HW2 9357   1.180   4.323   9.645
 2991SOL     OW 9358   0.307   3.937  10.541
 2991SOL    HW1 9359   0.284   3.974  10.631
 2991SOL    HW2 9360   0.277   3.842  10.535
 2992SOL     OW 9361   0.732   4.358  10.374
 2992SOL    HW1 9362   0.791   4.332  10.298
 2992SOL    HW2 9363   0.704   4.454  10.363
 2993SOL     OW 9364   0.307   3.787   9.928
 2993SOL    HW1 9365   0.296   3.881   9.961
 2993SOL    HW2 9366   0.302   3.724  10.005
 2994SOL     OW 9367   1.622   4.091   9.684
 2994SOL    HW1 9368   1.624   4.015   9.748
 2994SOL    HW2 9369   1.574   4.168   9.724
 2995SOL     OW 9370   1.540   3.998   9.435
 2995SOL    HW1 9371   1.479   3.923   9.458
 2995SOL    HW2 9372   1.562   4.050   9.518
 2996SOL     OW 9373   0.319   4.534  10.259
 2996SOL    HW1 9374   0.412   4.570  10.264
 2996SOL    HW2 9375   0.313   4.449  10.311
 2997SOL     OW 9376   0.339   4.233  10.316
 2997SOL    HW1 9377   0.287   4.150  10.299
 2997SOL    HW2 9378   0.416   4.238  10.252
 2998SOL     OW 9379   1.160   3.931  10.787
 2998SOL    HW1 9380   1.160   3.995  10.864
 2998SOL    HW2 9381   1.188   3.979  10.704
 2999SOL     OW 9382   0.040   4.268  10.424
 2999SOL    HW1 9383   0.125   4.235  10.383
 2999SOL    HW2 9384   0.053   4.283  10.522
 3000SOL     OW 9385   1.369   4.674  10.970
 3000SOL    HW1 9386   1.408   4.763  10.990
 3000SOL    HW2 9387   1.379   4.654  10.873
 3001SOL     OW 9388   0.815   4.296   9.635
 3001SOL    HW1 9389   0.822   4.207   9.589
 3001SOL    HW2 9390   0.721   4.330   9.627
 3002SOL     OW 9391   1.657   4.328  10.516
 3002SOL    HW1 9392   1.619   4.259  10.578
 3002SOL    HW2 9393   1.739   4.292  10.472
 3003SOL     OW 9394   0.671   4.188  10.579
 3003SOL    HW1 9395   0.637   4.099  10.549
 3003SOL    HW2 9396   0.697   4.242  10.499
 3004SOL     OW 9397   0.473   4.224   9.501
 3004SOL    HW1 9398   0.534   4.304   9.505
 3004SOL    HW2 9399   0.378   4.255   9.508
 3005SOL     OW 9400   1.726   3.859   9.833
 3005SOL    HW1 9401   1.799   3.842   9.766
 3005SOL    HW2 9402   1.695   3.772   9.871
 3006SOL     OW 9403   1.280   4.651   9.982
 3006SOL    HW1 9404   1.340   4.570   9.984
 3006SOL    HW2 9405   1.320   4.720   9.922
 3007SOL     OW 9406   1.841   3.899  10.273
 3007SOL    HW1 9407   1.880   3.814  10.237
 3007SOL    HW2 9408   1.743   3.901  10.254
 3008SOL     OW 9409   0.263   4.050  10.030
 3008SOL    HW1 9410   0.184   4.101   9.996
 3008SOL    HW2 9411   0.254   4.035  10.128
 3009SOL     OW 9412   0.916   4.634   9.601
 3009SOL    HW1 9413   0.979   4.672   9.533
 3009SOL    HW2 9414   0.956   4.551   9.640
 3010SOL     OW 9415   1.039   4.822  10.006
 3010SOL    HW1 9416   0.969   4.775  10.060
 3010SOL    HW2 9417   1.098   4.754   9.963
 3011SOL     OW 9418   1.014   3.960  10.281
 3011SOL    HW1 9419   1.006   3.924  10.188
 3011SOL    HW2 9420   1.012   3.884  10.346
 3012SOL     OW 9421   1.709   4.109  10.691
 3012SOL    HW1 9422   1.782   4.178  10.695
 3012SOL    HW2 9423   1.737   4.034  10.632
 3013SOL     OW 9424   0.672   3.927  10.799
 3013SOL    HW1 9425   0.762   3.911  10.759
 3013SOL    HW2 9426   0.680   3.932  10.898
 3014SOL     OW 9427   0.075   4.069   9.343
 3014SOL    HW1 9428  -0.017   4.041   9.314
 3014SOL    HW2 9429   0.106   4.146   9.287
 3015SOL     OW 9430   0.072   3.890   9.628
 3015SOL    HW1 9431   0.055   3.973   9.574
 3015SOL    HW2 9432   0.162   3.853   9.606
 3016SOL     OW 9433   0.716   4.289  11.018
 3016SOL    HW1 9434   0.735   4.354  11.092
 3016SOL    HW2 9435   0.776   4.209  11.027
 3017SOL     OW 9436   1.225   4.049   9.759
 3017SOL    HW1 9437   1.290   3.975   9.748
 3017SOL    HW2 9438   1.245   4.099   9.843
 3018SOL     OW 9439   1.777   4.066  10.952
 3018SOL    HW1 9440   1.760   4.097  10.858
 3018SOL    HW2 9441   1.693   4.029  10.990
 3019SOL     OW 9442   1.083   4.708   9.397
 3019SOL    HW1 9443   1.060   4.761   9.315
 3019SOL    HW2 9444   1.164   4.652   9.378
 3020SOL     OW 9445   1.824   3.916  10.537
 3020SOL    HW1 9446   1.820   3.826  10.581
 3020SOL    HW2 9447   1.827   3.905  10.438
 3021SOL     OW 9448   0.428   4.148   9.830
 3021SOL    HW1 9449   0.458   4.076   9.768
 3021SOL    HW2 9450   0.389   4.108   9.913
 3022SOL     OW 9451   0.317   4.271  10.590
 3022SOL    HW1 9452   0.355   4.212  10.662
 3022SOL    HW2 9453   0.357   4.245  10.502
 3023SOL     OW 9454   1.424   3.938  10.422
 3023SOL    HW1 9455   1.476   3.873  10.477
 3023SOL    HW2 9456   1.375   4.001  10.483
 3024SOL     OW 9457   1.001   3.758  10.464
 3024SOL    HW1 9458   0.938   3.686  10.433
 3024SOL    HW2 9459   1.094   3.722  10.464
 3025SOL     OW 9460   1.352   3.776   9.478
 3025SOL    HW1 9461   1.387   3.735   9.394
 3025SOL    HW2 9462   1.262   3.738   9.498
 3026SOL     OW 9463   1.300   4.177  10.001
 3026SOL    HW1 9464   1.241   4.257  10.005
 3026SOL    HW2 9465   1.315   4.142  10.094
 3027SOL     OW 9466   1.593   3.945  10.192
 3027SOL    HW1 9467   1.509   3.944  10.246
 3027SOL    HW2 9468   1.595   4.028  10.136
 3028SOL     OW 9469   2.092   0.628   0.113
 3028SOL    HW1 9470   1.999   0.626   0.150
 3028SOL    HW2 9471   2.093   0.589   0.021
 3029SOL     OW 9472   2.087   0.275   0.996
 3029SOL    HW1 9473   2.122   0.258   1.088
 3029SOL    HW2 9474   1.999   0.230   0.984
 3030SOL     OW 9475   1.881   0.368   0.647
 3030SOL    HW1 9476   1.799   0.411   0.686
 3030SOL    HW2 9477   1.853   0.295   0.584
 3031SOL     OW 9478   2.431   1.275   1.165
 3031SOL    HW1 9479   2.338   1.268   1.128
 3031SOL    HW2 9480   2.442   1.364   1.209
 3032SOL     OW 9481   3.417   1.511   0.703
 3032SOL    HW1 9482   3.360   1.495   0.784
 3032SOL    HW2 9483   3.358   1.521   0.623
 3033SOL     OW 9484   2.997   0.703   0.717
 3033SOL    HW1 9485   3.054   0.781   0.692
 3033SOL    HW2 9486   2.937   0.729   0.793
 3034SOL     OW 9487   3.617   0.607   0.231
 3034SOL    HW1 9488   3.605   0.594   0.132
 3034SOL    HW2 9489   3.587   0.526   0.280
 3035SOL     OW 9490   2.630   1.144   1.023
 3035SOL    HW1 9491   2.552   1.161   1.083
 3035SOL    HW2 9492   2.664   1.231   0.987
 3036SOL     OW 9493   2.712   0.798   1.823
 3036SOL    HW1 9494   2.708   0.874   1.888
 3036SOL    HW2 9495   2.734   0.834   1.732
 3037SOL     OW 9496   2.547   1.012   0.665
 3037SOL    HW1 9497   2.616   0.996   0.735
 3037SOL    HW2 9498   2.474   1.069   0.703
 3038SOL     OW 9499   2.548   1.161   1.803
 3038SOL    HW1 9500   2.608   1.240   1.817
 3038SOL    HW2 9501   2.462   1.192   1.762
 3039SOL     OW 9502   2.197   1.435   1.061
 3039SOL    HW1 9503   2.119   1.404   1.008
 3039SOL    HW2 9504   2.255   1.493   1.004
 3040SOL     OW 9505   3.322   1.505   1.339
 3040SOL    HW1 9506   3.346   1.599   1.365
 3040SOL    HW2 9507   3.306   1.451   1.421
 3041SOL     OW 9508   2.300   0.392   1.499
 3041SOL    HW1 9509   2.382   0.336   1.508
 3041SOL    HW2 9510   2.219   0.334   1.503
 3042SOL     OW 9511   3.465   0.447   0.737
 3042SOL    HW1 9512   3.391   0.493   0.687
 3042SOL    HW2 9513   3.516   0.515   0.790
 3043SOL     OW 9514   2.093   1.713   0.483
 3043SOL    HW1 9515   2.127   1.790   0.537
 3043SOL    HW2 9516   2.137   1.713   0.393
 3044SOL     OW 9517   2.989   1.341   1.690
 3044SOL    HW1 9518   3.036   1.341   1.778
 3044SOL    HW2 9519   2.941   1.254   1.679
 3045SOL     OW 9520   2.092   1.434   0.538
 3045SOL    HW1 9521   2.066   1.530   0.538
 3045SOL    HW2 9522   2.021   1.380   0.583
 3046SOL     OW 9523   2.102   1.091   0.886
 3046SOL    HW1 9524   2.116   1.007   0.938
 3046SOL    HW2 9525   2.047   1.155   0.941
 3047SOL     OW 9526   2.482   1.786   1.439
 3047SOL    HW1 9527   2.390   1.769   1.474
 3047SOL    HW2 9528   2.510   1.878   1.465
 3048SOL     OW 9529   2.468   0.964   0.123
 3048SOL    HW1 9530   2.475   1.048   0.069
 3048SOL    HW2 9531   2.514   0.977   0.211
 3049SOL     OW 9532   3.456   0.114   1.480
 3049SOL    HW1 9533   3.438   0.181   1.408
 3049SOL    HW2 9534   3.453   0.160   1.569
 3050SOL     OW 9535   1.984   0.643   0.563
 3050SOL    HW1 9536   1.939   0.555   0.580
 3050SOL    HW2 9537   1.983   0.697   0.647
 3051SOL     OW 9538   3.704   1.767   0.359
 3051SOL    HW1 9539   3.758   1.738   0.439
 3051SOL    HW2 9540   3.734   1.857   0.330
 3052SOL     OW 9541   1.889   1.596   0.117
 3052SOL    HW1 9542   1.870   1.500   0.138
 3052SOL    HW2 9543   1.856   1.654   0.192
 3053SOL     OW 9544   3.551   0.922   0.612
 3053SOL    HW1 9545   3.646   0.893   0.620
 3053SOL    HW2 9546   3.543   0.987   0.537
 3054SOL     OW 9547   3.503   1.108   0.432
 3054SOL    HW1 9548   3.589   1.110   0.380
 3054SOL    HW2 9549   3.517   1.155   0.520
 3055SOL     OW 9550   1.975   0.737   1.597
 3055SOL    HW1 9551   2.063   0.724   1.642
 3055SOL    HW2 9552   1.962   0.834   1.575
 3056SOL     OW 9553   2.475   1.365   0.726
 3056SOL    HW1 9554   2.426   1.278   0.735
 3056SOL    HW2 9555   2.452   1.408   0.639
 3057SOL     OW 9556   3.155   1.228   1.423
 3057SOL    HW1 9557   3.192   1.155   1.365
 3057SOL    HW2 9558   3.207   1.233   1.508
 3058SOL     OW 9559   2.671   0.004   0.502
 3058SOL    HW1 9560   2.711   0.095   0.493
 3058SOL    HW2 9561   2.571   0.012   0.508
 3059SOL     OW 9562   2.059   0.976   1.264
 3059SOL    HW1 9563   2.148   0.931   1.250
 3059SOL    HW2 9564   1.986   0.911   1.245
 3060SOL     OW 9565   3.387   0.999   0.190
 3060SOL    HW1 9566   3.324   0.923   0.203
 3060SOL    HW2 9567   3.435   1.017   0.276
 3061SOL     OW 9568   3.049   1.792   1.616
 3061SOL    HW1 9569   3.073   1.852   1.540
 3061SOL    HW2 9570   3.056   1.697   1.586
 3062SOL     OW 9571   2.179   0.251   1.801
 3062SOL    HW1 9572   2.250   0.322   1.807
 3062SOL    HW2 9573   2.091   0.290   1.829
 3063SOL     OW 9574   3.328   1.417   0.953
 3063SOL    HW1 9575   3.269   1.423   1.033
 3063SOL    HW2 9576   3.313   1.329   0.907
 3064SOL     OW 9577   3.529   1.714   0.572
 3064SOL    HW1 9578   3.488   1.691   0.484
 3064SOL    HW2 9579   3.511   1.640   0.637
 3065SOL     OW 9580   2.460   0.729   0.270
 3065SOL    HW1 9581   2.484   0.798   0.202
 3065SOL    HW2 9582   2.382   0.762   0.324
 3066SOL     OW 9583   3.143   0.345   0.944
 3066SOL    HW1 9584   3.057   0.295   0.931
 3066SOL    HW2 9585   3.205   0.291   1.000
 3067SOL     OW 9586   3.438   1.662   0.307
 3067SOL    HW1 9587   3.527   1.708   0.310
 3067SOL    HW2 9588   3.417   1.638   0.212
 3068SOL     OW 9589   2.669   0.605   1.465
 3068SOL    HW1 9590   2.622   0.602   1.554
 3068SOL    HW2 9591   2.618   0.550   1.399
 3069SOL     OW 9592   3.256   0.469   1.674
 3069SOL    HW1 9593   3.236   0.512   1.762
 3069SOL    HW2 9594   3.334   0.407   1.683
 3070SOL     OW 9595   2.835   0.890   1.572
 3070SOL    HW1 9596   2.881   0.806   1.543
 3070SOL    HW2 9597   2.779   0.924   1.497
 3071SOL     OW 9598   2.853   0.410   1.242
 3071SOL    HW1 9599   2.776   0.444   1.296
 3071SOL    HW2 9600   2.819   0.359   1.163
 3072SOL     OW 9601   2.903   0.701   0.429
 3072SOL    HW1 9602   2.929   0.697   0.525
 3072SOL    HW2 9603   2.818   0.650   0.415
 3073SOL     OW 9604   1.938   0.811   0.789
 3073SOL    HW1 9605   2.037   0.799   0.798
 3073SOL    HW2 9606   1.914   0.906   0.810
 3074SOL     OW 9607   1.992   1.821   1.571
 3074SOL    HW1 9608   1.982   1.806   1.670
 3074SOL    HW2 9609   1.906   1.857   1.535
 3075SOL     OW 9610   2.727   0.348   0.195
 3075SOL    HW1 9611   2.786   0.411   0.146
 3075SOL    HW2 9612   2.746   0.254   0.166
 3076SOL     OW 9613   3.581   0.585   1.831
 3076SOL    HW1 9614   3.555   0.674   1.795
 3076SOL    HW2 9615   3.579   0.517   1.758
 3077SOL     OW 9616   3.224   1.144   0.545
 3077SOL    HW1 9617   3.307   1.115   0.497
 3077SOL    HW2 9618   3.175   1.211   0.489
 3078SOL     OW 9619   2.412   0.196   0.885
 3078SOL    HW1 9620   2.407   0.191   0.985
 3078SOL    HW2 9621   2.414   0.292   0.856
 3079SOL     OW 9622   2.870   1.456   0.477
 3079SOL    HW1 9623   2.824   1.528   0.425
 3079SOL    HW2 9624   2.866   1.476   0.575
 3080SOL     OW 9625   2.213   1.801   0.853
 3080SOL    HW1 9626   2.263   1.715   0.859
 3080SOL    HW2 9627   2.278   1.878   0.850
 3081SOL     OW 9628   3.657   1.066   0.873
 3081SOL    HW1 9629   3.595   1.051   0.797
 3081SOL    HW2 9630   3.605   1.077   0.958
 3082SOL     OW 9631   3.089   1.550   1.506
 3082SOL    HW1 9632   3.095   1.473   1.570
 3082SOL    HW2 9633   3.037   1.524   1.426
 3083SOL     OW 9634   2.183   0.943   0.242
 3083SOL    HW1 9635   2.265   0.982   0.200
 3083SOL    HW2 9636   2.156   0.861   0.193
 3084SOL     OW 9637   3.320   0.735   0.728
 3084SOL    HW1 9638   3.315   0.670   0.803
 3084SOL    HW2 9639   3.400   0.794   0.741
 3085SOL     OW 9640   2.323   1.266   1.727
 3085SOL    HW1 9641   2.273   1.267   1.641
 3085SOL    HW2 9642   2.260   1.248   1.803
 3086SOL     OW 9643   2.973   1.776   0.237
 3086SOL    HW1 9644   2.913   1.714   0.287
 3086SOL    HW2 9645   3.004   1.732   0.152
 3087SOL     OW 9646   2.064   0.285   1.498
 3087SOL    HW1 9647   1.984   0.345   1.485
 3087SOL    HW2 9648   2.054   0.236   1.584
 3088SOL     OW 9649   3.494   1.377   0.081
 3088SOL    HW1 9650   3.462   1.471   0.071
 3088SOL    HW2 9651   3.418   1.314   0.069
 3089SOL     OW 9652   2.326   1.743   0.323
 3089SOL    HW1 9653   2.359   1.782   0.409
 3089SOL    HW2 9654   2.402   1.736   0.258
 3090SOL     OW 9655   3.262   0.107   0.426
 3090SOL    HW1 9656   3.238   0.070   0.336
 3090SOL    HW2 9657   3.361   0.123   0.430
 3091SOL     OW 9658   2.111   1.785   1.241
 3091SOL    HW1 9659   2.168   1.720   1.291
 3091SOL    HW2 9660   2.095   1.752   1.148
 3092SOL     OW 9661   2.802   1.698   0.904
 3092SOL    HW1 9662   2.882   1.641   0.925
 3092SOL    HW2 9663   2.753   1.658   0.827
 3093SOL     OW 9664   2.244   0.700   0.480
 3093SOL    HW1 9665   2.289   0.610   0.477
 3093SOL    HW2 9666   2.150   0.689   0.513
 3094SOL     OW 9667   3.409   0.222   1.729
 3094SOL    HW1 9668   3.404   0.259   1.821
 3094SOL    HW2 9669   3.337   0.153   1.717
 3095SOL     OW 9670   2.476   0.122   0.117
 3095SOL    HW1 9671   2.574   0.100   0.124
 3095SOL    HW2 9672   2.445   0.105   0.024
 3096SOL     OW 9673   2.643   0.264   1.749
 3096SOL    HW1 9674   2.710   0.203   1.792
 3096SOL    HW2 9675   2.570   0.283   1.814
 3097SOL     OW 9676   2.750   1.514   1.195
 3097SOL    HW1 9677   2.727   1.489   1.101
 3097SOL    HW2 9678   2.811   1.445   1.234
 3098SOL     OW 9679   3.213   0.590   1.433
 3098SOL    HW1 9680   3.241   0.547   1.518
 3098SOL    HW2 9681   3.238   0.686   1.434
 3099SOL     OW 9682   2.665   1.402   0.924
 3099SOL    HW1 9683   2.755   1.416   0.882
 3099SOL    HW2 9684   2.594   1.404   0.853
 3100SOL     OW 9685   2.784   0.503   0.899
 3100SOL    HW1 9686   2.759   0.494   0.803
 3100SOL    HW2 9687   2.832   0.421   0.930
 3101SOL     OW 9688   2.401   0.064   0.512
 3101SOL    HW1 9689   2.320   0.065   0.570
 3101SOL    HW2 9690   2.404   0.147   0.457
 3102SOL     OW 9691   3.296   1.188   0.041
 3102SOL    HW1 9692   3.328   1.112   0.098
 3102SOL    HW2 9693   3.204   1.215   0.071
 3103SOL     OW 9694   2.159   0.035   0.171
 3103SOL    HW1 9695   2.208   0.119   0.150
 3103SOL    HW2 9696   2.221  -0.030   0.216
 3104SOL     OW 9697   2.797   0.236   0.480
 3104SOL    HW1 9698   2.749   0.277   0.402
 3104SOL    HW2 9699   2.896   0.234   0.461
 3105SOL     OW 9700   2.938   0.683   1.464
 3105SOL    HW1 9701   2.858   0.622   1.467
 3105SOL    HW2 9702   3.019   0.630   1.440
 3106SOL     OW 9703   3.089   1.570   0.793
 3106SOL    HW1 9704   3.110   1.644   0.728
 3106SOL    HW2 9705   3.157   1.570   0.866
 3107SOL     OW 9706   2.321   1.152   0.741
 3107SOL    HW1 9707   2.250   1.125   0.806
 3107SOL    HW2 9708   2.295   1.124   0.648
 3108SOL     OW 9709   3.133   1.797   0.591
 3108SOL    HW1 9710   3.177   1.861   0.527
 3108SOL    HW2 9711   3.083   1.849   0.661
 3109SOL     OW 9712   2.894   0.549   0.016
 3109SOL    HW1 9713   2.853   0.631  -0.023
 3109SOL    HW2 9714   2.958   0.575   0.089
 3110SOL     OW 9715   1.940   0.556   1.386
 3110SOL    HW1 9716   2.032   0.555   1.345
 3110SOL    HW2 9717   1.934   0.630   1.453
 3111SOL     OW 9718   2.423   0.222   1.147
 3111SOL    HW1 9719   2.461   0.138   1.184
 3111SOL    HW2 9720   2.335   0.241   1.191
 3112SOL     OW 9721   2.728   0.454   0.642
 3112SOL    HW1 9722   2.696   0.526   0.580
 3112SOL    HW2 9723   2.752   0.373   0.589
 3113SOL     OW 9724   2.879   0.039   0.753
 3113SOL    HW1 9725   2.807   0.044   0.684
 3113SOL    HW2 9726   2.855  -0.030   0.822
 3114SOL     OW 9727   3.291   1.173   0.867
 3114SOL    HW1 9728   3.236   1.089   0.860
 3114SOL    HW2 9729   3.317   1.202   0.775
 3115SOL     OW 9730   3.328   0.590   0.992
 3115SOL    HW1 9731   3.298   0.495   0.999
 3115SOL    HW2 9732   3.401   0.606   1.058
 3116SOL     OW 9733   3.719   0.833   0.377
 3116SOL    HW1 9734   3.761   0.769   0.441
 3116SOL    HW2 9735   3.681   0.782   0.299
 3117SOL     OW 9736   2.350   1.385   0.174
 3117SOL    HW1 9737   2.263   1.370   0.221
 3117SOL    HW2 9738   2.333   1.411   0.079
 3118SOL     OW 9739   3.526   1.280   0.657
 3118SOL    HW1 9740   3.625   1.288   0.671
 3118SOL    HW2 9741   3.481   1.364   0.688
 3119SOL     OW 9742   3.252   0.575   0.078
 3119SOL    HW1 9743   3.198   0.554   0.159
 3119SOL    HW2 9744   3.343   0.534   0.087
 3120SOL     OW 9745   2.389   0.256   0.328
 3120SOL    HW1 9746   2.416   0.197   0.253
 3120SOL    HW2 9747   2.389   0.351   0.297
 3121SOL     OW 9748   3.616   1.223   1.588
 3121SOL    HW1 9749   3.707   1.184   1.575
 3121SOL    HW2 9750   3.624   1.319   1.612
 3122SOL     OW 9751   2.926   1.347   1.340
 3122SOL    HW1 9752   2.846   1.324   1.395
 3122SOL    HW2 9753   3.009   1.321   1.389
 3123SOL     OW 9754   3.454   1.629   1.625
 3123SOL    HW1 9755   3.481   1.663   1.535
 3123SOL    HW2 9756   3.533   1.591   1.671
 3124SOL     OW 9757   2.973   1.195   1.100
 3124SOL    HW1 9758   2.933   1.239   1.181
 3124SOL    HW2 9759   2.932   1.232   1.017
 3125SOL     OW 9760   3.500   1.099   1.079
 3125SOL    HW1 9761   3.505   1.180   1.138
 3125SOL    HW2 9762   3.414   1.101   1.028
 3126SOL     OW 9763   2.777   0.089   1.402
 3126SOL    HW1 9764   2.802   0.069   1.307
 3126SOL    HW2 9765   2.849   0.145   1.444
 3127SOL     OW 9766   2.842   1.116   1.719
 3127SOL    HW1 9767   2.743   1.122   1.729
 3127SOL    HW2 9768   2.865   1.036   1.663
 3128SOL     OW 9769   2.567   1.050   0.368
 3128SOL    HW1 9770   2.553   1.057   0.467
 3128SOL    HW2 9771   2.651   0.999   0.350
 3129SOL     OW 9772   2.272   0.813   1.251
 3129SOL    HW1 9773   2.358   0.825   1.301
 3129SOL    HW2 9774   2.230   0.726   1.278
 3130SOL     OW 9775   3.136   0.386   1.262
 3130SOL    HW1 9776   3.157   0.460   1.326
 3130SOL    HW2 9777   3.047   0.403   1.219
 3131SOL     OW 9778   1.926   1.564   1.331
 3131SOL    HW1 9779   1.880   1.646   1.297
 3131SOL    HW2 9780   2.024   1.583   1.340
 3132SOL     OW 9781   2.229   1.100   0.501
 3132SOL    HW1 9782   2.222   1.183   0.445
 3132SOL    HW2 9783   2.233   1.020   0.441
 3133SOL     OW 9784   2.428   0.537   0.865
 3133SOL    HW1 9785   2.440   0.603   0.791
 3133SOL    HW2 9786   2.474   0.571   0.948
 3134SOL     OW 9787   3.114   1.348   0.388
 3134SOL    HW1 9788   3.164   1.425   0.428
 3134SOL    HW2 9789   3.019   1.350   0.420
 3135SOL     OW 9790   3.134   1.445   1.142
 3135SOL    HW1 9791   3.181   1.458   1.229
 3135SOL    HW2 9792   3.068   1.371   1.151
 3136SOL     OW 9793   3.444   0.639   0.472
 3136SOL    HW1 9794   3.413   0.700   0.545
 3136SOL    HW2 9795   3.494   0.691   0.403
 3137SOL     OW 9796   2.216   1.510   1.329
 3137SOL    HW1 9797   2.195   1.466   1.242
 3137SOL    HW2 9798   2.313   1.536   1.332
 3138SOL     OW 9799   2.264   0.751   1.598
 3138SOL    HW1 9800   2.332   0.806   1.551
 3138SOL    HW2 9801   2.304   0.663   1.625
 3139SOL     OW 9802   3.449   0.779   1.670
 3139SOL    HW1 9803   3.357   0.817   1.665
 3139SOL    HW2 9804   3.509   0.826   1.605
 3140SOL     OW 9805   2.875   0.105   1.770
 3140SOL    HW1 9806   2.881   0.190   1.718
 3140SOL    HW2 9807   2.907   0.029   1.713
 3141SOL     OW 9808   2.366   0.050   1.740
 3141SOL    HW1 9809   2.324  -0.007   1.670
 3141SOL    HW2 9810   2.300   0.119   1.772
 3142SOL     OW 9811   2.435   0.870   1.029
 3142SOL    HW1 9812   2.479   0.959   1.020
 3142SOL    HW2 9813   2.372   0.870   1.106
 3143SOL     OW 9814   3.222   0.862   1.045
 3143SOL    HW1 9815   3.147   0.862   0.979
 3143SOL    HW2 9816   3.259   0.770   1.054
 3144SOL     OW 9817   3.071   0.525   0.275
 3144SOL    HW1 9818   3.084   0.441   0.329
 3144SOL    HW2 9819   3.042   0.599   0.335
 3145SOL     OW 9820   2.169   0.213   1.231
 3145SOL    HW1 9821   2.146   0.250   1.321
 3145SOL    HW2 9822   2.139   0.118   1.225
 3146SOL     OW 9823   1.899   1.310   1.282
 3146SOL    HW1 9824   1.952   1.261   1.350
 3146SOL    HW2 9825   1.921   1.408   1.287
 3147SOL     OW 9826   2.594   0.634   1.064
 3147SOL    HW1 9827   2.653   0.608   0.988
 3147SOL    HW2 9828   2.566   0.730   1.053
 3148SOL     OW 9829   3.590   0.935   1.854
 3148SOL    HW1 9830   3.544   0.928   1.765
 3148SOL    HW2 9831   3.528   0.979   1.920
 3149SOL     OW 9832   2.169   0.063   0.618
 3149SOL    HW1 9833   2.158   0.157   0.651
 3149SOL    HW2 9834   2.164   0.000   0.695
 3150SOL     OW 9835   3.484   0.367   0.374
 3150SOL    HW1 9836   3.486   0.291   0.438
 3150SOL    HW2 9837   3.436   0.444   0.414
 3151SOL     OW 9838   2.885   0.766   0.966
 3151SOL    HW1 9839   2.900   0.787   1.062
 3151SOL    HW2 9840   2.855   0.671   0.957
 3152SOL     OW 9841   2.842   1.573   1.700
 3152SOL    HW1 9842   2.822   1.617   1.612
 3152SOL    HW2 9843   2.881   1.482   1.684
 3153SOL     OW 9844   3.721   1.518   1.605
 3153SOL    HW1 9845   3.735   1.545   1.510
 3153SOL    HW2 9846   3.804   1.540   1.658
 3154SOL     OW 9847   2.212   0.898   1.804
 3154SOL    HW1 9848   2.288   0.942   1.852
 3154SOL    HW2 9849   2.247   0.851   1.722
 3155SOL     OW 9850   3.402   0.274   0.125
 3155SOL    HW1 9851   3.341   0.199   0.148
 3155SOL    HW2 9852   3.424   0.326   0.208
 3156SOL     OW 9853   3.165   0.838   0.042
 3156SOL    HW1 9854   3.199   0.745   0.057
 3156SOL    HW2 9855   3.183   0.865  -0.053
 3157SOL     OW 9856   2.930   1.333   0.849
 3157SOL    HW1 9857   2.937   1.249   0.794
 3157SOL    HW2 9858   2.992   1.402   0.813
 3158SOL     OW 9859   2.181   0.810   0.949
 3158SOL    HW1 9860   2.274   0.846   0.954
 3158SOL    HW2 9861   2.175   0.725   1.001
 3159SOL     OW 9862   2.201   0.509   1.006
 3159SOL    HW1 9863   2.149   0.426   0.989
 3159SOL    HW2 9864   2.278   0.514   0.942
 3160SOL     OW 9865   3.000   0.380   1.678
 3160SOL    HW1 9866   2.955   0.443   1.742
 3160SOL    HW2 9867   3.093   0.411   1.661
 3161SOL     OW 9868   3.022   0.207   1.477
 3161SOL    HW1 9869   3.022   0.271   1.554
 3161SOL    HW2 9870   3.050   0.255   1.394
 3162SOL     OW 9871   1.870   1.326   0.200
 3162SOL    HW1 9872   1.777   1.347   0.169
 3162SOL    HW2 9873   1.880   1.227   0.213
 3163SOL     OW 9874   1.950   1.801   0.927
 3163SOL    HW1 9875   1.908   1.715   0.900
 3163SOL    HW2 9876   2.044   1.804   0.893
 3164SOL     OW 9877   2.366   1.568   0.910
 3164SOL    HW1 9878   2.432   1.642   0.919
 3164SOL    HW2 9879   2.410   1.489   0.868
 3165SOL     OW 9880   2.864   0.796   1.238
 3165SOL    HW1 9881   2.905   0.764   1.324
 3165SOL    HW2 9882   2.768   0.769   1.235
 3166SOL     OW 9883   1.902   0.544   1.114
 3166SOL    HW1 9884   1.987   0.511   1.073
 3166SOL    HW2 9885   1.915   0.559   1.212
 3167SOL     OW 9886   2.051   0.520   1.722
 3167SOL    HW1 9887   2.110   0.480   1.652
 3167SOL    HW2 9888   1.993   0.591   1.681
 3168SOL     OW 9889   3.231   0.950   1.660
 3168SOL    HW1 9890   3.270   1.039   1.680
 3168SOL    HW2 9891   3.241   0.930   1.563
 3169SOL     OW 9892   2.677   0.572   0.325
 3169SOL    HW1 9893   2.684   0.483   0.279
 3169SOL    HW2 9894   2.583   0.606   0.317
 3170SOL     OW 9895   3.519   0.604   1.206
 3170SOL    HW1 9896   3.481   0.535   1.268
 3170SOL    HW2 9897   3.601   0.568   1.162
 3171SOL     OW 9898   2.114   1.564   1.744
 3171SOL    HW1 9899   2.084   1.621   1.820
 3171SOL    HW2 9900   2.107   1.467   1.770
 3172SOL     OW 9901   2.533   0.464   1.269
 3172SOL    HW1 9902   2.499   0.375   1.239
 3172SOL    HW2 9903   2.559   0.518   1.189
 3173SOL     OW 9904   2.792   1.678   1.465
 3173SOL    HW1 9905   2.768   1.660   1.370
 3173SOL    HW2 9906   2.822   1.772   1.475
 3174SOL     OW 9907   2.335   0.500   0.191
 3174SOL    HW1 9908   2.396   0.580   0.195
 3174SOL    HW2 9909   2.240   0.531   0.198
 3175SOL     OW 9910   2.021   1.137   1.466
 3175SOL    HW1 9911   2.043   1.076   1.542
 3175SOL    HW2 9912   2.031   1.088   1.380
 3176SOL     OW 9913   3.209   1.059   1.234
 3176SOL    HW1 9914   3.233   0.996   1.160
 3176SOL    HW2 9915   3.119   1.099   1.216
 3177SOL     OW 9916   3.164   0.855   0.309
 3177SOL    HW1 9917   3.078   0.824   0.351
 3177SOL    HW2 9918   3.160   0.841   0.210
 3178SOL     OW 9919   3.621   1.747   1.154
 3178SOL    HW1 9920   3.682   1.777   1.081
 3178SOL    HW2 9921   3.583   1.658   1.132
 3179SOL     OW 9922   3.114   1.731   1.128
 3179SOL    HW1 9923   3.198   1.736   1.074
 3179SOL    HW2 9924   3.091   1.635   1.146
 3180SOL     OW 9925   1.945   1.258   1.022
 3180SOL    HW1 9926   1.940   1.257   1.122
 3180SOL    HW2 9927   1.862   1.217   0.984
 3181SOL     OW 9928   2.550   1.662   1.716
 3181SOL    HW1 9929   2.494   1.743   1.725
 3181SOL    HW2 9930   2.602   1.666   1.630
 3182SOL     OW 9931   2.765   0.086   0.133
 3182SOL    HW1 9932   2.816   0.087   0.047
 3182SOL    HW2 9933   2.821   0.044   0.204
 3183SOL     OW 9934   3.588   0.135   0.523
 3183SOL    HW1 9935   3.661   0.118   0.456
 3183SOL    HW2 9936   3.557   0.048   0.561
 3184SOL     OW 9937   3.250   1.573   0.477
 3184SOL    HW1 9938   3.317   1.585   0.403
 3184SOL    HW2 9939   3.210   1.662   0.500
 3185SOL     OW 9940   1.992   1.794   1.851
 3185SOL    HW1 9941   1.951   1.720   1.904
 3185SOL    HW2 9942   2.056   1.845   1.909
 3186SOL     OW 9943   3.142   0.927   0.672
 3186SOL    HW1 9944   3.202   0.846   0.674
 3186SOL    HW2 9945   3.182   0.996   0.612
 3187SOL     OW 9946   2.692   1.273   1.422
 3187SOL    HW1 9947   2.687   1.306   1.517
 3187SOL    HW2 9948   2.606   1.292   1.376
 3188SOL     OW 9949   2.534   1.616   0.154
 3188SOL    HW1 9950   2.543   1.626   0.055
 3188SOL    HW2 9951   2.494   1.527   0.175
 3189SOL     OW 9952   3.512   1.720   1.394
 3189SOL    HW1 9953   3.565   1.730   1.310
 3189SOL    HW2 9954   3.485   1.810   1.428
 3190SOL     OW 9955   3.703   0.175   0.963
 3190SOL    HW1 9956   3.742   0.090   0.927
 3190SOL    HW2 9957   3.605   0.177   0.944
 3191SOL     OW 9958   2.125   0.326   0.720
 3191SOL    HW1 9959   2.046   0.377   0.686
 3191SOL    HW2 9960   2.116   0.311   0.818
 3192SOL     OW 9961   3.056   1.612   0.031
 3192SOL    HW1 9962   3.062   1.519   0.068
 3192SOL    HW2 9963   2.997   1.612  -0.049
 3193SOL     OW 9964   2.684   1.002   1.372
 3193SOL    HW1 9965   2.724   1.001   1.280
 3193SOL    HW2 9966   2.694   1.094   1.412
 3194SOL     OW 9967   2.778   0.910   0.291
 3194SOL    HW1 9968   2.841   0.948   0.223
 3194SOL    HW2 9969   2.818   0.827   0.330
 3195SOL     OW 9970   3.366   1.607   0.044
 3195SOL    HW1 9971   3.274   1.644   0.051
 3195SOL    HW2 9972   3.404   1.627  -0.046
 3196SOL     OW 9973   2.234   1.288   1.490
 3196SOL    HW1 9974   2.221   1.381   1.456
 3196SOL    HW2 9975   2.150   1.236   1.477
 3197SOL     OW 9976   3.476   1.292   1.289
 3197SOL    HW1 9977   3.536   1.295   1.369
 3197SOL    HW2 9978   3.401   1.356   1.302
 3198SOL     OW 9979   2.901   1.098   0.696
 3198SOL    HW1 9980   2.831   1.051   0.750
 3198SOL    HW2 9981   2.960   1.030   0.653
 3199SOL     OW 9982   2.876   0.236   0.971
 3199SOL    HW1 9983   2.868   0.200   0.878
 3199SOL    HW2 9984   2.874   0.160   1.036
 3200SOL     OW 9985   2.452   1.487   0.491
 3200SOL    HW1 9986   2.494   1.429   0.421
 3200SOL    HW2 9987   2.408   1.566   0.447
 3201SOL     OW 9988   3.571   0.385   1.381
 3201SOL    HW1 9989   3.644   0.454   1.385
 3201SOL    HW2 9990   3.599   0.310   1.322
 3202SOL     OW 9991   2.117   1.348   0.290
 3202SOL    HW1 9992   2.021   1.349   0.263
 3202SOL    HW2 9993   2.129   1.401   0.374
 3203SOL     OW 9994   1.967   1.013   1.726
 3203SOL    HW1 9995   1.890   0.980   1.780
 3203SOL    HW2 9996   2.052   0.983   1.768
 3204SOL     OW 9997   2.534   0.203   1.489
 3204SOL    HW1 9998   2.624   0.187   1.449
 3204SOL    HW2 9999   2.542   0.208   1.588
 3205SOL     OW10000   1.937   0.345   0.033
 3205SOL    HW110001   1.845   0.317   0.004
 3205SOL    HW210002   1.968   0.422  -0.023
 3206SOL     OW10003   3.302   0.856   1.398
 3206SOL    HW110004   3.245   0.908   1.335
 3206SOL    HW210005   3.398   0.868   1.374
 3207SOL     OW10006   1.934   0.166   0.318
 3207SOL    HW110007   1.917   0.249   0.264
 3207SOL    HW210008   2.024   0.129   0.296
 3208SOL     OW10009   3.045   1.335   0.119
 3208SOL    HW110010   2.946   1.324   0.121
 3208SOL    HW210011   3.079   1.350   0.212
 3209SOL     OW10012   2.475   0.842   1.431
 3209SOL    HW110013   2.531   0.923   1.414
 3209SOL    HW210014   2.534   0.762   1.434
 3210SOL     OW10015   3.355   1.767   0.959
 3210SOL    HW110016   3.388   1.831   0.890
 3210SOL    HW210017   3.421   1.761   1.034
 3211SOL     OW10018   2.578   0.565   1.708
 3211SOL    HW110019   2.597   0.630   1.782
 3211SOL    HW210020   2.638   0.485   1.717
 3212SOL     OW10021   3.312   1.220   1.633
 3212SOL    HW110022   3.303   1.210   1.732
 3212SOL    HW210023   3.408   1.213   1.607
 3213SOL     OW10024   2.252   1.741   1.560
 3213SOL    HW110025   2.161   1.782   1.558
 3213SOL    HW210026   2.245   1.647   1.592
 3214SOL     OW10027   3.536   0.883   1.254
 3214SOL    HW110028   3.509   0.794   1.217
 3214SOL    HW210029   3.537   0.951   1.181
 3215SOL     OW10030   3.087   0.325   0.449
 3215SOL    HW110031   3.152   0.251   0.438
 3215SOL    HW210032   3.107   0.375   0.533
 3216SOL     OW10033   2.456   0.745   0.652
 3216SOL    HW110034   2.506   0.830   0.633
 3216SOL    HW210035   2.368   0.747   0.604
 3217SOL     OW10036   3.639   0.342   1.642
 3217SOL    HW110037   3.622   0.373   1.548
 3217SOL    HW210038   3.555   0.305   1.680
 3218SOL     OW10039   3.592   0.934   1.517
 3218SOL    HW110040   3.630   1.025   1.532
 3218SOL    HW210041   3.584   0.917   1.418
 3219SOL     OW10042   2.721   1.374   0.016
 3219SOL    HW110043   2.675   1.389   0.104
 3219SOL    HW210044   2.765   1.459  -0.014
 3220SOL     OW10045   2.523   1.790   0.953
 3220SOL    HW110046   2.477   1.878   0.940
 3220SOL    HW210047   2.622   1.802   0.946
 3221SOL     OW10048   2.721   0.956   0.861
 3221SOL    HW110049   2.775   0.887   0.909
 3221SOL    HW210050   2.689   1.025   0.927
 3222SOL     OW10051   2.945   0.984   0.087
 3222SOL    HW110052   2.922   1.037   0.005
 3222SOL    HW210053   3.026   0.928   0.068
 3223SOL     OW10054   3.723   1.569   0.851
 3223SOL    HW110055   3.652   1.557   0.781
 3223SOL    HW210056   3.724   1.490   0.911
 3224SOL     OW10057   2.083   1.314   1.844
 3224SOL    HW110058   2.018   1.241   1.823
 3224SOL    HW210059   2.087   1.328   1.942
 3225SOL     OW10060   1.941   1.240   0.653
 3225SOL    HW110061   1.940   1.193   0.741
 3225SOL    HW210062   2.023   1.212   0.602
 3226SOL     OW10063   2.534   1.391   1.624
 3226SOL    HW110064   2.456   1.341   1.662
 3226SOL    HW210065   2.531   1.486   1.655
 3227SOL     OW10066   3.686   0.192   1.227
 3227SOL    HW110067   3.682   0.102   1.271
 3227SOL    HW210068   3.689   0.181   1.128
 3228SOL     OW10069   2.290   0.424   0.520
 3228SOL    HW110070   2.320   0.352   0.458
 3228SOL    HW210071   2.251   0.384   0.603
 3229SOL     OW10072   3.567   1.487   1.104
 3229SOL    HW110073   3.474   1.462   1.077
 3229SOL    HW210074   3.593   1.437   1.186
 3230SOL     OW10075   2.179   0.547   1.280
 3230SOL    HW110076   2.217   0.488   1.352
 3230SOL    HW210077   2.219   0.521   1.192
 3231SOL     OW10078   2.674   1.586   0.687
 3231SOL    HW110079   2.706   1.596   0.593
 3231SOL    HW210080   2.595   1.524   0.689
 3232SOL     OW10081   3.286   0.214   1.112
 3232SOL    HW110082   3.338   0.149   1.167
 3232SOL    HW210083   3.237   0.277   1.173
 3233SOL     OW10084   2.863   0.034   1.154
 3233SOL    HW110085   2.800  -0.038   1.123
 3233SOL    HW210086   2.956  -0.002   1.154
 3234SOL     OW10087   2.632   1.330   0.301
 3234SOL    HW110088   2.586   1.243   0.318
 3234SOL    HW210089   2.723   1.327   0.342
 3235SOL     OW10090   2.480   1.567   1.284
 3235SOL    HW110091   2.475   1.649   1.341
 3235SOL    HW210092   2.569   1.564   1.239
 3236SOL     OW10093   3.214   0.052   0.168
 3236SOL    HW110094   3.249   0.011   0.084
 3236SOL    HW210095   3.124   0.014   0.188
 3237SOL     OW10096   3.162   0.453   0.691
 3237SOL    HW110097   3.103   0.533   0.695
 3237SOL    HW210098   3.177   0.418   0.784
 3238SOL     OW10099   3.455   0.221   0.882
 3238SOL    HW110100   3.371   0.220   0.936
 3238SOL    HW210101   3.457   0.304   0.826
 3239SOL     OW10102   1.901   1.077   0.300
 3239SOL    HW110103   2.000   1.066   0.291
 3239SOL    HW210104   1.861   0.991   0.332
 3240SOL     OW10105   2.737   1.646   0.337
 3240SOL    HW110106   2.660   1.611   0.283
 3240SOL    HW210107   2.705   1.717   0.399
 3241SOL     OW10108   2.092   0.628   1.975
 3241SOL    HW110109   1.999   0.626   2.012
 3241SOL    HW210110   2.093   0.589   1.883
 3242SOL     OW10111   2.087   0.275   2.858
 3242SOL    HW110112   2.122   0.258   2.950
 3242SOL    HW210113   1.999   0.230   2.846
 3243SOL     OW10114   1.881   0.368   2.509
 3243SOL    HW110115   1.799   0.411   2.548
 3243SOL    HW210116   1.853   0.295   2.446
 3244SOL     OW10117   2.431   1.275   3.027
 3244SOL    HW110118   2.338   1.268   2.990
 3244SOL    HW210119   2.442   1.364   3.071
 3245SOL     OW10120   3.417   1.511   2.565
 3245SOL    HW110121   3.360   1.495   2.646
 3245SOL    HW210122   3.358   1.521   2.485
 3246SOL     OW10123   2.997   0.703   2.579
 3246SOL    HW110124   3.054   0.781   2.554
 3246SOL    HW210125   2.937   0.729   2.655
 3247SOL     OW10126   3.617   0.607   2.093
 3247SOL    HW110127   3.605   0.594   1.994
 3247SOL    HW210128   3.587   0.526   2.142
 3248SOL     OW10129   2.630   1.144   2.885
 3248SOL    HW110130   2.552   1.161   2.945
 3248SOL    HW210131   2.664   1.231   2.849
 3249SOL     OW10132   2.712   0.798   3.685
 3249SOL    HW110133   2.708   0.874   3.750
 3249SOL    HW210134   2.734   0.834   3.594
 3250SOL     OW10135   2.547   1.012   2.527
 3250SOL    HW110136   2.616   0.996   2.597
 3250SOL    HW210137   2.474   1.069   2.565
 3251SOL     OW10138   2.548   1.161   3.665
 3251SOL    HW110139   2.608   1.240   3.679
 3251SOL    HW210140   2.462   1.192   3.624
 3252SOL     OW10141   2.197   1.435   2.923
 3252SOL    HW110142   2.119   1.404   2.870
 3252SOL    HW210143   2.255   1.493   2.866
 3253SOL     OW10144   3.322   1.505   3.201
 3253SOL    HW110145   3.346   1.599   3.227
 3253SOL    HW210146   3.306   1.451   3.283
 3254SOL     OW10147   2.300   0.392   3.361
 3254SOL    HW110148   2.382   0.336   3.370
 3254SOL    HW210149   2.219   0.334   3.365
 3255SOL     OW10150   3.465   0.447   2.599
 3255SOL    HW110151   3.391   0.493   2.549
 3255SOL    HW210152   3.516   0.515   2.652
 3256SOL     OW10153   2.093   1.713   2.345
 3256SOL    HW110154   2.127   1.790   2.399
 3256SOL    HW210155   2.137   1.713   2.255
 3257SOL     OW10156   2.989   1.341   3.552
 3257SOL    HW110157   3.036   1.341   3.640
 3257SOL    HW210158   2.941   1.254   3.541
 3258SOL     OW10159   2.092   1.434   2.400
 3258SOL    HW110160   2.066   1.530   2.400
 3258SOL    HW210161   2.021   1.380   2.445
 3259SOL     OW10162   2.102   1.091   2.748
 3259SOL    HW110163   2.116   1.007   2.800
 3259SOL    HW210164   2.047   1.155   2.803
 3260SOL     OW10165   2.482   1.786   3.301
 3260SOL    HW110166   2.390   1.769   3.336
 3260SOL    HW210167   2.510   1.878   3.327
 3261SOL     OW10168   2.468   0.964   1.985
 3261SOL    HW110169   2.475   1.048   1.931
 3261SOL    HW210170   2.514   0.977   2.073
 3262SOL     OW10171   3.456   0.114   3.342
 3262SOL    HW110172   3.438   0.181   3.270
 3262SOL    HW210173   3.453   0.160   3.431
 3263SOL     OW10174   1.984   0.643   2.425
 3263SOL    HW110175   1.939   0.555   2.442
 3263SOL    HW210176   1.983   0.697   2.509
 3264SOL     OW10177   3.704   1.767   2.221
 3264SOL    HW110178   3.758   1.738   2.301
 3264SOL    HW210179   3.734   1.857   2.192
 3265SOL     OW10180   1.889   1.596   1.979
 3265SOL    HW110181   1.870   1.500   2.000
 3265SOL    HW210182   1.856   1.654   2.054
 3266SOL     OW10183   3.551   0.922   2.474
 3266SOL    HW110184   3.646   0.893   2.482
 3266SOL    HW210185   3.543   0.987   2.399
 3267SOL     OW10186   3.503   1.108   2.294
 3267SOL    HW110187   3.589   1.110   2.242
 3267SOL    HW210188   3.517   1.155   2.382
 3268SOL     OW10189   1.975   0.737   3.459
 3268SOL    HW110190   2.063   0.724   3.504
 3268SOL    HW210191   1.962   0.834   3.437
 3269SOL     OW10192   2.475   1.365   2.588
 3269SOL    HW110193   2.426   1.278   2.597
 3269SOL    HW210194   2.452   1.408   2.501
 3270SOL     OW10195   3.155   1.228   3.285
 3270SOL    HW110196   3.192   1.155   3.227
 3270SOL    HW210197   3.207   1.233   3.370
 3271SOL     OW10198   2.671   0.004   2.364
 3271SOL    HW110199   2.711   0.095   2.355
 3271SOL    HW210200   2.571   0.012   2.370
 3272SOL     OW10201   2.059   0.976   3.126
 3272SOL    HW110202   2.148   0.931   3.112
 3272SOL    HW210203   1.986   0.911   3.107
 3273SOL     OW10204   3.387   0.999   2.052
 3273SOL    HW110205   3.324   0.923   2.065
 3273SOL    HW210206   3.435   1.017   2.138
 3274SOL     OW10207   3.049   1.792   3.478
 3274SOL    HW110208   3.073   1.852   3.402
 3274SOL    HW210209   3.056   1.697   3.448
 3275SOL     OW10210   2.179   0.251   3.663
 3275SOL    HW110211   2.250   0.322   3.669
 3275SOL    HW210212   2.091   0.290   3.691
 3276SOL     OW10213   3.328   1.417   2.815
 3276SOL    HW110214   3.269   1.423   2.895
 3276SOL    HW210215   3.313   1.329   2.769
 3277SOL     OW10216   3.529   1.714   2.434
 3277SOL    HW110217   3.488   1.691   2.346
 3277SOL    HW210218   3.511   1.640   2.499
 3278SOL     OW10219   2.460   0.729   2.132
 3278SOL    HW110220   2.484   0.798   2.064
 3278SOL    HW210221   2.382   0.762   2.186
 3279SOL     OW10222   3.143   0.345   2.806
 3279SOL    HW110223   3.057   0.295   2.793
 3279SOL    HW210224   3.205   0.291   2.862
 3280SOL     OW10225   3.438   1.662   2.169
 3280SOL    HW110226   3.527   1.708   2.172
 3280SOL    HW210227   3.417   1.638   2.074
 3281SOL     OW10228   2.669   0.605   3.327
 3281SOL    HW110229   2.622   0.602   3.416
 3281SOL    HW210230   2.618   0.550   3.261
 3282SOL     OW10231   3.256   0.469   3.536
 3282SOL    HW110232   3.236   0.512   3.624
 3282SOL    HW210233   3.334   0.407   3.545
 3283SOL     OW10234   2.835   0.890   3.434
 3283SOL    HW110235   2.881   0.806   3.405
 3283SOL    HW210236   2.779   0.924   3.359
 3284SOL     OW10237   2.853   0.410   3.104
 3284SOL    HW110238   2.776   0.444   3.158
 3284SOL    HW210239   2.819   0.359   3.025
 3285SOL     OW10240   2.903   0.701   2.291
 3285SOL    HW110241   2.929   0.697   2.387
 3285SOL    HW210242   2.818   0.650   2.277
 3286SOL     OW10243   1.938   0.811   2.651
 3286SOL    HW110244   2.037   0.799   2.660
 3286SOL    HW210245   1.914   0.906   2.672
 3287SOL     OW10246   1.992   1.821   3.433
 3287SOL    HW110247   1.982   1.806   3.532
 3287SOL    HW210248   1.906   1.857   3.397
 3288SOL     OW10249   2.727   0.348   2.057
 3288SOL    HW110250   2.786   0.411   2.008
 3288SOL    HW210251   2.746   0.254   2.028
 3289SOL     OW10252   3.581   0.585   3.693
 3289SOL    HW110253   3.555   0.674   3.657
 3289SOL    HW210254   3.579   0.517   3.620
 3290SOL     OW10255   3.224   1.144   2.407
 3290SOL    HW110256   3.307   1.115   2.359
 3290SOL    HW210257   3.175   1.211   2.351
 3291SOL     OW10258   2.412   0.196   2.747
 3291SOL    HW110259   2.407   0.191   2.847
 3291SOL    HW210260   2.414   0.292   2.718
 3292SOL     OW10261   2.870   1.456   2.339
 3292SOL    HW110262   2.824   1.528   2.287
 3292SOL    HW210263   2.866   1.476   2.437
 3293SOL     OW10264   2.213   1.801   2.715
 3293SOL    HW110265   2.263   1.715   2.721
 3293SOL    HW210266   2.278   1.878   2.712
 3294SOL     OW10267   3.657   1.066   2.735
 3294SOL    HW110268   3.595   1.051   2.659
 3294SOL    HW210269   3.605   1.077   2.820
 3295SOL     OW10270   3.089   1.550   3.368
 3295SOL    HW110271   3.095   1.473   3.432
 3295SOL    HW210272   3.037   1.524   3.288
 3296SOL     OW10273   2.183   0.943   2.104
 3296SOL    HW110274   2.265   0.982   2.062
 3296SOL    HW210275   2.156   0.861   2.055
 3297SOL     OW10276   3.320   0.735   2.590
 3297SOL    HW110277   3.315   0.670   2.665
 3297SOL    HW210278   3.400   0.794   2.603
 3298SOL     OW10279   2.323   1.266   3.589
 3298SOL    HW110280   2.273   1.267   3.503
 3298SOL    HW210281   2.260   1.248   3.665
 3299SOL     OW10282   2.973   1.776   2.099
 3299SOL    HW110283   2.913   1.714   2.149
 3299SOL    HW210284   3.004   1.732   2.014
 3300SOL     OW10285   2.064   0.285   3.360
 3300SOL    HW110286   1.984   0.345   3.347
 3300SOL    HW210287   2.054   0.236   3.446
 3301SOL     OW10288   3.494   1.377   1.943
 3301SOL    HW110289   3.462   1.471   1.933
 3301SOL    HW210290   3.418   1.314   1.931
 3302SOL     OW10291   2.326   1.743   2.185
 3302SOL    HW110292   2.359   1.782   2.271
 3302SOL    HW210293   2.402   1.736   2.120
 3303SOL     OW10294   3.262   0.107   2.288
 3303SOL    HW110295   3.238   0.070   2.198
 3303SOL    HW210296   3.361   0.123   2.292
 3304SOL     OW10297   2.111   1.785   3.103
 3304SOL    HW110298   2.168   1.720   3.153
 3304SOL    HW210299   2.095   1.752   3.010
 3305SOL     OW10300   2.802   1.698   2.766
 3305SOL    HW110301   2.882   1.641   2.787
 3305SOL    HW210302   2.753   1.658   2.689
 3306SOL     OW10303   2.244   0.700   2.342
 3306SOL    HW110304   2.289   0.610   2.339
 3306SOL    HW210305   2.150   0.689   2.375
 3307SOL     OW10306   3.409   0.222   3.591
 3307SOL    HW110307   3.404   0.259   3.683
 3307SOL    HW210308   3.337   0.153   3.579
 3308SOL     OW10309   2.476   0.122   1.979
 3308SOL    HW110310   2.574   0.100   1.986
 3308SOL    HW210311   2.445   0.105   1.886
 3309SOL     OW10312   2.643   0.264   3.611
 3309SOL    HW110313   2.710   0.203   3.654
 3309SOL    HW210314   2.570   0.283   3.676
 3310SOL     OW10315   2.750   1.514   3.057
 3310SOL    HW110316   2.727   1.489   2.963
 3310SOL    HW210317   2.811   1.445   3.096
 3311SOL     OW10318   3.213   0.590   3.295
 3311SOL    HW110319   3.241   0.547   3.380
 3311SOL    HW210320   3.238   0.686   3.296
 3312SOL     OW10321   2.665   1.402   2.786
 3312SOL    HW110322   2.755   1.416   2.744
 3312SOL    HW210323   2.594   1.404   2.715
 3313SOL     OW10324   2.784   0.503   2.761
 3313SOL    HW110325   2.759   0.494   2.665
 3313SOL    HW210326   2.832   0.421   2.792
 3314SOL     OW10327   2.401   0.064   2.374
 3314SOL    HW110328   2.320   0.065   2.432
 3314SOL    HW210329   2.404   0.147   2.319
 3315SOL     OW10330   3.296   1.188   1.903
 3315SOL    HW110331   3.328   1.112   1.960
 3315SOL    HW210332   3.204   1.215   1.933
 3316SOL     OW10333   2.159   0.035   2.033
 3316SOL    HW110334   2.208   0.119   2.012
 3316SOL    HW210335   2.221  -0.030   2.078
 3317SOL     OW10336   2.797   0.236   2.342
 3317SOL    HW110337   2.749   0.277   2.264
 3317SOL    HW210338   2.896   0.234   2.323
 3318SOL     OW10339   2.938   0.683   3.326
 3318SOL    HW110340   2.858   0.622   3.329
 3318SOL    HW210341   3.019   0.630   3.302
 3319SOL     OW10342   3.089   1.570   2.655
 3319SOL    HW110343   3.110   1.644   2.590
 3319SOL    HW210344   3.157   1.570   2.728
 3320SOL     OW10345   2.321   1.152   2.603
 3320SOL    HW110346   2.250   1.125   2.668
 3320SOL    HW210347   2.295   1.124   2.510
 3321SOL     OW10348   3.133   1.797   2.453
 3321SOL    HW110349   3.177   1.861   2.389
 3321SOL    HW210350   3.083   1.849   2.523
 3322SOL     OW10351   2.894   0.549   1.878
 3322SOL    HW110352   2.853   0.631   1.839
 3322SOL    HW210353   2.958   0.575   1.951
 3323SOL     OW10354   1.940   0.556   3.248
 3323SOL    HW110355   2.032   0.555   3.207
 3323SOL    HW210356   1.934   0.630   3.315
 3324SOL     OW10357   2.423   0.222   3.009
 3324SOL    HW110358   2.461   0.138   3.046
 3324SOL    HW210359   2.335   0.241   3.053
 3325SOL     OW10360   2.728   0.454   2.504
 3325SOL    HW110361   2.696   0.526   2.442
 3325SOL    HW210362   2.752   0.373   2.451
 3326SOL     OW10363   2.879   0.039   2.615
 3326SOL    HW110364   2.807   0.044   2.546
 3326SOL    HW210365   2.855  -0.030   2.684
 3327SOL     OW10366   3.291   1.173   2.729
 3327SOL    HW110367   3.236   1.089   2.722
 3327SOL    HW210368   3.317   1.202   2.637
 3328SOL     OW10369   3.328   0.590   2.854
 3328SOL    HW110370   3.298   0.495   2.861
 3328SOL    HW210371   3.401   0.606   2.920
 3329SOL     OW10372   3.719   0.833   2.239
 3329SOL    HW110373   3.761   0.769   2.303
 3329SOL    HW210374   3.681   0.782   2.161
 3330SOL     OW10375   2.350   1.385   2.036
 3330SOL    HW110376   2.263   1.370   2.083
 3330SOL    HW210377   2.333   1.411   1.941
 3331SOL     OW10378   3.526   1.280   2.519
 3331SOL    HW110379   3.625   1.288   2.533
 3331SOL    HW210380   3.481   1.364   2.550
 3332SOL     OW10381   3.252   0.575   1.940
 3332SOL    HW110382   3.198   0.554   2.021
 3332SOL    HW210383   3.343   0.534   1.949
 3333SOL     OW10384   2.389   0.256   2.190
 3333SOL    HW110385   2.416   0.197   2.115
 3333SOL    HW210386   2.389   0.351   2.159
 3334SOL     OW10387   3.616   1.223   3.450
 3334SOL    HW110388   3.707   1.184   3.437
 3334SOL    HW210389   3.624   1.319   3.474
 3335SOL     OW10390   2.926   1.347   3.202
 3335SOL    HW110391   2.846   1.324   3.257
 3335SOL    HW210392   3.009   1.321   3.251
 3336SOL     OW10393   3.454   1.629   3.487
 3336SOL    HW110394   3.481   1.663   3.397
 3336SOL    HW210395   3.533   1.591   3.533
 3337SOL     OW10396   2.973   1.195   2.962
 3337SOL    HW110397   2.933   1.239   3.043
 3337SOL    HW210398   2.932   1.232   2.879
 3338SOL     OW10399   3.500   1.099   2.941
 3338SOL    HW110400   3.505   1.180   3.000
 3338SOL    HW210401   3.414   1.101   2.890
 3339SOL     OW10402   2.777   0.089   3.264
 3339SOL    HW110403   2.802   0.069   3.169
 3339SOL    HW210404   2.849   0.145   3.306
 3340SOL     OW10405   2.842   1.116   3.581
 3340SOL    HW110406   2.743   1.122   3.591
 3340SOL    HW210407   2.865   1.036   3.525
 3341SOL     OW10408   2.567   1.050   2.230
 3341SOL    HW110409   2.553   1.057   2.329
 3341SOL    HW210410   2.651   0.999   2.212
 3342SOL     OW10411   2.272   0.813   3.113
 3342SOL    HW110412   2.358   0.825   3.163
 3342SOL    HW210413   2.230   0.726   3.140
 3343SOL     OW10414   3.136   0.386   3.124
 3343SOL    HW110415   3.157   0.460   3.188
 3343SOL    HW210416   3.047   0.403   3.081
 3344SOL     OW10417   1.926   1.564   3.193
 3344SOL    HW110418   1.880   1.646   3.159
 3344SOL    HW210419   2.024   1.583   3.202
 3345SOL     OW10420   2.229   1.100   2.363
 3345SOL    HW110421   2.222   1.183   2.307
 3345SOL    HW210422   2.233   1.020   2.303
 3346SOL     OW10423   2.428   0.537   2.727
 3346SOL    HW110424   2.440   0.603   2.653
 3346SOL    HW210425   2.474   0.571   2.810
 3347SOL     OW10426   3.114   1.348   2.250
 3347SOL    HW110427   3.164   1.425   2.290
 3347SOL    HW210428   3.019   1.350   2.282
 3348SOL     OW10429   3.134   1.445   3.004
 3348SOL    HW110430   3.181   1.458   3.091
 3348SOL    HW210431   3.068   1.371   3.013
 3349SOL     OW10432   3.444   0.639   2.334
 3349SOL    HW110433   3.413   0.700   2.407
 3349SOL    HW210434   3.494   0.691   2.265
 3350SOL     OW10435   2.216   1.510   3.191
 3350SOL    HW110436   2.195   1.466   3.104
 3350SOL    HW210437   2.313   1.536   3.194
 3351SOL     OW10438   2.264   0.751   3.460
 3351SOL    HW110439   2.332   0.806   3.413
 3351SOL    HW210440   2.304   0.663   3.487
 3352SOL     OW10441   3.449   0.779   3.532
 3352SOL    HW110442   3.357   0.817   3.527
 3352SOL    HW210443   3.509   0.826   3.467
 3353SOL     OW10444   2.875   0.105   3.632
 3353SOL    HW110445   2.881   0.190   3.580
 3353SOL    HW210446   2.907   0.029   3.575
 3354SOL     OW10447   2.366   0.050   3.602
 3354SOL    HW110448   2.324  -0.007   3.532
 3354SOL    HW210449   2.300   0.119   3.634
 3355SOL     OW10450   2.435   0.870   2.891
 3355SOL    HW110451   2.479   0.959   2.882
 3355SOL    HW210452   2.372   0.870   2.968
 3356SOL     OW10453   3.222   0.862   2.907
 3356SOL    HW110454   3.147   0.862   2.841
 3356SOL    HW210455   3.259   0.770   2.916
 3357SOL     OW10456   3.071   0.525   2.137
 3357SOL    HW110457   3.084   0.441   2.191
 3357SOL    HW210458   3.042   0.599   2.197
 3358SOL     OW10459   2.169   0.213   3.093
 3358SOL    HW110460   2.146   0.250   3.183
 3358SOL    HW210461   2.139   0.118   3.087
 3359SOL     OW10462   1.899   1.310   3.144
 3359SOL    HW110463   1.952   1.261   3.212
 3359SOL    HW210464   1.921   1.408   3.149
 3360SOL     OW10465   2.594   0.634   2.926
 3360SOL    HW110466   2.653   0.608   2.850
 3360SOL    HW210467   2.566   0.730   2.915
 3361SOL     OW10468   3.590   0.935   3.716
 3361SOL    HW110469   3.544   0.928   3.627
 3361SOL    HW210470   3.528   0.979   3.782
 3362SOL     OW10471   2.169   0.063   2.480
 3362SOL    HW110472   2.158   0.157   2.513
 3362SOL    HW210473   2.164   0.000   2.557
 3363SOL     OW10474   3.484   0.367   2.236
 3363SOL    HW110475   3.486   0.291   2.300
 3363SOL    HW210476   3.436   0.444   2.276
 3364SOL     OW10477   2.885   0.766   2.828
 3364SOL    HW110478   2.900   0.787   2.924
 3364SOL    HW210479   2.855   0.671   2.819
 3365SOL     OW10480   2.842   1.573   3.562
 3365SOL    HW110481   2.822   1.617   3.474
 3365SOL    HW210482   2.881   1.482   3.546
 3366SOL     OW10483   3.721   1.518   3.467
 3366SOL    HW110484   3.735   1.545   3.372
 3366SOL    HW210485   3.804   1.540   3.520
 3367SOL     OW10486   2.212   0.898   3.666
 3367SOL    HW110487   2.288   0.942   3.714
 3367SOL    HW210488   2.247   0.851   3.584
 3368SOL     OW10489   3.402   0.274   1.987
 3368SOL    HW110490   3.341   0.199   2.010
 3368SOL    HW210491   3.424   0.326   2.070
 3369SOL     OW10492   3.165   0.838   1.904
 3369SOL    HW110493   3.199   0.745   1.919
 3369SOL    HW210494   3.183   0.865   1.809
 3370SOL     OW10495   2.930   1.333   2.711
 3370SOL    HW110496   2.937   1.249   2.656
 3370SOL    HW210497   2.992   1.402   2.675
 3371SOL     OW10498   2.181   0.810   2.811
 3371SOL    HW110499   2.274   0.846   2.816
 3371SOL    HW210500   2.175   0.725   2.863
 3372SOL     OW10501   2.201   0.509   2.868
 3372SOL    HW110502   2.149   0.426   2.851
 3372SOL    HW210503   2.278   0.514   2.804
 3373SOL     OW10504   3.000   0.380   3.540
 3373SOL    HW110505   2.955   0.443   3.604
 3373SOL    HW210506   3.093   0.411   3.523
 3374SOL     OW10507   3.022   0.207   3.339
 3374SOL    HW110508   3.022   0.271   3.416
 3374SOL    HW210509   3.050   0.255   3.256
 3375SOL     OW10510   1.870   1.326   2.062
 3375SOL    HW110511   1.777   1.347   2.031
 3375SOL    HW210512   1.880   1.227   2.075
 3376SOL     OW10513   1.950   1.801   2.789
 3376SOL    HW110514   1.908   1.715   2.762
 3376SOL    HW210515   2.044   1.804   2.755
 3377SOL     OW10516   2.366   1.568   2.772
 3377SOL    HW110517   2.432   1.642   2.781
 3377SOL    HW210518   2.410   1.489   2.730
 3378SOL     OW10519   2.864   0.796   3.100
 3378SOL    HW110520   2.905   0.764   3.186
 3378SOL    HW210521   2.768   0.769   3.097
 3379SOL     OW10522   1.902   0.544   2.976
 3379SOL    HW110523   1.987   0.511   2.935
 3379SOL    HW210524   1.915   0.559   3.074
 3380SOL     OW10525   2.051   0.520   3.584
 3380SOL    HW110526   2.110   0.480   3.514
 3380SOL    HW210527   1.993   0.591   3.543
 3381SOL     OW10528   3.231   0.950   3.522
 3381SOL    HW110529   3.270   1.039   3.542
 3381SOL    HW210530   3.241   0.930   3.425
 3382SOL     OW10531   2.677   0.572   2.187
 3382SOL    HW110532   2.684   0.483   2.141
 3382SOL    HW210533   2.583   0.606   2.179
 3383SOL     OW10534   3.519   0.604   3.068
 3383SOL    HW110535   3.481   0.535   3.130
 3383SOL    HW210536   3.601   0.568   3.024
 3384SOL     OW10537   2.114   1.564   3.606
 3384SOL    HW110538   2.084   1.621   3.682
 3384SOL    HW210539   2.107   1.467   3.632
 3385SOL     OW10540   2.533   0.464   3.131
 3385SOL    HW110541   2.499   0.375   3.101
 3385SOL    HW210542   2.559   0.518   3.051
 3386SOL     OW10543   2.792   1.678   3.327
 3386SOL    HW110544   2.768   1.660   3.232
 3386SOL    HW210545   2.822   1.772   3.337
 3387SOL     OW10546   2.335   0.500   2.053
 3387SOL    HW110547   2.396   0.580   2.057
 3387SOL    HW210548   2.240   0.531   2.060
 3388SOL     OW10549   2.021   1.137   3.328
 3388SOL    HW110550   2.043   1.076   3.404
 3388SOL    HW210551   2.031   1.088   3.242
 3389SOL     OW10552   3.209   1.059   3.096
 3389SOL    HW110553   3.233   0.996   3.022
 3389SOL    HW210554   3.119   1.099   3.078
 3390SOL     OW10555   3.164   0.855   2.171
 3390SOL    HW110556   3.078   0.824   2.213
 3390SOL    HW210557   3.160   0.841   2.072
 3391SOL     OW10558   3.621   1.747   3.016
 3391SOL    HW110559   3.682   1.777   2.943
 3391SOL    HW210560   3.583   1.658   2.994
 3392SOL     OW10561   3.114   1.731   2.990
 3392SOL    HW110562   3.198   1.736   2.936
 3392SOL    HW210563   3.091   1.635   3.008
 3393SOL     OW10564   1.945   1.258   2.884
 3393SOL    HW110565   1.940   1.257   2.984
 3393SOL    HW210566   1.862   1.217   2.846
 3394SOL     OW10567   2.550   1.662   3.578
 3394SOL    HW110568   2.494   1.743   3.587
 3394SOL    HW210569   2.602   1.666   3.492
 3395SOL     OW10570   3.588   0.135   2.385
 3395SOL    HW110571   3.661   0.118   2.318
 3395SOL    HW210572   3.557   0.048   2.423
 3396SOL     OW10573   3.250   1.573   2.339
 3396SOL    HW110574   3.317   1.585   2.265
 3396SOL    HW210575   3.210   1.662   2.362
 3397SOL     OW10576   1.992   1.794   3.713
 3397SOL    HW110577   1.951   1.720   3.766
 3397SOL    HW210578   2.056   1.845   3.771
 3398SOL     OW10579   3.142   0.927   2.534
 3398SOL    HW110580   3.202   0.846   2.536
 3398SOL    HW210581   3.182   0.996   2.474
 3399SOL     OW10582   2.692   1.273   3.284
 3399SOL    HW110583   2.687   1.306   3.379
 3399SOL    HW210584   2.606   1.292   3.238
 3400SOL     OW10585   2.534   1.616   2.016
 3400SOL    HW110586   2.543   1.626   1.917
 3400SOL    HW210587   2.494   1.527   2.037
 3401SOL     OW10588   3.512   1.720   3.256
 3401SOL    HW110589   3.565   1.730   3.172
 3401SOL    HW210590   3.485   1.810   3.290
 3402SOL     OW10591   3.703   0.175   2.825
 3402SOL    HW110592   3.742   0.090   2.789
 3402SOL    HW210593   3.605   0.177   2.806
 3403SOL     OW10594   2.125   0.326   2.582
 3403SOL    HW110595   2.046   0.377   2.548
 3403SOL    HW210596   2.116   0.311   2.680
 3404SOL     OW10597   3.056   1.612   1.893
 3404SOL    HW110598   3.062   1.519   1.930
 3404SOL    HW210599   2.997   1.612   1.813
 3405SOL     OW10600   2.684   1.002   3.234
 3405SOL    HW110601   2.724   1.001   3.142
 3405SOL    HW210602   2.694   1.094   3.274
 3406SOL     OW10603   2.778   0.910   2.153
 3406SOL    HW110604   2.841   0.948   2.085
 3406SOL    HW210605   2.818   0.827   2.192
 3407SOL     OW10606   3.366   1.607   1.906
 3407SOL    HW110607   3.274   1.644   1.913
 3407SOL    HW210608   3.404   1.627   1.816
 3408SOL     OW10609   2.234   1.288   3.352
 3408SOL    HW110610   2.221   1.381   3.318
 3408SOL    HW210611   2.150   1.236   3.339
 3409SOL     OW10612   3.476   1.292   3.151
 3409SOL    HW110613   3.536   1.295   3.231
 3409SOL    HW210614   3.401   1.356   3.164
 3410SOL     OW10615   2.901   1.098   2.558
 3410SOL    HW110616   2.831   1.051   2.612
 3410SOL    HW210617   2.960   1.030   2.515
 3411SOL     OW10618   2.876   0.236   2.833
 3411SOL    HW110619   2.868   0.200   2.740
 3411SOL    HW210620   2.874   0.160   2.898
 3412SOL     OW10621   2.452   1.487   2.353
 3412SOL    HW110622   2.494   1.429   2.283
 3412SOL    HW210623   2.408   1.566   2.309
 3413SOL     OW10624   3.571   0.385   3.243
 3413SOL    HW110625   3.644   0.454   3.247
 3413SOL    HW210626   3.599   0.310   3.184
 3414SOL     OW10627   2.117   1.348   2.152
 3414SOL    HW110628   2.021   1.349   2.125
 3414SOL    HW210629   2.129   1.401   2.236
 3415SOL     OW10630   1.967   1.013   3.588
 3415SOL    HW110631   1.890   0.980   3.642
 3415SOL    HW210632   2.052   0.983   3.630
 3416SOL     OW10633   2.534   0.203   3.351
 3416SOL    HW110634   2.624   0.187   3.311
 3416SOL    HW210635   2.542   0.208   3.450
 3417SOL     OW10636   1.937   0.345   1.895
 3417SOL    HW110637   1.845   0.317   1.866
 3417SOL    HW210638   1.968   0.422   1.839
 3418SOL     OW10639   3.302   0.856   3.260
 3418SOL    HW110640   3.245   0.908   3.197
 3418SOL    HW210641   3.398   0.868   3.236
 3419SOL     OW10642   1.934   0.166   2.180
 3419SOL    HW110643   1.917   0.249   2.126
 3419SOL    HW210644   2.024   0.129   2.158
 3420SOL     OW10645   3.045   1.335   1.981
 3420SOL    HW110646   2.946   1.324   1.983
 3420SOL    HW210647   3.079   1.350   2.074
 3421SOL     OW10648   2.475   0.842   3.293
 3421SOL    HW110649   2.531   0.923   3.276
 3421SOL    HW210650   2.534   0.762   3.296
 3422SOL     OW10651   3.355   1.767   2.821
 3422SOL    HW110652   3.388   1.831   2.752
 3422SOL    HW210653   3.421   1.761   2.896
 3423SOL     OW10654   2.578   0.565   3.570
 3423SOL    HW110655   2.597   0.630   3.644
 3423SOL    HW210656   2.638   0.485   3.579
 3424SOL     OW10657   3.312   1.220   3.495
 3424SOL    HW110658   3.303   1.210   3.594
 3424SOL    HW210659   3.408   1.213   3.469
 3425SOL     OW10660   2.252   1.741   3.422
 3425SOL    HW110661   2.161   1.782   3.420
 3425SOL    HW210662   2.245   1.647   3.454
 3426SOL     OW10663   3.536   0.883   3.116
 3426SOL    HW110664   3.509   0.794   3.079
 3426SOL    HW210665   3.537   0.951   3.043
 3427SOL     OW10666   3.087   0.325   2.311
 3427SOL    HW110667   3.152   0.251   2.300
 3427SOL    HW210668   3.107   0.375   2.395
 3428SOL     OW10669   2.456   0.745   2.514
 3428SOL    HW110670   2.506   0.830   2.495
 3428SOL    HW210671   2.368   0.747   2.466
 3429SOL     OW10672   3.639   0.342   3.504
 3429SOL    HW110673   3.622   0.373   3.410
 3429SOL    HW210674   3.555   0.305   3.542
 3430SOL     OW10675   3.592   0.934   3.379
 3430SOL    HW110676   3.630   1.025   3.394
 3430SOL    HW210677   3.584   0.917   3.280
 3431SOL     OW10678   2.721   1.374   1.878
 3431SOL    HW110679   2.675   1.389   1.966
 3431SOL    HW210680   2.765   1.459   1.848
 3432SOL     OW10681   2.523   1.790   2.815
 3432SOL    HW110682   2.477   1.878   2.802
 3432SOL    HW210683   2.622   1.802   2.808
 3433SOL     OW10684   2.721   0.956   2.723
 3433SOL    HW110685   2.775   0.887   2.771
 3433SOL    HW210686   2.689   1.025   2.789
 3434SOL     OW10687   2.945   0.984   1.949
 3434SOL    HW110688   2.922   1.037   1.867
 3434SOL    HW210689   3.026   0.928   1.930
 3435SOL     OW10690   3.723   1.569   2.713
 3435SOL    HW110691   3.652   1.557   2.643
 3435SOL    HW210692   3.724   1.490   2.773
 3436SOL     OW10693   2.083   1.314   3.706
 3436SOL    HW110694   2.018   1.241   3.685
 3436SOL    HW210695   2.087   1.328   3.804
 3437SOL     OW10696   1.941   1.240   2.515
 3437SOL    HW110697   1.940   1.193   2.603
 3437SOL    HW210698   2.023   1.212   2.464
 3438SOL     OW10699   2.534   1.391   3.486
 3438SOL    HW110700   2.456   1.341   3.524
 3438SOL    HW210701   2.531   1.486   3.517
 3439SOL     OW10702   3.686   0.192   3.089
 3439SOL    HW110703   3.682   0.102   3.133
 3439SOL    HW210704   3.689   0.181   2.990
 3440SOL     OW10705   2.290   0.424   2.382
 3440SOL    HW110706   2.320   0.352   2.320
 3440SOL    HW210707   2.251   0.384   2.465
 3441SOL     OW10708   3.567   1.487   2.966
 3441SOL    HW110709   3.474   1.462   2.939
 3441SOL    HW210710   3.593   1.437   3.048
 3442SOL     OW10711   2.179   0.547   3.142
 3442SOL    HW110712   2.217   0.488   3.214
 3442SOL    HW210713   2.219   0.521   3.054
 3443SOL     OW10714   2.674   1.586   2.549
 3443SOL    HW110715   2.706   1.596   2.455
 3443SOL    HW210716   2.595   1.524   2.551
 3444SOL     OW10717   3.286   0.214   2.974
 3444SOL    HW110718   3.338   0.149   3.029
 3444SOL    HW210719   3.237   0.277   3.035
 3445SOL     OW10720   2.863   0.034   3.016
 3445SOL    HW110721   2.800  -0.038   2.985
 3445SOL    HW210722   2.956  -0.002   3.016
 3446SOL     OW10723   2.632   1.330   2.163
 3446SOL    HW110724   2.586   1.243   2.180
 3446SOL    HW210725   2.723   1.327   2.204
 3447SOL     OW10726   2.480   1.567   3.146
 3447SOL    HW110727   2.475   1.649   3.203
 3447SOL    HW210728   2.569   1.564   3.101
 3448SOL     OW10729   3.214   0.052   2.030
 3448SOL    HW110730   3.249   0.011   1.946
 3448SOL    HW210731   3.124   0.014   2.050
 3449SOL     OW10732   3.162   0.453   2.553
 3449SOL    HW110733   3.103   0.533   2.557
 3449SOL    HW210734   3.177   0.418   2.646
 3450SOL     OW10735   3.455   0.221   2.744
 3450SOL    HW110736   3.371   0.220   2.798
 3450SOL    HW210737   3.457   0.304   2.688
 3451SOL     OW10738   1.901   1.077   2.162
 3451SOL    HW110739   2.000   1.066   2.153
 3451SOL    HW210740   1.861   0.991   2.194
 3452SOL     OW10741   2.737   1.646   2.199
 3452SOL    HW110742   2.660   1.611   2.145
 3452SOL    HW210743   2.705   1.717   2.261
 3453SOL     OW10744   2.092   0.628   3.837
 3453SOL    HW110745   1.999   0.626   3.874
 3453SOL    HW210746   2.093   0.589   3.745
 3454SOL     OW10747   2.087   0.275   4.720
 3454SOL    HW110748   2.122   0.258   4.812
 3454SOL    HW210749   1.999   0.230   4.708
 3455SOL     OW10750   1.881   0.368   4.371
 3455SOL    HW110751   1.799   0.411   4.410
 3455SOL    HW210752   1.853   0.295   4.308
 3456SOL     OW10753   2.431   1.275   4.889
 3456SOL    HW110754   2.338   1.268   4.852
 3456SOL    HW210755   2.442   1.364   4.933
 3457SOL     OW10756   3.417   1.511   4.427
 3457SOL    HW110757   3.360   1.495   4.508
 3457SOL    HW210758   3.358   1.521   4.347
 3458SOL     OW10759   2.997   0.703   4.441
 3458SOL    HW110760   3.054   0.781   4.416
 3458SOL    HW210761   2.937   0.729   4.517
 3459SOL     OW10762   3.617   0.607   3.955
 3459SOL    HW110763   3.605   0.594   3.856
 3459SOL    HW210764   3.587   0.526   4.004
 3460SOL     OW10765   2.630   1.144   4.747
 3460SOL    HW110766   2.552   1.161   4.807
 3460SOL    HW210767   2.664   1.231   4.711
 3461SOL     OW10768   2.712   0.798   5.547
 3461SOL    HW110769   2.708   0.874   5.612
 3461SOL    HW210770   2.734   0.834   5.456
 3462SOL     OW10771   2.547   1.012   4.389
 3462SOL    HW110772   2.616   0.996   4.459
 3462SOL    HW210773   2.474   1.069   4.427
 3463SOL     OW10774   2.548   1.161   5.527
 3463SOL    HW110775   2.608   1.240   5.541
 3463SOL    HW210776   2.462   1.192   5.486
 3464SOL     OW10777   2.197   1.435   4.785
 3464SOL    HW110778   2.119   1.404   4.732
 3464SOL    HW210779   2.255   1.493   4.728
 3465SOL     OW10780   3.322   1.505   5.063
 3465SOL    HW110781   3.346   1.599   5.089
 3465SOL    HW210782   3.306   1.451   5.145
 3466SOL     OW10783   2.300   0.392   5.223
 3466SOL    HW110784   2.382   0.336   5.232
 3466SOL    HW210785   2.219   0.334   5.227
 3467SOL     OW10786   3.465   0.447   4.461
 3467SOL    HW110787   3.391   0.493   4.411
 3467SOL    HW210788   3.516   0.515   4.514
 3468SOL     OW10789   2.093   1.713   4.207
 3468SOL    HW110790   2.127   1.790   4.261
 3468SOL    HW210791   2.137   1.713   4.117
 3469SOL     OW10792   2.989   1.341   5.414
 3469SOL    HW110793   3.036   1.341   5.502
 3469SOL    HW210794   2.941   1.254   5.403
 3470SOL     OW10795   2.092   1.434   4.262
 3470SOL    HW110796   2.066   1.530   4.262
 3470SOL    HW210797   2.021   1.380   4.307
 3471SOL     OW10798   2.102   1.091   4.610
 3471SOL    HW110799   2.116   1.007   4.662
 3471SOL    HW210800   2.047   1.155   4.665
 3472SOL     OW10801   2.468   0.964   3.847
 3472SOL    HW110802   2.475   1.048   3.793
 3472SOL    HW210803   2.514   0.977   3.935
 3473SOL     OW10804   3.456   0.114   5.204
 3473SOL    HW110805   3.438   0.181   5.132
 3473SOL    HW210806   3.453   0.160   5.293
 3474SOL     OW10807   1.984   0.643   4.287
 3474SOL    HW110808   1.939   0.555   4.304
 3474SOL    HW210809   1.983   0.697   4.371
 3475SOL     OW10810   3.704   1.767   4.083
 3475SOL    HW110811   3.758   1.738   4.163
 3475SOL    HW210812   3.734   1.857   4.054
 3476SOL     OW10813   1.889   1.596   3.841
 3476SOL    HW110814   1.870   1.500   3.862
 3476SOL    HW210815   1.856   1.654   3.916
 3477SOL     OW10816   3.551   0.922   4.336
 3477SOL    HW110817   3.646   0.893   4.344
 3477SOL    HW210818   3.543   0.987   4.261
 3478SOL     OW10819   3.503   1.108   4.156
 3478SOL    HW110820   3.589   1.110   4.104
 3478SOL    HW210821   3.517   1.155   4.244
 3479SOL     OW10822   1.975   0.737   5.321
 3479SOL    HW110823   2.063   0.724   5.366
 3479SOL    HW210824   1.962   0.834   5.299
 3480SOL     OW10825   2.475   1.365   4.450
 3480SOL    HW110826   2.426   1.278   4.459
 3480SOL    HW210827   2.452   1.408   4.363
 3481SOL     OW10828   3.155   1.228   5.147
 3481SOL    HW110829   3.192   1.155   5.089
 3481SOL    HW210830   3.207   1.233   5.232
 3482SOL     OW10831   2.671   0.004   4.226
 3482SOL    HW110832   2.711   0.095   4.217
 3482SOL    HW210833   2.571   0.012   4.232
 3483SOL     OW10834   2.059   0.976   4.988
 3483SOL    HW110835   2.148   0.931   4.974
 3483SOL    HW210836   1.986   0.911   4.969
 3484SOL     OW10837   3.387   0.999   3.914
 3484SOL    HW110838   3.324   0.923   3.927
 3484SOL    HW210839   3.435   1.017   4.000
 3485SOL     OW10840   3.049   1.792   5.340
 3485SOL    HW110841   3.073   1.852   5.264
 3485SOL    HW210842   3.056   1.697   5.310
 3486SOL     OW10843   2.179   0.251   5.525
 3486SOL    HW110844   2.250   0.322   5.531
 3486SOL    HW210845   2.091   0.290   5.553
 3487SOL     OW10846   3.328   1.417   4.677
 3487SOL    HW110847   3.269   1.423   4.757
 3487SOL    HW210848   3.313   1.329   4.631
 3488SOL     OW10849   3.529   1.714   4.296
 3488SOL    HW110850   3.488   1.691   4.208
 3488SOL    HW210851   3.511   1.640   4.361
 3489SOL     OW10852   2.460   0.729   3.994
 3489SOL    HW110853   2.484   0.798   3.926
 3489SOL    HW210854   2.382   0.762   4.048
 3490SOL     OW10855   3.143   0.345   4.668
 3490SOL    HW110856   3.057   0.295   4.655
 3490SOL    HW210857   3.205   0.291   4.724
 3491SOL     OW10858   3.438   1.662   4.031
 3491SOL    HW110859   3.527   1.708   4.034
 3491SOL    HW210860   3.417   1.638   3.936
 3492SOL     OW10861   2.669   0.605   5.189
 3492SOL    HW110862   2.622   0.602   5.278
 3492SOL    HW210863   2.618   0.550   5.123
 3493SOL     OW10864   3.256   0.469   5.398
 3493SOL    HW110865   3.236   0.512   5.486
 3493SOL    HW210866   3.334   0.407   5.407
 3494SOL     OW10867   2.835   0.890   5.296
 3494SOL    HW110868   2.881   0.806   5.267
 3494SOL    HW210869   2.779   0.924   5.221
 3495SOL     OW10870   2.853   0.410   4.966
 3495SOL    HW110871   2.776   0.444   5.020
 3495SOL    HW210872   2.819   0.359   4.887
 3496SOL     OW10873   2.903   0.701   4.153
 3496SOL    HW110874   2.929   0.697   4.249
 3496SOL    HW210875   2.818   0.650   4.139
 3497SOL     OW10876   1.938   0.811   4.513
 3497SOL    HW110877   2.037   0.799   4.522
 3497SOL    HW210878   1.914   0.906   4.534
 3498SOL     OW10879   2.727   0.348   3.919
 3498SOL    HW110880   2.786   0.411   3.870
 3498SOL    HW210881   2.746   0.254   3.890
 3499SOL     OW10882   3.581   0.585   5.555
 3499SOL    HW110883   3.555   0.674   5.519
 3499SOL    HW210884   3.579   0.517   5.482
 3500SOL     OW10885   3.224   1.144   4.269
 3500SOL    HW110886   3.307   1.115   4.221
 3500SOL    HW210887   3.175   1.211   4.213
 3501SOL     OW10888   2.412   0.196   4.609
 3501SOL    HW110889   2.407   0.191   4.709
 3501SOL    HW210890   2.414   0.292   4.580
 3502SOL     OW10891   2.870   1.456   4.201
 3502SOL    HW110892   2.824   1.528   4.149
 3502SOL    HW210893   2.866   1.476   4.299
 3503SOL     OW10894   2.213   1.801   4.577
 3503SOL    HW110895   2.263   1.715   4.583
 3503SOL    HW210896   2.278   1.878   4.574
 3504SOL     OW10897   3.657   1.066   4.597
 3504SOL    HW110898   3.595   1.051   4.521
 3504SOL    HW210899   3.605   1.077   4.682
 3505SOL     OW10900   3.089   1.550   5.230
 3505SOL    HW110901   3.095   1.473   5.294
 3505SOL    HW210902   3.037   1.524   5.150
 3506SOL     OW10903   2.183   0.943   3.966
 3506SOL    HW110904   2.265   0.982   3.924
 3506SOL    HW210905   2.156   0.861   3.917
 3507SOL     OW10906   3.320   0.735   4.452
 3507SOL    HW110907   3.315   0.670   4.527
 3507SOL    HW210908   3.400   0.794   4.465
 3508SOL     OW10909   2.323   1.266   5.451
 3508SOL    HW110910   2.273   1.267   5.365
 3508SOL    HW210911   2.260   1.248   5.527
 3509SOL     OW10912   2.973   1.776   3.961
 3509SOL    HW110913   2.913   1.714   4.011
 3509SOL    HW210914   3.004   1.732   3.876
 3510SOL     OW10915   2.064   0.285   5.222
 3510SOL    HW110916   1.984   0.345   5.209
 3510SOL    HW210917   2.054   0.236   5.308
 3511SOL     OW10918   3.494   1.377   3.805
 3511SOL    HW110919   3.462   1.471   3.795
 3511SOL    HW210920   3.418   1.314   3.793
 3512SOL     OW10921   2.326   1.743   4.047
 3512SOL    HW110922   2.359   1.782   4.133
 3512SOL    HW210923   2.402   1.736   3.982
 3513SOL     OW10924   3.262   0.107   4.150
 3513SOL    HW110925   3.238   0.070   4.060
 3513SOL    HW210926   3.361   0.123   4.154
 3514SOL     OW10927   2.111   1.785   4.965
 3514SOL    HW110928   2.168   1.720   5.015
 3514SOL    HW210929   2.095   1.752   4.872
 3515SOL     OW10930   2.802   1.698   4.628
 3515SOL    HW110931   2.882   1.641   4.649
 3515SOL    HW210932   2.753   1.658   4.551
 3516SOL     OW10933   2.244   0.700   4.204
 3516SOL    HW110934   2.289   0.610   4.201
 3516SOL    HW210935   2.150   0.689   4.237
 3517SOL     OW10936   3.409   0.222   5.453
 3517SOL    HW110937   3.404   0.259   5.545
 3517SOL    HW210938   3.337   0.153   5.441
 3518SOL     OW10939   2.476   0.122   3.841
 3518SOL    HW110940   2.574   0.100   3.848
 3518SOL    HW210941   2.445   0.105   3.748
 3519SOL     OW10942   2.643   0.264   5.473
 3519SOL    HW110943   2.710   0.203   5.516
 3519SOL    HW210944   2.570   0.283   5.538
 3520SOL     OW10945   2.750   1.514   4.919
 3520SOL    HW110946   2.727   1.489   4.825
 3520SOL    HW210947   2.811   1.445   4.958
 3521SOL     OW10948   3.213   0.590   5.157
 3521SOL    HW110949   3.241   0.547   5.242
 3521SOL    HW210950   3.238   0.686   5.158
 3522SOL     OW10951   2.665   1.402   4.648
 3522SOL    HW110952   2.755   1.416   4.606
 3522SOL    HW210953   2.594   1.404   4.577
 3523SOL     OW10954   2.784   0.503   4.623
 3523SOL    HW110955   2.759   0.494   4.527
 3523SOL    HW210956   2.832   0.421   4.654
 3524SOL     OW10957   2.401   0.064   4.236
 3524SOL    HW110958   2.320   0.065   4.294
 3524SOL    HW210959   2.404   0.147   4.181
 3525SOL     OW10960   3.296   1.188   3.765
 3525SOL    HW110961   3.328   1.112   3.822
 3525SOL    HW210962   3.204   1.215   3.795
 3526SOL     OW10963   2.159   0.035   3.895
 3526SOL    HW110964   2.208   0.119   3.874
 3526SOL    HW210965   2.221  -0.030   3.940
 3527SOL     OW10966   2.797   0.236   4.204
 3527SOL    HW110967   2.749   0.277   4.126
 3527SOL    HW210968   2.896   0.234   4.185
 3528SOL     OW10969   2.938   0.683   5.188
 3528SOL    HW110970   2.858   0.622   5.191
 3528SOL    HW210971   3.019   0.630   5.164
 3529SOL     OW10972   3.089   1.570   4.517
 3529SOL    HW110973   3.110   1.644   4.452
 3529SOL    HW210974   3.157   1.570   4.590
 3530SOL     OW10975   2.321   1.152   4.465
 3530SOL    HW110976   2.250   1.125   4.530
 3530SOL    HW210977   2.295   1.124   4.372
 3531SOL     OW10978   3.133   1.797   4.315
 3531SOL    HW110979   3.177   1.861   4.251
 3531SOL    HW210980   3.083   1.849   4.385
 3532SOL     OW10981   2.894   0.549   3.740
 3532SOL    HW110982   2.853   0.631   3.701
 3532SOL    HW210983   2.958   0.575   3.813
 3533SOL     OW10984   1.940   0.556   5.110
 3533SOL    HW110985   2.032   0.555   5.069
 3533SOL    HW210986   1.934   0.630   5.177
 3534SOL     OW10987   2.423   0.222   4.871
 3534SOL    HW110988   2.461   0.138   4.908
 3534SOL    HW210989   2.335   0.241   4.915
 3535SOL     OW10990   2.728   0.454   4.366
 3535SOL    HW110991   2.696   0.526   4.304
 3535SOL    HW210992   2.752   0.373   4.313
 3536SOL     OW10993   2.879   0.039   4.477
 3536SOL    HW110994   2.807   0.044   4.408
 3536SOL    HW210995   2.855  -0.030   4.546
 3537SOL     OW10996   3.291   1.173   4.591
 3537SOL    HW110997   3.236   1.089   4.584
 3537SOL    HW210998   3.317   1.202   4.499
 3538SOL     OW10999   3.328   0.590   4.716
 3538SOL    HW111000   3.298   0.495   4.723
 3538SOL    HW211001   3.401   0.606   4.782
 3539SOL     OW11002   3.719   0.833   4.101
 3539SOL    HW111003   3.761   0.769   4.165
 3539SOL    HW211004   3.681   0.782   4.023
 3540SOL     OW11005   2.350   1.385   3.898
 3540SOL    HW111006   2.263   1.370   3.945
 3540SOL    HW211007   2.333   1.411   3.803
 3541SOL     OW11008   3.526   1.280   4.381
 3541SOL    HW111009   3.625   1.288   4.395
 3541SOL    HW211010   3.481   1.364   4.412
 3542SOL     OW11011   3.252   0.575   3.802
 3542SOL    HW111012   3.198   0.554   3.883
 3542SOL    HW211013   3.343   0.534   3.811
 3543SOL     OW11014   2.389   0.256   4.052
 3543SOL    HW111015   2.416   0.197   3.977
 3543SOL    HW211016   2.389   0.351   4.021
 3544SOL     OW11017   3.616   1.223   5.312
 3544SOL    HW111018   3.707   1.184   5.299
 3544SOL    HW211019   3.624   1.319   5.336
 3545SOL     OW11020   2.926   1.347   5.064
 3545SOL    HW111021   2.846   1.324   5.119
 3545SOL    HW211022   3.009   1.321   5.113
 3546SOL     OW11023   3.454   1.629   5.349
 3546SOL    HW111024   3.481   1.663   5.259
 3546SOL    HW211025   3.533   1.591   5.395
 3547SOL     OW11026   2.973   1.195   4.824
 3547SOL    HW111027   2.933   1.239   4.905
 3547SOL    HW211028   2.932   1.232   4.741
 3548SOL     OW11029   3.500   1.099   4.803
 3548SOL    HW111030   3.505   1.180   4.862
 3548SOL    HW211031   3.414   1.101   4.752
 3549SOL     OW11032   2.777   0.089   5.126
 3549SOL    HW111033   2.802   0.069   5.031
 3549SOL    HW211034   2.849   0.145   5.168
 3550SOL     OW11035   2.842   1.116   5.443
 3550SOL    HW111036   2.743   1.122   5.453
 3550SOL    HW211037   2.865   1.036   5.387
 3551SOL     OW11038   2.567   1.050   4.092
 3551SOL    HW111039   2.553   1.057   4.191
 3551SOL    HW211040   2.651   0.999   4.074
 3552SOL     OW11041   2.272   0.813   4.975
 3552SOL    HW111042   2.358   0.825   5.025
 3552SOL    HW211043   2.230   0.726   5.002
 3553SOL     OW11044   3.136   0.386   4.986
 3553SOL    HW111045   3.157   0.460   5.050
 3553SOL    HW211046   3.047   0.403   4.943
 3554SOL     OW11047   2.229   1.100   4.225
 3554SOL    HW111048   2.222   1.183   4.169
 3554SOL    HW211049   2.233   1.020   4.165
 3555SOL     OW11050   2.428   0.537   4.589
 3555SOL    HW111051   2.440   0.603   4.515
 3555SOL    HW211052   2.474   0.571   4.672
 3556SOL     OW11053   3.114   1.348   4.112
 3556SOL    HW111054   3.164   1.425   4.152
 3556SOL    HW211055   3.019   1.350   4.144
 3557SOL     OW11056   3.134   1.445   4.866
 3557SOL    HW111057   3.181   1.458   4.953
 3557SOL    HW211058   3.068   1.371   4.875
 3558SOL     OW11059   3.444   0.639   4.196
 3558SOL    HW111060   3.413   0.700   4.269
 3558SOL    HW211061   3.494   0.691   4.127
 3559SOL     OW11062   2.216   1.510   5.053
 3559SOL    HW111063   2.195   1.466   4.966
 3559SOL    HW211064   2.313   1.536   5.056
 3560SOL     OW11065   2.264   0.751   5.322
 3560SOL    HW111066   2.332   0.806   5.275
 3560SOL    HW211067   2.304   0.663   5.349
 3561SOL     OW11068   3.449   0.779   5.394
 3561SOL    HW111069   3.357   0.817   5.389
 3561SOL    HW211070   3.509   0.826   5.329
 3562SOL     OW11071   2.875   0.105   5.494
 3562SOL    HW111072   2.881   0.190   5.442
 3562SOL    HW211073   2.907   0.029   5.437
 3563SOL     OW11074   2.366   0.050   5.464
 3563SOL    HW111075   2.324  -0.007   5.394
 3563SOL    HW211076   2.300   0.119   5.496
 3564SOL     OW11077   2.435   0.870   4.753
 3564SOL    HW111078   2.479   0.959   4.744
 3564SOL    HW211079   2.372   0.870   4.830
 3565SOL     OW11080   3.222   0.862   4.769
 3565SOL    HW111081   3.147   0.862   4.703
 3565SOL    HW211082   3.259   0.770   4.778
 3566SOL     OW11083   3.071   0.525   3.999
 3566SOL    HW111084   3.084   0.441   4.053
 3566SOL    HW211085   3.042   0.599   4.059
 3567SOL     OW11086   2.169   0.213   4.955
 3567SOL    HW111087   2.146   0.250   5.045
 3567SOL    HW211088   2.139   0.118   4.949
 3568SOL     OW11089   1.899   1.310   5.006
 3568SOL    HW111090   1.952   1.261   5.074
 3568SOL    HW211091   1.921   1.408   5.011
 3569SOL     OW11092   2.594   0.634   4.788
 3569SOL    HW111093   2.653   0.608   4.712
 3569SOL    HW211094   2.566   0.730   4.777
 3570SOL     OW11095   3.590   0.935   5.578
 3570SOL    HW111096   3.544   0.928   5.489
 3570SOL    HW211097   3.528   0.979   5.644
 3571SOL     OW11098   2.169   0.063   4.342
 3571SOL    HW111099   2.158   0.157   4.375
 3571SOL    HW211100   2.164   0.000   4.419
 3572SOL     OW11101   3.484   0.367   4.098
 3572SOL    HW111102   3.486   0.291   4.162
 3572SOL    HW211103   3.436   0.444   4.138
 3573SOL     OW11104   2.885   0.766   4.690
 3573SOL    HW111105   2.900   0.787   4.786
 3573SOL    HW211106   2.855   0.671   4.681
 3574SOL     OW11107   2.842   1.573   5.424
 3574SOL    HW111108   2.822   1.617   5.336
 3574SOL    HW211109   2.881   1.482   5.408
 3575SOL     OW11110   3.721   1.518   5.329
 3575SOL    HW111111   3.735   1.545   5.234
 3575SOL    HW211112   3.804   1.540   5.382
 3576SOL     OW11113   2.212   0.898   5.528
 3576SOL    HW111114   2.288   0.942   5.576
 3576SOL    HW211115   2.247   0.851   5.446
 3577SOL     OW11116   3.402   0.274   3.849
 3577SOL    HW111117   3.341   0.199   3.872
 3577SOL    HW211118   3.424   0.326   3.932
 3578SOL     OW11119   3.165   0.838   3.766
 3578SOL    HW111120   3.199   0.745   3.781
 3578SOL    HW211121   3.183   0.865   3.671
 3579SOL     OW11122   2.930   1.333   4.573
 3579SOL    HW111123   2.937   1.249   4.518
 3579SOL    HW211124   2.992   1.402   4.537
 3580SOL     OW11125   2.181   0.810   4.673
 3580SOL    HW111126   2.274   0.846   4.678
 3580SOL    HW211127   2.175   0.725   4.725
 3581SOL     OW11128   2.201   0.509   4.730
 3581SOL    HW111129   2.149   0.426   4.713
 3581SOL    HW211130   2.278   0.514   4.666
 3582SOL     OW11131   3.000   0.380   5.402
 3582SOL    HW111132   2.955   0.443   5.466
 3582SOL    HW211133   3.093   0.411   5.385
 3583SOL     OW11134   3.022   0.207   5.201
 3583SOL    HW111135   3.022   0.271   5.278
 3583SOL    HW211136   3.050   0.255   5.118
 3584SOL     OW11137   1.870   1.326   3.924
 3584SOL    HW111138   1.777   1.347   3.893
 3584SOL    HW211139   1.880   1.227   3.937
 3585SOL     OW11140   1.950   1.801   4.651
 3585SOL    HW111141   1.908   1.715   4.624
 3585SOL    HW211142   2.044   1.804   4.617
 3586SOL     OW11143   2.366   1.568   4.634
 3586SOL    HW111144   2.432   1.642   4.643
 3586SOL    HW211145   2.410   1.489   4.592
 3587SOL     OW11146   2.864   0.796   4.962
 3587SOL    HW111147   2.905   0.764   5.048
 3587SOL    HW211148   2.768   0.769   4.959
 3588SOL     OW11149   1.902   0.544   4.838
 3588SOL    HW111150   1.987   0.511   4.797
 3588SOL    HW211151   1.915   0.559   4.936
 3589SOL     OW11152   2.051   0.520   5.446
 3589SOL    HW111153   2.110   0.480   5.376
 3589SOL    HW211154   1.993   0.591   5.405
 3590SOL     OW11155   3.231   0.950   5.384
 3590SOL    HW111156   3.270   1.039   5.404
 3590SOL    HW211157   3.241   0.930   5.287
 3591SOL     OW11158   2.677   0.572   4.049
 3591SOL    HW111159   2.684   0.483   4.003
 3591SOL    HW211160   2.583   0.606   4.041
 3592SOL     OW11161   3.519   0.604   4.930
 3592SOL    HW111162   3.481   0.535   4.992
 3592SOL    HW211163   3.601   0.568   4.886
 3593SOL     OW11164   2.533   0.464   4.993
 3593SOL    HW111165   2.499   0.375   4.963
 3593SOL    HW211166   2.559   0.518   4.913
 3594SOL     OW11167   2.792   1.678   5.189
 3594SOL    HW111168   2.768   1.660   5.094
 3594SOL    HW211169   2.822   1.772   5.199
 3595SOL     OW11170   2.335   0.500   3.915
 3595SOL    HW111171   2.396   0.580   3.919
 3595SOL    HW211172   2.240   0.531   3.922
 3596SOL     OW11173   2.021   1.137   5.190
 3596SOL    HW111174   2.043   1.076   5.266
 3596SOL    HW211175   2.031   1.088   5.104
 3597SOL     OW11176   3.209   1.059   4.958
 3597SOL    HW111177   3.233   0.996   4.884
 3597SOL    HW211178   3.119   1.099   4.940
 3598SOL     OW11179   3.164   0.855   4.033
 3598SOL    HW111180   3.078   0.824   4.075
 3598SOL    HW211181   3.160   0.841   3.934
 3599SOL     OW11182   3.621   1.747   4.878
 3599SOL    HW111183   3.682   1.777   4.805
 3599SOL    HW211184   3.583   1.658   4.856
 3600SOL     OW11185   3.114   1.731   4.852
 3600SOL    HW111186   3.198   1.736   4.798
 3600SOL    HW211187   3.091   1.635   4.870
 3601SOL     OW11188   1.945   1.258   4.746
 3601SOL    HW111189   1.940   1.257   4.846
 3601SOL    HW211190   1.862   1.217   4.708
 3602SOL     OW11191   3.588   0.135   4.247
 3602SOL    HW111192   3.661   0.118   4.180
 3602SOL    HW211193   3.557   0.048   4.285
 3603SOL     OW11194   3.250   1.573   4.201
 3603SOL    HW111195   3.317   1.585   4.127
 3603SOL    HW211196   3.210   1.662   4.224
 3604SOL     OW11197   3.142   0.927   4.396
 3604SOL    HW111198   3.202   0.846   4.398
 3604SOL    HW211199   3.182   0.996   4.336
 3605SOL     OW11200   2.692   1.273   5.146
 3605SOL    HW111201   2.687   1.306   5.241
 3605SOL    HW211202   2.606   1.292   5.100
 3606SOL     OW11203   2.534   1.616   3.878
 3606SOL    HW111204   2.543   1.626   3.779
 3606SOL    HW211205   2.494   1.527   3.899
 3607SOL     OW11206   3.512   1.720   5.118
 3607SOL    HW111207   3.565   1.730   5.034
 3607SOL    HW211208   3.485   1.810   5.152
 3608SOL     OW11209   3.703   0.175   4.687
 3608SOL    HW111210   3.742   0.090   4.651
 3608SOL    HW211211   3.605   0.177   4.668
 3609SOL     OW11212   2.125   0.326   4.444
 3609SOL    HW111213   2.046   0.377   4.410
 3609SOL    HW211214   2.116   0.311   4.542
 3610SOL     OW11215   3.056   1.612   3.755
 3610SOL    HW111216   3.062   1.519   3.792
 3610SOL    HW211217   2.997   1.612   3.675
 3611SOL     OW11218   2.684   1.002   5.096
 3611SOL    HW111219   2.724   1.001   5.004
 3611SOL    HW211220   2.694   1.094   5.136
 3612SOL     OW11221   2.778   0.910   4.015
 3612SOL    HW111222   2.841   0.948   3.947
 3612SOL    HW211223   2.818   0.827   4.054
 3613SOL     OW11224   3.366   1.607   3.768
 3613SOL    HW111225   3.274   1.644   3.775
 3613SOL    HW211226   3.404   1.627   3.678
 3614SOL     OW11227   2.234   1.288   5.214
 3614SOL    HW111228   2.221   1.381   5.180
 3614SOL    HW211229   2.150   1.236   5.201
 3615SOL     OW11230   3.476   1.292   5.013
 3615SOL    HW111231   3.536   1.295   5.093
 3615SOL    HW211232   3.401   1.356   5.026
 3616SOL     OW11233   2.901   1.098   4.420
 3616SOL    HW111234   2.831   1.051   4.474
 3616SOL    HW211235   2.960   1.030   4.377
 3617SOL     OW11236   2.876   0.236   4.695
 3617SOL    HW111237   2.868   0.200   4.602
 3617SOL    HW211238   2.874   0.160   4.760
 3618SOL     OW11239   2.452   1.487   4.215
 3618SOL    HW111240   2.494   1.429   4.145
 3618SOL    HW211241   2.408   1.566   4.171
 3619SOL     OW11242   3.571   0.385   5.105
 3619SOL    HW111243   3.644   0.454   5.109
 3619SOL    HW211244   3.599   0.310   5.046
 3620SOL     OW11245   2.117   1.348   4.014
 3620SOL    HW111246   2.021   1.349   3.987
 3620SOL    HW211247   2.129   1.401   4.098
 3621SOL     OW11248   1.967   1.013   5.450
 3621SOL    HW111249   1.890   0.980   5.504
 3621SOL    HW211250   2.052   0.983   5.492
 3622SOL     OW11251   2.534   0.203   5.213
 3622SOL    HW111252   2.624   0.187   5.173
 3622SOL    HW211253   2.542   0.208   5.312
 3623SOL     OW11254   1.937   0.345   3.757
 3623SOL    HW111255   1.845   0.317   3.728
 3623SOL    HW211256   1.968   0.422   3.701
 3624SOL     OW11257   3.302   0.856   5.122
 3624SOL    HW111258   3.245   0.908   5.059
 3624SOL    HW211259   3.398   0.868   5.098
 3625SOL     OW11260   1.934   0.166   4.042
 3625SOL    HW111261   1.917   0.249   3.988
 3625SOL    HW211262   2.024   0.129   4.020
 3626SOL     OW11263   3.045   1.335   3.843
 3626SOL    HW111264   2.946   1.324   3.845
 3626SOL    HW211265   3.079   1.350   3.936
 3627SOL     OW11266   2.475   0.842   5.155
 3627SOL    HW111267   2.531   0.923   5.138
 3627SOL    HW211268   2.534   0.762   5.158
 3628SOL     OW11269   3.355   1.767   4.683
 3628SOL    HW111270   3.388   1.831   4.614
 3628SOL    HW211271   3.421   1.761   4.758
 3629SOL     OW11272   2.578   0.565   5.432
 3629SOL    HW111273   2.597   0.630   5.506
 3629SOL    HW211274   2.638   0.485   5.441
 3630SOL     OW11275   3.312   1.220   5.357
 3630SOL    HW111276   3.303   1.210   5.456
 3630SOL    HW211277   3.408   1.213   5.331
 3631SOL     OW11278   3.536   0.883   4.978
 3631SOL    HW111279   3.509   0.794   4.941
 3631SOL    HW211280   3.537   0.951   4.905
 3632SOL     OW11281   3.087   0.325   4.173
 3632SOL    HW111282   3.152   0.251   4.162
 3632SOL    HW211283   3.107   0.375   4.257
 3633SOL     OW11284   2.456   0.745   4.376
 3633SOL    HW111285   2.506   0.830   4.357
 3633SOL    HW211286   2.368   0.747   4.328
 3634SOL     OW11287   3.639   0.342   5.366
 3634SOL    HW111288   3.622   0.373   5.272
 3634SOL    HW211289   3.555   0.305   5.404
 3635SOL     OW11290   3.592   0.934   5.241
 3635SOL    HW111291   3.630   1.025   5.256
 3635SOL    HW211292   3.584   0.917   5.142
 3636SOL     OW11293   2.721   1.374   3.740
 3636SOL    HW111294   2.675   1.389   3.828
 3636SOL    HW211295   2.765   1.459   3.710
 3637SOL     OW11296   2.523   1.790   4.677
 3637SOL    HW111297   2.477   1.878   4.664
 3637SOL    HW211298   2.622   1.802   4.670
 3638SOL     OW11299   2.721   0.956   4.585
 3638SOL    HW111300   2.775   0.887   4.633
 3638SOL    HW211301   2.689   1.025   4.651
 3639SOL     OW11302   2.945   0.984   3.811
 3639SOL    HW111303   2.922   1.037   3.729
 3639SOL    HW211304   3.026   0.928   3.792
 3640SOL     OW11305   3.723   1.569   4.575
 3640SOL    HW111306   3.652   1.557   4.505
 3640SOL    HW211307   3.724   1.490   4.635
 3641SOL     OW11308   2.083   1.314   5.568
 3641SOL    HW111309   2.018   1.241   5.547
 3641SOL    HW211310   2.087   1.328   5.666
 3642SOL     OW11311   1.941   1.240   4.377
 3642SOL    HW111312   1.940   1.193   4.465
 3642SOL    HW211313   2.023   1.212   4.326
 3643SOL     OW11314   3.686   0.192   4.951
 3643SOL    HW111315   3.682   0.102   4.995
 3643SOL    HW211316   3.689   0.181   4.852
 3644SOL     OW11317   2.290   0.424   4.244
 3644SOL    HW111318   2.320   0.352   4.182
 3644SOL    HW211319   2.251   0.384   4.327
 3645SOL     OW11320   3.567   1.487   4.828
 3645SOL    HW111321   3.474   1.462   4.801
 3645SOL    HW211322   3.593   1.437   4.910
 3646SOL     OW11323   2.179   0.547   5.004
 3646SOL    HW111324   2.217   0.488   5.076
 3646SOL    HW211325   2.219   0.521   4.916
 3647SOL     OW11326   2.674   1.586   4.411
 3647SOL    HW111327   2.706   1.596   4.317
 3647SOL    HW211328   2.595   1.524   4.413
 3648SOL     OW11329   3.286   0.214   4.836
 3648SOL    HW111330   3.338   0.149   4.891
 3648SOL    HW211331   3.237   0.277   4.897
 3649SOL     OW11332   2.863   0.034   4.878
 3649SOL    HW111333   2.800  -0.038   4.847
 3649SOL    HW211334   2.956  -0.002   4.878
 3650SOL     OW11335   2.632   1.330   4.025
 3650SOL    HW111336   2.586   1.243   4.042
 3650SOL    HW211337   2.723   1.327   4.066
 3651SOL     OW11338   2.480   1.567   5.008
 3651SOL    HW111339   2.475   1.649   5.065
 3651SOL    HW211340   2.569   1.564   4.963
 3652SOL     OW11341   3.214   0.052   3.892
 3652SOL    HW111342   3.249   0.011   3.808
 3652SOL    HW211343   3.124   0.014   3.912
 3653SOL     OW11344   3.162   0.453   4.415
 3653SOL    HW111345   3.103   0.533   4.419
 3653SOL    HW211346   3.177   0.418   4.508
 3654SOL     OW11347   3.455   0.221   4.606
 3654SOL    HW111348   3.371   0.220   4.660
 3654SOL    HW211349   3.457   0.304   4.550
 3655SOL     OW11350   1.901   1.077   4.024
 3655SOL    HW111351   2.000   1.066   4.015
 3655SOL    HW211352   1.861   0.991   4.056
 3656SOL     OW11353   2.737   1.646   4.061
 3656SOL    HW111354   2.660   1.611   4.007
 3656SOL    HW211355   2.705   1.717   4.123
 3657SOL     OW11356   2.092   0.628   5.699
 3657SOL    HW111357   1.999   0.626   5.736
 3657SOL    HW211358   2.093   0.589   5.607
 3658SOL     OW11359   2.087   0.275   6.582
 3658SOL    HW111360   2.122   0.258   6.674
 3658SOL    HW211361   1.999   0.230   6.570
 3659SOL     OW11362   1.881   0.368   6.233
 3659SOL    HW111363   1.799   0.411   6.272
 3659SOL    HW211364   1.853   0.295   6.170
 3660SOL     OW11365   2.431   1.275   6.751
 3660SOL    HW111366   2.338   1.268   6.714
 3660SOL    HW211367   2.442   1.364   6.795
 3661SOL     OW11368   3.417   1.511   6.289
 3661SOL    HW111369   3.360   1.495   6.370
 3661SOL    HW211370   3.358   1.521   6.209
 3662SOL     OW11371   2.997   0.703   6.303
 3662SOL    HW111372   3.054   0.781   6.278
 3662SOL    HW211373   2.937   0.729   6.379
 3663SOL     OW11374   3.617   0.607   5.817
 3663SOL    HW111375   3.605   0.594   5.718
 3663SOL    HW211376   3.587   0.526   5.866
 3664SOL     OW11377   2.630   1.144   6.609
 3664SOL    HW111378   2.552   1.161   6.669
 3664SOL    HW211379   2.664   1.231   6.573
 3665SOL     OW11380   2.712   0.798   7.409
 3665SOL    HW111381   2.708   0.874   7.474
 3665SOL    HW211382   2.734   0.834   7.318
 3666SOL     OW11383   2.547   1.012   6.251
 3666SOL    HW111384   2.616   0.996   6.321
 3666SOL    HW211385   2.474   1.069   6.289
 3667SOL     OW11386   2.548   1.161   7.389
 3667SOL    HW111387   2.608   1.240   7.403
 3667SOL    HW211388   2.462   1.192   7.348
 3668SOL     OW11389   2.197   1.435   6.647
 3668SOL    HW111390   2.119   1.404   6.594
 3668SOL    HW211391   2.255   1.493   6.590
 3669SOL     OW11392   3.322   1.505   6.925
 3669SOL    HW111393   3.346   1.599   6.951
 3669SOL    HW211394   3.306   1.451   7.007
 3670SOL     OW11395   2.300   0.392   7.085
 3670SOL    HW111396   2.382   0.336   7.094
 3670SOL    HW211397   2.219   0.334   7.089
 3671SOL     OW11398   3.465   0.447   6.323
 3671SOL    HW111399   3.391   0.493   6.273
 3671SOL    HW211400   3.516   0.515   6.376
 3672SOL     OW11401   2.989   1.341   7.276
 3672SOL    HW111402   3.036   1.341   7.364
 3672SOL    HW211403   2.941   1.254   7.265
 3673SOL     OW11404   2.092   1.434   6.124
 3673SOL    HW111405   2.066   1.530   6.124
 3673SOL    HW211406   2.021   1.380   6.169
 3674SOL     OW11407   2.102   1.091   6.472
 3674SOL    HW111408   2.116   1.007   6.524
 3674SOL    HW211409   2.047   1.155   6.527
 3675SOL     OW11410   2.482   1.786   7.025
 3675SOL    HW111411   2.390   1.769   7.060
 3675SOL    HW211412   2.510   1.878   7.051
 3676SOL     OW11413   2.468   0.964   5.709
 3676SOL    HW111414   2.475   1.048   5.655
 3676SOL    HW211415   2.514   0.977   5.797
 3677SOL     OW11416   3.456   0.114   7.066
 3677SOL    HW111417   3.438   0.181   6.994
 3677SOL    HW211418   3.453   0.160   7.155
 3678SOL     OW11419   1.984   0.643   6.149
 3678SOL    HW111420   1.939   0.555   6.166
 3678SOL    HW211421   1.983   0.697   6.233
 3679SOL     OW11422   3.704   1.767   5.945
 3679SOL    HW111423   3.758   1.738   6.025
 3679SOL    HW211424   3.734   1.857   5.916
 3680SOL     OW11425   1.889   1.596   5.703
 3680SOL    HW111426   1.870   1.500   5.724
 3680SOL    HW211427   1.856   1.654   5.778
 3681SOL     OW11428   3.551   0.922   6.198
 3681SOL    HW111429   3.646   0.893   6.206
 3681SOL    HW211430   3.543   0.987   6.123
 3682SOL     OW11431   3.503   1.108   6.018
 3682SOL    HW111432   3.589   1.110   5.966
 3682SOL    HW211433   3.517   1.155   6.106
 3683SOL     OW11434   1.975   0.737   7.183
 3683SOL    HW111435   2.063   0.724   7.228
 3683SOL    HW211436   1.962   0.834   7.161
 3684SOL     OW11437   2.475   1.365   6.312
 3684SOL    HW111438   2.426   1.278   6.321
 3684SOL    HW211439   2.452   1.408   6.225
 3685SOL     OW11440   3.155   1.228   7.009
 3685SOL    HW111441   3.192   1.155   6.951
 3685SOL    HW211442   3.207   1.233   7.094
 3686SOL     OW11443   2.671   0.004   6.088
 3686SOL    HW111444   2.711   0.095   6.079
 3686SOL    HW211445   2.571   0.012   6.094
 3687SOL     OW11446   2.059   0.976   6.850
 3687SOL    HW111447   2.148   0.931   6.836
 3687SOL    HW211448   1.986   0.911   6.831
 3688SOL     OW11449   3.387   0.999   5.776
 3688SOL    HW111450   3.324   0.923   5.789
 3688SOL    HW211451   3.435   1.017   5.862
 3689SOL     OW11452   3.049   1.792   7.202
 3689SOL    HW111453   3.073   1.852   7.126
 3689SOL    HW211454   3.056   1.697   7.172
 3690SOL     OW11455   2.179   0.251   7.387
 3690SOL    HW111456   2.250   0.322   7.393
 3690SOL    HW211457   2.091   0.290   7.415
 3691SOL     OW11458   3.328   1.417   6.539
 3691SOL    HW111459   3.269   1.423   6.619
 3691SOL    HW211460   3.313   1.329   6.493
 3692SOL     OW11461   3.529   1.714   6.158
 3692SOL    HW111462   3.488   1.691   6.070
 3692SOL    HW211463   3.511   1.640   6.223
 3693SOL     OW11464   2.460   0.729   5.856
 3693SOL    HW111465   2.484   0.798   5.788
 3693SOL    HW211466   2.382   0.762   5.910
 3694SOL     OW11467   3.143   0.345   6.530
 3694SOL    HW111468   3.057   0.295   6.517
 3694SOL    HW211469   3.205   0.291   6.586
 3695SOL     OW11470   3.438   1.662   5.893
 3695SOL    HW111471   3.527   1.708   5.896
 3695SOL    HW211472   3.417   1.638   5.798
 3696SOL     OW11473   2.669   0.605   7.051
 3696SOL    HW111474   2.622   0.602   7.140
 3696SOL    HW211475   2.618   0.550   6.985
 3697SOL     OW11476   3.256   0.469   7.260
 3697SOL    HW111477   3.236   0.512   7.348
 3697SOL    HW211478   3.334   0.407   7.269
 3698SOL     OW11479   2.835   0.890   7.158
 3698SOL    HW111480   2.881   0.806   7.129
 3698SOL    HW211481   2.779   0.924   7.083
 3699SOL     OW11482   2.853   0.410   6.828
 3699SOL    HW111483   2.776   0.444   6.882
 3699SOL    HW211484   2.819   0.359   6.749
 3700SOL     OW11485   2.903   0.701   6.015
 3700SOL    HW111486   2.929   0.697   6.111
 3700SOL    HW211487   2.818   0.650   6.001
 3701SOL     OW11488   1.938   0.811   6.375
 3701SOL    HW111489   2.037   0.799   6.384
 3701SOL    HW211490   1.914   0.906   6.396
 3702SOL     OW11491   1.992   1.821   7.157
 3702SOL    HW111492   1.982   1.806   7.256
 3702SOL    HW211493   1.906   1.857   7.121
 3703SOL     OW11494   2.727   0.348   5.781
 3703SOL    HW111495   2.786   0.411   5.732
 3703SOL    HW211496   2.746   0.254   5.752
 3704SOL     OW11497   3.581   0.585   7.417
 3704SOL    HW111498   3.555   0.674   7.381
 3704SOL    HW211499   3.579   0.517   7.344
 3705SOL     OW11500   3.224   1.144   6.131
 3705SOL    HW111501   3.307   1.115   6.083
 3705SOL    HW211502   3.175   1.211   6.075
 3706SOL     OW11503   2.412   0.196   6.471
 3706SOL    HW111504   2.407   0.191   6.571
 3706SOL    HW211505   2.414   0.292   6.442
 3707SOL     OW11506   2.870   1.456   6.063
 3707SOL    HW111507   2.824   1.528   6.011
 3707SOL    HW211508   2.866   1.476   6.161
 3708SOL     OW11509   2.213   1.801   6.439
 3708SOL    HW111510   2.263   1.715   6.445
 3708SOL    HW211511   2.278   1.878   6.436
 3709SOL     OW11512   3.657   1.066   6.459
 3709SOL    HW111513   3.595   1.051   6.383
 3709SOL    HW211514   3.605   1.077   6.544
 3710SOL     OW11515   3.089   1.550   7.092
 3710SOL    HW111516   3.095   1.473   7.156
 3710SOL    HW211517   3.037   1.524   7.012
 3711SOL     OW11518   2.183   0.943   5.828
 3711SOL    HW111519   2.265   0.982   5.786
 3711SOL    HW211520   2.156   0.861   5.779
 3712SOL     OW11521   3.320   0.735   6.314
 3712SOL    HW111522   3.315   0.670   6.389
 3712SOL    HW211523   3.400   0.794   6.327
 3713SOL     OW11524   2.323   1.266   7.313
 3713SOL    HW111525   2.273   1.267   7.227
 3713SOL    HW211526   2.260   1.248   7.389
 3714SOL     OW11527   2.973   1.776   5.823
 3714SOL    HW111528   2.913   1.714   5.873
 3714SOL    HW211529   3.004   1.732   5.738
 3715SOL     OW11530   2.064   0.285   7.084
 3715SOL    HW111531   1.984   0.345   7.071
 3715SOL    HW211532   2.054   0.236   7.170
 3716SOL     OW11533   3.494   1.377   5.667
 3716SOL    HW111534   3.462   1.471   5.657
 3716SOL    HW211535   3.418   1.314   5.655
 3717SOL     OW11536   3.262   0.107   6.012
 3717SOL    HW111537   3.238   0.070   5.922
 3717SOL    HW211538   3.361   0.123   6.016
 3718SOL     OW11539   2.111   1.785   6.827
 3718SOL    HW111540   2.168   1.720   6.877
 3718SOL    HW211541   2.095   1.752   6.734
 3719SOL     OW11542   2.802   1.698   6.490
 3719SOL    HW111543   2.882   1.641   6.511
 3719SOL    HW211544   2.753   1.658   6.413
 3720SOL     OW11545   2.244   0.700   6.066
 3720SOL    HW111546   2.289   0.610   6.063
 3720SOL    HW211547   2.150   0.689   6.099
 3721SOL     OW11548   3.409   0.222   7.315
 3721SOL    HW111549   3.404   0.259   7.407
 3721SOL    HW211550   3.337   0.153   7.303
 3722SOL     OW11551   2.476   0.122   5.703
 3722SOL    HW111552   2.574   0.100   5.710
 3722SOL    HW211553   2.445   0.105   5.610
 3723SOL     OW11554   2.643   0.264   7.335
 3723SOL    HW111555   2.710   0.203   7.378
 3723SOL    HW211556   2.570   0.283   7.400
 3724SOL     OW11557   2.750   1.514   6.781
 3724SOL    HW111558   2.727   1.489   6.687
 3724SOL    HW211559   2.811   1.445   6.820
 3725SOL     OW11560   3.213   0.590   7.019
 3725SOL    HW111561   3.241   0.547   7.104
 3725SOL    HW211562   3.238   0.686   7.020
 3726SOL     OW11563   2.665   1.402   6.510
 3726SOL    HW111564   2.755   1.416   6.468
 3726SOL    HW211565   2.594   1.404   6.439
 3727SOL     OW11566   2.784   0.503   6.485
 3727SOL    HW111567   2.759   0.494   6.389
 3727SOL    HW211568   2.832   0.421   6.516
 3728SOL     OW11569   2.401   0.064   6.098
 3728SOL    HW111570   2.320   0.065   6.156
 3728SOL    HW211571   2.404   0.147   6.043
 3729SOL     OW11572   3.296   1.188   5.627
 3729SOL    HW111573   3.328   1.112   5.684
 3729SOL    HW211574   3.204   1.215   5.657
 3730SOL     OW11575   2.159   0.035   5.757
 3730SOL    HW111576   2.208   0.119   5.736
 3730SOL    HW211577   2.221  -0.030   5.802
 3731SOL     OW11578   2.797   0.236   6.066
 3731SOL    HW111579   2.749   0.277   5.988
 3731SOL    HW211580   2.896   0.234   6.047
 3732SOL     OW11581   2.938   0.683   7.050
 3732SOL    HW111582   2.858   0.622   7.053
 3732SOL    HW211583   3.019   0.630   7.026
 3733SOL     OW11584   3.089   1.570   6.379
 3733SOL    HW111585   3.110   1.644   6.314
 3733SOL    HW211586   3.157   1.570   6.452
 3734SOL     OW11587   2.321   1.152   6.327
 3734SOL    HW111588   2.250   1.125   6.392
 3734SOL    HW211589   2.295   1.124   6.234
 3735SOL     OW11590   3.133   1.797   6.177
 3735SOL    HW111591   3.177   1.861   6.113
 3735SOL    HW211592   3.083   1.849   6.247
 3736SOL     OW11593   2.894   0.549   5.602
 3736SOL    HW111594   2.853   0.631   5.563
 3736SOL    HW211595   2.958   0.575   5.675
 3737SOL     OW11596   1.940   0.556   6.972
 3737SOL    HW111597   2.032   0.555   6.931
 3737SOL    HW211598   1.934   0.630   7.039
 3738SOL     OW11599   2.423   0.222   6.733
 3738SOL    HW111600   2.461   0.138   6.770
 3738SOL    HW211601   2.335   0.241   6.777
 3739SOL     OW11602   2.728   0.454   6.228
 3739SOL    HW111603   2.696   0.526   6.166
 3739SOL    HW211604   2.752   0.373   6.175
 3740SOL     OW11605   2.879   0.039   6.339
 3740SOL    HW111606   2.807   0.044   6.270
 3740SOL    HW211607   2.855  -0.030   6.408
 3741SOL     OW11608   3.291   1.173   6.453
 3741SOL    HW111609   3.236   1.089   6.446
 3741SOL    HW211610   3.317   1.202   6.361
 3742SOL     OW11611   3.328   0.590   6.578
 3742SOL    HW111612   3.298   0.495   6.585
 3742SOL    HW211613   3.401   0.606   6.644
 3743SOL     OW11614   3.719   0.833   5.963
 3743SOL    HW111615   3.761   0.769   6.027
 3743SOL    HW211616   3.681   0.782   5.885
 3744SOL     OW11617   2.350   1.385   5.760
 3744SOL    HW111618   2.263   1.370   5.807
 3744SOL    HW211619   2.333   1.411   5.665
 3745SOL     OW11620   3.526   1.280   6.243
 3745SOL    HW111621   3.625   1.288   6.257
 3745SOL    HW211622   3.481   1.364   6.274
 3746SOL     OW11623   3.252   0.575   5.664
 3746SOL    HW111624   3.198   0.554   5.745
 3746SOL    HW211625   3.343   0.534   5.673
 3747SOL     OW11626   2.389   0.256   5.914
 3747SOL    HW111627   2.416   0.197   5.839
 3747SOL    HW211628   2.389   0.351   5.883
 3748SOL     OW11629   3.616   1.223   7.174
 3748SOL    HW111630   3.707   1.184   7.161
 3748SOL    HW211631   3.624   1.319   7.198
 3749SOL     OW11632   2.926   1.347   6.926
 3749SOL    HW111633   2.846   1.324   6.981
 3749SOL    HW211634   3.009   1.321   6.975
 3750SOL     OW11635   3.454   1.629   7.211
 3750SOL    HW111636   3.481   1.663   7.121
 3750SOL    HW211637   3.533   1.591   7.257
 3751SOL     OW11638   2.973   1.195   6.686
 3751SOL    HW111639   2.933   1.239   6.767
 3751SOL    HW211640   2.932   1.232   6.603
 3752SOL     OW11641   3.500   1.099   6.665
 3752SOL    HW111642   3.505   1.180   6.724
 3752SOL    HW211643   3.414   1.101   6.614
 3753SOL     OW11644   2.777   0.089   6.988
 3753SOL    HW111645   2.802   0.069   6.893
 3753SOL    HW211646   2.849   0.145   7.030
 3754SOL     OW11647   2.842   1.116   7.305
 3754SOL    HW111648   2.743   1.122   7.315
 3754SOL    HW211649   2.865   1.036   7.249
 3755SOL     OW11650   2.567   1.050   5.954
 3755SOL    HW111651   2.553   1.057   6.053
 3755SOL    HW211652   2.651   0.999   5.936
 3756SOL     OW11653   2.272   0.813   6.837
 3756SOL    HW111654   2.358   0.825   6.887
 3756SOL    HW211655   2.230   0.726   6.864
 3757SOL     OW11656   3.136   0.386   6.848
 3757SOL    HW111657   3.157   0.460   6.912
 3757SOL    HW211658   3.047   0.403   6.805
 3758SOL     OW11659   1.926   1.564   6.917
 3758SOL    HW111660   1.880   1.646   6.883
 3758SOL    HW211661   2.024   1.583   6.926
 3759SOL     OW11662   2.229   1.100   6.087
 3759SOL    HW111663   2.222   1.183   6.031
 3759SOL    HW211664   2.233   1.020   6.027
 3760SOL     OW11665   2.428   0.537   6.451
 3760SOL    HW111666   2.440   0.603   6.377
 3760SOL    HW211667   2.474   0.571   6.534
 3761SOL     OW11668   3.114   1.348   5.974
 3761SOL    HW111669   3.164   1.425   6.014
 3761SOL    HW211670   3.019   1.350   6.006
 3762SOL     OW11671   3.134   1.445   6.728
 3762SOL    HW111672   3.181   1.458   6.815
 3762SOL    HW211673   3.068   1.371   6.737
 3763SOL     OW11674   3.444   0.639   6.058
 3763SOL    HW111675   3.413   0.700   6.131
 3763SOL    HW211676   3.494   0.691   5.989
 3764SOL     OW11677   2.216   1.510   6.915
 3764SOL    HW111678   2.195   1.466   6.828
 3764SOL    HW211679   2.313   1.536   6.918
 3765SOL     OW11680   2.264   0.751   7.184
 3765SOL    HW111681   2.332   0.806   7.137
 3765SOL    HW211682   2.304   0.663   7.211
 3766SOL     OW11683   3.449   0.779   7.256
 3766SOL    HW111684   3.357   0.817   7.251
 3766SOL    HW211685   3.509   0.826   7.191
 3767SOL     OW11686   2.875   0.105   7.356
 3767SOL    HW111687   2.881   0.190   7.304
 3767SOL    HW211688   2.907   0.029   7.299
 3768SOL     OW11689   2.366   0.050   7.326
 3768SOL    HW111690   2.324  -0.007   7.256
 3768SOL    HW211691   2.300   0.119   7.358
 3769SOL     OW11692   2.435   0.870   6.615
 3769SOL    HW111693   2.479   0.959   6.606
 3769SOL    HW211694   2.372   0.870   6.692
 3770SOL     OW11695   3.222   0.862   6.631
 3770SOL    HW111696   3.147   0.862   6.565
 3770SOL    HW211697   3.259   0.770   6.640
 3771SOL     OW11698   3.071   0.525   5.861
 3771SOL    HW111699   3.084   0.441   5.915
 3771SOL    HW211700   3.042   0.599   5.921
 3772SOL     OW11701   2.169   0.213   6.817
 3772SOL    HW111702   2.146   0.250   6.907
 3772SOL    HW211703   2.139   0.118   6.811
 3773SOL     OW11704   1.899   1.310   6.868
 3773SOL    HW111705   1.952   1.261   6.936
 3773SOL    HW211706   1.921   1.408   6.873
 3774SOL     OW11707   2.594   0.634   6.650
 3774SOL    HW111708   2.653   0.608   6.574
 3774SOL    HW211709   2.566   0.730   6.639
 3775SOL     OW11710   3.590   0.935   7.440
 3775SOL    HW111711   3.544   0.928   7.351
 3775SOL    HW211712   3.528   0.979   7.506
 3776SOL     OW11713   2.169   0.063   6.204
 3776SOL    HW111714   2.158   0.157   6.237
 3776SOL    HW211715   2.164   0.000   6.281
 3777SOL     OW11716   3.484   0.367   5.960
 3777SOL    HW111717   3.486   0.291   6.024
 3777SOL    HW211718   3.436   0.444   6.000
 3778SOL     OW11719   2.885   0.766   6.552
 3778SOL    HW111720   2.900   0.787   6.648
 3778SOL    HW211721   2.855   0.671   6.543
 3779SOL     OW11722   2.842   1.573   7.286
 3779SOL    HW111723   2.822   1.617   7.198
 3779SOL    HW211724   2.881   1.482   7.270
 3780SOL     OW11725   3.721   1.518   7.191
 3780SOL    HW111726   3.735   1.545   7.096
 3780SOL    HW211727   3.804   1.540   7.244
 3781SOL     OW11728   2.212   0.898   7.390
 3781SOL    HW111729   2.288   0.942   7.438
 3781SOL    HW211730   2.247   0.851   7.308
 3782SOL     OW11731   3.402   0.274   5.711
 3782SOL    HW111732   3.341   0.199   5.734
 3782SOL    HW211733   3.424   0.326   5.794
 3783SOL     OW11734   3.165   0.838   5.628
 3783SOL    HW111735   3.199   0.745   5.643
 3783SOL    HW211736   3.183   0.865   5.533
 3784SOL     OW11737   2.930   1.333   6.435
 3784SOL    HW111738   2.937   1.249   6.380
 3784SOL    HW211739   2.992   1.402   6.399
 3785SOL     OW11740   2.181   0.810   6.535
 3785SOL    HW111741   2.274   0.846   6.540
 3785SOL    HW211742   2.175   0.725   6.587
 3786SOL     OW11743   2.201   0.509   6.592
 3786SOL    HW111744   2.149   0.426   6.575
 3786SOL    HW211745   2.278   0.514   6.528
 3787SOL     OW11746   3.000   0.380   7.264
 3787SOL    HW111747   2.955   0.443   7.328
 3787SOL    HW211748   3.093   0.411   7.247
 3788SOL     OW11749   3.022   0.207   7.063
 3788SOL    HW111750   3.022   0.271   7.140
 3788SOL    HW211751   3.050   0.255   6.980
 3789SOL     OW11752   1.870   1.326   5.786
 3789SOL    HW111753   1.777   1.347   5.755
 3789SOL    HW211754   1.880   1.227   5.799
 3790SOL     OW11755   1.950   1.801   6.513
 3790SOL    HW111756   1.908   1.715   6.486
 3790SOL    HW211757   2.044   1.804   6.479
 3791SOL     OW11758   2.366   1.568   6.496
 3791SOL    HW111759   2.432   1.642   6.505
 3791SOL    HW211760   2.410   1.489   6.454
 3792SOL     OW11761   2.864   0.796   6.824
 3792SOL    HW111762   2.905   0.764   6.910
 3792SOL    HW211763   2.768   0.769   6.821
 3793SOL     OW11764   1.902   0.544   6.700
 3793SOL    HW111765   1.987   0.511   6.659
 3793SOL    HW211766   1.915   0.559   6.798
 3794SOL     OW11767   2.051   0.520   7.308
 3794SOL    HW111768   2.110   0.480   7.238
 3794SOL    HW211769   1.993   0.591   7.267
 3795SOL     OW11770   3.231   0.950   7.246
 3795SOL    HW111771   3.270   1.039   7.266
 3795SOL    HW211772   3.241   0.930   7.149
 3796SOL     OW11773   2.677   0.572   5.911
 3796SOL    HW111774   2.684   0.483   5.865
 3796SOL    HW211775   2.583   0.606   5.903
 3797SOL     OW11776   3.519   0.604   6.792
 3797SOL    HW111777   3.481   0.535   6.854
 3797SOL    HW211778   3.601   0.568   6.748
 3798SOL     OW11779   2.114   1.564   7.330
 3798SOL    HW111780   2.084   1.621   7.406
 3798SOL    HW211781   2.107   1.467   7.356
 3799SOL     OW11782   2.533   0.464   6.855
 3799SOL    HW111783   2.499   0.375   6.825
 3799SOL    HW211784   2.559   0.518   6.775
 3800SOL     OW11785   2.792   1.678   7.051
 3800SOL    HW111786   2.768   1.660   6.956
 3800SOL    HW211787   2.822   1.772   7.061
 3801SOL     OW11788   2.335   0.500   5.777
 3801SOL    HW111789   2.396   0.580   5.781
 3801SOL    HW211790   2.240   0.531   5.784
 3802SOL     OW11791   2.021   1.137   7.052
 3802SOL    HW111792   2.043   1.076   7.128
 3802SOL    HW211793   2.031   1.088   6.966
 3803SOL     OW11794   3.209   1.059   6.820
 3803SOL    HW111795   3.233   0.996   6.746
 3803SOL    HW211796   3.119   1.099   6.802
 3804SOL     OW11797   3.164   0.855   5.895
 3804SOL    HW111798   3.078   0.824   5.937
 3804SOL    HW211799   3.160   0.841   5.796
 3805SOL     OW11800   3.621   1.747   6.740
 3805SOL    HW111801   3.682   1.777   6.667
 3805SOL    HW211802   3.583   1.658   6.718
 3806SOL     OW11803   3.114   1.731   6.714
 3806SOL    HW111804   3.198   1.736   6.660
 3806SOL    HW211805   3.091   1.635   6.732
 3807SOL     OW11806   1.945   1.258   6.608
 3807SOL    HW111807   1.940   1.257   6.708
 3807SOL    HW211808   1.862   1.217   6.570
 3808SOL     OW11809   2.550   1.662   7.302
 3808SOL    HW111810   2.494   1.743   7.311
 3808SOL    HW211811   2.602   1.666   7.216
 3809SOL     OW11812   3.588   0.135   6.109
 3809SOL    HW111813   3.661   0.118   6.042
 3809SOL    HW211814   3.557   0.048   6.147
 3810SOL     OW11815   3.250   1.573   6.063
 3810SOL    HW111816   3.317   1.585   5.989
 3810SOL    HW211817   3.210   1.662   6.086
 3811SOL     OW11818   1.992   1.794   7.437
 3811SOL    HW111819   1.951   1.720   7.490
 3811SOL    HW211820   2.056   1.845   7.495
 3812SOL     OW11821   3.142   0.927   6.258
 3812SOL    HW111822   3.202   0.846   6.260
 3812SOL    HW211823   3.182   0.996   6.198
 3813SOL     OW11824   2.692   1.273   7.008
 3813SOL    HW111825   2.687   1.306   7.103
 3813SOL    HW211826   2.606   1.292   6.962
 3814SOL     OW11827   3.512   1.720   6.980
 3814SOL    HW111828   3.565   1.730   6.896
 3814SOL    HW211829   3.485   1.810   7.014
 3815SOL     OW11830   3.703   0.175   6.549
 3815SOL    HW111831   3.742   0.090   6.513
 3815SOL    HW211832   3.605   0.177   6.530
 3816SOL     OW11833   2.125   0.326   6.306
 3816SOL    HW111834   2.046   0.377   6.272
 3816SOL    HW211835   2.116   0.311   6.404
 3817SOL     OW11836   3.056   1.612   5.617
 3817SOL    HW111837   3.062   1.519   5.654
 3817SOL    HW211838   2.997   1.612   5.537
 3818SOL     OW11839   2.684   1.002   6.958
 3818SOL    HW111840   2.724   1.001   6.866
 3818SOL    HW211841   2.694   1.094   6.998
 3819SOL     OW11842   2.778   0.910   5.877
 3819SOL    HW111843   2.841   0.948   5.809
 3819SOL    HW211844   2.818   0.827   5.916
 3820SOL     OW11845   3.366   1.607   5.630
 3820SOL    HW111846   3.274   1.644   5.637
 3820SOL    HW211847   3.404   1.627   5.540
 3821SOL     OW11848   2.234   1.288   7.076
 3821SOL    HW111849   2.221   1.381   7.042
 3821SOL    HW211850   2.150   1.236   7.063
 3822SOL     OW11851   3.476   1.292   6.875
 3822SOL    HW111852   3.536   1.295   6.955
 3822SOL    HW211853   3.401   1.356   6.888
 3823SOL     OW11854   2.901   1.098   6.282
 3823SOL    HW111855   2.831   1.051   6.336
 3823SOL    HW211856   2.960   1.030   6.239
 3824SOL     OW11857   2.876   0.236   6.557
 3824SOL    HW111858   2.868   0.200   6.464
 3824SOL    HW211859   2.874   0.160   6.622
 3825SOL     OW11860   2.452   1.487   6.077
 3825SOL    HW111861   2.494   1.429   6.007
 3825SOL    HW211862   2.408   1.566   6.033
 3826SOL     OW11863   3.571   0.385   6.967
 3826SOL    HW111864   3.644   0.454   6.971
 3826SOL    HW211865   3.599   0.310   6.908
 3827SOL     OW11866   2.117   1.348   5.876
 3827SOL    HW111867   2.021   1.349   5.849
 3827SOL    HW211868   2.129   1.401   5.960
 3828SOL     OW11869   1.967   1.013   7.312
 3828SOL    HW111870   1.890   0.980   7.366
 3828SOL    HW211871   2.052   0.983   7.354
 3829SOL     OW11872   2.534   0.203   7.075
 3829SOL    HW111873   2.624   0.187   7.035
 3829SOL    HW211874   2.542   0.208   7.174
 3830SOL     OW11875   1.937   0.345   5.619
 3830SOL    HW111876   1.845   0.317   5.590
 3830SOL    HW211877   1.968   0.422   5.563
 3831SOL     OW11878   3.302   0.856   6.984
 3831SOL    HW111879   3.245   0.908   6.921
 3831SOL    HW211880   3.398   0.868   6.960
 3832SOL     OW11881   1.934   0.166   5.904
 3832SOL    HW111882   1.917   0.249   5.850
 3832SOL    HW211883   2.024   0.129   5.882
 3833SOL     OW11884   3.045   1.335   5.705
 3833SOL    HW111885   2.946   1.324   5.707
 3833SOL    HW211886   3.079   1.350   5.798
 3834SOL     OW11887   2.475   0.842   7.017
 3834SOL    HW111888   2.531   0.923   7.000
 3834SOL    HW211889   2.534   0.762   7.020
 3835SOL     OW11890   3.355   1.767   6.545
 3835SOL    HW111891   3.388   1.831   6.476
 3835SOL    HW211892   3.421   1.761   6.620
 3836SOL     OW11893   2.578   0.565   7.294
 3836SOL    HW111894   2.597   0.630   7.368
 3836SOL    HW211895   2.638   0.485   7.303
 3837SOL     OW11896   3.312   1.220   7.219
 3837SOL    HW111897   3.303   1.210   7.318
 3837SOL    HW211898   3.408   1.213   7.193
 3838SOL     OW11899   2.252   1.741   7.146
 3838SOL    HW111900   2.161   1.782   7.144
 3838SOL    HW211901   2.245   1.647   7.178
 3839SOL     OW11902   3.536   0.883   6.840
 3839SOL    HW111903   3.509   0.794   6.803
 3839SOL    HW211904   3.537   0.951   6.767
 3840SOL     OW11905   3.087   0.325   6.035
 3840SOL    HW111906   3.152   0.251   6.024
 3840SOL    HW211907   3.107   0.375   6.119
 3841SOL     OW11908   2.456   0.745   6.238
 3841SOL    HW111909   2.506   0.830   6.219
 3841SOL    HW211910   2.368   0.747   6.190
 3842SOL     OW11911   3.639   0.342   7.228
 3842SOL    HW111912   3.622   0.373   7.134
 3842SOL    HW211913   3.555   0.305   7.266
 3843SOL     OW11914   3.592   0.934   7.103
 3843SOL    HW111915   3.630   1.025   7.118
 3843SOL    HW211916   3.584   0.917   7.004
 3844SOL     OW11917   2.721   1.374   5.602
 3844SOL    HW111918   2.675   1.389   5.690
 3844SOL    HW211919   2.765   1.459   5.572
 3845SOL     OW11920   2.523   1.790   6.539
 3845SOL    HW111921   2.477   1.878   6.526
 3845SOL    HW211922   2.622   1.802   6.532
 3846SOL     OW11923   2.721   0.956   6.447
 3846SOL    HW111924   2.775   0.887   6.495
 3846SOL    HW211925   2.689   1.025   6.513
 3847SOL     OW11926   2.945   0.984   5.673
 3847SOL    HW111927   2.922   1.037   5.591
 3847SOL    HW211928   3.026   0.928   5.654
 3848SOL     OW11929   3.723   1.569   6.437
 3848SOL    HW111930   3.652   1.557   6.367
 3848SOL    HW211931   3.724   1.490   6.497
 3849SOL     OW11932   2.083   1.314   7.430
 3849SOL    HW111933   2.018   1.241   7.409
 3849SOL    HW211934   2.087   1.328   7.528
 3850SOL     OW11935   1.941   1.240   6.239
 3850SOL    HW111936   1.940   1.193   6.327
 3850SOL    HW211937   2.023   1.212   6.188
 3851SOL     OW11938   2.534   1.391   7.210
 3851SOL    HW111939   2.456   1.341   7.248
 3851SOL    HW211940   2.531   1.486   7.241
 3852SOL     OW11941   3.686   0.192   6.813
 3852SOL    HW111942   3.682   0.102   6.857
 3852SOL    HW211943   3.689   0.181   6.714
 3853SOL     OW11944   2.290   0.424   6.106
 3853SOL    HW111945   2.320   0.352   6.044
 3853SOL    HW211946   2.251   0.384   6.189
 3854SOL     OW11947   3.567   1.487   6.690
 3854SOL    HW111948   3.474   1.462   6.663
 3854SOL    HW211949   3.593   1.437   6.772
 3855SOL     OW11950   2.179   0.547   6.866
 3855SOL    HW111951   2.217   0.488   6.938
 3855SOL    HW211952   2.219   0.521   6.778
 3856SOL     OW11953   2.674   1.586   6.273
 3856SOL    HW111954   2.706   1.596   6.179
 3856SOL    HW211955   2.595   1.524   6.275
 3857SOL     OW11956   3.286   0.214   6.698
 3857SOL    HW111957   3.338   0.149   6.753
 3857SOL    HW211958   3.237   0.277   6.759
 3858SOL     OW11959   2.863   0.034   6.740
 3858SOL    HW111960   2.800  -0.038   6.709
 3858SOL    HW211961   2.956  -0.002   6.740
 3859SOL     OW11962   2.632   1.330   5.887
 3859SOL    HW111963   2.586   1.243   5.904
 3859SOL    HW211964   2.723   1.327   5.928
 3860SOL     OW11965   2.480   1.567   6.870
 3860SOL    HW111966   2.475   1.649   6.927
 3860SOL    HW211967   2.569   1.564   6.825
 3861SOL     OW11968   3.214   0.052   5.754
 3861SOL    HW111969   3.249   0.011   5.670
 3861SOL    HW211970   3.124   0.014   5.774
 3862SOL     OW11971   3.162   0.453   6.277
 3862SOL    HW111972   3.103   0.533   6.281
 3862SOL    HW211973   3.177   0.418   6.370
 3863SOL     OW11974   3.455   0.221   6.468
 3863SOL    HW111975   3.371   0.220   6.522
 3863SOL    HW211976   3.457   0.304   6.412
 3864SOL     OW11977   1.901   1.077   5.886
 3864SOL    HW111978   2.000   1.066   5.877
 3864SOL    HW211979   1.861   0.991   5.918
 3865SOL     OW11980   2.092   0.628   7.561
 3865SOL    HW111981   1.999   0.626   7.598
 3865SOL    HW211982   2.093   0.589   7.469
 3866SOL     OW11983   2.087   0.275   8.444
 3866SOL    HW111984   2.122   0.258   8.536
 3866SOL    HW211985   1.999   0.230   8.432
 3867SOL     OW11986   1.881   0.368   8.095
 3867SOL    HW111987   1.799   0.411   8.134
 3867SOL    HW211988   1.853   0.295   8.032
 3868SOL     OW11989   2.431   1.275   8.613
 3868SOL    HW111990   2.338   1.268   8.576
 3868SOL    HW211991   2.442   1.364   8.657
 3869SOL     OW11992   3.417   1.511   8.151
 3869SOL    HW111993   3.360   1.495   8.232
 3869SOL    HW211994   3.358   1.521   8.071
 3870SOL     OW11995   2.997   0.703   8.165
 3870SOL    HW111996   3.054   0.781   8.140
 3870SOL    HW211997   2.937   0.729   8.241
 3871SOL     OW11998   3.617   0.607   7.679
 3871SOL    HW111999   3.605   0.594   7.580
 3871SOL    HW212000   3.587   0.526   7.728
 3872SOL     OW12001   2.630   1.144   8.471
 3872SOL    HW112002   2.552   1.161   8.531
 3872SOL    HW212003   2.664   1.231   8.435
 3873SOL     OW12004   2.712   0.798   9.271
 3873SOL    HW112005   2.708   0.874   9.336
 3873SOL    HW212006   2.734   0.834   9.180
 3874SOL     OW12007   2.547   1.012   8.113
 3874SOL    HW112008   2.616   0.996   8.183
 3874SOL    HW212009   2.474   1.069   8.151
 3875SOL     OW12010   2.548   1.161   9.251
 3875SOL    HW112011   2.608   1.240   9.265
 3875SOL    HW212012   2.462   1.192   9.210
 3876SOL     OW12013   2.197   1.435   8.509
 3876SOL    HW112014   2.119   1.404   8.456
 3876SOL    HW212015   2.255   1.493   8.452
 3877SOL     OW12016   3.322   1.505   8.787
 3877SOL    HW112017   3.346   1.599   8.813
 3877SOL    HW212018   3.306   1.451   8.869
 3878SOL     OW12019   2.300   0.392   8.947
 3878SOL    HW112020   2.382   0.336   8.956
 3878SOL    HW212021   2.219   0.334   8.951
 3879SOL     OW12022   3.465   0.447   8.185
 3879SOL    HW112023   3.391   0.493   8.135
 3879SOL    HW212024   3.516   0.515   8.238
 3880SOL     OW12025   2.093   1.713   7.931
 3880SOL    HW112026   2.127   1.790   7.985
 3880SOL    HW212027   2.137   1.713   7.841
 3881SOL     OW12028   2.989   1.341   9.138
 3881SOL    HW112029   3.036   1.341   9.226
 3881SOL    HW212030   2.941   1.254   9.127
 3882SOL     OW12031   2.092   1.434   7.986
 3882SOL    HW112032   2.066   1.530   7.986
 3882SOL    HW212033   2.021   1.380   8.031
 3883SOL     OW12034   2.102   1.091   8.334
 3883SOL    HW112035   2.116   1.007   8.386
 3883SOL    HW212036   2.047   1.155   8.389
 3884SOL     OW12037   2.482   1.786   8.887
 3884SOL    HW112038   2.390   1.769   8.922
 3884SOL    HW212039   2.510   1.878   8.913
 3885SOL     OW12040   2.468   0.964   7.571
 3885SOL    HW112041   2.475   1.048   7.517
 3885SOL    HW212042   2.514   0.977   7.659
 3886SOL     OW12043   3.456   0.114   8.928
 3886SOL    HW112044   3.438   0.181   8.856
 3886SOL    HW212045   3.453   0.160   9.017
 3887SOL     OW12046   1.984   0.643   8.011
 3887SOL    HW112047   1.939   0.555   8.028
 3887SOL    HW212048   1.983   0.697   8.095
 3888SOL     OW12049   3.704   1.767   7.807
 3888SOL    HW112050   3.758   1.738   7.887
 3888SOL    HW212051   3.734   1.857   7.778
 3889SOL     OW12052   1.889   1.596   7.565
 3889SOL    HW112053   1.870   1.500   7.586
 3889SOL    HW212054   1.856   1.654   7.640
 3890SOL     OW12055   3.551   0.922   8.060
 3890SOL    HW112056   3.646   0.893   8.068
 3890SOL    HW212057   3.543   0.987   7.985
 3891SOL     OW12058   3.503   1.108   7.880
 3891SOL    HW112059   3.589   1.110   7.828
 3891SOL    HW212060   3.517   1.155   7.968
 3892SOL     OW12061   1.975   0.737   9.045
 3892SOL    HW112062   2.063   0.724   9.090
 3892SOL    HW212063   1.962   0.834   9.023
 3893SOL     OW12064   2.475   1.365   8.174
 3893SOL    HW112065   2.426   1.278   8.183
 3893SOL    HW212066   2.452   1.408   8.087
 3894SOL     OW12067   3.155   1.228   8.871
 3894SOL    HW112068   3.192   1.155   8.813
 3894SOL    HW212069   3.207   1.233   8.956
 3895SOL     OW12070   2.671   0.004   7.950
 3895SOL    HW112071   2.711   0.095   7.941
 3895SOL    HW212072   2.571   0.012   7.956
 3896SOL     OW12073   2.059   0.976   8.712
 3896SOL    HW112074   2.148   0.931   8.698
 3896SOL    HW212075   1.986   0.911   8.693
 3897SOL     OW12076   3.387   0.999   7.638
 3897SOL    HW112077   3.324   0.923   7.651
 3897SOL    HW212078   3.435   1.017   7.724
 3898SOL     OW12079   3.049   1.792   9.064
 3898SOL    HW112080   3.073   1.852   8.988
 3898SOL    HW212081   3.056   1.697   9.034
 3899SOL     OW12082   2.179   0.251   9.249
 3899SOL    HW112083   2.250   0.322   9.255
 3899SOL    HW212084   2.091   0.290   9.277
 3900SOL     OW12085   3.328   1.417   8.401
 3900SOL    HW112086   3.269   1.423   8.481
 3900SOL    HW212087   3.313   1.329   8.355
 3901SOL     OW12088   3.529   1.714   8.020
 3901SOL    HW112089   3.488   1.691   7.932
 3901SOL    HW212090   3.511   1.640   8.085
 3902SOL     OW12091   2.460   0.729   7.718
 3902SOL    HW112092   2.484   0.798   7.650
 3902SOL    HW212093   2.382   0.762   7.772
 3903SOL     OW12094   3.143   0.345   8.392
 3903SOL    HW112095   3.057   0.295   8.379
 3903SOL    HW212096   3.205   0.291   8.448
 3904SOL     OW12097   3.438   1.662   7.755
 3904SOL    HW112098   3.527   1.708   7.758
 3904SOL    HW212099   3.417   1.638   7.660
 3905SOL     OW12100   2.669   0.605   8.913
 3905SOL    HW112101   2.622   0.602   9.002
 3905SOL    HW212102   2.618   0.550   8.847
 3906SOL     OW12103   3.256   0.469   9.122
 3906SOL    HW112104   3.236   0.512   9.210
 3906SOL    HW212105   3.334   0.407   9.131
 3907SOL     OW12106   2.835   0.890   9.020
 3907SOL    HW112107   2.881   0.806   8.991
 3907SOL    HW212108   2.779   0.924   8.945
 3908SOL     OW12109   2.853   0.410   8.690
 3908SOL    HW112110   2.776   0.444   8.744
 3908SOL    HW212111   2.819   0.359   8.611
 3909SOL     OW12112   2.903   0.701   7.877
 3909SOL    HW112113   2.929   0.697   7.973
 3909SOL    HW212114   2.818   0.650   7.863
 3910SOL     OW12115   1.938   0.811   8.237
 3910SOL    HW112116   2.037   0.799   8.246
 3910SOL    HW212117   1.914   0.906   8.258
 3911SOL     OW12118   1.992   1.821   9.019
 3911SOL    HW112119   1.982   1.806   9.118
 3911SOL    HW212120   1.906   1.857   8.983
 3912SOL     OW12121   2.727   0.348   7.643
 3912SOL    HW112122   2.786   0.411   7.594
 3912SOL    HW212123   2.746   0.254   7.614
 3913SOL     OW12124   3.581   0.585   9.279
 3913SOL    HW112125   3.555   0.674   9.243
 3913SOL    HW212126   3.579   0.517   9.206
 3914SOL     OW12127   3.224   1.144   7.993
 3914SOL    HW112128   3.307   1.115   7.945
 3914SOL    HW212129   3.175   1.211   7.937
 3915SOL     OW12130   2.412   0.196   8.333
 3915SOL    HW112131   2.407   0.191   8.433
 3915SOL    HW212132   2.414   0.292   8.304
 3916SOL     OW12133   2.870   1.456   7.925
 3916SOL    HW112134   2.824   1.528   7.873
 3916SOL    HW212135   2.866   1.476   8.023
 3917SOL     OW12136   2.213   1.801   8.301
 3917SOL    HW112137   2.263   1.715   8.307
 3917SOL    HW212138   2.278   1.878   8.298
 3918SOL     OW12139   3.657   1.066   8.321
 3918SOL    HW112140   3.595   1.051   8.245
 3918SOL    HW212141   3.605   1.077   8.406
 3919SOL     OW12142   3.089   1.550   8.954
 3919SOL    HW112143   3.095   1.473   9.018
 3919SOL    HW212144   3.037   1.524   8.874
 3920SOL     OW12145   2.183   0.943   7.690
 3920SOL    HW112146   2.265   0.982   7.648
 3920SOL    HW212147   2.156   0.861   7.641
 3921SOL     OW12148   3.320   0.735   8.176
 3921SOL    HW112149   3.315   0.670   8.251
 3921SOL    HW212150   3.400   0.794   8.189
 3922SOL     OW12151   2.323   1.266   9.175
 3922SOL    HW112152   2.273   1.267   9.089
 3922SOL    HW212153   2.260   1.248   9.251
 3923SOL     OW12154   2.973   1.776   7.685
 3923SOL    HW112155   2.913   1.714   7.735
 3923SOL    HW212156   3.004   1.732   7.600
 3924SOL     OW12157   2.064   0.285   8.946
 3924SOL    HW112158   1.984   0.345   8.933
 3924SOL    HW212159   2.054   0.236   9.032
 3925SOL     OW12160   3.494   1.377   7.529
 3925SOL    HW112161   3.462   1.471   7.519
 3925SOL    HW212162   3.418   1.314   7.517
 3926SOL     OW12163   2.326   1.743   7.771
 3926SOL    HW112164   2.359   1.782   7.857
 3926SOL    HW212165   2.402   1.736   7.706
 3927SOL     OW12166   3.262   0.107   7.874
 3927SOL    HW112167   3.238   0.070   7.784
 3927SOL    HW212168   3.361   0.123   7.878
 3928SOL     OW12169   2.111   1.785   8.689
 3928SOL    HW112170   2.168   1.720   8.739
 3928SOL    HW212171   2.095   1.752   8.596
 3929SOL     OW12172   2.802   1.698   8.352
 3929SOL    HW112173   2.882   1.641   8.373
 3929SOL    HW212174   2.753   1.658   8.275
 3930SOL     OW12175   2.244   0.700   7.928
 3930SOL    HW112176   2.289   0.610   7.925
 3930SOL    HW212177   2.150   0.689   7.961
 3931SOL     OW12178   3.409   0.222   9.177
 3931SOL    HW112179   3.404   0.259   9.269
 3931SOL    HW212180   3.337   0.153   9.165
 3932SOL     OW12181   2.476   0.122   7.565
 3932SOL    HW112182   2.574   0.100   7.572
 3932SOL    HW212183   2.445   0.105   7.472
 3933SOL     OW12184   2.643   0.264   9.197
 3933SOL    HW112185   2.710   0.203   9.240
 3933SOL    HW212186   2.570   0.283   9.262
 3934SOL     OW12187   2.750   1.514   8.643
 3934SOL    HW112188   2.727   1.489   8.549
 3934SOL    HW212189   2.811   1.445   8.682
 3935SOL     OW12190   3.213   0.590   8.881
 3935SOL    HW112191   3.241   0.547   8.966
 3935SOL    HW212192   3.238   0.686   8.882
 3936SOL     OW12193   2.665   1.402   8.372
 3936SOL    HW112194   2.755   1.416   8.330
 3936SOL    HW212195   2.594   1.404   8.301
 3937SOL     OW12196   2.784   0.503   8.347
 3937SOL    HW112197   2.759   0.494   8.251
 3937SOL    HW212198   2.832   0.421   8.378
 3938SOL     OW12199   2.401   0.064   7.960
 3938SOL    HW112200   2.320   0.065   8.018
 3938SOL    HW212201   2.404   0.147   7.905
 3939SOL     OW12202   3.296   1.188   7.489
 3939SOL    HW112203   3.328   1.112   7.546
 3939SOL    HW212204   3.204   1.215   7.519
 3940SOL     OW12205   2.159   0.035   7.619
 3940SOL    HW112206   2.208   0.119   7.598
 3940SOL    HW212207   2.221  -0.030   7.664
 3941SOL     OW12208   2.797   0.236   7.928
 3941SOL    HW112209   2.749   0.277   7.850
 3941SOL    HW212210   2.896   0.234   7.909
 3942SOL     OW12211   2.938   0.683   8.912
 3942SOL    HW112212   2.858   0.622   8.915
 3942SOL    HW212213   3.019   0.630   8.888
 3943SOL     OW12214   3.089   1.570   8.241
 3943SOL    HW112215   3.110   1.644   8.176
 3943SOL    HW212216   3.157   1.570   8.314
 3944SOL     OW12217   2.321   1.152   8.189
 3944SOL    HW112218   2.250   1.125   8.254
 3944SOL    HW212219   2.295   1.124   8.096
 3945SOL     OW12220   3.133   1.797   8.039
 3945SOL    HW112221   3.177   1.861   7.975
 3945SOL    HW212222   3.083   1.849   8.109
 3946SOL     OW12223   2.894   0.549   7.464
 3946SOL    HW112224   2.853   0.631   7.425
 3946SOL    HW212225   2.958   0.575   7.537
 3947SOL     OW12226   1.940   0.556   8.834
 3947SOL    HW112227   2.032   0.555   8.793
 3947SOL    HW212228   1.934   0.630   8.901
 3948SOL     OW12229   2.423   0.222   8.595
 3948SOL    HW112230   2.461   0.138   8.632
 3948SOL    HW212231   2.335   0.241   8.639
 3949SOL     OW12232   2.728   0.454   8.090
 3949SOL    HW112233   2.696   0.526   8.028
 3949SOL    HW212234   2.752   0.373   8.037
 3950SOL     OW12235   2.879   0.039   8.201
 3950SOL    HW112236   2.807   0.044   8.132
 3950SOL    HW212237   2.855  -0.030   8.270
 3951SOL     OW12238   3.291   1.173   8.315
 3951SOL    HW112239   3.236   1.089   8.308
 3951SOL    HW212240   3.317   1.202   8.223
 3952SOL     OW12241   3.328   0.590   8.440
 3952SOL    HW112242   3.298   0.495   8.447
 3952SOL    HW212243   3.401   0.606   8.506
 3953SOL     OW12244   3.719   0.833   7.825
 3953SOL    HW112245   3.761   0.769   7.889
 3953SOL    HW212246   3.681   0.782   7.747
 3954SOL     OW12247   2.350   1.385   7.622
 3954SOL    HW112248   2.263   1.370   7.669
 3954SOL    HW212249   2.333   1.411   7.527
 3955SOL     OW12250   3.526   1.280   8.105
 3955SOL    HW112251   3.625   1.288   8.119
 3955SOL    HW212252   3.481   1.364   8.136
 3956SOL     OW12253   3.252   0.575   7.526
 3956SOL    HW112254   3.198   0.554   7.607
 3956SOL    HW212255   3.343   0.534   7.535
 3957SOL     OW12256   2.389   0.256   7.776
 3957SOL    HW112257   2.416   0.197   7.701
 3957SOL    HW212258   2.389   0.351   7.745
 3958SOL     OW12259   3.616   1.223   9.036
 3958SOL    HW112260   3.707   1.184   9.023
 3958SOL    HW212261   3.624   1.319   9.060
 3959SOL     OW12262   2.926   1.347   8.788
 3959SOL    HW112263   2.846   1.324   8.843
 3959SOL    HW212264   3.009   1.321   8.837
 3960SOL     OW12265   3.454   1.629   9.073
 3960SOL    HW112266   3.481   1.663   8.983
 3960SOL    HW212267   3.533   1.591   9.119
 3961SOL     OW12268   2.973   1.195   8.548
 3961SOL    HW112269   2.933   1.239   8.629
 3961SOL    HW212270   2.932   1.232   8.465
 3962SOL     OW12271   3.500   1.099   8.527
 3962SOL    HW112272   3.505   1.180   8.586
 3962SOL    HW212273   3.414   1.101   8.476
 3963SOL     OW12274   2.777   0.089   8.850
 3963SOL    HW112275   2.802   0.069   8.755
 3963SOL    HW212276   2.849   0.145   8.892
 3964SOL     OW12277   2.842   1.116   9.167
 3964SOL    HW112278   2.743   1.122   9.177
 3964SOL    HW212279   2.865   1.036   9.111
 3965SOL     OW12280   2.567   1.050   7.816
 3965SOL    HW112281   2.553   1.057   7.915
 3965SOL    HW212282   2.651   0.999   7.798
 3966SOL     OW12283   2.272   0.813   8.699
 3966SOL    HW112284   2.358   0.825   8.749
 3966SOL    HW212285   2.230   0.726   8.726
 3967SOL     OW12286   3.136   0.386   8.710
 3967SOL    HW112287   3.157   0.460   8.774
 3967SOL    HW212288   3.047   0.403   8.667
 3968SOL     OW12289   1.926   1.564   8.779
 3968SOL    HW112290   1.880   1.646   8.745
 3968SOL    HW212291   2.024   1.583   8.788
 3969SOL     OW12292   2.229   1.100   7.949
 3969SOL    HW112293   2.222   1.183   7.893
 3969SOL    HW212294   2.233   1.020   7.889
 3970SOL     OW12295   2.428   0.537   8.313
 3970SOL    HW112296   2.440   0.603   8.239
 3970SOL    HW212297   2.474   0.571   8.396
 3971SOL     OW12298   3.114   1.348   7.836
 3971SOL    HW112299   3.164   1.425   7.876
 3971SOL    HW212300   3.019   1.350   7.868
 3972SOL     OW12301   3.134   1.445   8.590
 3972SOL    HW112302   3.181   1.458   8.677
 3972SOL    HW212303   3.068   1.371   8.599
 3973SOL     OW12304   3.444   0.639   7.920
 3973SOL    HW112305   3.413   0.700   7.993
 3973SOL    HW212306   3.494   0.691   7.851
 3974SOL     OW12307   2.216   1.510   8.777
 3974SOL    HW112308   2.195   1.466   8.690
 3974SOL    HW212309   2.313   1.536   8.780
 3975SOL     OW12310   2.264   0.751   9.046
 3975SOL    HW112311   2.332   0.806   8.999
 3975SOL    HW212312   2.304   0.663   9.073
 3976SOL     OW12313   3.449   0.779   9.118
 3976SOL    HW112314   3.357   0.817   9.113
 3976SOL    HW212315   3.509   0.826   9.053
 3977SOL     OW12316   2.875   0.105   9.218
 3977SOL    HW112317   2.881   0.190   9.166
 3977SOL    HW212318   2.907   0.029   9.161
 3978SOL     OW12319   2.366   0.050   9.188
 3978SOL    HW112320   2.324  -0.007   9.118
 3978SOL    HW212321   2.300   0.119   9.220
 3979SOL     OW12322   2.435   0.870   8.477
 3979SOL    HW112323   2.479   0.959   8.468
 3979SOL    HW212324   2.372   0.870   8.554
 3980SOL     OW12325   3.222   0.862   8.493
 3980SOL    HW112326   3.147   0.862   8.427
 3980SOL    HW212327   3.259   0.770   8.502
 3981SOL     OW12328   3.071   0.525   7.723
 3981SOL    HW112329   3.084   0.441   7.777
 3981SOL    HW212330   3.042   0.599   7.783
 3982SOL     OW12331   2.169   0.213   8.679
 3982SOL    HW112332   2.146   0.250   8.769
 3982SOL    HW212333   2.139   0.118   8.673
 3983SOL     OW12334   1.899   1.310   8.730
 3983SOL    HW112335   1.952   1.261   8.798
 3983SOL    HW212336   1.921   1.408   8.735
 3984SOL     OW12337   2.594   0.634   8.512
 3984SOL    HW112338   2.653   0.608   8.436
 3984SOL    HW212339   2.566   0.730   8.501
 3985SOL     OW12340   3.590   0.935   9.302
 3985SOL    HW112341   3.544   0.928   9.213
 3985SOL    HW212342   3.528   0.979   9.368
 3986SOL     OW12343   2.169   0.063   8.066
 3986SOL    HW112344   2.158   0.157   8.099
 3986SOL    HW212345   2.164   0.000   8.143
 3987SOL     OW12346   3.484   0.367   7.822
 3987SOL    HW112347   3.486   0.291   7.886
 3987SOL    HW212348   3.436   0.444   7.862
 3988SOL     OW12349   2.885   0.766   8.414
 3988SOL    HW112350   2.900   0.787   8.510
 3988SOL    HW212351   2.855   0.671   8.405
 3989SOL     OW12352   2.842   1.573   9.148
 3989SOL    HW112353   2.822   1.617   9.060
 3989SOL    HW212354   2.881   1.482   9.132
 3990SOL     OW12355   3.721   1.518   9.053
 3990SOL    HW112356   3.735   1.545   8.958
 3990SOL    HW212357   3.804   1.540   9.106
 3991SOL     OW12358   2.212   0.898   9.252
 3991SOL    HW112359   2.288   0.942   9.300
 3991SOL    HW212360   2.247   0.851   9.170
 3992SOL     OW12361   3.402   0.274   7.573
 3992SOL    HW112362   3.341   0.199   7.596
 3992SOL    HW212363   3.424   0.326   7.656
 3993SOL     OW12364   3.165   0.838   7.490
 3993SOL    HW112365   3.199   0.745   7.505
 3993SOL    HW212366   3.183   0.865   7.395
 3994SOL     OW12367   2.930   1.333   8.297
 3994SOL    HW112368   2.937   1.249   8.242
 3994SOL    HW212369   2.992   1.402   8.261
 3995SOL     OW12370   2.181   0.810   8.397
 3995SOL    HW112371   2.274   0.846   8.402
 3995SOL    HW212372   2.175   0.725   8.449
 3996SOL     OW12373   2.201   0.509   8.454
 3996SOL    HW112374   2.149   0.426   8.437
 3996SOL    HW212375   2.278   0.514   8.390
 3997SOL     OW12376   3.000   0.380   9.126
 3997SOL    HW112377   2.955   0.443   9.190
 3997SOL    HW212378   3.093   0.411   9.109
 3998SOL     OW12379   3.022   0.207   8.925
 3998SOL    HW112380   3.022   0.271   9.002
 3998SOL    HW212381   3.050   0.255   8.842
 3999SOL     OW12382   1.870   1.326   7.648
 3999SOL    HW112383   1.777   1.347   7.617
 3999SOL    HW212384   1.880   1.227   7.661
 4000SOL     OW12385   1.950   1.801   8.375
 4000SOL    HW112386   1.908   1.715   8.348
 4000SOL    HW212387   2.044   1.804   8.341
 4001SOL     OW12388   2.366   1.568   8.358
 4001SOL    HW112389   2.432   1.642   8.367
 4001SOL    HW212390   2.410   1.489   8.316
 4002SOL     OW12391   2.864   0.796   8.686
 4002SOL    HW112392   2.905   0.764   8.772
 4002SOL    HW212393   2.768   0.769   8.683
 4003SOL     OW12394   1.902   0.544   8.562
 4003SOL    HW112395   1.987   0.511   8.521
 4003SOL    HW212396   1.915   0.559   8.660
 4004SOL     OW12397   2.051   0.520   9.170
 4004SOL    HW112398   2.110   0.480   9.100
 4004SOL    HW212399   1.993   0.591   9.129
 4005SOL     OW12400   3.231   0.950   9.108
 4005SOL    HW112401   3.270   1.039   9.128
 4005SOL    HW212402   3.241   0.930   9.011
 4006SOL     OW12403   2.677   0.572   7.773
 4006SOL    HW112404   2.684   0.483   7.727
 4006SOL    HW212405   2.583   0.606   7.765
 4007SOL     OW12406   3.519   0.604   8.654
 4007SOL    HW112407   3.481   0.535   8.716
 4007SOL    HW212408   3.601   0.568   8.610
 4008SOL     OW12409   2.114   1.564   9.192
 4008SOL    HW112410   2.084   1.621   9.268
 4008SOL    HW212411   2.107   1.467   9.218
 4009SOL     OW12412   2.533   0.464   8.717
 4009SOL    HW112413   2.499   0.375   8.687
 4009SOL    HW212414   2.559   0.518   8.637
 4010SOL     OW12415   2.792   1.678   8.913
 4010SOL    HW112416   2.768   1.660   8.818
 4010SOL    HW212417   2.822   1.772   8.923
 4011SOL     OW12418   2.335   0.500   7.639
 4011SOL    HW112419   2.396   0.580   7.643
 4011SOL    HW212420   2.240   0.531   7.646
 4012SOL     OW12421   2.021   1.137   8.914
 4012SOL    HW112422   2.043   1.076   8.990
 4012SOL    HW212423   2.031   1.088   8.828
 4013SOL     OW12424   3.209   1.059   8.682
 4013SOL    HW112425   3.233   0.996   8.608
 4013SOL    HW212426   3.119   1.099   8.664
 4014SOL     OW12427   3.164   0.855   7.757
 4014SOL    HW112428   3.078   0.824   7.799
 4014SOL    HW212429   3.160   0.841   7.658
 4015SOL     OW12430   3.621   1.747   8.602
 4015SOL    HW112431   3.682   1.777   8.529
 4015SOL    HW212432   3.583   1.658   8.580
 4016SOL     OW12433   3.114   1.731   8.576
 4016SOL    HW112434   3.198   1.736   8.522
 4016SOL    HW212435   3.091   1.635   8.594
 4017SOL     OW12436   1.945   1.258   8.470
 4017SOL    HW112437   1.940   1.257   8.570
 4017SOL    HW212438   1.862   1.217   8.432
 4018SOL     OW12439   2.550   1.662   9.164
 4018SOL    HW112440   2.494   1.743   9.173
 4018SOL    HW212441   2.602   1.666   9.078
 4019SOL     OW12442   3.588   0.135   7.971
 4019SOL    HW112443   3.661   0.118   7.904
 4019SOL    HW212444   3.557   0.048   8.009
 4020SOL     OW12445   3.250   1.573   7.925
 4020SOL    HW112446   3.317   1.585   7.851
 4020SOL    HW212447   3.210   1.662   7.948
 4021SOL     OW12448   1.992   1.794   9.299
 4021SOL    HW112449   1.951   1.720   9.352
 4021SOL    HW212450   2.056   1.845   9.357
 4022SOL     OW12451   3.142   0.927   8.120
 4022SOL    HW112452   3.202   0.846   8.122
 4022SOL    HW212453   3.182   0.996   8.060
 4023SOL     OW12454   2.692   1.273   8.870
 4023SOL    HW112455   2.687   1.306   8.965
 4023SOL    HW212456   2.606   1.292   8.824
 4024SOL     OW12457   2.534   1.616   7.602
 4024SOL    HW112458   2.543   1.626   7.503
 4024SOL    HW212459   2.494   1.527   7.623
 4025SOL     OW12460   3.512   1.720   8.842
 4025SOL    HW112461   3.565   1.730   8.758
 4025SOL    HW212462   3.485   1.810   8.876
 4026SOL     OW12463   3.703   0.175   8.411
 4026SOL    HW112464   3.742   0.090   8.375
 4026SOL    HW212465   3.605   0.177   8.392
 4027SOL     OW12466   2.125   0.326   8.168
 4027SOL    HW112467   2.046   0.377   8.134
 4027SOL    HW212468   2.116   0.311   8.266
 4028SOL     OW12469   3.056   1.612   7.479
 4028SOL    HW112470   3.062   1.519   7.516
 4028SOL    HW212471   2.997   1.612   7.399
 4029SOL     OW12472   2.684   1.002   8.820
 4029SOL    HW112473   2.724   1.001   8.728
 4029SOL    HW212474   2.694   1.094   8.860
 4030SOL     OW12475   2.778   0.910   7.739
 4030SOL    HW112476   2.841   0.948   7.671
 4030SOL    HW212477   2.818   0.827   7.778
 4031SOL     OW12478   3.366   1.607   7.492
 4031SOL    HW112479   3.274   1.644   7.499
 4031SOL    HW212480   3.404   1.627   7.402
 4032SOL     OW12481   2.234   1.288   8.938
 4032SOL    HW112482   2.221   1.381   8.904
 4032SOL    HW212483   2.150   1.236   8.925
 4033SOL     OW12484   3.476   1.292   8.737
 4033SOL    HW112485   3.536   1.295   8.817
 4033SOL    HW212486   3.401   1.356   8.750
 4034SOL     OW12487   2.901   1.098   8.144
 4034SOL    HW112488   2.831   1.051   8.198
 4034SOL    HW212489   2.960   1.030   8.101
 4035SOL     OW12490   2.876   0.236   8.419
 4035SOL    HW112491   2.868   0.200   8.326
 4035SOL    HW212492   2.874   0.160   8.484
 4036SOL     OW12493   2.452   1.487   7.939
 4036SOL    HW112494   2.494   1.429   7.869
 4036SOL    HW212495   2.408   1.566   7.895
 4037SOL     OW12496   3.571   0.385   8.829
 4037SOL    HW112497   3.644   0.454   8.833
 4037SOL    HW212498   3.599   0.310   8.770
 4038SOL     OW12499   2.117   1.348   7.738
 4038SOL    HW112500   2.021   1.349   7.711
 4038SOL    HW212501   2.129   1.401   7.822
 4039SOL     OW12502   1.967   1.013   9.174
 4039SOL    HW112503   1.890   0.980   9.228
 4039SOL    HW212504   2.052   0.983   9.216
 4040SOL     OW12505   2.534   0.203   8.937
 4040SOL    HW112506   2.624   0.187   8.897
 4040SOL    HW212507   2.542   0.208   9.036
 4041SOL     OW12508   1.937   0.345   7.481
 4041SOL    HW112509   1.845   0.317   7.452
 4041SOL    HW212510   1.968   0.422   7.425
 4042SOL     OW12511   3.302   0.856   8.846
 4042SOL    HW112512   3.245   0.908   8.783
 4042SOL    HW212513   3.398   0.868   8.822
 4043SOL     OW12514   1.934   0.166   7.766
 4043SOL    HW112515   1.917   0.249   7.712
 4043SOL    HW212516   2.024   0.129   7.744
 4044SOL     OW12517   3.045   1.335   7.567
 4044SOL    HW112518   2.946   1.324   7.569
 4044SOL    HW212519   3.079   1.350   7.660
 4045SOL     OW12520   2.475   0.842   8.879
 4045SOL    HW112521   2.531   0.923   8.862
 4045SOL    HW212522   2.534   0.762   8.882
 4046SOL     OW12523   3.355   1.767   8.407
 4046SOL    HW112524   3.388   1.831   8.338
 4046SOL    HW212525   3.421   1.761   8.482
 4047SOL     OW12526   2.578   0.565   9.156
 4047SOL    HW112527   2.597   0.630   9.230
 4047SOL    HW212528   2.638   0.485   9.165
 4048SOL     OW12529   3.312   1.220   9.081
 4048SOL    HW112530   3.303   1.210   9.180
 4048SOL    HW212531   3.408   1.213   9.055
 4049SOL     OW12532   2.252   1.741   9.008
 4049SOL    HW112533   2.161   1.782   9.006
 4049SOL    HW212534   2.245   1.647   9.040
 4050SOL     OW12535   3.536   0.883   8.702
 4050SOL    HW112536   3.509   0.794   8.665
 4050SOL    HW212537   3.537   0.951   8.629
 4051SOL     OW12538   3.087   0.325   7.897
 4051SOL    HW112539   3.152   0.251   7.886
 4051SOL    HW212540   3.107   0.375   7.981
 4052SOL     OW12541   2.456   0.745   8.100
 4052SOL    HW112542   2.506   0.830   8.081
 4052SOL    HW212543   2.368   0.747   8.052
 4053SOL     OW12544   3.639   0.342   9.090
 4053SOL    HW112545   3.622   0.373   8.996
 4053SOL    HW212546   3.555   0.305   9.128
 4054SOL     OW12547   3.592   0.934   8.965
 4054SOL    HW112548   3.630   1.025   8.980
 4054SOL    HW212549   3.584   0.917   8.866
 4055SOL     OW12550   2.721   1.374   7.464
 4055SOL    HW112551   2.675   1.389   7.552
 4055SOL    HW212552   2.765   1.459   7.434
 4056SOL     OW12553   2.523   1.790   8.401
 4056SOL    HW112554   2.477   1.878   8.388
 4056SOL    HW212555   2.622   1.802   8.394
 4057SOL     OW12556   2.721   0.956   8.309
 4057SOL    HW112557   2.775   0.887   8.357
 4057SOL    HW212558   2.689   1.025   8.375
 4058SOL     OW12559   2.945   0.984   7.535
 4058SOL    HW112560   2.922   1.037   7.453
 4058SOL    HW212561   3.026   0.928   7.516
 4059SOL     OW12562   3.723   1.569   8.299
 4059SOL    HW112563   3.652   1.557   8.229
 4059SOL    HW212564   3.724   1.490   8.359
 4060SOL     OW12565   2.083   1.314   9.292
 4060SOL    HW112566   2.018   1.241   9.271
 4060SOL    HW212567   2.087   1.328   9.390
 4061SOL     OW12568   1.941   1.240   8.101
 4061SOL    HW112569   1.940   1.193   8.189
 4061SOL    HW212570   2.023   1.212   8.050
 4062SOL     OW12571   2.534   1.391   9.072
 4062SOL    HW112572   2.456   1.341   9.110
 4062SOL    HW212573   2.531   1.486   9.103
 4063SOL     OW12574   3.686   0.192   8.675
 4063SOL    HW112575   3.682   0.102   8.719
 4063SOL    HW212576   3.689   0.181   8.576
 4064SOL     OW12577   2.290   0.424   7.968
 4064SOL    HW112578   2.320   0.352   7.906
 4064SOL    HW212579   2.251   0.384   8.051
 4065SOL     OW12580   3.567   1.487   8.552
 4065SOL    HW112581   3.474   1.462   8.525
 4065SOL    HW212582   3.593   1.437   8.634
 4066SOL     OW12583   2.179   0.547   8.728
 4066SOL    HW112584   2.217   0.488   8.800
 4066SOL    HW212585   2.219   0.521   8.640
 4067SOL     OW12586   2.674   1.586   8.135
 4067SOL    HW112587   2.706   1.596   8.041
 4067SOL    HW212588   2.595   1.524   8.137
 4068SOL     OW12589   3.286   0.214   8.560
 4068SOL    HW112590   3.338   0.149   8.615
 4068SOL    HW212591   3.237   0.277   8.621
 4069SOL     OW12592   2.863   0.034   8.602
 4069SOL    HW112593   2.800  -0.038   8.571
 4069SOL    HW212594   2.956  -0.002   8.602
 4070SOL     OW12595   2.632   1.330   7.749
 4070SOL    HW112596   2.586   1.243   7.766
 4070SOL    HW212597   2.723   1.327   7.790
 4071SOL     OW12598   2.480   1.567   8.732
 4071SOL    HW112599   2.475   1.649   8.789
 4071SOL    HW212600   2.569   1.564   8.687
 4072SOL     OW12601   3.214   0.052   7.616
 4072SOL    HW112602   3.249   0.011   7.532
 4072SOL    HW212603   3.124   0.014   7.636
 4073SOL     OW12604   3.162   0.453   8.139
 4073SOL    HW112605   3.103   0.533   8.143
 4073SOL    HW212606   3.177   0.418   8.232
 4074SOL     OW12607   3.455   0.221   8.330
 4074SOL    HW112608   3.371   0.220   8.384
 4074SOL    HW212609   3.457   0.304   8.274
 4075SOL     OW12610   1.901   1.077   7.748
 4075SOL    HW112611   2.000   1.066   7.739
 4075SOL    HW212612   1.861   0.991   7.780
 4076SOL     OW12613   2.737   1.646   7.785
 4076SOL    HW112614   2.660   1.611   7.731
 4076SOL    HW212615   2.705   1.717   7.847
 4077SOL     OW12616   2.092   0.628   9.423
 4077SOL    HW112617   1.999   0.626   9.460
 4077SOL    HW212618   2.093   0.589   9.331
 4078SOL     OW12619   2.087   0.275  10.306
 4078SOL    HW112620   2.122   0.258  10.398
 4078SOL    HW212621   1.999   0.230  10.294
 4079SOL     OW12622   1.881   0.368   9.957
 4079SOL    HW112623   1.799   0.411   9.996
 4079SOL    HW212624   1.853   0.295   9.894
 4080SOL     OW12625   2.431   1.275  10.475
 4080SOL    HW112626   2.338   1.268  10.438
 4080SOL    HW212627   2.442   1.364  10.519
 4081SOL     OW12628   3.417   1.511  10.013
 4081SOL    HW112629   3.360   1.495  10.094
 4081SOL    HW212630   3.358   1.521   9.933
 4082SOL     OW12631   2.997   0.703  10.027
 4082SOL    HW112632   3.054   0.781  10.002
 4082SOL    HW212633   2.937   0.729  10.103
 4083SOL     OW12634   3.617   0.607   9.541
 4083SOL    HW112635   3.605   0.594   9.442
 4083SOL    HW212636   3.587   0.526   9.590
 4084SOL     OW12637   2.630   1.144  10.333
 4084SOL    HW112638   2.552   1.161  10.393
 4084SOL    HW212639   2.664   1.231  10.297
 4085SOL     OW12640   2.712   0.798  11.133
 4085SOL    HW112641   2.708   0.874  11.198
 4085SOL    HW212642   2.734   0.834  11.042
 4086SOL     OW12643   2.547   1.012   9.975
 4086SOL    HW112644   2.616   0.996  10.045
 4086SOL    HW212645   2.474   1.069  10.013
 4087SOL     OW12646   2.197   1.435  10.371
 4087SOL    HW112647   2.119   1.404  10.318
 4087SOL    HW212648   2.255   1.493  10.314
 4088SOL     OW12649   3.322   1.505  10.649
 4088SOL    HW112650   3.346   1.599  10.675
 4088SOL    HW212651   3.306   1.451  10.731
 4089SOL     OW12652   2.300   0.392  10.809
 4089SOL    HW112653   2.382   0.336  10.818
 4089SOL    HW212654   2.219   0.334  10.813
 4090SOL     OW12655   3.465   0.447  10.047
 4090SOL    HW112656   3.391   0.493   9.997
 4090SOL    HW212657   3.516   0.515  10.100
 4091SOL     OW12658   2.093   1.713   9.793
 4091SOL    HW112659   2.127   1.790   9.847
 4091SOL    HW212660   2.137   1.713   9.703
 4092SOL     OW12661   2.092   1.434   9.848
 4092SOL    HW112662   2.066   1.530   9.848
 4092SOL    HW212663   2.021   1.380   9.893
 4093SOL     OW12664   2.102   1.091  10.196
 4093SOL    HW112665   2.116   1.007  10.248
 4093SOL    HW212666   2.047   1.155  10.251
 4094SOL     OW12667   2.482   1.786  10.749
 4094SOL    HW112668   2.390   1.769  10.784
 4094SOL    HW212669   2.510   1.878  10.775
 4095SOL     OW12670   2.468   0.964   9.433
 4095SOL    HW112671   2.475   1.048   9.379
 4095SOL    HW212672   2.514   0.977   9.521
 4096SOL     OW12673   3.456   0.114  10.790
 4096SOL    HW112674   3.438   0.181  10.718
 4096SOL    HW212675   3.453   0.160  10.879
 4097SOL     OW12676   1.984   0.643   9.873
 4097SOL    HW112677   1.939   0.555   9.890
 4097SOL    HW212678   1.983   0.697   9.957
 4098SOL     OW12679   3.704   1.767   9.669
 4098SOL    HW112680   3.758   1.738   9.749
 4098SOL    HW212681   3.734   1.857   9.640
 4099SOL     OW12682   1.889   1.596   9.427
 4099SOL    HW112683   1.870   1.500   9.448
 4099SOL    HW212684   1.856   1.654   9.502
 4100SOL     OW12685   3.551   0.922   9.922
 4100SOL    HW112686   3.646   0.893   9.930
 4100SOL    HW212687   3.543   0.987   9.847
 4101SOL     OW12688   3.503   1.108   9.742
 4101SOL    HW112689   3.589   1.110   9.690
 4101SOL    HW212690   3.517   1.155   9.830
 4102SOL     OW12691   1.975   0.737  10.907
 4102SOL    HW112692   2.063   0.724  10.952
 4102SOL    HW212693   1.962   0.834  10.885
 4103SOL     OW12694   2.475   1.365  10.036
 4103SOL    HW112695   2.426   1.278  10.045
 4103SOL    HW212696   2.452   1.408   9.949
 4104SOL     OW12697   3.155   1.228  10.733
 4104SOL    HW112698   3.192   1.155  10.675
 4104SOL    HW212699   3.207   1.233  10.818
 4105SOL     OW12700   2.671   0.004   9.812
 4105SOL    HW112701   2.711   0.095   9.803
 4105SOL    HW212702   2.571   0.012   9.818
 4106SOL     OW12703   2.059   0.976  10.574
 4106SOL    HW112704   2.148   0.931  10.560
 4106SOL    HW212705   1.986   0.911  10.555
 4107SOL     OW12706   3.387   0.999   9.500
 4107SOL    HW112707   3.324   0.923   9.513
 4107SOL    HW212708   3.435   1.017   9.586
 4108SOL     OW12709   3.049   1.792  10.926
 4108SOL    HW112710   3.073   1.852  10.850
 4108SOL    HW212711   3.056   1.697  10.896
 4109SOL     OW12712   2.179   0.251  11.111
 4109SOL    HW112713   2.250   0.322  11.117
 4109SOL    HW212714   2.091   0.290  11.139
 4110SOL     OW12715   3.328   1.417  10.263
 4110SOL    HW112716   3.269   1.423  10.343
 4110SOL    HW212717   3.313   1.329  10.217
 4111SOL     OW12718   3.529   1.714   9.882
 4111SOL    HW112719   3.488   1.691   9.794
 4111SOL    HW212720   3.511   1.640   9.947
 4112SOL     OW12721   2.460   0.729   9.580
 4112SOL    HW112722   2.484   0.798   9.512
 4112SOL    HW212723   2.382   0.762   9.634
 4113SOL     OW12724   3.143   0.345  10.254
 4113SOL    HW112725   3.057   0.295  10.241
 4113SOL    HW212726   3.205   0.291  10.310
 4114SOL     OW12727   3.438   1.662   9.617
 4114SOL    HW112728   3.527   1.708   9.620
 4114SOL    HW212729   3.417   1.638   9.522
 4115SOL     OW12730   2.669   0.605  10.775
 4115SOL    HW112731   2.622   0.602  10.864
 4115SOL    HW212732   2.618   0.550  10.709
 4116SOL     OW12733   2.835   0.890  10.882
 4116SOL    HW112734   2.881   0.806  10.853
 4116SOL    HW212735   2.779   0.924  10.807
 4117SOL     OW12736   2.853   0.410  10.552
 4117SOL    HW112737   2.776   0.444  10.606
 4117SOL    HW212738   2.819   0.359  10.473
 4118SOL     OW12739   2.903   0.701   9.739
 4118SOL    HW112740   2.929   0.697   9.835
 4118SOL    HW212741   2.818   0.650   9.725
 4119SOL     OW12742   1.938   0.811  10.099
 4119SOL    HW112743   2.037   0.799  10.108
 4119SOL    HW212744   1.914   0.906  10.120
 4120SOL     OW12745   1.992   1.821  10.881
 4120SOL    HW112746   1.982   1.806  10.980
 4120SOL    HW212747   1.906   1.857  10.845
 4121SOL     OW12748   2.727   0.348   9.505
 4121SOL    HW112749   2.786   0.411   9.456
 4121SOL    HW212750   2.746   0.254   9.476
 4122SOL     OW12751   3.224   1.144   9.855
 4122SOL    HW112752   3.307   1.115   9.807
 4122SOL    HW212753   3.175   1.211   9.799
 4123SOL     OW12754   2.412   0.196  10.195
 4123SOL    HW112755   2.407   0.191  10.295
 4123SOL    HW212756   2.414   0.292  10.166
 4124SOL     OW12757   2.870   1.456   9.787
 4124SOL    HW112758   2.824   1.528   9.735
 4124SOL    HW212759   2.866   1.476   9.885
 4125SOL     OW12760   2.213   1.801  10.163
 4125SOL    HW112761   2.263   1.715  10.169
 4125SOL    HW212762   2.278   1.878  10.160
 4126SOL     OW12763   3.657   1.066  10.183
 4126SOL    HW112764   3.595   1.051  10.107
 4126SOL    HW212765   3.605   1.077  10.268
 4127SOL     OW12766   3.089   1.550  10.816
 4127SOL    HW112767   3.095   1.473  10.880
 4127SOL    HW212768   3.037   1.524  10.736
 4128SOL     OW12769   2.183   0.943   9.552
 4128SOL    HW112770   2.265   0.982   9.510
 4128SOL    HW212771   2.156   0.861   9.503
 4129SOL     OW12772   3.320   0.735  10.038
 4129SOL    HW112773   3.315   0.670  10.113
 4129SOL    HW212774   3.400   0.794  10.051
 4130SOL     OW12775   2.323   1.266  11.037
 4130SOL    HW112776   2.273   1.267  10.951
 4130SOL    HW212777   2.260   1.248  11.113
 4131SOL     OW12778   2.973   1.776   9.547
 4131SOL    HW112779   2.913   1.714   9.597
 4131SOL    HW212780   3.004   1.732   9.462
 4132SOL     OW12781   2.064   0.285  10.808
 4132SOL    HW112782   1.984   0.345  10.795
 4132SOL    HW212783   2.054   0.236  10.894
 4133SOL     OW12784   3.494   1.377   9.391
 4133SOL    HW112785   3.462   1.471   9.381
 4133SOL    HW212786   3.418   1.314   9.379
 4134SOL     OW12787   2.326   1.743   9.633
 4134SOL    HW112788   2.359   1.782   9.719
 4134SOL    HW212789   2.402   1.736   9.568
 4135SOL     OW12790   3.262   0.107   9.736
 4135SOL    HW112791   3.238   0.070   9.646
 4135SOL    HW212792   3.361   0.123   9.740
 4136SOL     OW12793   2.111   1.785  10.551
 4136SOL    HW112794   2.168   1.720  10.601
 4136SOL    HW212795   2.095   1.752  10.458
 4137SOL     OW12796   2.802   1.698  10.214
 4137SOL    HW112797   2.882   1.641  10.235
 4137SOL    HW212798   2.753   1.658  10.137
 4138SOL     OW12799   2.244   0.700   9.790
 4138SOL    HW112800   2.289   0.610   9.787
 4138SOL    HW212801   2.150   0.689   9.823
 4139SOL     OW12802   2.476   0.122   9.427
 4139SOL    HW112803   2.574   0.100   9.434
 4139SOL    HW212804   2.445   0.105   9.334
 4140SOL     OW12805   2.643   0.264  11.059
 4140SOL    HW112806   2.710   0.203  11.102
 4140SOL    HW212807   2.570   0.283  11.124
 4141SOL     OW12808   2.750   1.514  10.505
 4141SOL    HW112809   2.727   1.489  10.411
 4141SOL    HW212810   2.811   1.445  10.544
 4142SOL     OW12811   3.213   0.590  10.743
 4142SOL    HW112812   3.241   0.547  10.828
 4142SOL    HW212813   3.238   0.686  10.744
 4143SOL     OW12814   2.665   1.402  10.234
 4143SOL    HW112815   2.755   1.416  10.192
 4143SOL    HW212816   2.594   1.404  10.163
 4144SOL     OW12817   2.784   0.503  10.209
 4144SOL    HW112818   2.759   0.494  10.113
 4144SOL    HW212819   2.832   0.421  10.240
 4145SOL     OW12820   2.401   0.064   9.822
 4145SOL    HW112821   2.320   0.065   9.880
 4145SOL    HW212822   2.404   0.147   9.767
 4146SOL     OW12823   3.296   1.188   9.351
 4146SOL    HW112824   3.328   1.112   9.408
 4146SOL    HW212825   3.204   1.215   9.381
 4147SOL     OW12826   2.159   0.035   9.481
 4147SOL    HW112827   2.208   0.119   9.460
 4147SOL    HW212828   2.221  -0.030   9.526
 4148SOL     OW12829   2.797   0.236   9.790
 4148SOL    HW112830   2.749   0.277   9.712
 4148SOL    HW212831   2.896   0.234   9.771
 4149SOL     OW12832   2.938   0.683  10.774
 4149SOL    HW112833   2.858   0.622  10.777
 4149SOL    HW212834   3.019   0.630  10.750
 4150SOL     OW12835   3.089   1.570  10.103
 4150SOL    HW112836   3.110   1.644  10.038
 4150SOL    HW212837   3.157   1.570  10.176
 4151SOL     OW12838   2.321   1.152  10.051
 4151SOL    HW112839   2.250   1.125  10.116
 4151SOL    HW212840   2.295   1.124   9.958
 4152SOL     OW12841   3.133   1.797   9.901
 4152SOL    HW112842   3.177   1.861   9.837
 4152SOL    HW212843   3.083   1.849   9.971
 4153SOL     OW12844   2.894   0.549   9.326
 4153SOL    HW112845   2.853   0.631   9.287
 4153SOL    HW212846   2.958   0.575   9.399
 4154SOL     OW12847   1.940   0.556  10.696
 4154SOL    HW112848   2.032   0.555  10.655
 4154SOL    HW212849   1.934   0.630  10.763
 4155SOL     OW12850   2.423   0.222  10.457
 4155SOL    HW112851   2.461   0.138  10.494
 4155SOL    HW212852   2.335   0.241  10.501
 4156SOL     OW12853   2.728   0.454   9.952
 4156SOL    HW112854   2.696   0.526   9.890
 4156SOL    HW212855   2.752   0.373   9.899
 4157SOL     OW12856   2.879   0.039  10.063
 4157SOL    HW112857   2.807   0.044   9.994
 4157SOL    HW212858   2.855  -0.030  10.132
 4158SOL     OW12859   3.291   1.173  10.177
 4158SOL    HW112860   3.236   1.089  10.170
 4158SOL    HW212861   3.317   1.202  10.085
 4159SOL     OW12862   3.328   0.590  10.302
 4159SOL    HW112863   3.298   0.495  10.309
 4159SOL    HW212864   3.401   0.606  10.368
 4160SOL     OW12865   3.719   0.833   9.687
 4160SOL    HW112866   3.761   0.769   9.751
 4160SOL    HW212867   3.681   0.782   9.609
 4161SOL     OW12868   2.350   1.385   9.484
 4161SOL    HW112869   2.263   1.370   9.531
 4161SOL    HW212870   2.333   1.411   9.389
 4162SOL     OW12871   3.526   1.280   9.967
 4162SOL    HW112872   3.625   1.288   9.981
 4162SOL    HW212873   3.481   1.364   9.998
 4163SOL     OW12874   3.252   0.575   9.388
 4163SOL    HW112875   3.198   0.554   9.469
 4163SOL    HW212876   3.343   0.534   9.397
 4164SOL     OW12877   2.389   0.256   9.638
 4164SOL    HW112878   2.416   0.197   9.563
 4164SOL    HW212879   2.389   0.351   9.607
 4165SOL     OW12880   3.616   1.223  10.898
 4165SOL    HW112881   3.707   1.184  10.885
 4165SOL    HW212882   3.624   1.319  10.922
 4166SOL     OW12883   2.926   1.347  10.650
 4166SOL    HW112884   2.846   1.324  10.705
 4166SOL    HW212885   3.009   1.321  10.699
 4167SOL     OW12886   2.973   1.195  10.410
 4167SOL    HW112887   2.933   1.239  10.491
 4167SOL    HW212888   2.932   1.232  10.327
 4168SOL     OW12889   3.500   1.099  10.389
 4168SOL    HW112890   3.505   1.180  10.448
 4168SOL    HW212891   3.414   1.101  10.338
 4169SOL     OW12892   2.777   0.089  10.712
 4169SOL    HW112893   2.802   0.069  10.617
 4169SOL    HW212894   2.849   0.145  10.754
 4170SOL     OW12895   2.567   1.050   9.678
 4170SOL    HW112896   2.553   1.057   9.777
 4170SOL    HW212897   2.651   0.999   9.660
 4171SOL     OW12898   2.272   0.813  10.561
 4171SOL    HW112899   2.358   0.825  10.611
 4171SOL    HW212900   2.230   0.726  10.588
 4172SOL     OW12901   3.136   0.386  10.572
 4172SOL    HW112902   3.157   0.460  10.636
 4172SOL    HW212903   3.047   0.403  10.529
 4173SOL     OW12904   1.926   1.564  10.641
 4173SOL    HW112905   1.880   1.646  10.607
 4173SOL    HW212906   2.024   1.583  10.650
 4174SOL     OW12907   2.229   1.100   9.811
 4174SOL    HW112908   2.222   1.183   9.755
 4174SOL    HW212909   2.233   1.020   9.751
 4175SOL     OW12910   2.428   0.537  10.175
 4175SOL    HW112911   2.440   0.603  10.101
 4175SOL    HW212912   2.474   0.571  10.258
 4176SOL     OW12913   3.114   1.348   9.698
 4176SOL    HW112914   3.164   1.425   9.738
 4176SOL    HW212915   3.019   1.350   9.730
 4177SOL     OW12916   3.134   1.445  10.452
 4177SOL    HW112917   3.181   1.458  10.539
 4177SOL    HW212918   3.068   1.371  10.461
 4178SOL     OW12919   3.444   0.639   9.782
 4178SOL    HW112920   3.413   0.700   9.855
 4178SOL    HW212921   3.494   0.691   9.713
 4179SOL     OW12922   2.216   1.510  10.639
 4179SOL    HW112923   2.195   1.466  10.552
 4179SOL    HW212924   2.313   1.536  10.642
 4180SOL     OW12925   2.264   0.751  10.908
 4180SOL    HW112926   2.332   0.806  10.861
 4180SOL    HW212927   2.304   0.663  10.935
 4181SOL     OW12928   3.449   0.779  10.980
 4181SOL    HW112929   3.357   0.817  10.975
 4181SOL    HW212930   3.509   0.826  10.915
 4182SOL     OW12931   2.435   0.870  10.339
 4182SOL    HW112932   2.479   0.959  10.330
 4182SOL    HW212933   2.372   0.870  10.416
 4183SOL     OW12934   3.222   0.862  10.355
 4183SOL    HW112935   3.147   0.862  10.289
 4183SOL    HW212936   3.259   0.770  10.364
 4184SOL     OW12937   3.071   0.525   9.585
 4184SOL    HW112938   3.084   0.441   9.639
 4184SOL    HW212939   3.042   0.599   9.645
 4185SOL     OW12940   2.169   0.213  10.541
 4185SOL    HW112941   2.146   0.250  10.631
 4185SOL    HW212942   2.139   0.118  10.535
 4186SOL     OW12943   1.899   1.310  10.592
 4186SOL    HW112944   1.952   1.261  10.660
 4186SOL    HW212945   1.921   1.408  10.597
 4187SOL     OW12946   2.594   0.634  10.374
 4187SOL    HW112947   2.653   0.608  10.298
 4187SOL    HW212948   2.566   0.730  10.363
 4188SOL     OW12949   2.169   0.063   9.928
 4188SOL    HW112950   2.158   0.157   9.961
 4188SOL    HW212951   2.164   0.000  10.005
 4189SOL     OW12952   3.484   0.367   9.684
 4189SOL    HW112953   3.486   0.291   9.748
 4189SOL    HW212954   3.436   0.444   9.724
 4190SOL     OW12955   2.885   0.766  10.276
 4190SOL    HW112956   2.900   0.787  10.372
 4190SOL    HW212957   2.855   0.671  10.267
 4191SOL     OW12958   2.842   1.573  11.010
 4191SOL    HW112959   2.822   1.617  10.922
 4191SOL    HW212960   2.881   1.482  10.994
 4192SOL     OW12961   3.721   1.518  10.915
 4192SOL    HW112962   3.735   1.545  10.820
 4192SOL    HW212963   3.804   1.540  10.968
 4193SOL     OW12964   2.212   0.898  11.114
 4193SOL    HW112965   2.288   0.942  11.162
 4193SOL    HW212966   2.247   0.851  11.032
 4194SOL     OW12967   3.402   0.274   9.435
 4194SOL    HW112968   3.341   0.199   9.458
 4194SOL    HW212969   3.424   0.326   9.518
 4195SOL     OW12970   3.165   0.838   9.352
 4195SOL    HW112971   3.199   0.745   9.367
 4195SOL    HW212972   3.183   0.865   9.257
 4196SOL     OW12973   2.930   1.333  10.159
 4196SOL    HW112974   2.937   1.249  10.104
 4196SOL    HW212975   2.992   1.402  10.123
 4197SOL     OW12976   2.181   0.810  10.259
 4197SOL    HW112977   2.274   0.846  10.264
 4197SOL    HW212978   2.175   0.725  10.311
 4198SOL     OW12979   2.201   0.509  10.316
 4198SOL    HW112980   2.149   0.426  10.299
 4198SOL    HW212981   2.278   0.514  10.252
 4199SOL     OW12982   3.022   0.207  10.787
 4199SOL    HW112983   3.022   0.271  10.864
 4199SOL    HW212984   3.050   0.255  10.704
 4200SOL     OW12985   1.870   1.326   9.510
 4200SOL    HW112986   1.777   1.347   9.479
 4200SOL    HW212987   1.880   1.227   9.523
 4201SOL     OW12988   1.950   1.801  10.237
 4201SOL    HW112989   1.908   1.715  10.210
 4201SOL    HW212990   2.044   1.804  10.203
 4202SOL     OW12991   2.366   1.568  10.220
 4202SOL    HW112992   2.432   1.642  10.229
 4202SOL    HW212993   2.410   1.489  10.178
 4203SOL     OW12994   2.864   0.796  10.548
 4203SOL    HW112995   2.905   0.764  10.634
 4203SOL    HW212996   2.768   0.769  10.545
 4204SOL     OW12997   1.902   0.544  10.424
 4204SOL    HW112998   1.987   0.511  10.383
 4204SOL    HW212999   1.915   0.559  10.522
 4205SOL     OW13000   2.677   0.572   9.635
 4205SOL    HW113001   2.684   0.483   9.589
 4205SOL    HW213002   2.583   0.606   9.627
 4206SOL     OW13003   3.519   0.604  10.516
 4206SOL    HW113004   3.481   0.535  10.578
 4206SOL    HW213005   3.601   0.568  10.472
 4207SOL     OW13006   2.114   1.564  11.054
 4207SOL    HW113007   2.084   1.621  11.130
 4207SOL    HW213008   2.107   1.467  11.080
 4208SOL     OW13009   2.533   0.464  10.579
 4208SOL    HW113010   2.499   0.375  10.549
 4208SOL    HW213011   2.559   0.518  10.499
 4209SOL     OW13012   2.792   1.678  10.775
 4209SOL    HW113013   2.768   1.660  10.680
 4209SOL    HW213014   2.822   1.772  10.785
 4210SOL     OW13015   2.335   0.500   9.501
 4210SOL    HW113016   2.396   0.580   9.505
 4210SOL    HW213017   2.240   0.531   9.508
 4211SOL     OW13018   2.021   1.137  10.776
 4211SOL    HW113019   2.043   1.076  10.852
 4211SOL    HW213020   2.031   1.088  10.690
 4212SOL     OW13021   3.209   1.059  10.544
 4212SOL    HW113022   3.233   0.996  10.470
 4212SOL    HW213023   3.119   1.099  10.526
 4213SOL     OW13024   3.164   0.855   9.619
 4213SOL    HW113025   3.078   0.824   9.661
 4213SOL    HW213026   3.160   0.841   9.520
 4214SOL     OW13027   3.621   1.747  10.464
 4214SOL    HW113028   3.682   1.777  10.391
 4214SOL    HW213029   3.583   1.658  10.442
 4215SOL     OW13030   3.114   1.731  10.438
 4215SOL    HW113031   3.198   1.736  10.384
 4215SOL    HW213032   3.091   1.635  10.456
 4216SOL     OW13033   1.945   1.258  10.332
 4216SOL    HW113034   1.940   1.257  10.432
 4216SOL    HW213035   1.862   1.217  10.294
 4217SOL     OW13036   3.588   0.135   9.833
 4217SOL    HW113037   3.661   0.118   9.766
 4217SOL    HW213038   3.557   0.048   9.871
 4218SOL     OW13039   3.250   1.573   9.787
 4218SOL    HW113040   3.317   1.585   9.713
 4218SOL    HW213041   3.210   1.662   9.810
 4219SOL     OW13042   3.142   0.927   9.982
 4219SOL    HW113043   3.202   0.846   9.984
 4219SOL    HW213044   3.182   0.996   9.922
 4220SOL     OW13045   2.692   1.273  10.732
 4220SOL    HW113046   2.687   1.306  10.827
 4220SOL    HW213047   2.606   1.292  10.686
 4221SOL     OW13048   2.534   1.616   9.464
 4221SOL    HW113049   2.543   1.626   9.365
 4221SOL    HW213050   2.494   1.527   9.485
 4222SOL     OW13051   3.512   1.720  10.704
 4222SOL    HW113052   3.565   1.730  10.620
 4222SOL    HW213053   3.485   1.810  10.738
 4223SOL     OW13054   3.703   0.175  10.273
 4223SOL    HW113055   3.742   0.090  10.237
 4223SOL    HW213056   3.605   0.177  10.254
 4224SOL     OW13057   2.125   0.326  10.030
 4224SOL    HW113058   2.046   0.377   9.996
 4224SOL    HW213059   2.116   0.311  10.128
 4225SOL     OW13060   3.056   1.612   9.341
 4225SOL    HW113061   3.062   1.519   9.378
 4225SOL    HW213062   2.997   1.612   9.261
 4226SOL     OW13063   2.684   1.002  10.682
 4226SOL    HW113064   2.724   1.001  10.590
 4226SOL    HW213065   2.694   1.094  10.722
 4227SOL     OW13066   2.778   0.910   9.601
 4227SOL    HW113067   2.841   0.948   9.533
 4227SOL    HW213068   2.818   0.827   9.640
 4228SOL     OW13069   3.366   1.607   9.354
 4228SOL    HW113070   3.274   1.644   9.361
 4228SOL    HW213071   3.404   1.627   9.264
 4229SOL     OW13072   2.234   1.288  10.800
 4229SOL    HW113073   2.221   1.381  10.766
 4229SOL    HW213074   2.150   1.236  10.787
 4230SOL     OW13075   3.476   1.292  10.599
 4230SOL    HW113076   3.536   1.295  10.679
 4230SOL    HW213077   3.401   1.356  10.612
 4231SOL     OW13078   2.901   1.098  10.006
 4231SOL    HW113079   2.831   1.051  10.060
 4231SOL    HW213080   2.960   1.030   9.963
 4232SOL     OW13081   2.876   0.236  10.281
 4232SOL    HW113082   2.868   0.200  10.188
 4232SOL    HW213083   2.874   0.160  10.346
 4233SOL     OW13084   2.452   1.487   9.801
 4233SOL    HW113085   2.494   1.429   9.731
 4233SOL    HW213086   2.408   1.566   9.757
 4234SOL     OW13087   3.571   0.385  10.691
 4234SOL    HW113088   3.644   0.454  10.695
 4234SOL    HW213089   3.599   0.310  10.632
 4235SOL     OW13090   2.117   1.348   9.600
 4235SOL    HW113091   2.021   1.349   9.573
 4235SOL    HW213092   2.129   1.401   9.684
 4236SOL     OW13093   1.967   1.013  11.036
 4236SOL    HW113094   1.890   0.980  11.090
 4236SOL    HW213095   2.052   0.983  11.078
 4237SOL     OW13096   2.534   0.203  10.799
 4237SOL    HW113097   2.624   0.187  10.759
 4237SOL    HW213098   2.542   0.208  10.898
 4238SOL     OW13099   1.937   0.345   9.343
 4238SOL    HW113100   1.845   0.317   9.314
 4238SOL    HW213101   1.968   0.422   9.287
 4239SOL     OW13102   3.302   0.856  10.708
 4239SOL    HW113103   3.245   0.908  10.645
 4239SOL    HW213104   3.398   0.868  10.684
 4240SOL     OW13105   1.934   0.166   9.628
 4240SOL    HW113106   1.917   0.249   9.574
 4240SOL    HW213107   2.024   0.129   9.606
 4241SOL     OW13108   3.045   1.335   9.429
 4241SOL    HW113109   2.946   1.324   9.431
 4241SOL    HW213110   3.079   1.350   9.522
 4242SOL     OW13111   2.475   0.842  10.741
 4242SOL    HW113112   2.531   0.923  10.724
 4242SOL    HW213113   2.534   0.762  10.744
 4243SOL     OW13114   3.355   1.767  10.269
 4243SOL    HW113115   3.388   1.831  10.200
 4243SOL    HW213116   3.421   1.761  10.344
 4244SOL     OW13117   2.578   0.565  11.018
 4244SOL    HW113118   2.597   0.630  11.092
 4244SOL    HW213119   2.638   0.485  11.027
 4245SOL     OW13120   2.252   1.741  10.870
 4245SOL    HW113121   2.161   1.782  10.868
 4245SOL    HW213122   2.245   1.647  10.902
 4246SOL     OW13123   3.536   0.883  10.564
 4246SOL    HW113124   3.509   0.794  10.527
 4246SOL    HW213125   3.537   0.951  10.491
 4247SOL     OW13126   3.087   0.325   9.759
 4247SOL    HW113127   3.152   0.251   9.748
 4247SOL    HW213128   3.107   0.375   9.843
 4248SOL     OW13129   2.456   0.745   9.962
 4248SOL    HW113130   2.506   0.830   9.943
 4248SOL    HW213131   2.368   0.747   9.914
 4249SOL     OW13132   3.639   0.342  10.952
 4249SOL    HW113133   3.622   0.373  10.858
 4249SOL    HW213134   3.555   0.305  10.990
 4250SOL     OW13135   3.592   0.934  10.827
 4250SOL    HW113136   3.630   1.025  10.842
 4250SOL    HW213137   3.584   0.917  10.728
 4251SOL     OW13138   2.721   1.374   9.326
 4251SOL    HW113139   2.675   1.389   9.414
 4251SOL    HW213140   2.765   1.459   9.296
 4252SOL     OW13141   2.523   1.790  10.263
 4252SOL    HW113142   2.477   1.878  10.250
 4252SOL    HW213143   2.622   1.802  10.256
 4253SOL     OW13144   2.721   0.956  10.171
 4253SOL    HW113145   2.775   0.887  10.219
 4253SOL    HW213146   2.689   1.025  10.237
 4254SOL     OW13147   2.945   0.984   9.397
 4254SOL    HW113148   2.922   1.037   9.315
 4254SOL    HW213149   3.026   0.928   9.378
 4255SOL     OW13150   3.723   1.569  10.161
 4255SOL    HW113151   3.652   1.557  10.091
 4255SOL    HW213152   3.724   1.490  10.221
 4256SOL     OW13153   1.941   1.240   9.963
 4256SOL    HW113154   1.940   1.193  10.051
 4256SOL    HW213155   2.023   1.212   9.912
 4257SOL     OW13156   2.534   1.391  10.934
 4257SOL    HW113157   2.456   1.341  10.972
 4257SOL    HW213158   2.531   1.486  10.965
 4258SOL     OW13159   3.686   0.192  10.537
 4258SOL    HW113160   3.682   0.102  10.581
 4258SOL    HW213161   3.689   0.181  10.438
 4259SOL     OW13162   2.290   0.424   9.830
 4259SOL    HW113163   2.320   0.352   9.768
 4259SOL    HW213164   2.251   0.384   9.913
 4260SOL     OW13165   3.567   1.487  10.414
 4260SOL    HW113166   3.474   1.462  10.387
 4260SOL    HW213167   3.593   1.437  10.496
 4261SOL     OW13168   2.179   0.547  10.590
 4261SOL    HW113169   2.217   0.488  10.662
 4261SOL    HW213170   2.219   0.521  10.502
 4262SOL     OW13171   2.674   1.586   9.997
 4262SOL    HW113172   2.706   1.596   9.903
 4262SOL    HW213173   2.595   1.524   9.999
 4263SOL     OW13174   3.286   0.214  10.422
 4263SOL    HW113175   3.338   0.149  10.477
 4263SOL    HW213176   3.237   0.277  10.483
 4264SOL     OW13177   2.863   0.034  10.464
 4264SOL    HW113178   2.800  -0.038  10.433
 4264SOL    HW213179   2.956  -0.002  10.464
 4265SOL     OW13180   2.632   1.330   9.611
 4265SOL    HW113181   2.586   1.243   9.628
 4265SOL    HW213182   2.723   1.327   9.652
 4266SOL     OW13183   2.480   1.567  10.594
 4266SOL    HW113184   2.475   1.649  10.651
 4266SOL    HW213185   2.569   1.564  10.549
 4267SOL     OW13186   3.214   0.052   9.478
 4267SOL    HW113187   3.249   0.011   9.394
 4267SOL    HW213188   3.124   0.014   9.498
 4268SOL     OW13189   3.162   0.453  10.001
 4268SOL    HW113190   3.103   0.533  10.005
 4268SOL    HW213191   3.177   0.418  10.094
 4269SOL     OW13192   3.455   0.221  10.192
 4269SOL    HW113193   3.371   0.220  10.246
 4269SOL    HW213194   3.457   0.304  10.136
 4270SOL     OW13195   1.901   1.077   9.610
 4270SOL    HW113196   2.000   1.066   9.601
 4270SOL    HW213197   1.861   0.991   9.642
 4271SOL     OW13198   2.737   1.646   9.647
 4271SOL    HW113199   2.660   1.611   9.593
 4271SOL    HW213200   2.705   1.717   9.709
 4272SOL     OW13201   2.092   2.490   0.113
 4272SOL    HW113202   1.999   2.488   0.150
 4272SOL    HW213203   2.093   2.451   0.021
 4273SOL     OW13204   1.881   2.230   0.647
 4273SOL    HW113205   1.799   2.273   0.686
 4273SOL    HW213206   1.853   2.157   0.584
 4274SOL     OW13207   2.431   3.137   1.165
 4274SOL    HW113208   2.338   3.130   1.128
 4274SOL    HW213209   2.442   3.226   1.209
 4275SOL     OW13210   3.417   3.373   0.703
 4275SOL    HW113211   3.360   3.357   0.784
 4275SOL    HW213212   3.358   3.383   0.623
 4276SOL     OW13213   2.997   2.565   0.717
 4276SOL    HW113214   3.054   2.643   0.692
 4276SOL    HW213215   2.937   2.591   0.793
 4277SOL     OW13216   3.617   2.469   0.231
 4277SOL    HW113217   3.605   2.456   0.132
 4277SOL    HW213218   3.587   2.388   0.280
 4278SOL     OW13219   2.630   3.006   1.023
 4278SOL    HW113220   2.552   3.023   1.083
 4278SOL    HW213221   2.664   3.093   0.987
 4279SOL     OW13222   2.712   2.660   1.823
 4279SOL    HW113223   2.708   2.736   1.888
 4279SOL    HW213224   2.734   2.696   1.732
 4280SOL     OW13225   2.547   2.874   0.665
 4280SOL    HW113226   2.616   2.858   0.735
 4280SOL    HW213227   2.474   2.931   0.703
 4281SOL     OW13228   2.548   3.023   1.803
 4281SOL    HW113229   2.608   3.102   1.817
 4281SOL    HW213230   2.462   3.054   1.762
 4282SOL     OW13231   2.197   3.297   1.061
 4282SOL    HW113232   2.119   3.266   1.008
 4282SOL    HW213233   2.255   3.355   1.004
 4283SOL     OW13234   3.322   3.367   1.339
 4283SOL    HW113235   3.346   3.461   1.365
 4283SOL    HW213236   3.306   3.313   1.421
 4284SOL     OW13237   3.465   2.309   0.737
 4284SOL    HW113238   3.391   2.355   0.687
 4284SOL    HW213239   3.516   2.377   0.790
 4285SOL     OW13240   2.093   3.575   0.483
 4285SOL    HW113241   2.127   3.652   0.537
 4285SOL    HW213242   2.137   3.575   0.393
 4286SOL     OW13243   2.989   3.203   1.690
 4286SOL    HW113244   3.036   3.203   1.778
 4286SOL    HW213245   2.941   3.116   1.679
 4287SOL     OW13246   2.092   3.296   0.538
 4287SOL    HW113247   2.066   3.392   0.538
 4287SOL    HW213248   2.021   3.242   0.583
 4288SOL     OW13249   2.102   2.953   0.886
 4288SOL    HW113250   2.116   2.869   0.938
 4288SOL    HW213251   2.047   3.017   0.941
 4289SOL     OW13252   2.482   3.648   1.439
 4289SOL    HW113253   2.390   3.631   1.474
 4289SOL    HW213254   2.510   3.740   1.465
 4290SOL     OW13255   2.468   2.826   0.123
 4290SOL    HW113256   2.475   2.910   0.069
 4290SOL    HW213257   2.514   2.839   0.211
 4291SOL     OW13258   3.456   1.976   1.480
 4291SOL    HW113259   3.438   2.043   1.408
 4291SOL    HW213260   3.453   2.022   1.569
 4292SOL     OW13261   1.984   2.505   0.563
 4292SOL    HW113262   1.939   2.417   0.580
 4292SOL    HW213263   1.983   2.559   0.647
 4293SOL     OW13264   3.704   3.629   0.359
 4293SOL    HW113265   3.758   3.600   0.439
 4293SOL    HW213266   3.734   3.719   0.330
 4294SOL     OW13267   1.889   3.458   0.117
 4294SOL    HW113268   1.870   3.362   0.138
 4294SOL    HW213269   1.856   3.516   0.192
 4295SOL     OW13270   3.551   2.784   0.612
 4295SOL    HW113271   3.646   2.755   0.620
 4295SOL    HW213272   3.543   2.849   0.537
 4296SOL     OW13273   3.503   2.970   0.432
 4296SOL    HW113274   3.589   2.972   0.380
 4296SOL    HW213275   3.517   3.017   0.520
 4297SOL     OW13276   1.975   2.599   1.597
 4297SOL    HW113277   2.063   2.586   1.642
 4297SOL    HW213278   1.962   2.696   1.575
 4298SOL     OW13279   2.475   3.227   0.726
 4298SOL    HW113280   2.426   3.140   0.735
 4298SOL    HW213281   2.452   3.270   0.639
 4299SOL     OW13282   3.155   3.090   1.423
 4299SOL    HW113283   3.192   3.017   1.365
 4299SOL    HW213284   3.207   3.095   1.508
 4300SOL     OW13285   2.671   1.866   0.502
 4300SOL    HW113286   2.711   1.957   0.493
 4300SOL    HW213287   2.571   1.874   0.508
 4301SOL     OW13288   2.059   2.838   1.264
 4301SOL    HW113289   2.148   2.793   1.250
 4301SOL    HW213290   1.986   2.773   1.245
 4302SOL     OW13291   3.387   2.861   0.190
 4302SOL    HW113292   3.324   2.785   0.203
 4302SOL    HW213293   3.435   2.879   0.276
 4303SOL     OW13294   3.049   3.654   1.616
 4303SOL    HW113295   3.073   3.714   1.540
 4303SOL    HW213296   3.056   3.559   1.586
 4304SOL     OW13297   3.328   3.279   0.953
 4304SOL    HW113298   3.269   3.285   1.033
 4304SOL    HW213299   3.313   3.191   0.907
 4305SOL     OW13300   3.529   3.576   0.572
 4305SOL    HW113301   3.488   3.553   0.484
 4305SOL    HW213302   3.511   3.502   0.637
 4306SOL     OW13303   2.460   2.591   0.270
 4306SOL    HW113304   2.484   2.660   0.202
 4306SOL    HW213305   2.382   2.624   0.324
 4307SOL     OW13306   3.143   2.207   0.944
 4307SOL    HW113307   3.057   2.157   0.931
 4307SOL    HW213308   3.205   2.153   1.000
 4308SOL     OW13309   3.438   3.524   0.307
 4308SOL    HW113310   3.527   3.570   0.310
 4308SOL    HW213311   3.417   3.500   0.212
 4309SOL     OW13312   2.669   2.467   1.465
 4309SOL    HW113313   2.622   2.464   1.554
 4309SOL    HW213314   2.618   2.412   1.399
 4310SOL     OW13315   3.256   2.331   1.674
 4310SOL    HW113316   3.236   2.374   1.762
 4310SOL    HW213317   3.334   2.269   1.683
 4311SOL     OW13318   2.835   2.752   1.572
 4311SOL    HW113319   2.881   2.668   1.543
 4311SOL    HW213320   2.779   2.786   1.497
 4312SOL     OW13321   2.853   2.272   1.242
 4312SOL    HW113322   2.776   2.306   1.296
 4312SOL    HW213323   2.819   2.221   1.163
 4313SOL     OW13324   2.903   2.563   0.429
 4313SOL    HW113325   2.929   2.559   0.525
 4313SOL    HW213326   2.818   2.512   0.415
 4314SOL     OW13327   1.938   2.673   0.789
 4314SOL    HW113328   2.037   2.661   0.798
 4314SOL    HW213329   1.914   2.768   0.810
 4315SOL     OW13330   1.992   3.683   1.571
 4315SOL    HW113331   1.982   3.668   1.670
 4315SOL    HW213332   1.906   3.719   1.535
 4316SOL     OW13333   2.727   2.210   0.195
 4316SOL    HW113334   2.786   2.273   0.146
 4316SOL    HW213335   2.746   2.116   0.166
 4317SOL     OW13336   3.581   2.447   1.831
 4317SOL    HW113337   3.555   2.536   1.795
 4317SOL    HW213338   3.579   2.379   1.758
 4318SOL     OW13339   3.224   3.006   0.545
 4318SOL    HW113340   3.307   2.977   0.497
 4318SOL    HW213341   3.175   3.073   0.489
 4319SOL     OW13342   2.870   3.318   0.477
 4319SOL    HW113343   2.824   3.390   0.425
 4319SOL    HW213344   2.866   3.338   0.575
 4320SOL     OW13345   2.213   3.663   0.853
 4320SOL    HW113346   2.263   3.577   0.859
 4320SOL    HW213347   2.278   3.740   0.850
 4321SOL     OW13348   3.657   2.928   0.873
 4321SOL    HW113349   3.595   2.913   0.797
 4321SOL    HW213350   3.605   2.939   0.958
 4322SOL     OW13351   3.089   3.412   1.506
 4322SOL    HW113352   3.095   3.335   1.570
 4322SOL    HW213353   3.037   3.386   1.426
 4323SOL     OW13354   2.183   2.805   0.242
 4323SOL    HW113355   2.265   2.844   0.200
 4323SOL    HW213356   2.156   2.723   0.193
 4324SOL     OW13357   3.320   2.597   0.728
 4324SOL    HW113358   3.315   2.532   0.803
 4324SOL    HW213359   3.400   2.656   0.741
 4325SOL     OW13360   2.323   3.128   1.727
 4325SOL    HW113361   2.273   3.129   1.641
 4325SOL    HW213362   2.260   3.110   1.803
 4326SOL     OW13363   2.973   3.638   0.237
 4326SOL    HW113364   2.913   3.576   0.287
 4326SOL    HW213365   3.004   3.594   0.152
 4327SOL     OW13366   2.064   2.147   1.498
 4327SOL    HW113367   1.984   2.207   1.485
 4327SOL    HW213368   2.054   2.098   1.584
 4328SOL     OW13369   3.494   3.239   0.081
 4328SOL    HW113370   3.462   3.333   0.071
 4328SOL    HW213371   3.418   3.176   0.069
 4329SOL     OW13372   2.326   3.605   0.323
 4329SOL    HW113373   2.359   3.644   0.409
 4329SOL    HW213374   2.402   3.598   0.258
 4330SOL     OW13375   3.262   1.969   0.426
 4330SOL    HW113376   3.238   1.932   0.336
 4330SOL    HW213377   3.361   1.985   0.430
 4331SOL     OW13378   2.111   3.647   1.241
 4331SOL    HW113379   2.168   3.582   1.291
 4331SOL    HW213380   2.095   3.614   1.148
 4332SOL     OW13381   2.802   3.560   0.904
 4332SOL    HW113382   2.882   3.503   0.925
 4332SOL    HW213383   2.753   3.520   0.827
 4333SOL     OW13384   2.244   2.562   0.480
 4333SOL    HW113385   2.289   2.472   0.477
 4333SOL    HW213386   2.150   2.551   0.513
 4334SOL     OW13387   3.409   2.084   1.729
 4334SOL    HW113388   3.404   2.121   1.821
 4334SOL    HW213389   3.337   2.015   1.717
 4335SOL     OW13390   2.476   1.984   0.117
 4335SOL    HW113391   2.574   1.962   0.124
 4335SOL    HW213392   2.445   1.967   0.024
 4336SOL     OW13393   2.643   2.126   1.749
 4336SOL    HW113394   2.710   2.065   1.792
 4336SOL    HW213395   2.570   2.145   1.814
 4337SOL     OW13396   2.750   3.376   1.195
 4337SOL    HW113397   2.727   3.351   1.101
 4337SOL    HW213398   2.811   3.307   1.234
 4338SOL     OW13399   3.213   2.452   1.433
 4338SOL    HW113400   3.241   2.409   1.518
 4338SOL    HW213401   3.238   2.548   1.434
 4339SOL     OW13402   2.665   3.264   0.924
 4339SOL    HW113403   2.755   3.278   0.882
 4339SOL    HW213404   2.594   3.266   0.853
 4340SOL     OW13405   2.784   2.365   0.899
 4340SOL    HW113406   2.759   2.356   0.803
 4340SOL    HW213407   2.832   2.283   0.930
 4341SOL     OW13408   2.401   1.926   0.512
 4341SOL    HW113409   2.320   1.927   0.570
 4341SOL    HW213410   2.404   2.009   0.457
 4342SOL     OW13411   3.296   3.050   0.041
 4342SOL    HW113412   3.328   2.974   0.098
 4342SOL    HW213413   3.204   3.077   0.071
 4343SOL     OW13414   2.159   1.897   0.171
 4343SOL    HW113415   2.208   1.981   0.150
 4343SOL    HW213416   2.221   1.832   0.216
 4344SOL     OW13417   2.797   2.098   0.480
 4344SOL    HW113418   2.749   2.139   0.402
 4344SOL    HW213419   2.896   2.096   0.461
 4345SOL     OW13420   2.938   2.545   1.464
 4345SOL    HW113421   2.858   2.484   1.467
 4345SOL    HW213422   3.019   2.492   1.440
 4346SOL     OW13423   3.089   3.432   0.793
 4346SOL    HW113424   3.110   3.506   0.728
 4346SOL    HW213425   3.157   3.432   0.866
 4347SOL     OW13426   2.321   3.014   0.741
 4347SOL    HW113427   2.250   2.987   0.806
 4347SOL    HW213428   2.295   2.986   0.648
 4348SOL     OW13429   3.133   3.659   0.591
 4348SOL    HW113430   3.177   3.723   0.527
 4348SOL    HW213431   3.083   3.711   0.661
 4349SOL     OW13432   2.894   2.411   0.016
 4349SOL    HW113433   2.853   2.493  -0.023
 4349SOL    HW213434   2.958   2.437   0.089
 4350SOL     OW13435   1.940   2.418   1.386
 4350SOL    HW113436   2.032   2.417   1.345
 4350SOL    HW213437   1.934   2.492   1.453
 4351SOL     OW13438   2.423   2.084   1.147
 4351SOL    HW113439   2.461   2.000   1.184
 4351SOL    HW213440   2.335   2.103   1.191
 4352SOL     OW13441   2.728   2.316   0.642
 4352SOL    HW113442   2.696   2.388   0.580
 4352SOL    HW213443   2.752   2.235   0.589
 4353SOL     OW13444   2.879   1.901   0.753
 4353SOL    HW113445   2.807   1.906   0.684
 4353SOL    HW213446   2.855   1.832   0.822
 4354SOL     OW13447   3.291   3.035   0.867
 4354SOL    HW113448   3.236   2.951   0.860
 4354SOL    HW213449   3.317   3.064   0.775
 4355SOL     OW13450   3.328   2.452   0.992
 4355SOL    HW113451   3.298   2.357   0.999
 4355SOL    HW213452   3.401   2.468   1.058
 4356SOL     OW13453   3.719   2.695   0.377
 4356SOL    HW113454   3.761   2.631   0.441
 4356SOL    HW213455   3.681   2.644   0.299
 4357SOL     OW13456   2.350   3.247   0.174
 4357SOL    HW113457   2.263   3.232   0.221
 4357SOL    HW213458   2.333   3.273   0.079
 4358SOL     OW13459   3.526   3.142   0.657
 4358SOL    HW113460   3.625   3.150   0.671
 4358SOL    HW213461   3.481   3.226   0.688
 4359SOL     OW13462   3.252   2.437   0.078
 4359SOL    HW113463   3.198   2.416   0.159
 4359SOL    HW213464   3.343   2.396   0.087
 4360SOL     OW13465   3.616   3.085   1.588
 4360SOL    HW113466   3.707   3.046   1.575
 4360SOL    HW213467   3.624   3.181   1.612
 4361SOL     OW13468   2.926   3.209   1.340
 4361SOL    HW113469   2.846   3.186   1.395
 4361SOL    HW213470   3.009   3.183   1.389
 4362SOL     OW13471   3.454   3.491   1.625
 4362SOL    HW113472   3.481   3.525   1.535
 4362SOL    HW213473   3.533   3.453   1.671
 4363SOL     OW13474   2.973   3.057   1.100
 4363SOL    HW113475   2.933   3.101   1.181
 4363SOL    HW213476   2.932   3.094   1.017
 4364SOL     OW13477   3.500   2.961   1.079
 4364SOL    HW113478   3.505   3.042   1.138
 4364SOL    HW213479   3.414   2.963   1.028
 4365SOL     OW13480   2.777   1.951   1.402
 4365SOL    HW113481   2.802   1.931   1.307
 4365SOL    HW213482   2.849   2.007   1.444
 4366SOL     OW13483   2.842   2.978   1.719
 4366SOL    HW113484   2.743   2.984   1.729
 4366SOL    HW213485   2.865   2.898   1.663
 4367SOL     OW13486   2.567   2.912   0.368
 4367SOL    HW113487   2.553   2.919   0.467
 4367SOL    HW213488   2.651   2.861   0.350
 4368SOL     OW13489   2.272   2.675   1.251
 4368SOL    HW113490   2.358   2.687   1.301
 4368SOL    HW213491   2.230   2.588   1.278
 4369SOL     OW13492   3.136   2.248   1.262
 4369SOL    HW113493   3.157   2.322   1.326
 4369SOL    HW213494   3.047   2.265   1.219
 4370SOL     OW13495   1.926   3.426   1.331
 4370SOL    HW113496   1.880   3.508   1.297
 4370SOL    HW213497   2.024   3.445   1.340
 4371SOL     OW13498   2.229   2.962   0.501
 4371SOL    HW113499   2.222   3.045   0.445
 4371SOL    HW213500   2.233   2.882   0.441
 4372SOL     OW13501   3.114   3.210   0.388
 4372SOL    HW113502   3.164   3.287   0.428
 4372SOL    HW213503   3.019   3.212   0.420
 4373SOL     OW13504   3.134   3.307   1.142
 4373SOL    HW113505   3.181   3.320   1.229
 4373SOL    HW213506   3.068   3.233   1.151
 4374SOL     OW13507   3.444   2.501   0.472
 4374SOL    HW113508   3.413   2.562   0.545
 4374SOL    HW213509   3.494   2.553   0.403
 4375SOL     OW13510   2.216   3.372   1.329
 4375SOL    HW113511   2.195   3.328   1.242
 4375SOL    HW213512   2.313   3.398   1.332
 4376SOL     OW13513   2.264   2.613   1.598
 4376SOL    HW113514   2.332   2.668   1.551
 4376SOL    HW213515   2.304   2.525   1.625
 4377SOL     OW13516   3.449   2.641   1.670
 4377SOL    HW113517   3.357   2.679   1.665
 4377SOL    HW213518   3.509   2.688   1.605
 4378SOL     OW13519   2.875   1.967   1.770
 4378SOL    HW113520   2.881   2.052   1.718
 4378SOL    HW213521   2.907   1.891   1.713
 4379SOL     OW13522   2.366   1.912   1.740
 4379SOL    HW113523   2.324   1.855   1.670
 4379SOL    HW213524   2.300   1.981   1.772
 4380SOL     OW13525   2.435   2.732   1.029
 4380SOL    HW113526   2.479   2.821   1.020
 4380SOL    HW213527   2.372   2.732   1.106
 4381SOL     OW13528   3.222   2.724   1.045
 4381SOL    HW113529   3.147   2.724   0.979
 4381SOL    HW213530   3.259   2.632   1.054
 4382SOL     OW13531   3.071   2.387   0.275
 4382SOL    HW113532   3.084   2.303   0.329
 4382SOL    HW213533   3.042   2.461   0.335
 4383SOL     OW13534   1.899   3.172   1.282
 4383SOL    HW113535   1.952   3.123   1.350
 4383SOL    HW213536   1.921   3.270   1.287
 4384SOL     OW13537   2.594   2.496   1.064
 4384SOL    HW113538   2.653   2.470   0.988
 4384SOL    HW213539   2.566   2.592   1.053
 4385SOL     OW13540   3.590   2.797   1.854
 4385SOL    HW113541   3.544   2.790   1.765
 4385SOL    HW213542   3.528   2.841   1.920
 4386SOL     OW13543   2.169   1.925   0.618
 4386SOL    HW113544   2.158   2.019   0.651
 4386SOL    HW213545   2.164   1.862   0.695
 4387SOL     OW13546   3.484   2.229   0.374
 4387SOL    HW113547   3.486   2.153   0.438
 4387SOL    HW213548   3.436   2.306   0.414
 4388SOL     OW13549   2.885   2.628   0.966
 4388SOL    HW113550   2.900   2.649   1.062
 4388SOL    HW213551   2.855   2.533   0.957
 4389SOL     OW13552   2.842   3.435   1.700
 4389SOL    HW113553   2.822   3.479   1.612
 4389SOL    HW213554   2.881   3.344   1.684
 4390SOL     OW13555   3.721   3.380   1.605
 4390SOL    HW113556   3.735   3.407   1.510
 4390SOL    HW213557   3.804   3.402   1.658
 4391SOL     OW13558   2.212   2.760   1.804
 4391SOL    HW113559   2.288   2.804   1.852
 4391SOL    HW213560   2.247   2.713   1.722
 4392SOL     OW13561   3.402   2.136   0.125
 4392SOL    HW113562   3.341   2.061   0.148
 4392SOL    HW213563   3.424   2.188   0.208
 4393SOL     OW13564   3.165   2.700   0.042
 4393SOL    HW113565   3.199   2.607   0.057
 4393SOL    HW213566   3.183   2.727  -0.053
 4394SOL     OW13567   2.930   3.195   0.849
 4394SOL    HW113568   2.937   3.111   0.794
 4394SOL    HW213569   2.992   3.264   0.813
 4395SOL     OW13570   2.181   2.672   0.949
 4395SOL    HW113571   2.274   2.708   0.954
 4395SOL    HW213572   2.175   2.587   1.001
 4396SOL     OW13573   3.000   2.242   1.678
 4396SOL    HW113574   2.955   2.305   1.742
 4396SOL    HW213575   3.093   2.273   1.661
 4397SOL     OW13576   3.022   2.069   1.477
 4397SOL    HW113577   3.022   2.133   1.554
 4397SOL    HW213578   3.050   2.117   1.394
 4398SOL     OW13579   1.870   3.188   0.200
 4398SOL    HW113580   1.777   3.209   0.169
 4398SOL    HW213581   1.880   3.089   0.213
 4399SOL     OW13582   1.950   3.663   0.927
 4399SOL    HW113583   1.908   3.577   0.900
 4399SOL    HW213584   2.044   3.666   0.893
 4400SOL     OW13585   2.366   3.430   0.910
 4400SOL    HW113586   2.432   3.504   0.919
 4400SOL    HW213587   2.410   3.351   0.868
 4401SOL     OW13588   2.864   2.658   1.238
 4401SOL    HW113589   2.905   2.626   1.324
 4401SOL    HW213590   2.768   2.631   1.235
 4402SOL     OW13591   1.902   2.406   1.114
 4402SOL    HW113592   1.987   2.373   1.073
 4402SOL    HW213593   1.915   2.421   1.212
 4403SOL     OW13594   3.231   2.812   1.660
 4403SOL    HW113595   3.270   2.901   1.680
 4403SOL    HW213596   3.241   2.792   1.563
 4404SOL     OW13597   2.677   2.434   0.325
 4404SOL    HW113598   2.684   2.345   0.279
 4404SOL    HW213599   2.583   2.468   0.317
 4405SOL     OW13600   3.519   2.466   1.206
 4405SOL    HW113601   3.481   2.397   1.268
 4405SOL    HW213602   3.601   2.430   1.162
 4406SOL     OW13603   2.114   3.426   1.744
 4406SOL    HW113604   2.084   3.483   1.820
 4406SOL    HW213605   2.107   3.329   1.770
 4407SOL     OW13606   2.533   2.326   1.269
 4407SOL    HW113607   2.499   2.237   1.239
 4407SOL    HW213608   2.559   2.380   1.189
 4408SOL     OW13609   2.792   3.540   1.465
 4408SOL    HW113610   2.768   3.522   1.370
 4408SOL    HW213611   2.822   3.634   1.475
 4409SOL     OW13612   2.021   2.999   1.466
 4409SOL    HW113613   2.043   2.938   1.542
 4409SOL    HW213614   2.031   2.950   1.380
 4410SOL     OW13615   3.209   2.921   1.234
 4410SOL    HW113616   3.233   2.858   1.160
 4410SOL    HW213617   3.119   2.961   1.216
 4411SOL     OW13618   3.164   2.717   0.309
 4411SOL    HW113619   3.078   2.686   0.351
 4411SOL    HW213620   3.160   2.703   0.210
 4412SOL     OW13621   3.621   3.609   1.154
 4412SOL    HW113622   3.682   3.639   1.081
 4412SOL    HW213623   3.583   3.520   1.132
 4413SOL     OW13624   3.114   3.593   1.128
 4413SOL    HW113625   3.198   3.598   1.074
 4413SOL    HW213626   3.091   3.497   1.146
 4414SOL     OW13627   1.945   3.120   1.022
 4414SOL    HW113628   1.940   3.119   1.122
 4414SOL    HW213629   1.862   3.079   0.984
 4415SOL     OW13630   2.550   3.524   1.716
 4415SOL    HW113631   2.494   3.605   1.725
 4415SOL    HW213632   2.602   3.528   1.630
 4416SOL     OW13633   2.765   1.948   0.133
 4416SOL    HW113634   2.816   1.949   0.047
 4416SOL    HW213635   2.821   1.906   0.204
 4417SOL     OW13636   3.588   1.997   0.523
 4417SOL    HW113637   3.661   1.980   0.456
 4417SOL    HW213638   3.557   1.910   0.561
 4418SOL     OW13639   3.250   3.435   0.477
 4418SOL    HW113640   3.317   3.447   0.403
 4418SOL    HW213641   3.210   3.524   0.500
 4419SOL     OW13642   1.992   3.656   1.851
 4419SOL    HW113643   1.951   3.582   1.904
 4419SOL    HW213644   2.056   3.707   1.909
 4420SOL     OW13645   3.142   2.789   0.672
 4420SOL    HW113646   3.202   2.708   0.674
 4420SOL    HW213647   3.182   2.858   0.612
 4421SOL     OW13648   2.692   3.135   1.422
 4421SOL    HW113649   2.687   3.168   1.517
 4421SOL    HW213650   2.606   3.154   1.376
 4422SOL     OW13651   2.534   3.478   0.154
 4422SOL    HW113652   2.543   3.488   0.055
 4422SOL    HW213653   2.494   3.389   0.175
 4423SOL     OW13654   3.512   3.582   1.394
 4423SOL    HW113655   3.565   3.592   1.310
 4423SOL    HW213656   3.485   3.672   1.428
 4424SOL     OW13657   3.703   2.037   0.963
 4424SOL    HW113658   3.742   1.952   0.927
 4424SOL    HW213659   3.605   2.039   0.944
 4425SOL     OW13660   3.056   3.474   0.031
 4425SOL    HW113661   3.062   3.381   0.068
 4425SOL    HW213662   2.997   3.474  -0.049
 4426SOL     OW13663   2.684   2.864   1.372
 4426SOL    HW113664   2.724   2.863   1.280
 4426SOL    HW213665   2.694   2.956   1.412
 4427SOL     OW13666   2.778   2.772   0.291
 4427SOL    HW113667   2.841   2.810   0.223
 4427SOL    HW213668   2.818   2.689   0.330
 4428SOL     OW13669   3.366   3.469   0.044
 4428SOL    HW113670   3.274   3.506   0.051
 4428SOL    HW213671   3.404   3.489  -0.046
 4429SOL     OW13672   2.234   3.150   1.490
 4429SOL    HW113673   2.221   3.243   1.456
 4429SOL    HW213674   2.150   3.098   1.477
 4430SOL     OW13675   3.476   3.154   1.289
 4430SOL    HW113676   3.536   3.157   1.369
 4430SOL    HW213677   3.401   3.218   1.302
 4431SOL     OW13678   2.901   2.960   0.696
 4431SOL    HW113679   2.831   2.913   0.750
 4431SOL    HW213680   2.960   2.892   0.653
 4432SOL     OW13681   2.876   2.098   0.971
 4432SOL    HW113682   2.868   2.062   0.878
 4432SOL    HW213683   2.874   2.022   1.036
 4433SOL     OW13684   2.452   3.349   0.491
 4433SOL    HW113685   2.494   3.291   0.421
 4433SOL    HW213686   2.408   3.428   0.447
 4434SOL     OW13687   3.571   2.247   1.381
 4434SOL    HW113688   3.644   2.316   1.385
 4434SOL    HW213689   3.599   2.172   1.322
 4435SOL     OW13690   2.117   3.210   0.290
 4435SOL    HW113691   2.021   3.211   0.263
 4435SOL    HW213692   2.129   3.263   0.374
 4436SOL     OW13693   1.967   2.875   1.726
 4436SOL    HW113694   1.890   2.842   1.780
 4436SOL    HW213695   2.052   2.845   1.768
 4437SOL     OW13696   2.534   2.065   1.489
 4437SOL    HW113697   2.624   2.049   1.449
 4437SOL    HW213698   2.542   2.070   1.588
 4438SOL     OW13699   1.937   2.207   0.033
 4438SOL    HW113700   1.845   2.179   0.004
 4438SOL    HW213701   1.968   2.284  -0.023
 4439SOL     OW13702   3.302   2.718   1.398
 4439SOL    HW113703   3.245   2.770   1.335
 4439SOL    HW213704   3.398   2.730   1.374
 4440SOL     OW13705   1.934   2.028   0.318
 4440SOL    HW113706   1.917   2.111   0.264
 4440SOL    HW213707   2.024   1.991   0.296
 4441SOL     OW13708   3.045   3.197   0.119
 4441SOL    HW113709   2.946   3.186   0.121
 4441SOL    HW213710   3.079   3.212   0.212
 4442SOL     OW13711   2.475   2.704   1.431
 4442SOL    HW113712   2.531   2.785   1.414
 4442SOL    HW213713   2.534   2.624   1.434
 4443SOL     OW13714   3.355   3.629   0.959
 4443SOL    HW113715   3.388   3.693   0.890
 4443SOL    HW213716   3.421   3.623   1.034
 4444SOL     OW13717   2.578   2.427   1.708
 4444SOL    HW113718   2.597   2.492   1.782
 4444SOL    HW213719   2.638   2.347   1.717
 4445SOL     OW13720   3.312   3.082   1.633
 4445SOL    HW113721   3.303   3.072   1.732
 4445SOL    HW213722   3.408   3.075   1.607
 4446SOL     OW13723   2.252   3.603   1.560
 4446SOL    HW113724   2.161   3.644   1.558
 4446SOL    HW213725   2.245   3.509   1.592
 4447SOL     OW13726   3.536   2.745   1.254
 4447SOL    HW113727   3.509   2.656   1.217
 4447SOL    HW213728   3.537   2.813   1.181
 4448SOL     OW13729   3.087   2.187   0.449
 4448SOL    HW113730   3.152   2.113   0.438
 4448SOL    HW213731   3.107   2.237   0.533
 4449SOL     OW13732   2.456   2.607   0.652
 4449SOL    HW113733   2.506   2.692   0.633
 4449SOL    HW213734   2.368   2.609   0.604
 4450SOL     OW13735   3.639   2.204   1.642
 4450SOL    HW113736   3.622   2.235   1.548
 4450SOL    HW213737   3.555   2.167   1.680
 4451SOL     OW13738   3.592   2.796   1.517
 4451SOL    HW113739   3.630   2.887   1.532
 4451SOL    HW213740   3.584   2.779   1.418
 4452SOL     OW13741   2.721   3.236   0.016
 4452SOL    HW113742   2.675   3.251   0.104
 4452SOL    HW213743   2.765   3.321  -0.014
 4453SOL     OW13744   2.523   3.652   0.953
 4453SOL    HW113745   2.477   3.740   0.940
 4453SOL    HW213746   2.622   3.664   0.946
 4454SOL     OW13747   2.721   2.818   0.861
 4454SOL    HW113748   2.775   2.749   0.909
 4454SOL    HW213749   2.689   2.887   0.927
 4455SOL     OW13750   2.945   2.846   0.087
 4455SOL    HW113751   2.922   2.899   0.005
 4455SOL    HW213752   3.026   2.790   0.068
 4456SOL     OW13753   3.723   3.431   0.851
 4456SOL    HW113754   3.652   3.419   0.781
 4456SOL    HW213755   3.724   3.352   0.911
 4457SOL     OW13756   2.083   3.176   1.844
 4457SOL    HW113757   2.018   3.103   1.823
 4457SOL    HW213758   2.087   3.190   1.942
 4458SOL     OW13759   1.941   3.102   0.653
 4458SOL    HW113760   1.940   3.055   0.741
 4458SOL    HW213761   2.023   3.074   0.602
 4459SOL     OW13762   2.534   3.253   1.624
 4459SOL    HW113763   2.456   3.203   1.662
 4459SOL    HW213764   2.531   3.348   1.655
 4460SOL     OW13765   3.686   2.054   1.227
 4460SOL    HW113766   3.682   1.964   1.271
 4460SOL    HW213767   3.689   2.043   1.128
 4461SOL     OW13768   3.567   3.349   1.104
 4461SOL    HW113769   3.474   3.324   1.077
 4461SOL    HW213770   3.593   3.299   1.186
 4462SOL     OW13771   2.674   3.448   0.687
 4462SOL    HW113772   2.706   3.458   0.593
 4462SOL    HW213773   2.595   3.386   0.689
 4463SOL     OW13774   3.286   2.076   1.112
 4463SOL    HW113775   3.338   2.011   1.167
 4463SOL    HW213776   3.237   2.139   1.173
 4464SOL     OW13777   2.863   1.896   1.154
 4464SOL    HW113778   2.800   1.824   1.123
 4464SOL    HW213779   2.956   1.860   1.154
 4465SOL     OW13780   2.632   3.192   0.301
 4465SOL    HW113781   2.586   3.105   0.318
 4465SOL    HW213782   2.723   3.189   0.342
 4466SOL     OW13783   2.480   3.429   1.284
 4466SOL    HW113784   2.475   3.511   1.341
 4466SOL    HW213785   2.569   3.426   1.239
 4467SOL     OW13786   3.214   1.914   0.168
 4467SOL    HW113787   3.249   1.873   0.084
 4467SOL    HW213788   3.124   1.876   0.188
 4468SOL     OW13789   3.162   2.315   0.691
 4468SOL    HW113790   3.103   2.395   0.695
 4468SOL    HW213791   3.177   2.280   0.784
 4469SOL     OW13792   3.455   2.083   0.882
 4469SOL    HW113793   3.371   2.082   0.936
 4469SOL    HW213794   3.457   2.166   0.826
 4470SOL     OW13795   1.901   2.939   0.300
 4470SOL    HW113796   2.000   2.928   0.291
 4470SOL    HW213797   1.861   2.853   0.332
 4471SOL     OW13798   2.737   3.508   0.337
 4471SOL    HW113799   2.660   3.473   0.283
 4471SOL    HW213800   2.705   3.579   0.399
 4472SOL     OW13801   2.092   2.490   1.975
 4472SOL    HW113802   1.999   2.488   2.012
 4472SOL    HW213803   2.093   2.451   1.883
 4473SOL     OW13804   2.087   2.137   2.858
 4473SOL    HW113805   2.122   2.120   2.950
 4473SOL    HW213806   1.999   2.092   2.846
 4474SOL     OW13807   1.881   2.230   2.509
 4474SOL    HW113808   1.799   2.273   2.548
 4474SOL    HW213809   1.853   2.157   2.446
 4475SOL     OW13810   2.431   3.137   3.027
 4475SOL    HW113811   2.338   3.130   2.990
 4475SOL    HW213812   2.442   3.226   3.071
 4476SOL     OW13813   3.417   3.373   2.565
 4476SOL    HW113814   3.360   3.357   2.646
 4476SOL    HW213815   3.358   3.383   2.485
 4477SOL     OW13816   2.997   2.565   2.579
 4477SOL    HW113817   3.054   2.643   2.554
 4477SOL    HW213818   2.937   2.591   2.655
 4478SOL     OW13819   3.617   2.469   2.093
 4478SOL    HW113820   3.605   2.456   1.994
 4478SOL    HW213821   3.587   2.388   2.142
 4479SOL     OW13822   2.630   3.006   2.885
 4479SOL    HW113823   2.552   3.023   2.945
 4479SOL    HW213824   2.664   3.093   2.849
 4480SOL     OW13825   2.712   2.660   3.685
 4480SOL    HW113826   2.708   2.736   3.750
 4480SOL    HW213827   2.734   2.696   3.594
 4481SOL     OW13828   2.547   2.874   2.527
 4481SOL    HW113829   2.616   2.858   2.597
 4481SOL    HW213830   2.474   2.931   2.565
 4482SOL     OW13831   2.548   3.023   3.665
 4482SOL    HW113832   2.608   3.102   3.679
 4482SOL    HW213833   2.462   3.054   3.624
 4483SOL     OW13834   2.197   3.297   2.923
 4483SOL    HW113835   2.119   3.266   2.870
 4483SOL    HW213836   2.255   3.355   2.866
 4484SOL     OW13837   3.322   3.367   3.201
 4484SOL    HW113838   3.346   3.461   3.227
 4484SOL    HW213839   3.306   3.313   3.283
 4485SOL     OW13840   3.465   2.309   2.599
 4485SOL    HW113841   3.391   2.355   2.549
 4485SOL    HW213842   3.516   2.377   2.652
 4486SOL     OW13843   2.093   3.575   2.345
 4486SOL    HW113844   2.127   3.652   2.399
 4486SOL    HW213845   2.137   3.575   2.255
 4487SOL     OW13846   2.989   3.203   3.552
 4487SOL    HW113847   3.036   3.203   3.640
 4487SOL    HW213848   2.941   3.116   3.541
 4488SOL     OW13849   2.092   3.296   2.400
 4488SOL    HW113850   2.066   3.392   2.400
 4488SOL    HW213851   2.021   3.242   2.445
 4489SOL     OW13852   2.102   2.953   2.748
 4489SOL    HW113853   2.116   2.869   2.800
 4489SOL    HW213854   2.047   3.017   2.803
 4490SOL     OW13855   2.482   3.648   3.301
 4490SOL    HW113856   2.390   3.631   3.336
 4490SOL    HW213857   2.510   3.740   3.327
 4491SOL     OW13858   2.468   2.826   1.985
 4491SOL    HW113859   2.475   2.910   1.931
 4491SOL    HW213860   2.514   2.839   2.073
 4492SOL     OW13861   3.456   1.976   3.342
 4492SOL    HW113862   3.438   2.043   3.270
 4492SOL    HW213863   3.453   2.022   3.431
 4493SOL     OW13864   1.984   2.505   2.425
 4493SOL    HW113865   1.939   2.417   2.442
 4493SOL    HW213866   1.983   2.559   2.509
 4494SOL     OW13867   3.704   3.629   2.221
 4494SOL    HW113868   3.758   3.600   2.301
 4494SOL    HW213869   3.734   3.719   2.192
 4495SOL     OW13870   1.889   3.458   1.979
 4495SOL    HW113871   1.870   3.362   2.000
 4495SOL    HW213872   1.856   3.516   2.054
 4496SOL     OW13873   3.551   2.784   2.474
 4496SOL    HW113874   3.646   2.755   2.482
 4496SOL    HW213875   3.543   2.849   2.399
 4497SOL     OW13876   3.503   2.970   2.294
 4497SOL    HW113877   3.589   2.972   2.242
 4497SOL    HW213878   3.517   3.017   2.382
 4498SOL     OW13879   1.975   2.599   3.459
 4498SOL    HW113880   2.063   2.586   3.504
 4498SOL    HW213881   1.962   2.696   3.437
 4499SOL     OW13882   2.475   3.227   2.588
 4499SOL    HW113883   2.426   3.140   2.597
 4499SOL    HW213884   2.452   3.270   2.501
 4500SOL     OW13885   3.155   3.090   3.285
 4500SOL    HW113886   3.192   3.017   3.227
 4500SOL    HW213887   3.207   3.095   3.370
 4501SOL     OW13888   2.671   1.866   2.364
 4501SOL    HW113889   2.711   1.957   2.355
 4501SOL    HW213890   2.571   1.874   2.370
 4502SOL     OW13891   2.059   2.838   3.126
 4502SOL    HW113892   2.148   2.793   3.112
 4502SOL    HW213893   1.986   2.773   3.107
 4503SOL     OW13894   3.387   2.861   2.052
 4503SOL    HW113895   3.324   2.785   2.065
 4503SOL    HW213896   3.435   2.879   2.138
 4504SOL     OW13897   3.049   3.654   3.478
 4504SOL    HW113898   3.073   3.714   3.402
 4504SOL    HW213899   3.056   3.559   3.448
 4505SOL     OW13900   3.328   3.279   2.815
 4505SOL    HW113901   3.269   3.285   2.895
 4505SOL    HW213902   3.313   3.191   2.769
 4506SOL     OW13903   3.529   3.576   2.434
 4506SOL    HW113904   3.488   3.553   2.346
 4506SOL    HW213905   3.511   3.502   2.499
 4507SOL     OW13906   2.460   2.591   2.132
 4507SOL    HW113907   2.484   2.660   2.064
 4507SOL    HW213908   2.382   2.624   2.186
 4508SOL     OW13909   3.143   2.207   2.806
 4508SOL    HW113910   3.057   2.157   2.793
 4508SOL    HW213911   3.205   2.153   2.862
 4509SOL     OW13912   3.438   3.524   2.169
 4509SOL    HW113913   3.527   3.570   2.172
 4509SOL    HW213914   3.417   3.500   2.074
 4510SOL     OW13915   2.669   2.467   3.327
 4510SOL    HW113916   2.622   2.464   3.416
 4510SOL    HW213917   2.618   2.412   3.261
 4511SOL     OW13918   3.256   2.331   3.536
 4511SOL    HW113919   3.236   2.374   3.624
 4511SOL    HW213920   3.334   2.269   3.545
 4512SOL     OW13921   2.835   2.752   3.434
 4512SOL    HW113922   2.881   2.668   3.405
 4512SOL    HW213923   2.779   2.786   3.359
 4513SOL     OW13924   2.853   2.272   3.104
 4513SOL    HW113925   2.776   2.306   3.158
 4513SOL    HW213926   2.819   2.221   3.025
 4514SOL     OW13927   2.903   2.563   2.291
 4514SOL    HW113928   2.929   2.559   2.387
 4514SOL    HW213929   2.818   2.512   2.277
 4515SOL     OW13930   1.938   2.673   2.651
 4515SOL    HW113931   2.037   2.661   2.660
 4515SOL    HW213932   1.914   2.768   2.672
 4516SOL     OW13933   1.992   3.683   3.433
 4516SOL    HW113934   1.982   3.668   3.532
 4516SOL    HW213935   1.906   3.719   3.397
 4517SOL     OW13936   2.727   2.210   2.057
 4517SOL    HW113937   2.786   2.273   2.008
 4517SOL    HW213938   2.746   2.116   2.028
 4518SOL     OW13939   3.581   2.447   3.693
 4518SOL    HW113940   3.555   2.536   3.657
 4518SOL    HW213941   3.579   2.379   3.620
 4519SOL     OW13942   3.224   3.006   2.407
 4519SOL    HW113943   3.307   2.977   2.359
 4519SOL    HW213944   3.175   3.073   2.351
 4520SOL     OW13945   2.412   2.058   2.747
 4520SOL    HW113946   2.407   2.053   2.847
 4520SOL    HW213947   2.414   2.154   2.718
 4521SOL     OW13948   2.870   3.318   2.339
 4521SOL    HW113949   2.824   3.390   2.287
 4521SOL    HW213950   2.866   3.338   2.437
 4522SOL     OW13951   2.213   3.663   2.715
 4522SOL    HW113952   2.263   3.577   2.721
 4522SOL    HW213953   2.278   3.740   2.712
 4523SOL     OW13954   3.657   2.928   2.735
 4523SOL    HW113955   3.595   2.913   2.659
 4523SOL    HW213956   3.605   2.939   2.820
 4524SOL     OW13957   3.089   3.412   3.368
 4524SOL    HW113958   3.095   3.335   3.432
 4524SOL    HW213959   3.037   3.386   3.288
 4525SOL     OW13960   2.183   2.805   2.104
 4525SOL    HW113961   2.265   2.844   2.062
 4525SOL    HW213962   2.156   2.723   2.055
 4526SOL     OW13963   3.320   2.597   2.590
 4526SOL    HW113964   3.315   2.532   2.665
 4526SOL    HW213965   3.400   2.656   2.603
 4527SOL     OW13966   2.323   3.128   3.589
 4527SOL    HW113967   2.273   3.129   3.503
 4527SOL    HW213968   2.260   3.110   3.665
 4528SOL     OW13969   2.973   3.638   2.099
 4528SOL    HW113970   2.913   3.576   2.149
 4528SOL    HW213971   3.004   3.594   2.014
 4529SOL     OW13972   2.064   2.147   3.360
 4529SOL    HW113973   1.984   2.207   3.347
 4529SOL    HW213974   2.054   2.098   3.446
 4530SOL     OW13975   3.494   3.239   1.943
 4530SOL    HW113976   3.462   3.333   1.933
 4530SOL    HW213977   3.418   3.176   1.931
 4531SOL     OW13978   2.326   3.605   2.185
 4531SOL    HW113979   2.359   3.644   2.271
 4531SOL    HW213980   2.402   3.598   2.120
 4532SOL     OW13981   3.262   1.969   2.288
 4532SOL    HW113982   3.238   1.932   2.198
 4532SOL    HW213983   3.361   1.985   2.292
 4533SOL     OW13984   2.111   3.647   3.103
 4533SOL    HW113985   2.168   3.582   3.153
 4533SOL    HW213986   2.095   3.614   3.010
 4534SOL     OW13987   2.802   3.560   2.766
 4534SOL    HW113988   2.882   3.503   2.787
 4534SOL    HW213989   2.753   3.520   2.689
 4535SOL     OW13990   3.409   2.084   3.591
 4535SOL    HW113991   3.404   2.121   3.683
 4535SOL    HW213992   3.337   2.015   3.579
 4536SOL     OW13993   2.476   1.984   1.979
 4536SOL    HW113994   2.574   1.962   1.986
 4536SOL    HW213995   2.445   1.967   1.886
 4537SOL     OW13996   2.643   2.126   3.611
 4537SOL    HW113997   2.710   2.065   3.654
 4537SOL    HW213998   2.570   2.145   3.676
 4538SOL     OW13999   2.750   3.376   3.057
 4538SOL    HW114000   2.727   3.351   2.963
 4538SOL    HW214001   2.811   3.307   3.096
 4539SOL     OW14002   3.213   2.452   3.295
 4539SOL    HW114003   3.241   2.409   3.380
 4539SOL    HW214004   3.238   2.548   3.296
 4540SOL     OW14005   2.665   3.264   2.786
 4540SOL    HW114006   2.755   3.278   2.744
 4540SOL    HW214007   2.594   3.266   2.715
 4541SOL     OW14008   2.784   2.365   2.761
 4541SOL    HW114009   2.759   2.356   2.665
 4541SOL    HW214010   2.832   2.283   2.792
 4542SOL     OW14011   2.401   1.926   2.374
 4542SOL    HW114012   2.320   1.927   2.432
 4542SOL    HW214013   2.404   2.009   2.319
 4543SOL     OW14014   3.296   3.050   1.903
 4543SOL    HW114015   3.328   2.974   1.960
 4543SOL    HW214016   3.204   3.077   1.933
 4544SOL     OW14017   2.797   2.098   2.342
 4544SOL    HW114018   2.749   2.139   2.264
 4544SOL    HW214019   2.896   2.096   2.323
 4545SOL     OW14020   2.938   2.545   3.326
 4545SOL    HW114021   2.858   2.484   3.329
 4545SOL    HW214022   3.019   2.492   3.302
 4546SOL     OW14023   3.089   3.432   2.655
 4546SOL    HW114024   3.110   3.506   2.590
 4546SOL    HW214025   3.157   3.432   2.728
 4547SOL     OW14026   2.321   3.014   2.603
 4547SOL    HW114027   2.250   2.987   2.668
 4547SOL    HW214028   2.295   2.986   2.510
 4548SOL     OW14029   3.133   3.659   2.453
 4548SOL    HW114030   3.177   3.723   2.389
 4548SOL    HW214031   3.083   3.711   2.523
 4549SOL     OW14032   2.894   2.411   1.878
 4549SOL    HW114033   2.853   2.493   1.839
 4549SOL    HW214034   2.958   2.437   1.951
 4550SOL     OW14035   1.940   2.418   3.248
 4550SOL    HW114036   2.032   2.417   3.207
 4550SOL    HW214037   1.934   2.492   3.315
 4551SOL     OW14038   2.423   2.084   3.009
 4551SOL    HW114039   2.461   2.000   3.046
 4551SOL    HW214040   2.335   2.103   3.053
 4552SOL     OW14041   2.728   2.316   2.504
 4552SOL    HW114042   2.696   2.388   2.442
 4552SOL    HW214043   2.752   2.235   2.451
 4553SOL     OW14044   2.879   1.901   2.615
 4553SOL    HW114045   2.807   1.906   2.546
 4553SOL    HW214046   2.855   1.832   2.684
 4554SOL     OW14047   3.291   3.035   2.729
 4554SOL    HW114048   3.236   2.951   2.722
 4554SOL    HW214049   3.317   3.064   2.637
 4555SOL     OW14050   3.328   2.452   2.854
 4555SOL    HW114051   3.298   2.357   2.861
 4555SOL    HW214052   3.401   2.468   2.920
 4556SOL     OW14053   3.719   2.695   2.239
 4556SOL    HW114054   3.761   2.631   2.303
 4556SOL    HW214055   3.681   2.644   2.161
 4557SOL     OW14056   2.350   3.247   2.036
 4557SOL    HW114057   2.263   3.232   2.083
 4557SOL    HW214058   2.333   3.273   1.941
 4558SOL     OW14059   3.526   3.142   2.519
 4558SOL    HW114060   3.625   3.150   2.533
 4558SOL    HW214061   3.481   3.226   2.550
 4559SOL     OW14062   3.252   2.437   1.940
 4559SOL    HW114063   3.198   2.416   2.021
 4559SOL    HW214064   3.343   2.396   1.949
 4560SOL     OW14065   3.616   3.085   3.450
 4560SOL    HW114066   3.707   3.046   3.437
 4560SOL    HW214067   3.624   3.181   3.474
 4561SOL     OW14068   2.926   3.209   3.202
 4561SOL    HW114069   2.846   3.186   3.257
 4561SOL    HW214070   3.009   3.183   3.251
 4562SOL     OW14071   3.454   3.491   3.487
 4562SOL    HW114072   3.481   3.525   3.397
 4562SOL    HW214073   3.533   3.453   3.533
 4563SOL     OW14074   2.973   3.057   2.962
 4563SOL    HW114075   2.933   3.101   3.043
 4563SOL    HW214076   2.932   3.094   2.879
 4564SOL     OW14077   3.500   2.961   2.941
 4564SOL    HW114078   3.505   3.042   3.000
 4564SOL    HW214079   3.414   2.963   2.890
 4565SOL     OW14080   2.777   1.951   3.264
 4565SOL    HW114081   2.802   1.931   3.169
 4565SOL    HW214082   2.849   2.007   3.306
 4566SOL     OW14083   2.842   2.978   3.581
 4566SOL    HW114084   2.743   2.984   3.591
 4566SOL    HW214085   2.865   2.898   3.525
 4567SOL     OW14086   2.567   2.912   2.230
 4567SOL    HW114087   2.553   2.919   2.329
 4567SOL    HW214088   2.651   2.861   2.212
 4568SOL     OW14089   2.272   2.675   3.113
 4568SOL    HW114090   2.358   2.687   3.163
 4568SOL    HW214091   2.230   2.588   3.140
 4569SOL     OW14092   3.136   2.248   3.124
 4569SOL    HW114093   3.157   2.322   3.188
 4569SOL    HW214094   3.047   2.265   3.081
 4570SOL     OW14095   1.926   3.426   3.193
 4570SOL    HW114096   1.880   3.508   3.159
 4570SOL    HW214097   2.024   3.445   3.202
 4571SOL     OW14098   2.229   2.962   2.363
 4571SOL    HW114099   2.222   3.045   2.307
 4571SOL    HW214100   2.233   2.882   2.303
 4572SOL     OW14101   2.428   2.399   2.727
 4572SOL    HW114102   2.440   2.465   2.653
 4572SOL    HW214103   2.474   2.433   2.810
 4573SOL     OW14104   3.114   3.210   2.250
 4573SOL    HW114105   3.164   3.287   2.290
 4573SOL    HW214106   3.019   3.212   2.282
 4574SOL     OW14107   3.134   3.307   3.004
 4574SOL    HW114108   3.181   3.320   3.091
 4574SOL    HW214109   3.068   3.233   3.013
 4575SOL     OW14110   3.444   2.501   2.334
 4575SOL    HW114111   3.413   2.562   2.407
 4575SOL    HW214112   3.494   2.553   2.265
 4576SOL     OW14113   2.216   3.372   3.191
 4576SOL    HW114114   2.195   3.328   3.104
 4576SOL    HW214115   2.313   3.398   3.194
 4577SOL     OW14116   2.264   2.613   3.460
 4577SOL    HW114117   2.332   2.668   3.413
 4577SOL    HW214118   2.304   2.525   3.487
 4578SOL     OW14119   3.449   2.641   3.532
 4578SOL    HW114120   3.357   2.679   3.527
 4578SOL    HW214121   3.509   2.688   3.467
 4579SOL     OW14122   2.875   1.967   3.632
 4579SOL    HW114123   2.881   2.052   3.580
 4579SOL    HW214124   2.907   1.891   3.575
 4580SOL     OW14125   2.366   1.912   3.602
 4580SOL    HW114126   2.324   1.855   3.532
 4580SOL    HW214127   2.300   1.981   3.634
 4581SOL     OW14128   2.435   2.732   2.891
 4581SOL    HW114129   2.479   2.821   2.882
 4581SOL    HW214130   2.372   2.732   2.968
 4582SOL     OW14131   3.222   2.724   2.907
 4582SOL    HW114132   3.147   2.724   2.841
 4582SOL    HW214133   3.259   2.632   2.916
 4583SOL     OW14134   3.071   2.387   2.137
 4583SOL    HW114135   3.084   2.303   2.191
 4583SOL    HW214136   3.042   2.461   2.197
 4584SOL     OW14137   1.899   3.172   3.144
 4584SOL    HW114138   1.952   3.123   3.212
 4584SOL    HW214139   1.921   3.270   3.149
 4585SOL     OW14140   2.594   2.496   2.926
 4585SOL    HW114141   2.653   2.470   2.850
 4585SOL    HW214142   2.566   2.592   2.915
 4586SOL     OW14143   3.590   2.797   3.716
 4586SOL    HW114144   3.544   2.790   3.627
 4586SOL    HW214145   3.528   2.841   3.782
 4587SOL     OW14146   3.484   2.229   2.236
 4587SOL    HW114147   3.486   2.153   2.300
 4587SOL    HW214148   3.436   2.306   2.276
 4588SOL     OW14149   2.885   2.628   2.828
 4588SOL    HW114150   2.900   2.649   2.924
 4588SOL    HW214151   2.855   2.533   2.819
 4589SOL     OW14152   2.842   3.435   3.562
 4589SOL    HW114153   2.822   3.479   3.474
 4589SOL    HW214154   2.881   3.344   3.546
 4590SOL     OW14155   3.721   3.380   3.467
 4590SOL    HW114156   3.735   3.407   3.372
 4590SOL    HW214157   3.804   3.402   3.520
 4591SOL     OW14158   2.212   2.760   3.666
 4591SOL    HW114159   2.288   2.804   3.714
 4591SOL    HW214160   2.247   2.713   3.584
 4592SOL     OW14161   3.402   2.136   1.987
 4592SOL    HW114162   3.341   2.061   2.010
 4592SOL    HW214163   3.424   2.188   2.070
 4593SOL     OW14164   3.165   2.700   1.904
 4593SOL    HW114165   3.199   2.607   1.919
 4593SOL    HW214166   3.183   2.727   1.809
 4594SOL     OW14167   2.930   3.195   2.711
 4594SOL    HW114168   2.937   3.111   2.656
 4594SOL    HW214169   2.992   3.264   2.675
 4595SOL     OW14170   2.181   2.672   2.811
 4595SOL    HW114171   2.274   2.708   2.816
 4595SOL    HW214172   2.175   2.587   2.863
 4596SOL     OW14173   3.000   2.242   3.540
 4596SOL    HW114174   2.955   2.305   3.604
 4596SOL    HW214175   3.093   2.273   3.523
 4597SOL     OW14176   3.022   2.069   3.339
 4597SOL    HW114177   3.022   2.133   3.416
 4597SOL    HW214178   3.050   2.117   3.256
 4598SOL     OW14179   1.870   3.188   2.062
 4598SOL    HW114180   1.777   3.209   2.031
 4598SOL    HW214181   1.880   3.089   2.075
 4599SOL     OW14182   1.950   3.663   2.789
 4599SOL    HW114183   1.908   3.577   2.762
 4599SOL    HW214184   2.044   3.666   2.755
 4600SOL     OW14185   2.366   3.430   2.772
 4600SOL    HW114186   2.432   3.504   2.781
 4600SOL    HW214187   2.410   3.351   2.730
 4601SOL     OW14188   2.864   2.658   3.100
 4601SOL    HW114189   2.905   2.626   3.186
 4601SOL    HW214190   2.768   2.631   3.097
 4602SOL     OW14191   1.902   2.406   2.976
 4602SOL    HW114192   1.987   2.373   2.935
 4602SOL    HW214193   1.915   2.421   3.074
 4603SOL     OW14194   3.231   2.812   3.522
 4603SOL    HW114195   3.270   2.901   3.542
 4603SOL    HW214196   3.241   2.792   3.425
 4604SOL     OW14197   2.677   2.434   2.187
 4604SOL    HW114198   2.684   2.345   2.141
 4604SOL    HW214199   2.583   2.468   2.179
 4605SOL     OW14200   3.519   2.466   3.068
 4605SOL    HW114201   3.481   2.397   3.130
 4605SOL    HW214202   3.601   2.430   3.024
 4606SOL     OW14203   2.114   3.426   3.606
 4606SOL    HW114204   2.084   3.483   3.682
 4606SOL    HW214205   2.107   3.329   3.632
 4607SOL     OW14206   2.792   3.540   3.327
 4607SOL    HW114207   2.768   3.522   3.232
 4607SOL    HW214208   2.822   3.634   3.337
 4608SOL     OW14209   2.021   2.999   3.328
 4608SOL    HW114210   2.043   2.938   3.404
 4608SOL    HW214211   2.031   2.950   3.242
 4609SOL     OW14212   3.209   2.921   3.096
 4609SOL    HW114213   3.233   2.858   3.022
 4609SOL    HW214214   3.119   2.961   3.078
 4610SOL     OW14215   3.164   2.717   2.171
 4610SOL    HW114216   3.078   2.686   2.213
 4610SOL    HW214217   3.160   2.703   2.072
 4611SOL     OW14218   3.621   3.609   3.016
 4611SOL    HW114219   3.682   3.639   2.943
 4611SOL    HW214220   3.583   3.520   2.994
 4612SOL     OW14221   3.114   3.593   2.990
 4612SOL    HW114222   3.198   3.598   2.936
 4612SOL    HW214223   3.091   3.497   3.008
 4613SOL     OW14224   1.945   3.120   2.884
 4613SOL    HW114225   1.940   3.119   2.984
 4613SOL    HW214226   1.862   3.079   2.846
 4614SOL     OW14227   2.550   3.524   3.578
 4614SOL    HW114228   2.494   3.605   3.587
 4614SOL    HW214229   2.602   3.528   3.492
 4615SOL     OW14230   3.588   1.997   2.385
 4615SOL    HW114231   3.661   1.980   2.318
 4615SOL    HW214232   3.557   1.910   2.423
 4616SOL     OW14233   3.250   3.435   2.339
 4616SOL    HW114234   3.317   3.447   2.265
 4616SOL    HW214235   3.210   3.524   2.362
 4617SOL     OW14236   1.992   3.656   3.713
 4617SOL    HW114237   1.951   3.582   3.766
 4617SOL    HW214238   2.056   3.707   3.771
 4618SOL     OW14239   3.142   2.789   2.534
 4618SOL    HW114240   3.202   2.708   2.536
 4618SOL    HW214241   3.182   2.858   2.474
 4619SOL     OW14242   2.692   3.135   3.284
 4619SOL    HW114243   2.687   3.168   3.379
 4619SOL    HW214244   2.606   3.154   3.238
 4620SOL     OW14245   2.534   3.478   2.016
 4620SOL    HW114246   2.543   3.488   1.917
 4620SOL    HW214247   2.494   3.389   2.037
 4621SOL     OW14248   3.512   3.582   3.256
 4621SOL    HW114249   3.565   3.592   3.172
 4621SOL    HW214250   3.485   3.672   3.290
 4622SOL     OW14251   3.703   2.037   2.825
 4622SOL    HW114252   3.742   1.952   2.789
 4622SOL    HW214253   3.605   2.039   2.806
 4623SOL     OW14254   3.056   3.474   1.893
 4623SOL    HW114255   3.062   3.381   1.930
 4623SOL    HW214256   2.997   3.474   1.813
 4624SOL     OW14257   2.684   2.864   3.234
 4624SOL    HW114258   2.724   2.863   3.142
 4624SOL    HW214259   2.694   2.956   3.274
 4625SOL     OW14260   2.778   2.772   2.153
 4625SOL    HW114261   2.841   2.810   2.085
 4625SOL    HW214262   2.818   2.689   2.192
 4626SOL     OW14263   3.366   3.469   1.906
 4626SOL    HW114264   3.274   3.506   1.913
 4626SOL    HW214265   3.404   3.489   1.816
 4627SOL     OW14266   2.234   3.150   3.352
 4627SOL    HW114267   2.221   3.243   3.318
 4627SOL    HW214268   2.150   3.098   3.339
 4628SOL     OW14269   3.476   3.154   3.151
 4628SOL    HW114270   3.536   3.157   3.231
 4628SOL    HW214271   3.401   3.218   3.164
 4629SOL     OW14272   2.901   2.960   2.558
 4629SOL    HW114273   2.831   2.913   2.612
 4629SOL    HW214274   2.960   2.892   2.515
 4630SOL     OW14275   2.876   2.098   2.833
 4630SOL    HW114276   2.868   2.062   2.740
 4630SOL    HW214277   2.874   2.022   2.898
 4631SOL     OW14278   2.452   3.349   2.353
 4631SOL    HW114279   2.494   3.291   2.283
 4631SOL    HW214280   2.408   3.428   2.309
 4632SOL     OW14281   3.571   2.247   3.243
 4632SOL    HW114282   3.644   2.316   3.247
 4632SOL    HW214283   3.599   2.172   3.184
 4633SOL     OW14284   2.117   3.210   2.152
 4633SOL    HW114285   2.021   3.211   2.125
 4633SOL    HW214286   2.129   3.263   2.236
 4634SOL     OW14287   1.967   2.875   3.588
 4634SOL    HW114288   1.890   2.842   3.642
 4634SOL    HW214289   2.052   2.845   3.630
 4635SOL     OW14290   2.534   2.065   3.351
 4635SOL    HW114291   2.624   2.049   3.311
 4635SOL    HW214292   2.542   2.070   3.450
 4636SOL     OW14293   1.937   2.207   1.895
 4636SOL    HW114294   1.845   2.179   1.866
 4636SOL    HW214295   1.968   2.284   1.839
 4637SOL     OW14296   3.302   2.718   3.260
 4637SOL    HW114297   3.245   2.770   3.197
 4637SOL    HW214298   3.398   2.730   3.236
 4638SOL     OW14299   1.934   2.028   2.180
 4638SOL    HW114300   1.917   2.111   2.126
 4638SOL    HW214301   2.024   1.991   2.158
 4639SOL     OW14302   3.045   3.197   1.981
 4639SOL    HW114303   2.946   3.186   1.983
 4639SOL    HW214304   3.079   3.212   2.074
 4640SOL     OW14305   2.475   2.704   3.293
 4640SOL    HW114306   2.531   2.785   3.276
 4640SOL    HW214307   2.534   2.624   3.296
 4641SOL     OW14308   3.355   3.629   2.821
 4641SOL    HW114309   3.388   3.693   2.752
 4641SOL    HW214310   3.421   3.623   2.896
 4642SOL     OW14311   2.578   2.427   3.570
 4642SOL    HW114312   2.597   2.492   3.644
 4642SOL    HW214313   2.638   2.347   3.579
 4643SOL     OW14314   3.312   3.082   3.495
 4643SOL    HW114315   3.303   3.072   3.594
 4643SOL    HW214316   3.408   3.075   3.469
 4644SOL     OW14317   2.252   3.603   3.422
 4644SOL    HW114318   2.161   3.644   3.420
 4644SOL    HW214319   2.245   3.509   3.454
 4645SOL     OW14320   3.536   2.745   3.116
 4645SOL    HW114321   3.509   2.656   3.079
 4645SOL    HW214322   3.537   2.813   3.043
 4646SOL     OW14323   3.087   2.187   2.311
 4646SOL    HW114324   3.152   2.113   2.300
 4646SOL    HW214325   3.107   2.237   2.395
 4647SOL     OW14326   2.456   2.607   2.514
 4647SOL    HW114327   2.506   2.692   2.495
 4647SOL    HW214328   2.368   2.609   2.466
 4648SOL     OW14329   3.639   2.204   3.504
 4648SOL    HW114330   3.622   2.235   3.410
 4648SOL    HW214331   3.555   2.167   3.542
 4649SOL     OW14332   3.592   2.796   3.379
 4649SOL    HW114333   3.630   2.887   3.394
 4649SOL    HW214334   3.584   2.779   3.280
 4650SOL     OW14335   2.721   3.236   1.878
 4650SOL    HW114336   2.675   3.251   1.966
 4650SOL    HW214337   2.765   3.321   1.848
 4651SOL     OW14338   2.523   3.652   2.815
 4651SOL    HW114339   2.477   3.740   2.802
 4651SOL    HW214340   2.622   3.664   2.808
 4652SOL     OW14341   2.721   2.818   2.723
 4652SOL    HW114342   2.775   2.749   2.771
 4652SOL    HW214343   2.689   2.887   2.789
 4653SOL     OW14344   2.945   2.846   1.949
 4653SOL    HW114345   2.922   2.899   1.867
 4653SOL    HW214346   3.026   2.790   1.930
 4654SOL     OW14347   3.723   3.431   2.713
 4654SOL    HW114348   3.652   3.419   2.643
 4654SOL    HW214349   3.724   3.352   2.773
 4655SOL     OW14350   2.083   3.176   3.706
 4655SOL    HW114351   2.018   3.103   3.685
 4655SOL    HW214352   2.087   3.190   3.804
 4656SOL     OW14353   1.941   3.102   2.515
 4656SOL    HW114354   1.940   3.055   2.603
 4656SOL    HW214355   2.023   3.074   2.464
 4657SOL     OW14356   2.534   3.253   3.486
 4657SOL    HW114357   2.456   3.203   3.524
 4657SOL    HW214358   2.531   3.348   3.517
 4658SOL     OW14359   3.686   2.054   3.089
 4658SOL    HW114360   3.682   1.964   3.133
 4658SOL    HW214361   3.689   2.043   2.990
 4659SOL     OW14362   3.567   3.349   2.966
 4659SOL    HW114363   3.474   3.324   2.939
 4659SOL    HW214364   3.593   3.299   3.048
 4660SOL     OW14365   2.674   3.448   2.549
 4660SOL    HW114366   2.706   3.458   2.455
 4660SOL    HW214367   2.595   3.386   2.551
 4661SOL     OW14368   3.286   2.076   2.974
 4661SOL    HW114369   3.338   2.011   3.029
 4661SOL    HW214370   3.237   2.139   3.035
 4662SOL     OW14371   2.863   1.896   3.016
 4662SOL    HW114372   2.800   1.824   2.985
 4662SOL    HW214373   2.956   1.860   3.016
 4663SOL     OW14374   2.632   3.192   2.163
 4663SOL    HW114375   2.586   3.105   2.180
 4663SOL    HW214376   2.723   3.189   2.204
 4664SOL     OW14377   2.480   3.429   3.146
 4664SOL    HW114378   2.475   3.511   3.203
 4664SOL    HW214379   2.569   3.426   3.101
 4665SOL     OW14380   3.214   1.914   2.030
 4665SOL    HW114381   3.249   1.873   1.946
 4665SOL    HW214382   3.124   1.876   2.050
 4666SOL     OW14383   3.162   2.315   2.553
 4666SOL    HW114384   3.103   2.395   2.557
 4666SOL    HW214385   3.177   2.280   2.646
 4667SOL     OW14386   3.455   2.083   2.744
 4667SOL    HW114387   3.371   2.082   2.798
 4667SOL    HW214388   3.457   2.166   2.688
 4668SOL     OW14389   1.901   2.939   2.162
 4668SOL    HW114390   2.000   2.928   2.153
 4668SOL    HW214391   1.861   2.853   2.194
 4669SOL     OW14392   2.737   3.508   2.199
 4669SOL    HW114393   2.660   3.473   2.145
 4669SOL    HW214394   2.705   3.579   2.261
 4670SOL     OW14395   2.092   2.490   3.837
 4670SOL    HW114396   1.999   2.488   3.874
 4670SOL    HW214397   2.093   2.451   3.745
 4671SOL     OW14398   1.881   2.230   4.371
 4671SOL    HW114399   1.799   2.273   4.410
 4671SOL    HW214400   1.853   2.157   4.308
 4672SOL     OW14401   2.431   3.137   4.889
 4672SOL    HW114402   2.338   3.130   4.852
 4672SOL    HW214403   2.442   3.226   4.933
 4673SOL     OW14404   3.417   3.373   4.427
 4673SOL    HW114405   3.360   3.357   4.508
 4673SOL    HW214406   3.358   3.383   4.347
 4674SOL     OW14407   2.997   2.565   4.441
 4674SOL    HW114408   3.054   2.643   4.416
 4674SOL    HW214409   2.937   2.591   4.517
 4675SOL     OW14410   3.617   2.469   3.955
 4675SOL    HW114411   3.605   2.456   3.856
 4675SOL    HW214412   3.587   2.388   4.004
 4676SOL     OW14413   2.630   3.006   4.747
 4676SOL    HW114414   2.552   3.023   4.807
 4676SOL    HW214415   2.664   3.093   4.711
 4677SOL     OW14416   2.547   2.874   4.389
 4677SOL    HW114417   2.616   2.858   4.459
 4677SOL    HW214418   2.474   2.931   4.427
 4678SOL     OW14419   2.548   3.023   5.527
 4678SOL    HW114420   2.608   3.102   5.541
 4678SOL    HW214421   2.462   3.054   5.486
 4679SOL     OW14422   2.197   3.297   4.785
 4679SOL    HW114423   2.119   3.266   4.732
 4679SOL    HW214424   2.255   3.355   4.728
 4680SOL     OW14425   3.322   3.367   5.063
 4680SOL    HW114426   3.346   3.461   5.089
 4680SOL    HW214427   3.306   3.313   5.145
 4681SOL     OW14428   3.465   2.309   4.461
 4681SOL    HW114429   3.391   2.355   4.411
 4681SOL    HW214430   3.516   2.377   4.514
 4682SOL     OW14431   2.093   3.575   4.207
 4682SOL    HW114432   2.127   3.652   4.261
 4682SOL    HW214433   2.137   3.575   4.117
 4683SOL     OW14434   2.989   3.203   5.414
 4683SOL    HW114435   3.036   3.203   5.502
 4683SOL    HW214436   2.941   3.116   5.403
 4684SOL     OW14437   2.092   3.296   4.262
 4684SOL    HW114438   2.066   3.392   4.262
 4684SOL    HW214439   2.021   3.242   4.307
 4685SOL     OW14440   2.102   2.953   4.610
 4685SOL    HW114441   2.116   2.869   4.662
 4685SOL    HW214442   2.047   3.017   4.665
 4686SOL     OW14443   2.482   3.648   5.163
 4686SOL    HW114444   2.390   3.631   5.198
 4686SOL    HW214445   2.510   3.740   5.189
 4687SOL     OW14446   2.468   2.826   3.847
 4687SOL    HW114447   2.475   2.910   3.793
 4687SOL    HW214448   2.514   2.839   3.935
 4688SOL     OW14449   3.456   1.976   5.204
 4688SOL    HW114450   3.438   2.043   5.132
 4688SOL    HW214451   3.453   2.022   5.293
 4689SOL     OW14452   1.984   2.505   4.287
 4689SOL    HW114453   1.939   2.417   4.304
 4689SOL    HW214454   1.983   2.559   4.371
 4690SOL     OW14455   3.704   3.629   4.083
 4690SOL    HW114456   3.758   3.600   4.163
 4690SOL    HW214457   3.734   3.719   4.054
 4691SOL     OW14458   1.889   3.458   3.841
 4691SOL    HW114459   1.870   3.362   3.862
 4691SOL    HW214460   1.856   3.516   3.916
 4692SOL     OW14461   3.551   2.784   4.336
 4692SOL    HW114462   3.646   2.755   4.344
 4692SOL    HW214463   3.543   2.849   4.261
 4693SOL     OW14464   3.503   2.970   4.156
 4693SOL    HW114465   3.589   2.972   4.104
 4693SOL    HW214466   3.517   3.017   4.244
 4694SOL     OW14467   2.475   3.227   4.450
 4694SOL    HW114468   2.426   3.140   4.459
 4694SOL    HW214469   2.452   3.270   4.363
 4695SOL     OW14470   3.155   3.090   5.147
 4695SOL    HW114471   3.192   3.017   5.089
 4695SOL    HW214472   3.207   3.095   5.232
 4696SOL     OW14473   2.671   1.866   4.226
 4696SOL    HW114474   2.711   1.957   4.217
 4696SOL    HW214475   2.571   1.874   4.232
 4697SOL     OW14476   2.059   2.838   4.988
 4697SOL    HW114477   2.148   2.793   4.974
 4697SOL    HW214478   1.986   2.773   4.969
 4698SOL     OW14479   3.387   2.861   3.914
 4698SOL    HW114480   3.324   2.785   3.927
 4698SOL    HW214481   3.435   2.879   4.000
 4699SOL     OW14482   3.049   3.654   5.340
 4699SOL    HW114483   3.073   3.714   5.264
 4699SOL    HW214484   3.056   3.559   5.310
 4700SOL     OW14485   3.328   3.279   4.677
 4700SOL    HW114486   3.269   3.285   4.757
 4700SOL    HW214487   3.313   3.191   4.631
 4701SOL     OW14488   3.529   3.576   4.296
 4701SOL    HW114489   3.488   3.553   4.208
 4701SOL    HW214490   3.511   3.502   4.361
 4702SOL     OW14491   2.460   2.591   3.994
 4702SOL    HW114492   2.484   2.660   3.926
 4702SOL    HW214493   2.382   2.624   4.048
 4703SOL     OW14494   3.143   2.207   4.668
 4703SOL    HW114495   3.057   2.157   4.655
 4703SOL    HW214496   3.205   2.153   4.724
 4704SOL     OW14497   3.438   3.524   4.031
 4704SOL    HW114498   3.527   3.570   4.034
 4704SOL    HW214499   3.417   3.500   3.936
 4705SOL     OW14500   3.256   2.331   5.398
 4705SOL    HW114501   3.236   2.374   5.486
 4705SOL    HW214502   3.334   2.269   5.407
 4706SOL     OW14503   2.853   2.272   4.966
 4706SOL    HW114504   2.776   2.306   5.020
 4706SOL    HW214505   2.819   2.221   4.887
 4707SOL     OW14506   2.903   2.563   4.153
 4707SOL    HW114507   2.929   2.559   4.249
 4707SOL    HW214508   2.818   2.512   4.139
 4708SOL     OW14509   1.938   2.673   4.513
 4708SOL    HW114510   2.037   2.661   4.522
 4708SOL    HW214511   1.914   2.768   4.534
 4709SOL     OW14512   1.992   3.683   5.295
 4709SOL    HW114513   1.982   3.668   5.394
 4709SOL    HW214514   1.906   3.719   5.259
 4710SOL     OW14515   2.727   2.210   3.919
 4710SOL    HW114516   2.786   2.273   3.870
 4710SOL    HW214517   2.746   2.116   3.890
 4711SOL     OW14518   3.581   2.447   5.555
 4711SOL    HW114519   3.555   2.536   5.519
 4711SOL    HW214520   3.579   2.379   5.482
 4712SOL     OW14521   3.224   3.006   4.269
 4712SOL    HW114522   3.307   2.977   4.221
 4712SOL    HW214523   3.175   3.073   4.213
 4713SOL     OW14524   2.870   3.318   4.201
 4713SOL    HW114525   2.824   3.390   4.149
 4713SOL    HW214526   2.866   3.338   4.299
 4714SOL     OW14527   2.213   3.663   4.577
 4714SOL    HW114528   2.263   3.577   4.583
 4714SOL    HW214529   2.278   3.740   4.574
 4715SOL     OW14530   3.657   2.928   4.597
 4715SOL    HW114531   3.595   2.913   4.521
 4715SOL    HW214532   3.605   2.939   4.682
 4716SOL     OW14533   3.089   3.412   5.230
 4716SOL    HW114534   3.095   3.335   5.294
 4716SOL    HW214535   3.037   3.386   5.150
 4717SOL     OW14536   2.183   2.805   3.966
 4717SOL    HW114537   2.265   2.844   3.924
 4717SOL    HW214538   2.156   2.723   3.917
 4718SOL     OW14539   3.320   2.597   4.452
 4718SOL    HW114540   3.315   2.532   4.527
 4718SOL    HW214541   3.400   2.656   4.465
 4719SOL     OW14542   2.323   3.128   5.451
 4719SOL    HW114543   2.273   3.129   5.365
 4719SOL    HW214544   2.260   3.110   5.527
 4720SOL     OW14545   2.973   3.638   3.961
 4720SOL    HW114546   2.913   3.576   4.011
 4720SOL    HW214547   3.004   3.594   3.876
 4721SOL     OW14548   2.064   2.147   5.222
 4721SOL    HW114549   1.984   2.207   5.209
 4721SOL    HW214550   2.054   2.098   5.308
 4722SOL     OW14551   3.494   3.239   3.805
 4722SOL    HW114552   3.462   3.333   3.795
 4722SOL    HW214553   3.418   3.176   3.793
 4723SOL     OW14554   2.326   3.605   4.047
 4723SOL    HW114555   2.359   3.644   4.133
 4723SOL    HW214556   2.402   3.598   3.982
 4724SOL     OW14557   3.262   1.969   4.150
 4724SOL    HW114558   3.238   1.932   4.060
 4724SOL    HW214559   3.361   1.985   4.154
 4725SOL     OW14560   2.111   3.647   4.965
 4725SOL    HW114561   2.168   3.582   5.015
 4725SOL    HW214562   2.095   3.614   4.872
 4726SOL     OW14563   2.802   3.560   4.628
 4726SOL    HW114564   2.882   3.503   4.649
 4726SOL    HW214565   2.753   3.520   4.551
 4727SOL     OW14566   2.244   2.562   4.204
 4727SOL    HW114567   2.289   2.472   4.201
 4727SOL    HW214568   2.150   2.551   4.237
 4728SOL     OW14569   3.409   2.084   5.453
 4728SOL    HW114570   3.404   2.121   5.545
 4728SOL    HW214571   3.337   2.015   5.441
 4729SOL     OW14572   2.476   1.984   3.841
 4729SOL    HW114573   2.574   1.962   3.848
 4729SOL    HW214574   2.445   1.967   3.748
 4730SOL     OW14575   2.750   3.376   4.919
 4730SOL    HW114576   2.727   3.351   4.825
 4730SOL    HW214577   2.811   3.307   4.958
 4731SOL     OW14578   3.213   2.452   5.157
 4731SOL    HW114579   3.241   2.409   5.242
 4731SOL    HW214580   3.238   2.548   5.158
 4732SOL     OW14581   2.665   3.264   4.648
 4732SOL    HW114582   2.755   3.278   4.606
 4732SOL    HW214583   2.594   3.266   4.577
 4733SOL     OW14584   2.784   2.365   4.623
 4733SOL    HW114585   2.759   2.356   4.527
 4733SOL    HW214586   2.832   2.283   4.654
 4734SOL     OW14587   2.401   1.926   4.236
 4734SOL    HW114588   2.320   1.927   4.294
 4734SOL    HW214589   2.404   2.009   4.181
 4735SOL     OW14590   3.296   3.050   3.765
 4735SOL    HW114591   3.328   2.974   3.822
 4735SOL    HW214592   3.204   3.077   3.795
 4736SOL     OW14593   2.159   1.897   3.895
 4736SOL    HW114594   2.208   1.981   3.874
 4736SOL    HW214595   2.221   1.832   3.940
 4737SOL     OW14596   2.797   2.098   4.204
 4737SOL    HW114597   2.749   2.139   4.126
 4737SOL    HW214598   2.896   2.096   4.185
 4738SOL     OW14599   3.089   3.432   4.517
 4738SOL    HW114600   3.110   3.506   4.452
 4738SOL    HW214601   3.157   3.432   4.590
 4739SOL     OW14602   2.321   3.014   4.465
 4739SOL    HW114603   2.250   2.987   4.530
 4739SOL    HW214604   2.295   2.986   4.372
 4740SOL     OW14605   3.133   3.659   4.315
 4740SOL    HW114606   3.177   3.723   4.251
 4740SOL    HW214607   3.083   3.711   4.385
 4741SOL     OW14608   2.894   2.411   3.740
 4741SOL    HW114609   2.853   2.493   3.701
 4741SOL    HW214610   2.958   2.437   3.813
 4742SOL     OW14611   2.728   2.316   4.366
 4742SOL    HW114612   2.696   2.388   4.304
 4742SOL    HW214613   2.752   2.235   4.313
 4743SOL     OW14614   2.879   1.901   4.477
 4743SOL    HW114615   2.807   1.906   4.408
 4743SOL    HW214616   2.855   1.832   4.546
 4744SOL     OW14617   3.291   3.035   4.591
 4744SOL    HW114618   3.236   2.951   4.584
 4744SOL    HW214619   3.317   3.064   4.499
 4745SOL     OW14620   3.328   2.452   4.716
 4745SOL    HW114621   3.298   2.357   4.723
 4745SOL    HW214622   3.401   2.468   4.782
 4746SOL     OW14623   3.719   2.695   4.101
 4746SOL    HW114624   3.761   2.631   4.165
 4746SOL    HW214625   3.681   2.644   4.023
 4747SOL     OW14626   2.350   3.247   3.898
 4747SOL    HW114627   2.263   3.232   3.945
 4747SOL    HW214628   2.333   3.273   3.803
 4748SOL     OW14629   3.526   3.142   4.381
 4748SOL    HW114630   3.625   3.150   4.395
 4748SOL    HW214631   3.481   3.226   4.412
 4749SOL     OW14632   3.252   2.437   3.802
 4749SOL    HW114633   3.198   2.416   3.883
 4749SOL    HW214634   3.343   2.396   3.811
 4750SOL     OW14635   3.616   3.085   5.312
 4750SOL    HW114636   3.707   3.046   5.299
 4750SOL    HW214637   3.624   3.181   5.336
 4751SOL     OW14638   2.926   3.209   5.064
 4751SOL    HW114639   2.846   3.186   5.119
 4751SOL    HW214640   3.009   3.183   5.113
 4752SOL     OW14641   3.454   3.491   5.349
 4752SOL    HW114642   3.481   3.525   5.259
 4752SOL    HW214643   3.533   3.453   5.395
 4753SOL     OW14644   2.973   3.057   4.824
 4753SOL    HW114645   2.933   3.101   4.905
 4753SOL    HW214646   2.932   3.094   4.741
 4754SOL     OW14647   3.500   2.961   4.803
 4754SOL    HW114648   3.505   3.042   4.862
 4754SOL    HW214649   3.414   2.963   4.752
 4755SOL     OW14650   2.567   2.912   4.092
 4755SOL    HW114651   2.553   2.919   4.191
 4755SOL    HW214652   2.651   2.861   4.074
 4756SOL     OW14653   2.272   2.675   4.975
 4756SOL    HW114654   2.358   2.687   5.025
 4756SOL    HW214655   2.230   2.588   5.002
 4757SOL     OW14656   3.136   2.248   4.986
 4757SOL    HW114657   3.157   2.322   5.050
 4757SOL    HW214658   3.047   2.265   4.943
 4758SOL     OW14659   1.926   3.426   5.055
 4758SOL    HW114660   1.880   3.508   5.021
 4758SOL    HW214661   2.024   3.445   5.064
 4759SOL     OW14662   2.229   2.962   4.225
 4759SOL    HW114663   2.222   3.045   4.169
 4759SOL    HW214664   2.233   2.882   4.165
 4760SOL     OW14665   3.114   3.210   4.112
 4760SOL    HW114666   3.164   3.287   4.152
 4760SOL    HW214667   3.019   3.212   4.144
 4761SOL     OW14668   3.134   3.307   4.866
 4761SOL    HW114669   3.181   3.320   4.953
 4761SOL    HW214670   3.068   3.233   4.875
 4762SOL     OW14671   3.444   2.501   4.196
 4762SOL    HW114672   3.413   2.562   4.269
 4762SOL    HW214673   3.494   2.553   4.127
 4763SOL     OW14674   2.216   3.372   5.053
 4763SOL    HW114675   2.195   3.328   4.966
 4763SOL    HW214676   2.313   3.398   5.056
 4764SOL     OW14677   3.449   2.641   5.394
 4764SOL    HW114678   3.357   2.679   5.389
 4764SOL    HW214679   3.509   2.688   5.329
 4765SOL     OW14680   2.435   2.732   4.753
 4765SOL    HW114681   2.479   2.821   4.744
 4765SOL    HW214682   2.372   2.732   4.830
 4766SOL     OW14683   3.222   2.724   4.769
 4766SOL    HW114684   3.147   2.724   4.703
 4766SOL    HW214685   3.259   2.632   4.778
 4767SOL     OW14686   3.071   2.387   3.999
 4767SOL    HW114687   3.084   2.303   4.053
 4767SOL    HW214688   3.042   2.461   4.059
 4768SOL     OW14689   1.899   3.172   5.006
 4768SOL    HW114690   1.952   3.123   5.074
 4768SOL    HW214691   1.921   3.270   5.011
 4769SOL     OW14692   2.594   2.496   4.788
 4769SOL    HW114693   2.653   2.470   4.712
 4769SOL    HW214694   2.566   2.592   4.777
 4770SOL     OW14695   3.590   2.797   5.578
 4770SOL    HW114696   3.544   2.790   5.489
 4770SOL    HW214697   3.528   2.841   5.644
 4771SOL     OW14698   2.169   1.925   4.342
 4771SOL    HW114699   2.158   2.019   4.375
 4771SOL    HW214700   2.164   1.862   4.419
 4772SOL     OW14701   3.484   2.229   4.098
 4772SOL    HW114702   3.486   2.153   4.162
 4772SOL    HW214703   3.436   2.306   4.138
 4773SOL     OW14704   2.885   2.628   4.690
 4773SOL    HW114705   2.900   2.649   4.786
 4773SOL    HW214706   2.855   2.533   4.681
 4774SOL     OW14707   2.842   3.435   5.424
 4774SOL    HW114708   2.822   3.479   5.336
 4774SOL    HW214709   2.881   3.344   5.408
 4775SOL     OW14710   3.721   3.380   5.329
 4775SOL    HW114711   3.735   3.407   5.234
 4775SOL    HW214712   3.804   3.402   5.382
 4776SOL     OW14713   3.402   2.136   3.849
 4776SOL    HW114714   3.341   2.061   3.872
 4776SOL    HW214715   3.424   2.188   3.932
 4777SOL     OW14716   3.165   2.700   3.766
 4777SOL    HW114717   3.199   2.607   3.781
 4777SOL    HW214718   3.183   2.727   3.671
 4778SOL     OW14719   2.930   3.195   4.573
 4778SOL    HW114720   2.937   3.111   4.518
 4778SOL    HW214721   2.992   3.264   4.537
 4779SOL     OW14722   2.181   2.672   4.673
 4779SOL    HW114723   2.274   2.708   4.678
 4779SOL    HW214724   2.175   2.587   4.725
 4780SOL     OW14725   1.870   3.188   3.924
 4780SOL    HW114726   1.777   3.209   3.893
 4780SOL    HW214727   1.880   3.089   3.937
 4781SOL     OW14728   1.950   3.663   4.651
 4781SOL    HW114729   1.908   3.577   4.624
 4781SOL    HW214730   2.044   3.666   4.617
 4782SOL     OW14731   2.366   3.430   4.634
 4782SOL    HW114732   2.432   3.504   4.643
 4782SOL    HW214733   2.410   3.351   4.592
 4783SOL     OW14734   2.864   2.658   4.962
 4783SOL    HW114735   2.905   2.626   5.048
 4783SOL    HW214736   2.768   2.631   4.959
 4784SOL     OW14737   1.902   2.406   4.838
 4784SOL    HW114738   1.987   2.373   4.797
 4784SOL    HW214739   1.915   2.421   4.936
 4785SOL     OW14740   3.231   2.812   5.384
 4785SOL    HW114741   3.270   2.901   5.404
 4785SOL    HW214742   3.241   2.792   5.287
 4786SOL     OW14743   2.677   2.434   4.049
 4786SOL    HW114744   2.684   2.345   4.003
 4786SOL    HW214745   2.583   2.468   4.041
 4787SOL     OW14746   3.519   2.466   4.930
 4787SOL    HW114747   3.481   2.397   4.992
 4787SOL    HW214748   3.601   2.430   4.886
 4788SOL     OW14749   2.114   3.426   5.468
 4788SOL    HW114750   2.084   3.483   5.544
 4788SOL    HW214751   2.107   3.329   5.494
 4789SOL     OW14752   2.533   2.326   4.993
 4789SOL    HW114753   2.499   2.237   4.963
 4789SOL    HW214754   2.559   2.380   4.913
 4790SOL     OW14755   2.792   3.540   5.189
 4790SOL    HW114756   2.768   3.522   5.094
 4790SOL    HW214757   2.822   3.634   5.199
 4791SOL     OW14758   3.209   2.921   4.958
 4791SOL    HW114759   3.233   2.858   4.884
 4791SOL    HW214760   3.119   2.961   4.940
 4792SOL     OW14761   3.164   2.717   4.033
 4792SOL    HW114762   3.078   2.686   4.075
 4792SOL    HW214763   3.160   2.703   3.934
 4793SOL     OW14764   3.621   3.609   4.878
 4793SOL    HW114765   3.682   3.639   4.805
 4793SOL    HW214766   3.583   3.520   4.856
 4794SOL     OW14767   3.114   3.593   4.852
 4794SOL    HW114768   3.198   3.598   4.798
 4794SOL    HW214769   3.091   3.497   4.870
 4795SOL     OW14770   1.945   3.120   4.746
 4795SOL    HW114771   1.940   3.119   4.846
 4795SOL    HW214772   1.862   3.079   4.708
 4796SOL     OW14773   2.550   3.524   5.440
 4796SOL    HW114774   2.494   3.605   5.449
 4796SOL    HW214775   2.602   3.528   5.354
 4797SOL     OW14776   3.588   1.997   4.247
 4797SOL    HW114777   3.661   1.980   4.180
 4797SOL    HW214778   3.557   1.910   4.285
 4798SOL     OW14779   3.250   3.435   4.201
 4798SOL    HW114780   3.317   3.447   4.127
 4798SOL    HW214781   3.210   3.524   4.224
 4799SOL     OW14782   1.992   3.656   5.575
 4799SOL    HW114783   1.951   3.582   5.628
 4799SOL    HW214784   2.056   3.707   5.633
 4800SOL     OW14785   3.142   2.789   4.396
 4800SOL    HW114786   3.202   2.708   4.398
 4800SOL    HW214787   3.182   2.858   4.336
 4801SOL     OW14788   2.692   3.135   5.146
 4801SOL    HW114789   2.687   3.168   5.241
 4801SOL    HW214790   2.606   3.154   5.100
 4802SOL     OW14791   2.534   3.478   3.878
 4802SOL    HW114792   2.543   3.488   3.779
 4802SOL    HW214793   2.494   3.389   3.899
 4803SOL     OW14794   3.512   3.582   5.118
 4803SOL    HW114795   3.565   3.592   5.034
 4803SOL    HW214796   3.485   3.672   5.152
 4804SOL     OW14797   3.703   2.037   4.687
 4804SOL    HW114798   3.742   1.952   4.651
 4804SOL    HW214799   3.605   2.039   4.668
 4805SOL     OW14800   3.056   3.474   3.755
 4805SOL    HW114801   3.062   3.381   3.792
 4805SOL    HW214802   2.997   3.474   3.675
 4806SOL     OW14803   2.778   2.772   4.015
 4806SOL    HW114804   2.841   2.810   3.947
 4806SOL    HW214805   2.818   2.689   4.054
 4807SOL     OW14806   3.366   3.469   3.768
 4807SOL    HW114807   3.274   3.506   3.775
 4807SOL    HW214808   3.404   3.489   3.678
 4808SOL     OW14809   2.234   3.150   5.214
 4808SOL    HW114810   2.221   3.243   5.180
 4808SOL    HW214811   2.150   3.098   5.201
 4809SOL     OW14812   3.476   3.154   5.013
 4809SOL    HW114813   3.536   3.157   5.093
 4809SOL    HW214814   3.401   3.218   5.026
 4810SOL     OW14815   2.901   2.960   4.420
 4810SOL    HW114816   2.831   2.913   4.474
 4810SOL    HW214817   2.960   2.892   4.377
 4811SOL     OW14818   2.876   2.098   4.695
 4811SOL    HW114819   2.868   2.062   4.602
 4811SOL    HW214820   2.874   2.022   4.760
 4812SOL     OW14821   2.452   3.349   4.215
 4812SOL    HW114822   2.494   3.291   4.145
 4812SOL    HW214823   2.408   3.428   4.171
 4813SOL     OW14824   3.571   2.247   5.105
 4813SOL    HW114825   3.644   2.316   5.109
 4813SOL    HW214826   3.599   2.172   5.046
 4814SOL     OW14827   2.117   3.210   4.014
 4814SOL    HW114828   2.021   3.211   3.987
 4814SOL    HW214829   2.129   3.263   4.098
 4815SOL     OW14830   1.937   2.207   3.757
 4815SOL    HW114831   1.845   2.179   3.728
 4815SOL    HW214832   1.968   2.284   3.701
 4816SOL     OW14833   3.302   2.718   5.122
 4816SOL    HW114834   3.245   2.770   5.059
 4816SOL    HW214835   3.398   2.730   5.098
 4817SOL     OW14836   1.934   2.028   4.042
 4817SOL    HW114837   1.917   2.111   3.988
 4817SOL    HW214838   2.024   1.991   4.020
 4818SOL     OW14839   3.045   3.197   3.843
 4818SOL    HW114840   2.946   3.186   3.845
 4818SOL    HW214841   3.079   3.212   3.936
 4819SOL     OW14842   3.355   3.629   4.683
 4819SOL    HW114843   3.388   3.693   4.614
 4819SOL    HW214844   3.421   3.623   4.758
 4820SOL     OW14845   3.312   3.082   5.357
 4820SOL    HW114846   3.303   3.072   5.456
 4820SOL    HW214847   3.408   3.075   5.331
 4821SOL     OW14848   2.252   3.603   5.284
 4821SOL    HW114849   2.161   3.644   5.282
 4821SOL    HW214850   2.245   3.509   5.316
 4822SOL     OW14851   3.536   2.745   4.978
 4822SOL    HW114852   3.509   2.656   4.941
 4822SOL    HW214853   3.537   2.813   4.905
 4823SOL     OW14854   3.087   2.187   4.173
 4823SOL    HW114855   3.152   2.113   4.162
 4823SOL    HW214856   3.107   2.237   4.257
 4824SOL     OW14857   2.456   2.607   4.376
 4824SOL    HW114858   2.506   2.692   4.357
 4824SOL    HW214859   2.368   2.609   4.328
 4825SOL     OW14860   3.639   2.204   5.366
 4825SOL    HW114861   3.622   2.235   5.272
 4825SOL    HW214862   3.555   2.167   5.404
 4826SOL     OW14863   3.592   2.796   5.241
 4826SOL    HW114864   3.630   2.887   5.256
 4826SOL    HW214865   3.584   2.779   5.142
 4827SOL     OW14866   2.721   3.236   3.740
 4827SOL    HW114867   2.675   3.251   3.828
 4827SOL    HW214868   2.765   3.321   3.710
 4828SOL     OW14869   2.523   3.652   4.677
 4828SOL    HW114870   2.477   3.740   4.664
 4828SOL    HW214871   2.622   3.664   4.670
 4829SOL     OW14872   2.721   2.818   4.585
 4829SOL    HW114873   2.775   2.749   4.633
 4829SOL    HW214874   2.689   2.887   4.651
 4830SOL     OW14875   2.945   2.846   3.811
 4830SOL    HW114876   2.922   2.899   3.729
 4830SOL    HW214877   3.026   2.790   3.792
 4831SOL     OW14878   3.723   3.431   4.575
 4831SOL    HW114879   3.652   3.419   4.505
 4831SOL    HW214880   3.724   3.352   4.635
 4832SOL     OW14881   2.083   3.176   5.568
 4832SOL    HW114882   2.018   3.103   5.547
 4832SOL    HW214883   2.087   3.190   5.666
 4833SOL     OW14884   1.941   3.102   4.377
 4833SOL    HW114885   1.940   3.055   4.465
 4833SOL    HW214886   2.023   3.074   4.326
 4834SOL     OW14887   2.534   3.253   5.348
 4834SOL    HW114888   2.456   3.203   5.386
 4834SOL    HW214889   2.531   3.348   5.379
 4835SOL     OW14890   3.686   2.054   4.951
 4835SOL    HW114891   3.682   1.964   4.995
 4835SOL    HW214892   3.689   2.043   4.852
 4836SOL     OW14893   3.567   3.349   4.828
 4836SOL    HW114894   3.474   3.324   4.801
 4836SOL    HW214895   3.593   3.299   4.910
 4837SOL     OW14896   2.674   3.448   4.411
 4837SOL    HW114897   2.706   3.458   4.317
 4837SOL    HW214898   2.595   3.386   4.413
 4838SOL     OW14899   3.286   2.076   4.836
 4838SOL    HW114900   3.338   2.011   4.891
 4838SOL    HW214901   3.237   2.139   4.897
 4839SOL     OW14902   2.863   1.896   4.878
 4839SOL    HW114903   2.800   1.824   4.847
 4839SOL    HW214904   2.956   1.860   4.878
 4840SOL     OW14905   2.632   3.192   4.025
 4840SOL    HW114906   2.586   3.105   4.042
 4840SOL    HW214907   2.723   3.189   4.066
 4841SOL     OW14908   2.480   3.429   5.008
 4841SOL    HW114909   2.475   3.511   5.065
 4841SOL    HW214910   2.569   3.426   4.963
 4842SOL     OW14911   3.214   1.914   3.892
 4842SOL    HW114912   3.249   1.873   3.808
 4842SOL    HW214913   3.124   1.876   3.912
 4843SOL     OW14914   3.162   2.315   4.415
 4843SOL    HW114915   3.103   2.395   4.419
 4843SOL    HW214916   3.177   2.280   4.508
 4844SOL     OW14917   3.455   2.083   4.606
 4844SOL    HW114918   3.371   2.082   4.660
 4844SOL    HW214919   3.457   2.166   4.550
 4845SOL     OW14920   1.901   2.939   4.024
 4845SOL    HW114921   2.000   2.928   4.015
 4845SOL    HW214922   1.861   2.853   4.056
 4846SOL     OW14923   2.737   3.508   4.061
 4846SOL    HW114924   2.660   3.473   4.007
 4846SOL    HW214925   2.705   3.579   4.123
 4847SOL     OW14926   2.431   3.137   6.751
 4847SOL    HW114927   2.338   3.130   6.714
 4847SOL    HW214928   2.442   3.226   6.795
 4848SOL     OW14929   3.417   3.373   6.289
 4848SOL    HW114930   3.360   3.357   6.370
 4848SOL    HW214931   3.358   3.383   6.209
 4849SOL     OW14932   2.997   2.565   6.303
 4849SOL    HW114933   3.054   2.643   6.278
 4849SOL    HW214934   2.937   2.591   6.379
 4850SOL     OW14935   3.617   2.469   5.817
 4850SOL    HW114936   3.605   2.456   5.718
 4850SOL    HW214937   3.587   2.388   5.866
 4851SOL     OW14938   2.630   3.006   6.609
 4851SOL    HW114939   2.552   3.023   6.669
 4851SOL    HW214940   2.664   3.093   6.573
 4852SOL     OW14941   2.712   2.660   7.409
 4852SOL    HW114942   2.708   2.736   7.474
 4852SOL    HW214943   2.734   2.696   7.318
 4853SOL     OW14944   2.547   2.874   6.251
 4853SOL    HW114945   2.616   2.858   6.321
 4853SOL    HW214946   2.474   2.931   6.289
 4854SOL     OW14947   2.548   3.023   7.389
 4854SOL    HW114948   2.608   3.102   7.403
 4854SOL    HW214949   2.462   3.054   7.348
 4855SOL     OW14950   2.197   3.297   6.647
 4855SOL    HW114951   2.119   3.266   6.594
 4855SOL    HW214952   2.255   3.355   6.590
 4856SOL     OW14953   3.322   3.367   6.925
 4856SOL    HW114954   3.346   3.461   6.951
 4856SOL    HW214955   3.306   3.313   7.007
 4857SOL     OW14956   3.465   2.309   6.323
 4857SOL    HW114957   3.391   2.355   6.273
 4857SOL    HW214958   3.516   2.377   6.376
 4858SOL     OW14959   2.093   3.575   6.069
 4858SOL    HW114960   2.127   3.652   6.123
 4858SOL    HW214961   2.137   3.575   5.979
 4859SOL     OW14962   2.989   3.203   7.276
 4859SOL    HW114963   3.036   3.203   7.364
 4859SOL    HW214964   2.941   3.116   7.265
 4860SOL     OW14965   2.092   3.296   6.124
 4860SOL    HW114966   2.066   3.392   6.124
 4860SOL    HW214967   2.021   3.242   6.169
 4861SOL     OW14968   2.102   2.953   6.472
 4861SOL    HW114969   2.116   2.869   6.524
 4861SOL    HW214970   2.047   3.017   6.527
 4862SOL     OW14971   2.482   3.648   7.025
 4862SOL    HW114972   2.390   3.631   7.060
 4862SOL    HW214973   2.510   3.740   7.051
 4863SOL     OW14974   3.456   1.976   7.066
 4863SOL    HW114975   3.438   2.043   6.994
 4863SOL    HW214976   3.453   2.022   7.155
 4864SOL     OW14977   3.704   3.629   5.945
 4864SOL    HW114978   3.758   3.600   6.025
 4864SOL    HW214979   3.734   3.719   5.916
 4865SOL     OW14980   1.889   3.458   5.703
 4865SOL    HW114981   1.870   3.362   5.724
 4865SOL    HW214982   1.856   3.516   5.778
 4866SOL     OW14983   3.551   2.784   6.198
 4866SOL    HW114984   3.646   2.755   6.206
 4866SOL    HW214985   3.543   2.849   6.123
 4867SOL     OW14986   3.503   2.970   6.018
 4867SOL    HW114987   3.589   2.972   5.966
 4867SOL    HW214988   3.517   3.017   6.106
 4868SOL     OW14989   1.975   2.599   7.183
 4868SOL    HW114990   2.063   2.586   7.228
 4868SOL    HW214991   1.962   2.696   7.161
 4869SOL     OW14992   2.475   3.227   6.312
 4869SOL    HW114993   2.426   3.140   6.321
 4869SOL    HW214994   2.452   3.270   6.225
 4870SOL     OW14995   3.155   3.090   7.009
 4870SOL    HW114996   3.192   3.017   6.951
 4870SOL    HW214997   3.207   3.095   7.094
 4871SOL     OW14998   2.059   2.838   6.850
 4871SOL    HW114999   2.148   2.793   6.836
 4871SOL    HW215000   1.986   2.773   6.831
 4872SOL     OW15001   3.387   2.861   5.776
 4872SOL    HW115002   3.324   2.785   5.789
 4872SOL    HW215003   3.435   2.879   5.862
 4873SOL     OW15004   3.049   3.654   7.202
 4873SOL    HW115005   3.073   3.714   7.126
 4873SOL    HW215006   3.056   3.559   7.172
 4874SOL     OW15007   3.328   3.279   6.539
 4874SOL    HW115008   3.269   3.285   6.619
 4874SOL    HW215009   3.313   3.191   6.493
 4875SOL     OW15010   3.529   3.576   6.158
 4875SOL    HW115011   3.488   3.553   6.070
 4875SOL    HW215012   3.511   3.502   6.223
 4876SOL     OW15013   3.143   2.207   6.530
 4876SOL    HW115014   3.057   2.157   6.517
 4876SOL    HW215015   3.205   2.153   6.586
 4877SOL     OW15016   3.438   3.524   5.893
 4877SOL    HW115017   3.527   3.570   5.896
 4877SOL    HW215018   3.417   3.500   5.798
 4878SOL     OW15019   2.669   2.467   7.051
 4878SOL    HW115020   2.622   2.464   7.140
 4878SOL    HW215021   2.618   2.412   6.985
 4879SOL     OW15022   3.256   2.331   7.260
 4879SOL    HW115023   3.236   2.374   7.348
 4879SOL    HW215024   3.334   2.269   7.269
 4880SOL     OW15025   2.835   2.752   7.158
 4880SOL    HW115026   2.881   2.668   7.129
 4880SOL    HW215027   2.779   2.786   7.083
 4881SOL     OW15028   2.853   2.272   6.828
 4881SOL    HW115029   2.776   2.306   6.882
 4881SOL    HW215030   2.819   2.221   6.749
 4882SOL     OW15031   1.938   2.673   6.375
 4882SOL    HW115032   2.037   2.661   6.384
 4882SOL    HW215033   1.914   2.768   6.396
 4883SOL     OW15034   1.992   3.683   7.157
 4883SOL    HW115035   1.982   3.668   7.256
 4883SOL    HW215036   1.906   3.719   7.121
 4884SOL     OW15037   3.581   2.447   7.417
 4884SOL    HW115038   3.555   2.536   7.381
 4884SOL    HW215039   3.579   2.379   7.344
 4885SOL     OW15040   3.224   3.006   6.131
 4885SOL    HW115041   3.307   2.977   6.083
 4885SOL    HW215042   3.175   3.073   6.075
 4886SOL     OW15043   2.412   2.058   6.471
 4886SOL    HW115044   2.407   2.053   6.571
 4886SOL    HW215045   2.414   2.154   6.442
 4887SOL     OW15046   2.870   3.318   6.063
 4887SOL    HW115047   2.824   3.390   6.011
 4887SOL    HW215048   2.866   3.338   6.161
 4888SOL     OW15049   2.213   3.663   6.439
 4888SOL    HW115050   2.263   3.577   6.445
 4888SOL    HW215051   2.278   3.740   6.436
 4889SOL     OW15052   3.657   2.928   6.459
 4889SOL    HW115053   3.595   2.913   6.383
 4889SOL    HW215054   3.605   2.939   6.544
 4890SOL     OW15055   3.089   3.412   7.092
 4890SOL    HW115056   3.095   3.335   7.156
 4890SOL    HW215057   3.037   3.386   7.012
 4891SOL     OW15058   3.320   2.597   6.314
 4891SOL    HW115059   3.315   2.532   6.389
 4891SOL    HW215060   3.400   2.656   6.327
 4892SOL     OW15061   2.323   3.128   7.313
 4892SOL    HW115062   2.273   3.129   7.227
 4892SOL    HW215063   2.260   3.110   7.389
 4893SOL     OW15064   2.973   3.638   5.823
 4893SOL    HW115065   2.913   3.576   5.873
 4893SOL    HW215066   3.004   3.594   5.738
 4894SOL     OW15067   3.494   3.239   5.667
 4894SOL    HW115068   3.462   3.333   5.657
 4894SOL    HW215069   3.418   3.176   5.655
 4895SOL     OW15070   2.326   3.605   5.909
 4895SOL    HW115071   2.359   3.644   5.995
 4895SOL    HW215072   2.402   3.598   5.844
 4896SOL     OW15073   3.262   1.969   6.012
 4896SOL    HW115074   3.238   1.932   5.922
 4896SOL    HW215075   3.361   1.985   6.016
 4897SOL     OW15076   2.111   3.647   6.827
 4897SOL    HW115077   2.168   3.582   6.877
 4897SOL    HW215078   2.095   3.614   6.734
 4898SOL     OW15079   2.802   3.560   6.490
 4898SOL    HW115080   2.882   3.503   6.511
 4898SOL    HW215081   2.753   3.520   6.413
 4899SOL     OW15082   3.409   2.084   7.315
 4899SOL    HW115083   3.404   2.121   7.407
 4899SOL    HW215084   3.337   2.015   7.303
 4900SOL     OW15085   2.643   2.126   7.335
 4900SOL    HW115086   2.710   2.065   7.378
 4900SOL    HW215087   2.570   2.145   7.400
 4901SOL     OW15088   2.750   3.376   6.781
 4901SOL    HW115089   2.727   3.351   6.687
 4901SOL    HW215090   2.811   3.307   6.820
 4902SOL     OW15091   3.213   2.452   7.019
 4902SOL    HW115092   3.241   2.409   7.104
 4902SOL    HW215093   3.238   2.548   7.020
 4903SOL     OW15094   2.665   3.264   6.510
 4903SOL    HW115095   2.755   3.278   6.468
 4903SOL    HW215096   2.594   3.266   6.439
 4904SOL     OW15097   2.784   2.365   6.485
 4904SOL    HW115098   2.759   2.356   6.389
 4904SOL    HW215099   2.832   2.283   6.516
 4905SOL     OW15100   3.296   3.050   5.627
 4905SOL    HW115101   3.328   2.974   5.684
 4905SOL    HW215102   3.204   3.077   5.657
 4906SOL     OW15103   2.797   2.098   6.066
 4906SOL    HW115104   2.749   2.139   5.988
 4906SOL    HW215105   2.896   2.096   6.047
 4907SOL     OW15106   2.938   2.545   7.050
 4907SOL    HW115107   2.858   2.484   7.053
 4907SOL    HW215108   3.019   2.492   7.026
 4908SOL     OW15109   3.089   3.432   6.379
 4908SOL    HW115110   3.110   3.506   6.314
 4908SOL    HW215111   3.157   3.432   6.452
 4909SOL     OW15112   2.321   3.014   6.327
 4909SOL    HW115113   2.250   2.987   6.392
 4909SOL    HW215114   2.295   2.986   6.234
 4910SOL     OW15115   3.133   3.659   6.177
 4910SOL    HW115116   3.177   3.723   6.113
 4910SOL    HW215117   3.083   3.711   6.247
 4911SOL     OW15118   1.940   2.418   6.972
 4911SOL    HW115119   2.032   2.417   6.931
 4911SOL    HW215120   1.934   2.492   7.039
 4912SOL     OW15121   2.423   2.084   6.733
 4912SOL    HW115122   2.461   2.000   6.770
 4912SOL    HW215123   2.335   2.103   6.777
 4913SOL     OW15124   2.728   2.316   6.228
 4913SOL    HW115125   2.696   2.388   6.166
 4913SOL    HW215126   2.752   2.235   6.175
 4914SOL     OW15127   2.879   1.901   6.339
 4914SOL    HW115128   2.807   1.906   6.270
 4914SOL    HW215129   2.855   1.832   6.408
 4915SOL     OW15130   3.291   3.035   6.453
 4915SOL    HW115131   3.236   2.951   6.446
 4915SOL    HW215132   3.317   3.064   6.361
 4916SOL     OW15133   3.328   2.452   6.578
 4916SOL    HW115134   3.298   2.357   6.585
 4916SOL    HW215135   3.401   2.468   6.644
 4917SOL     OW15136   3.719   2.695   5.963
 4917SOL    HW115137   3.761   2.631   6.027
 4917SOL    HW215138   3.681   2.644   5.885
 4918SOL     OW15139   2.350   3.247   5.760
 4918SOL    HW115140   2.263   3.232   5.807
 4918SOL    HW215141   2.333   3.273   5.665
 4919SOL     OW15142   3.526   3.142   6.243
 4919SOL    HW115143   3.625   3.150   6.257
 4919SOL    HW215144   3.481   3.226   6.274
 4920SOL     OW15145   3.252   2.437   5.664
 4920SOL    HW115146   3.198   2.416   5.745
 4920SOL    HW215147   3.343   2.396   5.673
 4921SOL     OW15148   3.616   3.085   7.174
 4921SOL    HW115149   3.707   3.046   7.161
 4921SOL    HW215150   3.624   3.181   7.198
 4922SOL     OW15151   2.926   3.209   6.926
 4922SOL    HW115152   2.846   3.186   6.981
 4922SOL    HW215153   3.009   3.183   6.975
 4923SOL     OW15154   3.454   3.491   7.211
 4923SOL    HW115155   3.481   3.525   7.121
 4923SOL    HW215156   3.533   3.453   7.257
 4924SOL     OW15157   2.973   3.057   6.686
 4924SOL    HW115158   2.933   3.101   6.767
 4924SOL    HW215159   2.932   3.094   6.603
 4925SOL     OW15160   3.500   2.961   6.665
 4925SOL    HW115161   3.505   3.042   6.724
 4925SOL    HW215162   3.414   2.963   6.614
 4926SOL     OW15163   2.777   1.951   6.988
 4926SOL    HW115164   2.802   1.931   6.893
 4926SOL    HW215165   2.849   2.007   7.030
 4927SOL     OW15166   2.842   2.978   7.305
 4927SOL    HW115167   2.743   2.984   7.315
 4927SOL    HW215168   2.865   2.898   7.249
 4928SOL     OW15169   2.567   2.912   5.954
 4928SOL    HW115170   2.553   2.919   6.053
 4928SOL    HW215171   2.651   2.861   5.936
 4929SOL     OW15172   2.272   2.675   6.837
 4929SOL    HW115173   2.358   2.687   6.887
 4929SOL    HW215174   2.230   2.588   6.864
 4930SOL     OW15175   3.136   2.248   6.848
 4930SOL    HW115176   3.157   2.322   6.912
 4930SOL    HW215177   3.047   2.265   6.805
 4931SOL     OW15178   1.926   3.426   6.917
 4931SOL    HW115179   1.880   3.508   6.883
 4931SOL    HW215180   2.024   3.445   6.926
 4932SOL     OW15181   2.229   2.962   6.087
 4932SOL    HW115182   2.222   3.045   6.031
 4932SOL    HW215183   2.233   2.882   6.027
 4933SOL     OW15184   2.428   2.399   6.451
 4933SOL    HW115185   2.440   2.465   6.377
 4933SOL    HW215186   2.474   2.433   6.534
 4934SOL     OW15187   3.114   3.210   5.974
 4934SOL    HW115188   3.164   3.287   6.014
 4934SOL    HW215189   3.019   3.212   6.006
 4935SOL     OW15190   3.134   3.307   6.728
 4935SOL    HW115191   3.181   3.320   6.815
 4935SOL    HW215192   3.068   3.233   6.737
 4936SOL     OW15193   3.444   2.501   6.058
 4936SOL    HW115194   3.413   2.562   6.131
 4936SOL    HW215195   3.494   2.553   5.989
 4937SOL     OW15196   2.216   3.372   6.915
 4937SOL    HW115197   2.195   3.328   6.828
 4937SOL    HW215198   2.313   3.398   6.918
 4938SOL     OW15199   2.264   2.613   7.184
 4938SOL    HW115200   2.332   2.668   7.137
 4938SOL    HW215201   2.304   2.525   7.211
 4939SOL     OW15202   3.449   2.641   7.256
 4939SOL    HW115203   3.357   2.679   7.251
 4939SOL    HW215204   3.509   2.688   7.191
 4940SOL     OW15205   2.875   1.967   7.356
 4940SOL    HW115206   2.881   2.052   7.304
 4940SOL    HW215207   2.907   1.891   7.299
 4941SOL     OW15208   2.366   1.912   7.326
 4941SOL    HW115209   2.324   1.855   7.256
 4941SOL    HW215210   2.300   1.981   7.358
 4942SOL     OW15211   2.435   2.732   6.615
 4942SOL    HW115212   2.479   2.821   6.606
 4942SOL    HW215213   2.372   2.732   6.692
 4943SOL     OW15214   3.222   2.724   6.631
 4943SOL    HW115215   3.147   2.724   6.565
 4943SOL    HW215216   3.259   2.632   6.640
 4944SOL     OW15217   1.899   3.172   6.868
 4944SOL    HW115218   1.952   3.123   6.936
 4944SOL    HW215219   1.921   3.270   6.873
 4945SOL     OW15220   2.594   2.496   6.650
 4945SOL    HW115221   2.653   2.470   6.574
 4945SOL    HW215222   2.566   2.592   6.639
 4946SOL     OW15223   3.590   2.797   7.440
 4946SOL    HW115224   3.544   2.790   7.351
 4946SOL    HW215225   3.528   2.841   7.506
 4947SOL     OW15226   3.484   2.229   5.960
 4947SOL    HW115227   3.486   2.153   6.024
 4947SOL    HW215228   3.436   2.306   6.000
 4948SOL     OW15229   2.885   2.628   6.552
 4948SOL    HW115230   2.900   2.649   6.648
 4948SOL    HW215231   2.855   2.533   6.543
 4949SOL     OW15232   2.842   3.435   7.286
 4949SOL    HW115233   2.822   3.479   7.198
 4949SOL    HW215234   2.881   3.344   7.270
 4950SOL     OW15235   3.721   3.380   7.191
 4950SOL    HW115236   3.735   3.407   7.096
 4950SOL    HW215237   3.804   3.402   7.244
 4951SOL     OW15238   2.212   2.760   7.390
 4951SOL    HW115239   2.288   2.804   7.438
 4951SOL    HW215240   2.247   2.713   7.308
 4952SOL     OW15241   3.402   2.136   5.711
 4952SOL    HW115242   3.341   2.061   5.734
 4952SOL    HW215243   3.424   2.188   5.794
 4953SOL     OW15244   3.165   2.700   5.628
 4953SOL    HW115245   3.199   2.607   5.643
 4953SOL    HW215246   3.183   2.727   5.533
 4954SOL     OW15247   2.930   3.195   6.435
 4954SOL    HW115248   2.937   3.111   6.380
 4954SOL    HW215249   2.992   3.264   6.399
 4955SOL     OW15250   2.181   2.672   6.535
 4955SOL    HW115251   2.274   2.708   6.540
 4955SOL    HW215252   2.175   2.587   6.587
 4956SOL     OW15253   3.000   2.242   7.264
 4956SOL    HW115254   2.955   2.305   7.328
 4956SOL    HW215255   3.093   2.273   7.247
 4957SOL     OW15256   3.022   2.069   7.063
 4957SOL    HW115257   3.022   2.133   7.140
 4957SOL    HW215258   3.050   2.117   6.980
 4958SOL     OW15259   1.870   3.188   5.786
 4958SOL    HW115260   1.777   3.209   5.755
 4958SOL    HW215261   1.880   3.089   5.799
 4959SOL     OW15262   1.950   3.663   6.513
 4959SOL    HW115263   1.908   3.577   6.486
 4959SOL    HW215264   2.044   3.666   6.479
 4960SOL     OW15265   2.366   3.430   6.496
 4960SOL    HW115266   2.432   3.504   6.505
 4960SOL    HW215267   2.410   3.351   6.454
 4961SOL     OW15268   2.864   2.658   6.824
 4961SOL    HW115269   2.905   2.626   6.910
 4961SOL    HW215270   2.768   2.631   6.821
 4962SOL     OW15271   1.902   2.406   6.700
 4962SOL    HW115272   1.987   2.373   6.659
 4962SOL    HW215273   1.915   2.421   6.798
 4963SOL     OW15274   3.231   2.812   7.246
 4963SOL    HW115275   3.270   2.901   7.266
 4963SOL    HW215276   3.241   2.792   7.149
 4964SOL     OW15277   3.519   2.466   6.792
 4964SOL    HW115278   3.481   2.397   6.854
 4964SOL    HW215279   3.601   2.430   6.748
 4965SOL     OW15280   2.114   3.426   7.330
 4965SOL    HW115281   2.084   3.483   7.406
 4965SOL    HW215282   2.107   3.329   7.356
 4966SOL     OW15283   2.792   3.540   7.051
 4966SOL    HW115284   2.768   3.522   6.956
 4966SOL    HW215285   2.822   3.634   7.061
 4967SOL     OW15286   2.021   2.999   7.052
 4967SOL    HW115287   2.043   2.938   7.128
 4967SOL    HW215288   2.031   2.950   6.966
 4968SOL     OW15289   3.209   2.921   6.820
 4968SOL    HW115290   3.233   2.858   6.746
 4968SOL    HW215291   3.119   2.961   6.802
 4969SOL     OW15292   3.164   2.717   5.895
 4969SOL    HW115293   3.078   2.686   5.937
 4969SOL    HW215294   3.160   2.703   5.796
 4970SOL     OW15295   3.621   3.609   6.740
 4970SOL    HW115296   3.682   3.639   6.667
 4970SOL    HW215297   3.583   3.520   6.718
 4971SOL     OW15298   3.114   3.593   6.714
 4971SOL    HW115299   3.198   3.598   6.660
 4971SOL    HW215300   3.091   3.497   6.732
 4972SOL     OW15301   1.945   3.120   6.608
 4972SOL    HW115302   1.940   3.119   6.708
 4972SOL    HW215303   1.862   3.079   6.570
 4973SOL     OW15304   2.550   3.524   7.302
 4973SOL    HW115305   2.494   3.605   7.311
 4973SOL    HW215306   2.602   3.528   7.216
 4974SOL     OW15307   3.588   1.997   6.109
 4974SOL    HW115308   3.661   1.980   6.042
 4974SOL    HW215309   3.557   1.910   6.147
 4975SOL     OW15310   3.250   3.435   6.063
 4975SOL    HW115311   3.317   3.447   5.989
 4975SOL    HW215312   3.210   3.524   6.086
 4976SOL     OW15313   1.992   3.656   7.437
 4976SOL    HW115314   1.951   3.582   7.490
 4976SOL    HW215315   2.056   3.707   7.495
 4977SOL     OW15316   3.142   2.789   6.258
 4977SOL    HW115317   3.202   2.708   6.260
 4977SOL    HW215318   3.182   2.858   6.198
 4978SOL     OW15319   2.692   3.135   7.008
 4978SOL    HW115320   2.687   3.168   7.103
 4978SOL    HW215321   2.606   3.154   6.962
 4979SOL     OW15322   2.534   3.478   5.740
 4979SOL    HW115323   2.543   3.488   5.641
 4979SOL    HW215324   2.494   3.389   5.761
 4980SOL     OW15325   3.512   3.582   6.980
 4980SOL    HW115326   3.565   3.592   6.896
 4980SOL    HW215327   3.485   3.672   7.014
 4981SOL     OW15328   3.703   2.037   6.549
 4981SOL    HW115329   3.742   1.952   6.513
 4981SOL    HW215330   3.605   2.039   6.530
 4982SOL     OW15331   3.056   3.474   5.617
 4982SOL    HW115332   3.062   3.381   5.654
 4982SOL    HW215333   2.997   3.474   5.537
 4983SOL     OW15334   2.684   2.864   6.958
 4983SOL    HW115335   2.724   2.863   6.866
 4983SOL    HW215336   2.694   2.956   6.998
 4984SOL     OW15337   2.778   2.772   5.877
 4984SOL    HW115338   2.841   2.810   5.809
 4984SOL    HW215339   2.818   2.689   5.916
 4985SOL     OW15340   3.366   3.469   5.630
 4985SOL    HW115341   3.274   3.506   5.637
 4985SOL    HW215342   3.404   3.489   5.540
 4986SOL     OW15343   2.234   3.150   7.076
 4986SOL    HW115344   2.221   3.243   7.042
 4986SOL    HW215345   2.150   3.098   7.063
 4987SOL     OW15346   3.476   3.154   6.875
 4987SOL    HW115347   3.536   3.157   6.955
 4987SOL    HW215348   3.401   3.218   6.888
 4988SOL     OW15349   2.901   2.960   6.282
 4988SOL    HW115350   2.831   2.913   6.336
 4988SOL    HW215351   2.960   2.892   6.239
 4989SOL     OW15352   2.876   2.098   6.557
 4989SOL    HW115353   2.868   2.062   6.464
 4989SOL    HW215354   2.874   2.022   6.622
 4990SOL     OW15355   2.452   3.349   6.077
 4990SOL    HW115356   2.494   3.291   6.007
 4990SOL    HW215357   2.408   3.428   6.033
 4991SOL     OW15358   3.571   2.247   6.967
 4991SOL    HW115359   3.644   2.316   6.971
 4991SOL    HW215360   3.599   2.172   6.908
 4992SOL     OW15361   2.117   3.210   5.876
 4992SOL    HW115362   2.021   3.211   5.849
 4992SOL    HW215363   2.129   3.263   5.960
 4993SOL     OW15364   1.967   2.875   7.312
 4993SOL    HW115365   1.890   2.842   7.366
 4993SOL    HW215366   2.052   2.845   7.354
 4994SOL     OW15367   2.534   2.065   7.075
 4994SOL    HW115368   2.624   2.049   7.035
 4994SOL    HW215369   2.542   2.070   7.174
 4995SOL     OW15370   3.302   2.718   6.984
 4995SOL    HW115371   3.245   2.770   6.921
 4995SOL    HW215372   3.398   2.730   6.960
 4996SOL     OW15373   3.045   3.197   5.705
 4996SOL    HW115374   2.946   3.186   5.707
 4996SOL    HW215375   3.079   3.212   5.798
 4997SOL     OW15376   2.475   2.704   7.017
 4997SOL    HW115377   2.531   2.785   7.000
 4997SOL    HW215378   2.534   2.624   7.020
 4998SOL     OW15379   3.355   3.629   6.545
 4998SOL    HW115380   3.388   3.693   6.476
 4998SOL    HW215381   3.421   3.623   6.620
 4999SOL     OW15382   2.578   2.427   7.294
 4999SOL    HW115383   2.597   2.492   7.368
 4999SOL    HW215384   2.638   2.347   7.303
 5000SOL     OW15385   3.312   3.082   7.219
 5000SOL    HW115386   3.303   3.072   7.318
 5000SOL    HW215387   3.408   3.075   7.193
 5001SOL     OW15388   2.252   3.603   7.146
 5001SOL    HW115389   2.161   3.644   7.144
 5001SOL    HW215390   2.245   3.509   7.178
 5002SOL     OW15391   3.536   2.745   6.840
 5002SOL    HW115392   3.509   2.656   6.803
 5002SOL    HW215393   3.537   2.813   6.767
 5003SOL     OW15394   3.087   2.187   6.035
 5003SOL    HW115395   3.152   2.113   6.024
 5003SOL    HW215396   3.107   2.237   6.119
 5004SOL     OW15397   3.639   2.204   7.228
 5004SOL    HW115398   3.622   2.235   7.134
 5004SOL    HW215399   3.555   2.167   7.266
 5005SOL     OW15400   3.592   2.796   7.103
 5005SOL    HW115401   3.630   2.887   7.118
 5005SOL    HW215402   3.584   2.779   7.004
 5006SOL     OW15403   2.721   3.236   5.602
 5006SOL    HW115404   2.675   3.251   5.690
 5006SOL    HW215405   2.765   3.321   5.572
 5007SOL     OW15406   2.523   3.652   6.539
 5007SOL    HW115407   2.477   3.740   6.526
 5007SOL    HW215408   2.622   3.664   6.532
 5008SOL     OW15409   2.721   2.818   6.447
 5008SOL    HW115410   2.775   2.749   6.495
 5008SOL    HW215411   2.689   2.887   6.513
 5009SOL     OW15412   2.945   2.846   5.673
 5009SOL    HW115413   2.922   2.899   5.591
 5009SOL    HW215414   3.026   2.790   5.654
 5010SOL     OW15415   3.723   3.431   6.437
 5010SOL    HW115416   3.652   3.419   6.367
 5010SOL    HW215417   3.724   3.352   6.497
 5011SOL     OW15418   2.083   3.176   7.430
 5011SOL    HW115419   2.018   3.103   7.409
 5011SOL    HW215420   2.087   3.190   7.528
 5012SOL     OW15421   1.941   3.102   6.239
 5012SOL    HW115422   1.940   3.055   6.327
 5012SOL    HW215423   2.023   3.074   6.188
 5013SOL     OW15424   2.534   3.253   7.210
 5013SOL    HW115425   2.456   3.203   7.248
 5013SOL    HW215426   2.531   3.348   7.241
 5014SOL     OW15427   3.686   2.054   6.813
 5014SOL    HW115428   3.682   1.964   6.857
 5014SOL    HW215429   3.689   2.043   6.714
 5015SOL     OW15430   3.567   3.349   6.690
 5015SOL    HW115431   3.474   3.324   6.663
 5015SOL    HW215432   3.593   3.299   6.772
 5016SOL     OW15433   2.674   3.448   6.273
 5016SOL    HW115434   2.706   3.458   6.179
 5016SOL    HW215435   2.595   3.386   6.275
 5017SOL     OW15436   3.286   2.076   6.698
 5017SOL    HW115437   3.338   2.011   6.753
 5017SOL    HW215438   3.237   2.139   6.759
 5018SOL     OW15439   2.863   1.896   6.740
 5018SOL    HW115440   2.800   1.824   6.709
 5018SOL    HW215441   2.956   1.860   6.740
 5019SOL     OW15442   2.632   3.192   5.887
 5019SOL    HW115443   2.586   3.105   5.904
 5019SOL    HW215444   2.723   3.189   5.928
 5020SOL     OW15445   2.480   3.429   6.870
 5020SOL    HW115446   2.475   3.511   6.927
 5020SOL    HW215447   2.569   3.426   6.825
 5021SOL     OW15448   3.214   1.914   5.754
 5021SOL    HW115449   3.249   1.873   5.670
 5021SOL    HW215450   3.124   1.876   5.774
 5022SOL     OW15451   3.162   2.315   6.277
 5022SOL    HW115452   3.103   2.395   6.281
 5022SOL    HW215453   3.177   2.280   6.370
 5023SOL     OW15454   3.455   2.083   6.468
 5023SOL    HW115455   3.371   2.082   6.522
 5023SOL    HW215456   3.457   2.166   6.412
 5024SOL     OW15457   1.901   2.939   5.886
 5024SOL    HW115458   2.000   2.928   5.877
 5024SOL    HW215459   1.861   2.853   5.918
 5025SOL     OW15460   2.737   3.508   5.923
 5025SOL    HW115461   2.660   3.473   5.869
 5025SOL    HW215462   2.705   3.579   5.985
 5026SOL     OW15463   2.092   2.490   7.561
 5026SOL    HW115464   1.999   2.488   7.598
 5026SOL    HW215465   2.093   2.451   7.469
 5027SOL     OW15466   1.881   2.230   8.095
 5027SOL    HW115467   1.799   2.273   8.134
 5027SOL    HW215468   1.853   2.157   8.032
 5028SOL     OW15469   2.431   3.137   8.613
 5028SOL    HW115470   2.338   3.130   8.576
 5028SOL    HW215471   2.442   3.226   8.657
 5029SOL     OW15472   3.417   3.373   8.151
 5029SOL    HW115473   3.360   3.357   8.232
 5029SOL    HW215474   3.358   3.383   8.071
 5030SOL     OW15475   2.997   2.565   8.165
 5030SOL    HW115476   3.054   2.643   8.140
 5030SOL    HW215477   2.937   2.591   8.241
 5031SOL     OW15478   3.617   2.469   7.679
 5031SOL    HW115479   3.605   2.456   7.580
 5031SOL    HW215480   3.587   2.388   7.728
 5032SOL     OW15481   2.630   3.006   8.471
 5032SOL    HW115482   2.552   3.023   8.531
 5032SOL    HW215483   2.664   3.093   8.435
 5033SOL     OW15484   2.712   2.660   9.271
 5033SOL    HW115485   2.708   2.736   9.336
 5033SOL    HW215486   2.734   2.696   9.180
 5034SOL     OW15487   2.547   2.874   8.113
 5034SOL    HW115488   2.616   2.858   8.183
 5034SOL    HW215489   2.474   2.931   8.151
 5035SOL     OW15490   2.548   3.023   9.251
 5035SOL    HW115491   2.608   3.102   9.265
 5035SOL    HW215492   2.462   3.054   9.210
 5036SOL     OW15493   2.197   3.297   8.509
 5036SOL    HW115494   2.119   3.266   8.456
 5036SOL    HW215495   2.255   3.355   8.452
 5037SOL     OW15496   3.322   3.367   8.787
 5037SOL    HW115497   3.346   3.461   8.813
 5037SOL    HW215498   3.306   3.313   8.869
 5038SOL     OW15499   3.465   2.309   8.185
 5038SOL    HW115500   3.391   2.355   8.135
 5038SOL    HW215501   3.516   2.377   8.238
 5039SOL     OW15502   2.093   3.575   7.931
 5039SOL    HW115503   2.127   3.652   7.985
 5039SOL    HW215504   2.137   3.575   7.841
 5040SOL     OW15505   2.989   3.203   9.138
 5040SOL    HW115506   3.036   3.203   9.226
 5040SOL    HW215507   2.941   3.116   9.127
 5041SOL     OW15508   2.092   3.296   7.986
 5041SOL    HW115509   2.066   3.392   7.986
 5041SOL    HW215510   2.021   3.242   8.031
 5042SOL     OW15511   2.102   2.953   8.334
 5042SOL    HW115512   2.116   2.869   8.386
 5042SOL    HW215513   2.047   3.017   8.389
 5043SOL     OW15514   2.482   3.648   8.887
 5043SOL    HW115515   2.390   3.631   8.922
 5043SOL    HW215516   2.510   3.740   8.913
 5044SOL     OW15517   2.468   2.826   7.571
 5044SOL    HW115518   2.475   2.910   7.517
 5044SOL    HW215519   2.514   2.839   7.659
 5045SOL     OW15520   3.456   1.976   8.928
 5045SOL    HW115521   3.438   2.043   8.856
 5045SOL    HW215522   3.453   2.022   9.017
 5046SOL     OW15523   1.984   2.505   8.011
 5046SOL    HW115524   1.939   2.417   8.028
 5046SOL    HW215525   1.983   2.559   8.095
 5047SOL     OW15526   3.704   3.629   7.807
 5047SOL    HW115527   3.758   3.600   7.887
 5047SOL    HW215528   3.734   3.719   7.778
 5048SOL     OW15529   1.889   3.458   7.565
 5048SOL    HW115530   1.870   3.362   7.586
 5048SOL    HW215531   1.856   3.516   7.640
 5049SOL     OW15532   3.551   2.784   8.060
 5049SOL    HW115533   3.646   2.755   8.068
 5049SOL    HW215534   3.543   2.849   7.985
 5050SOL     OW15535   3.503   2.970   7.880
 5050SOL    HW115536   3.589   2.972   7.828
 5050SOL    HW215537   3.517   3.017   7.968
 5051SOL     OW15538   1.975   2.599   9.045
 5051SOL    HW115539   2.063   2.586   9.090
 5051SOL    HW215540   1.962   2.696   9.023
 5052SOL     OW15541   2.475   3.227   8.174
 5052SOL    HW115542   2.426   3.140   8.183
 5052SOL    HW215543   2.452   3.270   8.087
 5053SOL     OW15544   3.155   3.090   8.871
 5053SOL    HW115545   3.192   3.017   8.813
 5053SOL    HW215546   3.207   3.095   8.956
 5054SOL     OW15547   2.671   1.866   7.950
 5054SOL    HW115548   2.711   1.957   7.941
 5054SOL    HW215549   2.571   1.874   7.956
 5055SOL     OW15550   2.059   2.838   8.712
 5055SOL    HW115551   2.148   2.793   8.698
 5055SOL    HW215552   1.986   2.773   8.693
 5056SOL     OW15553   3.387   2.861   7.638
 5056SOL    HW115554   3.324   2.785   7.651
 5056SOL    HW215555   3.435   2.879   7.724
 5057SOL     OW15556   3.049   3.654   9.064
 5057SOL    HW115557   3.073   3.714   8.988
 5057SOL    HW215558   3.056   3.559   9.034
 5058SOL     OW15559   3.328   3.279   8.401
 5058SOL    HW115560   3.269   3.285   8.481
 5058SOL    HW215561   3.313   3.191   8.355
 5059SOL     OW15562   3.529   3.576   8.020
 5059SOL    HW115563   3.488   3.553   7.932
 5059SOL    HW215564   3.511   3.502   8.085
 5060SOL     OW15565   2.460   2.591   7.718
 5060SOL    HW115566   2.484   2.660   7.650
 5060SOL    HW215567   2.382   2.624   7.772
 5061SOL     OW15568   3.143   2.207   8.392
 5061SOL    HW115569   3.057   2.157   8.379
 5061SOL    HW215570   3.205   2.153   8.448
 5062SOL     OW15571   3.438   3.524   7.755
 5062SOL    HW115572   3.527   3.570   7.758
 5062SOL    HW215573   3.417   3.500   7.660
 5063SOL     OW15574   2.669   2.467   8.913
 5063SOL    HW115575   2.622   2.464   9.002
 5063SOL    HW215576   2.618   2.412   8.847
 5064SOL     OW15577   3.256   2.331   9.122
 5064SOL    HW115578   3.236   2.374   9.210
 5064SOL    HW215579   3.334   2.269   9.131
 5065SOL     OW15580   2.835   2.752   9.020
 5065SOL    HW115581   2.881   2.668   8.991
 5065SOL    HW215582   2.779   2.786   8.945
 5066SOL     OW15583   2.853   2.272   8.690
 5066SOL    HW115584   2.776   2.306   8.744
 5066SOL    HW215585   2.819   2.221   8.611
 5067SOL     OW15586   2.903   2.563   7.877
 5067SOL    HW115587   2.929   2.559   7.973
 5067SOL    HW215588   2.818   2.512   7.863
 5068SOL     OW15589   1.938   2.673   8.237
 5068SOL    HW115590   2.037   2.661   8.246
 5068SOL    HW215591   1.914   2.768   8.258
 5069SOL     OW15592   1.992   3.683   9.019
 5069SOL    HW115593   1.982   3.668   9.118
 5069SOL    HW215594   1.906   3.719   8.983
 5070SOL     OW15595   2.727   2.210   7.643
 5070SOL    HW115596   2.786   2.273   7.594
 5070SOL    HW215597   2.746   2.116   7.614
 5071SOL     OW15598   3.581   2.447   9.279
 5071SOL    HW115599   3.555   2.536   9.243
 5071SOL    HW215600   3.579   2.379   9.206
 5072SOL     OW15601   3.224   3.006   7.993
 5072SOL    HW115602   3.307   2.977   7.945
 5072SOL    HW215603   3.175   3.073   7.937
 5073SOL     OW15604   2.870   3.318   7.925
 5073SOL    HW115605   2.824   3.390   7.873
 5073SOL    HW215606   2.866   3.338   8.023
 5074SOL     OW15607   2.213   3.663   8.301
 5074SOL    HW115608   2.263   3.577   8.307
 5074SOL    HW215609   2.278   3.740   8.298
 5075SOL     OW15610   3.657   2.928   8.321
 5075SOL    HW115611   3.595   2.913   8.245
 5075SOL    HW215612   3.605   2.939   8.406
 5076SOL     OW15613   3.089   3.412   8.954
 5076SOL    HW115614   3.095   3.335   9.018
 5076SOL    HW215615   3.037   3.386   8.874
 5077SOL     OW15616   2.183   2.805   7.690
 5077SOL    HW115617   2.265   2.844   7.648
 5077SOL    HW215618   2.156   2.723   7.641
 5078SOL     OW15619   3.320   2.597   8.176
 5078SOL    HW115620   3.315   2.532   8.251
 5078SOL    HW215621   3.400   2.656   8.189
 5079SOL     OW15622   2.323   3.128   9.175
 5079SOL    HW115623   2.273   3.129   9.089
 5079SOL    HW215624   2.260   3.110   9.251
 5080SOL     OW15625   2.973   3.638   7.685
 5080SOL    HW115626   2.913   3.576   7.735
 5080SOL    HW215627   3.004   3.594   7.600
 5081SOL     OW15628   2.064   2.147   8.946
 5081SOL    HW115629   1.984   2.207   8.933
 5081SOL    HW215630   2.054   2.098   9.032
 5082SOL     OW15631   3.494   3.239   7.529
 5082SOL    HW115632   3.462   3.333   7.519
 5082SOL    HW215633   3.418   3.176   7.517
 5083SOL     OW15634   2.326   3.605   7.771
 5083SOL    HW115635   2.359   3.644   7.857
 5083SOL    HW215636   2.402   3.598   7.706
 5084SOL     OW15637   3.262   1.969   7.874
 5084SOL    HW115638   3.238   1.932   7.784
 5084SOL    HW215639   3.361   1.985   7.878
 5085SOL     OW15640   2.111   3.647   8.689
 5085SOL    HW115641   2.168   3.582   8.739
 5085SOL    HW215642   2.095   3.614   8.596
 5086SOL     OW15643   2.802   3.560   8.352
 5086SOL    HW115644   2.882   3.503   8.373
 5086SOL    HW215645   2.753   3.520   8.275
 5087SOL     OW15646   3.409   2.084   9.177
 5087SOL    HW115647   3.404   2.121   9.269
 5087SOL    HW215648   3.337   2.015   9.165
 5088SOL     OW15649   2.476   1.984   7.565
 5088SOL    HW115650   2.574   1.962   7.572
 5088SOL    HW215651   2.445   1.967   7.472
 5089SOL     OW15652   2.643   2.126   9.197
 5089SOL    HW115653   2.710   2.065   9.240
 5089SOL    HW215654   2.570   2.145   9.262
 5090SOL     OW15655   2.750   3.376   8.643
 5090SOL    HW115656   2.727   3.351   8.549
 5090SOL    HW215657   2.811   3.307   8.682
 5091SOL     OW15658   3.213   2.452   8.881
 5091SOL    HW115659   3.241   2.409   8.966
 5091SOL    HW215660   3.238   2.548   8.882
 5092SOL     OW15661   2.665   3.264   8.372
 5092SOL    HW115662   2.755   3.278   8.330
 5092SOL    HW215663   2.594   3.266   8.301
 5093SOL     OW15664   2.784   2.365   8.347
 5093SOL    HW115665   2.759   2.356   8.251
 5093SOL    HW215666   2.832   2.283   8.378
 5094SOL     OW15667   2.401   1.926   7.960
 5094SOL    HW115668   2.320   1.927   8.018
 5094SOL    HW215669   2.404   2.009   7.905
 5095SOL     OW15670   3.296   3.050   7.489
 5095SOL    HW115671   3.328   2.974   7.546
 5095SOL    HW215672   3.204   3.077   7.519
 5096SOL     OW15673   2.159   1.897   7.619
 5096SOL    HW115674   2.208   1.981   7.598
 5096SOL    HW215675   2.221   1.832   7.664
 5097SOL     OW15676   2.797   2.098   7.928
 5097SOL    HW115677   2.749   2.139   7.850
 5097SOL    HW215678   2.896   2.096   7.909
 5098SOL     OW15679   2.938   2.545   8.912
 5098SOL    HW115680   2.858   2.484   8.915
 5098SOL    HW215681   3.019   2.492   8.888
 5099SOL     OW15682   3.089   3.432   8.241
 5099SOL    HW115683   3.110   3.506   8.176
 5099SOL    HW215684   3.157   3.432   8.314
 5100SOL     OW15685   2.321   3.014   8.189
 5100SOL    HW115686   2.250   2.987   8.254
 5100SOL    HW215687   2.295   2.986   8.096
 5101SOL     OW15688   3.133   3.659   8.039
 5101SOL    HW115689   3.177   3.723   7.975
 5101SOL    HW215690   3.083   3.711   8.109
 5102SOL     OW15691   2.894   2.411   7.464
 5102SOL    HW115692   2.853   2.493   7.425
 5102SOL    HW215693   2.958   2.437   7.537
 5103SOL     OW15694   1.940   2.418   8.834
 5103SOL    HW115695   2.032   2.417   8.793
 5103SOL    HW215696   1.934   2.492   8.901
 5104SOL     OW15697   2.728   2.316   8.090
 5104SOL    HW115698   2.696   2.388   8.028
 5104SOL    HW215699   2.752   2.235   8.037
 5105SOL     OW15700   2.879   1.901   8.201
 5105SOL    HW115701   2.807   1.906   8.132
 5105SOL    HW215702   2.855   1.832   8.270
 5106SOL     OW15703   3.291   3.035   8.315
 5106SOL    HW115704   3.236   2.951   8.308
 5106SOL    HW215705   3.317   3.064   8.223
 5107SOL     OW15706   3.328   2.452   8.440
 5107SOL    HW115707   3.298   2.357   8.447
 5107SOL    HW215708   3.401   2.468   8.506
 5108SOL     OW15709   3.719   2.695   7.825
 5108SOL    HW115710   3.761   2.631   7.889
 5108SOL    HW215711   3.681   2.644   7.747
 5109SOL     OW15712   2.350   3.247   7.622
 5109SOL    HW115713   2.263   3.232   7.669
 5109SOL    HW215714   2.333   3.273   7.527
 5110SOL     OW15715   3.526   3.142   8.105
 5110SOL    HW115716   3.625   3.150   8.119
 5110SOL    HW215717   3.481   3.226   8.136
 5111SOL     OW15718   3.252   2.437   7.526
 5111SOL    HW115719   3.198   2.416   7.607
 5111SOL    HW215720   3.343   2.396   7.535
 5112SOL     OW15721   3.616   3.085   9.036
 5112SOL    HW115722   3.707   3.046   9.023
 5112SOL    HW215723   3.624   3.181   9.060
 5113SOL     OW15724   2.926   3.209   8.788
 5113SOL    HW115725   2.846   3.186   8.843
 5113SOL    HW215726   3.009   3.183   8.837
 5114SOL     OW15727   3.454   3.491   9.073
 5114SOL    HW115728   3.481   3.525   8.983
 5114SOL    HW215729   3.533   3.453   9.119
 5115SOL     OW15730   2.973   3.057   8.548
 5115SOL    HW115731   2.933   3.101   8.629
 5115SOL    HW215732   2.932   3.094   8.465
 5116SOL     OW15733   3.500   2.961   8.527
 5116SOL    HW115734   3.505   3.042   8.586
 5116SOL    HW215735   3.414   2.963   8.476
 5117SOL     OW15736   2.777   1.951   8.850
 5117SOL    HW115737   2.802   1.931   8.755
 5117SOL    HW215738   2.849   2.007   8.892
 5118SOL     OW15739   2.842   2.978   9.167
 5118SOL    HW115740   2.743   2.984   9.177
 5118SOL    HW215741   2.865   2.898   9.111
 5119SOL     OW15742   2.567   2.912   7.816
 5119SOL    HW115743   2.553   2.919   7.915
 5119SOL    HW215744   2.651   2.861   7.798
 5120SOL     OW15745   2.272   2.675   8.699
 5120SOL    HW115746   2.358   2.687   8.749
 5120SOL    HW215747   2.230   2.588   8.726
 5121SOL     OW15748   3.136   2.248   8.710
 5121SOL    HW115749   3.157   2.322   8.774
 5121SOL    HW215750   3.047   2.265   8.667
 5122SOL     OW15751   1.926   3.426   8.779
 5122SOL    HW115752   1.880   3.508   8.745
 5122SOL    HW215753   2.024   3.445   8.788
 5123SOL     OW15754   2.229   2.962   7.949
 5123SOL    HW115755   2.222   3.045   7.893
 5123SOL    HW215756   2.233   2.882   7.889
 5124SOL     OW15757   3.114   3.210   7.836
 5124SOL    HW115758   3.164   3.287   7.876
 5124SOL    HW215759   3.019   3.212   7.868
 5125SOL     OW15760   3.134   3.307   8.590
 5125SOL    HW115761   3.181   3.320   8.677
 5125SOL    HW215762   3.068   3.233   8.599
 5126SOL     OW15763   3.444   2.501   7.920
 5126SOL    HW115764   3.413   2.562   7.993
 5126SOL    HW215765   3.494   2.553   7.851
 5127SOL     OW15766   2.216   3.372   8.777
 5127SOL    HW115767   2.195   3.328   8.690
 5127SOL    HW215768   2.313   3.398   8.780
 5128SOL     OW15769   2.264   2.613   9.046
 5128SOL    HW115770   2.332   2.668   8.999
 5128SOL    HW215771   2.304   2.525   9.073
 5129SOL     OW15772   3.449   2.641   9.118
 5129SOL    HW115773   3.357   2.679   9.113
 5129SOL    HW215774   3.509   2.688   9.053
 5130SOL     OW15775   2.875   1.967   9.218
 5130SOL    HW115776   2.881   2.052   9.166
 5130SOL    HW215777   2.907   1.891   9.161
 5131SOL     OW15778   2.366   1.912   9.188
 5131SOL    HW115779   2.324   1.855   9.118
 5131SOL    HW215780   2.300   1.981   9.220
 5132SOL     OW15781   2.435   2.732   8.477
 5132SOL    HW115782   2.479   2.821   8.468
 5132SOL    HW215783   2.372   2.732   8.554
 5133SOL     OW15784   3.222   2.724   8.493
 5133SOL    HW115785   3.147   2.724   8.427
 5133SOL    HW215786   3.259   2.632   8.502
 5134SOL     OW15787   3.071   2.387   7.723
 5134SOL    HW115788   3.084   2.303   7.777
 5134SOL    HW215789   3.042   2.461   7.783
 5135SOL     OW15790   1.899   3.172   8.730
 5135SOL    HW115791   1.952   3.123   8.798
 5135SOL    HW215792   1.921   3.270   8.735
 5136SOL     OW15793   2.594   2.496   8.512
 5136SOL    HW115794   2.653   2.470   8.436
 5136SOL    HW215795   2.566   2.592   8.501
 5137SOL     OW15796   3.590   2.797   9.302
 5137SOL    HW115797   3.544   2.790   9.213
 5137SOL    HW215798   3.528   2.841   9.368
 5138SOL     OW15799   2.169   1.925   8.066
 5138SOL    HW115800   2.158   2.019   8.099
 5138SOL    HW215801   2.164   1.862   8.143
 5139SOL     OW15802   3.484   2.229   7.822
 5139SOL    HW115803   3.486   2.153   7.886
 5139SOL    HW215804   3.436   2.306   7.862
 5140SOL     OW15805   2.885   2.628   8.414
 5140SOL    HW115806   2.900   2.649   8.510
 5140SOL    HW215807   2.855   2.533   8.405
 5141SOL     OW15808   2.842   3.435   9.148
 5141SOL    HW115809   2.822   3.479   9.060
 5141SOL    HW215810   2.881   3.344   9.132
 5142SOL     OW15811   3.721   3.380   9.053
 5142SOL    HW115812   3.735   3.407   8.958
 5142SOL    HW215813   3.804   3.402   9.106
 5143SOL     OW15814   2.212   2.760   9.252
 5143SOL    HW115815   2.288   2.804   9.300
 5143SOL    HW215816   2.247   2.713   9.170
 5144SOL     OW15817   3.402   2.136   7.573
 5144SOL    HW115818   3.341   2.061   7.596
 5144SOL    HW215819   3.424   2.188   7.656
 5145SOL     OW15820   3.165   2.700   7.490
 5145SOL    HW115821   3.199   2.607   7.505
 5145SOL    HW215822   3.183   2.727   7.395
 5146SOL     OW15823   2.930   3.195   8.297
 5146SOL    HW115824   2.937   3.111   8.242
 5146SOL    HW215825   2.992   3.264   8.261
 5147SOL     OW15826   2.181   2.672   8.397
 5147SOL    HW115827   2.274   2.708   8.402
 5147SOL    HW215828   2.175   2.587   8.449
 5148SOL     OW15829   3.000   2.242   9.126
 5148SOL    HW115830   2.955   2.305   9.190
 5148SOL    HW215831   3.093   2.273   9.109
 5149SOL     OW15832   3.022   2.069   8.925
 5149SOL    HW115833   3.022   2.133   9.002
 5149SOL    HW215834   3.050   2.117   8.842
 5150SOL     OW15835   1.870   3.188   7.648
 5150SOL    HW115836   1.777   3.209   7.617
 5150SOL    HW215837   1.880   3.089   7.661
 5151SOL     OW15838   1.950   3.663   8.375
 5151SOL    HW115839   1.908   3.577   8.348
 5151SOL    HW215840   2.044   3.666   8.341
 5152SOL     OW15841   2.366   3.430   8.358
 5152SOL    HW115842   2.432   3.504   8.367
 5152SOL    HW215843   2.410   3.351   8.316
 5153SOL     OW15844   2.864   2.658   8.686
 5153SOL    HW115845   2.905   2.626   8.772
 5153SOL    HW215846   2.768   2.631   8.683
 5154SOL     OW15847   1.902   2.406   8.562
 5154SOL    HW115848   1.987   2.373   8.521
 5154SOL    HW215849   1.915   2.421   8.660
 5155SOL     OW15850   3.231   2.812   9.108
 5155SOL    HW115851   3.270   2.901   9.128
 5155SOL    HW215852   3.241   2.792   9.011
 5156SOL     OW15853   2.677   2.434   7.773
 5156SOL    HW115854   2.684   2.345   7.727
 5156SOL    HW215855   2.583   2.468   7.765
 5157SOL     OW15856   3.519   2.466   8.654
 5157SOL    HW115857   3.481   2.397   8.716
 5157SOL    HW215858   3.601   2.430   8.610
 5158SOL     OW15859   2.114   3.426   9.192
 5158SOL    HW115860   2.084   3.483   9.268
 5158SOL    HW215861   2.107   3.329   9.218
 5159SOL     OW15862   2.792   3.540   8.913
 5159SOL    HW115863   2.768   3.522   8.818
 5159SOL    HW215864   2.822   3.634   8.923
 5160SOL     OW15865   2.021   2.999   8.914
 5160SOL    HW115866   2.043   2.938   8.990
 5160SOL    HW215867   2.031   2.950   8.828
 5161SOL     OW15868   3.209   2.921   8.682
 5161SOL    HW115869   3.233   2.858   8.608
 5161SOL    HW215870   3.119   2.961   8.664
 5162SOL     OW15871   3.164   2.717   7.757
 5162SOL    HW115872   3.078   2.686   7.799
 5162SOL    HW215873   3.160   2.703   7.658
 5163SOL     OW15874   3.621   3.609   8.602
 5163SOL    HW115875   3.682   3.639   8.529
 5163SOL    HW215876   3.583   3.520   8.580
 5164SOL     OW15877   3.114   3.593   8.576
 5164SOL    HW115878   3.198   3.598   8.522
 5164SOL    HW215879   3.091   3.497   8.594
 5165SOL     OW15880   1.945   3.120   8.470
 5165SOL    HW115881   1.940   3.119   8.570
 5165SOL    HW215882   1.862   3.079   8.432
 5166SOL     OW15883   2.550   3.524   9.164
 5166SOL    HW115884   2.494   3.605   9.173
 5166SOL    HW215885   2.602   3.528   9.078
 5167SOL     OW15886   3.588   1.997   7.971
 5167SOL    HW115887   3.661   1.980   7.904
 5167SOL    HW215888   3.557   1.910   8.009
 5168SOL     OW15889   3.250   3.435   7.925
 5168SOL    HW115890   3.317   3.447   7.851
 5168SOL    HW215891   3.210   3.524   7.948
 5169SOL     OW15892   1.992   3.656   9.299
 5169SOL    HW115893   1.951   3.582   9.352
 5169SOL    HW215894   2.056   3.707   9.357
 5170SOL     OW15895   3.142   2.789   8.120
 5170SOL    HW115896   3.202   2.708   8.122
 5170SOL    HW215897   3.182   2.858   8.060
 5171SOL     OW15898   2.692   3.135   8.870
 5171SOL    HW115899   2.687   3.168   8.965
 5171SOL    HW215900   2.606   3.154   8.824
 5172SOL     OW15901   2.534   3.478   7.602
 5172SOL    HW115902   2.543   3.488   7.503
 5172SOL    HW215903   2.494   3.389   7.623
 5173SOL     OW15904   3.512   3.582   8.842
 5173SOL    HW115905   3.565   3.592   8.758
 5173SOL    HW215906   3.485   3.672   8.876
 5174SOL     OW15907   3.703   2.037   8.411
 5174SOL    HW115908   3.742   1.952   8.375
 5174SOL    HW215909   3.605   2.039   8.392
 5175SOL     OW15910   3.056   3.474   7.479
 5175SOL    HW115911   3.062   3.381   7.516
 5175SOL    HW215912   2.997   3.474   7.399
 5176SOL     OW15913   2.684   2.864   8.820
 5176SOL    HW115914   2.724   2.863   8.728
 5176SOL    HW215915   2.694   2.956   8.860
 5177SOL     OW15916   2.778   2.772   7.739
 5177SOL    HW115917   2.841   2.810   7.671
 5177SOL    HW215918   2.818   2.689   7.778
 5178SOL     OW15919   3.366   3.469   7.492
 5178SOL    HW115920   3.274   3.506   7.499
 5178SOL    HW215921   3.404   3.489   7.402
 5179SOL     OW15922   2.234   3.150   8.938
 5179SOL    HW115923   2.221   3.243   8.904
 5179SOL    HW215924   2.150   3.098   8.925
 5180SOL     OW15925   3.476   3.154   8.737
 5180SOL    HW115926   3.536   3.157   8.817
 5180SOL    HW215927   3.401   3.218   8.750
 5181SOL     OW15928   2.901   2.960   8.144
 5181SOL    HW115929   2.831   2.913   8.198
 5181SOL    HW215930   2.960   2.892   8.101
 5182SOL     OW15931   2.876   2.098   8.419
 5182SOL    HW115932   2.868   2.062   8.326
 5182SOL    HW215933   2.874   2.022   8.484
 5183SOL     OW15934   2.452   3.349   7.939
 5183SOL    HW115935   2.494   3.291   7.869
 5183SOL    HW215936   2.408   3.428   7.895
 5184SOL     OW15937   3.571   2.247   8.829
 5184SOL    HW115938   3.644   2.316   8.833
 5184SOL    HW215939   3.599   2.172   8.770
 5185SOL     OW15940   2.117   3.210   7.738
 5185SOL    HW115941   2.021   3.211   7.711
 5185SOL    HW215942   2.129   3.263   7.822
 5186SOL     OW15943   1.967   2.875   9.174
 5186SOL    HW115944   1.890   2.842   9.228
 5186SOL    HW215945   2.052   2.845   9.216
 5187SOL     OW15946   2.534   2.065   8.937
 5187SOL    HW115947   2.624   2.049   8.897
 5187SOL    HW215948   2.542   2.070   9.036
 5188SOL     OW15949   1.937   2.207   7.481
 5188SOL    HW115950   1.845   2.179   7.452
 5188SOL    HW215951   1.968   2.284   7.425
 5189SOL     OW15952   3.302   2.718   8.846
 5189SOL    HW115953   3.245   2.770   8.783
 5189SOL    HW215954   3.398   2.730   8.822
 5190SOL     OW15955   1.934   2.028   7.766
 5190SOL    HW115956   1.917   2.111   7.712
 5190SOL    HW215957   2.024   1.991   7.744
 5191SOL     OW15958   3.045   3.197   7.567
 5191SOL    HW115959   2.946   3.186   7.569
 5191SOL    HW215960   3.079   3.212   7.660
 5192SOL     OW15961   2.475   2.704   8.879
 5192SOL    HW115962   2.531   2.785   8.862
 5192SOL    HW215963   2.534   2.624   8.882
 5193SOL     OW15964   3.355   3.629   8.407
 5193SOL    HW115965   3.388   3.693   8.338
 5193SOL    HW215966   3.421   3.623   8.482
 5194SOL     OW15967   2.578   2.427   9.156
 5194SOL    HW115968   2.597   2.492   9.230
 5194SOL    HW215969   2.638   2.347   9.165
 5195SOL     OW15970   3.312   3.082   9.081
 5195SOL    HW115971   3.303   3.072   9.180
 5195SOL    HW215972   3.408   3.075   9.055
 5196SOL     OW15973   2.252   3.603   9.008
 5196SOL    HW115974   2.161   3.644   9.006
 5196SOL    HW215975   2.245   3.509   9.040
 5197SOL     OW15976   3.536   2.745   8.702
 5197SOL    HW115977   3.509   2.656   8.665
 5197SOL    HW215978   3.537   2.813   8.629
 5198SOL     OW15979   3.087   2.187   7.897
 5198SOL    HW115980   3.152   2.113   7.886
 5198SOL    HW215981   3.107   2.237   7.981
 5199SOL     OW15982   2.456   2.607   8.100
 5199SOL    HW115983   2.506   2.692   8.081
 5199SOL    HW215984   2.368   2.609   8.052
 5200SOL     OW15985   3.639   2.204   9.090
 5200SOL    HW115986   3.622   2.235   8.996
 5200SOL    HW215987   3.555   2.167   9.128
 5201SOL     OW15988   3.592   2.796   8.965
 5201SOL    HW115989   3.630   2.887   8.980
 5201SOL    HW215990   3.584   2.779   8.866
 5202SOL     OW15991   2.721   3.236   7.464
 5202SOL    HW115992   2.675   3.251   7.552
 5202SOL    HW215993   2.765   3.321   7.434
 5203SOL     OW15994   2.523   3.652   8.401
 5203SOL    HW115995   2.477   3.740   8.388
 5203SOL    HW215996   2.622   3.664   8.394
 5204SOL     OW15997   2.721   2.818   8.309
 5204SOL    HW115998   2.775   2.749   8.357
 5204SOL    HW215999   2.689   2.887   8.375
 5205SOL     OW16000   2.945   2.846   7.535
 5205SOL    HW116001   2.922   2.899   7.453
 5205SOL    HW216002   3.026   2.790   7.516
 5206SOL     OW16003   3.723   3.431   8.299
 5206SOL    HW116004   3.652   3.419   8.229
 5206SOL    HW216005   3.724   3.352   8.359
 5207SOL     OW16006   2.083   3.176   9.292
 5207SOL    HW116007   2.018   3.103   9.271
 5207SOL    HW216008   2.087   3.190   9.390
 5208SOL     OW16009   1.941   3.102   8.101
 5208SOL    HW116010   1.940   3.055   8.189
 5208SOL    HW216011   2.023   3.074   8.050
 5209SOL     OW16012   2.534   3.253   9.072
 5209SOL    HW116013   2.456   3.203   9.110
 5209SOL    HW216014   2.531   3.348   9.103
 5210SOL     OW16015   3.686   2.054   8.675
 5210SOL    HW116016   3.682   1.964   8.719
 5210SOL    HW216017   3.689   2.043   8.576
 5211SOL     OW16018   3.567   3.349   8.552
 5211SOL    HW116019   3.474   3.324   8.525
 5211SOL    HW216020   3.593   3.299   8.634
 5212SOL     OW16021   2.674   3.448   8.135
 5212SOL    HW116022   2.706   3.458   8.041
 5212SOL    HW216023   2.595   3.386   8.137
 5213SOL     OW16024   3.286   2.076   8.560
 5213SOL    HW116025   3.338   2.011   8.615
 5213SOL    HW216026   3.237   2.139   8.621
 5214SOL     OW16027   2.863   1.896   8.602
 5214SOL    HW116028   2.800   1.824   8.571
 5214SOL    HW216029   2.956   1.860   8.602
 5215SOL     OW16030   2.632   3.192   7.749
 5215SOL    HW116031   2.586   3.105   7.766
 5215SOL    HW216032   2.723   3.189   7.790
 5216SOL     OW16033   2.480   3.429   8.732
 5216SOL    HW116034   2.475   3.511   8.789
 5216SOL    HW216035   2.569   3.426   8.687
 5217SOL     OW16036   3.214   1.914   7.616
 5217SOL    HW116037   3.249   1.873   7.532
 5217SOL    HW216038   3.124   1.876   7.636
 5218SOL     OW16039   3.162   2.315   8.139
 5218SOL    HW116040   3.103   2.395   8.143
 5218SOL    HW216041   3.177   2.280   8.232
 5219SOL     OW16042   3.455   2.083   8.330
 5219SOL    HW116043   3.371   2.082   8.384
 5219SOL    HW216044   3.457   2.166   8.274
 5220SOL     OW16045   1.901   2.939   7.748
 5220SOL    HW116046   2.000   2.928   7.739
 5220SOL    HW216047   1.861   2.853   7.780
 5221SOL     OW16048   2.737   3.508   7.785
 5221SOL    HW116049   2.660   3.473   7.731
 5221SOL    HW216050   2.705   3.579   7.847
 5222SOL     OW16051   2.092   2.490   9.423
 5222SOL    HW116052   1.999   2.488   9.460
 5222SOL    HW216053   2.093   2.451   9.331
 5223SOL     OW16054   1.881   2.230   9.957
 5223SOL    HW116055   1.799   2.273   9.996
 5223SOL    HW216056   1.853   2.157   9.894
 5224SOL     OW16057   2.431   3.137  10.475
 5224SOL    HW116058   2.338   3.130  10.438
 5224SOL    HW216059   2.442   3.226  10.519
 5225SOL     OW16060   3.417   3.373  10.013
 5225SOL    HW116061   3.360   3.357  10.094
 5225SOL    HW216062   3.358   3.383   9.933
 5226SOL     OW16063   2.997   2.565  10.027
 5226SOL    HW116064   3.054   2.643  10.002
 5226SOL    HW216065   2.937   2.591  10.103
 5227SOL     OW16066   3.617   2.469   9.541
 5227SOL    HW116067   3.605   2.456   9.442
 5227SOL    HW216068   3.587   2.388   9.590
 5228SOL     OW16069   2.630   3.006  10.333
 5228SOL    HW116070   2.552   3.023  10.393
 5228SOL    HW216071   2.664   3.093  10.297
 5229SOL     OW16072   2.712   2.660  11.133
 5229SOL    HW116073   2.708   2.736  11.198
 5229SOL    HW216074   2.734   2.696  11.042
 5230SOL     OW16075   2.547   2.874   9.975
 5230SOL    HW116076   2.616   2.858  10.045
 5230SOL    HW216077   2.474   2.931  10.013
 5231SOL     OW16078   2.197   3.297  10.371
 5231SOL    HW116079   2.119   3.266  10.318
 5231SOL    HW216080   2.255   3.355  10.314
 5232SOL     OW16081   3.322   3.367  10.649
 5232SOL    HW116082   3.346   3.461  10.675
 5232SOL    HW216083   3.306   3.313  10.731
 5233SOL     OW16084   3.465   2.309  10.047
 5233SOL    HW116085   3.391   2.355   9.997
 5233SOL    HW216086   3.516   2.377  10.100
 5234SOL     OW16087   2.093   3.575   9.793
 5234SOL    HW116088   2.127   3.652   9.847
 5234SOL    HW216089   2.137   3.575   9.703
 5235SOL     OW16090   2.092   3.296   9.848
 5235SOL    HW116091   2.066   3.392   9.848
 5235SOL    HW216092   2.021   3.242   9.893
 5236SOL     OW16093   2.102   2.953  10.196
 5236SOL    HW116094   2.116   2.869  10.248
 5236SOL    HW216095   2.047   3.017  10.251
 5237SOL     OW16096   2.482   3.648  10.749
 5237SOL    HW116097   2.390   3.631  10.784
 5237SOL    HW216098   2.510   3.740  10.775
 5238SOL     OW16099   2.468   2.826   9.433
 5238SOL    HW116100   2.475   2.910   9.379
 5238SOL    HW216101   2.514   2.839   9.521
 5239SOL     OW16102   3.456   1.976  10.790
 5239SOL    HW116103   3.438   2.043  10.718
 5239SOL    HW216104   3.453   2.022  10.879
 5240SOL     OW16105   1.984   2.505   9.873
 5240SOL    HW116106   1.939   2.417   9.890
 5240SOL    HW216107   1.983   2.559   9.957
 5241SOL     OW16108   3.704   3.629   9.669
 5241SOL    HW116109   3.758   3.600   9.749
 5241SOL    HW216110   3.734   3.719   9.640
 5242SOL     OW16111   1.889   3.458   9.427
 5242SOL    HW116112   1.870   3.362   9.448
 5242SOL    HW216113   1.856   3.516   9.502
 5243SOL     OW16114   3.551   2.784   9.922
 5243SOL    HW116115   3.646   2.755   9.930
 5243SOL    HW216116   3.543   2.849   9.847
 5244SOL     OW16117   3.503   2.970   9.742
 5244SOL    HW116118   3.589   2.972   9.690
 5244SOL    HW216119   3.517   3.017   9.830
 5245SOL     OW16120   1.975   2.599  10.907
 5245SOL    HW116121   2.063   2.586  10.952
 5245SOL    HW216122   1.962   2.696  10.885
 5246SOL     OW16123   2.475   3.227  10.036
 5246SOL    HW116124   2.426   3.140  10.045
 5246SOL    HW216125   2.452   3.270   9.949
 5247SOL     OW16126   3.155   3.090  10.733
 5247SOL    HW116127   3.192   3.017  10.675
 5247SOL    HW216128   3.207   3.095  10.818
 5248SOL     OW16129   2.671   1.866   9.812
 5248SOL    HW116130   2.711   1.957   9.803
 5248SOL    HW216131   2.571   1.874   9.818
 5249SOL     OW16132   2.059   2.838  10.574
 5249SOL    HW116133   2.148   2.793  10.560
 5249SOL    HW216134   1.986   2.773  10.555
 5250SOL     OW16135   3.387   2.861   9.500
 5250SOL    HW116136   3.324   2.785   9.513
 5250SOL    HW216137   3.435   2.879   9.586
 5251SOL     OW16138   3.049   3.654  10.926
 5251SOL    HW116139   3.073   3.714  10.850
 5251SOL    HW216140   3.056   3.559  10.896
 5252SOL     OW16141   3.328   3.279  10.263
 5252SOL    HW116142   3.269   3.285  10.343
 5252SOL    HW216143   3.313   3.191  10.217
 5253SOL     OW16144   3.529   3.576   9.882
 5253SOL    HW116145   3.488   3.553   9.794
 5253SOL    HW216146   3.511   3.502   9.947
 5254SOL     OW16147   2.460   2.591   9.580
 5254SOL    HW116148   2.484   2.660   9.512
 5254SOL    HW216149   2.382   2.624   9.634
 5255SOL     OW16150   3.143   2.207  10.254
 5255SOL    HW116151   3.057   2.157  10.241
 5255SOL    HW216152   3.205   2.153  10.310
 5256SOL     OW16153   3.438   3.524   9.617
 5256SOL    HW116154   3.527   3.570   9.620
 5256SOL    HW216155   3.417   3.500   9.522
 5257SOL     OW16156   2.669   2.467  10.775
 5257SOL    HW116157   2.622   2.464  10.864
 5257SOL    HW216158   2.618   2.412  10.709
 5258SOL     OW16159   2.835   2.752  10.882
 5258SOL    HW116160   2.881   2.668  10.853
 5258SOL    HW216161   2.779   2.786  10.807
 5259SOL     OW16162   2.853   2.272  10.552
 5259SOL    HW116163   2.776   2.306  10.606
 5259SOL    HW216164   2.819   2.221  10.473
 5260SOL     OW16165   2.903   2.563   9.739
 5260SOL    HW116166   2.929   2.559   9.835
 5260SOL    HW216167   2.818   2.512   9.725
 5261SOL     OW16168   1.938   2.673  10.099
 5261SOL    HW116169   2.037   2.661  10.108
 5261SOL    HW216170   1.914   2.768  10.120
 5262SOL     OW16171   1.992   3.683  10.881
 5262SOL    HW116172   1.982   3.668  10.980
 5262SOL    HW216173   1.906   3.719  10.845
 5263SOL     OW16174   2.727   2.210   9.505
 5263SOL    HW116175   2.786   2.273   9.456
 5263SOL    HW216176   2.746   2.116   9.476
 5264SOL     OW16177   3.224   3.006   9.855
 5264SOL    HW116178   3.307   2.977   9.807
 5264SOL    HW216179   3.175   3.073   9.799
 5265SOL     OW16180   2.870   3.318   9.787
 5265SOL    HW116181   2.824   3.390   9.735
 5265SOL    HW216182   2.866   3.338   9.885
 5266SOL     OW16183   2.213   3.663  10.163
 5266SOL    HW116184   2.263   3.577  10.169
 5266SOL    HW216185   2.278   3.740  10.160
 5267SOL     OW16186   3.657   2.928  10.183
 5267SOL    HW116187   3.595   2.913  10.107
 5267SOL    HW216188   3.605   2.939  10.268
 5268SOL     OW16189   3.089   3.412  10.816
 5268SOL    HW116190   3.095   3.335  10.880
 5268SOL    HW216191   3.037   3.386  10.736
 5269SOL     OW16192   2.183   2.805   9.552
 5269SOL    HW116193   2.265   2.844   9.510
 5269SOL    HW216194   2.156   2.723   9.503
 5270SOL     OW16195   3.320   2.597  10.038
 5270SOL    HW116196   3.315   2.532  10.113
 5270SOL    HW216197   3.400   2.656  10.051
 5271SOL     OW16198   2.323   3.128  11.037
 5271SOL    HW116199   2.273   3.129  10.951
 5271SOL    HW216200   2.260   3.110  11.113
 5272SOL     OW16201   2.973   3.638   9.547
 5272SOL    HW116202   2.913   3.576   9.597
 5272SOL    HW216203   3.004   3.594   9.462
 5273SOL     OW16204   3.494   3.239   9.391
 5273SOL    HW116205   3.462   3.333   9.381
 5273SOL    HW216206   3.418   3.176   9.379
 5274SOL     OW16207   2.326   3.605   9.633
 5274SOL    HW116208   2.359   3.644   9.719
 5274SOL    HW216209   2.402   3.598   9.568
 5275SOL     OW16210   3.262   1.969   9.736
 5275SOL    HW116211   3.238   1.932   9.646
 5275SOL    HW216212   3.361   1.985   9.740
 5276SOL     OW16213   2.111   3.647  10.551
 5276SOL    HW116214   2.168   3.582  10.601
 5276SOL    HW216215   2.095   3.614  10.458
 5277SOL     OW16216   2.802   3.560  10.214
 5277SOL    HW116217   2.882   3.503  10.235
 5277SOL    HW216218   2.753   3.520  10.137
 5278SOL     OW16219   2.476   1.984   9.427
 5278SOL    HW116220   2.574   1.962   9.434
 5278SOL    HW216221   2.445   1.967   9.334
 5279SOL     OW16222   2.643   2.126  11.059
 5279SOL    HW116223   2.710   2.065  11.102
 5279SOL    HW216224   2.570   2.145  11.124
 5280SOL     OW16225   2.750   3.376  10.505
 5280SOL    HW116226   2.727   3.351  10.411
 5280SOL    HW216227   2.811   3.307  10.544
 5281SOL     OW16228   3.213   2.452  10.743
 5281SOL    HW116229   3.241   2.409  10.828
 5281SOL    HW216230   3.238   2.548  10.744
 5282SOL     OW16231   2.665   3.264  10.234
 5282SOL    HW116232   2.755   3.278  10.192
 5282SOL    HW216233   2.594   3.266  10.163
 5283SOL     OW16234   2.784   2.365  10.209
 5283SOL    HW116235   2.759   2.356  10.113
 5283SOL    HW216236   2.832   2.283  10.240
 5284SOL     OW16237   2.401   1.926   9.822
 5284SOL    HW116238   2.320   1.927   9.880
 5284SOL    HW216239   2.404   2.009   9.767
 5285SOL     OW16240   3.296   3.050   9.351
 5285SOL    HW116241   3.328   2.974   9.408
 5285SOL    HW216242   3.204   3.077   9.381
 5286SOL     OW16243   2.159   1.897   9.481
 5286SOL    HW116244   2.208   1.981   9.460
 5286SOL    HW216245   2.221   1.832   9.526
 5287SOL     OW16246   2.797   2.098   9.790
 5287SOL    HW116247   2.749   2.139   9.712
 5287SOL    HW216248   2.896   2.096   9.771
 5288SOL     OW16249   2.938   2.545  10.774
 5288SOL    HW116250   2.858   2.484  10.777
 5288SOL    HW216251   3.019   2.492  10.750
 5289SOL     OW16252   3.089   3.432  10.103
 5289SOL    HW116253   3.110   3.506  10.038
 5289SOL    HW216254   3.157   3.432  10.176
 5290SOL     OW16255   2.321   3.014  10.051
 5290SOL    HW116256   2.250   2.987  10.116
 5290SOL    HW216257   2.295   2.986   9.958
 5291SOL     OW16258   3.133   3.659   9.901
 5291SOL    HW116259   3.177   3.723   9.837
 5291SOL    HW216260   3.083   3.711   9.971
 5292SOL     OW16261   2.894   2.411   9.326
 5292SOL    HW116262   2.853   2.493   9.287
 5292SOL    HW216263   2.958   2.437   9.399
 5293SOL     OW16264   1.940   2.418  10.696
 5293SOL    HW116265   2.032   2.417  10.655
 5293SOL    HW216266   1.934   2.492  10.763
 5294SOL     OW16267   2.423   2.084  10.457
 5294SOL    HW116268   2.461   2.000  10.494
 5294SOL    HW216269   2.335   2.103  10.501
 5295SOL     OW16270   2.728   2.316   9.952
 5295SOL    HW116271   2.696   2.388   9.890
 5295SOL    HW216272   2.752   2.235   9.899
 5296SOL     OW16273   2.879   1.901  10.063
 5296SOL    HW116274   2.807   1.906   9.994
 5296SOL    HW216275   2.855   1.832  10.132
 5297SOL     OW16276   3.291   3.035  10.177
 5297SOL    HW116277   3.236   2.951  10.170
 5297SOL    HW216278   3.317   3.064  10.085
 5298SOL     OW16279   3.328   2.452  10.302
 5298SOL    HW116280   3.298   2.357  10.309
 5298SOL    HW216281   3.401   2.468  10.368
 5299SOL     OW16282   3.719   2.695   9.687
 5299SOL    HW116283   3.761   2.631   9.751
 5299SOL    HW216284   3.681   2.644   9.609
 5300SOL     OW16285   2.350   3.247   9.484
 5300SOL    HW116286   2.263   3.232   9.531
 5300SOL    HW216287   2.333   3.273   9.389
 5301SOL     OW16288   3.526   3.142   9.967
 5301SOL    HW116289   3.625   3.150   9.981
 5301SOL    HW216290   3.481   3.226   9.998
 5302SOL     OW16291   3.252   2.437   9.388
 5302SOL    HW116292   3.198   2.416   9.469
 5302SOL    HW216293   3.343   2.396   9.397
 5303SOL     OW16294   3.616   3.085  10.898
 5303SOL    HW116295   3.707   3.046  10.885
 5303SOL    HW216296   3.624   3.181  10.922
 5304SOL     OW16297   2.926   3.209  10.650
 5304SOL    HW116298   2.846   3.186  10.705
 5304SOL    HW216299   3.009   3.183  10.699
 5305SOL     OW16300   2.973   3.057  10.410
 5305SOL    HW116301   2.933   3.101  10.491
 5305SOL    HW216302   2.932   3.094  10.327
 5306SOL     OW16303   3.500   2.961  10.389
 5306SOL    HW116304   3.505   3.042  10.448
 5306SOL    HW216305   3.414   2.963  10.338
 5307SOL     OW16306   2.777   1.951  10.712
 5307SOL    HW116307   2.802   1.931  10.617
 5307SOL    HW216308   2.849   2.007  10.754
 5308SOL     OW16309   2.567   2.912   9.678
 5308SOL    HW116310   2.553   2.919   9.777
 5308SOL    HW216311   2.651   2.861   9.660
 5309SOL     OW16312   2.272   2.675  10.561
 5309SOL    HW116313   2.358   2.687  10.611
 5309SOL    HW216314   2.230   2.588  10.588
 5310SOL     OW16315   3.136   2.248  10.572
 5310SOL    HW116316   3.157   2.322  10.636
 5310SOL    HW216317   3.047   2.265  10.529
 5311SOL     OW16318   1.926   3.426  10.641
 5311SOL    HW116319   1.880   3.508  10.607
 5311SOL    HW216320   2.024   3.445  10.650
 5312SOL     OW16321   2.229   2.962   9.811
 5312SOL    HW116322   2.222   3.045   9.755
 5312SOL    HW216323   2.233   2.882   9.751
 5313SOL     OW16324   2.428   2.399  10.175
 5313SOL    HW116325   2.440   2.465  10.101
 5313SOL    HW216326   2.474   2.433  10.258
 5314SOL     OW16327   3.114   3.210   9.698
 5314SOL    HW116328   3.164   3.287   9.738
 5314SOL    HW216329   3.019   3.212   9.730
 5315SOL     OW16330   3.134   3.307  10.452
 5315SOL    HW116331   3.181   3.320  10.539
 5315SOL    HW216332   3.068   3.233  10.461
 5316SOL     OW16333   3.444   2.501   9.782
 5316SOL    HW116334   3.413   2.562   9.855
 5316SOL    HW216335   3.494   2.553   9.713
 5317SOL     OW16336   2.216   3.372  10.639
 5317SOL    HW116337   2.195   3.328  10.552
 5317SOL    HW216338   2.313   3.398  10.642
 5318SOL     OW16339   2.264   2.613  10.908
 5318SOL    HW116340   2.332   2.668  10.861
 5318SOL    HW216341   2.304   2.525  10.935
 5319SOL     OW16342   3.449   2.641  10.980
 5319SOL    HW116343   3.357   2.679  10.975
 5319SOL    HW216344   3.509   2.688  10.915
 5320SOL     OW16345   2.435   2.732  10.339
 5320SOL    HW116346   2.479   2.821  10.330
 5320SOL    HW216347   2.372   2.732  10.416
 5321SOL     OW16348   3.222   2.724  10.355
 5321SOL    HW116349   3.147   2.724  10.289
 5321SOL    HW216350   3.259   2.632  10.364
 5322SOL     OW16351   3.071   2.387   9.585
 5322SOL    HW116352   3.084   2.303   9.639
 5322SOL    HW216353   3.042   2.461   9.645
 5323SOL     OW16354   1.899   3.172  10.592
 5323SOL    HW116355   1.952   3.123  10.660
 5323SOL    HW216356   1.921   3.270  10.597
 5324SOL     OW16357   2.594   2.496  10.374
 5324SOL    HW116358   2.653   2.470  10.298
 5324SOL    HW216359   2.566   2.592  10.363
 5325SOL     OW16360   2.169   1.925   9.928
 5325SOL    HW116361   2.158   2.019   9.961
 5325SOL    HW216362   2.164   1.862  10.005
 5326SOL     OW16363   3.484   2.229   9.684
 5326SOL    HW116364   3.486   2.153   9.748
 5326SOL    HW216365   3.436   2.306   9.724
 5327SOL     OW16366   2.885   2.628  10.276
 5327SOL    HW116367   2.900   2.649  10.372
 5327SOL    HW216368   2.855   2.533  10.267
 5328SOL     OW16369   2.842   3.435  11.010
 5328SOL    HW116370   2.822   3.479  10.922
 5328SOL    HW216371   2.881   3.344  10.994
 5329SOL     OW16372   3.721   3.380  10.915
 5329SOL    HW116373   3.735   3.407  10.820
 5329SOL    HW216374   3.804   3.402  10.968
 5330SOL     OW16375   2.212   2.760  11.114
 5330SOL    HW116376   2.288   2.804  11.162
 5330SOL    HW216377   2.247   2.713  11.032
 5331SOL     OW16378   3.402   2.136   9.435
 5331SOL    HW116379   3.341   2.061   9.458
 5331SOL    HW216380   3.424   2.188   9.518
 5332SOL     OW16381   3.165   2.700   9.352
 5332SOL    HW116382   3.199   2.607   9.367
 5332SOL    HW216383   3.183   2.727   9.257
 5333SOL     OW16384   2.930   3.195  10.159
 5333SOL    HW116385   2.937   3.111  10.104
 5333SOL    HW216386   2.992   3.264  10.123
 5334SOL     OW16387   2.181   2.672  10.259
 5334SOL    HW116388   2.274   2.708  10.264
 5334SOL    HW216389   2.175   2.587  10.311
 5335SOL     OW16390   3.022   2.069  10.787
 5335SOL    HW116391   3.022   2.133  10.864
 5335SOL    HW216392   3.050   2.117  10.704
 5336SOL     OW16393   1.870   3.188   9.510
 5336SOL    HW116394   1.777   3.209   9.479
 5336SOL    HW216395   1.880   3.089   9.523
 5337SOL     OW16396   1.950   3.663  10.237
 5337SOL    HW116397   1.908   3.577  10.210
 5337SOL    HW216398   2.044   3.666  10.203
 5338SOL     OW16399   2.366   3.430  10.220
 5338SOL    HW116400   2.432   3.504  10.229
 5338SOL    HW216401   2.410   3.351  10.178
 5339SOL     OW16402   2.864   2.658  10.548
 5339SOL    HW116403   2.905   2.626  10.634
 5339SOL    HW216404   2.768   2.631  10.545
 5340SOL     OW16405   1.902   2.406  10.424
 5340SOL    HW116406   1.987   2.373  10.383
 5340SOL    HW216407   1.915   2.421  10.522
 5341SOL     OW16408   2.677   2.434   9.635
 5341SOL    HW116409   2.684   2.345   9.589
 5341SOL    HW216410   2.583   2.468   9.627
 5342SOL     OW16411   3.519   2.466  10.516
 5342SOL    HW116412   3.481   2.397  10.578
 5342SOL    HW216413   3.601   2.430  10.472
 5343SOL     OW16414   2.114   3.426  11.054
 5343SOL    HW116415   2.084   3.483  11.130
 5343SOL    HW216416   2.107   3.329  11.080
 5344SOL     OW16417   2.792   3.540  10.775
 5344SOL    HW116418   2.768   3.522  10.680
 5344SOL    HW216419   2.822   3.634  10.785
 5345SOL     OW16420   2.021   2.999  10.776
 5345SOL    HW116421   2.043   2.938  10.852
 5345SOL    HW216422   2.031   2.950  10.690
 5346SOL     OW16423   3.209   2.921  10.544
 5346SOL    HW116424   3.233   2.858  10.470
 5346SOL    HW216425   3.119   2.961  10.526
 5347SOL     OW16426   3.164   2.717   9.619
 5347SOL    HW116427   3.078   2.686   9.661
 5347SOL    HW216428   3.160   2.703   9.520
 5348SOL     OW16429   3.621   3.609  10.464
 5348SOL    HW116430   3.682   3.639  10.391
 5348SOL    HW216431   3.583   3.520  10.442
 5349SOL     OW16432   3.114   3.593  10.438
 5349SOL    HW116433   3.198   3.598  10.384
 5349SOL    HW216434   3.091   3.497  10.456
 5350SOL     OW16435   1.945   3.120  10.332
 5350SOL    HW116436   1.940   3.119  10.432
 5350SOL    HW216437   1.862   3.079  10.294
 5351SOL     OW16438   3.588   1.997   9.833
 5351SOL    HW116439   3.661   1.980   9.766
 5351SOL    HW216440   3.557   1.910   9.871
 5352SOL     OW16441   3.250   3.435   9.787
 5352SOL    HW116442   3.317   3.447   9.713
 5352SOL    HW216443   3.210   3.524   9.810
 5353SOL     OW16444   3.142   2.789   9.982
 5353SOL    HW116445   3.202   2.708   9.984
 5353SOL    HW216446   3.182   2.858   9.922
 5354SOL     OW16447   2.692   3.135  10.732
 5354SOL    HW116448   2.687   3.168  10.827
 5354SOL    HW216449   2.606   3.154  10.686
 5355SOL     OW16450   2.534   3.478   9.464
 5355SOL    HW116451   2.543   3.488   9.365
 5355SOL    HW216452   2.494   3.389   9.485
 5356SOL     OW16453   3.512   3.582  10.704
 5356SOL    HW116454   3.565   3.592  10.620
 5356SOL    HW216455   3.485   3.672  10.738
 5357SOL     OW16456   3.703   2.037  10.273
 5357SOL    HW116457   3.742   1.952  10.237
 5357SOL    HW216458   3.605   2.039  10.254
 5358SOL     OW16459   3.056   3.474   9.341
 5358SOL    HW116460   3.062   3.381   9.378
 5358SOL    HW216461   2.997   3.474   9.261
 5359SOL     OW16462   2.684   2.864  10.682
 5359SOL    HW116463   2.724   2.863  10.590
 5359SOL    HW216464   2.694   2.956  10.722
 5360SOL     OW16465   2.778   2.772   9.601
 5360SOL    HW116466   2.841   2.810   9.533
 5360SOL    HW216467   2.818   2.689   9.640
 5361SOL     OW16468   3.366   3.469   9.354
 5361SOL    HW116469   3.274   3.506   9.361
 5361SOL    HW216470   3.404   3.489   9.264
 5362SOL     OW16471   2.234   3.150  10.800
 5362SOL    HW116472   2.221   3.243  10.766
 5362SOL    HW216473   2.150   3.098  10.787
 5363SOL     OW16474   3.476   3.154  10.599
 5363SOL    HW116475   3.536   3.157  10.679
 5363SOL    HW216476   3.401   3.218  10.612
 5364SOL     OW16477   2.901   2.960  10.006
 5364SOL    HW116478   2.831   2.913  10.060
 5364SOL    HW216479   2.960   2.892   9.963
 5365SOL     OW16480   2.876   2.098  10.281
 5365SOL    HW116481   2.868   2.062  10.188
 5365SOL    HW216482   2.874   2.022  10.346
 5366SOL     OW16483   2.452   3.349   9.801
 5366SOL    HW116484   2.494   3.291   9.731
 5366SOL    HW216485   2.408   3.428   9.757
 5367SOL     OW16486   3.571   2.247  10.691
 5367SOL    HW116487   3.644   2.316  10.695
 5367SOL    HW216488   3.599   2.172  10.632
 5368SOL     OW16489   2.117   3.210   9.600
 5368SOL    HW116490   2.021   3.211   9.573
 5368SOL    HW216491   2.129   3.263   9.684
 5369SOL     OW16492   1.967   2.875  11.036
 5369SOL    HW116493   1.890   2.842  11.090
 5369SOL    HW216494   2.052   2.845  11.078
 5370SOL     OW16495   2.534   2.065  10.799
 5370SOL    HW116496   2.624   2.049  10.759
 5370SOL    HW216497   2.542   2.070  10.898
 5371SOL     OW16498   1.937   2.207   9.343
 5371SOL    HW116499   1.845   2.179   9.314
 5371SOL    HW216500   1.968   2.284   9.287
 5372SOL     OW16501   3.302   2.718  10.708
 5372SOL    HW116502   3.245   2.770  10.645
 5372SOL    HW216503   3.398   2.730  10.684
 5373SOL     OW16504   1.934   2.028   9.628
 5373SOL    HW116505   1.917   2.111   9.574
 5373SOL    HW216506   2.024   1.991   9.606
 5374SOL     OW16507   3.045   3.197   9.429
 5374SOL    HW116508   2.946   3.186   9.431
 5374SOL    HW216509   3.079   3.212   9.522
 5375SOL     OW16510   2.475   2.704  10.741
 5375SOL    HW116511   2.531   2.785  10.724
 5375SOL    HW216512   2.534   2.624  10.744
 5376SOL     OW16513   3.355   3.629  10.269
 5376SOL    HW116514   3.388   3.693  10.200
 5376SOL    HW216515   3.421   3.623  10.344
 5377SOL     OW16516   2.578   2.427  11.018
 5377SOL    HW116517   2.597   2.492  11.092
 5377SOL    HW216518   2.638   2.347  11.027
 5378SOL     OW16519   2.252   3.603  10.870
 5378SOL    HW116520   2.161   3.644  10.868
 5378SOL    HW216521   2.245   3.509  10.902
 5379SOL     OW16522   3.536   2.745  10.564
 5379SOL    HW116523   3.509   2.656  10.527
 5379SOL    HW216524   3.537   2.813  10.491
 5380SOL     OW16525   3.087   2.187   9.759
 5380SOL    HW116526   3.152   2.113   9.748
 5380SOL    HW216527   3.107   2.237   9.843
 5381SOL     OW16528   2.456   2.607   9.962
 5381SOL    HW116529   2.506   2.692   9.943
 5381SOL    HW216530   2.368   2.609   9.914
 5382SOL     OW16531   3.639   2.204  10.952
 5382SOL    HW116532   3.622   2.235  10.858
 5382SOL    HW216533   3.555   2.167  10.990
 5383SOL     OW16534   3.592   2.796  10.827
 5383SOL    HW116535   3.630   2.887  10.842
 5383SOL    HW216536   3.584   2.779  10.728
 5384SOL     OW16537   2.721   3.236   9.326
 5384SOL    HW116538   2.675   3.251   9.414
 5384SOL    HW216539   2.765   3.321   9.296
 5385SOL     OW16540   2.523   3.652  10.263
 5385SOL    HW116541   2.477   3.740  10.250
 5385SOL    HW216542   2.622   3.664  10.256
 5386SOL     OW16543   2.721   2.818  10.171
 5386SOL    HW116544   2.775   2.749  10.219
 5386SOL    HW216545   2.689   2.887  10.237
 5387SOL     OW16546   2.945   2.846   9.397
 5387SOL    HW116547   2.922   2.899   9.315
 5387SOL    HW216548   3.026   2.790   9.378
 5388SOL     OW16549   3.723   3.431  10.161
 5388SOL    HW116550   3.652   3.419  10.091
 5388SOL    HW216551   3.724   3.352  10.221
 5389SOL     OW16552   1.941   3.102   9.963
 5389SOL    HW116553   1.940   3.055  10.051
 5389SOL    HW216554   2.023   3.074   9.912
 5390SOL     OW16555   2.534   3.253  10.934
 5390SOL    HW116556   2.456   3.203  10.972
 5390SOL    HW216557   2.531   3.348  10.965
 5391SOL     OW16558   3.686   2.054  10.537
 5391SOL    HW116559   3.682   1.964  10.581
 5391SOL    HW216560   3.689   2.043  10.438
 5392SOL     OW16561   3.567   3.349  10.414
 5392SOL    HW116562   3.474   3.324  10.387
 5392SOL    HW216563   3.593   3.299  10.496
 5393SOL     OW16564   2.674   3.448   9.997
 5393SOL    HW116565   2.706   3.458   9.903
 5393SOL    HW216566   2.595   3.386   9.999
 5394SOL     OW16567   3.286   2.076  10.422
 5394SOL    HW116568   3.338   2.011  10.477
 5394SOL    HW216569   3.237   2.139  10.483
 5395SOL     OW16570   2.863   1.896  10.464
 5395SOL    HW116571   2.800   1.824  10.433
 5395SOL    HW216572   2.956   1.860  10.464
 5396SOL     OW16573   2.632   3.192   9.611
 5396SOL    HW116574   2.586   3.105   9.628
 5396SOL    HW216575   2.723   3.189   9.652
 5397SOL     OW16576   2.480   3.429  10.594
 5397SOL    HW116577   2.475   3.511  10.651
 5397SOL    HW216578   2.569   3.426  10.549
 5398SOL     OW16579   3.214   1.914   9.478
 5398SOL    HW116580   3.249   1.873   9.394
 5398SOL    HW216581   3.124   1.876   9.498
 5399SOL     OW16582   3.162   2.315  10.001
 5399SOL    HW116583   3.103   2.395  10.005
 5399SOL    HW216584   3.177   2.280  10.094
 5400SOL     OW16585   3.455   2.083  10.192
 5400SOL    HW116586   3.371   2.082  10.246
 5400SOL    HW216587   3.457   2.166  10.136
 5401SOL     OW16588   1.901   2.939   9.610
 5401SOL    HW116589   2.000   2.928   9.601
 5401SOL    HW216590   1.861   2.853   9.642
 5402SOL     OW16591   2.737   3.508   9.647
 5402SOL    HW116592   2.660   3.473   9.593
 5402SOL    HW216593   2.705   3.579   9.709
 5403SOL     OW16594   2.092   4.352   0.113
 5403SOL    HW116595   1.999   4.350   0.150
 5403SOL    HW216596   2.093   4.313   0.021
 5404SOL     OW16597   2.087   3.999   0.996
 5404SOL    HW116598   2.122   3.982   1.088
 5404SOL    HW216599   1.999   3.954   0.984
 5405SOL     OW16600   1.881   4.092   0.647
 5405SOL    HW116601   1.799   4.135   0.686
 5405SOL    HW216602   1.853   4.019   0.584
 5406SOL     OW16603   3.617   4.331   0.231
 5406SOL    HW116604   3.605   4.318   0.132
 5406SOL    HW216605   3.587   4.250   0.280
 5407SOL     OW16606   2.547   4.736   0.665
 5407SOL    HW116607   2.616   4.720   0.735
 5407SOL    HW216608   2.474   4.793   0.703
 5408SOL     OW16609   2.300   4.116   1.499
 5408SOL    HW116610   2.382   4.060   1.508
 5408SOL    HW216611   2.219   4.058   1.503
 5409SOL     OW16612   3.465   4.171   0.737
 5409SOL    HW116613   3.391   4.217   0.687
 5409SOL    HW216614   3.516   4.239   0.790
 5410SOL     OW16615   3.456   3.838   1.480
 5410SOL    HW116616   3.438   3.905   1.408
 5410SOL    HW216617   3.453   3.884   1.569
 5411SOL     OW16618   1.984   4.367   0.563
 5411SOL    HW116619   1.939   4.279   0.580
 5411SOL    HW216620   1.983   4.421   0.647
 5412SOL     OW16621   1.975   4.461   1.597
 5412SOL    HW116622   2.063   4.448   1.642
 5412SOL    HW216623   1.962   4.558   1.575
 5413SOL     OW16624   2.671   3.728   0.502
 5413SOL    HW116625   2.711   3.819   0.493
 5413SOL    HW216626   2.571   3.736   0.508
 5414SOL     OW16627   2.179   3.975   1.801
 5414SOL    HW116628   2.250   4.046   1.807
 5414SOL    HW216629   2.091   4.014   1.829
 5415SOL     OW16630   3.143   4.069   0.944
 5415SOL    HW116631   3.057   4.019   0.931
 5415SOL    HW216632   3.205   4.015   1.000
 5416SOL     OW16633   2.669   4.329   1.465
 5416SOL    HW116634   2.622   4.326   1.554
 5416SOL    HW216635   2.618   4.274   1.399
 5417SOL     OW16636   3.256   4.193   1.674
 5417SOL    HW116637   3.236   4.236   1.762
 5417SOL    HW216638   3.334   4.131   1.683
 5418SOL     OW16639   2.853   4.134   1.242
 5418SOL    HW116640   2.776   4.168   1.296
 5418SOL    HW216641   2.819   4.083   1.163
 5419SOL     OW16642   2.903   4.425   0.429
 5419SOL    HW116643   2.929   4.421   0.525
 5419SOL    HW216644   2.818   4.374   0.415
 5420SOL     OW16645   2.727   4.072   0.195
 5420SOL    HW116646   2.786   4.135   0.146
 5420SOL    HW216647   2.746   3.978   0.166
 5421SOL     OW16648   3.581   4.309   1.831
 5421SOL    HW116649   3.555   4.398   1.795
 5421SOL    HW216650   3.579   4.241   1.758
 5422SOL     OW16651   2.412   3.920   0.885
 5422SOL    HW116652   2.407   3.915   0.985
 5422SOL    HW216653   2.414   4.016   0.856
 5423SOL     OW16654   3.320   4.459   0.728
 5423SOL    HW116655   3.315   4.394   0.803
 5423SOL    HW216656   3.400   4.518   0.741
 5424SOL     OW16657   2.064   4.009   1.498
 5424SOL    HW116658   1.984   4.069   1.485
 5424SOL    HW216659   2.054   3.960   1.584
 5425SOL     OW16660   3.262   3.831   0.426
 5425SOL    HW116661   3.238   3.794   0.336
 5425SOL    HW216662   3.361   3.847   0.430
 5426SOL     OW16663   2.244   4.424   0.480
 5426SOL    HW116664   2.289   4.334   0.477
 5426SOL    HW216665   2.150   4.413   0.513
 5427SOL     OW16666   3.409   3.946   1.729
 5427SOL    HW116667   3.404   3.983   1.821
 5427SOL    HW216668   3.337   3.877   1.717
 5428SOL     OW16669   2.476   3.846   0.117
 5428SOL    HW116670   2.574   3.824   0.124
 5428SOL    HW216671   2.445   3.829   0.024
 5429SOL     OW16672   2.643   3.988   1.749
 5429SOL    HW116673   2.710   3.927   1.792
 5429SOL    HW216674   2.570   4.007   1.814
 5430SOL     OW16675   3.213   4.314   1.433
 5430SOL    HW116676   3.241   4.271   1.518
 5430SOL    HW216677   3.238   4.410   1.434
 5431SOL     OW16678   2.784   4.227   0.899
 5431SOL    HW116679   2.759   4.218   0.803
 5431SOL    HW216680   2.832   4.145   0.930
 5432SOL     OW16681   2.401   3.788   0.512
 5432SOL    HW116682   2.320   3.789   0.570
 5432SOL    HW216683   2.404   3.871   0.457
 5433SOL     OW16684   2.159   3.759   0.171
 5433SOL    HW116685   2.208   3.843   0.150
 5433SOL    HW216686   2.221   3.694   0.216
 5434SOL     OW16687   2.797   3.960   0.480
 5434SOL    HW116688   2.749   4.001   0.402
 5434SOL    HW216689   2.896   3.958   0.461
 5435SOL     OW16690   2.938   4.407   1.464
 5435SOL    HW116691   2.858   4.346   1.467
 5435SOL    HW216692   3.019   4.354   1.440
 5436SOL     OW16693   2.894   4.273   0.016
 5436SOL    HW116694   2.853   4.355  -0.023
 5436SOL    HW216695   2.958   4.299   0.089
 5437SOL     OW16696   1.940   4.280   1.386
 5437SOL    HW116697   2.032   4.279   1.345
 5437SOL    HW216698   1.934   4.354   1.453
 5438SOL     OW16699   2.423   3.946   1.147
 5438SOL    HW116700   2.461   3.862   1.184
 5438SOL    HW216701   2.335   3.965   1.191
 5439SOL     OW16702   2.728   4.178   0.642
 5439SOL    HW116703   2.696   4.250   0.580
 5439SOL    HW216704   2.752   4.097   0.589
 5440SOL     OW16705   2.879   3.763   0.753
 5440SOL    HW116706   2.807   3.768   0.684
 5440SOL    HW216707   2.855   3.694   0.822
 5441SOL     OW16708   3.328   4.314   0.992
 5441SOL    HW116709   3.298   4.219   0.999
 5441SOL    HW216710   3.401   4.330   1.058
 5442SOL     OW16711   3.252   4.299   0.078
 5442SOL    HW116712   3.198   4.278   0.159
 5442SOL    HW216713   3.343   4.258   0.087
 5443SOL     OW16714   2.389   3.980   0.328
 5443SOL    HW116715   2.416   3.921   0.253
 5443SOL    HW216716   2.389   4.075   0.297
 5444SOL     OW16717   2.777   3.813   1.402
 5444SOL    HW116718   2.802   3.793   1.307
 5444SOL    HW216719   2.849   3.869   1.444
 5445SOL     OW16720   2.272   4.537   1.251
 5445SOL    HW116721   2.358   4.549   1.301
 5445SOL    HW216722   2.230   4.450   1.278
 5446SOL     OW16723   3.136   4.110   1.262
 5446SOL    HW116724   3.157   4.184   1.326
 5446SOL    HW216725   3.047   4.127   1.219
 5447SOL     OW16726   2.428   4.261   0.865
 5447SOL    HW116727   2.440   4.327   0.791
 5447SOL    HW216728   2.474   4.295   0.948
 5448SOL     OW16729   3.444   4.363   0.472
 5448SOL    HW116730   3.413   4.424   0.545
 5448SOL    HW216731   3.494   4.415   0.403
 5449SOL     OW16732   2.875   3.829   1.770
 5449SOL    HW116733   2.881   3.914   1.718
 5449SOL    HW216734   2.907   3.753   1.713
 5450SOL     OW16735   2.366   3.774   1.740
 5450SOL    HW116736   2.324   3.717   1.670
 5450SOL    HW216737   2.300   3.843   1.772
 5451SOL     OW16738   3.071   4.249   0.275
 5451SOL    HW116739   3.084   4.165   0.329
 5451SOL    HW216740   3.042   4.323   0.335
 5452SOL     OW16741   2.169   3.937   1.231
 5452SOL    HW116742   2.146   3.974   1.321
 5452SOL    HW216743   2.139   3.842   1.225
 5453SOL     OW16744   2.594   4.358   1.064
 5453SOL    HW116745   2.653   4.332   0.988
 5453SOL    HW216746   2.566   4.454   1.053
 5454SOL     OW16747   3.590   4.659   1.854
 5454SOL    HW116748   3.544   4.652   1.765
 5454SOL    HW216749   3.528   4.703   1.920
 5455SOL     OW16750   2.169   3.787   0.618
 5455SOL    HW116751   2.158   3.881   0.651
 5455SOL    HW216752   2.164   3.724   0.695
 5456SOL     OW16753   3.484   4.091   0.374
 5456SOL    HW116754   3.486   4.015   0.438
 5456SOL    HW216755   3.436   4.168   0.414
 5457SOL     OW16756   3.402   3.998   0.125
 5457SOL    HW116757   3.341   3.923   0.148
 5457SOL    HW216758   3.424   4.050   0.208
 5458SOL     OW16759   2.181   4.534   0.949
 5458SOL    HW116760   2.274   4.570   0.954
 5458SOL    HW216761   2.175   4.449   1.001
 5459SOL     OW16762   2.201   4.233   1.006
 5459SOL    HW116763   2.149   4.150   0.989
 5459SOL    HW216764   2.278   4.238   0.942
 5460SOL     OW16765   3.000   4.104   1.678
 5460SOL    HW116766   2.955   4.167   1.742
 5460SOL    HW216767   3.093   4.135   1.661
 5461SOL     OW16768   3.022   3.931   1.477
 5461SOL    HW116769   3.022   3.995   1.554
 5461SOL    HW216770   3.050   3.979   1.394
 5462SOL     OW16771   1.902   4.268   1.114
 5462SOL    HW116772   1.987   4.235   1.073
 5462SOL    HW216773   1.915   4.283   1.212
 5463SOL     OW16774   2.051   4.244   1.722
 5463SOL    HW116775   2.110   4.204   1.652
 5463SOL    HW216776   1.993   4.315   1.681
 5464SOL     OW16777   2.677   4.296   0.325
 5464SOL    HW116778   2.684   4.207   0.279
 5464SOL    HW216779   2.583   4.330   0.317
 5465SOL     OW16780   3.519   4.328   1.206
 5465SOL    HW116781   3.481   4.259   1.268
 5465SOL    HW216782   3.601   4.292   1.162
 5466SOL     OW16783   2.533   4.188   1.269
 5466SOL    HW116784   2.499   4.099   1.239
 5466SOL    HW216785   2.559   4.242   1.189
 5467SOL     OW16786   2.335   4.224   0.191
 5467SOL    HW116787   2.396   4.304   0.195
 5467SOL    HW216788   2.240   4.255   0.198
 5468SOL     OW16789   2.765   3.810   0.133
 5468SOL    HW116790   2.816   3.811   0.047
 5468SOL    HW216791   2.821   3.768   0.204
 5469SOL     OW16792   3.588   3.859   0.523
 5469SOL    HW116793   3.661   3.842   0.456
 5469SOL    HW216794   3.557   3.772   0.561
 5470SOL     OW16795   3.142   4.651   0.672
 5470SOL    HW116796   3.202   4.570   0.674
 5470SOL    HW216797   3.182   4.720   0.612
 5471SOL     OW16798   3.703   3.899   0.963
 5471SOL    HW116799   3.742   3.814   0.927
 5471SOL    HW216800   3.605   3.901   0.944
 5472SOL     OW16801   2.125   4.050   0.720
 5472SOL    HW116802   2.046   4.101   0.686
 5472SOL    HW216803   2.116   4.035   0.818
 5473SOL     OW16804   2.901   4.822   0.696
 5473SOL    HW116805   2.831   4.775   0.750
 5473SOL    HW216806   2.960   4.754   0.653
 5474SOL     OW16807   2.876   3.960   0.971
 5474SOL    HW116808   2.868   3.924   0.878
 5474SOL    HW216809   2.874   3.884   1.036
 5475SOL     OW16810   3.571   4.109   1.381
 5475SOL    HW116811   3.644   4.178   1.385
 5475SOL    HW216812   3.599   4.034   1.322
 5476SOL     OW16813   2.534   3.927   1.489
 5476SOL    HW116814   2.624   3.911   1.449
 5476SOL    HW216815   2.542   3.932   1.588
 5477SOL     OW16816   1.937   4.069   0.033
 5477SOL    HW116817   1.845   4.041   0.004
 5477SOL    HW216818   1.968   4.146  -0.023
 5478SOL     OW16819   1.934   3.890   0.318
 5478SOL    HW116820   1.917   3.973   0.264
 5478SOL    HW216821   2.024   3.853   0.296
 5479SOL     OW16822   2.578   4.289   1.708
 5479SOL    HW116823   2.597   4.354   1.782
 5479SOL    HW216824   2.638   4.209   1.717
 5480SOL     OW16825   3.087   4.049   0.449
 5480SOL    HW116826   3.152   3.975   0.438
 5480SOL    HW216827   3.107   4.099   0.533
 5481SOL     OW16828   3.639   4.066   1.642
 5481SOL    HW116829   3.622   4.097   1.548
 5481SOL    HW216830   3.555   4.029   1.680
 5482SOL     OW16831   2.945   4.708   0.087
 5482SOL    HW116832   2.922   4.761   0.005
 5482SOL    HW216833   3.026   4.652   0.068
 5483SOL     OW16834   3.686   3.916   1.227
 5483SOL    HW116835   3.682   3.826   1.271
 5483SOL    HW216836   3.689   3.905   1.128
 5484SOL     OW16837   2.290   4.148   0.520
 5484SOL    HW116838   2.320   4.076   0.458
 5484SOL    HW216839   2.251   4.108   0.603
 5485SOL     OW16840   2.179   4.271   1.280
 5485SOL    HW116841   2.217   4.212   1.352
 5485SOL    HW216842   2.219   4.245   1.192
 5486SOL     OW16843   3.286   3.938   1.112
 5486SOL    HW116844   3.338   3.873   1.167
 5486SOL    HW216845   3.237   4.001   1.173
 5487SOL     OW16846   2.863   3.758   1.154
 5487SOL    HW116847   2.800   3.686   1.123
 5487SOL    HW216848   2.956   3.722   1.154
 5488SOL     OW16849   3.214   3.776   0.168
 5488SOL    HW116850   3.249   3.735   0.084
 5488SOL    HW216851   3.124   3.738   0.188
 5489SOL     OW16852   3.162   4.177   0.691
 5489SOL    HW116853   3.103   4.257   0.695
 5489SOL    HW216854   3.177   4.142   0.784
 5490SOL     OW16855   3.455   3.945   0.882
 5490SOL    HW116856   3.371   3.944   0.936
 5490SOL    HW216857   3.457   4.028   0.826
 5491SOL     OW16858   2.092   4.352   1.975
 5491SOL    HW116859   1.999   4.350   2.012
 5491SOL    HW216860   2.093   4.313   1.883
 5492SOL     OW16861   2.087   3.999   2.858
 5492SOL    HW116862   2.122   3.982   2.950
 5492SOL    HW216863   1.999   3.954   2.846
 5493SOL     OW16864   1.881   4.092   2.509
 5493SOL    HW116865   1.799   4.135   2.548
 5493SOL    HW216866   1.853   4.019   2.446
 5494SOL     OW16867   3.617   4.331   2.093
 5494SOL    HW116868   3.605   4.318   1.994
 5494SOL    HW216869   3.587   4.250   2.142
 5495SOL     OW16870   2.547   4.736   2.527
 5495SOL    HW116871   2.616   4.720   2.597
 5495SOL    HW216872   2.474   4.793   2.565
 5496SOL     OW16873   2.300   4.116   3.361
 5496SOL    HW116874   2.382   4.060   3.370
 5496SOL    HW216875   2.219   4.058   3.365
 5497SOL     OW16876   3.465   4.171   2.599
 5497SOL    HW116877   3.391   4.217   2.549
 5497SOL    HW216878   3.516   4.239   2.652
 5498SOL     OW16879   3.456   3.838   3.342
 5498SOL    HW116880   3.438   3.905   3.270
 5498SOL    HW216881   3.453   3.884   3.431
 5499SOL     OW16882   1.984   4.367   2.425
 5499SOL    HW116883   1.939   4.279   2.442
 5499SOL    HW216884   1.983   4.421   2.509
 5500SOL     OW16885   1.975   4.461   3.459
 5500SOL    HW116886   2.063   4.448   3.504
 5500SOL    HW216887   1.962   4.558   3.437
 5501SOL     OW16888   2.671   3.728   2.364
 5501SOL    HW116889   2.711   3.819   2.355
 5501SOL    HW216890   2.571   3.736   2.370
 5502SOL     OW16891   2.179   3.975   3.663
 5502SOL    HW116892   2.250   4.046   3.669
 5502SOL    HW216893   2.091   4.014   3.691
 5503SOL     OW16894   3.143   4.069   2.806
 5503SOL    HW116895   3.057   4.019   2.793
 5503SOL    HW216896   3.205   4.015   2.862
 5504SOL     OW16897   2.669   4.329   3.327
 5504SOL    HW116898   2.622   4.326   3.416
 5504SOL    HW216899   2.618   4.274   3.261
 5505SOL     OW16900   3.256   4.193   3.536
 5505SOL    HW116901   3.236   4.236   3.624
 5505SOL    HW216902   3.334   4.131   3.545
 5506SOL     OW16903   2.853   4.134   3.104
 5506SOL    HW116904   2.776   4.168   3.158
 5506SOL    HW216905   2.819   4.083   3.025
 5507SOL     OW16906   2.903   4.425   2.291
 5507SOL    HW116907   2.929   4.421   2.387
 5507SOL    HW216908   2.818   4.374   2.277
 5508SOL     OW16909   2.727   4.072   2.057
 5508SOL    HW116910   2.786   4.135   2.008
 5508SOL    HW216911   2.746   3.978   2.028
 5509SOL     OW16912   3.581   4.309   3.693
 5509SOL    HW116913   3.555   4.398   3.657
 5509SOL    HW216914   3.579   4.241   3.620
 5510SOL     OW16915   2.412   3.920   2.747
 5510SOL    HW116916   2.407   3.915   2.847
 5510SOL    HW216917   2.414   4.016   2.718
 5511SOL     OW16918   3.320   4.459   2.590
 5511SOL    HW116919   3.315   4.394   2.665
 5511SOL    HW216920   3.400   4.518   2.603
 5512SOL     OW16921   2.064   4.009   3.360
 5512SOL    HW116922   1.984   4.069   3.347
 5512SOL    HW216923   2.054   3.960   3.446
 5513SOL     OW16924   3.262   3.831   2.288
 5513SOL    HW116925   3.238   3.794   2.198
 5513SOL    HW216926   3.361   3.847   2.292
 5514SOL     OW16927   2.244   4.424   2.342
 5514SOL    HW116928   2.289   4.334   2.339
 5514SOL    HW216929   2.150   4.413   2.375
 5515SOL     OW16930   3.409   3.946   3.591
 5515SOL    HW116931   3.404   3.983   3.683
 5515SOL    HW216932   3.337   3.877   3.579
 5516SOL     OW16933   2.476   3.846   1.979
 5516SOL    HW116934   2.574   3.824   1.986
 5516SOL    HW216935   2.445   3.829   1.886
 5517SOL     OW16936   2.643   3.988   3.611
 5517SOL    HW116937   2.710   3.927   3.654
 5517SOL    HW216938   2.570   4.007   3.676
 5518SOL     OW16939   3.213   4.314   3.295
 5518SOL    HW116940   3.241   4.271   3.380
 5518SOL    HW216941   3.238   4.410   3.296
 5519SOL     OW16942   2.784   4.227   2.761
 5519SOL    HW116943   2.759   4.218   2.665
 5519SOL    HW216944   2.832   4.145   2.792
 5520SOL     OW16945   2.401   3.788   2.374
 5520SOL    HW116946   2.320   3.789   2.432
 5520SOL    HW216947   2.404   3.871   2.319
 5521SOL     OW16948   2.159   3.759   2.033
 5521SOL    HW116949   2.208   3.843   2.012
 5521SOL    HW216950   2.221   3.694   2.078
 5522SOL     OW16951   2.797   3.960   2.342
 5522SOL    HW116952   2.749   4.001   2.264
 5522SOL    HW216953   2.896   3.958   2.323
 5523SOL     OW16954   2.938   4.407   3.326
 5523SOL    HW116955   2.858   4.346   3.329
 5523SOL    HW216956   3.019   4.354   3.302
 5524SOL     OW16957   2.894   4.273   1.878
 5524SOL    HW116958   2.853   4.355   1.839
 5524SOL    HW216959   2.958   4.299   1.951
 5525SOL     OW16960   1.940   4.280   3.248
 5525SOL    HW116961   2.032   4.279   3.207
 5525SOL    HW216962   1.934   4.354   3.315
 5526SOL     OW16963   2.423   3.946   3.009
 5526SOL    HW116964   2.461   3.862   3.046
 5526SOL    HW216965   2.335   3.965   3.053
 5527SOL     OW16966   2.728   4.178   2.504
 5527SOL    HW116967   2.696   4.250   2.442
 5527SOL    HW216968   2.752   4.097   2.451
 5528SOL     OW16969   2.879   3.763   2.615
 5528SOL    HW116970   2.807   3.768   2.546
 5528SOL    HW216971   2.855   3.694   2.684
 5529SOL     OW16972   3.328   4.314   2.854
 5529SOL    HW116973   3.298   4.219   2.861
 5529SOL    HW216974   3.401   4.330   2.920
 5530SOL     OW16975   3.252   4.299   1.940
 5530SOL    HW116976   3.198   4.278   2.021
 5530SOL    HW216977   3.343   4.258   1.949
 5531SOL     OW16978   2.389   3.980   2.190
 5531SOL    HW116979   2.416   3.921   2.115
 5531SOL    HW216980   2.389   4.075   2.159
 5532SOL     OW16981   2.777   3.813   3.264
 5532SOL    HW116982   2.802   3.793   3.169
 5532SOL    HW216983   2.849   3.869   3.306
 5533SOL     OW16984   2.272   4.537   3.113
 5533SOL    HW116985   2.358   4.549   3.163
 5533SOL    HW216986   2.230   4.450   3.140
 5534SOL     OW16987   3.136   4.110   3.124
 5534SOL    HW116988   3.157   4.184   3.188
 5534SOL    HW216989   3.047   4.127   3.081
 5535SOL     OW16990   2.428   4.261   2.727
 5535SOL    HW116991   2.440   4.327   2.653
 5535SOL    HW216992   2.474   4.295   2.810
 5536SOL     OW16993   3.444   4.363   2.334
 5536SOL    HW116994   3.413   4.424   2.407
 5536SOL    HW216995   3.494   4.415   2.265
 5537SOL     OW16996   2.875   3.829   3.632
 5537SOL    HW116997   2.881   3.914   3.580
 5537SOL    HW216998   2.907   3.753   3.575
 5538SOL     OW16999   2.366   3.774   3.602
 5538SOL    HW117000   2.324   3.717   3.532
 5538SOL    HW217001   2.300   3.843   3.634
 5539SOL     OW17002   3.071   4.249   2.137
 5539SOL    HW117003   3.084   4.165   2.191
 5539SOL    HW217004   3.042   4.323   2.197
 5540SOL     OW17005   2.169   3.937   3.093
 5540SOL    HW117006   2.146   3.974   3.183
 5540SOL    HW217007   2.139   3.842   3.087
 5541SOL     OW17008   2.594   4.358   2.926
 5541SOL    HW117009   2.653   4.332   2.850
 5541SOL    HW217010   2.566   4.454   2.915
 5542SOL     OW17011   3.590   4.659   3.716
 5542SOL    HW117012   3.544   4.652   3.627
 5542SOL    HW217013   3.528   4.703   3.782
 5543SOL     OW17014   2.169   3.787   2.480
 5543SOL    HW117015   2.158   3.881   2.513
 5543SOL    HW217016   2.164   3.724   2.557
 5544SOL     OW17017   3.484   4.091   2.236
 5544SOL    HW117018   3.486   4.015   2.300
 5544SOL    HW217019   3.436   4.168   2.276
 5545SOL     OW17020   3.402   3.998   1.987
 5545SOL    HW117021   3.341   3.923   2.010
 5545SOL    HW217022   3.424   4.050   2.070
 5546SOL     OW17023   2.181   4.534   2.811
 5546SOL    HW117024   2.274   4.570   2.816
 5546SOL    HW217025   2.175   4.449   2.863
 5547SOL     OW17026   2.201   4.233   2.868
 5547SOL    HW117027   2.149   4.150   2.851
 5547SOL    HW217028   2.278   4.238   2.804
 5548SOL     OW17029   3.000   4.104   3.540
 5548SOL    HW117030   2.955   4.167   3.604
 5548SOL    HW217031   3.093   4.135   3.523
 5549SOL     OW17032   3.022   3.931   3.339
 5549SOL    HW117033   3.022   3.995   3.416
 5549SOL    HW217034   3.050   3.979   3.256
 5550SOL     OW17035   1.902   4.268   2.976
 5550SOL    HW117036   1.987   4.235   2.935
 5550SOL    HW217037   1.915   4.283   3.074
 5551SOL     OW17038   2.051   4.244   3.584
 5551SOL    HW117039   2.110   4.204   3.514
 5551SOL    HW217040   1.993   4.315   3.543
 5552SOL     OW17041   2.677   4.296   2.187
 5552SOL    HW117042   2.684   4.207   2.141
 5552SOL    HW217043   2.583   4.330   2.179
 5553SOL     OW17044   3.519   4.328   3.068
 5553SOL    HW117045   3.481   4.259   3.130
 5553SOL    HW217046   3.601   4.292   3.024
 5554SOL     OW17047   2.533   4.188   3.131
 5554SOL    HW117048   2.499   4.099   3.101
 5554SOL    HW217049   2.559   4.242   3.051
 5555SOL     OW17050   2.335   4.224   2.053
 5555SOL    HW117051   2.396   4.304   2.057
 5555SOL    HW217052   2.240   4.255   2.060
 5556SOL     OW17053   3.588   3.859   2.385
 5556SOL    HW117054   3.661   3.842   2.318
 5556SOL    HW217055   3.557   3.772   2.423
 5557SOL     OW17056   3.142   4.651   2.534
 5557SOL    HW117057   3.202   4.570   2.536
 5557SOL    HW217058   3.182   4.720   2.474
 5558SOL     OW17059   3.703   3.899   2.825
 5558SOL    HW117060   3.742   3.814   2.789
 5558SOL    HW217061   3.605   3.901   2.806
 5559SOL     OW17062   2.125   4.050   2.582
 5559SOL    HW117063   2.046   4.101   2.548
 5559SOL    HW217064   2.116   4.035   2.680
 5560SOL     OW17065   2.778   4.634   2.153
 5560SOL    HW117066   2.841   4.672   2.085
 5560SOL    HW217067   2.818   4.551   2.192
 5561SOL     OW17068   2.901   4.822   2.558
 5561SOL    HW117069   2.831   4.775   2.612
 5561SOL    HW217070   2.960   4.754   2.515
 5562SOL     OW17071   2.876   3.960   2.833
 5562SOL    HW117072   2.868   3.924   2.740
 5562SOL    HW217073   2.874   3.884   2.898
 5563SOL     OW17074   3.571   4.109   3.243
 5563SOL    HW117075   3.644   4.178   3.247
 5563SOL    HW217076   3.599   4.034   3.184
 5564SOL     OW17077   2.534   3.927   3.351
 5564SOL    HW117078   2.624   3.911   3.311
 5564SOL    HW217079   2.542   3.932   3.450
 5565SOL     OW17080   1.937   4.069   1.895
 5565SOL    HW117081   1.845   4.041   1.866
 5565SOL    HW217082   1.968   4.146   1.839
 5566SOL     OW17083   1.934   3.890   2.180
 5566SOL    HW117084   1.917   3.973   2.126
 5566SOL    HW217085   2.024   3.853   2.158
 5567SOL     OW17086   2.578   4.289   3.570
 5567SOL    HW117087   2.597   4.354   3.644
 5567SOL    HW217088   2.638   4.209   3.579
 5568SOL     OW17089   3.087   4.049   2.311
 5568SOL    HW117090   3.152   3.975   2.300
 5568SOL    HW217091   3.107   4.099   2.395
 5569SOL     OW17092   3.639   4.066   3.504
 5569SOL    HW117093   3.622   4.097   3.410
 5569SOL    HW217094   3.555   4.029   3.542
 5570SOL     OW17095   2.945   4.708   1.949
 5570SOL    HW117096   2.922   4.761   1.867
 5570SOL    HW217097   3.026   4.652   1.930
 5571SOL     OW17098   3.686   3.916   3.089
 5571SOL    HW117099   3.682   3.826   3.133
 5571SOL    HW217100   3.689   3.905   2.990
 5572SOL     OW17101   2.290   4.148   2.382
 5572SOL    HW117102   2.320   4.076   2.320
 5572SOL    HW217103   2.251   4.108   2.465
 5573SOL     OW17104   2.179   4.271   3.142
 5573SOL    HW117105   2.217   4.212   3.214
 5573SOL    HW217106   2.219   4.245   3.054
 5574SOL     OW17107   3.286   3.938   2.974
 5574SOL    HW117108   3.338   3.873   3.029
 5574SOL    HW217109   3.237   4.001   3.035
 5575SOL     OW17110   2.863   3.758   3.016
 5575SOL    HW117111   2.800   3.686   2.985
 5575SOL    HW217112   2.956   3.722   3.016
 5576SOL     OW17113   3.214   3.776   2.030
 5576SOL    HW117114   3.249   3.735   1.946
 5576SOL    HW217115   3.124   3.738   2.050
 5577SOL     OW17116   3.162   4.177   2.553
 5577SOL    HW117117   3.103   4.257   2.557
 5577SOL    HW217118   3.177   4.142   2.646
 5578SOL     OW17119   3.455   3.945   2.744
 5578SOL    HW117120   3.371   3.944   2.798
 5578SOL    HW217121   3.457   4.028   2.688
 5579SOL     OW17122   2.092   4.352   3.837
 5579SOL    HW117123   1.999   4.350   3.874
 5579SOL    HW217124   2.093   4.313   3.745
 5580SOL     OW17125   2.087   3.999   4.720
 5580SOL    HW117126   2.122   3.982   4.812
 5580SOL    HW217127   1.999   3.954   4.708
 5581SOL     OW17128   1.881   4.092   4.371
 5581SOL    HW117129   1.799   4.135   4.410
 5581SOL    HW217130   1.853   4.019   4.308
 5582SOL     OW17131   3.617   4.331   3.955
 5582SOL    HW117132   3.605   4.318   3.856
 5582SOL    HW217133   3.587   4.250   4.004
 5583SOL     OW17134   2.547   4.736   4.389
 5583SOL    HW117135   2.616   4.720   4.459
 5583SOL    HW217136   2.474   4.793   4.427
 5584SOL     OW17137   2.300   4.116   5.223
 5584SOL    HW117138   2.382   4.060   5.232
 5584SOL    HW217139   2.219   4.058   5.227
 5585SOL     OW17140   3.465   4.171   4.461
 5585SOL    HW117141   3.391   4.217   4.411
 5585SOL    HW217142   3.516   4.239   4.514
 5586SOL     OW17143   3.456   3.838   5.204
 5586SOL    HW117144   3.438   3.905   5.132
 5586SOL    HW217145   3.453   3.884   5.293
 5587SOL     OW17146   1.984   4.367   4.287
 5587SOL    HW117147   1.939   4.279   4.304
 5587SOL    HW217148   1.983   4.421   4.371
 5588SOL     OW17149   1.975   4.461   5.321
 5588SOL    HW117150   2.063   4.448   5.366
 5588SOL    HW217151   1.962   4.558   5.299
 5589SOL     OW17152   2.671   3.728   4.226
 5589SOL    HW117153   2.711   3.819   4.217
 5589SOL    HW217154   2.571   3.736   4.232
 5590SOL     OW17155   2.179   3.975   5.525
 5590SOL    HW117156   2.250   4.046   5.531
 5590SOL    HW217157   2.091   4.014   5.553
 5591SOL     OW17158   3.143   4.069   4.668
 5591SOL    HW117159   3.057   4.019   4.655
 5591SOL    HW217160   3.205   4.015   4.724
 5592SOL     OW17161   2.669   4.329   5.189
 5592SOL    HW117162   2.622   4.326   5.278
 5592SOL    HW217163   2.618   4.274   5.123
 5593SOL     OW17164   3.256   4.193   5.398
 5593SOL    HW117165   3.236   4.236   5.486
 5593SOL    HW217166   3.334   4.131   5.407
 5594SOL     OW17167   2.853   4.134   4.966
 5594SOL    HW117168   2.776   4.168   5.020
 5594SOL    HW217169   2.819   4.083   4.887
 5595SOL     OW17170   2.903   4.425   4.153
 5595SOL    HW117171   2.929   4.421   4.249
 5595SOL    HW217172   2.818   4.374   4.139
 5596SOL     OW17173   2.727   4.072   3.919
 5596SOL    HW117174   2.786   4.135   3.870
 5596SOL    HW217175   2.746   3.978   3.890
 5597SOL     OW17176   3.581   4.309   5.555
 5597SOL    HW117177   3.555   4.398   5.519
 5597SOL    HW217178   3.579   4.241   5.482
 5598SOL     OW17179   2.412   3.920   4.609
 5598SOL    HW117180   2.407   3.915   4.709
 5598SOL    HW217181   2.414   4.016   4.580
 5599SOL     OW17182   3.320   4.459   4.452
 5599SOL    HW117183   3.315   4.394   4.527
 5599SOL    HW217184   3.400   4.518   4.465
 5600SOL     OW17185   2.064   4.009   5.222
 5600SOL    HW117186   1.984   4.069   5.209
 5600SOL    HW217187   2.054   3.960   5.308
 5601SOL     OW17188   3.262   3.831   4.150
 5601SOL    HW117189   3.238   3.794   4.060
 5601SOL    HW217190   3.361   3.847   4.154
 5602SOL     OW17191   2.244   4.424   4.204
 5602SOL    HW117192   2.289   4.334   4.201
 5602SOL    HW217193   2.150   4.413   4.237
 5603SOL     OW17194   3.409   3.946   5.453
 5603SOL    HW117195   3.404   3.983   5.545
 5603SOL    HW217196   3.337   3.877   5.441
 5604SOL     OW17197   2.476   3.846   3.841
 5604SOL    HW117198   2.574   3.824   3.848
 5604SOL    HW217199   2.445   3.829   3.748
 5605SOL     OW17200   2.643   3.988   5.473
 5605SOL    HW117201   2.710   3.927   5.516
 5605SOL    HW217202   2.570   4.007   5.538
 5606SOL     OW17203   3.213   4.314   5.157
 5606SOL    HW117204   3.241   4.271   5.242
 5606SOL    HW217205   3.238   4.410   5.158
 5607SOL     OW17206   2.784   4.227   4.623
 5607SOL    HW117207   2.759   4.218   4.527
 5607SOL    HW217208   2.832   4.145   4.654
 5608SOL     OW17209   2.401   3.788   4.236
 5608SOL    HW117210   2.320   3.789   4.294
 5608SOL    HW217211   2.404   3.871   4.181
 5609SOL     OW17212   2.159   3.759   3.895
 5609SOL    HW117213   2.208   3.843   3.874
 5609SOL    HW217214   2.221   3.694   3.940
 5610SOL     OW17215   2.797   3.960   4.204
 5610SOL    HW117216   2.749   4.001   4.126
 5610SOL    HW217217   2.896   3.958   4.185
 5611SOL     OW17218   2.938   4.407   5.188
 5611SOL    HW117219   2.858   4.346   5.191
 5611SOL    HW217220   3.019   4.354   5.164
 5612SOL     OW17221   2.894   4.273   3.740
 5612SOL    HW117222   2.853   4.355   3.701
 5612SOL    HW217223   2.958   4.299   3.813
 5613SOL     OW17224   1.940   4.280   5.110
 5613SOL    HW117225   2.032   4.279   5.069
 5613SOL    HW217226   1.934   4.354   5.177
 5614SOL     OW17227   2.423   3.946   4.871
 5614SOL    HW117228   2.461   3.862   4.908
 5614SOL    HW217229   2.335   3.965   4.915
 5615SOL     OW17230   2.728   4.178   4.366
 5615SOL    HW117231   2.696   4.250   4.304
 5615SOL    HW217232   2.752   4.097   4.313
 5616SOL     OW17233   2.879   3.763   4.477
 5616SOL    HW117234   2.807   3.768   4.408
 5616SOL    HW217235   2.855   3.694   4.546
 5617SOL     OW17236   3.328   4.314   4.716
 5617SOL    HW117237   3.298   4.219   4.723
 5617SOL    HW217238   3.401   4.330   4.782
 5618SOL     OW17239   3.252   4.299   3.802
 5618SOL    HW117240   3.198   4.278   3.883
 5618SOL    HW217241   3.343   4.258   3.811
 5619SOL     OW17242   2.389   3.980   4.052
 5619SOL    HW117243   2.416   3.921   3.977
 5619SOL    HW217244   2.389   4.075   4.021
 5620SOL     OW17245   2.777   3.813   5.126
 5620SOL    HW117246   2.802   3.793   5.031
 5620SOL    HW217247   2.849   3.869   5.168
 5621SOL     OW17248   2.272   4.537   4.975
 5621SOL    HW117249   2.358   4.549   5.025
 5621SOL    HW217250   2.230   4.450   5.002
 5622SOL     OW17251   3.136   4.110   4.986
 5622SOL    HW117252   3.157   4.184   5.050
 5622SOL    HW217253   3.047   4.127   4.943
 5623SOL     OW17254   2.428   4.261   4.589
 5623SOL    HW117255   2.440   4.327   4.515
 5623SOL    HW217256   2.474   4.295   4.672
 5624SOL     OW17257   3.444   4.363   4.196
 5624SOL    HW117258   3.413   4.424   4.269
 5624SOL    HW217259   3.494   4.415   4.127
 5625SOL     OW17260   2.875   3.829   5.494
 5625SOL    HW117261   2.881   3.914   5.442
 5625SOL    HW217262   2.907   3.753   5.437
 5626SOL     OW17263   2.366   3.774   5.464
 5626SOL    HW117264   2.324   3.717   5.394
 5626SOL    HW217265   2.300   3.843   5.496
 5627SOL     OW17266   3.071   4.249   3.999
 5627SOL    HW117267   3.084   4.165   4.053
 5627SOL    HW217268   3.042   4.323   4.059
 5628SOL     OW17269   2.169   3.937   4.955
 5628SOL    HW117270   2.146   3.974   5.045
 5628SOL    HW217271   2.139   3.842   4.949
 5629SOL     OW17272   2.594   4.358   4.788
 5629SOL    HW117273   2.653   4.332   4.712
 5629SOL    HW217274   2.566   4.454   4.777
 5630SOL     OW17275   3.590   4.659   5.578
 5630SOL    HW117276   3.544   4.652   5.489
 5630SOL    HW217277   3.528   4.703   5.644
 5631SOL     OW17278   2.169   3.787   4.342
 5631SOL    HW117279   2.158   3.881   4.375
 5631SOL    HW217280   2.164   3.724   4.419
 5632SOL     OW17281   3.484   4.091   4.098
 5632SOL    HW117282   3.486   4.015   4.162
 5632SOL    HW217283   3.436   4.168   4.138
 5633SOL     OW17284   3.402   3.998   3.849
 5633SOL    HW117285   3.341   3.923   3.872
 5633SOL    HW217286   3.424   4.050   3.932
 5634SOL     OW17287   2.181   4.534   4.673
 5634SOL    HW117288   2.274   4.570   4.678
 5634SOL    HW217289   2.175   4.449   4.725
 5635SOL     OW17290   2.201   4.233   4.730
 5635SOL    HW117291   2.149   4.150   4.713
 5635SOL    HW217292   2.278   4.238   4.666
 5636SOL     OW17293   3.000   4.104   5.402
 5636SOL    HW117294   2.955   4.167   5.466
 5636SOL    HW217295   3.093   4.135   5.385
 5637SOL     OW17296   3.022   3.931   5.201
 5637SOL    HW117297   3.022   3.995   5.278
 5637SOL    HW217298   3.050   3.979   5.118
 5638SOL     OW17299   1.902   4.268   4.838
 5638SOL    HW117300   1.987   4.235   4.797
 5638SOL    HW217301   1.915   4.283   4.936
 5639SOL     OW17302   2.051   4.244   5.446
 5639SOL    HW117303   2.110   4.204   5.376
 5639SOL    HW217304   1.993   4.315   5.405
 5640SOL     OW17305   2.677   4.296   4.049
 5640SOL    HW117306   2.684   4.207   4.003
 5640SOL    HW217307   2.583   4.330   4.041
 5641SOL     OW17308   3.519   4.328   4.930
 5641SOL    HW117309   3.481   4.259   4.992
 5641SOL    HW217310   3.601   4.292   4.886
 5642SOL     OW17311   2.533   4.188   4.993
 5642SOL    HW117312   2.499   4.099   4.963
 5642SOL    HW217313   2.559   4.242   4.913
 5643SOL     OW17314   2.335   4.224   3.915
 5643SOL    HW117315   2.396   4.304   3.919
 5643SOL    HW217316   2.240   4.255   3.922
 5644SOL     OW17317   3.588   3.859   4.247
 5644SOL    HW117318   3.661   3.842   4.180
 5644SOL    HW217319   3.557   3.772   4.285
 5645SOL     OW17320   3.142   4.651   4.396
 5645SOL    HW117321   3.202   4.570   4.398
 5645SOL    HW217322   3.182   4.720   4.336
 5646SOL     OW17323   3.703   3.899   4.687
 5646SOL    HW117324   3.742   3.814   4.651
 5646SOL    HW217325   3.605   3.901   4.668
 5647SOL     OW17326   2.125   4.050   4.444
 5647SOL    HW117327   2.046   4.101   4.410
 5647SOL    HW217328   2.116   4.035   4.542
 5648SOL     OW17329   2.778   4.634   4.015
 5648SOL    HW117330   2.841   4.672   3.947
 5648SOL    HW217331   2.818   4.551   4.054
 5649SOL     OW17332   2.901   4.822   4.420
 5649SOL    HW117333   2.831   4.775   4.474
 5649SOL    HW217334   2.960   4.754   4.377
 5650SOL     OW17335   2.876   3.960   4.695
 5650SOL    HW117336   2.868   3.924   4.602
 5650SOL    HW217337   2.874   3.884   4.760
 5651SOL     OW17338   3.571   4.109   5.105
 5651SOL    HW117339   3.644   4.178   5.109
 5651SOL    HW217340   3.599   4.034   5.046
 5652SOL     OW17341   2.534   3.927   5.213
 5652SOL    HW117342   2.624   3.911   5.173
 5652SOL    HW217343   2.542   3.932   5.312
 5653SOL     OW17344   1.937   4.069   3.757
 5653SOL    HW117345   1.845   4.041   3.728
 5653SOL    HW217346   1.968   4.146   3.701
 5654SOL     OW17347   1.934   3.890   4.042
 5654SOL    HW117348   1.917   3.973   3.988
 5654SOL    HW217349   2.024   3.853   4.020
 5655SOL     OW17350   2.578   4.289   5.432
 5655SOL    HW117351   2.597   4.354   5.506
 5655SOL    HW217352   2.638   4.209   5.441
 5656SOL     OW17353   3.087   4.049   4.173
 5656SOL    HW117354   3.152   3.975   4.162
 5656SOL    HW217355   3.107   4.099   4.257
 5657SOL     OW17356   3.639   4.066   5.366
 5657SOL    HW117357   3.622   4.097   5.272
 5657SOL    HW217358   3.555   4.029   5.404
 5658SOL     OW17359   2.945   4.708   3.811
 5658SOL    HW117360   2.922   4.761   3.729
 5658SOL    HW217361   3.026   4.652   3.792
 5659SOL     OW17362   3.686   3.916   4.951
 5659SOL    HW117363   3.682   3.826   4.995
 5659SOL    HW217364   3.689   3.905   4.852
 5660SOL     OW17365   2.290   4.148   4.244
 5660SOL    HW117366   2.320   4.076   4.182
 5660SOL    HW217367   2.251   4.108   4.327
 5661SOL     OW17368   2.179   4.271   5.004
 5661SOL    HW117369   2.217   4.212   5.076
 5661SOL    HW217370   2.219   4.245   4.916
 5662SOL     OW17371   3.286   3.938   4.836
 5662SOL    HW117372   3.338   3.873   4.891
 5662SOL    HW217373   3.237   4.001   4.897
 5663SOL     OW17374   2.863   3.758   4.878
 5663SOL    HW117375   2.800   3.686   4.847
 5663SOL    HW217376   2.956   3.722   4.878
 5664SOL     OW17377   3.214   3.776   3.892
 5664SOL    HW117378   3.249   3.735   3.808
 5664SOL    HW217379   3.124   3.738   3.912
 5665SOL     OW17380   3.162   4.177   4.415
 5665SOL    HW117381   3.103   4.257   4.419
 5665SOL    HW217382   3.177   4.142   4.508
 5666SOL     OW17383   3.455   3.945   4.606
 5666SOL    HW117384   3.371   3.944   4.660
 5666SOL    HW217385   3.457   4.028   4.550
 5667SOL     OW17386   2.092   4.352   5.699
 5667SOL    HW117387   1.999   4.350   5.736
 5667SOL    HW217388   2.093   4.313   5.607
 5668SOL     OW17389   2.087   3.999   6.582
 5668SOL    HW117390   2.122   3.982   6.674
 5668SOL    HW217391   1.999   3.954   6.570
 5669SOL     OW17392   1.881   4.092   6.233
 5669SOL    HW117393   1.799   4.135   6.272
 5669SOL    HW217394   1.853   4.019   6.170
 5670SOL     OW17395   3.617   4.331   5.817
 5670SOL    HW117396   3.605   4.318   5.718
 5670SOL    HW217397   3.587   4.250   5.866
 5671SOL     OW17398   2.547   4.736   6.251
 5671SOL    HW117399   2.616   4.720   6.321
 5671SOL    HW217400   2.474   4.793   6.289
 5672SOL     OW17401   2.300   4.116   7.085
 5672SOL    HW117402   2.382   4.060   7.094
 5672SOL    HW217403   2.219   4.058   7.089
 5673SOL     OW17404   3.465   4.171   6.323
 5673SOL    HW117405   3.391   4.217   6.273
 5673SOL    HW217406   3.516   4.239   6.376
 5674SOL     OW17407   3.456   3.838   7.066
 5674SOL    HW117408   3.438   3.905   6.994
 5674SOL    HW217409   3.453   3.884   7.155
 5675SOL     OW17410   1.984   4.367   6.149
 5675SOL    HW117411   1.939   4.279   6.166
 5675SOL    HW217412   1.983   4.421   6.233
 5676SOL     OW17413   1.975   4.461   7.183
 5676SOL    HW117414   2.063   4.448   7.228
 5676SOL    HW217415   1.962   4.558   7.161
 5677SOL     OW17416   2.671   3.728   6.088
 5677SOL    HW117417   2.711   3.819   6.079
 5677SOL    HW217418   2.571   3.736   6.094
 5678SOL     OW17419   2.179   3.975   7.387
 5678SOL    HW117420   2.250   4.046   7.393
 5678SOL    HW217421   2.091   4.014   7.415
 5679SOL     OW17422   3.143   4.069   6.530
 5679SOL    HW117423   3.057   4.019   6.517
 5679SOL    HW217424   3.205   4.015   6.586
 5680SOL     OW17425   2.669   4.329   7.051
 5680SOL    HW117426   2.622   4.326   7.140
 5680SOL    HW217427   2.618   4.274   6.985
 5681SOL     OW17428   3.256   4.193   7.260
 5681SOL    HW117429   3.236   4.236   7.348
 5681SOL    HW217430   3.334   4.131   7.269
 5682SOL     OW17431   2.853   4.134   6.828
 5682SOL    HW117432   2.776   4.168   6.882
 5682SOL    HW217433   2.819   4.083   6.749
 5683SOL     OW17434   2.903   4.425   6.015
 5683SOL    HW117435   2.929   4.421   6.111
 5683SOL    HW217436   2.818   4.374   6.001
 5684SOL     OW17437   2.727   4.072   5.781
 5684SOL    HW117438   2.786   4.135   5.732
 5684SOL    HW217439   2.746   3.978   5.752
 5685SOL     OW17440   3.581   4.309   7.417
 5685SOL    HW117441   3.555   4.398   7.381
 5685SOL    HW217442   3.579   4.241   7.344
 5686SOL     OW17443   2.412   3.920   6.471
 5686SOL    HW117444   2.407   3.915   6.571
 5686SOL    HW217445   2.414   4.016   6.442
 5687SOL     OW17446   3.320   4.459   6.314
 5687SOL    HW117447   3.315   4.394   6.389
 5687SOL    HW217448   3.400   4.518   6.327
 5688SOL     OW17449   2.064   4.009   7.084
 5688SOL    HW117450   1.984   4.069   7.071
 5688SOL    HW217451   2.054   3.960   7.170
 5689SOL     OW17452   3.262   3.831   6.012
 5689SOL    HW117453   3.238   3.794   5.922
 5689SOL    HW217454   3.361   3.847   6.016
 5690SOL     OW17455   2.244   4.424   6.066
 5690SOL    HW117456   2.289   4.334   6.063
 5690SOL    HW217457   2.150   4.413   6.099
 5691SOL     OW17458   3.409   3.946   7.315
 5691SOL    HW117459   3.404   3.983   7.407
 5691SOL    HW217460   3.337   3.877   7.303
 5692SOL     OW17461   2.476   3.846   5.703
 5692SOL    HW117462   2.574   3.824   5.710
 5692SOL    HW217463   2.445   3.829   5.610
 5693SOL     OW17464   2.643   3.988   7.335
 5693SOL    HW117465   2.710   3.927   7.378
 5693SOL    HW217466   2.570   4.007   7.400
 5694SOL     OW17467   3.213   4.314   7.019
 5694SOL    HW117468   3.241   4.271   7.104
 5694SOL    HW217469   3.238   4.410   7.020
 5695SOL     OW17470   2.784   4.227   6.485
 5695SOL    HW117471   2.759   4.218   6.389
 5695SOL    HW217472   2.832   4.145   6.516
 5696SOL     OW17473   2.401   3.788   6.098
 5696SOL    HW117474   2.320   3.789   6.156
 5696SOL    HW217475   2.404   3.871   6.043
 5697SOL     OW17476   2.159   3.759   5.757
 5697SOL    HW117477   2.208   3.843   5.736
 5697SOL    HW217478   2.221   3.694   5.802
 5698SOL     OW17479   2.797   3.960   6.066
 5698SOL    HW117480   2.749   4.001   5.988
 5698SOL    HW217481   2.896   3.958   6.047
 5699SOL     OW17482   2.938   4.407   7.050
 5699SOL    HW117483   2.858   4.346   7.053
 5699SOL    HW217484   3.019   4.354   7.026
 5700SOL     OW17485   2.894   4.273   5.602
 5700SOL    HW117486   2.853   4.355   5.563
 5700SOL    HW217487   2.958   4.299   5.675
 5701SOL     OW17488   1.940   4.280   6.972
 5701SOL    HW117489   2.032   4.279   6.931
 5701SOL    HW217490   1.934   4.354   7.039
 5702SOL     OW17491   2.423   3.946   6.733
 5702SOL    HW117492   2.461   3.862   6.770
 5702SOL    HW217493   2.335   3.965   6.777
 5703SOL     OW17494   2.728   4.178   6.228
 5703SOL    HW117495   2.696   4.250   6.166
 5703SOL    HW217496   2.752   4.097   6.175
 5704SOL     OW17497   2.879   3.763   6.339
 5704SOL    HW117498   2.807   3.768   6.270
 5704SOL    HW217499   2.855   3.694   6.408
 5705SOL     OW17500   3.328   4.314   6.578
 5705SOL    HW117501   3.298   4.219   6.585
 5705SOL    HW217502   3.401   4.330   6.644
 5706SOL     OW17503   3.252   4.299   5.664
 5706SOL    HW117504   3.198   4.278   5.745
 5706SOL    HW217505   3.343   4.258   5.673
 5707SOL     OW17506   2.389   3.980   5.914
 5707SOL    HW117507   2.416   3.921   5.839
 5707SOL    HW217508   2.389   4.075   5.883
 5708SOL     OW17509   2.777   3.813   6.988
 5708SOL    HW117510   2.802   3.793   6.893
 5708SOL    HW217511   2.849   3.869   7.030
 5709SOL     OW17512   2.272   4.537   6.837
 5709SOL    HW117513   2.358   4.549   6.887
 5709SOL    HW217514   2.230   4.450   6.864
 5710SOL     OW17515   3.136   4.110   6.848
 5710SOL    HW117516   3.157   4.184   6.912
 5710SOL    HW217517   3.047   4.127   6.805
 5711SOL     OW17518   2.428   4.261   6.451
 5711SOL    HW117519   2.440   4.327   6.377
 5711SOL    HW217520   2.474   4.295   6.534
 5712SOL     OW17521   3.444   4.363   6.058
 5712SOL    HW117522   3.413   4.424   6.131
 5712SOL    HW217523   3.494   4.415   5.989
 5713SOL     OW17524   2.875   3.829   7.356
 5713SOL    HW117525   2.881   3.914   7.304
 5713SOL    HW217526   2.907   3.753   7.299
 5714SOL     OW17527   2.366   3.774   7.326
 5714SOL    HW117528   2.324   3.717   7.256
 5714SOL    HW217529   2.300   3.843   7.358
 5715SOL     OW17530   3.071   4.249   5.861
 5715SOL    HW117531   3.084   4.165   5.915
 5715SOL    HW217532   3.042   4.323   5.921
 5716SOL     OW17533   2.169   3.937   6.817
 5716SOL    HW117534   2.146   3.974   6.907
 5716SOL    HW217535   2.139   3.842   6.811
 5717SOL     OW17536   2.594   4.358   6.650
 5717SOL    HW117537   2.653   4.332   6.574
 5717SOL    HW217538   2.566   4.454   6.639
 5718SOL     OW17539   3.590   4.659   7.440
 5718SOL    HW117540   3.544   4.652   7.351
 5718SOL    HW217541   3.528   4.703   7.506
 5719SOL     OW17542   2.169   3.787   6.204
 5719SOL    HW117543   2.158   3.881   6.237
 5719SOL    HW217544   2.164   3.724   6.281
 5720SOL     OW17545   3.484   4.091   5.960
 5720SOL    HW117546   3.486   4.015   6.024
 5720SOL    HW217547   3.436   4.168   6.000
 5721SOL     OW17548   3.402   3.998   5.711
 5721SOL    HW117549   3.341   3.923   5.734
 5721SOL    HW217550   3.424   4.050   5.794
 5722SOL     OW17551   2.181   4.534   6.535
 5722SOL    HW117552   2.274   4.570   6.540
 5722SOL    HW217553   2.175   4.449   6.587
 5723SOL     OW17554   2.201   4.233   6.592
 5723SOL    HW117555   2.149   4.150   6.575
 5723SOL    HW217556   2.278   4.238   6.528
 5724SOL     OW17557   3.000   4.104   7.264
 5724SOL    HW117558   2.955   4.167   7.328
 5724SOL    HW217559   3.093   4.135   7.247
 5725SOL     OW17560   3.022   3.931   7.063
 5725SOL    HW117561   3.022   3.995   7.140
 5725SOL    HW217562   3.050   3.979   6.980
 5726SOL     OW17563   1.902   4.268   6.700
 5726SOL    HW117564   1.987   4.235   6.659
 5726SOL    HW217565   1.915   4.283   6.798
 5727SOL     OW17566   2.051   4.244   7.308
 5727SOL    HW117567   2.110   4.204   7.238
 5727SOL    HW217568   1.993   4.315   7.267
 5728SOL     OW17569   2.677   4.296   5.911
 5728SOL    HW117570   2.684   4.207   5.865
 5728SOL    HW217571   2.583   4.330   5.903
 5729SOL     OW17572   3.519   4.328   6.792
 5729SOL    HW117573   3.481   4.259   6.854
 5729SOL    HW217574   3.601   4.292   6.748
 5730SOL     OW17575   2.533   4.188   6.855
 5730SOL    HW117576   2.499   4.099   6.825
 5730SOL    HW217577   2.559   4.242   6.775
 5731SOL     OW17578   2.335   4.224   5.777
 5731SOL    HW117579   2.396   4.304   5.781
 5731SOL    HW217580   2.240   4.255   5.784
 5732SOL     OW17581   3.588   3.859   6.109
 5732SOL    HW117582   3.661   3.842   6.042
 5732SOL    HW217583   3.557   3.772   6.147
 5733SOL     OW17584   3.142   4.651   6.258
 5733SOL    HW117585   3.202   4.570   6.260
 5733SOL    HW217586   3.182   4.720   6.198
 5734SOL     OW17587   3.703   3.899   6.549
 5734SOL    HW117588   3.742   3.814   6.513
 5734SOL    HW217589   3.605   3.901   6.530
 5735SOL     OW17590   2.125   4.050   6.306
 5735SOL    HW117591   2.046   4.101   6.272
 5735SOL    HW217592   2.116   4.035   6.404
 5736SOL     OW17593   2.778   4.634   5.877
 5736SOL    HW117594   2.841   4.672   5.809
 5736SOL    HW217595   2.818   4.551   5.916
 5737SOL     OW17596   2.901   4.822   6.282
 5737SOL    HW117597   2.831   4.775   6.336
 5737SOL    HW217598   2.960   4.754   6.239
 5738SOL     OW17599   2.876   3.960   6.557
 5738SOL    HW117600   2.868   3.924   6.464
 5738SOL    HW217601   2.874   3.884   6.622
 5739SOL     OW17602   3.571   4.109   6.967
 5739SOL    HW117603   3.644   4.178   6.971
 5739SOL    HW217604   3.599   4.034   6.908
 5740SOL     OW17605   2.534   3.927   7.075
 5740SOL    HW117606   2.624   3.911   7.035
 5740SOL    HW217607   2.542   3.932   7.174
 5741SOL     OW17608   1.937   4.069   5.619
 5741SOL    HW117609   1.845   4.041   5.590
 5741SOL    HW217610   1.968   4.146   5.563
 5742SOL     OW17611   1.934   3.890   5.904
 5742SOL    HW117612   1.917   3.973   5.850
 5742SOL    HW217613   2.024   3.853   5.882
 5743SOL     OW17614   2.578   4.289   7.294
 5743SOL    HW117615   2.597   4.354   7.368
 5743SOL    HW217616   2.638   4.209   7.303
 5744SOL     OW17617   3.087   4.049   6.035
 5744SOL    HW117618   3.152   3.975   6.024
 5744SOL    HW217619   3.107   4.099   6.119
 5745SOL     OW17620   3.639   4.066   7.228
 5745SOL    HW117621   3.622   4.097   7.134
 5745SOL    HW217622   3.555   4.029   7.266
 5746SOL     OW17623   2.945   4.708   5.673
 5746SOL    HW117624   2.922   4.761   5.591
 5746SOL    HW217625   3.026   4.652   5.654
 5747SOL     OW17626   3.686   3.916   6.813
 5747SOL    HW117627   3.682   3.826   6.857
 5747SOL    HW217628   3.689   3.905   6.714
 5748SOL     OW17629   2.290   4.148   6.106
 5748SOL    HW117630   2.320   4.076   6.044
 5748SOL    HW217631   2.251   4.108   6.189
 5749SOL     OW17632   2.179   4.271   6.866
 5749SOL    HW117633   2.217   4.212   6.938
 5749SOL    HW217634   2.219   4.245   6.778
 5750SOL     OW17635   3.286   3.938   6.698
 5750SOL    HW117636   3.338   3.873   6.753
 5750SOL    HW217637   3.237   4.001   6.759
 5751SOL     OW17638   2.863   3.758   6.740
 5751SOL    HW117639   2.800   3.686   6.709
 5751SOL    HW217640   2.956   3.722   6.740
 5752SOL     OW17641   3.214   3.776   5.754
 5752SOL    HW117642   3.249   3.735   5.670
 5752SOL    HW217643   3.124   3.738   5.774
 5753SOL     OW17644   3.162   4.177   6.277
 5753SOL    HW117645   3.103   4.257   6.281
 5753SOL    HW217646   3.177   4.142   6.370
 5754SOL     OW17647   3.455   3.945   6.468
 5754SOL    HW117648   3.371   3.944   6.522
 5754SOL    HW217649   3.457   4.028   6.412
 5755SOL     OW17650   2.092   4.352   7.561
 5755SOL    HW117651   1.999   4.350   7.598
 5755SOL    HW217652   2.093   4.313   7.469
 5756SOL     OW17653   2.087   3.999   8.444
 5756SOL    HW117654   2.122   3.982   8.536
 5756SOL    HW217655   1.999   3.954   8.432
 5757SOL     OW17656   1.881   4.092   8.095
 5757SOL    HW117657   1.799   4.135   8.134
 5757SOL    HW217658   1.853   4.019   8.032
 5758SOL     OW17659   3.617   4.331   7.679
 5758SOL    HW117660   3.605   4.318   7.580
 5758SOL    HW217661   3.587   4.250   7.728
 5759SOL     OW17662   2.547   4.736   8.113
 5759SOL    HW117663   2.616   4.720   8.183
 5759SOL    HW217664   2.474   4.793   8.151
 5760SOL     OW17665   2.300   4.116   8.947
 5760SOL    HW117666   2.382   4.060   8.956
 5760SOL    HW217667   2.219   4.058   8.951
 5761SOL     OW17668   3.465   4.171   8.185
 5761SOL    HW117669   3.391   4.217   8.135
 5761SOL    HW217670   3.516   4.239   8.238
 5762SOL     OW17671   3.456   3.838   8.928
 5762SOL    HW117672   3.438   3.905   8.856
 5762SOL    HW217673   3.453   3.884   9.017
 5763SOL     OW17674   1.984   4.367   8.011
 5763SOL    HW117675   1.939   4.279   8.028
 5763SOL    HW217676   1.983   4.421   8.095
 5764SOL     OW17677   1.975   4.461   9.045
 5764SOL    HW117678   2.063   4.448   9.090
 5764SOL    HW217679   1.962   4.558   9.023
 5765SOL     OW17680   2.671   3.728   7.950
 5765SOL    HW117681   2.711   3.819   7.941
 5765SOL    HW217682   2.571   3.736   7.956
 5766SOL     OW17683   2.179   3.975   9.249
 5766SOL    HW117684   2.250   4.046   9.255
 5766SOL    HW217685   2.091   4.014   9.277
 5767SOL     OW17686   3.143   4.069   8.392
 5767SOL    HW117687   3.057   4.019   8.379
 5767SOL    HW217688   3.205   4.015   8.448
 5768SOL     OW17689   2.669   4.329   8.913
 5768SOL    HW117690   2.622   4.326   9.002
 5768SOL    HW217691   2.618   4.274   8.847
 5769SOL     OW17692   3.256   4.193   9.122
 5769SOL    HW117693   3.236   4.236   9.210
 5769SOL    HW217694   3.334   4.131   9.131
 5770SOL     OW17695   2.853   4.134   8.690
 5770SOL    HW117696   2.776   4.168   8.744
 5770SOL    HW217697   2.819   4.083   8.611
 5771SOL     OW17698   2.903   4.425   7.877
 5771SOL    HW117699   2.929   4.421   7.973
 5771SOL    HW217700   2.818   4.374   7.863
 5772SOL     OW17701   2.727   4.072   7.643
 5772SOL    HW117702   2.786   4.135   7.594
 5772SOL    HW217703   2.746   3.978   7.614
 5773SOL     OW17704   3.581   4.309   9.279
 5773SOL    HW117705   3.555   4.398   9.243
 5773SOL    HW217706   3.579   4.241   9.206
 5774SOL     OW17707   2.412   3.920   8.333
 5774SOL    HW117708   2.407   3.915   8.433
 5774SOL    HW217709   2.414   4.016   8.304
 5775SOL     OW17710   3.320   4.459   8.176
 5775SOL    HW117711   3.315   4.394   8.251
 5775SOL    HW217712   3.400   4.518   8.189
 5776SOL     OW17713   2.064   4.009   8.946
 5776SOL    HW117714   1.984   4.069   8.933
 5776SOL    HW217715   2.054   3.960   9.032
 5777SOL     OW17716   3.262   3.831   7.874
 5777SOL    HW117717   3.238   3.794   7.784
 5777SOL    HW217718   3.361   3.847   7.878
 5778SOL     OW17719   2.244   4.424   7.928
 5778SOL    HW117720   2.289   4.334   7.925
 5778SOL    HW217721   2.150   4.413   7.961
 5779SOL     OW17722   3.409   3.946   9.177
 5779SOL    HW117723   3.404   3.983   9.269
 5779SOL    HW217724   3.337   3.877   9.165
 5780SOL     OW17725   2.476   3.846   7.565
 5780SOL    HW117726   2.574   3.824   7.572
 5780SOL    HW217727   2.445   3.829   7.472
 5781SOL     OW17728   2.643   3.988   9.197
 5781SOL    HW117729   2.710   3.927   9.240
 5781SOL    HW217730   2.570   4.007   9.262
 5782SOL     OW17731   3.213   4.314   8.881
 5782SOL    HW117732   3.241   4.271   8.966
 5782SOL    HW217733   3.238   4.410   8.882
 5783SOL     OW17734   2.784   4.227   8.347
 5783SOL    HW117735   2.759   4.218   8.251
 5783SOL    HW217736   2.832   4.145   8.378
 5784SOL     OW17737   2.401   3.788   7.960
 5784SOL    HW117738   2.320   3.789   8.018
 5784SOL    HW217739   2.404   3.871   7.905
 5785SOL     OW17740   2.159   3.759   7.619
 5785SOL    HW117741   2.208   3.843   7.598
 5785SOL    HW217742   2.221   3.694   7.664
 5786SOL     OW17743   2.797   3.960   7.928
 5786SOL    HW117744   2.749   4.001   7.850
 5786SOL    HW217745   2.896   3.958   7.909
 5787SOL     OW17746   2.938   4.407   8.912
 5787SOL    HW117747   2.858   4.346   8.915
 5787SOL    HW217748   3.019   4.354   8.888
 5788SOL     OW17749   2.894   4.273   7.464
 5788SOL    HW117750   2.853   4.355   7.425
 5788SOL    HW217751   2.958   4.299   7.537
 5789SOL     OW17752   1.940   4.280   8.834
 5789SOL    HW117753   2.032   4.279   8.793
 5789SOL    HW217754   1.934   4.354   8.901
 5790SOL     OW17755   2.423   3.946   8.595
 5790SOL    HW117756   2.461   3.862   8.632
 5790SOL    HW217757   2.335   3.965   8.639
 5791SOL     OW17758   2.728   4.178   8.090
 5791SOL    HW117759   2.696   4.250   8.028
 5791SOL    HW217760   2.752   4.097   8.037
 5792SOL     OW17761   2.879   3.763   8.201
 5792SOL    HW117762   2.807   3.768   8.132
 5792SOL    HW217763   2.855   3.694   8.270
 5793SOL     OW17764   3.328   4.314   8.440
 5793SOL    HW117765   3.298   4.219   8.447
 5793SOL    HW217766   3.401   4.330   8.506
 5794SOL     OW17767   3.252   4.299   7.526
 5794SOL    HW117768   3.198   4.278   7.607
 5794SOL    HW217769   3.343   4.258   7.535
 5795SOL     OW17770   2.389   3.980   7.776
 5795SOL    HW117771   2.416   3.921   7.701
 5795SOL    HW217772   2.389   4.075   7.745
 5796SOL     OW17773   2.777   3.813   8.850
 5796SOL    HW117774   2.802   3.793   8.755
 5796SOL    HW217775   2.849   3.869   8.892
 5797SOL     OW17776   2.272   4.537   8.699
 5797SOL    HW117777   2.358   4.549   8.749
 5797SOL    HW217778   2.230   4.450   8.726
 5798SOL     OW17779   3.136   4.110   8.710
 5798SOL    HW117780   3.157   4.184   8.774
 5798SOL    HW217781   3.047   4.127   8.667
 5799SOL     OW17782   2.428   4.261   8.313
 5799SOL    HW117783   2.440   4.327   8.239
 5799SOL    HW217784   2.474   4.295   8.396
 5800SOL     OW17785   3.444   4.363   7.920
 5800SOL    HW117786   3.413   4.424   7.993
 5800SOL    HW217787   3.494   4.415   7.851
 5801SOL     OW17788   2.875   3.829   9.218
 5801SOL    HW117789   2.881   3.914   9.166
 5801SOL    HW217790   2.907   3.753   9.161
 5802SOL     OW17791   2.366   3.774   9.188
 5802SOL    HW117792   2.324   3.717   9.118
 5802SOL    HW217793   2.300   3.843   9.220
 5803SOL     OW17794   3.071   4.249   7.723
 5803SOL    HW117795   3.084   4.165   7.777
 5803SOL    HW217796   3.042   4.323   7.783
 5804SOL     OW17797   2.169   3.937   8.679
 5804SOL    HW117798   2.146   3.974   8.769
 5804SOL    HW217799   2.139   3.842   8.673
 5805SOL     OW17800   2.594   4.358   8.512
 5805SOL    HW117801   2.653   4.332   8.436
 5805SOL    HW217802   2.566   4.454   8.501
 5806SOL     OW17803   3.590   4.659   9.302
 5806SOL    HW117804   3.544   4.652   9.213
 5806SOL    HW217805   3.528   4.703   9.368
 5807SOL     OW17806   2.169   3.787   8.066
 5807SOL    HW117807   2.158   3.881   8.099
 5807SOL    HW217808   2.164   3.724   8.143
 5808SOL     OW17809   3.484   4.091   7.822
 5808SOL    HW117810   3.486   4.015   7.886
 5808SOL    HW217811   3.436   4.168   7.862
 5809SOL     OW17812   3.402   3.998   7.573
 5809SOL    HW117813   3.341   3.923   7.596
 5809SOL    HW217814   3.424   4.050   7.656
 5810SOL     OW17815   2.181   4.534   8.397
 5810SOL    HW117816   2.274   4.570   8.402
 5810SOL    HW217817   2.175   4.449   8.449
 5811SOL     OW17818   2.201   4.233   8.454
 5811SOL    HW117819   2.149   4.150   8.437
 5811SOL    HW217820   2.278   4.238   8.390
 5812SOL     OW17821   3.000   4.104   9.126
 5812SOL    HW117822   2.955   4.167   9.190
 5812SOL    HW217823   3.093   4.135   9.109
 5813SOL     OW17824   3.022   3.931   8.925
 5813SOL    HW117825   3.022   3.995   9.002
 5813SOL    HW217826   3.050   3.979   8.842
 5814SOL     OW17827   1.902   4.268   8.562
 5814SOL    HW117828   1.987   4.235   8.521
 5814SOL    HW217829   1.915   4.283   8.660
 5815SOL     OW17830   2.051   4.244   9.170
 5815SOL    HW117831   2.110   4.204   9.100
 5815SOL    HW217832   1.993   4.315   9.129
 5816SOL     OW17833   2.677   4.296   7.773
 5816SOL    HW117834   2.684   4.207   7.727
 5816SOL    HW217835   2.583   4.330   7.765
 5817SOL     OW17836   3.519   4.328   8.654
 5817SOL    HW117837   3.481   4.259   8.716
 5817SOL    HW217838   3.601   4.292   8.610
 5818SOL     OW17839   2.533   4.188   8.717
 5818SOL    HW117840   2.499   4.099   8.687
 5818SOL    HW217841   2.559   4.242   8.637
 5819SOL     OW17842   2.335   4.224   7.639
 5819SOL    HW117843   2.396   4.304   7.643
 5819SOL    HW217844   2.240   4.255   7.646
 5820SOL     OW17845   3.588   3.859   7.971
 5820SOL    HW117846   3.661   3.842   7.904
 5820SOL    HW217847   3.557   3.772   8.009
 5821SOL     OW17848   3.142   4.651   8.120
 5821SOL    HW117849   3.202   4.570   8.122
 5821SOL    HW217850   3.182   4.720   8.060
 5822SOL     OW17851   3.703   3.899   8.411
 5822SOL    HW117852   3.742   3.814   8.375
 5822SOL    HW217853   3.605   3.901   8.392
 5823SOL     OW17854   2.125   4.050   8.168
 5823SOL    HW117855   2.046   4.101   8.134
 5823SOL    HW217856   2.116   4.035   8.266
 5824SOL     OW17857   2.778   4.634   7.739
 5824SOL    HW117858   2.841   4.672   7.671
 5824SOL    HW217859   2.818   4.551   7.778
 5825SOL     OW17860   2.901   4.822   8.144
 5825SOL    HW117861   2.831   4.775   8.198
 5825SOL    HW217862   2.960   4.754   8.101
 5826SOL     OW17863   2.876   3.960   8.419
 5826SOL    HW117864   2.868   3.924   8.326
 5826SOL    HW217865   2.874   3.884   8.484
 5827SOL     OW17866   3.571   4.109   8.829
 5827SOL    HW117867   3.644   4.178   8.833
 5827SOL    HW217868   3.599   4.034   8.770
 5828SOL     OW17869   2.534   3.927   8.937
 5828SOL    HW117870   2.624   3.911   8.897
 5828SOL    HW217871   2.542   3.932   9.036
 5829SOL     OW17872   1.937   4.069   7.481
 5829SOL    HW117873   1.845   4.041   7.452
 5829SOL    HW217874   1.968   4.146   7.425
 5830SOL     OW17875   1.934   3.890   7.766
 5830SOL    HW117876   1.917   3.973   7.712
 5830SOL    HW217877   2.024   3.853   7.744
 5831SOL     OW17878   2.578   4.289   9.156
 5831SOL    HW117879   2.597   4.354   9.230
 5831SOL    HW217880   2.638   4.209   9.165
 5832SOL     OW17881   3.087   4.049   7.897
 5832SOL    HW117882   3.152   3.975   7.886
 5832SOL    HW217883   3.107   4.099   7.981
 5833SOL     OW17884   3.639   4.066   9.090
 5833SOL    HW117885   3.622   4.097   8.996
 5833SOL    HW217886   3.555   4.029   9.128
 5834SOL     OW17887   2.945   4.708   7.535
 5834SOL    HW117888   2.922   4.761   7.453
 5834SOL    HW217889   3.026   4.652   7.516
 5835SOL     OW17890   3.686   3.916   8.675
 5835SOL    HW117891   3.682   3.826   8.719
 5835SOL    HW217892   3.689   3.905   8.576
 5836SOL     OW17893   2.290   4.148   7.968
 5836SOL    HW117894   2.320   4.076   7.906
 5836SOL    HW217895   2.251   4.108   8.051
 5837SOL     OW17896   2.179   4.271   8.728
 5837SOL    HW117897   2.217   4.212   8.800
 5837SOL    HW217898   2.219   4.245   8.640
 5838SOL     OW17899   3.286   3.938   8.560
 5838SOL    HW117900   3.338   3.873   8.615
 5838SOL    HW217901   3.237   4.001   8.621
 5839SOL     OW17902   2.863   3.758   8.602
 5839SOL    HW117903   2.800   3.686   8.571
 5839SOL    HW217904   2.956   3.722   8.602
 5840SOL     OW17905   3.214   3.776   7.616
 5840SOL    HW117906   3.249   3.735   7.532
 5840SOL    HW217907   3.124   3.738   7.636
 5841SOL     OW17908   3.162   4.177   8.139
 5841SOL    HW117909   3.103   4.257   8.143
 5841SOL    HW217910   3.177   4.142   8.232
 5842SOL     OW17911   3.455   3.945   8.330
 5842SOL    HW117912   3.371   3.944   8.384
 5842SOL    HW217913   3.457   4.028   8.274
 5843SOL     OW17914   2.092   4.352   9.423
 5843SOL    HW117915   1.999   4.350   9.460
 5843SOL    HW217916   2.093   4.313   9.331
 5844SOL     OW17917   2.087   3.999  10.306
 5844SOL    HW117918   2.122   3.982  10.398
 5844SOL    HW217919   1.999   3.954  10.294
 5845SOL     OW17920   1.881   4.092   9.957
 5845SOL    HW117921   1.799   4.135   9.996
 5845SOL    HW217922   1.853   4.019   9.894
 5846SOL     OW17923   3.617   4.331   9.541
 5846SOL    HW117924   3.605   4.318   9.442
 5846SOL    HW217925   3.587   4.250   9.590
 5847SOL     OW17926   2.547   4.736   9.975
 5847SOL    HW117927   2.616   4.720  10.045
 5847SOL    HW217928   2.474   4.793  10.013
 5848SOL     OW17929   2.300   4.116  10.809
 5848SOL    HW117930   2.382   4.060  10.818
 5848SOL    HW217931   2.219   4.058  10.813
 5849SOL     OW17932   3.465   4.171  10.047
 5849SOL    HW117933   3.391   4.217   9.997
 5849SOL    HW217934   3.516   4.239  10.100
 5850SOL     OW17935   3.456   3.838  10.790
 5850SOL    HW117936   3.438   3.905  10.718
 5850SOL    HW217937   3.453   3.884  10.879
 5851SOL     OW17938   1.984   4.367   9.873
 5851SOL    HW117939   1.939   4.279   9.890
 5851SOL    HW217940   1.983   4.421   9.957
 5852SOL     OW17941   1.975   4.461  10.907
 5852SOL    HW117942   2.063   4.448  10.952
 5852SOL    HW217943   1.962   4.558  10.885
 5853SOL     OW17944   2.671   3.728   9.812
 5853SOL    HW117945   2.711   3.819   9.803
 5853SOL    HW217946   2.571   3.736   9.818
 5854SOL     OW17947   2.179   3.975  11.111
 5854SOL    HW117948   2.250   4.046  11.117
 5854SOL    HW217949   2.091   4.014  11.139
 5855SOL     OW17950   3.143   4.069  10.254
 5855SOL    HW117951   3.057   4.019  10.241
 5855SOL    HW217952   3.205   4.015  10.310
 5856SOL     OW17953   2.669   4.329  10.775
 5856SOL    HW117954   2.622   4.326  10.864
 5856SOL    HW217955   2.618   4.274  10.709
 5857SOL     OW17956   2.853   4.134  10.552
 5857SOL    HW117957   2.776   4.168  10.606
 5857SOL    HW217958   2.819   4.083  10.473
 5858SOL     OW17959   2.903   4.425   9.739
 5858SOL    HW117960   2.929   4.421   9.835
 5858SOL    HW217961   2.818   4.374   9.725
 5859SOL     OW17962   2.727   4.072   9.505
 5859SOL    HW117963   2.786   4.135   9.456
 5859SOL    HW217964   2.746   3.978   9.476
 5860SOL     OW17965   2.412   3.920  10.195
 5860SOL    HW117966   2.407   3.915  10.295
 5860SOL    HW217967   2.414   4.016  10.166
 5861SOL     OW17968   3.320   4.459  10.038
 5861SOL    HW117969   3.315   4.394  10.113
 5861SOL    HW217970   3.400   4.518  10.051
 5862SOL     OW17971   2.064   4.009  10.808
 5862SOL    HW117972   1.984   4.069  10.795
 5862SOL    HW217973   2.054   3.960  10.894
 5863SOL     OW17974   3.262   3.831   9.736
 5863SOL    HW117975   3.238   3.794   9.646
 5863SOL    HW217976   3.361   3.847   9.740
 5864SOL     OW17977   2.244   4.424   9.790
 5864SOL    HW117978   2.289   4.334   9.787
 5864SOL    HW217979   2.150   4.413   9.823
 5865SOL     OW17980   2.476   3.846   9.427
 5865SOL    HW117981   2.574   3.824   9.434
 5865SOL    HW217982   2.445   3.829   9.334
 5866SOL     OW17983   2.643   3.988  11.059
 5866SOL    HW117984   2.710   3.927  11.102
 5866SOL    HW217985   2.570   4.007  11.124
 5867SOL     OW17986   3.213   4.314  10.743
 5867SOL    HW117987   3.241   4.271  10.828
 5867SOL    HW217988   3.238   4.410  10.744
 5868SOL     OW17989   2.784   4.227  10.209
 5868SOL    HW117990   2.759   4.218  10.113
 5868SOL    HW217991   2.832   4.145  10.240
 5869SOL     OW17992   2.401   3.788   9.822
 5869SOL    HW117993   2.320   3.789   9.880
 5869SOL    HW217994   2.404   3.871   9.767
 5870SOL     OW17995   2.159   3.759   9.481
 5870SOL    HW117996   2.208   3.843   9.460
 5870SOL    HW217997   2.221   3.694   9.526
 5871SOL     OW17998   2.797   3.960   9.790
 5871SOL    HW117999   2.749   4.001   9.712
 5871SOL    HW218000   2.896   3.958   9.771
 5872SOL     OW18001   2.938   4.407  10.774
 5872SOL    HW118002   2.858   4.346  10.777
 5872SOL    HW218003   3.019   4.354  10.750
 5873SOL     OW18004   2.894   4.273   9.326
 5873SOL    HW118005   2.853   4.355   9.287
 5873SOL    HW218006   2.958   4.299   9.399
 5874SOL     OW18007   1.940   4.280  10.696
 5874SOL    HW118008   2.032   4.279  10.655
 5874SOL    HW218009   1.934   4.354  10.763
 5875SOL     OW18010   2.423   3.946  10.457
 5875SOL    HW118011   2.461   3.862  10.494
 5875SOL    HW218012   2.335   3.965  10.501
 5876SOL     OW18013   2.728   4.178   9.952
 5876SOL    HW118014   2.696   4.250   9.890
 5876SOL    HW218015   2.752   4.097   9.899
 5877SOL     OW18016   2.879   3.763  10.063
 5877SOL    HW118017   2.807   3.768   9.994
 5877SOL    HW218018   2.855   3.694  10.132
 5878SOL     OW18019   3.328   4.314  10.302
 5878SOL    HW118020   3.298   4.219  10.309
 5878SOL    HW218021   3.401   4.330  10.368
 5879SOL     OW18022   3.252   4.299   9.388
 5879SOL    HW118023   3.198   4.278   9.469
 5879SOL    HW218024   3.343   4.258   9.397
 5880SOL     OW18025   2.389   3.980   9.638
 5880SOL    HW118026   2.416   3.921   9.563
 5880SOL    HW218027   2.389   4.075   9.607
 5881SOL     OW18028   2.777   3.813  10.712
 5881SOL    HW118029   2.802   3.793  10.617
 5881SOL    HW218030   2.849   3.869  10.754
 5882SOL     OW18031   2.272   4.537  10.561
 5882SOL    HW118032   2.358   4.549  10.611
 5882SOL    HW218033   2.230   4.450  10.588
 5883SOL     OW18034   3.136   4.110  10.572
 5883SOL    HW118035   3.157   4.184  10.636
 5883SOL    HW218036   3.047   4.127  10.529
 5884SOL     OW18037   2.428   4.261  10.175
 5884SOL    HW118038   2.440   4.327  10.101
 5884SOL    HW218039   2.474   4.295  10.258
 5885SOL     OW18040   3.444   4.363   9.782
 5885SOL    HW118041   3.413   4.424   9.855
 5885SOL    HW218042   3.494   4.415   9.713
 5886SOL     OW18043   2.264   4.475  10.908
 5886SOL    HW118044   2.332   4.530  10.861
 5886SOL    HW218045   2.304   4.387  10.935
 5887SOL     OW18046   3.071   4.249   9.585
 5887SOL    HW118047   3.084   4.165   9.639
 5887SOL    HW218048   3.042   4.323   9.645
 5888SOL     OW18049   2.169   3.937  10.541
 5888SOL    HW118050   2.146   3.974  10.631
 5888SOL    HW218051   2.139   3.842  10.535
 5889SOL     OW18052   2.594   4.358  10.374
 5889SOL    HW118053   2.653   4.332  10.298
 5889SOL    HW218054   2.566   4.454  10.363
 5890SOL     OW18055   2.169   3.787   9.928
 5890SOL    HW118056   2.158   3.881   9.961
 5890SOL    HW218057   2.164   3.724  10.005
 5891SOL     OW18058   3.484   4.091   9.684
 5891SOL    HW118059   3.486   4.015   9.748
 5891SOL    HW218060   3.436   4.168   9.724
 5892SOL     OW18061   3.402   3.998   9.435
 5892SOL    HW118062   3.341   3.923   9.458
 5892SOL    HW218063   3.424   4.050   9.518
 5893SOL     OW18064   2.181   4.534  10.259
 5893SOL    HW118065   2.274   4.570  10.264
 5893SOL    HW218066   2.175   4.449  10.311
 5894SOL     OW18067   2.201   4.233  10.316
 5894SOL    HW118068   2.149   4.150  10.299
 5894SOL    HW218069   2.278   4.238  10.252
 5895SOL     OW18070   3.022   3.931  10.787
 5895SOL    HW118071   3.022   3.995  10.864
 5895SOL    HW218072   3.050   3.979  10.704
 5896SOL     OW18073   1.902   4.268  10.424
 5896SOL    HW118074   1.987   4.235  10.383
 5896SOL    HW218075   1.915   4.283  10.522
 5897SOL     OW18076   3.231   4.674  10.970
 5897SOL    HW118077   3.270   4.763  10.990
 5897SOL    HW218078   3.241   4.654  10.873
 5898SOL     OW18079   2.677   4.296   9.635
 5898SOL    HW118080   2.684   4.207   9.589
 5898SOL    HW218081   2.583   4.330   9.627
 5899SOL     OW18082   3.519   4.328  10.516
 5899SOL    HW118083   3.481   4.259  10.578
 5899SOL    HW218084   3.601   4.292  10.472
 5900SOL     OW18085   2.533   4.188  10.579
 5900SOL    HW118086   2.499   4.099  10.549
 5900SOL    HW218087   2.559   4.242  10.499
 5901SOL     OW18088   2.335   4.224   9.501
 5901SOL    HW118089   2.396   4.304   9.505
 5901SOL    HW218090   2.240   4.255   9.508
 5902SOL     OW18091   3.588   3.859   9.833
 5902SOL    HW118092   3.661   3.842   9.766
 5902SOL    HW218093   3.557   3.772   9.871
 5903SOL     OW18094   3.142   4.651   9.982
 5903SOL    HW118095   3.202   4.570   9.984
 5903SOL    HW218096   3.182   4.720   9.922
 5904SOL     OW18097   3.703   3.899  10.273
 5904SOL    HW118098   3.742   3.814  10.237
 5904SOL    HW218099   3.605   3.901  10.254
 5905SOL     OW18100   2.125   4.050  10.030
 5905SOL    HW118101   2.046   4.101   9.996
 5905SOL    HW218102   2.116   4.035  10.128
 5906SOL     OW18103   2.778   4.634   9.601
 5906SOL    HW118104   2.841   4.672   9.533
 5906SOL    HW218105   2.818   4.551   9.640
 5907SOL     OW18106   2.901   4.822  10.006
 5907SOL    HW118107   2.831   4.775  10.060
 5907SOL    HW218108   2.960   4.754   9.963
 5908SOL     OW18109   2.876   3.960  10.281
 5908SOL    HW118110   2.868   3.924  10.188
 5908SOL    HW218111   2.874   3.884  10.346
 5909SOL     OW18112   3.571   4.109  10.691
 5909SOL    HW118113   3.644   4.178  10.695
 5909SOL    HW218114   3.599   4.034  10.632
 5910SOL     OW18115   2.534   3.927  10.799
 5910SOL    HW118116   2.624   3.911  10.759
 5910SOL    HW218117   2.542   3.932  10.898
 5911SOL     OW18118   1.937   4.069   9.343
 5911SOL    HW118119   1.845   4.041   9.314
 5911SOL    HW218120   1.968   4.146   9.287
 5912SOL     OW18121   1.934   3.890   9.628
 5912SOL    HW118122   1.917   3.973   9.574
 5912SOL    HW218123   2.024   3.853   9.606
 5913SOL     OW18124   2.578   4.289  11.018
 5913SOL    HW118125   2.597   4.354  11.092
 5913SOL    HW218126   2.638   4.209  11.027
 5914SOL     OW18127   3.087   4.049   9.759
 5914SOL    HW118128   3.152   3.975   9.748
 5914SOL    HW218129   3.107   4.099   9.843
 5915SOL     OW18130   3.639   4.066  10.952
 5915SOL    HW118131   3.622   4.097  10.858
 5915SOL    HW218132   3.555   4.029  10.990
 5916SOL     OW18133   2.945   4.708   9.397
 5916SOL    HW118134   2.922   4.761   9.315
 5916SOL    HW218135   3.026   4.652   9.378
 5917SOL     OW18136   3.686   3.916  10.537
 5917SOL    HW118137   3.682   3.826  10.581
 5917SOL    HW218138   3.689   3.905  10.438
 5918SOL     OW18139   2.290   4.148   9.830
 5918SOL    HW118140   2.320   4.076   9.768
 5918SOL    HW218141   2.251   4.108   9.913
 5919SOL     OW18142   2.179   4.271  10.590
 5919SOL    HW118143   2.217   4.212  10.662
 5919SOL    HW218144   2.219   4.245  10.502
 5920SOL     OW18145   3.286   3.938  10.422
 5920SOL    HW118146   3.338   3.873  10.477
 5920SOL    HW218147   3.237   4.001  10.483
 5921SOL     OW18148   2.863   3.758  10.464
 5921SOL    HW118149   2.800   3.686  10.433
 5921SOL    HW218150   2.956   3.722  10.464
 5922SOL     OW18151   3.214   3.776   9.478
 5922SOL    HW118152   3.249   3.735   9.394
 5922SOL    HW218153   3.124   3.738   9.498
 5923SOL     OW18154   3.162   4.177  10.001
 5923SOL    HW118155   3.103   4.257  10.005
 5923SOL    HW218156   3.177   4.142  10.094
 5924SOL     OW18157   3.455   3.945  10.192
 5924SOL    HW118158   3.371   3.944  10.246
 5924SOL    HW218159   3.457   4.028  10.136
 5925SOL     OW18160   3.954   0.628   0.113
 5925SOL    HW118161   3.861   0.626   0.150
 5925SOL    HW218162   3.955   0.589   0.021
 5926SOL     OW18163   3.949   0.275   0.996
 5926SOL    HW118164   3.984   0.258   1.088
 5926SOL    HW218165   3.861   0.230   0.984
 5927SOL     OW18166   3.743   0.368   0.647
 5927SOL    HW118167   3.661   0.411   0.686
 5927SOL    HW218168   3.715   0.295   0.584
 5928SOL     OW18169   4.293   1.275   1.165
 5928SOL    HW118170   4.200   1.268   1.128
 5928SOL    HW218171   4.304   1.364   1.209
 5929SOL     OW18172   4.574   0.798   1.823
 5929SOL    HW118173   4.570   0.874   1.888
 5929SOL    HW218174   4.596   0.834   1.732
 5930SOL     OW18175   4.409   1.012   0.665
 5930SOL    HW118176   4.478   0.996   0.735
 5930SOL    HW218177   4.336   1.069   0.703
 5931SOL     OW18178   4.410   1.161   1.803
 5931SOL    HW118179   4.470   1.240   1.817
 5931SOL    HW218180   4.324   1.192   1.762
 5932SOL     OW18181   4.059   1.435   1.061
 5932SOL    HW118182   3.981   1.404   1.008
 5932SOL    HW218183   4.117   1.493   1.004
 5933SOL     OW18184   4.162   0.392   1.499
 5933SOL    HW118185   4.244   0.336   1.508
 5933SOL    HW218186   4.081   0.334   1.503
 5934SOL     OW18187   3.955   1.713   0.483
 5934SOL    HW118188   3.989   1.790   0.537
 5934SOL    HW218189   3.999   1.713   0.393
 5935SOL     OW18190   3.954   1.434   0.538
 5935SOL    HW118191   3.928   1.530   0.538
 5935SOL    HW218192   3.883   1.380   0.583
 5936SOL     OW18193   3.964   1.091   0.886
 5936SOL    HW118194   3.978   1.007   0.938
 5936SOL    HW218195   3.909   1.155   0.941
 5937SOL     OW18196   4.344   1.786   1.439
 5937SOL    HW118197   4.252   1.769   1.474
 5937SOL    HW218198   4.372   1.878   1.465
 5938SOL     OW18199   4.330   0.964   0.123
 5938SOL    HW118200   4.337   1.048   0.069
 5938SOL    HW218201   4.376   0.977   0.211
 5939SOL     OW18202   3.846   0.643   0.563
 5939SOL    HW118203   3.801   0.555   0.580
 5939SOL    HW218204   3.845   0.697   0.647
 5940SOL     OW18205   3.751   1.596   0.117
 5940SOL    HW118206   3.732   1.500   0.138
 5940SOL    HW218207   3.718   1.654   0.192
 5941SOL     OW18208   3.837   0.737   1.597
 5941SOL    HW118209   3.925   0.724   1.642
 5941SOL    HW218210   3.824   0.834   1.575
 5942SOL     OW18211   4.337   1.365   0.726
 5942SOL    HW118212   4.288   1.278   0.735
 5942SOL    HW218213   4.314   1.408   0.639
 5943SOL     OW18214   4.533   0.004   0.502
 5943SOL    HW118215   4.573   0.095   0.493
 5943SOL    HW218216   4.433   0.012   0.508
 5944SOL     OW18217   3.921   0.976   1.264
 5944SOL    HW118218   4.010   0.931   1.250
 5944SOL    HW218219   3.848   0.911   1.245
 5945SOL     OW18220   4.041   0.251   1.801
 5945SOL    HW118221   4.112   0.322   1.807
 5945SOL    HW218222   3.953   0.290   1.829
 5946SOL     OW18223   4.322   0.729   0.270
 5946SOL    HW118224   4.346   0.798   0.202
 5946SOL    HW218225   4.244   0.762   0.324
 5947SOL     OW18226   3.800   0.811   0.789
 5947SOL    HW118227   3.899   0.799   0.798
 5947SOL    HW218228   3.776   0.906   0.810
 5948SOL     OW18229   3.854   1.821   1.571
 5948SOL    HW118230   3.844   1.806   1.670
 5948SOL    HW218231   3.768   1.857   1.535
 5949SOL     OW18232   4.274   0.196   0.885
 5949SOL    HW118233   4.269   0.191   0.985
 5949SOL    HW218234   4.276   0.292   0.856
 5950SOL     OW18235   4.075   1.801   0.853
 5950SOL    HW118236   4.125   1.715   0.859
 5950SOL    HW218237   4.140   1.878   0.850
 5951SOL     OW18238   4.045   0.943   0.242
 5951SOL    HW118239   4.127   0.982   0.200
 5951SOL    HW218240   4.018   0.861   0.193
 5952SOL     OW18241   4.185   1.266   1.727
 5952SOL    HW118242   4.135   1.267   1.641
 5952SOL    HW218243   4.122   1.248   1.803
 5953SOL     OW18244   3.926   0.285   1.498
 5953SOL    HW118245   3.846   0.345   1.485
 5953SOL    HW218246   3.916   0.236   1.584
 5954SOL     OW18247   4.188   1.743   0.323
 5954SOL    HW118248   4.221   1.782   0.409
 5954SOL    HW218249   4.264   1.736   0.258
 5955SOL     OW18250   3.973   1.785   1.241
 5955SOL    HW118251   4.030   1.720   1.291
 5955SOL    HW218252   3.957   1.752   1.148
 5956SOL     OW18253   4.106   0.700   0.480
 5956SOL    HW118254   4.151   0.610   0.477
 5956SOL    HW218255   4.012   0.689   0.513
 5957SOL     OW18256   4.338   0.122   0.117
 5957SOL    HW118257   4.436   0.100   0.124
 5957SOL    HW218258   4.307   0.105   0.024
 5958SOL     OW18259   4.527   1.402   0.924
 5958SOL    HW118260   4.617   1.416   0.882
 5958SOL    HW218261   4.456   1.404   0.853
 5959SOL     OW18262   4.263   0.064   0.512
 5959SOL    HW118263   4.182   0.065   0.570
 5959SOL    HW218264   4.266   0.147   0.457
 5960SOL     OW18265   4.021   0.035   0.171
 5960SOL    HW118266   4.070   0.119   0.150
 5960SOL    HW218267   4.083  -0.030   0.216
 5961SOL     OW18268   4.800   0.683   1.464
 5961SOL    HW118269   4.720   0.622   1.467
 5961SOL    HW218270   4.881   0.630   1.440
 5962SOL     OW18271   4.183   1.152   0.741
 5962SOL    HW118272   4.112   1.125   0.806
 5962SOL    HW218273   4.157   1.124   0.648
 5963SOL     OW18274   3.802   0.556   1.386
 5963SOL    HW118275   3.894   0.555   1.345
 5963SOL    HW218276   3.796   0.630   1.453
 5964SOL     OW18277   4.285   0.222   1.147
 5964SOL    HW118278   4.323   0.138   1.184
 5964SOL    HW218279   4.197   0.241   1.191
 5965SOL     OW18280   4.212   1.385   0.174
 5965SOL    HW118281   4.125   1.370   0.221
 5965SOL    HW218282   4.195   1.411   0.079
 5966SOL     OW18283   4.251   0.256   0.328
 5966SOL    HW118284   4.278   0.197   0.253
 5966SOL    HW218285   4.251   0.351   0.297
 5967SOL     OW18286   4.134   0.813   1.251
 5967SOL    HW118287   4.220   0.825   1.301
 5967SOL    HW218288   4.092   0.726   1.278
 5968SOL     OW18289   3.788   1.564   1.331
 5968SOL    HW118290   3.742   1.646   1.297
 5968SOL    HW218291   3.886   1.583   1.340
 5969SOL     OW18292   4.091   1.100   0.501
 5969SOL    HW118293   4.084   1.183   0.445
 5969SOL    HW218294   4.095   1.020   0.441
 5970SOL     OW18295   4.290   0.537   0.865
 5970SOL    HW118296   4.302   0.603   0.791
 5970SOL    HW218297   4.336   0.571   0.948
 5971SOL     OW18298   4.078   1.510   1.329
 5971SOL    HW118299   4.057   1.466   1.242
 5971SOL    HW218300   4.175   1.536   1.332
 5972SOL     OW18301   4.126   0.751   1.598
 5972SOL    HW118302   4.194   0.806   1.551
 5972SOL    HW218303   4.166   0.663   1.625
 5973SOL     OW18304   4.228   0.050   1.740
 5973SOL    HW118305   4.186  -0.007   1.670
 5973SOL    HW218306   4.162   0.119   1.772
 5974SOL     OW18307   4.297   0.870   1.029
 5974SOL    HW118308   4.341   0.959   1.020
 5974SOL    HW218309   4.234   0.870   1.106
 5975SOL     OW18310   4.031   0.213   1.231
 5975SOL    HW118311   4.008   0.250   1.321
 5975SOL    HW218312   4.001   0.118   1.225
 5976SOL     OW18313   3.761   1.310   1.282
 5976SOL    HW118314   3.814   1.261   1.350
 5976SOL    HW218315   3.783   1.408   1.287
 5977SOL     OW18316   4.031   0.063   0.618
 5977SOL    HW118317   4.020   0.157   0.651
 5977SOL    HW218318   4.026   0.000   0.695
 5978SOL     OW18319   4.074   0.898   1.804
 5978SOL    HW118320   4.150   0.942   1.852
 5978SOL    HW218321   4.109   0.851   1.722
 5979SOL     OW18322   4.043   0.810   0.949
 5979SOL    HW118323   4.136   0.846   0.954
 5979SOL    HW218324   4.037   0.725   1.001
 5980SOL     OW18325   4.063   0.509   1.006
 5980SOL    HW118326   4.011   0.426   0.989
 5980SOL    HW218327   4.140   0.514   0.942
 5981SOL     OW18328   3.732   1.326   0.200
 5981SOL    HW118329   3.639   1.347   0.169
 5981SOL    HW218330   3.742   1.227   0.213
 5982SOL     OW18331   3.812   1.801   0.927
 5982SOL    HW118332   3.770   1.715   0.900
 5982SOL    HW218333   3.906   1.804   0.893
 5983SOL     OW18334   4.228   1.568   0.910
 5983SOL    HW118335   4.294   1.642   0.919
 5983SOL    HW218336   4.272   1.489   0.868
 5984SOL     OW18337   3.764   0.544   1.114
 5984SOL    HW118338   3.849   0.511   1.073
 5984SOL    HW218339   3.777   0.559   1.212
 5985SOL     OW18340   3.913   0.520   1.722
 5985SOL    HW118341   3.972   0.480   1.652
 5985SOL    HW218342   3.855   0.591   1.681
 5986SOL     OW18343   4.539   0.572   0.325
 5986SOL    HW118344   4.546   0.483   0.279
 5986SOL    HW218345   4.445   0.606   0.317
 5987SOL     OW18346   3.976   1.564   1.744
 5987SOL    HW118347   3.946   1.621   1.820
 5987SOL    HW218348   3.969   1.467   1.770
 5988SOL     OW18349   4.197   0.500   0.191
 5988SOL    HW118350   4.258   0.580   0.195
 5988SOL    HW218351   4.102   0.531   0.198
 5989SOL     OW18352   3.883   1.137   1.466
 5989SOL    HW118353   3.905   1.076   1.542
 5989SOL    HW218354   3.893   1.088   1.380
 5990SOL     OW18355   3.807   1.258   1.022
 5990SOL    HW118356   3.802   1.257   1.122
 5990SOL    HW218357   3.724   1.217   0.984
 5991SOL     OW18358   4.412   1.662   1.716
 5991SOL    HW118359   4.356   1.743   1.725
 5991SOL    HW218360   4.464   1.666   1.630
 5992SOL     OW18361   3.854   1.794   1.851
 5992SOL    HW118362   3.813   1.720   1.904
 5992SOL    HW218363   3.918   1.845   1.909
 5993SOL     OW18364   3.987   0.326   0.720
 5993SOL    HW118365   3.908   0.377   0.686
 5993SOL    HW218366   3.978   0.311   0.818
 5994SOL     OW18367   4.096   1.288   1.490
 5994SOL    HW118368   4.083   1.381   1.456
 5994SOL    HW218369   4.012   1.236   1.477
 5995SOL     OW18370   4.314   1.487   0.491
 5995SOL    HW118371   4.356   1.429   0.421
 5995SOL    HW218372   4.270   1.566   0.447
 5996SOL     OW18373   3.979   1.348   0.290
 5996SOL    HW118374   3.883   1.349   0.263
 5996SOL    HW218375   3.991   1.401   0.374
 5997SOL     OW18376   3.829   1.013   1.726
 5997SOL    HW118377   3.752   0.980   1.780
 5997SOL    HW218378   3.914   0.983   1.768
 5998SOL     OW18379   4.396   0.203   1.489
 5998SOL    HW118380   4.486   0.187   1.449
 5998SOL    HW218381   4.404   0.208   1.588
 5999SOL     OW18382   3.799   0.345   0.033
 5999SOL    HW118383   3.707   0.317   0.004
 5999SOL    HW218384   3.830   0.422  -0.023
 6000SOL     OW18385   3.796   0.166   0.318
 6000SOL    HW118386   3.779   0.249   0.264
 6000SOL    HW218387   3.886   0.129   0.296
 6001SOL     OW18388   4.337   0.842   1.431
 6001SOL    HW118389   4.393   0.923   1.414
 6001SOL    HW218390   4.396   0.762   1.434
 6002SOL     OW18391   4.440   0.565   1.708
 6002SOL    HW118392   4.459   0.630   1.782
 6002SOL    HW218393   4.500   0.485   1.717
 6003SOL     OW18394   4.114   1.741   1.560
 6003SOL    HW118395   4.023   1.782   1.558
 6003SOL    HW218396   4.107   1.647   1.592
 6004SOL     OW18397   4.318   0.745   0.652
 6004SOL    HW118398   4.368   0.830   0.633
 6004SOL    HW218399   4.230   0.747   0.604
 6005SOL     OW18400   3.945   1.314   1.844
 6005SOL    HW118401   3.880   1.241   1.823
 6005SOL    HW218402   3.949   1.328   1.942
 6006SOL     OW18403   3.803   1.240   0.653
 6006SOL    HW118404   3.802   1.193   0.741
 6006SOL    HW218405   3.885   1.212   0.602
 6007SOL     OW18406   4.396   1.391   1.624
 6007SOL    HW118407   4.318   1.341   1.662
 6007SOL    HW218408   4.393   1.486   1.655
 6008SOL     OW18409   4.152   0.424   0.520
 6008SOL    HW118410   4.182   0.352   0.458
 6008SOL    HW218411   4.113   0.384   0.603
 6009SOL     OW18412   4.041   0.547   1.280
 6009SOL    HW118413   4.079   0.488   1.352
 6009SOL    HW218414   4.081   0.521   1.192
 6010SOL     OW18415   4.536   1.586   0.687
 6010SOL    HW118416   4.568   1.596   0.593
 6010SOL    HW218417   4.457   1.524   0.689
 6011SOL     OW18418   3.763   1.077   0.300
 6011SOL    HW118419   3.862   1.066   0.291
 6011SOL    HW218420   3.723   0.991   0.332
 6012SOL     OW18421   3.954   0.628   1.975
 6012SOL    HW118422   3.861   0.626   2.012
 6012SOL    HW218423   3.955   0.589   1.883
 6013SOL     OW18424   3.949   0.275   2.858
 6013SOL    HW118425   3.984   0.258   2.950
 6013SOL    HW218426   3.861   0.230   2.846
 6014SOL     OW18427   3.743   0.368   2.509
 6014SOL    HW118428   3.661   0.411   2.548
 6014SOL    HW218429   3.715   0.295   2.446
 6015SOL     OW18430   4.293   1.275   3.027
 6015SOL    HW118431   4.200   1.268   2.990
 6015SOL    HW218432   4.304   1.364   3.071
 6016SOL     OW18433   4.574   0.798   3.685
 6016SOL    HW118434   4.570   0.874   3.750
 6016SOL    HW218435   4.596   0.834   3.594
 6017SOL     OW18436   4.409   1.012   2.527
 6017SOL    HW118437   4.478   0.996   2.597
 6017SOL    HW218438   4.336   1.069   2.565
 6018SOL     OW18439   4.410   1.161   3.665
 6018SOL    HW118440   4.470   1.240   3.679
 6018SOL    HW218441   4.324   1.192   3.624
 6019SOL     OW18442   4.059   1.435   2.923
 6019SOL    HW118443   3.981   1.404   2.870
 6019SOL    HW218444   4.117   1.493   2.866
 6020SOL     OW18445   4.162   0.392   3.361
 6020SOL    HW118446   4.244   0.336   3.370
 6020SOL    HW218447   4.081   0.334   3.365
 6021SOL     OW18448   3.955   1.713   2.345
 6021SOL    HW118449   3.989   1.790   2.399
 6021SOL    HW218450   3.999   1.713   2.255
 6022SOL     OW18451   3.954   1.434   2.400
 6022SOL    HW118452   3.928   1.530   2.400
 6022SOL    HW218453   3.883   1.380   2.445
 6023SOL     OW18454   3.964   1.091   2.748
 6023SOL    HW118455   3.978   1.007   2.800
 6023SOL    HW218456   3.909   1.155   2.803
 6024SOL     OW18457   4.344   1.786   3.301
 6024SOL    HW118458   4.252   1.769   3.336
 6024SOL    HW218459   4.372   1.878   3.327
 6025SOL     OW18460   4.330   0.964   1.985
 6025SOL    HW118461   4.337   1.048   1.931
 6025SOL    HW218462   4.376   0.977   2.073
 6026SOL     OW18463   3.846   0.643   2.425
 6026SOL    HW118464   3.801   0.555   2.442
 6026SOL    HW218465   3.845   0.697   2.509
 6027SOL     OW18466   3.751   1.596   1.979
 6027SOL    HW118467   3.732   1.500   2.000
 6027SOL    HW218468   3.718   1.654   2.054
 6028SOL     OW18469   3.837   0.737   3.459
 6028SOL    HW118470   3.925   0.724   3.504
 6028SOL    HW218471   3.824   0.834   3.437
 6029SOL     OW18472   4.337   1.365   2.588
 6029SOL    HW118473   4.288   1.278   2.597
 6029SOL    HW218474   4.314   1.408   2.501
 6030SOL     OW18475   4.533   0.004   2.364
 6030SOL    HW118476   4.573   0.095   2.355
 6030SOL    HW218477   4.433   0.012   2.370
 6031SOL     OW18478   3.921   0.976   3.126
 6031SOL    HW118479   4.010   0.931   3.112
 6031SOL    HW218480   3.848   0.911   3.107
 6032SOL     OW18481   4.041   0.251   3.663
 6032SOL    HW118482   4.112   0.322   3.669
 6032SOL    HW218483   3.953   0.290   3.691
 6033SOL     OW18484   4.322   0.729   2.132
 6033SOL    HW118485   4.346   0.798   2.064
 6033SOL    HW218486   4.244   0.762   2.186
 6034SOL     OW18487   3.800   0.811   2.651
 6034SOL    HW118488   3.899   0.799   2.660
 6034SOL    HW218489   3.776   0.906   2.672
 6035SOL     OW18490   3.854   1.821   3.433
 6035SOL    HW118491   3.844   1.806   3.532
 6035SOL    HW218492   3.768   1.857   3.397
 6036SOL     OW18493   4.274   0.196   2.747
 6036SOL    HW118494   4.269   0.191   2.847
 6036SOL    HW218495   4.276   0.292   2.718
 6037SOL     OW18496   4.075   1.801   2.715
 6037SOL    HW118497   4.125   1.715   2.721
 6037SOL    HW218498   4.140   1.878   2.712
 6038SOL     OW18499   4.045   0.943   2.104
 6038SOL    HW118500   4.127   0.982   2.062
 6038SOL    HW218501   4.018   0.861   2.055
 6039SOL     OW18502   4.185   1.266   3.589
 6039SOL    HW118503   4.135   1.267   3.503
 6039SOL    HW218504   4.122   1.248   3.665
 6040SOL     OW18505   3.926   0.285   3.360
 6040SOL    HW118506   3.846   0.345   3.347
 6040SOL    HW218507   3.916   0.236   3.446
 6041SOL     OW18508   4.188   1.743   2.185
 6041SOL    HW118509   4.221   1.782   2.271
 6041SOL    HW218510   4.264   1.736   2.120
 6042SOL     OW18511   3.973   1.785   3.103
 6042SOL    HW118512   4.030   1.720   3.153
 6042SOL    HW218513   3.957   1.752   3.010
 6043SOL     OW18514   4.106   0.700   2.342
 6043SOL    HW118515   4.151   0.610   2.339
 6043SOL    HW218516   4.012   0.689   2.375
 6044SOL     OW18517   4.338   0.122   1.979
 6044SOL    HW118518   4.436   0.100   1.986
 6044SOL    HW218519   4.307   0.105   1.886
 6045SOL     OW18520   4.527   1.402   2.786
 6045SOL    HW118521   4.617   1.416   2.744
 6045SOL    HW218522   4.456   1.404   2.715
 6046SOL     OW18523   4.263   0.064   2.374
 6046SOL    HW118524   4.182   0.065   2.432
 6046SOL    HW218525   4.266   0.147   2.319
 6047SOL     OW18526   4.021   0.035   2.033
 6047SOL    HW118527   4.070   0.119   2.012
 6047SOL    HW218528   4.083  -0.030   2.078
 6048SOL     OW18529   4.800   0.683   3.326
 6048SOL    HW118530   4.720   0.622   3.329
 6048SOL    HW218531   4.881   0.630   3.302
 6049SOL     OW18532   4.183   1.152   2.603
 6049SOL    HW118533   4.112   1.125   2.668
 6049SOL    HW218534   4.157   1.124   2.510
 6050SOL     OW18535   3.802   0.556   3.248
 6050SOL    HW118536   3.894   0.555   3.207
 6050SOL    HW218537   3.796   0.630   3.315
 6051SOL     OW18538   4.285   0.222   3.009
 6051SOL    HW118539   4.323   0.138   3.046
 6051SOL    HW218540   4.197   0.241   3.053
 6052SOL     OW18541   4.212   1.385   2.036
 6052SOL    HW118542   4.125   1.370   2.083
 6052SOL    HW218543   4.195   1.411   1.941
 6053SOL     OW18544   4.251   0.256   2.190
 6053SOL    HW118545   4.278   0.197   2.115
 6053SOL    HW218546   4.251   0.351   2.159
 6054SOL     OW18547   4.134   0.813   3.113
 6054SOL    HW118548   4.220   0.825   3.163
 6054SOL    HW218549   4.092   0.726   3.140
 6055SOL     OW18550   3.788   1.564   3.193
 6055SOL    HW118551   3.742   1.646   3.159
 6055SOL    HW218552   3.886   1.583   3.202
 6056SOL     OW18553   4.091   1.100   2.363
 6056SOL    HW118554   4.084   1.183   2.307
 6056SOL    HW218555   4.095   1.020   2.303
 6057SOL     OW18556   4.290   0.537   2.727
 6057SOL    HW118557   4.302   0.603   2.653
 6057SOL    HW218558   4.336   0.571   2.810
 6058SOL     OW18559   4.078   1.510   3.191
 6058SOL    HW118560   4.057   1.466   3.104
 6058SOL    HW218561   4.175   1.536   3.194
 6059SOL     OW18562   4.126   0.751   3.460
 6059SOL    HW118563   4.194   0.806   3.413
 6059SOL    HW218564   4.166   0.663   3.487
 6060SOL     OW18565   4.228   0.050   3.602
 6060SOL    HW118566   4.186  -0.007   3.532
 6060SOL    HW218567   4.162   0.119   3.634
 6061SOL     OW18568   4.297   0.870   2.891
 6061SOL    HW118569   4.341   0.959   2.882
 6061SOL    HW218570   4.234   0.870   2.968
 6062SOL     OW18571   4.031   0.213   3.093
 6062SOL    HW118572   4.008   0.250   3.183
 6062SOL    HW218573   4.001   0.118   3.087
 6063SOL     OW18574   3.761   1.310   3.144
 6063SOL    HW118575   3.814   1.261   3.212
 6063SOL    HW218576   3.783   1.408   3.149
 6064SOL     OW18577   4.031   0.063   2.480
 6064SOL    HW118578   4.020   0.157   2.513
 6064SOL    HW218579   4.026   0.000   2.557
 6065SOL     OW18580   4.074   0.898   3.666
 6065SOL    HW118581   4.150   0.942   3.714
 6065SOL    HW218582   4.109   0.851   3.584
 6066SOL     OW18583   4.043   0.810   2.811
 6066SOL    HW118584   4.136   0.846   2.816
 6066SOL    HW218585   4.037   0.725   2.863
 6067SOL     OW18586   4.063   0.509   2.868
 6067SOL    HW118587   4.011   0.426   2.851
 6067SOL    HW218588   4.140   0.514   2.804
 6068SOL     OW18589   3.732   1.326   2.062
 6068SOL    HW118590   3.639   1.347   2.031
 6068SOL    HW218591   3.742   1.227   2.075
 6069SOL     OW18592   3.812   1.801   2.789
 6069SOL    HW118593   3.770   1.715   2.762
 6069SOL    HW218594   3.906   1.804   2.755
 6070SOL     OW18595   4.228   1.568   2.772
 6070SOL    HW118596   4.294   1.642   2.781
 6070SOL    HW218597   4.272   1.489   2.730
 6071SOL     OW18598   3.764   0.544   2.976
 6071SOL    HW118599   3.849   0.511   2.935
 6071SOL    HW218600   3.777   0.559   3.074
 6072SOL     OW18601   3.913   0.520   3.584
 6072SOL    HW118602   3.972   0.480   3.514
 6072SOL    HW218603   3.855   0.591   3.543
 6073SOL     OW18604   4.539   0.572   2.187
 6073SOL    HW118605   4.546   0.483   2.141
 6073SOL    HW218606   4.445   0.606   2.179
 6074SOL     OW18607   3.976   1.564   3.606
 6074SOL    HW118608   3.946   1.621   3.682
 6074SOL    HW218609   3.969   1.467   3.632
 6075SOL     OW18610   4.197   0.500   2.053
 6075SOL    HW118611   4.258   0.580   2.057
 6075SOL    HW218612   4.102   0.531   2.060
 6076SOL     OW18613   3.883   1.137   3.328
 6076SOL    HW118614   3.905   1.076   3.404
 6076SOL    HW218615   3.893   1.088   3.242
 6077SOL     OW18616   3.807   1.258   2.884
 6077SOL    HW118617   3.802   1.257   2.984
 6077SOL    HW218618   3.724   1.217   2.846
 6078SOL     OW18619   4.412   1.662   3.578
 6078SOL    HW118620   4.356   1.743   3.587
 6078SOL    HW218621   4.464   1.666   3.492
 6079SOL     OW18622   3.854   1.794   3.713
 6079SOL    HW118623   3.813   1.720   3.766
 6079SOL    HW218624   3.918   1.845   3.771
 6080SOL     OW18625   3.987   0.326   2.582
 6080SOL    HW118626   3.908   0.377   2.548
 6080SOL    HW218627   3.978   0.311   2.680
 6081SOL     OW18628   4.096   1.288   3.352
 6081SOL    HW118629   4.083   1.381   3.318
 6081SOL    HW218630   4.012   1.236   3.339
 6082SOL     OW18631   4.314   1.487   2.353
 6082SOL    HW118632   4.356   1.429   2.283
 6082SOL    HW218633   4.270   1.566   2.309
 6083SOL     OW18634   3.979   1.348   2.152
 6083SOL    HW118635   3.883   1.349   2.125
 6083SOL    HW218636   3.991   1.401   2.236
 6084SOL     OW18637   3.829   1.013   3.588
 6084SOL    HW118638   3.752   0.980   3.642
 6084SOL    HW218639   3.914   0.983   3.630
 6085SOL     OW18640   4.396   0.203   3.351
 6085SOL    HW118641   4.486   0.187   3.311
 6085SOL    HW218642   4.404   0.208   3.450
 6086SOL     OW18643   3.799   0.345   1.895
 6086SOL    HW118644   3.707   0.317   1.866
 6086SOL    HW218645   3.830   0.422   1.839
 6087SOL     OW18646   3.796   0.166   2.180
 6087SOL    HW118647   3.779   0.249   2.126
 6087SOL    HW218648   3.886   0.129   2.158
 6088SOL     OW18649   4.337   0.842   3.293
 6088SOL    HW118650   4.393   0.923   3.276
 6088SOL    HW218651   4.396   0.762   3.296
 6089SOL     OW18652   4.440   0.565   3.570
 6089SOL    HW118653   4.459   0.630   3.644
 6089SOL    HW218654   4.500   0.485   3.579
 6090SOL     OW18655   4.114   1.741   3.422
 6090SOL    HW118656   4.023   1.782   3.420
 6090SOL    HW218657   4.107   1.647   3.454
 6091SOL     OW18658   4.318   0.745   2.514
 6091SOL    HW118659   4.368   0.830   2.495
 6091SOL    HW218660   4.230   0.747   2.466
 6092SOL     OW18661   3.945   1.314   3.706
 6092SOL    HW118662   3.880   1.241   3.685
 6092SOL    HW218663   3.949   1.328   3.804
 6093SOL     OW18664   3.803   1.240   2.515
 6093SOL    HW118665   3.802   1.193   2.603
 6093SOL    HW218666   3.885   1.212   2.464
 6094SOL     OW18667   4.396   1.391   3.486
 6094SOL    HW118668   4.318   1.341   3.524
 6094SOL    HW218669   4.393   1.486   3.517
 6095SOL     OW18670   4.152   0.424   2.382
 6095SOL    HW118671   4.182   0.352   2.320
 6095SOL    HW218672   4.113   0.384   2.465
 6096SOL     OW18673   4.041   0.547   3.142
 6096SOL    HW118674   4.079   0.488   3.214
 6096SOL    HW218675   4.081   0.521   3.054
 6097SOL     OW18676   4.536   1.586   2.549
 6097SOL    HW118677   4.568   1.596   2.455
 6097SOL    HW218678   4.457   1.524   2.551
 6098SOL     OW18679   3.763   1.077   2.162
 6098SOL    HW118680   3.862   1.066   2.153
 6098SOL    HW218681   3.723   0.991   2.194
 6099SOL     OW18682   3.954   0.628   3.837
 6099SOL    HW118683   3.861   0.626   3.874
 6099SOL    HW218684   3.955   0.589   3.745
 6100SOL     OW18685   3.949   0.275   4.720
 6100SOL    HW118686   3.984   0.258   4.812
 6100SOL    HW218687   3.861   0.230   4.708
 6101SOL     OW18688   3.743   0.368   4.371
 6101SOL    HW118689   3.661   0.411   4.410
 6101SOL    HW218690   3.715   0.295   4.308
 6102SOL     OW18691   4.293   1.275   4.889
 6102SOL    HW118692   4.200   1.268   4.852
 6102SOL    HW218693   4.304   1.364   4.933
 6103SOL     OW18694   4.574   0.798   5.547
 6103SOL    HW118695   4.570   0.874   5.612
 6103SOL    HW218696   4.596   0.834   5.456
 6104SOL     OW18697   4.409   1.012   4.389
 6104SOL    HW118698   4.478   0.996   4.459
 6104SOL    HW218699   4.336   1.069   4.427
 6105SOL     OW18700   4.410   1.161   5.527
 6105SOL    HW118701   4.470   1.240   5.541
 6105SOL    HW218702   4.324   1.192   5.486
 6106SOL     OW18703   4.059   1.435   4.785
 6106SOL    HW118704   3.981   1.404   4.732
 6106SOL    HW218705   4.117   1.493   4.728
 6107SOL     OW18706   4.162   0.392   5.223
 6107SOL    HW118707   4.244   0.336   5.232
 6107SOL    HW218708   4.081   0.334   5.227
 6108SOL     OW18709   3.955   1.713   4.207
 6108SOL    HW118710   3.989   1.790   4.261
 6108SOL    HW218711   3.999   1.713   4.117
 6109SOL     OW18712   3.954   1.434   4.262
 6109SOL    HW118713   3.928   1.530   4.262
 6109SOL    HW218714   3.883   1.380   4.307
 6110SOL     OW18715   3.964   1.091   4.610
 6110SOL    HW118716   3.978   1.007   4.662
 6110SOL    HW218717   3.909   1.155   4.665
 6111SOL     OW18718   4.344   1.786   5.163
 6111SOL    HW118719   4.252   1.769   5.198
 6111SOL    HW218720   4.372   1.878   5.189
 6112SOL     OW18721   4.330   0.964   3.847
 6112SOL    HW118722   4.337   1.048   3.793
 6112SOL    HW218723   4.376   0.977   3.935
 6113SOL     OW18724   3.846   0.643   4.287
 6113SOL    HW118725   3.801   0.555   4.304
 6113SOL    HW218726   3.845   0.697   4.371
 6114SOL     OW18727   3.751   1.596   3.841
 6114SOL    HW118728   3.732   1.500   3.862
 6114SOL    HW218729   3.718   1.654   3.916
 6115SOL     OW18730   3.837   0.737   5.321
 6115SOL    HW118731   3.925   0.724   5.366
 6115SOL    HW218732   3.824   0.834   5.299
 6116SOL     OW18733   4.337   1.365   4.450
 6116SOL    HW118734   4.288   1.278   4.459
 6116SOL    HW218735   4.314   1.408   4.363
 6117SOL     OW18736   4.533   0.004   4.226
 6117SOL    HW118737   4.573   0.095   4.217
 6117SOL    HW218738   4.433   0.012   4.232
 6118SOL     OW18739   3.921   0.976   4.988
 6118SOL    HW118740   4.010   0.931   4.974
 6118SOL    HW218741   3.848   0.911   4.969
 6119SOL     OW18742   4.041   0.251   5.525
 6119SOL    HW118743   4.112   0.322   5.531
 6119SOL    HW218744   3.953   0.290   5.553
 6120SOL     OW18745   4.322   0.729   3.994
 6120SOL    HW118746   4.346   0.798   3.926
 6120SOL    HW218747   4.244   0.762   4.048
 6121SOL     OW18748   3.800   0.811   4.513
 6121SOL    HW118749   3.899   0.799   4.522
 6121SOL    HW218750   3.776   0.906   4.534
 6122SOL     OW18751   3.854   1.821   5.295
 6122SOL    HW118752   3.844   1.806   5.394
 6122SOL    HW218753   3.768   1.857   5.259
 6123SOL     OW18754   4.274   0.196   4.609
 6123SOL    HW118755   4.269   0.191   4.709
 6123SOL    HW218756   4.276   0.292   4.580
 6124SOL     OW18757   4.075   1.801   4.577
 6124SOL    HW118758   4.125   1.715   4.583
 6124SOL    HW218759   4.140   1.878   4.574
 6125SOL     OW18760   4.045   0.943   3.966
 6125SOL    HW118761   4.127   0.982   3.924
 6125SOL    HW218762   4.018   0.861   3.917
 6126SOL     OW18763   4.185   1.266   5.451
 6126SOL    HW118764   4.135   1.267   5.365
 6126SOL    HW218765   4.122   1.248   5.527
 6127SOL     OW18766   3.926   0.285   5.222
 6127SOL    HW118767   3.846   0.345   5.209
 6127SOL    HW218768   3.916   0.236   5.308
 6128SOL     OW18769   4.188   1.743   4.047
 6128SOL    HW118770   4.221   1.782   4.133
 6128SOL    HW218771   4.264   1.736   3.982
 6129SOL     OW18772   3.973   1.785   4.965
 6129SOL    HW118773   4.030   1.720   5.015
 6129SOL    HW218774   3.957   1.752   4.872
 6130SOL     OW18775   4.106   0.700   4.204
 6130SOL    HW118776   4.151   0.610   4.201
 6130SOL    HW218777   4.012   0.689   4.237
 6131SOL     OW18778   4.338   0.122   3.841
 6131SOL    HW118779   4.436   0.100   3.848
 6131SOL    HW218780   4.307   0.105   3.748
 6132SOL     OW18781   4.527   1.402   4.648
 6132SOL    HW118782   4.617   1.416   4.606
 6132SOL    HW218783   4.456   1.404   4.577
 6133SOL     OW18784   4.263   0.064   4.236
 6133SOL    HW118785   4.182   0.065   4.294
 6133SOL    HW218786   4.266   0.147   4.181
 6134SOL     OW18787   4.021   0.035   3.895
 6134SOL    HW118788   4.070   0.119   3.874
 6134SOL    HW218789   4.083  -0.030   3.940
 6135SOL     OW18790   4.800   0.683   5.188
 6135SOL    HW118791   4.720   0.622   5.191
 6135SOL    HW218792   4.881   0.630   5.164
 6136SOL     OW18793   4.183   1.152   4.465
 6136SOL    HW118794   4.112   1.125   4.530
 6136SOL    HW218795   4.157   1.124   4.372
 6137SOL     OW18796   3.802   0.556   5.110
 6137SOL    HW118797   3.894   0.555   5.069
 6137SOL    HW218798   3.796   0.630   5.177
 6138SOL     OW18799   4.285   0.222   4.871
 6138SOL    HW118800   4.323   0.138   4.908
 6138SOL    HW218801   4.197   0.241   4.915
 6139SOL     OW18802   4.212   1.385   3.898
 6139SOL    HW118803   4.125   1.370   3.945
 6139SOL    HW218804   4.195   1.411   3.803
 6140SOL     OW18805   4.251   0.256   4.052
 6140SOL    HW118806   4.278   0.197   3.977
 6140SOL    HW218807   4.251   0.351   4.021
 6141SOL     OW18808   4.134   0.813   4.975
 6141SOL    HW118809   4.220   0.825   5.025
 6141SOL    HW218810   4.092   0.726   5.002
 6142SOL     OW18811   3.788   1.564   5.055
 6142SOL    HW118812   3.742   1.646   5.021
 6142SOL    HW218813   3.886   1.583   5.064
 6143SOL     OW18814   4.091   1.100   4.225
 6143SOL    HW118815   4.084   1.183   4.169
 6143SOL    HW218816   4.095   1.020   4.165
 6144SOL     OW18817   4.290   0.537   4.589
 6144SOL    HW118818   4.302   0.603   4.515
 6144SOL    HW218819   4.336   0.571   4.672
 6145SOL     OW18820   4.078   1.510   5.053
 6145SOL    HW118821   4.057   1.466   4.966
 6145SOL    HW218822   4.175   1.536   5.056
 6146SOL     OW18823   4.126   0.751   5.322
 6146SOL    HW118824   4.194   0.806   5.275
 6146SOL    HW218825   4.166   0.663   5.349
 6147SOL     OW18826   4.228   0.050   5.464
 6147SOL    HW118827   4.186  -0.007   5.394
 6147SOL    HW218828   4.162   0.119   5.496
 6148SOL     OW18829   4.297   0.870   4.753
 6148SOL    HW118830   4.341   0.959   4.744
 6148SOL    HW218831   4.234   0.870   4.830
 6149SOL     OW18832   4.031   0.213   4.955
 6149SOL    HW118833   4.008   0.250   5.045
 6149SOL    HW218834   4.001   0.118   4.949
 6150SOL     OW18835   3.761   1.310   5.006
 6150SOL    HW118836   3.814   1.261   5.074
 6150SOL    HW218837   3.783   1.408   5.011
 6151SOL     OW18838   4.031   0.063   4.342
 6151SOL    HW118839   4.020   0.157   4.375
 6151SOL    HW218840   4.026   0.000   4.419
 6152SOL     OW18841   4.074   0.898   5.528
 6152SOL    HW118842   4.150   0.942   5.576
 6152SOL    HW218843   4.109   0.851   5.446
 6153SOL     OW18844   4.043   0.810   4.673
 6153SOL    HW118845   4.136   0.846   4.678
 6153SOL    HW218846   4.037   0.725   4.725
 6154SOL     OW18847   4.063   0.509   4.730
 6154SOL    HW118848   4.011   0.426   4.713
 6154SOL    HW218849   4.140   0.514   4.666
 6155SOL     OW18850   3.732   1.326   3.924
 6155SOL    HW118851   3.639   1.347   3.893
 6155SOL    HW218852   3.742   1.227   3.937
 6156SOL     OW18853   3.812   1.801   4.651
 6156SOL    HW118854   3.770   1.715   4.624
 6156SOL    HW218855   3.906   1.804   4.617
 6157SOL     OW18856   4.228   1.568   4.634
 6157SOL    HW118857   4.294   1.642   4.643
 6157SOL    HW218858   4.272   1.489   4.592
 6158SOL     OW18859   3.764   0.544   4.838
 6158SOL    HW118860   3.849   0.511   4.797
 6158SOL    HW218861   3.777   0.559   4.936
 6159SOL     OW18862   3.913   0.520   5.446
 6159SOL    HW118863   3.972   0.480   5.376
 6159SOL    HW218864   3.855   0.591   5.405
 6160SOL     OW18865   4.539   0.572   4.049
 6160SOL    HW118866   4.546   0.483   4.003
 6160SOL    HW218867   4.445   0.606   4.041
 6161SOL     OW18868   3.976   1.564   5.468
 6161SOL    HW118869   3.946   1.621   5.544
 6161SOL    HW218870   3.969   1.467   5.494
 6162SOL     OW18871   4.197   0.500   3.915
 6162SOL    HW118872   4.258   0.580   3.919
 6162SOL    HW218873   4.102   0.531   3.922
 6163SOL     OW18874   3.883   1.137   5.190
 6163SOL    HW118875   3.905   1.076   5.266
 6163SOL    HW218876   3.893   1.088   5.104
 6164SOL     OW18877   3.807   1.258   4.746
 6164SOL    HW118878   3.802   1.257   4.846
 6164SOL    HW218879   3.724   1.217   4.708
 6165SOL     OW18880   4.412   1.662   5.440
 6165SOL    HW118881   4.356   1.743   5.449
 6165SOL    HW218882   4.464   1.666   5.354
 6166SOL     OW18883   3.854   1.794   5.575
 6166SOL    HW118884   3.813   1.720   5.628
 6166SOL    HW218885   3.918   1.845   5.633
 6167SOL     OW18886   3.987   0.326   4.444
 6167SOL    HW118887   3.908   0.377   4.410
 6167SOL    HW218888   3.978   0.311   4.542
 6168SOL     OW18889   4.096   1.288   5.214
 6168SOL    HW118890   4.083   1.381   5.180
 6168SOL    HW218891   4.012   1.236   5.201
 6169SOL     OW18892   4.314   1.487   4.215
 6169SOL    HW118893   4.356   1.429   4.145
 6169SOL    HW218894   4.270   1.566   4.171
 6170SOL     OW18895   3.979   1.348   4.014
 6170SOL    HW118896   3.883   1.349   3.987
 6170SOL    HW218897   3.991   1.401   4.098
 6171SOL     OW18898   3.829   1.013   5.450
 6171SOL    HW118899   3.752   0.980   5.504
 6171SOL    HW218900   3.914   0.983   5.492
 6172SOL     OW18901   4.396   0.203   5.213
 6172SOL    HW118902   4.486   0.187   5.173
 6172SOL    HW218903   4.404   0.208   5.312
 6173SOL     OW18904   3.799   0.345   3.757
 6173SOL    HW118905   3.707   0.317   3.728
 6173SOL    HW218906   3.830   0.422   3.701
 6174SOL     OW18907   3.796   0.166   4.042
 6174SOL    HW118908   3.779   0.249   3.988
 6174SOL    HW218909   3.886   0.129   4.020
 6175SOL     OW18910   4.337   0.842   5.155
 6175SOL    HW118911   4.393   0.923   5.138
 6175SOL    HW218912   4.396   0.762   5.158
 6176SOL     OW18913   4.440   0.565   5.432
 6176SOL    HW118914   4.459   0.630   5.506
 6176SOL    HW218915   4.500   0.485   5.441
 6177SOL     OW18916   4.114   1.741   5.284
 6177SOL    HW118917   4.023   1.782   5.282
 6177SOL    HW218918   4.107   1.647   5.316
 6178SOL     OW18919   4.318   0.745   4.376
 6178SOL    HW118920   4.368   0.830   4.357
 6178SOL    HW218921   4.230   0.747   4.328
 6179SOL     OW18922   3.945   1.314   5.568
 6179SOL    HW118923   3.880   1.241   5.547
 6179SOL    HW218924   3.949   1.328   5.666
 6180SOL     OW18925   3.803   1.240   4.377
 6180SOL    HW118926   3.802   1.193   4.465
 6180SOL    HW218927   3.885   1.212   4.326
 6181SOL     OW18928   4.396   1.391   5.348
 6181SOL    HW118929   4.318   1.341   5.386
 6181SOL    HW218930   4.393   1.486   5.379
 6182SOL     OW18931   4.152   0.424   4.244
 6182SOL    HW118932   4.182   0.352   4.182
 6182SOL    HW218933   4.113   0.384   4.327
 6183SOL     OW18934   4.041   0.547   5.004
 6183SOL    HW118935   4.079   0.488   5.076
 6183SOL    HW218936   4.081   0.521   4.916
 6184SOL     OW18937   4.536   1.586   4.411
 6184SOL    HW118938   4.568   1.596   4.317
 6184SOL    HW218939   4.457   1.524   4.413
 6185SOL     OW18940   3.763   1.077   4.024
 6185SOL    HW118941   3.862   1.066   4.015
 6185SOL    HW218942   3.723   0.991   4.056
 6186SOL     OW18943   3.954   0.628   5.699
 6186SOL    HW118944   3.861   0.626   5.736
 6186SOL    HW218945   3.955   0.589   5.607
 6187SOL     OW18946   3.949   0.275   6.582
 6187SOL    HW118947   3.984   0.258   6.674
 6187SOL    HW218948   3.861   0.230   6.570
 6188SOL     OW18949   3.743   0.368   6.233
 6188SOL    HW118950   3.661   0.411   6.272
 6188SOL    HW218951   3.715   0.295   6.170
 6189SOL     OW18952   4.293   1.275   6.751
 6189SOL    HW118953   4.200   1.268   6.714
 6189SOL    HW218954   4.304   1.364   6.795
 6190SOL     OW18955   4.574   0.798   7.409
 6190SOL    HW118956   4.570   0.874   7.474
 6190SOL    HW218957   4.596   0.834   7.318
 6191SOL     OW18958   4.409   1.012   6.251
 6191SOL    HW118959   4.478   0.996   6.321
 6191SOL    HW218960   4.336   1.069   6.289
 6192SOL     OW18961   4.410   1.161   7.389
 6192SOL    HW118962   4.470   1.240   7.403
 6192SOL    HW218963   4.324   1.192   7.348
 6193SOL     OW18964   4.059   1.435   6.647
 6193SOL    HW118965   3.981   1.404   6.594
 6193SOL    HW218966   4.117   1.493   6.590
 6194SOL     OW18967   4.162   0.392   7.085
 6194SOL    HW118968   4.244   0.336   7.094
 6194SOL    HW218969   4.081   0.334   7.089
 6195SOL     OW18970   3.955   1.713   6.069
 6195SOL    HW118971   3.989   1.790   6.123
 6195SOL    HW218972   3.999   1.713   5.979
 6196SOL     OW18973   3.954   1.434   6.124
 6196SOL    HW118974   3.928   1.530   6.124
 6196SOL    HW218975   3.883   1.380   6.169
 6197SOL     OW18976   3.964   1.091   6.472
 6197SOL    HW118977   3.978   1.007   6.524
 6197SOL    HW218978   3.909   1.155   6.527
 6198SOL     OW18979   4.344   1.786   7.025
 6198SOL    HW118980   4.252   1.769   7.060
 6198SOL    HW218981   4.372   1.878   7.051
 6199SOL     OW18982   4.330   0.964   5.709
 6199SOL    HW118983   4.337   1.048   5.655
 6199SOL    HW218984   4.376   0.977   5.797
 6200SOL     OW18985   3.846   0.643   6.149
 6200SOL    HW118986   3.801   0.555   6.166
 6200SOL    HW218987   3.845   0.697   6.233
 6201SOL     OW18988   3.751   1.596   5.703
 6201SOL    HW118989   3.732   1.500   5.724
 6201SOL    HW218990   3.718   1.654   5.778
 6202SOL     OW18991   3.837   0.737   7.183
 6202SOL    HW118992   3.925   0.724   7.228
 6202SOL    HW218993   3.824   0.834   7.161
 6203SOL     OW18994   4.337   1.365   6.312
 6203SOL    HW118995   4.288   1.278   6.321
 6203SOL    HW218996   4.314   1.408   6.225
 6204SOL     OW18997   4.533   0.004   6.088
 6204SOL    HW118998   4.573   0.095   6.079
 6204SOL    HW218999   4.433   0.012   6.094
 6205SOL     OW19000   3.921   0.976   6.850
 6205SOL    HW119001   4.010   0.931   6.836
 6205SOL    HW219002   3.848   0.911   6.831
 6206SOL     OW19003   4.041   0.251   7.387
 6206SOL    HW119004   4.112   0.322   7.393
 6206SOL    HW219005   3.953   0.290   7.415
 6207SOL     OW19006   4.322   0.729   5.856
 6207SOL    HW119007   4.346   0.798   5.788
 6207SOL    HW219008   4.244   0.762   5.910
 6208SOL     OW19009   3.800   0.811   6.375
 6208SOL    HW119010   3.899   0.799   6.384
 6208SOL    HW219011   3.776   0.906   6.396
 6209SOL     OW19012   3.854   1.821   7.157
 6209SOL    HW119013   3.844   1.806   7.256
 6209SOL    HW219014   3.768   1.857   7.121
 6210SOL     OW19015   4.274   0.196   6.471
 6210SOL    HW119016   4.269   0.191   6.571
 6210SOL    HW219017   4.276   0.292   6.442
 6211SOL     OW19018   4.075   1.801   6.439
 6211SOL    HW119019   4.125   1.715   6.445
 6211SOL    HW219020   4.140   1.878   6.436
 6212SOL     OW19021   4.045   0.943   5.828
 6212SOL    HW119022   4.127   0.982   5.786
 6212SOL    HW219023   4.018   0.861   5.779
 6213SOL     OW19024   4.185   1.266   7.313
 6213SOL    HW119025   4.135   1.267   7.227
 6213SOL    HW219026   4.122   1.248   7.389
 6214SOL     OW19027   3.926   0.285   7.084
 6214SOL    HW119028   3.846   0.345   7.071
 6214SOL    HW219029   3.916   0.236   7.170
 6215SOL     OW19030   4.188   1.743   5.909
 6215SOL    HW119031   4.221   1.782   5.995
 6215SOL    HW219032   4.264   1.736   5.844
 6216SOL     OW19033   3.973   1.785   6.827
 6216SOL    HW119034   4.030   1.720   6.877
 6216SOL    HW219035   3.957   1.752   6.734
 6217SOL     OW19036   4.106   0.700   6.066
 6217SOL    HW119037   4.151   0.610   6.063
 6217SOL    HW219038   4.012   0.689   6.099
 6218SOL     OW19039   4.338   0.122   5.703
 6218SOL    HW119040   4.436   0.100   5.710
 6218SOL    HW219041   4.307   0.105   5.610
 6219SOL     OW19042   4.527   1.402   6.510
 6219SOL    HW119043   4.617   1.416   6.468
 6219SOL    HW219044   4.456   1.404   6.439
 6220SOL     OW19045   4.263   0.064   6.098
 6220SOL    HW119046   4.182   0.065   6.156
 6220SOL    HW219047   4.266   0.147   6.043
 6221SOL     OW19048   4.021   0.035   5.757
 6221SOL    HW119049   4.070   0.119   5.736
 6221SOL    HW219050   4.083  -0.030   5.802
 6222SOL     OW19051   4.800   0.683   7.050
 6222SOL    HW119052   4.720   0.622   7.053
 6222SOL    HW219053   4.881   0.630   7.026
 6223SOL     OW19054   4.183   1.152   6.327
 6223SOL    HW119055   4.112   1.125   6.392
 6223SOL    HW219056   4.157   1.124   6.234
 6224SOL     OW19057   3.802   0.556   6.972
 6224SOL    HW119058   3.894   0.555   6.931
 6224SOL    HW219059   3.796   0.630   7.039
 6225SOL     OW19060   4.285   0.222   6.733
 6225SOL    HW119061   4.323   0.138   6.770
 6225SOL    HW219062   4.197   0.241   6.777
 6226SOL     OW19063   4.212   1.385   5.760
 6226SOL    HW119064   4.125   1.370   5.807
 6226SOL    HW219065   4.195   1.411   5.665
 6227SOL     OW19066   4.251   0.256   5.914
 6227SOL    HW119067   4.278   0.197   5.839
 6227SOL    HW219068   4.251   0.351   5.883
 6228SOL     OW19069   4.134   0.813   6.837
 6228SOL    HW119070   4.220   0.825   6.887
 6228SOL    HW219071   4.092   0.726   6.864
 6229SOL     OW19072   3.788   1.564   6.917
 6229SOL    HW119073   3.742   1.646   6.883
 6229SOL    HW219074   3.886   1.583   6.926
 6230SOL     OW19075   4.091   1.100   6.087
 6230SOL    HW119076   4.084   1.183   6.031
 6230SOL    HW219077   4.095   1.020   6.027
 6231SOL     OW19078   4.290   0.537   6.451
 6231SOL    HW119079   4.302   0.603   6.377
 6231SOL    HW219080   4.336   0.571   6.534
 6232SOL     OW19081   4.078   1.510   6.915
 6232SOL    HW119082   4.057   1.466   6.828
 6232SOL    HW219083   4.175   1.536   6.918
 6233SOL     OW19084   4.126   0.751   7.184
 6233SOL    HW119085   4.194   0.806   7.137
 6233SOL    HW219086   4.166   0.663   7.211
 6234SOL     OW19087   4.228   0.050   7.326
 6234SOL    HW119088   4.186  -0.007   7.256
 6234SOL    HW219089   4.162   0.119   7.358
 6235SOL     OW19090   4.297   0.870   6.615
 6235SOL    HW119091   4.341   0.959   6.606
 6235SOL    HW219092   4.234   0.870   6.692
 6236SOL     OW19093   4.031   0.213   6.817
 6236SOL    HW119094   4.008   0.250   6.907
 6236SOL    HW219095   4.001   0.118   6.811
 6237SOL     OW19096   3.761   1.310   6.868
 6237SOL    HW119097   3.814   1.261   6.936
 6237SOL    HW219098   3.783   1.408   6.873
 6238SOL     OW19099   4.031   0.063   6.204
 6238SOL    HW119100   4.020   0.157   6.237
 6238SOL    HW219101   4.026   0.000   6.281
 6239SOL     OW19102   4.074   0.898   7.390
 6239SOL    HW119103   4.150   0.942   7.438
 6239SOL    HW219104   4.109   0.851   7.308
 6240SOL     OW19105   4.043   0.810   6.535
 6240SOL    HW119106   4.136   0.846   6.540
 6240SOL    HW219107   4.037   0.725   6.587
 6241SOL     OW19108   4.063   0.509   6.592
 6241SOL    HW119109   4.011   0.426   6.575
 6241SOL    HW219110   4.140   0.514   6.528
 6242SOL     OW19111   3.732   1.326   5.786
 6242SOL    HW119112   3.639   1.347   5.755
 6242SOL    HW219113   3.742   1.227   5.799
 6243SOL     OW19114   3.812   1.801   6.513
 6243SOL    HW119115   3.770   1.715   6.486
 6243SOL    HW219116   3.906   1.804   6.479
 6244SOL     OW19117   4.228   1.568   6.496
 6244SOL    HW119118   4.294   1.642   6.505
 6244SOL    HW219119   4.272   1.489   6.454
 6245SOL     OW19120   3.764   0.544   6.700
 6245SOL    HW119121   3.849   0.511   6.659
 6245SOL    HW219122   3.777   0.559   6.798
 6246SOL     OW19123   3.913   0.520   7.308
 6246SOL    HW119124   3.972   0.480   7.238
 6246SOL    HW219125   3.855   0.591   7.267
 6247SOL     OW19126   4.539   0.572   5.911
 6247SOL    HW119127   4.546   0.483   5.865
 6247SOL    HW219128   4.445   0.606   5.903
 6248SOL     OW19129   3.976   1.564   7.330
 6248SOL    HW119130   3.946   1.621   7.406
 6248SOL    HW219131   3.969   1.467   7.356
 6249SOL     OW19132   4.197   0.500   5.777
 6249SOL    HW119133   4.258   0.580   5.781
 6249SOL    HW219134   4.102   0.531   5.784
 6250SOL     OW19135   3.883   1.137   7.052
 6250SOL    HW119136   3.905   1.076   7.128
 6250SOL    HW219137   3.893   1.088   6.966
 6251SOL     OW19138   3.807   1.258   6.608
 6251SOL    HW119139   3.802   1.257   6.708
 6251SOL    HW219140   3.724   1.217   6.570
 6252SOL     OW19141   4.412   1.662   7.302
 6252SOL    HW119142   4.356   1.743   7.311
 6252SOL    HW219143   4.464   1.666   7.216
 6253SOL     OW19144   3.854   1.794   7.437
 6253SOL    HW119145   3.813   1.720   7.490
 6253SOL    HW219146   3.918   1.845   7.495
 6254SOL     OW19147   3.987   0.326   6.306
 6254SOL    HW119148   3.908   0.377   6.272
 6254SOL    HW219149   3.978   0.311   6.404
 6255SOL     OW19150   4.096   1.288   7.076
 6255SOL    HW119151   4.083   1.381   7.042
 6255SOL    HW219152   4.012   1.236   7.063
 6256SOL     OW19153   4.314   1.487   6.077
 6256SOL    HW119154   4.356   1.429   6.007
 6256SOL    HW219155   4.270   1.566   6.033
 6257SOL     OW19156   3.979   1.348   5.876
 6257SOL    HW119157   3.883   1.349   5.849
 6257SOL    HW219158   3.991   1.401   5.960
 6258SOL     OW19159   3.829   1.013   7.312
 6258SOL    HW119160   3.752   0.980   7.366
 6258SOL    HW219161   3.914   0.983   7.354
 6259SOL     OW19162   4.396   0.203   7.075
 6259SOL    HW119163   4.486   0.187   7.035
 6259SOL    HW219164   4.404   0.208   7.174
 6260SOL     OW19165   3.799   0.345   5.619
 6260SOL    HW119166   3.707   0.317   5.590
 6260SOL    HW219167   3.830   0.422   5.563
 6261SOL     OW19168   3.796   0.166   5.904
 6261SOL    HW119169   3.779   0.249   5.850
 6261SOL    HW219170   3.886   0.129   5.882
 6262SOL     OW19171   4.337   0.842   7.017
 6262SOL    HW119172   4.393   0.923   7.000
 6262SOL    HW219173   4.396   0.762   7.020
 6263SOL     OW19174   4.440   0.565   7.294
 6263SOL    HW119175   4.459   0.630   7.368
 6263SOL    HW219176   4.500   0.485   7.303
 6264SOL     OW19177   4.114   1.741   7.146
 6264SOL    HW119178   4.023   1.782   7.144
 6264SOL    HW219179   4.107   1.647   7.178
 6265SOL     OW19180   4.318   0.745   6.238
 6265SOL    HW119181   4.368   0.830   6.219
 6265SOL    HW219182   4.230   0.747   6.190
 6266SOL     OW19183   3.945   1.314   7.430
 6266SOL    HW119184   3.880   1.241   7.409
 6266SOL    HW219185   3.949   1.328   7.528
 6267SOL     OW19186   3.803   1.240   6.239
 6267SOL    HW119187   3.802   1.193   6.327
 6267SOL    HW219188   3.885   1.212   6.188
 6268SOL     OW19189   4.396   1.391   7.210
 6268SOL    HW119190   4.318   1.341   7.248
 6268SOL    HW219191   4.393   1.486   7.241
 6269SOL     OW19192   4.152   0.424   6.106
 6269SOL    HW119193   4.182   0.352   6.044
 6269SOL    HW219194   4.113   0.384   6.189
 6270SOL     OW19195   4.041   0.547   6.866
 6270SOL    HW119196   4.079   0.488   6.938
 6270SOL    HW219197   4.081   0.521   6.778
 6271SOL     OW19198   4.536   1.586   6.273
 6271SOL    HW119199   4.568   1.596   6.179
 6271SOL    HW219200   4.457   1.524   6.275
 6272SOL     OW19201   3.763   1.077   5.886
 6272SOL    HW119202   3.862   1.066   5.877
 6272SOL    HW219203   3.723   0.991   5.918
 6273SOL     OW19204   3.954   0.628   7.561
 6273SOL    HW119205   3.861   0.626   7.598
 6273SOL    HW219206   3.955   0.589   7.469
 6274SOL     OW19207   3.949   0.275   8.444
 6274SOL    HW119208   3.984   0.258   8.536
 6274SOL    HW219209   3.861   0.230   8.432
 6275SOL     OW19210   3.743   0.368   8.095
 6275SOL    HW119211   3.661   0.411   8.134
 6275SOL    HW219212   3.715   0.295   8.032
 6276SOL     OW19213   4.293   1.275   8.613
 6276SOL    HW119214   4.200   1.268   8.576
 6276SOL    HW219215   4.304   1.364   8.657
 6277SOL     OW19216   4.574   0.798   9.271
 6277SOL    HW119217   4.570   0.874   9.336
 6277SOL    HW219218   4.596   0.834   9.180
 6278SOL     OW19219   4.409   1.012   8.113
 6278SOL    HW119220   4.478   0.996   8.183
 6278SOL    HW219221   4.336   1.069   8.151
 6279SOL     OW19222   4.410   1.161   9.251
 6279SOL    HW119223   4.470   1.240   9.265
 6279SOL    HW219224   4.324   1.192   9.210
 6280SOL     OW19225   4.059   1.435   8.509
 6280SOL    HW119226   3.981   1.404   8.456
 6280SOL    HW219227   4.117   1.493   8.452
 6281SOL     OW19228   4.162   0.392   8.947
 6281SOL    HW119229   4.244   0.336   8.956
 6281SOL    HW219230   4.081   0.334   8.951
 6282SOL     OW19231   3.955   1.713   7.931
 6282SOL    HW119232   3.989   1.790   7.985
 6282SOL    HW219233   3.999   1.713   7.841
 6283SOL     OW19234   3.954   1.434   7.986
 6283SOL    HW119235   3.928   1.530   7.986
 6283SOL    HW219236   3.883   1.380   8.031
 6284SOL     OW19237   3.964   1.091   8.334
 6284SOL    HW119238   3.978   1.007   8.386
 6284SOL    HW219239   3.909   1.155   8.389
 6285SOL     OW19240   4.344   1.786   8.887
 6285SOL    HW119241   4.252   1.769   8.922
 6285SOL    HW219242   4.372   1.878   8.913
 6286SOL     OW19243   4.330   0.964   7.571
 6286SOL    HW119244   4.337   1.048   7.517
 6286SOL    HW219245   4.376   0.977   7.659
 6287SOL     OW19246   3.846   0.643   8.011
 6287SOL    HW119247   3.801   0.555   8.028
 6287SOL    HW219248   3.845   0.697   8.095
 6288SOL     OW19249   3.751   1.596   7.565
 6288SOL    HW119250   3.732   1.500   7.586
 6288SOL    HW219251   3.718   1.654   7.640
 6289SOL     OW19252   3.837   0.737   9.045
 6289SOL    HW119253   3.925   0.724   9.090
 6289SOL    HW219254   3.824   0.834   9.023
 6290SOL     OW19255   4.337   1.365   8.174
 6290SOL    HW119256   4.288   1.278   8.183
 6290SOL    HW219257   4.314   1.408   8.087
 6291SOL     OW19258   4.533   0.004   7.950
 6291SOL    HW119259   4.573   0.095   7.941
 6291SOL    HW219260   4.433   0.012   7.956
 6292SOL     OW19261   3.921   0.976   8.712
 6292SOL    HW119262   4.010   0.931   8.698
 6292SOL    HW219263   3.848   0.911   8.693
 6293SOL     OW19264   4.041   0.251   9.249
 6293SOL    HW119265   4.112   0.322   9.255
 6293SOL    HW219266   3.953   0.290   9.277
 6294SOL     OW19267   4.322   0.729   7.718
 6294SOL    HW119268   4.346   0.798   7.650
 6294SOL    HW219269   4.244   0.762   7.772
 6295SOL     OW19270   3.800   0.811   8.237
 6295SOL    HW119271   3.899   0.799   8.246
 6295SOL    HW219272   3.776   0.906   8.258
 6296SOL     OW19273   3.854   1.821   9.019
 6296SOL    HW119274   3.844   1.806   9.118
 6296SOL    HW219275   3.768   1.857   8.983
 6297SOL     OW19276   4.274   0.196   8.333
 6297SOL    HW119277   4.269   0.191   8.433
 6297SOL    HW219278   4.276   0.292   8.304
 6298SOL     OW19279   4.075   1.801   8.301
 6298SOL    HW119280   4.125   1.715   8.307
 6298SOL    HW219281   4.140   1.878   8.298
 6299SOL     OW19282   4.045   0.943   7.690
 6299SOL    HW119283   4.127   0.982   7.648
 6299SOL    HW219284   4.018   0.861   7.641
 6300SOL     OW19285   4.185   1.266   9.175
 6300SOL    HW119286   4.135   1.267   9.089
 6300SOL    HW219287   4.122   1.248   9.251
 6301SOL     OW19288   3.926   0.285   8.946
 6301SOL    HW119289   3.846   0.345   8.933
 6301SOL    HW219290   3.916   0.236   9.032
 6302SOL     OW19291   4.188   1.743   7.771
 6302SOL    HW119292   4.221   1.782   7.857
 6302SOL    HW219293   4.264   1.736   7.706
 6303SOL     OW19294   3.973   1.785   8.689
 6303SOL    HW119295   4.030   1.720   8.739
 6303SOL    HW219296   3.957   1.752   8.596
 6304SOL     OW19297   4.106   0.700   7.928
 6304SOL    HW119298   4.151   0.610   7.925
 6304SOL    HW219299   4.012   0.689   7.961
 6305SOL     OW19300   4.338   0.122   7.565
 6305SOL    HW119301   4.436   0.100   7.572
 6305SOL    HW219302   4.307   0.105   7.472
 6306SOL     OW19303   4.527   1.402   8.372
 6306SOL    HW119304   4.617   1.416   8.330
 6306SOL    HW219305   4.456   1.404   8.301
 6307SOL     OW19306   4.263   0.064   7.960
 6307SOL    HW119307   4.182   0.065   8.018
 6307SOL    HW219308   4.266   0.147   7.905
 6308SOL     OW19309   4.021   0.035   7.619
 6308SOL    HW119310   4.070   0.119   7.598
 6308SOL    HW219311   4.083  -0.030   7.664
 6309SOL     OW19312   4.800   0.683   8.912
 6309SOL    HW119313   4.720   0.622   8.915
 6309SOL    HW219314   4.881   0.630   8.888
 6310SOL     OW19315   4.183   1.152   8.189
 6310SOL    HW119316   4.112   1.125   8.254
 6310SOL    HW219317   4.157   1.124   8.096
 6311SOL     OW19318   3.802   0.556   8.834
 6311SOL    HW119319   3.894   0.555   8.793
 6311SOL    HW219320   3.796   0.630   8.901
 6312SOL     OW19321   4.285   0.222   8.595
 6312SOL    HW119322   4.323   0.138   8.632
 6312SOL    HW219323   4.197   0.241   8.639
 6313SOL     OW19324   4.212   1.385   7.622
 6313SOL    HW119325   4.125   1.370   7.669
 6313SOL    HW219326   4.195   1.411   7.527
 6314SOL     OW19327   4.251   0.256   7.776
 6314SOL    HW119328   4.278   0.197   7.701
 6314SOL    HW219329   4.251   0.351   7.745
 6315SOL     OW19330   4.134   0.813   8.699
 6315SOL    HW119331   4.220   0.825   8.749
 6315SOL    HW219332   4.092   0.726   8.726
 6316SOL     OW19333   3.788   1.564   8.779
 6316SOL    HW119334   3.742   1.646   8.745
 6316SOL    HW219335   3.886   1.583   8.788
 6317SOL     OW19336   4.091   1.100   7.949
 6317SOL    HW119337   4.084   1.183   7.893
 6317SOL    HW219338   4.095   1.020   7.889
 6318SOL     OW19339   4.290   0.537   8.313
 6318SOL    HW119340   4.302   0.603   8.239
 6318SOL    HW219341   4.336   0.571   8.396
 6319SOL     OW19342   4.078   1.510   8.777
 6319SOL    HW119343   4.057   1.466   8.690
 6319SOL    HW219344   4.175   1.536   8.780
 6320SOL     OW19345   4.126   0.751   9.046
 6320SOL    HW119346   4.194   0.806   8.999
 6320SOL    HW219347   4.166   0.663   9.073
 6321SOL     OW19348   4.228   0.050   9.188
 6321SOL    HW119349   4.186  -0.007   9.118
 6321SOL    HW219350   4.162   0.119   9.220
 6322SOL     OW19351   4.297   0.870   8.477
 6322SOL    HW119352   4.341   0.959   8.468
 6322SOL    HW219353   4.234   0.870   8.554
 6323SOL     OW19354   4.031   0.213   8.679
 6323SOL    HW119355   4.008   0.250   8.769
 6323SOL    HW219356   4.001   0.118   8.673
 6324SOL     OW19357   3.761   1.310   8.730
 6324SOL    HW119358   3.814   1.261   8.798
 6324SOL    HW219359   3.783   1.408   8.735
 6325SOL     OW19360   4.031   0.063   8.066
 6325SOL    HW119361   4.020   0.157   8.099
 6325SOL    HW219362   4.026   0.000   8.143
 6326SOL     OW19363   4.074   0.898   9.252
 6326SOL    HW119364   4.150   0.942   9.300
 6326SOL    HW219365   4.109   0.851   9.170
 6327SOL     OW19366   4.043   0.810   8.397
 6327SOL    HW119367   4.136   0.846   8.402
 6327SOL    HW219368   4.037   0.725   8.449
 6328SOL     OW19369   4.063   0.509   8.454
 6328SOL    HW119370   4.011   0.426   8.437
 6328SOL    HW219371   4.140   0.514   8.390
 6329SOL     OW19372   3.732   1.326   7.648
 6329SOL    HW119373   3.639   1.347   7.617
 6329SOL    HW219374   3.742   1.227   7.661
 6330SOL     OW19375   3.812   1.801   8.375
 6330SOL    HW119376   3.770   1.715   8.348
 6330SOL    HW219377   3.906   1.804   8.341
 6331SOL     OW19378   4.228   1.568   8.358
 6331SOL    HW119379   4.294   1.642   8.367
 6331SOL    HW219380   4.272   1.489   8.316
 6332SOL     OW19381   3.764   0.544   8.562
 6332SOL    HW119382   3.849   0.511   8.521
 6332SOL    HW219383   3.777   0.559   8.660
 6333SOL     OW19384   3.913   0.520   9.170
 6333SOL    HW119385   3.972   0.480   9.100
 6333SOL    HW219386   3.855   0.591   9.129
 6334SOL     OW19387   4.539   0.572   7.773
 6334SOL    HW119388   4.546   0.483   7.727
 6334SOL    HW219389   4.445   0.606   7.765
 6335SOL     OW19390   3.976   1.564   9.192
 6335SOL    HW119391   3.946   1.621   9.268
 6335SOL    HW219392   3.969   1.467   9.218
 6336SOL     OW19393   4.197   0.500   7.639
 6336SOL    HW119394   4.258   0.580   7.643
 6336SOL    HW219395   4.102   0.531   7.646
 6337SOL     OW19396   3.883   1.137   8.914
 6337SOL    HW119397   3.905   1.076   8.990
 6337SOL    HW219398   3.893   1.088   8.828
 6338SOL     OW19399   3.807   1.258   8.470
 6338SOL    HW119400   3.802   1.257   8.570
 6338SOL    HW219401   3.724   1.217   8.432
 6339SOL     OW19402   4.412   1.662   9.164
 6339SOL    HW119403   4.356   1.743   9.173
 6339SOL    HW219404   4.464   1.666   9.078
 6340SOL     OW19405   3.854   1.794   9.299
 6340SOL    HW119406   3.813   1.720   9.352
 6340SOL    HW219407   3.918   1.845   9.357
 6341SOL     OW19408   3.987   0.326   8.168
 6341SOL    HW119409   3.908   0.377   8.134
 6341SOL    HW219410   3.978   0.311   8.266
 6342SOL     OW19411   4.096   1.288   8.938
 6342SOL    HW119412   4.083   1.381   8.904
 6342SOL    HW219413   4.012   1.236   8.925
 6343SOL     OW19414   4.314   1.487   7.939
 6343SOL    HW119415   4.356   1.429   7.869
 6343SOL    HW219416   4.270   1.566   7.895
 6344SOL     OW19417   3.979   1.348   7.738
 6344SOL    HW119418   3.883   1.349   7.711
 6344SOL    HW219419   3.991   1.401   7.822
 6345SOL     OW19420   3.829   1.013   9.174
 6345SOL    HW119421   3.752   0.980   9.228
 6345SOL    HW219422   3.914   0.983   9.216
 6346SOL     OW19423   4.396   0.203   8.937
 6346SOL    HW119424   4.486   0.187   8.897
 6346SOL    HW219425   4.404   0.208   9.036
 6347SOL     OW19426   3.799   0.345   7.481
 6347SOL    HW119427   3.707   0.317   7.452
 6347SOL    HW219428   3.830   0.422   7.425
 6348SOL     OW19429   3.796   0.166   7.766
 6348SOL    HW119430   3.779   0.249   7.712
 6348SOL    HW219431   3.886   0.129   7.744
 6349SOL     OW19432   4.337   0.842   8.879
 6349SOL    HW119433   4.393   0.923   8.862
 6349SOL    HW219434   4.396   0.762   8.882
 6350SOL     OW19435   4.440   0.565   9.156
 6350SOL    HW119436   4.459   0.630   9.230
 6350SOL    HW219437   4.500   0.485   9.165
 6351SOL     OW19438   4.114   1.741   9.008
 6351SOL    HW119439   4.023   1.782   9.006
 6351SOL    HW219440   4.107   1.647   9.040
 6352SOL     OW19441   4.318   0.745   8.100
 6352SOL    HW119442   4.368   0.830   8.081
 6352SOL    HW219443   4.230   0.747   8.052
 6353SOL     OW19444   3.945   1.314   9.292
 6353SOL    HW119445   3.880   1.241   9.271
 6353SOL    HW219446   3.949   1.328   9.390
 6354SOL     OW19447   3.803   1.240   8.101
 6354SOL    HW119448   3.802   1.193   8.189
 6354SOL    HW219449   3.885   1.212   8.050
 6355SOL     OW19450   4.396   1.391   9.072
 6355SOL    HW119451   4.318   1.341   9.110
 6355SOL    HW219452   4.393   1.486   9.103
 6356SOL     OW19453   4.152   0.424   7.968
 6356SOL    HW119454   4.182   0.352   7.906
 6356SOL    HW219455   4.113   0.384   8.051
 6357SOL     OW19456   4.041   0.547   8.728
 6357SOL    HW119457   4.079   0.488   8.800
 6357SOL    HW219458   4.081   0.521   8.640
 6358SOL     OW19459   4.536   1.586   8.135
 6358SOL    HW119460   4.568   1.596   8.041
 6358SOL    HW219461   4.457   1.524   8.137
 6359SOL     OW19462   3.763   1.077   7.748
 6359SOL    HW119463   3.862   1.066   7.739
 6359SOL    HW219464   3.723   0.991   7.780
 6360SOL     OW19465   3.954   0.628   9.423
 6360SOL    HW119466   3.861   0.626   9.460
 6360SOL    HW219467   3.955   0.589   9.331
 6361SOL     OW19468   3.949   0.275  10.306
 6361SOL    HW119469   3.984   0.258  10.398
 6361SOL    HW219470   3.861   0.230  10.294
 6362SOL     OW19471   3.743   0.368   9.957
 6362SOL    HW119472   3.661   0.411   9.996
 6362SOL    HW219473   3.715   0.295   9.894
 6363SOL     OW19474   4.293   1.275  10.475
 6363SOL    HW119475   4.200   1.268  10.438
 6363SOL    HW219476   4.304   1.364  10.519
 6364SOL     OW19477   4.574   0.798  11.133
 6364SOL    HW119478   4.570   0.874  11.198
 6364SOL    HW219479   4.596   0.834  11.042
 6365SOL     OW19480   4.409   1.012   9.975
 6365SOL    HW119481   4.478   0.996  10.045
 6365SOL    HW219482   4.336   1.069  10.013
 6366SOL     OW19483   4.059   1.435  10.371
 6366SOL    HW119484   3.981   1.404  10.318
 6366SOL    HW219485   4.117   1.493  10.314
 6367SOL     OW19486   4.162   0.392  10.809
 6367SOL    HW119487   4.244   0.336  10.818
 6367SOL    HW219488   4.081   0.334  10.813
 6368SOL     OW19489   3.955   1.713   9.793
 6368SOL    HW119490   3.989   1.790   9.847
 6368SOL    HW219491   3.999   1.713   9.703
 6369SOL     OW19492   3.954   1.434   9.848
 6369SOL    HW119493   3.928   1.530   9.848
 6369SOL    HW219494   3.883   1.380   9.893
 6370SOL     OW19495   3.964   1.091  10.196
 6370SOL    HW119496   3.978   1.007  10.248
 6370SOL    HW219497   3.909   1.155  10.251
 6371SOL     OW19498   4.344   1.786  10.749
 6371SOL    HW119499   4.252   1.769  10.784
 6371SOL    HW219500   4.372   1.878  10.775
 6372SOL     OW19501   4.330   0.964   9.433
 6372SOL    HW119502   4.337   1.048   9.379
 6372SOL    HW219503   4.376   0.977   9.521
 6373SOL     OW19504   3.846   0.643   9.873
 6373SOL    HW119505   3.801   0.555   9.890
 6373SOL    HW219506   3.845   0.697   9.957
 6374SOL     OW19507   3.751   1.596   9.427
 6374SOL    HW119508   3.732   1.500   9.448
 6374SOL    HW219509   3.718   1.654   9.502
 6375SOL     OW19510   3.837   0.737  10.907
 6375SOL    HW119511   3.925   0.724  10.952
 6375SOL    HW219512   3.824   0.834  10.885
 6376SOL     OW19513   4.337   1.365  10.036
 6376SOL    HW119514   4.288   1.278  10.045
 6376SOL    HW219515   4.314   1.408   9.949
 6377SOL     OW19516   4.533   0.004   9.812
 6377SOL    HW119517   4.573   0.095   9.803
 6377SOL    HW219518   4.433   0.012   9.818
 6378SOL     OW19519   3.921   0.976  10.574
 6378SOL    HW119520   4.010   0.931  10.560
 6378SOL    HW219521   3.848   0.911  10.555
 6379SOL     OW19522   4.041   0.251  11.111
 6379SOL    HW119523   4.112   0.322  11.117
 6379SOL    HW219524   3.953   0.290  11.139
 6380SOL     OW19525   4.322   0.729   9.580
 6380SOL    HW119526   4.346   0.798   9.512
 6380SOL    HW219527   4.244   0.762   9.634
 6381SOL     OW19528   3.800   0.811  10.099
 6381SOL    HW119529   3.899   0.799  10.108
 6381SOL    HW219530   3.776   0.906  10.120
 6382SOL     OW19531   3.854   1.821  10.881
 6382SOL    HW119532   3.844   1.806  10.980
 6382SOL    HW219533   3.768   1.857  10.845
 6383SOL     OW19534   4.274   0.196  10.195
 6383SOL    HW119535   4.269   0.191  10.295
 6383SOL    HW219536   4.276   0.292  10.166
 6384SOL     OW19537   4.075   1.801  10.163
 6384SOL    HW119538   4.125   1.715  10.169
 6384SOL    HW219539   4.140   1.878  10.160
 6385SOL     OW19540   4.045   0.943   9.552
 6385SOL    HW119541   4.127   0.982   9.510
 6385SOL    HW219542   4.018   0.861   9.503
 6386SOL     OW19543   4.185   1.266  11.037
 6386SOL    HW119544   4.135   1.267  10.951
 6386SOL    HW219545   4.122   1.248  11.113
 6387SOL     OW19546   3.926   0.285  10.808
 6387SOL    HW119547   3.846   0.345  10.795
 6387SOL    HW219548   3.916   0.236  10.894
 6388SOL     OW19549   4.188   1.743   9.633
 6388SOL    HW119550   4.221   1.782   9.719
 6388SOL    HW219551   4.264   1.736   9.568
 6389SOL     OW19552   3.973   1.785  10.551
 6389SOL    HW119553   4.030   1.720  10.601
 6389SOL    HW219554   3.957   1.752  10.458
 6390SOL     OW19555   4.106   0.700   9.790
 6390SOL    HW119556   4.151   0.610   9.787
 6390SOL    HW219557   4.012   0.689   9.823
 6391SOL     OW19558   4.338   0.122   9.427
 6391SOL    HW119559   4.436   0.100   9.434
 6391SOL    HW219560   4.307   0.105   9.334
 6392SOL     OW19561   4.527   1.402  10.234
 6392SOL    HW119562   4.617   1.416  10.192
 6392SOL    HW219563   4.456   1.404  10.163
 6393SOL     OW19564   4.263   0.064   9.822
 6393SOL    HW119565   4.182   0.065   9.880
 6393SOL    HW219566   4.266   0.147   9.767
 6394SOL     OW19567   4.021   0.035   9.481
 6394SOL    HW119568   4.070   0.119   9.460
 6394SOL    HW219569   4.083  -0.030   9.526
 6395SOL     OW19570   4.800   0.683  10.774
 6395SOL    HW119571   4.720   0.622  10.777
 6395SOL    HW219572   4.881   0.630  10.750
 6396SOL     OW19573   4.183   1.152  10.051
 6396SOL    HW119574   4.112   1.125  10.116
 6396SOL    HW219575   4.157   1.124   9.958
 6397SOL     OW19576   3.802   0.556  10.696
 6397SOL    HW119577   3.894   0.555  10.655
 6397SOL    HW219578   3.796   0.630  10.763
 6398SOL     OW19579   4.285   0.222  10.457
 6398SOL    HW119580   4.323   0.138  10.494
 6398SOL    HW219581   4.197   0.241  10.501
 6399SOL     OW19582   4.212   1.385   9.484
 6399SOL    HW119583   4.125   1.370   9.531
 6399SOL    HW219584   4.195   1.411   9.389
 6400SOL     OW19585   4.251   0.256   9.638
 6400SOL    HW119586   4.278   0.197   9.563
 6400SOL    HW219587   4.251   0.351   9.607
 6401SOL     OW19588   4.134   0.813  10.561
 6401SOL    HW119589   4.220   0.825  10.611
 6401SOL    HW219590   4.092   0.726  10.588
 6402SOL     OW19591   3.788   1.564  10.641
 6402SOL    HW119592   3.742   1.646  10.607
 6402SOL    HW219593   3.886   1.583  10.650
 6403SOL     OW19594   4.091   1.100   9.811
 6403SOL    HW119595   4.084   1.183   9.755
 6403SOL    HW219596   4.095   1.020   9.751
 6404SOL     OW19597   4.290   0.537  10.175
 6404SOL    HW119598   4.302   0.603  10.101
 6404SOL    HW219599   4.336   0.571  10.258
 6405SOL     OW19600   4.078   1.510  10.639
 6405SOL    HW119601   4.057   1.466  10.552
 6405SOL    HW219602   4.175   1.536  10.642
 6406SOL     OW19603   4.126   0.751  10.908
 6406SOL    HW119604   4.194   0.806  10.861
 6406SOL    HW219605   4.166   0.663  10.935
 6407SOL     OW19606   4.297   0.870  10.339
 6407SOL    HW119607   4.341   0.959  10.330
 6407SOL    HW219608   4.234   0.870  10.416
 6408SOL     OW19609   4.031   0.213  10.541
 6408SOL    HW119610   4.008   0.250  10.631
 6408SOL    HW219611   4.001   0.118  10.535
 6409SOL     OW19612   3.761   1.310  10.592
 6409SOL    HW119613   3.814   1.261  10.660
 6409SOL    HW219614   3.783   1.408  10.597
 6410SOL     OW19615   4.031   0.063   9.928
 6410SOL    HW119616   4.020   0.157   9.961
 6410SOL    HW219617   4.026   0.000  10.005
 6411SOL     OW19618   4.074   0.898  11.114
 6411SOL    HW119619   4.150   0.942  11.162
 6411SOL    HW219620   4.109   0.851  11.032
 6412SOL     OW19621   4.043   0.810  10.259
 6412SOL    HW119622   4.136   0.846  10.264
 6412SOL    HW219623   4.037   0.725  10.311
 6413SOL     OW19624   4.063   0.509  10.316
 6413SOL    HW119625   4.011   0.426  10.299
 6413SOL    HW219626   4.140   0.514  10.252
 6414SOL     OW19627   3.732   1.326   9.510
 6414SOL    HW119628   3.639   1.347   9.479
 6414SOL    HW219629   3.742   1.227   9.523
 6415SOL     OW19630   3.812   1.801  10.237
 6415SOL    HW119631   3.770   1.715  10.210
 6415SOL    HW219632   3.906   1.804  10.203
 6416SOL     OW19633   4.228   1.568  10.220
 6416SOL    HW119634   4.294   1.642  10.229
 6416SOL    HW219635   4.272   1.489  10.178
 6417SOL     OW19636   3.764   0.544  10.424
 6417SOL    HW119637   3.849   0.511  10.383
 6417SOL    HW219638   3.777   0.559  10.522
 6418SOL     OW19639   4.539   0.572   9.635
 6418SOL    HW119640   4.546   0.483   9.589
 6418SOL    HW219641   4.445   0.606   9.627
 6419SOL     OW19642   3.976   1.564  11.054
 6419SOL    HW119643   3.946   1.621  11.130
 6419SOL    HW219644   3.969   1.467  11.080
 6420SOL     OW19645   4.197   0.500   9.501
 6420SOL    HW119646   4.258   0.580   9.505
 6420SOL    HW219647   4.102   0.531   9.508
 6421SOL     OW19648   3.883   1.137  10.776
 6421SOL    HW119649   3.905   1.076  10.852
 6421SOL    HW219650   3.893   1.088  10.690
 6422SOL     OW19651   3.807   1.258  10.332
 6422SOL    HW119652   3.802   1.257  10.432
 6422SOL    HW219653   3.724   1.217  10.294
 6423SOL     OW19654   4.412   1.662  11.026
 6423SOL    HW119655   4.356   1.743  11.035
 6423SOL    HW219656   4.464   1.666  10.940
 6424SOL     OW19657   3.987   0.326  10.030
 6424SOL    HW119658   3.908   0.377   9.996
 6424SOL    HW219659   3.978   0.311  10.128
 6425SOL     OW19660   4.096   1.288  10.800
 6425SOL    HW119661   4.083   1.381  10.766
 6425SOL    HW219662   4.012   1.236  10.787
 6426SOL     OW19663   4.314   1.487   9.801
 6426SOL    HW119664   4.356   1.429   9.731
 6426SOL    HW219665   4.270   1.566   9.757
 6427SOL     OW19666   3.979   1.348   9.600
 6427SOL    HW119667   3.883   1.349   9.573
 6427SOL    HW219668   3.991   1.401   9.684
 6428SOL     OW19669   3.829   1.013  11.036
 6428SOL    HW119670   3.752   0.980  11.090
 6428SOL    HW219671   3.914   0.983  11.078
 6429SOL     OW19672   4.396   0.203  10.799
 6429SOL    HW119673   4.486   0.187  10.759
 6429SOL    HW219674   4.404   0.208  10.898
 6430SOL     OW19675   3.799   0.345   9.343
 6430SOL    HW119676   3.707   0.317   9.314
 6430SOL    HW219677   3.830   0.422   9.287
 6431SOL     OW19678   3.796   0.166   9.628
 6431SOL    HW119679   3.779   0.249   9.574
 6431SOL    HW219680   3.886   0.129   9.606
 6432SOL     OW19681   4.337   0.842  10.741
 6432SOL    HW119682   4.393   0.923  10.724
 6432SOL    HW219683   4.396   0.762  10.744
 6433SOL     OW19684   4.114   1.741  10.870
 6433SOL    HW119685   4.023   1.782  10.868
 6433SOL    HW219686   4.107   1.647  10.902
 6434SOL     OW19687   4.318   0.745   9.962
 6434SOL    HW119688   4.368   0.830   9.943
 6434SOL    HW219689   4.230   0.747   9.914
 6435SOL     OW19690   3.803   1.240   9.963
 6435SOL    HW119691   3.802   1.193  10.051
 6435SOL    HW219692   3.885   1.212   9.912
 6436SOL     OW19693   4.396   1.391  10.934
 6436SOL    HW119694   4.318   1.341  10.972
 6436SOL    HW219695   4.393   1.486  10.965
 6437SOL     OW19696   4.152   0.424   9.830
 6437SOL    HW119697   4.182   0.352   9.768
 6437SOL    HW219698   4.113   0.384   9.913
 6438SOL     OW19699   4.041   0.547  10.590
 6438SOL    HW119700   4.079   0.488  10.662
 6438SOL    HW219701   4.081   0.521  10.502
 6439SOL     OW19702   4.536   1.586   9.997
 6439SOL    HW119703   4.568   1.596   9.903
 6439SOL    HW219704   4.457   1.524   9.999
 6440SOL     OW19705   3.763   1.077   9.610
 6440SOL    HW119706   3.862   1.066   9.601
 6440SOL    HW219707   3.723   0.991   9.642
 6441SOL     OW19708   3.954   2.490   0.113
 6441SOL    HW119709   3.861   2.488   0.150
 6441SOL    HW219710   3.955   2.451   0.021
 6442SOL     OW19711   3.949   2.137   0.996
 6442SOL    HW119712   3.984   2.120   1.088
 6442SOL    HW219713   3.861   2.092   0.984
 6443SOL     OW19714   3.743   2.230   0.647
 6443SOL    HW119715   3.661   2.273   0.686
 6443SOL    HW219716   3.715   2.157   0.584
 6444SOL     OW19717   4.293   3.137   1.165
 6444SOL    HW119718   4.200   3.130   1.128
 6444SOL    HW219719   4.304   3.226   1.209
 6445SOL     OW19720   4.574   2.660   1.823
 6445SOL    HW119721   4.570   2.736   1.888
 6445SOL    HW219722   4.596   2.696   1.732
 6446SOL     OW19723   4.409   2.874   0.665
 6446SOL    HW119724   4.478   2.858   0.735
 6446SOL    HW219725   4.336   2.931   0.703
 6447SOL     OW19726   4.410   3.023   1.803
 6447SOL    HW119727   4.470   3.102   1.817
 6447SOL    HW219728   4.324   3.054   1.762
 6448SOL     OW19729   4.059   3.297   1.061
 6448SOL    HW119730   3.981   3.266   1.008
 6448SOL    HW219731   4.117   3.355   1.004
 6449SOL     OW19732   4.162   2.254   1.499
 6449SOL    HW119733   4.244   2.198   1.508
 6449SOL    HW219734   4.081   2.196   1.503
 6450SOL     OW19735   3.955   3.575   0.483
 6450SOL    HW119736   3.989   3.652   0.537
 6450SOL    HW219737   3.999   3.575   0.393
 6451SOL     OW19738   3.954   3.296   0.538
 6451SOL    HW119739   3.928   3.392   0.538
 6451SOL    HW219740   3.883   3.242   0.583
 6452SOL     OW19741   3.964   2.953   0.886
 6452SOL    HW119742   3.978   2.869   0.938
 6452SOL    HW219743   3.909   3.017   0.941
 6453SOL     OW19744   4.344   3.648   1.439
 6453SOL    HW119745   4.252   3.631   1.474
 6453SOL    HW219746   4.372   3.740   1.465
 6454SOL     OW19747   4.330   2.826   0.123
 6454SOL    HW119748   4.337   2.910   0.069
 6454SOL    HW219749   4.376   2.839   0.211
 6455SOL     OW19750   3.846   2.505   0.563
 6455SOL    HW119751   3.801   2.417   0.580
 6455SOL    HW219752   3.845   2.559   0.647
 6456SOL     OW19753   3.751   3.458   0.117
 6456SOL    HW119754   3.732   3.362   0.138
 6456SOL    HW219755   3.718   3.516   0.192
 6457SOL     OW19756   3.837   2.599   1.597
 6457SOL    HW119757   3.925   2.586   1.642
 6457SOL    HW219758   3.824   2.696   1.575
 6458SOL     OW19759   4.337   3.227   0.726
 6458SOL    HW119760   4.288   3.140   0.735
 6458SOL    HW219761   4.314   3.270   0.639
 6459SOL     OW19762   4.533   1.866   0.502
 6459SOL    HW119763   4.573   1.957   0.493
 6459SOL    HW219764   4.433   1.874   0.508
 6460SOL     OW19765   3.921   2.838   1.264
 6460SOL    HW119766   4.010   2.793   1.250
 6460SOL    HW219767   3.848   2.773   1.245
 6461SOL     OW19768   4.041   2.113   1.801
 6461SOL    HW119769   4.112   2.184   1.807
 6461SOL    HW219770   3.953   2.152   1.829
 6462SOL     OW19771   4.322   2.591   0.270
 6462SOL    HW119772   4.346   2.660   0.202
 6462SOL    HW219773   4.244   2.624   0.324
 6463SOL     OW19774   3.800   2.673   0.789
 6463SOL    HW119775   3.899   2.661   0.798
 6463SOL    HW219776   3.776   2.768   0.810
 6464SOL     OW19777   3.854   3.683   1.571
 6464SOL    HW119778   3.844   3.668   1.670
 6464SOL    HW219779   3.768   3.719   1.535
 6465SOL     OW19780   4.274   2.058   0.885
 6465SOL    HW119781   4.269   2.053   0.985
 6465SOL    HW219782   4.276   2.154   0.856
 6466SOL     OW19783   4.075   3.663   0.853
 6466SOL    HW119784   4.125   3.577   0.859
 6466SOL    HW219785   4.140   3.740   0.850
 6467SOL     OW19786   4.045   2.805   0.242
 6467SOL    HW119787   4.127   2.844   0.200
 6467SOL    HW219788   4.018   2.723   0.193
 6468SOL     OW19789   4.185   3.128   1.727
 6468SOL    HW119790   4.135   3.129   1.641
 6468SOL    HW219791   4.122   3.110   1.803
 6469SOL     OW19792   3.926   2.147   1.498
 6469SOL    HW119793   3.846   2.207   1.485
 6469SOL    HW219794   3.916   2.098   1.584
 6470SOL     OW19795   4.188   3.605   0.323
 6470SOL    HW119796   4.221   3.644   0.409
 6470SOL    HW219797   4.264   3.598   0.258
 6471SOL     OW19798   3.973   3.647   1.241
 6471SOL    HW119799   4.030   3.582   1.291
 6471SOL    HW219800   3.957   3.614   1.148
 6472SOL     OW19801   4.106   2.562   0.480
 6472SOL    HW119802   4.151   2.472   0.477
 6472SOL    HW219803   4.012   2.551   0.513
 6473SOL     OW19804   4.338   1.984   0.117
 6473SOL    HW119805   4.436   1.962   0.124
 6473SOL    HW219806   4.307   1.967   0.024
 6474SOL     OW19807   4.527   3.264   0.924
 6474SOL    HW119808   4.617   3.278   0.882
 6474SOL    HW219809   4.456   3.266   0.853
 6475SOL     OW19810   4.263   1.926   0.512
 6475SOL    HW119811   4.182   1.927   0.570
 6475SOL    HW219812   4.266   2.009   0.457
 6476SOL     OW19813   4.021   1.897   0.171
 6476SOL    HW119814   4.070   1.981   0.150
 6476SOL    HW219815   4.083   1.832   0.216
 6477SOL     OW19816   4.800   2.545   1.464
 6477SOL    HW119817   4.720   2.484   1.467
 6477SOL    HW219818   4.881   2.492   1.440
 6478SOL     OW19819   4.183   3.014   0.741
 6478SOL    HW119820   4.112   2.987   0.806
 6478SOL    HW219821   4.157   2.986   0.648
 6479SOL     OW19822   3.802   2.418   1.386
 6479SOL    HW119823   3.894   2.417   1.345
 6479SOL    HW219824   3.796   2.492   1.453
 6480SOL     OW19825   4.285   2.084   1.147
 6480SOL    HW119826   4.323   2.000   1.184
 6480SOL    HW219827   4.197   2.103   1.191
 6481SOL     OW19828   4.212   3.247   0.174
 6481SOL    HW119829   4.125   3.232   0.221
 6481SOL    HW219830   4.195   3.273   0.079
 6482SOL     OW19831   4.251   2.118   0.328
 6482SOL    HW119832   4.278   2.059   0.253
 6482SOL    HW219833   4.251   2.213   0.297
 6483SOL     OW19834   4.134   2.675   1.251
 6483SOL    HW119835   4.220   2.687   1.301
 6483SOL    HW219836   4.092   2.588   1.278
 6484SOL     OW19837   3.788   3.426   1.331
 6484SOL    HW119838   3.742   3.508   1.297
 6484SOL    HW219839   3.886   3.445   1.340
 6485SOL     OW19840   4.091   2.962   0.501
 6485SOL    HW119841   4.084   3.045   0.445
 6485SOL    HW219842   4.095   2.882   0.441
 6486SOL     OW19843   4.290   2.399   0.865
 6486SOL    HW119844   4.302   2.465   0.791
 6486SOL    HW219845   4.336   2.433   0.948
 6487SOL     OW19846   4.078   3.372   1.329
 6487SOL    HW119847   4.057   3.328   1.242
 6487SOL    HW219848   4.175   3.398   1.332
 6488SOL     OW19849   4.126   2.613   1.598
 6488SOL    HW119850   4.194   2.668   1.551
 6488SOL    HW219851   4.166   2.525   1.625
 6489SOL     OW19852   4.228   1.912   1.740
 6489SOL    HW119853   4.186   1.855   1.670
 6489SOL    HW219854   4.162   1.981   1.772
 6490SOL     OW19855   4.297   2.732   1.029
 6490SOL    HW119856   4.341   2.821   1.020
 6490SOL    HW219857   4.234   2.732   1.106
 6491SOL     OW19858   4.031   2.075   1.231
 6491SOL    HW119859   4.008   2.112   1.321
 6491SOL    HW219860   4.001   1.980   1.225
 6492SOL     OW19861   3.761   3.172   1.282
 6492SOL    HW119862   3.814   3.123   1.350
 6492SOL    HW219863   3.783   3.270   1.287
 6493SOL     OW19864   4.031   1.925   0.618
 6493SOL    HW119865   4.020   2.019   0.651
 6493SOL    HW219866   4.026   1.862   0.695
 6494SOL     OW19867   4.074   2.760   1.804
 6494SOL    HW119868   4.150   2.804   1.852
 6494SOL    HW219869   4.109   2.713   1.722
 6495SOL     OW19870   4.043   2.672   0.949
 6495SOL    HW119871   4.136   2.708   0.954
 6495SOL    HW219872   4.037   2.587   1.001
 6496SOL     OW19873   4.063   2.371   1.006
 6496SOL    HW119874   4.011   2.288   0.989
 6496SOL    HW219875   4.140   2.376   0.942
 6497SOL     OW19876   3.732   3.188   0.200
 6497SOL    HW119877   3.639   3.209   0.169
 6497SOL    HW219878   3.742   3.089   0.213
 6498SOL     OW19879   3.812   3.663   0.927
 6498SOL    HW119880   3.770   3.577   0.900
 6498SOL    HW219881   3.906   3.666   0.893
 6499SOL     OW19882   4.228   3.430   0.910
 6499SOL    HW119883   4.294   3.504   0.919
 6499SOL    HW219884   4.272   3.351   0.868
 6500SOL     OW19885   3.764   2.406   1.114
 6500SOL    HW119886   3.849   2.373   1.073
 6500SOL    HW219887   3.777   2.421   1.212
 6501SOL     OW19888   3.913   2.382   1.722
 6501SOL    HW119889   3.972   2.342   1.652
 6501SOL    HW219890   3.855   2.453   1.681
 6502SOL     OW19891   4.539   2.434   0.325
 6502SOL    HW119892   4.546   2.345   0.279
 6502SOL    HW219893   4.445   2.468   0.317
 6503SOL     OW19894   3.976   3.426   1.744
 6503SOL    HW119895   3.946   3.483   1.820
 6503SOL    HW219896   3.969   3.329   1.770
 6504SOL     OW19897   4.197   2.362   0.191
 6504SOL    HW119898   4.258   2.442   0.195
 6504SOL    HW219899   4.102   2.393   0.198
 6505SOL     OW19900   3.883   2.999   1.466
 6505SOL    HW119901   3.905   2.938   1.542
 6505SOL    HW219902   3.893   2.950   1.380
 6506SOL     OW19903   3.807   3.120   1.022
 6506SOL    HW119904   3.802   3.119   1.122
 6506SOL    HW219905   3.724   3.079   0.984
 6507SOL     OW19906   4.412   3.524   1.716
 6507SOL    HW119907   4.356   3.605   1.725
 6507SOL    HW219908   4.464   3.528   1.630
 6508SOL     OW19909   3.854   3.656   1.851
 6508SOL    HW119910   3.813   3.582   1.904
 6508SOL    HW219911   3.918   3.707   1.909
 6509SOL     OW19912   3.987   2.188   0.720
 6509SOL    HW119913   3.908   2.239   0.686
 6509SOL    HW219914   3.978   2.173   0.818
 6510SOL     OW19915   4.096   3.150   1.490
 6510SOL    HW119916   4.083   3.243   1.456
 6510SOL    HW219917   4.012   3.098   1.477
 6511SOL     OW19918   4.314   3.349   0.491
 6511SOL    HW119919   4.356   3.291   0.421
 6511SOL    HW219920   4.270   3.428   0.447
 6512SOL     OW19921   3.979   3.210   0.290
 6512SOL    HW119922   3.883   3.211   0.263
 6512SOL    HW219923   3.991   3.263   0.374
 6513SOL     OW19924   3.829   2.875   1.726
 6513SOL    HW119925   3.752   2.842   1.780
 6513SOL    HW219926   3.914   2.845   1.768
 6514SOL     OW19927   4.396   2.065   1.489
 6514SOL    HW119928   4.486   2.049   1.449
 6514SOL    HW219929   4.404   2.070   1.588
 6515SOL     OW19930   3.799   2.207   0.033
 6515SOL    HW119931   3.707   2.179   0.004
 6515SOL    HW219932   3.830   2.284  -0.023
 6516SOL     OW19933   3.796   2.028   0.318
 6516SOL    HW119934   3.779   2.111   0.264
 6516SOL    HW219935   3.886   1.991   0.296
 6517SOL     OW19936   4.337   2.704   1.431
 6517SOL    HW119937   4.393   2.785   1.414
 6517SOL    HW219938   4.396   2.624   1.434
 6518SOL     OW19939   4.440   2.427   1.708
 6518SOL    HW119940   4.459   2.492   1.782
 6518SOL    HW219941   4.500   2.347   1.717
 6519SOL     OW19942   4.114   3.603   1.560
 6519SOL    HW119943   4.023   3.644   1.558
 6519SOL    HW219944   4.107   3.509   1.592
 6520SOL     OW19945   4.318   2.607   0.652
 6520SOL    HW119946   4.368   2.692   0.633
 6520SOL    HW219947   4.230   2.609   0.604
 6521SOL     OW19948   3.945   3.176   1.844
 6521SOL    HW119949   3.880   3.103   1.823
 6521SOL    HW219950   3.949   3.190   1.942
 6522SOL     OW19951   3.803   3.102   0.653
 6522SOL    HW119952   3.802   3.055   0.741
 6522SOL    HW219953   3.885   3.074   0.602
 6523SOL     OW19954   4.396   3.253   1.624
 6523SOL    HW119955   4.318   3.203   1.662
 6523SOL    HW219956   4.393   3.348   1.655
 6524SOL     OW19957   4.152   2.286   0.520
 6524SOL    HW119958   4.182   2.214   0.458
 6524SOL    HW219959   4.113   2.246   0.603
 6525SOL     OW19960   4.041   2.409   1.280
 6525SOL    HW119961   4.079   2.350   1.352
 6525SOL    HW219962   4.081   2.383   1.192
 6526SOL     OW19963   4.536   3.448   0.687
 6526SOL    HW119964   4.568   3.458   0.593
 6526SOL    HW219965   4.457   3.386   0.689
 6527SOL     OW19966   3.763   2.939   0.300
 6527SOL    HW119967   3.862   2.928   0.291
 6527SOL    HW219968   3.723   2.853   0.332
 6528SOL     OW19969   3.954   2.490   1.975
 6528SOL    HW119970   3.861   2.488   2.012
 6528SOL    HW219971   3.955   2.451   1.883
 6529SOL     OW19972   3.949   2.137   2.858
 6529SOL    HW119973   3.984   2.120   2.950
 6529SOL    HW219974   3.861   2.092   2.846
 6530SOL     OW19975   3.743   2.230   2.509
 6530SOL    HW119976   3.661   2.273   2.548
 6530SOL    HW219977   3.715   2.157   2.446
 6531SOL     OW19978   4.293   3.137   3.027
 6531SOL    HW119979   4.200   3.130   2.990
 6531SOL    HW219980   4.304   3.226   3.071
 6532SOL     OW19981   4.574   2.660   3.685
 6532SOL    HW119982   4.570   2.736   3.750
 6532SOL    HW219983   4.596   2.696   3.594
 6533SOL     OW19984   4.409   2.874   2.527
 6533SOL    HW119985   4.478   2.858   2.597
 6533SOL    HW219986   4.336   2.931   2.565
 6534SOL     OW19987   4.410   3.023   3.665
 6534SOL    HW119988   4.470   3.102   3.679
 6534SOL    HW219989   4.324   3.054   3.624
 6535SOL     OW19990   4.059   3.297   2.923
 6535SOL    HW119991   3.981   3.266   2.870
 6535SOL    HW219992   4.117   3.355   2.866
 6536SOL     OW19993   4.162   2.254   3.361
 6536SOL    HW119994   4.244   2.198   3.370
 6536SOL    HW219995   4.081   2.196   3.365
 6537SOL     OW19996   3.955   3.575   2.345
 6537SOL    HW119997   3.989   3.652   2.399
 6537SOL    HW219998   3.999   3.575   2.255
 6538SOL     OW19999   3.954   3.296   2.400
 6538SOL    HW120000   3.928   3.392   2.400
 6538SOL    HW220001   3.883   3.242   2.445
 6539SOL     OW20002   3.964   2.953   2.748
 6539SOL    HW120003   3.978   2.869   2.800
 6539SOL    HW220004   3.909   3.017   2.803
 6540SOL     OW20005   4.344   3.648   3.301
 6540SOL    HW120006   4.252   3.631   3.336
 6540SOL    HW220007   4.372   3.740   3.327
 6541SOL     OW20008   4.330   2.826   1.985
 6541SOL    HW120009   4.337   2.910   1.931
 6541SOL    HW220010   4.376   2.839   2.073
 6542SOL     OW20011   3.846   2.505   2.425
 6542SOL    HW120012   3.801   2.417   2.442
 6542SOL    HW220013   3.845   2.559   2.509
 6543SOL     OW20014   3.751   3.458   1.979
 6543SOL    HW120015   3.732   3.362   2.000
 6543SOL    HW220016   3.718   3.516   2.054
 6544SOL     OW20017   3.837   2.599   3.459
 6544SOL    HW120018   3.925   2.586   3.504
 6544SOL    HW220019   3.824   2.696   3.437
 6545SOL     OW20020   4.337   3.227   2.588
 6545SOL    HW120021   4.288   3.140   2.597
 6545SOL    HW220022   4.314   3.270   2.501
 6546SOL     OW20023   4.533   1.866   2.364
 6546SOL    HW120024   4.573   1.957   2.355
 6546SOL    HW220025   4.433   1.874   2.370
 6547SOL     OW20026   3.921   2.838   3.126
 6547SOL    HW120027   4.010   2.793   3.112
 6547SOL    HW220028   3.848   2.773   3.107
 6548SOL     OW20029   4.041   2.113   3.663
 6548SOL    HW120030   4.112   2.184   3.669
 6548SOL    HW220031   3.953   2.152   3.691
 6549SOL     OW20032   4.322   2.591   2.132
 6549SOL    HW120033   4.346   2.660   2.064
 6549SOL    HW220034   4.244   2.624   2.186
 6550SOL     OW20035   3.800   2.673   2.651
 6550SOL    HW120036   3.899   2.661   2.660
 6550SOL    HW220037   3.776   2.768   2.672
 6551SOL     OW20038   3.854   3.683   3.433
 6551SOL    HW120039   3.844   3.668   3.532
 6551SOL    HW220040   3.768   3.719   3.397
 6552SOL     OW20041   4.274   2.058   2.747
 6552SOL    HW120042   4.269   2.053   2.847
 6552SOL    HW220043   4.276   2.154   2.718
 6553SOL     OW20044   4.075   3.663   2.715
 6553SOL    HW120045   4.125   3.577   2.721
 6553SOL    HW220046   4.140   3.740   2.712
 6554SOL     OW20047   4.045   2.805   2.104
 6554SOL    HW120048   4.127   2.844   2.062
 6554SOL    HW220049   4.018   2.723   2.055
 6555SOL     OW20050   4.185   3.128   3.589
 6555SOL    HW120051   4.135   3.129   3.503
 6555SOL    HW220052   4.122   3.110   3.665
 6556SOL     OW20053   3.926   2.147   3.360
 6556SOL    HW120054   3.846   2.207   3.347
 6556SOL    HW220055   3.916   2.098   3.446
 6557SOL     OW20056   4.188   3.605   2.185
 6557SOL    HW120057   4.221   3.644   2.271
 6557SOL    HW220058   4.264   3.598   2.120
 6558SOL     OW20059   3.973   3.647   3.103
 6558SOL    HW120060   4.030   3.582   3.153
 6558SOL    HW220061   3.957   3.614   3.010
 6559SOL     OW20062   4.106   2.562   2.342
 6559SOL    HW120063   4.151   2.472   2.339
 6559SOL    HW220064   4.012   2.551   2.375
 6560SOL     OW20065   4.338   1.984   1.979
 6560SOL    HW120066   4.436   1.962   1.986
 6560SOL    HW220067   4.307   1.967   1.886
 6561SOL     OW20068   4.527   3.264   2.786
 6561SOL    HW120069   4.617   3.278   2.744
 6561SOL    HW220070   4.456   3.266   2.715
 6562SOL     OW20071   4.263   1.926   2.374
 6562SOL    HW120072   4.182   1.927   2.432
 6562SOL    HW220073   4.266   2.009   2.319
 6563SOL     OW20074   4.021   1.897   2.033
 6563SOL    HW120075   4.070   1.981   2.012
 6563SOL    HW220076   4.083   1.832   2.078
 6564SOL     OW20077   4.800   2.545   3.326
 6564SOL    HW120078   4.720   2.484   3.329
 6564SOL    HW220079   4.881   2.492   3.302
 6565SOL     OW20080   4.183   3.014   2.603
 6565SOL    HW120081   4.112   2.987   2.668
 6565SOL    HW220082   4.157   2.986   2.510
 6566SOL     OW20083   3.802   2.418   3.248
 6566SOL    HW120084   3.894   2.417   3.207
 6566SOL    HW220085   3.796   2.492   3.315
 6567SOL     OW20086   4.285   2.084   3.009
 6567SOL    HW120087   4.323   2.000   3.046
 6567SOL    HW220088   4.197   2.103   3.053
 6568SOL     OW20089   4.212   3.247   2.036
 6568SOL    HW120090   4.125   3.232   2.083
 6568SOL    HW220091   4.195   3.273   1.941
 6569SOL     OW20092   4.251   2.118   2.190
 6569SOL    HW120093   4.278   2.059   2.115
 6569SOL    HW220094   4.251   2.213   2.159
 6570SOL     OW20095   4.134   2.675   3.113
 6570SOL    HW120096   4.220   2.687   3.163
 6570SOL    HW220097   4.092   2.588   3.140
 6571SOL     OW20098   3.788   3.426   3.193
 6571SOL    HW120099   3.742   3.508   3.159
 6571SOL    HW220100   3.886   3.445   3.202
 6572SOL     OW20101   4.091   2.962   2.363
 6572SOL    HW120102   4.084   3.045   2.307
 6572SOL    HW220103   4.095   2.882   2.303
 6573SOL     OW20104   4.290   2.399   2.727
 6573SOL    HW120105   4.302   2.465   2.653
 6573SOL    HW220106   4.336   2.433   2.810
 6574SOL     OW20107   4.078   3.372   3.191
 6574SOL    HW120108   4.057   3.328   3.104
 6574SOL    HW220109   4.175   3.398   3.194
 6575SOL     OW20110   4.126   2.613   3.460
 6575SOL    HW120111   4.194   2.668   3.413
 6575SOL    HW220112   4.166   2.525   3.487
 6576SOL     OW20113   4.228   1.912   3.602
 6576SOL    HW120114   4.186   1.855   3.532
 6576SOL    HW220115   4.162   1.981   3.634
 6577SOL     OW20116   4.297   2.732   2.891
 6577SOL    HW120117   4.341   2.821   2.882
 6577SOL    HW220118   4.234   2.732   2.968
 6578SOL     OW20119   4.031   2.075   3.093
 6578SOL    HW120120   4.008   2.112   3.183
 6578SOL    HW220121   4.001   1.980   3.087
 6579SOL     OW20122   3.761   3.172   3.144
 6579SOL    HW120123   3.814   3.123   3.212
 6579SOL    HW220124   3.783   3.270   3.149
 6580SOL     OW20125   4.031   1.925   2.480
 6580SOL    HW120126   4.020   2.019   2.513
 6580SOL    HW220127   4.026   1.862   2.557
 6581SOL     OW20128   4.074   2.760   3.666
 6581SOL    HW120129   4.150   2.804   3.714
 6581SOL    HW220130   4.109   2.713   3.584
 6582SOL     OW20131   4.043   2.672   2.811
 6582SOL    HW120132   4.136   2.708   2.816
 6582SOL    HW220133   4.037   2.587   2.863
 6583SOL     OW20134   4.063   2.371   2.868
 6583SOL    HW120135   4.011   2.288   2.851
 6583SOL    HW220136   4.140   2.376   2.804
 6584SOL     OW20137   3.732   3.188   2.062
 6584SOL    HW120138   3.639   3.209   2.031
 6584SOL    HW220139   3.742   3.089   2.075
 6585SOL     OW20140   3.812   3.663   2.789
 6585SOL    HW120141   3.770   3.577   2.762
 6585SOL    HW220142   3.906   3.666   2.755
 6586SOL     OW20143   4.228   3.430   2.772
 6586SOL    HW120144   4.294   3.504   2.781
 6586SOL    HW220145   4.272   3.351   2.730
 6587SOL     OW20146   3.764   2.406   2.976
 6587SOL    HW120147   3.849   2.373   2.935
 6587SOL    HW220148   3.777   2.421   3.074
 6588SOL     OW20149   3.913   2.382   3.584
 6588SOL    HW120150   3.972   2.342   3.514
 6588SOL    HW220151   3.855   2.453   3.543
 6589SOL     OW20152   4.539   2.434   2.187
 6589SOL    HW120153   4.546   2.345   2.141
 6589SOL    HW220154   4.445   2.468   2.179
 6590SOL     OW20155   3.976   3.426   3.606
 6590SOL    HW120156   3.946   3.483   3.682
 6590SOL    HW220157   3.969   3.329   3.632
 6591SOL     OW20158   4.197   2.362   2.053
 6591SOL    HW120159   4.258   2.442   2.057
 6591SOL    HW220160   4.102   2.393   2.060
 6592SOL     OW20161   3.883   2.999   3.328
 6592SOL    HW120162   3.905   2.938   3.404
 6592SOL    HW220163   3.893   2.950   3.242
 6593SOL     OW20164   3.807   3.120   2.884
 6593SOL    HW120165   3.802   3.119   2.984
 6593SOL    HW220166   3.724   3.079   2.846
 6594SOL     OW20167   4.412   3.524   3.578
 6594SOL    HW120168   4.356   3.605   3.587
 6594SOL    HW220169   4.464   3.528   3.492
 6595SOL     OW20170   3.854   3.656   3.713
 6595SOL    HW120171   3.813   3.582   3.766
 6595SOL    HW220172   3.918   3.707   3.771
 6596SOL     OW20173   3.987   2.188   2.582
 6596SOL    HW120174   3.908   2.239   2.548
 6596SOL    HW220175   3.978   2.173   2.680
 6597SOL     OW20176   4.096   3.150   3.352
 6597SOL    HW120177   4.083   3.243   3.318
 6597SOL    HW220178   4.012   3.098   3.339
 6598SOL     OW20179   4.314   3.349   2.353
 6598SOL    HW120180   4.356   3.291   2.283
 6598SOL    HW220181   4.270   3.428   2.309
 6599SOL     OW20182   3.979   3.210   2.152
 6599SOL    HW120183   3.883   3.211   2.125
 6599SOL    HW220184   3.991   3.263   2.236
 6600SOL     OW20185   3.829   2.875   3.588
 6600SOL    HW120186   3.752   2.842   3.642
 6600SOL    HW220187   3.914   2.845   3.630
 6601SOL     OW20188   4.396   2.065   3.351
 6601SOL    HW120189   4.486   2.049   3.311
 6601SOL    HW220190   4.404   2.070   3.450
 6602SOL     OW20191   3.799   2.207   1.895
 6602SOL    HW120192   3.707   2.179   1.866
 6602SOL    HW220193   3.830   2.284   1.839
 6603SOL     OW20194   3.796   2.028   2.180
 6603SOL    HW120195   3.779   2.111   2.126
 6603SOL    HW220196   3.886   1.991   2.158
 6604SOL     OW20197   4.337   2.704   3.293
 6604SOL    HW120198   4.393   2.785   3.276
 6604SOL    HW220199   4.396   2.624   3.296
 6605SOL     OW20200   4.440   2.427   3.570
 6605SOL    HW120201   4.459   2.492   3.644
 6605SOL    HW220202   4.500   2.347   3.579
 6606SOL     OW20203   4.114   3.603   3.422
 6606SOL    HW120204   4.023   3.644   3.420
 6606SOL    HW220205   4.107   3.509   3.454
 6607SOL     OW20206   4.318   2.607   2.514
 6607SOL    HW120207   4.368   2.692   2.495
 6607SOL    HW220208   4.230   2.609   2.466
 6608SOL     OW20209   3.945   3.176   3.706
 6608SOL    HW120210   3.880   3.103   3.685
 6608SOL    HW220211   3.949   3.190   3.804
 6609SOL     OW20212   3.803   3.102   2.515
 6609SOL    HW120213   3.802   3.055   2.603
 6609SOL    HW220214   3.885   3.074   2.464
 6610SOL     OW20215   4.396   3.253   3.486
 6610SOL    HW120216   4.318   3.203   3.524
 6610SOL    HW220217   4.393   3.348   3.517
 6611SOL     OW20218   4.152   2.286   2.382
 6611SOL    HW120219   4.182   2.214   2.320
 6611SOL    HW220220   4.113   2.246   2.465
 6612SOL     OW20221   4.041   2.409   3.142
 6612SOL    HW120222   4.079   2.350   3.214
 6612SOL    HW220223   4.081   2.383   3.054
 6613SOL     OW20224   4.536   3.448   2.549
 6613SOL    HW120225   4.568   3.458   2.455
 6613SOL    HW220226   4.457   3.386   2.551
 6614SOL     OW20227   3.763   2.939   2.162
 6614SOL    HW120228   3.862   2.928   2.153
 6614SOL    HW220229   3.723   2.853   2.194
 6615SOL     OW20230   3.954   2.490   3.837
 6615SOL    HW120231   3.861   2.488   3.874
 6615SOL    HW220232   3.955   2.451   3.745
 6616SOL     OW20233   3.949   2.137   4.720
 6616SOL    HW120234   3.984   2.120   4.812
 6616SOL    HW220235   3.861   2.092   4.708
 6617SOL     OW20236   3.743   2.230   4.371
 6617SOL    HW120237   3.661   2.273   4.410
 6617SOL    HW220238   3.715   2.157   4.308
 6618SOL     OW20239   4.293   3.137   4.889
 6618SOL    HW120240   4.200   3.130   4.852
 6618SOL    HW220241   4.304   3.226   4.933
 6619SOL     OW20242   4.574   2.660   5.547
 6619SOL    HW120243   4.570   2.736   5.612
 6619SOL    HW220244   4.596   2.696   5.456
 6620SOL     OW20245   4.409   2.874   4.389
 6620SOL    HW120246   4.478   2.858   4.459
 6620SOL    HW220247   4.336   2.931   4.427
 6621SOL     OW20248   4.410   3.023   5.527
 6621SOL    HW120249   4.470   3.102   5.541
 6621SOL    HW220250   4.324   3.054   5.486
 6622SOL     OW20251   4.059   3.297   4.785
 6622SOL    HW120252   3.981   3.266   4.732
 6622SOL    HW220253   4.117   3.355   4.728
 6623SOL     OW20254   4.162   2.254   5.223
 6623SOL    HW120255   4.244   2.198   5.232
 6623SOL    HW220256   4.081   2.196   5.227
 6624SOL     OW20257   3.955   3.575   4.207
 6624SOL    HW120258   3.989   3.652   4.261
 6624SOL    HW220259   3.999   3.575   4.117
 6625SOL     OW20260   3.954   3.296   4.262
 6625SOL    HW120261   3.928   3.392   4.262
 6625SOL    HW220262   3.883   3.242   4.307
 6626SOL     OW20263   3.964   2.953   4.610
 6626SOL    HW120264   3.978   2.869   4.662
 6626SOL    HW220265   3.909   3.017   4.665
 6627SOL     OW20266   4.344   3.648   5.163
 6627SOL    HW120267   4.252   3.631   5.198
 6627SOL    HW220268   4.372   3.740   5.189
 6628SOL     OW20269   4.330   2.826   3.847
 6628SOL    HW120270   4.337   2.910   3.793
 6628SOL    HW220271   4.376   2.839   3.935
 6629SOL     OW20272   3.846   2.505   4.287
 6629SOL    HW120273   3.801   2.417   4.304
 6629SOL    HW220274   3.845   2.559   4.371
 6630SOL     OW20275   3.751   3.458   3.841
 6630SOL    HW120276   3.732   3.362   3.862
 6630SOL    HW220277   3.718   3.516   3.916
 6631SOL     OW20278   3.837   2.599   5.321
 6631SOL    HW120279   3.925   2.586   5.366
 6631SOL    HW220280   3.824   2.696   5.299
 6632SOL     OW20281   4.337   3.227   4.450
 6632SOL    HW120282   4.288   3.140   4.459
 6632SOL    HW220283   4.314   3.270   4.363
 6633SOL     OW20284   4.533   1.866   4.226
 6633SOL    HW120285   4.573   1.957   4.217
 6633SOL    HW220286   4.433   1.874   4.232
 6634SOL     OW20287   3.921   2.838   4.988
 6634SOL    HW120288   4.010   2.793   4.974
 6634SOL    HW220289   3.848   2.773   4.969
 6635SOL     OW20290   4.041   2.113   5.525
 6635SOL    HW120291   4.112   2.184   5.531
 6635SOL    HW220292   3.953   2.152   5.553
 6636SOL     OW20293   4.322   2.591   3.994
 6636SOL    HW120294   4.346   2.660   3.926
 6636SOL    HW220295   4.244   2.624   4.048
 6637SOL     OW20296   3.800   2.673   4.513
 6637SOL    HW120297   3.899   2.661   4.522
 6637SOL    HW220298   3.776   2.768   4.534
 6638SOL     OW20299   3.854   3.683   5.295
 6638SOL    HW120300   3.844   3.668   5.394
 6638SOL    HW220301   3.768   3.719   5.259
 6639SOL     OW20302   4.274   2.058   4.609
 6639SOL    HW120303   4.269   2.053   4.709
 6639SOL    HW220304   4.276   2.154   4.580
 6640SOL     OW20305   4.075   3.663   4.577
 6640SOL    HW120306   4.125   3.577   4.583
 6640SOL    HW220307   4.140   3.740   4.574
 6641SOL     OW20308   4.045   2.805   3.966
 6641SOL    HW120309   4.127   2.844   3.924
 6641SOL    HW220310   4.018   2.723   3.917
 6642SOL     OW20311   4.185   3.128   5.451
 6642SOL    HW120312   4.135   3.129   5.365
 6642SOL    HW220313   4.122   3.110   5.527
 6643SOL     OW20314   3.926   2.147   5.222
 6643SOL    HW120315   3.846   2.207   5.209
 6643SOL    HW220316   3.916   2.098   5.308
 6644SOL     OW20317   4.188   3.605   4.047
 6644SOL    HW120318   4.221   3.644   4.133
 6644SOL    HW220319   4.264   3.598   3.982
 6645SOL     OW20320   3.973   3.647   4.965
 6645SOL    HW120321   4.030   3.582   5.015
 6645SOL    HW220322   3.957   3.614   4.872
 6646SOL     OW20323   4.106   2.562   4.204
 6646SOL    HW120324   4.151   2.472   4.201
 6646SOL    HW220325   4.012   2.551   4.237
 6647SOL     OW20326   4.338   1.984   3.841
 6647SOL    HW120327   4.436   1.962   3.848
 6647SOL    HW220328   4.307   1.967   3.748
 6648SOL     OW20329   4.527   3.264   4.648
 6648SOL    HW120330   4.617   3.278   4.606
 6648SOL    HW220331   4.456   3.266   4.577
 6649SOL     OW20332   4.263   1.926   4.236
 6649SOL    HW120333   4.182   1.927   4.294
 6649SOL    HW220334   4.266   2.009   4.181
 6650SOL     OW20335   4.021   1.897   3.895
 6650SOL    HW120336   4.070   1.981   3.874
 6650SOL    HW220337   4.083   1.832   3.940
 6651SOL     OW20338   4.800   2.545   5.188
 6651SOL    HW120339   4.720   2.484   5.191
 6651SOL    HW220340   4.881   2.492   5.164
 6652SOL     OW20341   4.183   3.014   4.465
 6652SOL    HW120342   4.112   2.987   4.530
 6652SOL    HW220343   4.157   2.986   4.372
 6653SOL     OW20344   3.802   2.418   5.110
 6653SOL    HW120345   3.894   2.417   5.069
 6653SOL    HW220346   3.796   2.492   5.177
 6654SOL     OW20347   4.285   2.084   4.871
 6654SOL    HW120348   4.323   2.000   4.908
 6654SOL    HW220349   4.197   2.103   4.915
 6655SOL     OW20350   4.212   3.247   3.898
 6655SOL    HW120351   4.125   3.232   3.945
 6655SOL    HW220352   4.195   3.273   3.803
 6656SOL     OW20353   4.251   2.118   4.052
 6656SOL    HW120354   4.278   2.059   3.977
 6656SOL    HW220355   4.251   2.213   4.021
 6657SOL     OW20356   4.134   2.675   4.975
 6657SOL    HW120357   4.220   2.687   5.025
 6657SOL    HW220358   4.092   2.588   5.002
 6658SOL     OW20359   3.788   3.426   5.055
 6658SOL    HW120360   3.742   3.508   5.021
 6658SOL    HW220361   3.886   3.445   5.064
 6659SOL     OW20362   4.091   2.962   4.225
 6659SOL    HW120363   4.084   3.045   4.169
 6659SOL    HW220364   4.095   2.882   4.165
 6660SOL     OW20365   4.290   2.399   4.589
 6660SOL    HW120366   4.302   2.465   4.515
 6660SOL    HW220367   4.336   2.433   4.672
 6661SOL     OW20368   4.078   3.372   5.053
 6661SOL    HW120369   4.057   3.328   4.966
 6661SOL    HW220370   4.175   3.398   5.056
 6662SOL     OW20371   4.126   2.613   5.322
 6662SOL    HW120372   4.194   2.668   5.275
 6662SOL    HW220373   4.166   2.525   5.349
 6663SOL     OW20374   4.228   1.912   5.464
 6663SOL    HW120375   4.186   1.855   5.394
 6663SOL    HW220376   4.162   1.981   5.496
 6664SOL     OW20377   4.297   2.732   4.753
 6664SOL    HW120378   4.341   2.821   4.744
 6664SOL    HW220379   4.234   2.732   4.830
 6665SOL     OW20380   4.031   2.075   4.955
 6665SOL    HW120381   4.008   2.112   5.045
 6665SOL    HW220382   4.001   1.980   4.949
 6666SOL     OW20383   3.761   3.172   5.006
 6666SOL    HW120384   3.814   3.123   5.074
 6666SOL    HW220385   3.783   3.270   5.011
 6667SOL     OW20386   4.031   1.925   4.342
 6667SOL    HW120387   4.020   2.019   4.375
 6667SOL    HW220388   4.026   1.862   4.419
 6668SOL     OW20389   4.074   2.760   5.528
 6668SOL    HW120390   4.150   2.804   5.576
 6668SOL    HW220391   4.109   2.713   5.446
 6669SOL     OW20392   4.043   2.672   4.673
 6669SOL    HW120393   4.136   2.708   4.678
 6669SOL    HW220394   4.037   2.587   4.725
 6670SOL     OW20395   4.063   2.371   4.730
 6670SOL    HW120396   4.011   2.288   4.713
 6670SOL    HW220397   4.140   2.376   4.666
 6671SOL     OW20398   3.732   3.188   3.924
 6671SOL    HW120399   3.639   3.209   3.893
 6671SOL    HW220400   3.742   3.089   3.937
 6672SOL     OW20401   3.812   3.663   4.651
 6672SOL    HW120402   3.770   3.577   4.624
 6672SOL    HW220403   3.906   3.666   4.617
 6673SOL     OW20404   4.228   3.430   4.634
 6673SOL    HW120405   4.294   3.504   4.643
 6673SOL    HW220406   4.272   3.351   4.592
 6674SOL     OW20407   3.764   2.406   4.838
 6674SOL    HW120408   3.849   2.373   4.797
 6674SOL    HW220409   3.777   2.421   4.936
 6675SOL     OW20410   3.913   2.382   5.446
 6675SOL    HW120411   3.972   2.342   5.376
 6675SOL    HW220412   3.855   2.453   5.405
 6676SOL     OW20413   4.539   2.434   4.049
 6676SOL    HW120414   4.546   2.345   4.003
 6676SOL    HW220415   4.445   2.468   4.041
 6677SOL     OW20416   3.976   3.426   5.468
 6677SOL    HW120417   3.946   3.483   5.544
 6677SOL    HW220418   3.969   3.329   5.494
 6678SOL     OW20419   4.197   2.362   3.915
 6678SOL    HW120420   4.258   2.442   3.919
 6678SOL    HW220421   4.102   2.393   3.922
 6679SOL     OW20422   3.883   2.999   5.190
 6679SOL    HW120423   3.905   2.938   5.266
 6679SOL    HW220424   3.893   2.950   5.104
 6680SOL     OW20425   3.807   3.120   4.746
 6680SOL    HW120426   3.802   3.119   4.846
 6680SOL    HW220427   3.724   3.079   4.708
 6681SOL     OW20428   4.412   3.524   5.440
 6681SOL    HW120429   4.356   3.605   5.449
 6681SOL    HW220430   4.464   3.528   5.354
 6682SOL     OW20431   3.854   3.656   5.575
 6682SOL    HW120432   3.813   3.582   5.628
 6682SOL    HW220433   3.918   3.707   5.633
 6683SOL     OW20434   3.987   2.188   4.444
 6683SOL    HW120435   3.908   2.239   4.410
 6683SOL    HW220436   3.978   2.173   4.542
 6684SOL     OW20437   4.096   3.150   5.214
 6684SOL    HW120438   4.083   3.243   5.180
 6684SOL    HW220439   4.012   3.098   5.201
 6685SOL     OW20440   4.314   3.349   4.215
 6685SOL    HW120441   4.356   3.291   4.145
 6685SOL    HW220442   4.270   3.428   4.171
 6686SOL     OW20443   3.979   3.210   4.014
 6686SOL    HW120444   3.883   3.211   3.987
 6686SOL    HW220445   3.991   3.263   4.098
 6687SOL     OW20446   3.829   2.875   5.450
 6687SOL    HW120447   3.752   2.842   5.504
 6687SOL    HW220448   3.914   2.845   5.492
 6688SOL     OW20449   4.396   2.065   5.213
 6688SOL    HW120450   4.486   2.049   5.173
 6688SOL    HW220451   4.404   2.070   5.312
 6689SOL     OW20452   3.799   2.207   3.757
 6689SOL    HW120453   3.707   2.179   3.728
 6689SOL    HW220454   3.830   2.284   3.701
 6690SOL     OW20455   3.796   2.028   4.042
 6690SOL    HW120456   3.779   2.111   3.988
 6690SOL    HW220457   3.886   1.991   4.020
 6691SOL     OW20458   4.337   2.704   5.155
 6691SOL    HW120459   4.393   2.785   5.138
 6691SOL    HW220460   4.396   2.624   5.158
 6692SOL     OW20461   4.440   2.427   5.432
 6692SOL    HW120462   4.459   2.492   5.506
 6692SOL    HW220463   4.500   2.347   5.441
 6693SOL     OW20464   4.114   3.603   5.284
 6693SOL    HW120465   4.023   3.644   5.282
 6693SOL    HW220466   4.107   3.509   5.316
 6694SOL     OW20467   4.318   2.607   4.376
 6694SOL    HW120468   4.368   2.692   4.357
 6694SOL    HW220469   4.230   2.609   4.328
 6695SOL     OW20470   3.945   3.176   5.568
 6695SOL    HW120471   3.880   3.103   5.547
 6695SOL    HW220472   3.949   3.190   5.666
 6696SOL     OW20473   3.803   3.102   4.377
 6696SOL    HW120474   3.802   3.055   4.465
 6696SOL    HW220475   3.885   3.074   4.326
 6697SOL     OW20476   4.396   3.253   5.348
 6697SOL    HW120477   4.318   3.203   5.386
 6697SOL    HW220478   4.393   3.348   5.379
 6698SOL     OW20479   4.152   2.286   4.244
 6698SOL    HW120480   4.182   2.214   4.182
 6698SOL    HW220481   4.113   2.246   4.327
 6699SOL     OW20482   4.041   2.409   5.004
 6699SOL    HW120483   4.079   2.350   5.076
 6699SOL    HW220484   4.081   2.383   4.916
 6700SOL     OW20485   4.536   3.448   4.411
 6700SOL    HW120486   4.568   3.458   4.317
 6700SOL    HW220487   4.457   3.386   4.413
 6701SOL     OW20488   3.763   2.939   4.024
 6701SOL    HW120489   3.862   2.928   4.015
 6701SOL    HW220490   3.723   2.853   4.056
 6702SOL     OW20491   3.954   2.490   5.699
 6702SOL    HW120492   3.861   2.488   5.736
 6702SOL    HW220493   3.955   2.451   5.607
 6703SOL     OW20494   3.949   2.137   6.582
 6703SOL    HW120495   3.984   2.120   6.674
 6703SOL    HW220496   3.861   2.092   6.570
 6704SOL     OW20497   3.743   2.230   6.233
 6704SOL    HW120498   3.661   2.273   6.272
 6704SOL    HW220499   3.715   2.157   6.170
 6705SOL     OW20500   4.293   3.137   6.751
 6705SOL    HW120501   4.200   3.130   6.714
 6705SOL    HW220502   4.304   3.226   6.795
 6706SOL     OW20503   4.574   2.660   7.409
 6706SOL    HW120504   4.570   2.736   7.474
 6706SOL    HW220505   4.596   2.696   7.318
 6707SOL     OW20506   4.409   2.874   6.251
 6707SOL    HW120507   4.478   2.858   6.321
 6707SOL    HW220508   4.336   2.931   6.289
 6708SOL     OW20509   4.410   3.023   7.389
 6708SOL    HW120510   4.470   3.102   7.403
 6708SOL    HW220511   4.324   3.054   7.348
 6709SOL     OW20512   4.059   3.297   6.647
 6709SOL    HW120513   3.981   3.266   6.594
 6709SOL    HW220514   4.117   3.355   6.590
 6710SOL     OW20515   4.162   2.254   7.085
 6710SOL    HW120516   4.244   2.198   7.094
 6710SOL    HW220517   4.081   2.196   7.089
 6711SOL     OW20518   3.955   3.575   6.069
 6711SOL    HW120519   3.989   3.652   6.123
 6711SOL    HW220520   3.999   3.575   5.979
 6712SOL     OW20521   3.954   3.296   6.124
 6712SOL    HW120522   3.928   3.392   6.124
 6712SOL    HW220523   3.883   3.242   6.169
 6713SOL     OW20524   3.964   2.953   6.472
 6713SOL    HW120525   3.978   2.869   6.524
 6713SOL    HW220526   3.909   3.017   6.527
 6714SOL     OW20527   4.344   3.648   7.025
 6714SOL    HW120528   4.252   3.631   7.060
 6714SOL    HW220529   4.372   3.740   7.051
 6715SOL     OW20530   4.330   2.826   5.709
 6715SOL    HW120531   4.337   2.910   5.655
 6715SOL    HW220532   4.376   2.839   5.797
 6716SOL     OW20533   3.846   2.505   6.149
 6716SOL    HW120534   3.801   2.417   6.166
 6716SOL    HW220535   3.845   2.559   6.233
 6717SOL     OW20536   3.751   3.458   5.703
 6717SOL    HW120537   3.732   3.362   5.724
 6717SOL    HW220538   3.718   3.516   5.778
 6718SOL     OW20539   3.837   2.599   7.183
 6718SOL    HW120540   3.925   2.586   7.228
 6718SOL    HW220541   3.824   2.696   7.161
 6719SOL     OW20542   4.337   3.227   6.312
 6719SOL    HW120543   4.288   3.140   6.321
 6719SOL    HW220544   4.314   3.270   6.225
 6720SOL     OW20545   4.533   1.866   6.088
 6720SOL    HW120546   4.573   1.957   6.079
 6720SOL    HW220547   4.433   1.874   6.094
 6721SOL     OW20548   3.921   2.838   6.850
 6721SOL    HW120549   4.010   2.793   6.836
 6721SOL    HW220550   3.848   2.773   6.831
 6722SOL     OW20551   4.041   2.113   7.387
 6722SOL    HW120552   4.112   2.184   7.393
 6722SOL    HW220553   3.953   2.152   7.415
 6723SOL     OW20554   4.322   2.591   5.856
 6723SOL    HW120555   4.346   2.660   5.788
 6723SOL    HW220556   4.244   2.624   5.910
 6724SOL     OW20557   3.800   2.673   6.375
 6724SOL    HW120558   3.899   2.661   6.384
 6724SOL    HW220559   3.776   2.768   6.396
 6725SOL     OW20560   3.854   3.683   7.157
 6725SOL    HW120561   3.844   3.668   7.256
 6725SOL    HW220562   3.768   3.719   7.121
 6726SOL     OW20563   4.274   2.058   6.471
 6726SOL    HW120564   4.269   2.053   6.571
 6726SOL    HW220565   4.276   2.154   6.442
 6727SOL     OW20566   4.075   3.663   6.439
 6727SOL    HW120567   4.125   3.577   6.445
 6727SOL    HW220568   4.140   3.740   6.436
 6728SOL     OW20569   4.045   2.805   5.828
 6728SOL    HW120570   4.127   2.844   5.786
 6728SOL    HW220571   4.018   2.723   5.779
 6729SOL     OW20572   4.185   3.128   7.313
 6729SOL    HW120573   4.135   3.129   7.227
 6729SOL    HW220574   4.122   3.110   7.389
 6730SOL     OW20575   3.926   2.147   7.084
 6730SOL    HW120576   3.846   2.207   7.071
 6730SOL    HW220577   3.916   2.098   7.170
 6731SOL     OW20578   4.188   3.605   5.909
 6731SOL    HW120579   4.221   3.644   5.995
 6731SOL    HW220580   4.264   3.598   5.844
 6732SOL     OW20581   3.973   3.647   6.827
 6732SOL    HW120582   4.030   3.582   6.877
 6732SOL    HW220583   3.957   3.614   6.734
 6733SOL     OW20584   4.106   2.562   6.066
 6733SOL    HW120585   4.151   2.472   6.063
 6733SOL    HW220586   4.012   2.551   6.099
 6734SOL     OW20587   4.338   1.984   5.703
 6734SOL    HW120588   4.436   1.962   5.710
 6734SOL    HW220589   4.307   1.967   5.610
 6735SOL     OW20590   4.527   3.264   6.510
 6735SOL    HW120591   4.617   3.278   6.468
 6735SOL    HW220592   4.456   3.266   6.439
 6736SOL     OW20593   4.263   1.926   6.098
 6736SOL    HW120594   4.182   1.927   6.156
 6736SOL    HW220595   4.266   2.009   6.043
 6737SOL     OW20596   4.021   1.897   5.757
 6737SOL    HW120597   4.070   1.981   5.736
 6737SOL    HW220598   4.083   1.832   5.802
 6738SOL     OW20599   4.800   2.545   7.050
 6738SOL    HW120600   4.720   2.484   7.053
 6738SOL    HW220601   4.881   2.492   7.026
 6739SOL     OW20602   4.183   3.014   6.327
 6739SOL    HW120603   4.112   2.987   6.392
 6739SOL    HW220604   4.157   2.986   6.234
 6740SOL     OW20605   3.802   2.418   6.972
 6740SOL    HW120606   3.894   2.417   6.931
 6740SOL    HW220607   3.796   2.492   7.039
 6741SOL     OW20608   4.285   2.084   6.733
 6741SOL    HW120609   4.323   2.000   6.770
 6741SOL    HW220610   4.197   2.103   6.777
 6742SOL     OW20611   4.212   3.247   5.760
 6742SOL    HW120612   4.125   3.232   5.807
 6742SOL    HW220613   4.195   3.273   5.665
 6743SOL     OW20614   4.251   2.118   5.914
 6743SOL    HW120615   4.278   2.059   5.839
 6743SOL    HW220616   4.251   2.213   5.883
 6744SOL     OW20617   4.134   2.675   6.837
 6744SOL    HW120618   4.220   2.687   6.887
 6744SOL    HW220619   4.092   2.588   6.864
 6745SOL     OW20620   3.788   3.426   6.917
 6745SOL    HW120621   3.742   3.508   6.883
 6745SOL    HW220622   3.886   3.445   6.926
 6746SOL     OW20623   4.091   2.962   6.087
 6746SOL    HW120624   4.084   3.045   6.031
 6746SOL    HW220625   4.095   2.882   6.027
 6747SOL     OW20626   4.290   2.399   6.451
 6747SOL    HW120627   4.302   2.465   6.377
 6747SOL    HW220628   4.336   2.433   6.534
 6748SOL     OW20629   4.078   3.372   6.915
 6748SOL    HW120630   4.057   3.328   6.828
 6748SOL    HW220631   4.175   3.398   6.918
 6749SOL     OW20632   4.126   2.613   7.184
 6749SOL    HW120633   4.194   2.668   7.137
 6749SOL    HW220634   4.166   2.525   7.211
 6750SOL     OW20635   4.228   1.912   7.326
 6750SOL    HW120636   4.186   1.855   7.256
 6750SOL    HW220637   4.162   1.981   7.358
 6751SOL     OW20638   4.297   2.732   6.615
 6751SOL    HW120639   4.341   2.821   6.606
 6751SOL    HW220640   4.234   2.732   6.692
 6752SOL     OW20641   4.031   2.075   6.817
 6752SOL    HW120642   4.008   2.112   6.907
 6752SOL    HW220643   4.001   1.980   6.811
 6753SOL     OW20644   3.761   3.172   6.868
 6753SOL    HW120645   3.814   3.123   6.936
 6753SOL    HW220646   3.783   3.270   6.873
 6754SOL     OW20647   4.031   1.925   6.204
 6754SOL    HW120648   4.020   2.019   6.237
 6754SOL    HW220649   4.026   1.862   6.281
 6755SOL     OW20650   4.074   2.760   7.390
 6755SOL    HW120651   4.150   2.804   7.438
 6755SOL    HW220652   4.109   2.713   7.308
 6756SOL     OW20653   4.043   2.672   6.535
 6756SOL    HW120654   4.136   2.708   6.540
 6756SOL    HW220655   4.037   2.587   6.587
 6757SOL     OW20656   4.063   2.371   6.592
 6757SOL    HW120657   4.011   2.288   6.575
 6757SOL    HW220658   4.140   2.376   6.528
 6758SOL     OW20659   3.732   3.188   5.786
 6758SOL    HW120660   3.639   3.209   5.755
 6758SOL    HW220661   3.742   3.089   5.799
 6759SOL     OW20662   3.812   3.663   6.513
 6759SOL    HW120663   3.770   3.577   6.486
 6759SOL    HW220664   3.906   3.666   6.479
 6760SOL     OW20665   4.228   3.430   6.496
 6760SOL    HW120666   4.294   3.504   6.505
 6760SOL    HW220667   4.272   3.351   6.454
 6761SOL     OW20668   3.764   2.406   6.700
 6761SOL    HW120669   3.849   2.373   6.659
 6761SOL    HW220670   3.777   2.421   6.798
 6762SOL     OW20671   3.913   2.382   7.308
 6762SOL    HW120672   3.972   2.342   7.238
 6762SOL    HW220673   3.855   2.453   7.267
 6763SOL     OW20674   4.539   2.434   5.911
 6763SOL    HW120675   4.546   2.345   5.865
 6763SOL    HW220676   4.445   2.468   5.903
 6764SOL     OW20677   3.976   3.426   7.330
 6764SOL    HW120678   3.946   3.483   7.406
 6764SOL    HW220679   3.969   3.329   7.356
 6765SOL     OW20680   4.197   2.362   5.777
 6765SOL    HW120681   4.258   2.442   5.781
 6765SOL    HW220682   4.102   2.393   5.784
 6766SOL     OW20683   3.883   2.999   7.052
 6766SOL    HW120684   3.905   2.938   7.128
 6766SOL    HW220685   3.893   2.950   6.966
 6767SOL     OW20686   3.807   3.120   6.608
 6767SOL    HW120687   3.802   3.119   6.708
 6767SOL    HW220688   3.724   3.079   6.570
 6768SOL     OW20689   4.412   3.524   7.302
 6768SOL    HW120690   4.356   3.605   7.311
 6768SOL    HW220691   4.464   3.528   7.216
 6769SOL     OW20692   3.854   3.656   7.437
 6769SOL    HW120693   3.813   3.582   7.490
 6769SOL    HW220694   3.918   3.707   7.495
 6770SOL     OW20695   3.987   2.188   6.306
 6770SOL    HW120696   3.908   2.239   6.272
 6770SOL    HW220697   3.978   2.173   6.404
 6771SOL     OW20698   4.096   3.150   7.076
 6771SOL    HW120699   4.083   3.243   7.042
 6771SOL    HW220700   4.012   3.098   7.063
 6772SOL     OW20701   4.314   3.349   6.077
 6772SOL    HW120702   4.356   3.291   6.007
 6772SOL    HW220703   4.270   3.428   6.033
 6773SOL     OW20704   3.979   3.210   5.876
 6773SOL    HW120705   3.883   3.211   5.849
 6773SOL    HW220706   3.991   3.263   5.960
 6774SOL     OW20707   3.829   2.875   7.312
 6774SOL    HW120708   3.752   2.842   7.366
 6774SOL    HW220709   3.914   2.845   7.354
 6775SOL     OW20710   4.396   2.065   7.075
 6775SOL    HW120711   4.486   2.049   7.035
 6775SOL    HW220712   4.404   2.070   7.174
 6776SOL     OW20713   3.799   2.207   5.619
 6776SOL    HW120714   3.707   2.179   5.590
 6776SOL    HW220715   3.830   2.284   5.563
 6777SOL     OW20716   3.796   2.028   5.904
 6777SOL    HW120717   3.779   2.111   5.850
 6777SOL    HW220718   3.886   1.991   5.882
 6778SOL     OW20719   4.337   2.704   7.017
 6778SOL    HW120720   4.393   2.785   7.000
 6778SOL    HW220721   4.396   2.624   7.020
 6779SOL     OW20722   4.440   2.427   7.294
 6779SOL    HW120723   4.459   2.492   7.368
 6779SOL    HW220724   4.500   2.347   7.303
 6780SOL     OW20725   4.114   3.603   7.146
 6780SOL    HW120726   4.023   3.644   7.144
 6780SOL    HW220727   4.107   3.509   7.178
 6781SOL     OW20728   4.318   2.607   6.238
 6781SOL    HW120729   4.368   2.692   6.219
 6781SOL    HW220730   4.230   2.609   6.190
 6782SOL     OW20731   3.945   3.176   7.430
 6782SOL    HW120732   3.880   3.103   7.409
 6782SOL    HW220733   3.949   3.190   7.528
 6783SOL     OW20734   3.803   3.102   6.239
 6783SOL    HW120735   3.802   3.055   6.327
 6783SOL    HW220736   3.885   3.074   6.188
 6784SOL     OW20737   4.396   3.253   7.210
 6784SOL    HW120738   4.318   3.203   7.248
 6784SOL    HW220739   4.393   3.348   7.241
 6785SOL     OW20740   4.152   2.286   6.106
 6785SOL    HW120741   4.182   2.214   6.044
 6785SOL    HW220742   4.113   2.246   6.189
 6786SOL     OW20743   4.041   2.409   6.866
 6786SOL    HW120744   4.079   2.350   6.938
 6786SOL    HW220745   4.081   2.383   6.778
 6787SOL     OW20746   4.536   3.448   6.273
 6787SOL    HW120747   4.568   3.458   6.179
 6787SOL    HW220748   4.457   3.386   6.275
 6788SOL     OW20749   3.763   2.939   5.886
 6788SOL    HW120750   3.862   2.928   5.877
 6788SOL    HW220751   3.723   2.853   5.918
 6789SOL     OW20752   3.954   2.490   7.561
 6789SOL    HW120753   3.861   2.488   7.598
 6789SOL    HW220754   3.955   2.451   7.469
 6790SOL     OW20755   3.949   2.137   8.444
 6790SOL    HW120756   3.984   2.120   8.536
 6790SOL    HW220757   3.861   2.092   8.432
 6791SOL     OW20758   3.743   2.230   8.095
 6791SOL    HW120759   3.661   2.273   8.134
 6791SOL    HW220760   3.715   2.157   8.032
 6792SOL     OW20761   4.293   3.137   8.613
 6792SOL    HW120762   4.200   3.130   8.576
 6792SOL    HW220763   4.304   3.226   8.657
 6793SOL     OW20764   4.574   2.660   9.271
 6793SOL    HW120765   4.570   2.736   9.336
 6793SOL    HW220766   4.596   2.696   9.180
 6794SOL     OW20767   4.409   2.874   8.113
 6794SOL    HW120768   4.478   2.858   8.183
 6794SOL    HW220769   4.336   2.931   8.151
 6795SOL     OW20770   4.410   3.023   9.251
 6795SOL    HW120771   4.470   3.102   9.265
 6795SOL    HW220772   4.324   3.054   9.210
 6796SOL     OW20773   4.059   3.297   8.509
 6796SOL    HW120774   3.981   3.266   8.456
 6796SOL    HW220775   4.117   3.355   8.452
 6797SOL     OW20776   4.162   2.254   8.947
 6797SOL    HW120777   4.244   2.198   8.956
 6797SOL    HW220778   4.081   2.196   8.951
 6798SOL     OW20779   3.955   3.575   7.931
 6798SOL    HW120780   3.989   3.652   7.985
 6798SOL    HW220781   3.999   3.575   7.841
 6799SOL     OW20782   3.954   3.296   7.986
 6799SOL    HW120783   3.928   3.392   7.986
 6799SOL    HW220784   3.883   3.242   8.031
 6800SOL     OW20785   3.964   2.953   8.334
 6800SOL    HW120786   3.978   2.869   8.386
 6800SOL    HW220787   3.909   3.017   8.389
 6801SOL     OW20788   4.344   3.648   8.887
 6801SOL    HW120789   4.252   3.631   8.922
 6801SOL    HW220790   4.372   3.740   8.913
 6802SOL     OW20791   4.330   2.826   7.571
 6802SOL    HW120792   4.337   2.910   7.517
 6802SOL    HW220793   4.376   2.839   7.659
 6803SOL     OW20794   3.846   2.505   8.011
 6803SOL    HW120795   3.801   2.417   8.028
 6803SOL    HW220796   3.845   2.559   8.095
 6804SOL     OW20797   3.751   3.458   7.565
 6804SOL    HW120798   3.732   3.362   7.586
 6804SOL    HW220799   3.718   3.516   7.640
 6805SOL     OW20800   3.837   2.599   9.045
 6805SOL    HW120801   3.925   2.586   9.090
 6805SOL    HW220802   3.824   2.696   9.023
 6806SOL     OW20803   4.337   3.227   8.174
 6806SOL    HW120804   4.288   3.140   8.183
 6806SOL    HW220805   4.314   3.270   8.087
 6807SOL     OW20806   4.533   1.866   7.950
 6807SOL    HW120807   4.573   1.957   7.941
 6807SOL    HW220808   4.433   1.874   7.956
 6808SOL     OW20809   3.921   2.838   8.712
 6808SOL    HW120810   4.010   2.793   8.698
 6808SOL    HW220811   3.848   2.773   8.693
 6809SOL     OW20812   4.041   2.113   9.249
 6809SOL    HW120813   4.112   2.184   9.255
 6809SOL    HW220814   3.953   2.152   9.277
 6810SOL     OW20815   4.322   2.591   7.718
 6810SOL    HW120816   4.346   2.660   7.650
 6810SOL    HW220817   4.244   2.624   7.772
 6811SOL     OW20818   3.800   2.673   8.237
 6811SOL    HW120819   3.899   2.661   8.246
 6811SOL    HW220820   3.776   2.768   8.258
 6812SOL     OW20821   3.854   3.683   9.019
 6812SOL    HW120822   3.844   3.668   9.118
 6812SOL    HW220823   3.768   3.719   8.983
 6813SOL     OW20824   4.274   2.058   8.333
 6813SOL    HW120825   4.269   2.053   8.433
 6813SOL    HW220826   4.276   2.154   8.304
 6814SOL     OW20827   4.075   3.663   8.301
 6814SOL    HW120828   4.125   3.577   8.307
 6814SOL    HW220829   4.140   3.740   8.298
 6815SOL     OW20830   4.045   2.805   7.690
 6815SOL    HW120831   4.127   2.844   7.648
 6815SOL    HW220832   4.018   2.723   7.641
 6816SOL     OW20833   4.185   3.128   9.175
 6816SOL    HW120834   4.135   3.129   9.089
 6816SOL    HW220835   4.122   3.110   9.251
 6817SOL     OW20836   3.926   2.147   8.946
 6817SOL    HW120837   3.846   2.207   8.933
 6817SOL    HW220838   3.916   2.098   9.032
 6818SOL     OW20839   4.188   3.605   7.771
 6818SOL    HW120840   4.221   3.644   7.857
 6818SOL    HW220841   4.264   3.598   7.706
 6819SOL     OW20842   3.973   3.647   8.689
 6819SOL    HW120843   4.030   3.582   8.739
 6819SOL    HW220844   3.957   3.614   8.596
 6820SOL     OW20845   4.106   2.562   7.928
 6820SOL    HW120846   4.151   2.472   7.925
 6820SOL    HW220847   4.012   2.551   7.961
 6821SOL     OW20848   4.338   1.984   7.565
 6821SOL    HW120849   4.436   1.962   7.572
 6821SOL    HW220850   4.307   1.967   7.472
 6822SOL     OW20851   4.527   3.264   8.372
 6822SOL    HW120852   4.617   3.278   8.330
 6822SOL    HW220853   4.456   3.266   8.301
 6823SOL     OW20854   4.263   1.926   7.960
 6823SOL    HW120855   4.182   1.927   8.018
 6823SOL    HW220856   4.266   2.009   7.905
 6824SOL     OW20857   4.021   1.897   7.619
 6824SOL    HW120858   4.070   1.981   7.598
 6824SOL    HW220859   4.083   1.832   7.664
 6825SOL     OW20860   4.800   2.545   8.912
 6825SOL    HW120861   4.720   2.484   8.915
 6825SOL    HW220862   4.881   2.492   8.888
 6826SOL     OW20863   4.183   3.014   8.189
 6826SOL    HW120864   4.112   2.987   8.254
 6826SOL    HW220865   4.157   2.986   8.096
 6827SOL     OW20866   3.802   2.418   8.834
 6827SOL    HW120867   3.894   2.417   8.793
 6827SOL    HW220868   3.796   2.492   8.901
 6828SOL     OW20869   4.285   2.084   8.595
 6828SOL    HW120870   4.323   2.000   8.632
 6828SOL    HW220871   4.197   2.103   8.639
 6829SOL     OW20872   4.212   3.247   7.622
 6829SOL    HW120873   4.125   3.232   7.669
 6829SOL    HW220874   4.195   3.273   7.527
 6830SOL     OW20875   4.251   2.118   7.776
 6830SOL    HW120876   4.278   2.059   7.701
 6830SOL    HW220877   4.251   2.213   7.745
 6831SOL     OW20878   4.134   2.675   8.699
 6831SOL    HW120879   4.220   2.687   8.749
 6831SOL    HW220880   4.092   2.588   8.726
 6832SOL     OW20881   3.788   3.426   8.779
 6832SOL    HW120882   3.742   3.508   8.745
 6832SOL    HW220883   3.886   3.445   8.788
 6833SOL     OW20884   4.091   2.962   7.949
 6833SOL    HW120885   4.084   3.045   7.893
 6833SOL    HW220886   4.095   2.882   7.889
 6834SOL     OW20887   4.290   2.399   8.313
 6834SOL    HW120888   4.302   2.465   8.239
 6834SOL    HW220889   4.336   2.433   8.396
 6835SOL     OW20890   4.078   3.372   8.777
 6835SOL    HW120891   4.057   3.328   8.690
 6835SOL    HW220892   4.175   3.398   8.780
 6836SOL     OW20893   4.126   2.613   9.046
 6836SOL    HW120894   4.194   2.668   8.999
 6836SOL    HW220895   4.166   2.525   9.073
 6837SOL     OW20896   4.228   1.912   9.188
 6837SOL    HW120897   4.186   1.855   9.118
 6837SOL    HW220898   4.162   1.981   9.220
 6838SOL     OW20899   4.297   2.732   8.477
 6838SOL    HW120900   4.341   2.821   8.468
 6838SOL    HW220901   4.234   2.732   8.554
 6839SOL     OW20902   4.031   2.075   8.679
 6839SOL    HW120903   4.008   2.112   8.769
 6839SOL    HW220904   4.001   1.980   8.673
 6840SOL     OW20905   3.761   3.172   8.730
 6840SOL    HW120906   3.814   3.123   8.798
 6840SOL    HW220907   3.783   3.270   8.735
 6841SOL     OW20908   4.031   1.925   8.066
 6841SOL    HW120909   4.020   2.019   8.099
 6841SOL    HW220910   4.026   1.862   8.143
 6842SOL     OW20911   4.074   2.760   9.252
 6842SOL    HW120912   4.150   2.804   9.300
 6842SOL    HW220913   4.109   2.713   9.170
 6843SOL     OW20914   4.043   2.672   8.397
 6843SOL    HW120915   4.136   2.708   8.402
 6843SOL    HW220916   4.037   2.587   8.449
 6844SOL     OW20917   4.063   2.371   8.454
 6844SOL    HW120918   4.011   2.288   8.437
 6844SOL    HW220919   4.140   2.376   8.390
 6845SOL     OW20920   3.732   3.188   7.648
 6845SOL    HW120921   3.639   3.209   7.617
 6845SOL    HW220922   3.742   3.089   7.661
 6846SOL     OW20923   3.812   3.663   8.375
 6846SOL    HW120924   3.770   3.577   8.348
 6846SOL    HW220925   3.906   3.666   8.341
 6847SOL     OW20926   4.228   3.430   8.358
 6847SOL    HW120927   4.294   3.504   8.367
 6847SOL    HW220928   4.272   3.351   8.316
 6848SOL     OW20929   3.764   2.406   8.562
 6848SOL    HW120930   3.849   2.373   8.521
 6848SOL    HW220931   3.777   2.421   8.660
 6849SOL     OW20932   3.913   2.382   9.170
 6849SOL    HW120933   3.972   2.342   9.100
 6849SOL    HW220934   3.855   2.453   9.129
 6850SOL     OW20935   4.539   2.434   7.773
 6850SOL    HW120936   4.546   2.345   7.727
 6850SOL    HW220937   4.445   2.468   7.765
 6851SOL     OW20938   3.976   3.426   9.192
 6851SOL    HW120939   3.946   3.483   9.268
 6851SOL    HW220940   3.969   3.329   9.218
 6852SOL     OW20941   4.197   2.362   7.639
 6852SOL    HW120942   4.258   2.442   7.643
 6852SOL    HW220943   4.102   2.393   7.646
 6853SOL     OW20944   3.883   2.999   8.914
 6853SOL    HW120945   3.905   2.938   8.990
 6853SOL    HW220946   3.893   2.950   8.828
 6854SOL     OW20947   3.807   3.120   8.470
 6854SOL    HW120948   3.802   3.119   8.570
 6854SOL    HW220949   3.724   3.079   8.432
 6855SOL     OW20950   4.412   3.524   9.164
 6855SOL    HW120951   4.356   3.605   9.173
 6855SOL    HW220952   4.464   3.528   9.078
 6856SOL     OW20953   3.854   3.656   9.299
 6856SOL    HW120954   3.813   3.582   9.352
 6856SOL    HW220955   3.918   3.707   9.357
 6857SOL     OW20956   3.987   2.188   8.168
 6857SOL    HW120957   3.908   2.239   8.134
 6857SOL    HW220958   3.978   2.173   8.266
 6858SOL     OW20959   4.096   3.150   8.938
 6858SOL    HW120960   4.083   3.243   8.904
 6858SOL    HW220961   4.012   3.098   8.925
 6859SOL     OW20962   4.314   3.349   7.939
 6859SOL    HW120963   4.356   3.291   7.869
 6859SOL    HW220964   4.270   3.428   7.895
 6860SOL     OW20965   3.979   3.210   7.738
 6860SOL    HW120966   3.883   3.211   7.711
 6860SOL    HW220967   3.991   3.263   7.822
 6861SOL     OW20968   3.829   2.875   9.174
 6861SOL    HW120969   3.752   2.842   9.228
 6861SOL    HW220970   3.914   2.845   9.216
 6862SOL     OW20971   4.396   2.065   8.937
 6862SOL    HW120972   4.486   2.049   8.897
 6862SOL    HW220973   4.404   2.070   9.036
 6863SOL     OW20974   3.799   2.207   7.481
 6863SOL    HW120975   3.707   2.179   7.452
 6863SOL    HW220976   3.830   2.284   7.425
 6864SOL     OW20977   3.796   2.028   7.766
 6864SOL    HW120978   3.779   2.111   7.712
 6864SOL    HW220979   3.886   1.991   7.744
 6865SOL     OW20980   4.337   2.704   8.879
 6865SOL    HW120981   4.393   2.785   8.862
 6865SOL    HW220982   4.396   2.624   8.882
 6866SOL     OW20983   4.440   2.427   9.156
 6866SOL    HW120984   4.459   2.492   9.230
 6866SOL    HW220985   4.500   2.347   9.165
 6867SOL     OW20986   4.114   3.603   9.008
 6867SOL    HW120987   4.023   3.644   9.006
 6867SOL    HW220988   4.107   3.509   9.040
 6868SOL     OW20989   4.318   2.607   8.100
 6868SOL    HW120990   4.368   2.692   8.081
 6868SOL    HW220991   4.230   2.609   8.052
 6869SOL     OW20992   3.945   3.176   9.292
 6869SOL    HW120993   3.880   3.103   9.271
 6869SOL    HW220994   3.949   3.190   9.390
 6870SOL     OW20995   3.803   3.102   8.101
 6870SOL    HW120996   3.802   3.055   8.189
 6870SOL    HW220997   3.885   3.074   8.050
 6871SOL     OW20998   4.396   3.253   9.072
 6871SOL    HW120999   4.318   3.203   9.110
 6871SOL    HW221000   4.393   3.348   9.103
 6872SOL     OW21001   4.152   2.286   7.968
 6872SOL    HW121002   4.182   2.214   7.906
 6872SOL    HW221003   4.113   2.246   8.051
 6873SOL     OW21004   4.041   2.409   8.728
 6873SOL    HW121005   4.079   2.350   8.800
 6873SOL    HW221006   4.081   2.383   8.640
 6874SOL     OW21007   4.536   3.448   8.135
 6874SOL    HW121008   4.568   3.458   8.041
 6874SOL    HW221009   4.457   3.386   8.137
 6875SOL     OW21010   3.763   2.939   7.748
 6875SOL    HW121011   3.862   2.928   7.739
 6875SOL    HW221012   3.723   2.853   7.780
 6876SOL     OW21013   3.954   2.490   9.423
 6876SOL    HW121014   3.861   2.488   9.460
 6876SOL    HW221015   3.955   2.451   9.331
 6877SOL     OW21016   3.949   2.137  10.306
 6877SOL    HW121017   3.984   2.120  10.398
 6877SOL    HW221018   3.861   2.092  10.294
 6878SOL     OW21019   3.743   2.230   9.957
 6878SOL    HW121020   3.661   2.273   9.996
 6878SOL    HW221021   3.715   2.157   9.894
 6879SOL     OW21022   4.293   3.137  10.475
 6879SOL    HW121023   4.200   3.130  10.438
 6879SOL    HW221024   4.304   3.226  10.519
 6880SOL     OW21025   4.574   2.660  11.133
 6880SOL    HW121026   4.570   2.736  11.198
 6880SOL    HW221027   4.596   2.696  11.042
 6881SOL     OW21028   4.409   2.874   9.975
 6881SOL    HW121029   4.478   2.858  10.045
 6881SOL    HW221030   4.336   2.931  10.013
 6882SOL     OW21031   4.059   3.297  10.371
 6882SOL    HW121032   3.981   3.266  10.318
 6882SOL    HW221033   4.117   3.355  10.314
 6883SOL     OW21034   4.162   2.254  10.809
 6883SOL    HW121035   4.244   2.198  10.818
 6883SOL    HW221036   4.081   2.196  10.813
 6884SOL     OW21037   3.955   3.575   9.793
 6884SOL    HW121038   3.989   3.652   9.847
 6884SOL    HW221039   3.999   3.575   9.703
 6885SOL     OW21040   3.954   3.296   9.848
 6885SOL    HW121041   3.928   3.392   9.848
 6885SOL    HW221042   3.883   3.242   9.893
 6886SOL     OW21043   3.964   2.953  10.196
 6886SOL    HW121044   3.978   2.869  10.248
 6886SOL    HW221045   3.909   3.017  10.251
 6887SOL     OW21046   4.344   3.648  10.749
 6887SOL    HW121047   4.252   3.631  10.784
 6887SOL    HW221048   4.372   3.740  10.775
 6888SOL     OW21049   4.330   2.826   9.433
 6888SOL    HW121050   4.337   2.910   9.379
 6888SOL    HW221051   4.376   2.839   9.521
 6889SOL     OW21052   3.846   2.505   9.873
 6889SOL    HW121053   3.801   2.417   9.890
 6889SOL    HW221054   3.845   2.559   9.957
 6890SOL     OW21055   3.751   3.458   9.427
 6890SOL    HW121056   3.732   3.362   9.448
 6890SOL    HW221057   3.718   3.516   9.502
 6891SOL     OW21058   3.837   2.599  10.907
 6891SOL    HW121059   3.925   2.586  10.952
 6891SOL    HW221060   3.824   2.696  10.885
 6892SOL     OW21061   4.337   3.227  10.036
 6892SOL    HW121062   4.288   3.140  10.045
 6892SOL    HW221063   4.314   3.270   9.949
 6893SOL     OW21064   4.533   1.866   9.812
 6893SOL    HW121065   4.573   1.957   9.803
 6893SOL    HW221066   4.433   1.874   9.818
 6894SOL     OW21067   3.921   2.838  10.574
 6894SOL    HW121068   4.010   2.793  10.560
 6894SOL    HW221069   3.848   2.773  10.555
 6895SOL     OW21070   4.041   2.113  11.111
 6895SOL    HW121071   4.112   2.184  11.117
 6895SOL    HW221072   3.953   2.152  11.139
 6896SOL     OW21073   4.322   2.591   9.580
 6896SOL    HW121074   4.346   2.660   9.512
 6896SOL    HW221075   4.244   2.624   9.634
 6897SOL     OW21076   3.800   2.673  10.099
 6897SOL    HW121077   3.899   2.661  10.108
 6897SOL    HW221078   3.776   2.768  10.120
 6898SOL     OW21079   3.854   3.683  10.881
 6898SOL    HW121080   3.844   3.668  10.980
 6898SOL    HW221081   3.768   3.719  10.845
 6899SOL     OW21082   4.274   2.058  10.195
 6899SOL    HW121083   4.269   2.053  10.295
 6899SOL    HW221084   4.276   2.154  10.166
 6900SOL     OW21085   4.075   3.663  10.163
 6900SOL    HW121086   4.125   3.577  10.169
 6900SOL    HW221087   4.140   3.740  10.160
 6901SOL     OW21088   4.045   2.805   9.552
 6901SOL    HW121089   4.127   2.844   9.510
 6901SOL    HW221090   4.018   2.723   9.503
 6902SOL     OW21091   4.185   3.128  11.037
 6902SOL    HW121092   4.135   3.129  10.951
 6902SOL    HW221093   4.122   3.110  11.113
 6903SOL     OW21094   3.926   2.147  10.808
 6903SOL    HW121095   3.846   2.207  10.795
 6903SOL    HW221096   3.916   2.098  10.894
 6904SOL     OW21097   4.188   3.605   9.633
 6904SOL    HW121098   4.221   3.644   9.719
 6904SOL    HW221099   4.264   3.598   9.568
 6905SOL     OW21100   3.973   3.647  10.551
 6905SOL    HW121101   4.030   3.582  10.601
 6905SOL    HW221102   3.957   3.614  10.458
 6906SOL     OW21103   4.106   2.562   9.790
 6906SOL    HW121104   4.151   2.472   9.787
 6906SOL    HW221105   4.012   2.551   9.823
 6907SOL     OW21106   4.338   1.984   9.427
 6907SOL    HW121107   4.436   1.962   9.434
 6907SOL    HW221108   4.307   1.967   9.334
 6908SOL     OW21109   4.527   3.264  10.234
 6908SOL    HW121110   4.617   3.278  10.192
 6908SOL    HW221111   4.456   3.266  10.163
 6909SOL     OW21112   4.263   1.926   9.822
 6909SOL    HW121113   4.182   1.927   9.880
 6909SOL    HW221114   4.266   2.009   9.767
 6910SOL     OW21115   4.021   1.897   9.481
 6910SOL    HW121116   4.070   1.981   9.460
 6910SOL    HW221117   4.083   1.832   9.526
 6911SOL     OW21118   4.800   2.545  10.774
 6911SOL    HW121119   4.720   2.484  10.777
 6911SOL    HW221120   4.881   2.492  10.750
 6912SOL     OW21121   4.183   3.014  10.051
 6912SOL    HW121122   4.112   2.987  10.116
 6912SOL    HW221123   4.157   2.986   9.958
 6913SOL     OW21124   3.802   2.418  10.696
 6913SOL    HW121125   3.894   2.417  10.655
 6913SOL    HW221126   3.796   2.492  10.763
 6914SOL     OW21127   4.285   2.084  10.457
 6914SOL    HW121128   4.323   2.000  10.494
 6914SOL    HW221129   4.197   2.103  10.501
 6915SOL     OW21130   4.212   3.247   9.484
 6915SOL    HW121131   4.125   3.232   9.531
 6915SOL    HW221132   4.195   3.273   9.389
 6916SOL     OW21133   4.251   2.118   9.638
 6916SOL    HW121134   4.278   2.059   9.563
 6916SOL    HW221135   4.251   2.213   9.607
 6917SOL     OW21136   4.134   2.675  10.561
 6917SOL    HW121137   4.220   2.687  10.611
 6917SOL    HW221138   4.092   2.588  10.588
 6918SOL     OW21139   3.788   3.426  10.641
 6918SOL    HW121140   3.742   3.508  10.607
 6918SOL    HW221141   3.886   3.445  10.650
 6919SOL     OW21142   4.091   2.962   9.811
 6919SOL    HW121143   4.084   3.045   9.755
 6919SOL    HW221144   4.095   2.882   9.751
 6920SOL     OW21145   4.290   2.399  10.175
 6920SOL    HW121146   4.302   2.465  10.101
 6920SOL    HW221147   4.336   2.433  10.258
 6921SOL     OW21148   4.078   3.372  10.639
 6921SOL    HW121149   4.057   3.328  10.552
 6921SOL    HW221150   4.175   3.398  10.642
 6922SOL     OW21151   4.126   2.613  10.908
 6922SOL    HW121152   4.194   2.668  10.861
 6922SOL    HW221153   4.166   2.525  10.935
 6923SOL     OW21154   4.297   2.732  10.339
 6923SOL    HW121155   4.341   2.821  10.330
 6923SOL    HW221156   4.234   2.732  10.416
 6924SOL     OW21157   4.031   2.075  10.541
 6924SOL    HW121158   4.008   2.112  10.631
 6924SOL    HW221159   4.001   1.980  10.535
 6925SOL     OW21160   3.761   3.172  10.592
 6925SOL    HW121161   3.814   3.123  10.660
 6925SOL    HW221162   3.783   3.270  10.597
 6926SOL     OW21163   4.031   1.925   9.928
 6926SOL    HW121164   4.020   2.019   9.961
 6926SOL    HW221165   4.026   1.862  10.005
 6927SOL     OW21166   4.074   2.760  11.114
 6927SOL    HW121167   4.150   2.804  11.162
 6927SOL    HW221168   4.109   2.713  11.032
 6928SOL     OW21169   4.043   2.672  10.259
 6928SOL    HW121170   4.136   2.708  10.264
 6928SOL    HW221171   4.037   2.587  10.311
 6929SOL     OW21172   4.063   2.371  10.316
 6929SOL    HW121173   4.011   2.288  10.299
 6929SOL    HW221174   4.140   2.376  10.252
 6930SOL     OW21175   3.732   3.188   9.510
 6930SOL    HW121176   3.639   3.209   9.479
 6930SOL    HW221177   3.742   3.089   9.523
 6931SOL     OW21178   3.812   3.663  10.237
 6931SOL    HW121179   3.770   3.577  10.210
 6931SOL    HW221180   3.906   3.666  10.203
 6932SOL     OW21181   4.228   3.430  10.220
 6932SOL    HW121182   4.294   3.504  10.229
 6932SOL    HW221183   4.272   3.351  10.178
 6933SOL     OW21184   3.764   2.406  10.424
 6933SOL    HW121185   3.849   2.373  10.383
 6933SOL    HW221186   3.777   2.421  10.522
 6934SOL     OW21187   4.539   2.434   9.635
 6934SOL    HW121188   4.546   2.345   9.589
 6934SOL    HW221189   4.445   2.468   9.627
 6935SOL     OW21190   3.976   3.426  11.054
 6935SOL    HW121191   3.946   3.483  11.130
 6935SOL    HW221192   3.969   3.329  11.080
 6936SOL     OW21193   4.197   2.362   9.501
 6936SOL    HW121194   4.258   2.442   9.505
 6936SOL    HW221195   4.102   2.393   9.508
 6937SOL     OW21196   3.883   2.999  10.776
 6937SOL    HW121197   3.905   2.938  10.852
 6937SOL    HW221198   3.893   2.950  10.690
 6938SOL     OW21199   3.807   3.120  10.332
 6938SOL    HW121200   3.802   3.119  10.432
 6938SOL    HW221201   3.724   3.079  10.294
 6939SOL     OW21202   4.412   3.524  11.026
 6939SOL    HW121203   4.356   3.605  11.035
 6939SOL    HW221204   4.464   3.528  10.940
 6940SOL     OW21205   3.987   2.188  10.030
 6940SOL    HW121206   3.908   2.239   9.996
 6940SOL    HW221207   3.978   2.173  10.128
 6941SOL     OW21208   4.096   3.150  10.800
 6941SOL    HW121209   4.083   3.243  10.766
 6941SOL    HW221210   4.012   3.098  10.787
 6942SOL     OW21211   4.314   3.349   9.801
 6942SOL    HW121212   4.356   3.291   9.731
 6942SOL    HW221213   4.270   3.428   9.757
 6943SOL     OW21214   3.979   3.210   9.600
 6943SOL    HW121215   3.883   3.211   9.573
 6943SOL    HW221216   3.991   3.263   9.684
 6944SOL     OW21217   3.829   2.875  11.036
 6944SOL    HW121218   3.752   2.842  11.090
 6944SOL    HW221219   3.914   2.845  11.078
 6945SOL     OW21220   4.396   2.065  10.799
 6945SOL    HW121221   4.486   2.049  10.759
 6945SOL    HW221222   4.404   2.070  10.898
 6946SOL     OW21223   3.799   2.207   9.343
 6946SOL    HW121224   3.707   2.179   9.314
 6946SOL    HW221225   3.830   2.284   9.287
 6947SOL     OW21226   3.796   2.028   9.628
 6947SOL    HW121227   3.779   2.111   9.574
 6947SOL    HW221228   3.886   1.991   9.606
 6948SOL     OW21229   4.337   2.704  10.741
 6948SOL    HW121230   4.393   2.785  10.724
 6948SOL    HW221231   4.396   2.624  10.744
 6949SOL     OW21232   4.114   3.603  10.870
 6949SOL    HW121233   4.023   3.644  10.868
 6949SOL    HW221234   4.107   3.509  10.902
 6950SOL     OW21235   4.318   2.607   9.962
 6950SOL    HW121236   4.368   2.692   9.943
 6950SOL    HW221237   4.230   2.609   9.914
 6951SOL     OW21238   3.803   3.102   9.963
 6951SOL    HW121239   3.802   3.055  10.051
 6951SOL    HW221240   3.885   3.074   9.912
 6952SOL     OW21241   4.396   3.253  10.934
 6952SOL    HW121242   4.318   3.203  10.972
 6952SOL    HW221243   4.393   3.348  10.965
 6953SOL     OW21244   4.152   2.286   9.830
 6953SOL    HW121245   4.182   2.214   9.768
 6953SOL    HW221246   4.113   2.246   9.913
 6954SOL     OW21247   4.041   2.409  10.590
 6954SOL    HW121248   4.079   2.350  10.662
 6954SOL    HW221249   4.081   2.383  10.502
 6955SOL     OW21250   4.536   3.448   9.997
 6955SOL    HW121251   4.568   3.458   9.903
 6955SOL    HW221252   4.457   3.386   9.999
 6956SOL     OW21253   3.763   2.939   9.610
 6956SOL    HW121254   3.862   2.928   9.601
 6956SOL    HW221255   3.723   2.853   9.642
 6957SOL     OW21256   3.954   4.352   0.113
 6957SOL    HW121257   3.861   4.350   0.150
 6957SOL    HW221258   3.955   4.313   0.021
 6958SOL     OW21259   3.949   3.999   0.996
 6958SOL    HW121260   3.984   3.982   1.088
 6958SOL    HW221261   3.861   3.954   0.984
 6959SOL     OW21262   3.743   4.092   0.647
 6959SOL    HW121263   3.661   4.135   0.686
 6959SOL    HW221264   3.715   4.019   0.584
 6960SOL     OW21265   4.574   4.522   1.823
 6960SOL    HW121266   4.570   4.598   1.888
 6960SOL    HW221267   4.596   4.558   1.732
 6961SOL     OW21268   4.162   4.116   1.499
 6961SOL    HW121269   4.244   4.060   1.508
 6961SOL    HW221270   4.081   4.058   1.503
 6962SOL     OW21271   3.846   4.367   0.563
 6962SOL    HW121272   3.801   4.279   0.580
 6962SOL    HW221273   3.845   4.421   0.647
 6963SOL     OW21274   3.837   4.461   1.597
 6963SOL    HW121275   3.925   4.448   1.642
 6963SOL    HW221276   3.824   4.558   1.575
 6964SOL     OW21277   4.533   3.728   0.502
 6964SOL    HW121278   4.573   3.819   0.493
 6964SOL    HW221279   4.433   3.736   0.508
 6965SOL     OW21280   4.041   3.975   1.801
 6965SOL    HW121281   4.112   4.046   1.807
 6965SOL    HW221282   3.953   4.014   1.829
 6966SOL     OW21283   4.274   3.920   0.885
 6966SOL    HW121284   4.269   3.915   0.985
 6966SOL    HW221285   4.276   4.016   0.856
 6967SOL     OW21286   3.926   4.009   1.498
 6967SOL    HW121287   3.846   4.069   1.485
 6967SOL    HW221288   3.916   3.960   1.584
 6968SOL     OW21289   4.106   4.424   0.480
 6968SOL    HW121290   4.151   4.334   0.477
 6968SOL    HW221291   4.012   4.413   0.513
 6969SOL     OW21292   4.338   3.846   0.117
 6969SOL    HW121293   4.436   3.824   0.124
 6969SOL    HW221294   4.307   3.829   0.024
 6970SOL     OW21295   4.263   3.788   0.512
 6970SOL    HW121296   4.182   3.789   0.570
 6970SOL    HW221297   4.266   3.871   0.457
 6971SOL     OW21298   4.021   3.759   0.171
 6971SOL    HW121299   4.070   3.843   0.150
 6971SOL    HW221300   4.083   3.694   0.216
 6972SOL     OW21301   4.800   4.407   1.464
 6972SOL    HW121302   4.720   4.346   1.467
 6972SOL    HW221303   4.881   4.354   1.440
 6973SOL     OW21304   3.802   4.280   1.386
 6973SOL    HW121305   3.894   4.279   1.345
 6973SOL    HW221306   3.796   4.354   1.453
 6974SOL     OW21307   4.285   3.946   1.147
 6974SOL    HW121308   4.323   3.862   1.184
 6974SOL    HW221309   4.197   3.965   1.191
 6975SOL     OW21310   4.251   3.980   0.328
 6975SOL    HW121311   4.278   3.921   0.253
 6975SOL    HW221312   4.251   4.075   0.297
 6976SOL     OW21313   4.134   4.537   1.251
 6976SOL    HW121314   4.220   4.549   1.301
 6976SOL    HW221315   4.092   4.450   1.278
 6977SOL     OW21316   4.290   4.261   0.865
 6977SOL    HW121317   4.302   4.327   0.791
 6977SOL    HW221318   4.336   4.295   0.948
 6978SOL     OW21319   4.228   3.774   1.740
 6978SOL    HW121320   4.186   3.717   1.670
 6978SOL    HW221321   4.162   3.843   1.772
 6979SOL     OW21322   4.031   3.937   1.231
 6979SOL    HW121323   4.008   3.974   1.321
 6979SOL    HW221324   4.001   3.842   1.225
 6980SOL     OW21325   4.031   3.787   0.618
 6980SOL    HW121326   4.020   3.881   0.651
 6980SOL    HW221327   4.026   3.724   0.695
 6981SOL     OW21328   4.043   4.534   0.949
 6981SOL    HW121329   4.136   4.570   0.954
 6981SOL    HW221330   4.037   4.449   1.001
 6982SOL     OW21331   4.063   4.233   1.006
 6982SOL    HW121332   4.011   4.150   0.989
 6982SOL    HW221333   4.140   4.238   0.942
 6983SOL     OW21334   3.764   4.268   1.114
 6983SOL    HW121335   3.849   4.235   1.073
 6983SOL    HW221336   3.777   4.283   1.212
 6984SOL     OW21337   3.913   4.244   1.722
 6984SOL    HW121338   3.972   4.204   1.652
 6984SOL    HW221339   3.855   4.315   1.681
 6985SOL     OW21340   4.539   4.296   0.325
 6985SOL    HW121341   4.546   4.207   0.279
 6985SOL    HW221342   4.445   4.330   0.317
 6986SOL     OW21343   4.197   4.224   0.191
 6986SOL    HW121344   4.258   4.304   0.195
 6986SOL    HW221345   4.102   4.255   0.198
 6987SOL     OW21346   3.987   4.050   0.720
 6987SOL    HW121347   3.908   4.101   0.686
 6987SOL    HW221348   3.978   4.035   0.818
 6988SOL     OW21349   4.396   3.927   1.489
 6988SOL    HW121350   4.486   3.911   1.449
 6988SOL    HW221351   4.404   3.932   1.588
 6989SOL     OW21352   3.799   4.069   0.033
 6989SOL    HW121353   3.707   4.041   0.004
 6989SOL    HW221354   3.830   4.146  -0.023
 6990SOL     OW21355   3.796   3.890   0.318
 6990SOL    HW121356   3.779   3.973   0.264
 6990SOL    HW221357   3.886   3.853   0.296
 6991SOL     OW21358   4.440   4.289   1.708
 6991SOL    HW121359   4.459   4.354   1.782
 6991SOL    HW221360   4.500   4.209   1.717
 6992SOL     OW21361   4.152   4.148   0.520
 6992SOL    HW121362   4.182   4.076   0.458
 6992SOL    HW221363   4.113   4.108   0.603
 6993SOL     OW21364   4.041   4.271   1.280
 6993SOL    HW121365   4.079   4.212   1.352
 6993SOL    HW221366   4.081   4.245   1.192
 6994SOL     OW21367   3.954   4.352   1.975
 6994SOL    HW121368   3.861   4.350   2.012
 6994SOL    HW221369   3.955   4.313   1.883
 6995SOL     OW21370   3.949   3.999   2.858
 6995SOL    HW121371   3.984   3.982   2.950
 6995SOL    HW221372   3.861   3.954   2.846
 6996SOL     OW21373   3.743   4.092   2.509
 6996SOL    HW121374   3.661   4.135   2.548
 6996SOL    HW221375   3.715   4.019   2.446
 6997SOL     OW21376   4.574   4.522   3.685
 6997SOL    HW121377   4.570   4.598   3.750
 6997SOL    HW221378   4.596   4.558   3.594
 6998SOL     OW21379   4.162   4.116   3.361
 6998SOL    HW121380   4.244   4.060   3.370
 6998SOL    HW221381   4.081   4.058   3.365
 6999SOL     OW21382   3.846   4.367   2.425
 6999SOL    HW121383   3.801   4.279   2.442
 6999SOL    HW221384   3.845   4.421   2.509
 7000SOL     OW21385   3.837   4.461   3.459
 7000SOL    HW121386   3.925   4.448   3.504
 7000SOL    HW221387   3.824   4.558   3.437
 7001SOL     OW21388   4.533   3.728   2.364
 7001SOL    HW121389   4.573   3.819   2.355
 7001SOL    HW221390   4.433   3.736   2.370
 7002SOL     OW21391   4.041   3.975   3.663
 7002SOL    HW121392   4.112   4.046   3.669
 7002SOL    HW221393   3.953   4.014   3.691
 7003SOL     OW21394   4.274   3.920   2.747
 7003SOL    HW121395   4.269   3.915   2.847
 7003SOL    HW221396   4.276   4.016   2.718
 7004SOL     OW21397   3.926   4.009   3.360
 7004SOL    HW121398   3.846   4.069   3.347
 7004SOL    HW221399   3.916   3.960   3.446
 7005SOL     OW21400   4.106   4.424   2.342
 7005SOL    HW121401   4.151   4.334   2.339
 7005SOL    HW221402   4.012   4.413   2.375
 7006SOL     OW21403   4.338   3.846   1.979
 7006SOL    HW121404   4.436   3.824   1.986
 7006SOL    HW221405   4.307   3.829   1.886
 7007SOL     OW21406   4.263   3.788   2.374
 7007SOL    HW121407   4.182   3.789   2.432
 7007SOL    HW221408   4.266   3.871   2.319
 7008SOL     OW21409   4.021   3.759   2.033
 7008SOL    HW121410   4.070   3.843   2.012
 7008SOL    HW221411   4.083   3.694   2.078
 7009SOL     OW21412   4.800   4.407   3.326
 7009SOL    HW121413   4.720   4.346   3.329
 7009SOL    HW221414   4.881   4.354   3.302
 7010SOL     OW21415   3.802   4.280   3.248
 7010SOL    HW121416   3.894   4.279   3.207
 7010SOL    HW221417   3.796   4.354   3.315
 7011SOL     OW21418   4.285   3.946   3.009
 7011SOL    HW121419   4.323   3.862   3.046
 7011SOL    HW221420   4.197   3.965   3.053
 7012SOL     OW21421   4.251   3.980   2.190
 7012SOL    HW121422   4.278   3.921   2.115
 7012SOL    HW221423   4.251   4.075   2.159
 7013SOL     OW21424   4.134   4.537   3.113
 7013SOL    HW121425   4.220   4.549   3.163
 7013SOL    HW221426   4.092   4.450   3.140
 7014SOL     OW21427   4.290   4.261   2.727
 7014SOL    HW121428   4.302   4.327   2.653
 7014SOL    HW221429   4.336   4.295   2.810
 7015SOL     OW21430   4.228   3.774   3.602
 7015SOL    HW121431   4.186   3.717   3.532
 7015SOL    HW221432   4.162   3.843   3.634
 7016SOL     OW21433   4.031   3.937   3.093
 7016SOL    HW121434   4.008   3.974   3.183
 7016SOL    HW221435   4.001   3.842   3.087
 7017SOL     OW21436   4.031   3.787   2.480
 7017SOL    HW121437   4.020   3.881   2.513
 7017SOL    HW221438   4.026   3.724   2.557
 7018SOL     OW21439   4.043   4.534   2.811
 7018SOL    HW121440   4.136   4.570   2.816
 7018SOL    HW221441   4.037   4.449   2.863
 7019SOL     OW21442   4.063   4.233   2.868
 7019SOL    HW121443   4.011   4.150   2.851
 7019SOL    HW221444   4.140   4.238   2.804
 7020SOL     OW21445   3.764   4.268   2.976
 7020SOL    HW121446   3.849   4.235   2.935
 7020SOL    HW221447   3.777   4.283   3.074
 7021SOL     OW21448   3.913   4.244   3.584
 7021SOL    HW121449   3.972   4.204   3.514
 7021SOL    HW221450   3.855   4.315   3.543
 7022SOL     OW21451   4.539   4.296   2.187
 7022SOL    HW121452   4.546   4.207   2.141
 7022SOL    HW221453   4.445   4.330   2.179
 7023SOL     OW21454   4.197   4.224   2.053
 7023SOL    HW121455   4.258   4.304   2.057
 7023SOL    HW221456   4.102   4.255   2.060
 7024SOL     OW21457   3.987   4.050   2.582
 7024SOL    HW121458   3.908   4.101   2.548
 7024SOL    HW221459   3.978   4.035   2.680
 7025SOL     OW21460   4.396   3.927   3.351
 7025SOL    HW121461   4.486   3.911   3.311
 7025SOL    HW221462   4.404   3.932   3.450
 7026SOL     OW21463   3.799   4.069   1.895
 7026SOL    HW121464   3.707   4.041   1.866
 7026SOL    HW221465   3.830   4.146   1.839
 7027SOL     OW21466   3.796   3.890   2.180
 7027SOL    HW121467   3.779   3.973   2.126
 7027SOL    HW221468   3.886   3.853   2.158
 7028SOL     OW21469   4.440   4.289   3.570
 7028SOL    HW121470   4.459   4.354   3.644
 7028SOL    HW221471   4.500   4.209   3.579
 7029SOL     OW21472   4.152   4.148   2.382
 7029SOL    HW121473   4.182   4.076   2.320
 7029SOL    HW221474   4.113   4.108   2.465
 7030SOL     OW21475   4.041   4.271   3.142
 7030SOL    HW121476   4.079   4.212   3.214
 7030SOL    HW221477   4.081   4.245   3.054
 7031SOL     OW21478   3.954   4.352   3.837
 7031SOL    HW121479   3.861   4.350   3.874
 7031SOL    HW221480   3.955   4.313   3.745
 7032SOL     OW21481   3.949   3.999   4.720
 7032SOL    HW121482   3.984   3.982   4.812
 7032SOL    HW221483   3.861   3.954   4.708
 7033SOL     OW21484   3.743   4.092   4.371
 7033SOL    HW121485   3.661   4.135   4.410
 7033SOL    HW221486   3.715   4.019   4.308
 7034SOL     OW21487   4.574   4.522   5.547
 7034SOL    HW121488   4.570   4.598   5.612
 7034SOL    HW221489   4.596   4.558   5.456
 7035SOL     OW21490   4.162   4.116   5.223
 7035SOL    HW121491   4.244   4.060   5.232
 7035SOL    HW221492   4.081   4.058   5.227
 7036SOL     OW21493   3.846   4.367   4.287
 7036SOL    HW121494   3.801   4.279   4.304
 7036SOL    HW221495   3.845   4.421   4.371
 7037SOL     OW21496   3.837   4.461   5.321
 7037SOL    HW121497   3.925   4.448   5.366
 7037SOL    HW221498   3.824   4.558   5.299
 7038SOL     OW21499   4.533   3.728   4.226
 7038SOL    HW121500   4.573   3.819   4.217
 7038SOL    HW221501   4.433   3.736   4.232
 7039SOL     OW21502   4.041   3.975   5.525
 7039SOL    HW121503   4.112   4.046   5.531
 7039SOL    HW221504   3.953   4.014   5.553
 7040SOL     OW21505   4.274   3.920   4.609
 7040SOL    HW121506   4.269   3.915   4.709
 7040SOL    HW221507   4.276   4.016   4.580
 7041SOL     OW21508   3.926   4.009   5.222
 7041SOL    HW121509   3.846   4.069   5.209
 7041SOL    HW221510   3.916   3.960   5.308
 7042SOL     OW21511   4.106   4.424   4.204
 7042SOL    HW121512   4.151   4.334   4.201
 7042SOL    HW221513   4.012   4.413   4.237
 7043SOL     OW21514   4.338   3.846   3.841
 7043SOL    HW121515   4.436   3.824   3.848
 7043SOL    HW221516   4.307   3.829   3.748
 7044SOL     OW21517   4.263   3.788   4.236
 7044SOL    HW121518   4.182   3.789   4.294
 7044SOL    HW221519   4.266   3.871   4.181
 7045SOL     OW21520   4.021   3.759   3.895
 7045SOL    HW121521   4.070   3.843   3.874
 7045SOL    HW221522   4.083   3.694   3.940
 7046SOL     OW21523   4.800   4.407   5.188
 7046SOL    HW121524   4.720   4.346   5.191
 7046SOL    HW221525   4.881   4.354   5.164
 7047SOL     OW21526   3.802   4.280   5.110
 7047SOL    HW121527   3.894   4.279   5.069
 7047SOL    HW221528   3.796   4.354   5.177
 7048SOL     OW21529   4.285   3.946   4.871
 7048SOL    HW121530   4.323   3.862   4.908
 7048SOL    HW221531   4.197   3.965   4.915
 7049SOL     OW21532   4.251   3.980   4.052
 7049SOL    HW121533   4.278   3.921   3.977
 7049SOL    HW221534   4.251   4.075   4.021
 7050SOL     OW21535   4.134   4.537   4.975
 7050SOL    HW121536   4.220   4.549   5.025
 7050SOL    HW221537   4.092   4.450   5.002
 7051SOL     OW21538   4.290   4.261   4.589
 7051SOL    HW121539   4.302   4.327   4.515
 7051SOL    HW221540   4.336   4.295   4.672
 7052SOL     OW21541   4.228   3.774   5.464
 7052SOL    HW121542   4.186   3.717   5.394
 7052SOL    HW221543   4.162   3.843   5.496
 7053SOL     OW21544   4.031   3.937   4.955
 7053SOL    HW121545   4.008   3.974   5.045
 7053SOL    HW221546   4.001   3.842   4.949
 7054SOL     OW21547   4.031   3.787   4.342
 7054SOL    HW121548   4.020   3.881   4.375
 7054SOL    HW221549   4.026   3.724   4.419
 7055SOL     OW21550   4.043   4.534   4.673
 7055SOL    HW121551   4.136   4.570   4.678
 7055SOL    HW221552   4.037   4.449   4.725
 7056SOL     OW21553   4.063   4.233   4.730
 7056SOL    HW121554   4.011   4.150   4.713
 7056SOL    HW221555   4.140   4.238   4.666
 7057SOL     OW21556   3.764   4.268   4.838
 7057SOL    HW121557   3.849   4.235   4.797
 7057SOL    HW221558   3.777   4.283   4.936
 7058SOL     OW21559   3.913   4.244   5.446
 7058SOL    HW121560   3.972   4.204   5.376
 7058SOL    HW221561   3.855   4.315   5.405
 7059SOL     OW21562   4.539   4.296   4.049
 7059SOL    HW121563   4.546   4.207   4.003
 7059SOL    HW221564   4.445   4.330   4.041
 7060SOL     OW21565   4.197   4.224   3.915
 7060SOL    HW121566   4.258   4.304   3.919
 7060SOL    HW221567   4.102   4.255   3.922
 7061SOL     OW21568   3.987   4.050   4.444
 7061SOL    HW121569   3.908   4.101   4.410
 7061SOL    HW221570   3.978   4.035   4.542
 7062SOL     OW21571   4.396   3.927   5.213
 7062SOL    HW121572   4.486   3.911   5.173
 7062SOL    HW221573   4.404   3.932   5.312
 7063SOL     OW21574   3.799   4.069   3.757
 7063SOL    HW121575   3.707   4.041   3.728
 7063SOL    HW221576   3.830   4.146   3.701
 7064SOL     OW21577   3.796   3.890   4.042
 7064SOL    HW121578   3.779   3.973   3.988
 7064SOL    HW221579   3.886   3.853   4.020
 7065SOL     OW21580   4.440   4.289   5.432
 7065SOL    HW121581   4.459   4.354   5.506
 7065SOL    HW221582   4.500   4.209   5.441
 7066SOL     OW21583   4.152   4.148   4.244
 7066SOL    HW121584   4.182   4.076   4.182
 7066SOL    HW221585   4.113   4.108   4.327
 7067SOL     OW21586   4.041   4.271   5.004
 7067SOL    HW121587   4.079   4.212   5.076
 7067SOL    HW221588   4.081   4.245   4.916
 7068SOL     OW21589   3.954   4.352   5.699
 7068SOL    HW121590   3.861   4.350   5.736
 7068SOL    HW221591   3.955   4.313   5.607
 7069SOL     OW21592   3.949   3.999   6.582
 7069SOL    HW121593   3.984   3.982   6.674
 7069SOL    HW221594   3.861   3.954   6.570
 7070SOL     OW21595   3.743   4.092   6.233
 7070SOL    HW121596   3.661   4.135   6.272
 7070SOL    HW221597   3.715   4.019   6.170
 7071SOL     OW21598   4.574   4.522   7.409
 7071SOL    HW121599   4.570   4.598   7.474
 7071SOL    HW221600   4.596   4.558   7.318
 7072SOL     OW21601   4.162   4.116   7.085
 7072SOL    HW121602   4.244   4.060   7.094
 7072SOL    HW221603   4.081   4.058   7.089
 7073SOL     OW21604   3.846   4.367   6.149
 7073SOL    HW121605   3.801   4.279   6.166
 7073SOL    HW221606   3.845   4.421   6.233
 7074SOL     OW21607   3.837   4.461   7.183
 7074SOL    HW121608   3.925   4.448   7.228
 7074SOL    HW221609   3.824   4.558   7.161
 7075SOL     OW21610   4.533   3.728   6.088
 7075SOL    HW121611   4.573   3.819   6.079
 7075SOL    HW221612   4.433   3.736   6.094
 7076SOL     OW21613   4.041   3.975   7.387
 7076SOL    HW121614   4.112   4.046   7.393
 7076SOL    HW221615   3.953   4.014   7.415
 7077SOL     OW21616   4.274   3.920   6.471
 7077SOL    HW121617   4.269   3.915   6.571
 7077SOL    HW221618   4.276   4.016   6.442
 7078SOL     OW21619   3.926   4.009   7.084
 7078SOL    HW121620   3.846   4.069   7.071
 7078SOL    HW221621   3.916   3.960   7.170
 7079SOL     OW21622   4.106   4.424   6.066
 7079SOL    HW121623   4.151   4.334   6.063
 7079SOL    HW221624   4.012   4.413   6.099
 7080SOL     OW21625   4.338   3.846   5.703
 7080SOL    HW121626   4.436   3.824   5.710
 7080SOL    HW221627   4.307   3.829   5.610
 7081SOL     OW21628   4.263   3.788   6.098
 7081SOL    HW121629   4.182   3.789   6.156
 7081SOL    HW221630   4.266   3.871   6.043
 7082SOL     OW21631   4.021   3.759   5.757
 7082SOL    HW121632   4.070   3.843   5.736
 7082SOL    HW221633   4.083   3.694   5.802
 7083SOL     OW21634   4.800   4.407   7.050
 7083SOL    HW121635   4.720   4.346   7.053
 7083SOL    HW221636   4.881   4.354   7.026
 7084SOL     OW21637   3.802   4.280   6.972
 7084SOL    HW121638   3.894   4.279   6.931
 7084SOL    HW221639   3.796   4.354   7.039
 7085SOL     OW21640   4.285   3.946   6.733
 7085SOL    HW121641   4.323   3.862   6.770
 7085SOL    HW221642   4.197   3.965   6.777
 7086SOL     OW21643   4.251   3.980   5.914
 7086SOL    HW121644   4.278   3.921   5.839
 7086SOL    HW221645   4.251   4.075   5.883
 7087SOL     OW21646   4.134   4.537   6.837
 7087SOL    HW121647   4.220   4.549   6.887
 7087SOL    HW221648   4.092   4.450   6.864
 7088SOL     OW21649   4.290   4.261   6.451
 7088SOL    HW121650   4.302   4.327   6.377
 7088SOL    HW221651   4.336   4.295   6.534
 7089SOL     OW21652   4.228   3.774   7.326
 7089SOL    HW121653   4.186   3.717   7.256
 7089SOL    HW221654   4.162   3.843   7.358
 7090SOL     OW21655   4.031   3.937   6.817
 7090SOL    HW121656   4.008   3.974   6.907
 7090SOL    HW221657   4.001   3.842   6.811
 7091SOL     OW21658   4.031   3.787   6.204
 7091SOL    HW121659   4.020   3.881   6.237
 7091SOL    HW221660   4.026   3.724   6.281
 7092SOL     OW21661   4.043   4.534   6.535
 7092SOL    HW121662   4.136   4.570   6.540
 7092SOL    HW221663   4.037   4.449   6.587
 7093SOL     OW21664   4.063   4.233   6.592
 7093SOL    HW121665   4.011   4.150   6.575
 7093SOL    HW221666   4.140   4.238   6.528
 7094SOL     OW21667   3.764   4.268   6.700
 7094SOL    HW121668   3.849   4.235   6.659
 7094SOL    HW221669   3.777   4.283   6.798
 7095SOL     OW21670   3.913   4.244   7.308
 7095SOL    HW121671   3.972   4.204   7.238
 7095SOL    HW221672   3.855   4.315   7.267
 7096SOL     OW21673   4.539   4.296   5.911
 7096SOL    HW121674   4.546   4.207   5.865
 7096SOL    HW221675   4.445   4.330   5.903
 7097SOL     OW21676   4.197   4.224   5.777
 7097SOL    HW121677   4.258   4.304   5.781
 7097SOL    HW221678   4.102   4.255   5.784
 7098SOL     OW21679   3.987   4.050   6.306
 7098SOL    HW121680   3.908   4.101   6.272
 7098SOL    HW221681   3.978   4.035   6.404
 7099SOL     OW21682   4.396   3.927   7.075
 7099SOL    HW121683   4.486   3.911   7.035
 7099SOL    HW221684   4.404   3.932   7.174
 7100SOL     OW21685   3.799   4.069   5.619
 7100SOL    HW121686   3.707   4.041   5.590
 7100SOL    HW221687   3.830   4.146   5.563
 7101SOL     OW21688   3.796   3.890   5.904
 7101SOL    HW121689   3.779   3.973   5.850
 7101SOL    HW221690   3.886   3.853   5.882
 7102SOL     OW21691   4.440   4.289   7.294
 7102SOL    HW121692   4.459   4.354   7.368
 7102SOL    HW221693   4.500   4.209   7.303
 7103SOL     OW21694   4.152   4.148   6.106
 7103SOL    HW121695   4.182   4.076   6.044
 7103SOL    HW221696   4.113   4.108   6.189
 7104SOL     OW21697   4.041   4.271   6.866
 7104SOL    HW121698   4.079   4.212   6.938
 7104SOL    HW221699   4.081   4.245   6.778
 7105SOL     OW21700   3.954   4.352   7.561
 7105SOL    HW121701   3.861   4.350   7.598
 7105SOL    HW221702   3.955   4.313   7.469
 7106SOL     OW21703   3.949   3.999   8.444
 7106SOL    HW121704   3.984   3.982   8.536
 7106SOL    HW221705   3.861   3.954   8.432
 7107SOL     OW21706   3.743   4.092   8.095
 7107SOL    HW121707   3.661   4.135   8.134
 7107SOL    HW221708   3.715   4.019   8.032
 7108SOL     OW21709   4.574   4.522   9.271
 7108SOL    HW121710   4.570   4.598   9.336
 7108SOL    HW221711   4.596   4.558   9.180
 7109SOL     OW21712   4.162   4.116   8.947
 7109SOL    HW121713   4.244   4.060   8.956
 7109SOL    HW221714   4.081   4.058   8.951
 7110SOL     OW21715   3.846   4.367   8.011
 7110SOL    HW121716   3.801   4.279   8.028
 7110SOL    HW221717   3.845   4.421   8.095
 7111SOL     OW21718   3.837   4.461   9.045
 7111SOL    HW121719   3.925   4.448   9.090
 7111SOL    HW221720   3.824   4.558   9.023
 7112SOL     OW21721   4.533   3.728   7.950
 7112SOL    HW121722   4.573   3.819   7.941
 7112SOL    HW221723   4.433   3.736   7.956
 7113SOL     OW21724   4.041   3.975   9.249
 7113SOL    HW121725   4.112   4.046   9.255
 7113SOL    HW221726   3.953   4.014   9.277
 7114SOL     OW21727   4.274   3.920   8.333
 7114SOL    HW121728   4.269   3.915   8.433
 7114SOL    HW221729   4.276   4.016   8.304
 7115SOL     OW21730   3.926   4.009   8.946
 7115SOL    HW121731   3.846   4.069   8.933
 7115SOL    HW221732   3.916   3.960   9.032
 7116SOL     OW21733   4.106   4.424   7.928
 7116SOL    HW121734   4.151   4.334   7.925
 7116SOL    HW221735   4.012   4.413   7.961
 7117SOL     OW21736   4.338   3.846   7.565
 7117SOL    HW121737   4.436   3.824   7.572
 7117SOL    HW221738   4.307   3.829   7.472
 7118SOL     OW21739   4.263   3.788   7.960
 7118SOL    HW121740   4.182   3.789   8.018
 7118SOL    HW221741   4.266   3.871   7.905
 7119SOL     OW21742   4.021   3.759   7.619
 7119SOL    HW121743   4.070   3.843   7.598
 7119SOL    HW221744   4.083   3.694   7.664
 7120SOL     OW21745   4.800   4.407   8.912
 7120SOL    HW121746   4.720   4.346   8.915
 7120SOL    HW221747   4.881   4.354   8.888
 7121SOL     OW21748   3.802   4.280   8.834
 7121SOL    HW121749   3.894   4.279   8.793
 7121SOL    HW221750   3.796   4.354   8.901
 7122SOL     OW21751   4.285   3.946   8.595
 7122SOL    HW121752   4.323   3.862   8.632
 7122SOL    HW221753   4.197   3.965   8.639
 7123SOL     OW21754   4.251   3.980   7.776
 7123SOL    HW121755   4.278   3.921   7.701
 7123SOL    HW221756   4.251   4.075   7.745
 7124SOL     OW21757   4.134   4.537   8.699
 7124SOL    HW121758   4.220   4.549   8.749
 7124SOL    HW221759   4.092   4.450   8.726
 7125SOL     OW21760   4.290   4.261   8.313
 7125SOL    HW121761   4.302   4.327   8.239
 7125SOL    HW221762   4.336   4.295   8.396
 7126SOL     OW21763   4.228   3.774   9.188
 7126SOL    HW121764   4.186   3.717   9.118
 7126SOL    HW221765   4.162   3.843   9.220
 7127SOL     OW21766   4.031   3.937   8.679
 7127SOL    HW121767   4.008   3.974   8.769
 7127SOL    HW221768   4.001   3.842   8.673
 7128SOL     OW21769   4.031   3.787   8.066
 7128SOL    HW121770   4.020   3.881   8.099
 7128SOL    HW221771   4.026   3.724   8.143
 7129SOL     OW21772   4.043   4.534   8.397
 7129SOL    HW121773   4.136   4.570   8.402
 7129SOL    HW221774   4.037   4.449   8.449
 7130SOL     OW21775   4.063   4.233   8.454
 7130SOL    HW121776   4.011   4.150   8.437
 7130SOL    HW221777   4.140   4.238   8.390
 7131SOL     OW21778   3.764   4.268   8.562
 7131SOL    HW121779   3.849   4.235   8.521
 7131SOL    HW221780   3.777   4.283   8.660
 7132SOL     OW21781   3.913   4.244   9.170
 7132SOL    HW121782   3.972   4.204   9.100
 7132SOL    HW221783   3.855   4.315   9.129
 7133SOL     OW21784   4.539   4.296   7.773
 7133SOL    HW121785   4.546   4.207   7.727
 7133SOL    HW221786   4.445   4.330   7.765
 7134SOL     OW21787   4.197   4.224   7.639
 7134SOL    HW121788   4.258   4.304   7.643
 7134SOL    HW221789   4.102   4.255   7.646
 7135SOL     OW21790   3.987   4.050   8.168
 7135SOL    HW121791   3.908   4.101   8.134
 7135SOL    HW221792   3.978   4.035   8.266
 7136SOL     OW21793   4.396   3.927   8.937
 7136SOL    HW121794   4.486   3.911   8.897
 7136SOL    HW221795   4.404   3.932   9.036
 7137SOL     OW21796   3.799   4.069   7.481
 7137SOL    HW121797   3.707   4.041   7.452
 7137SOL    HW221798   3.830   4.146   7.425
 7138SOL     OW21799   3.796   3.890   7.766
 7138SOL    HW121800   3.779   3.973   7.712
 7138SOL    HW221801   3.886   3.853   7.744
 7139SOL     OW21802   4.440   4.289   9.156
 7139SOL    HW121803   4.459   4.354   9.230
 7139SOL    HW221804   4.500   4.209   9.165
 7140SOL     OW21805   4.152   4.148   7.968
 7140SOL    HW121806   4.182   4.076   7.906
 7140SOL    HW221807   4.113   4.108   8.051
 7141SOL     OW21808   4.041   4.271   8.728
 7141SOL    HW121809   4.079   4.212   8.800
 7141SOL    HW221810   4.081   4.245   8.640
 7142SOL     OW21811   3.954   4.352   9.423
 7142SOL    HW121812   3.861   4.350   9.460
 7142SOL    HW221813   3.955   4.313   9.331
 7143SOL     OW21814   3.949   3.999  10.306
 7143SOL    HW121815   3.984   3.982  10.398
 7143SOL    HW221816   3.861   3.954  10.294
 7144SOL     OW21817   3.743   4.092   9.957
 7144SOL    HW121818   3.661   4.135   9.996
 7144SOL    HW221819   3.715   4.019   9.894
 7145SOL     OW21820   4.162   4.116  10.809
 7145SOL    HW121821   4.244   4.060  10.818
 7145SOL    HW221822   4.081   4.058  10.813
 7146SOL     OW21823   3.846   4.367   9.873
 7146SOL    HW121824   3.801   4.279   9.890
 7146SOL    HW221825   3.845   4.421   9.957
 7147SOL     OW21826   3.837   4.461  10.907
 7147SOL    HW121827   3.925   4.448  10.952
 7147SOL    HW221828   3.824   4.558  10.885
 7148SOL     OW21829   4.533   3.728   9.812
 7148SOL    HW121830   4.573   3.819   9.803
 7148SOL    HW221831   4.433   3.736   9.818
 7149SOL     OW21832   4.041   3.975  11.111
 7149SOL    HW121833   4.112   4.046  11.117
 7149SOL    HW221834   3.953   4.014  11.139
 7150SOL     OW21835   4.274   3.920  10.195
 7150SOL    HW121836   4.269   3.915  10.295
 7150SOL    HW221837   4.276   4.016  10.166
 7151SOL     OW21838   3.926   4.009  10.808
 7151SOL    HW121839   3.846   4.069  10.795
 7151SOL    HW221840   3.916   3.960  10.894
 7152SOL     OW21841   4.106   4.424   9.790
 7152SOL    HW121842   4.151   4.334   9.787
 7152SOL    HW221843   4.012   4.413   9.823
 7153SOL     OW21844   4.338   3.846   9.427
 7153SOL    HW121845   4.436   3.824   9.434
 7153SOL    HW221846   4.307   3.829   9.334
 7154SOL     OW21847   4.263   3.788   9.822
 7154SOL    HW121848   4.182   3.789   9.880
 7154SOL    HW221849   4.266   3.871   9.767
 7155SOL     OW21850   4.021   3.759   9.481
 7155SOL    HW121851   4.070   3.843   9.460
 7155SOL    HW221852   4.083   3.694   9.526
 7156SOL     OW21853   4.800   4.407  10.774
 7156SOL    HW121854   4.720   4.346  10.777
 7156SOL    HW221855   4.881   4.354  10.750
 7157SOL     OW21856   3.802   4.280  10.696
 7157SOL    HW121857   3.894   4.279  10.655
 7157SOL    HW221858   3.796   4.354  10.763
 7158SOL     OW21859   4.285   3.946  10.457
 7158SOL    HW121860   4.323   3.862  10.494
 7158SOL    HW221861   4.197   3.965  10.501
 7159SOL     OW21862   4.251   3.980   9.638
 7159SOL    HW121863   4.278   3.921   9.563
 7159SOL    HW221864   4.251   4.075   9.607
 7160SOL     OW21865   4.134   4.537  10.561
 7160SOL    HW121866   4.220   4.549  10.611
 7160SOL    HW221867   4.092   4.450  10.588
 7161SOL     OW21868   4.290   4.261  10.175
 7161SOL    HW121869   4.302   4.327  10.101
 7161SOL    HW221870   4.336   4.295  10.258
 7162SOL     OW21871   4.126   4.475  10.908
 7162SOL    HW121872   4.194   4.530  10.861
 7162SOL    HW221873   4.166   4.387  10.935
 7163SOL     OW21874   4.031   3.937  10.541
 7163SOL    HW121875   4.008   3.974  10.631
 7163SOL    HW221876   4.001   3.842  10.535
 7164SOL     OW21877   4.031   3.787   9.928
 7164SOL    HW121878   4.020   3.881   9.961
 7164SOL    HW221879   4.026   3.724  10.005
 7165SOL     OW21880   4.043   4.534  10.259
 7165SOL    HW121881   4.136   4.570  10.264
 7165SOL    HW221882   4.037   4.449  10.311
 7166SOL     OW21883   4.063   4.233  10.316
 7166SOL    HW121884   4.011   4.150  10.299
 7166SOL    HW221885   4.140   4.238  10.252
 7167SOL     OW21886   3.764   4.268  10.424
 7167SOL    HW121887   3.849   4.235  10.383
 7167SOL    HW221888   3.777   4.283  10.522
 7168SOL     OW21889   4.539   4.296   9.635
 7168SOL    HW121890   4.546   4.207   9.589
 7168SOL    HW221891   4.445   4.330   9.627
 7169SOL     OW21892   4.197   4.224   9.501
 7169SOL    HW121893   4.258   4.304   9.505
 7169SOL    HW221894   4.102   4.255   9.508
 7170SOL     OW21895   3.987   4.050  10.030
 7170SOL    HW121896   3.908   4.101   9.996
 7170SOL    HW221897   3.978   4.035  10.128
 7171SOL     OW21898   4.396   3.927  10.799
 7171SOL    HW121899   4.486   3.911  10.759
 7171SOL    HW221900   4.404   3.932  10.898
 7172SOL     OW21901   3.799   4.069   9.343
 7172SOL    HW121902   3.707   4.041   9.314
 7172SOL    HW221903   3.830   4.146   9.287
 7173SOL     OW21904   3.796   3.890   9.628
 7173SOL    HW121905   3.779   3.973   9.574
 7173SOL    HW221906   3.886   3.853   9.606
 7174SOL     OW21907   4.152   4.148   9.830
 7174SOL    HW121908   4.182   4.076   9.768
 7174SOL    HW221909   4.113   4.108   9.913
 7175SOL     OW21910   4.041   4.271  10.590
 7175SOL    HW121911   4.079   4.212  10.662
 7175SOL    HW221912   4.081   4.245  10.502
   4.50000   4.50000  11.10000
