2gCDOH_2PEG_l8
22236
    1LIG      O    1   2.820   2.905   8.073
    1LIG      C    2   2.808   2.893   0.134
    1LIG     C1    3   2.900   2.777   0.184
    1LIG     O1    4   2.830   2.701   0.280
    1LIG     C2    5   2.854   2.746   0.411
    1LIG     C3    6   2.757   2.863   0.448
    1LIG     O2    7   2.779   2.906   0.583
    1LIG     C4    8   2.723   2.815   0.679
    1LIG     C5    9   2.828   2.700   0.710
    1LIG     O3   10   2.816   2.646   0.838
    1LIG     C6   11   2.889   2.714   0.937
    1LIG     C7   12   2.810   2.842   0.975
    1LIG     O4   13   2.851   2.894   1.099
    1LIG     C8   14   2.781   2.833   1.205
    1LIG     C9   15   2.872   2.719   1.259
    1LIG     O5   16   2.816   2.670   1.377
    1LIG    C10   17   2.873   2.729   1.488
    1LIG    C11   18   2.787   2.853   1.527
    1LIG     O6   19   2.841   2.909   1.643
    1LIG    C12   20   2.785   2.850   1.756
    1LIG    C13   21   2.862   2.721   1.797
    1LIG     O7   22   2.806   2.671   1.915
    1LIG    C14   23   2.863   2.734   2.026
    1LIG    C15   24   2.766   2.847   2.072
    1LIG     O8   25   2.823   2.920   2.178
    1LIG    C16   26   2.774   2.876   2.302
    1LIG    C17   27   2.848   2.745   2.341
    1LIG     O9   28   2.776   2.681   2.440
    1LIG    C18   29   2.817   2.717   2.568
    1LIG    C19   30   2.744   2.844   2.617
    1LIG    O10   31   2.832   2.903   2.711
    1LIG    C20   32   2.811   2.847   2.839
    1LIG    C21   33   2.891   2.716   2.866
    1LIG    O11   34   2.835   2.657   2.983
    1LIG    C22   35   2.877   2.725   3.100
    1LIG    C23   36   2.769   2.832   3.145
    1LIG    O12   37   2.818   2.901   3.258
    1LIG    C24   38   2.773   2.844   3.380
    1LIG    C25   39   2.853   2.713   3.411
    1LIG    O13   40   2.816   2.658   3.537
    1LIG    C26   41   2.862   2.732   3.647
    1LIG    C27   42   2.755   2.836   3.686
    1LIG    O14   43   2.680   2.800   3.802
    1LIG    C28   44   2.751   2.811   3.923
    1LIG    C29   45   2.829   2.679   3.956
    1LIG    O15   46   2.817   2.650   4.094
    1LIG    C30   47   2.889   2.747   4.170
    1LIG    C31   48   2.790   2.860   4.212
    1LIG    O16   49   2.821   2.908   4.342
    1LIG    C32   50   2.757   2.828   4.440
    1LIG    C33   51   2.845   2.702   4.468
    1LIG    O17   52   2.820   2.646   4.594
    1LIG    C34   53   2.897   2.704   4.697
    1LIG    C35   54   2.829   2.838   4.735
    1LIG    O18   55   2.871   2.889   4.859
    1LIG    C36   56   2.795   2.833   4.962
    1LIG    C37   57   2.874   2.712   5.015
    1LIG    O19   58   2.813   2.666   5.131
    1LIG    C38   59   2.869   2.728   5.242
    1LIG    C39   60   2.777   2.847   5.283
    1LIG    O20   61   2.835   2.907   5.394
    1LIG    C40   62   2.785   2.849   5.511
    1LIG    C41   63   2.864   2.721   5.550
    1LIG    O21   64   2.809   2.668   5.666
    1LIG    C42   65   2.860   2.730   5.780
    1LIG    C43   66   2.762   2.844   5.823
    1LIG    O22   67   2.819   2.922   5.925
    1LIG    C44   68   2.771   2.881   6.050
    1LIG    C45   69   2.852   2.758   6.098
    1LIG    O23   70   2.776   2.692   6.195
    1LIG    C46   71   2.818   2.724   6.322
    1LIG    C47   72   2.750   2.853   6.369
    1LIG    O24   73   2.837   2.903   6.468
    1LIG    C48   74   2.804   2.842   6.591
    1LIG    C49   75   2.883   2.712   6.623
    1LIG    O25   76   2.835   2.668   6.749
    1LIG    C50   77   2.882   2.750   6.855
    1LIG    C51   78   2.773   2.858   6.897
    1LIG    O26   79   2.800   2.909   7.028
    1LIG    C52   80   2.735   2.832   7.127
    1LIG    C53   81   2.827   2.712   7.162
    1LIG    O27   82   2.792   2.647   7.282
    1LIG    C54   83   2.838   2.714   7.396
    1LIG    C55   84   2.728   2.813   7.442
    1LIG    O28   85   2.677   2.779   7.570
    1LIG    C56   86   2.750   2.837   7.677
    1LIG    C57   87   2.873   2.748   7.715
    1LIG    O29   88   2.840   2.655   7.819
    1LIG    C58   89   2.879   2.703   7.947
    1LIG    C59   90   2.765   2.789   8.009
    1LIG      H   91   2.703   2.871   0.160
    1LIG     H1   92   2.836   2.986   0.184
    1LIG     H2   93   2.994   2.816   0.222
    1LIG     H3   94   2.924   2.706   0.105
    1LIG     H4   95   2.959   2.776   0.425
    1LIG     H5   96   2.837   2.658   0.471
    1LIG     H6   97   2.652   2.832   0.435
    1LIG     H7   98   2.774   2.948   0.383
    1LIG     H8   99   2.630   2.774   0.641
    1LIG     H9  100   2.694   2.873   0.767
    1LIG    H10  101   2.929   2.736   0.693
    1LIG    H11  102   2.810   2.615   0.645
    1LIG    H12  103   2.991   2.739   0.904
    1LIG    H13  104   2.898   2.642   1.017
    1LIG    H14  105   2.702   2.819   0.976
    1LIG    H15  106   2.828   2.920   0.901
    1LIG    H16  107   2.682   2.794   1.176
    1LIG    H17  108   2.762   2.912   1.276
    1LIG    H18  109   2.975   2.754   1.274
    1LIG    H19  110   2.874   2.632   1.195
    1LIG    H20  111   2.979   2.755   1.476
    1LIG    H21  112   2.868   2.648   1.558
    1LIG    H22  113   2.681   2.826   1.538
    1LIG    H23  114   2.796   2.931   1.453
    1LIG    H24  115   2.677   2.828   1.745
    1LIG    H25  116   2.798   2.928   1.828
    1LIG    H26  117   2.969   2.743   1.806
    1LIG    H27  118   2.849   2.636   1.732
    1LIG    H28  119   2.963   2.773   2.007
    1LIG    H29  120   2.876   2.650   2.093
    1LIG    H30  121   2.667   2.806   2.097
    1LIG    H31  122   2.746   2.923   1.998
    1LIG    H32  123   2.666   2.858   2.297
    1LIG    H33  124   2.794   2.956   2.372
    1LIG    H34  125   2.953   2.763   2.367
    1LIG    H35  126   2.845   2.670   2.265
    1LIG    H36  127   2.925   2.733   2.570
    1LIG    H37  128   2.793   2.632   2.630
    1LIG    H38  129   2.646   2.818   2.661
    1LIG    H39  130   2.724   2.917   2.540
    1LIG    H40  131   2.705   2.827   2.856
    1LIG    H41  132   2.846   2.922   2.909
    1LIG    H42  133   2.997   2.737   2.880
    1LIG    H43  134   2.884   2.639   2.790
    1LIG    H44  135   2.974   2.773   3.086
    1LIG    H45  136   2.892   2.646   3.172
    1LIG    H46  137   2.671   2.787   3.164
    1LIG    H47  138   2.751   2.909   3.070
    1LIG    H48  139   2.665   2.825   3.375
    1LIG    H49  140   2.790   2.920   3.456
    1LIG    H50  141   2.961   2.733   3.408
    1LIG    H51  142   2.827   2.635   3.341
    1LIG    H52  143   2.955   2.783   3.623
    1LIG    H53  144   2.885   2.662   3.726
    1LIG    H54  145   2.681   2.849   3.607
    1LIG    H55  146   2.808   2.930   3.703
    1LIG    H56  147   2.673   2.827   3.998
    1LIG    H57  148   2.816   2.899   3.922
    1LIG    H58  149   2.934   2.683   3.932
    1LIG    H59  150   2.792   2.596   3.897
    1LIG    H60  151   2.972   2.790   4.113
    1LIG    H61  152   2.937   2.694   4.252
    1LIG    H62  153   2.686   2.822   4.209
    1LIG    H63  154   2.796   2.943   4.141
    1LIG    H64  155   2.657   2.802   4.408
    1LIG    H65  156   2.737   2.892   4.525
    1LIG    H66  157   2.952   2.726   4.459
    1LIG    H67  158   2.821   2.625   4.395
    1LIG    H68  159   3.000   2.721   4.667
    1LIG    H69  160   2.899   2.629   4.774
    1LIG    H70  161   2.721   2.823   4.733
    1LIG    H71  162   2.859   2.914   4.664
    1LIG    H72  163   2.693   2.805   4.933
    1LIG    H73  164   2.786   2.915   5.033
    1LIG    H74  165   2.980   2.738   5.031
    1LIG    H75  166   2.870   2.626   4.950
    1LIG    H76  167   2.972   2.760   5.228
    1LIG    H77  168   2.871   2.646   5.310
    1LIG    H78  169   2.674   2.815   5.300
    1LIG    H79  170   2.774   2.926   5.210
    1LIG    H80  171   2.677   2.827   5.505
    1LIG    H81  172   2.803   2.929   5.582
    1LIG    H82  173   2.970   2.744   5.560
    1LIG    H83  174   2.851   2.637   5.484
    1LIG    H84  175   2.962   2.767   5.766
    1LIG    H85  176   2.865   2.647   5.850
    1LIG    H86  177   2.665   2.804   5.851
    1LIG    H87  178   2.738   2.916   5.747
    1LIG    H88  179   2.664   2.857   6.045
    1LIG    H89  180   2.784   2.967   6.116
    1LIG    H90  181   2.952   2.786   6.131
    1LIG    H91  182   2.866   2.682   6.023
    1LIG    H92  183   2.927   2.736   6.325
    1LIG    H93  184   2.792   2.640   6.385
    1LIG    H94  185   2.649   2.833   6.405
    1LIG    H95  186   2.743   2.929   6.293
    1LIG    H96  187   2.697   2.821   6.600
    1LIG    H97  188   2.832   2.917   6.663
    1LIG    H98  189   2.990   2.732   6.628
    1LIG    H99  190   2.868   2.630   6.554
    1LIG   H100  191   2.975   2.799   6.828
    1LIG   H101  192   2.908   2.682   6.934
    1LIG   H102  193   2.672   2.815   6.890
    1LIG   H103  194   2.774   2.945   6.833
    1LIG   H104  195   2.637   2.800   7.092
    1LIG   H105  196   2.716   2.898   7.211
    1LIG   H106  197   2.933   2.743   7.162
    1LIG   H107  198   2.812   2.637   7.085
    1LIG   H108  199   2.933   2.765   7.376
    1LIG   H109  200   2.854   2.634   7.468
    1LIG   H110  201   2.644   2.807   7.372
    1LIG   H111  202   2.765   2.915   7.443
    1LIG   H112  203   2.678   2.847   7.758
    1LIG   H113  204   2.783   2.938   7.652
    1LIG   H114  205   2.956   2.812   7.745
    1LIG   H115  206   2.911   2.688   7.633
    1LIG   H116  207   2.971   2.762   7.939
    1LIG   H117  208   2.900   2.616   8.010
    1LIG   H118  209   2.689   2.822   7.939
    1LIG   H119  210   2.712   2.728   0.001
    2LIG      O  211   2.635   2.495   8.047
    2LIG      C  212   2.628   2.497   0.111
    2LIG     C1  213   2.497   2.429   0.160
    2LIG     O1  214   2.435   2.510   0.259
    2LIG     C2  215   2.465   2.463   0.388
    2LIG     C3  216   2.588   2.533   0.443
    2LIG     O2  217   2.604   2.478   0.573
    2LIG     C4  218   2.525   2.548   0.670
    2LIG     C5  219   2.407   2.465   0.727
    2LIG     O3  220   2.356   2.525   0.850
    2LIG     C6  221   2.427   2.485   0.969
    2LIG     C7  222   2.548   2.577   1.000
    2LIG     O4  223   2.636   2.509   1.087
    2LIG     C8  224   2.600   2.520   1.221
    2LIG     C9  225   2.515   2.400   1.264
    2LIG     O5  226   2.565   2.357   1.390
    2LIG    C10  227   2.507   2.428   1.501
    2LIG    C11  228   2.571   2.569   1.523
    2LIG     O6  229   2.503   2.639   1.626
    2LIG    C12  230   2.534   2.585   1.754
    2LIG    C13  231   2.431   2.474   1.788
    2LIG     O7  232   2.365   2.513   1.903
    2LIG    C14  233   2.423   2.456   2.019
    2LIG    C15  234   2.560   2.524   2.055
    2LIG     O8  235   2.614   2.468   2.174
    2LIG    C16  236   2.566   2.529   2.294
    2LIG    C17  237   2.428   2.471   2.337
    2LIG     O9  238   2.369   2.546   2.440
    2LIG    C18  239   2.401   2.496   2.566
    2LIG    C19  240   2.521   2.579   2.614
    2LIG    O10  241   2.607   2.501   2.697
    2LIG    C20  242   2.584   2.527   2.834
    2LIG    C21  243   2.445   2.468   2.870
    2LIG    O11  244   2.399   2.503   2.999
    2LIG    C22  245   2.465   2.429   3.097
    2LIG    C23  246   2.583   2.515   3.145
    2LIG    O12  247   2.620   2.472   3.274
    2LIG    C24  248   2.559   2.548   3.377
    2LIG    C25  249   2.415   2.497   3.408
    2LIG    O13  250   2.359   2.568   3.519
    2LIG    C26  251   2.397   2.515   3.646
    2LIG    C27  252   2.521   2.591   3.694
    2LIG    O14  253   2.603   2.507   3.775
    2LIG    C28  254   2.562   2.513   3.911
    2LIG    C29  255   2.446   2.416   3.940
    2LIG    O15  256   2.472   2.346   4.061
    2LIG    C30  257   2.459   2.425   4.179
    2LIG    C31  258   2.591   2.499   4.213
    2LIG    O16  259   2.612   2.494   4.353
    2LIG    C32  260   2.532   2.590   4.421
    2LIG    C33  261   2.396   2.531   4.460
    2LIG    O17  262   2.349   2.589   4.583
    2LIG    C34  263   2.402   2.521   4.699
    2LIG    C35  264   2.524   2.595   4.758
    2LIG    O18  265   2.600   2.498   4.828
    2LIG    C36  266   2.601   2.513   4.968
    2LIG    C37  267   2.513   2.403   5.029
    2LIG    O19  268   2.574   2.357   5.151
    2LIG    C38  269   2.520   2.419   5.267
    2LIG    C39  270   2.571   2.565   5.283
    2LIG    O20  271   2.490   2.632   5.379
    2LIG    C40  272   2.518   2.586   5.511
    2LIG    C41  273   2.415   2.479   5.555
    2LIG    O21  274   2.357   2.518   5.678
    2LIG    C42  275   2.427   2.471   5.794
    2LIG    C43  276   2.559   2.550   5.814
    2LIG    O22  277   2.647   2.490   5.909
    2LIG    C44  278   2.610   2.517   6.044
    2LIG    C45  279   2.496   2.423   6.084
    2LIG    O23  280   2.518   2.375   6.216
    2LIG    C46  281   2.440   2.446   6.312
    2LIG    C47  282   2.509   2.581   6.351
    2LIG    O24  283   2.454   2.637   6.473
    2LIG    C48  284   2.523   2.593   6.592
    2LIG    C49  285   2.449   2.469   6.648
    2LIG    O25  286   2.533   2.383   6.724
    2LIG    C50  287   2.518   2.403   6.864
    2LIG    C51  288   2.614   2.514   6.907
    2LIG    O26  289   2.630   2.507   7.048
    2LIG    C52  290   2.528   2.577   7.120
    2LIG    C53  291   2.414   2.481   7.155
    2LIG    O27  292   2.357   2.523   7.279
    2LIG    C54  293   2.411   2.452   7.391
    2LIG    C55  294   2.550   2.510   7.435
    2LIG    O28  295   2.605   2.445   7.551
    2LIG    C56  296   2.568   2.505   7.676
    2LIG    C57  297   2.433   2.446   7.721
    2LIG    O29  298   2.369   2.530   7.816
    2LIG    C58  299   2.408   2.497   7.947
    2LIG    C59  300   2.533   2.580   7.987
    2LIG      H  301   2.632   2.600   0.146
    2LIG     H1  302   2.715   2.446   0.154
    2LIG     H2  303   2.516   2.327   0.195
    2LIG     H3  304   2.422   2.417   0.083
    2LIG     H4  305   2.482   2.355   0.390
    2LIG     H5  306   2.381   2.485   0.453
    2LIG     H6  307   2.573   2.641   0.447
    2LIG     H7  308   2.677   2.511   0.383
    2LIG     H8  309   2.485   2.642   0.632
    2LIG     H9  310   2.598   2.571   0.743
    2LIG    H10  311   2.434   2.360   0.743
    2LIG    H11  312   2.326   2.469   0.655
    2LIG    H12  313   2.455   2.379   0.963
    2LIG    H13  314   2.359   2.497   1.054
    2LIG    H14  315   2.516   2.673   1.040
    2LIG    H15  316   2.607   2.600   0.915
    2LIG    H16  317   2.546   2.614   1.238
    2LIG    H17  318   2.691   2.516   1.279
    2LIG    H18  319   2.521   2.319   1.191
    2LIG    H19  320   2.411   2.433   1.272
    2LIG    H20  321   2.522   2.366   1.589
    2LIG    H21  322   2.400   2.443   1.485
    2LIG    H22  323   2.562   2.632   1.434
    2LIG    H23  324   2.677   2.557   1.549
    2LIG    H24  325   2.530   2.665   1.829
    2LIG    H25  326   2.635   2.542   1.756
    2LIG    H26  327   2.480   2.377   1.801
    2LIG    H27  328   2.356   2.464   1.709
    2LIG    H28  329   2.436   2.348   2.008
    2LIG    H29  330   2.346   2.474   2.090
    2LIG    H30  331   2.550   2.633   2.064
    2LIG    H31  332   2.632   2.503   1.975
    2LIG    H32  333   2.562   2.639   2.284
    2LIG    H33  334   2.638   2.503   2.372
    2LIG    H34  335   2.442   2.365   2.363
    2LIG    H35  336   2.351   2.476   2.263
    2LIG    H36  337   2.425   2.388   2.563
    2LIG    H37  338   2.312   2.508   2.628
    2LIG    H38  339   2.489   2.671   2.664
    2LIG    H39  340   2.579   2.610   2.528
    2LIG    H40  341   2.588   2.635   2.853
    2LIG    H41  342   2.663   2.478   2.891
    2LIG    H42  343   2.445   2.359   2.857
    2LIG    H43  344   2.370   2.511   2.805
    2LIG    H44  345   2.499   2.332   3.061
    2LIG    H45  346   2.392   2.410   3.175
    2LIG    H46  347   2.555   2.622   3.144
    2LIG    H47  348   2.670   2.502   3.081
    2LIG    H48  349   2.554   2.655   3.351
    2LIG    H49  350   2.624   2.532   3.462
    2LIG    H50  351   2.419   2.390   3.427
    2LIG    H51  352   2.348   2.517   3.325
    2LIG    H52  353   2.417   2.407   3.640
    2LIG    H53  354   2.316   2.530   3.718
    2LIG    H54  355   2.486   2.678   3.748
    2LIG    H55  356   2.581   2.630   3.613
    2LIG    H56  357   2.534   2.615   3.940
    2LIG    H57  358   2.648   2.482   3.970
    2LIG    H58  359   2.439   2.343   3.858
    2LIG    H59  360   2.351   2.471   3.947
    2LIG    H60  361   2.432   2.359   4.262
    2LIG    H61  362   2.378   2.498   4.168
    2LIG    H62  363   2.584   2.604   4.179
    2LIG    H63  364   2.677   2.451   4.164
    2LIG    H64  365   2.514   2.679   4.361
    2LIG    H65  366   2.589   2.619   4.507
    2LIG    H66  367   2.402   2.422   4.468
    2LIG    H67  368   2.325   2.555   4.380
    2LIG    H68  369   2.428   2.417   4.674
    2LIG    H69  370   2.325   2.519   4.777
    2LIG    H70  371   2.490   2.678   4.821
    2LIG    H71  372   2.591   2.639   4.686
    2LIG    H72  373   2.563   2.612   4.996
    2LIG    H73  374   2.704   2.501   5.003
    2LIG    H74  375   2.500   2.320   4.960
    2LIG    H75  376   2.416   2.448   5.050
    2LIG    H76  377   2.547   2.360   5.355
    2LIG    H77  378   2.411   2.424   5.261
    2LIG    H78  379   2.562   2.622   5.191
    2LIG    H79  380   2.676   2.563   5.315
    2LIG    H80  381   2.515   2.672   5.578
    2LIG    H81  382   2.619   2.543   5.516
    2LIG    H82  383   2.463   2.380   5.564
    2LIG    H83  384   2.335   2.470   5.480
    2LIG    H84  385   2.447   2.363   5.784
    2LIG    H85  386   2.361   2.486   5.879
    2LIG    H86  387   2.536   2.654   5.841
    2LIG    H87  388   2.616   2.549   5.722
    2LIG    H88  389   2.579   2.622   6.056
    2LIG    H89  390   2.696   2.496   6.107
    2LIG    H90  391   2.493   2.338   6.016
    2LIG    H91  392   2.402   2.478   6.078
    2LIG    H92  393   2.434   2.377   6.395
    2LIG    H93  394   2.337   2.464   6.277
    2LIG    H94  395   2.497   2.653   6.269
    2LIG    H95  396   2.615   2.561   6.362
    2LIG    H96  397   2.519   2.673   6.667
    2LIG    H97  398   2.629   2.572   6.572
    2LIG    H98  399   2.408   2.408   6.570
    2LIG    H99  400   2.362   2.502   6.705
    2LIG   H100  401   2.540   2.310   6.918
    2LIG   H101  402   2.415   2.433   6.888
    2LIG   H102  403   2.574   2.612   6.877
    2LIG   H103  404   2.710   2.498   6.858
    2LIG   H104  405   2.488   2.661   7.063
    2LIG   H105  406   2.571   2.619   7.210
    2LIG   H106  407   2.452   2.378   7.163
    2LIG   H107  408   2.338   2.486   7.077
    2LIG   H108  409   2.421   2.344   7.370
    2LIG   H109  410   2.335   2.464   7.466
    2LIG   H110  411   2.540   2.618   7.451
    2LIG   H111  412   2.622   2.493   7.355
    2LIG   H112  413   2.557   2.614   7.668
    2LIG   H113  414   2.644   2.483   7.751
    2LIG   H114  415   2.449   2.345   7.758
    2LIG   H115  416   2.362   2.437   7.640
    2LIG   H116  417   2.432   2.390   7.954
    2LIG   H117  418   2.325   2.518   8.015
    2LIG   H118  419   2.575   2.630   7.900
    2LIG   H119  420   2.502   2.657   8.057
    3MOL     C1  421   1.961   2.854   3.450
    3MOL     H1  422   1.855   2.823   3.455
    3MOL     O1  423   1.998   2.917   3.575
    3MOL     C2  424   2.133   2.967   3.584
    3MOL     H2  425   2.204   2.883   3.577
    3MOL     C3  426   2.151   3.035   3.723
    3MOL     H3  427   2.258   3.041   3.747
    3MOL     H4  428   2.104   2.971   3.799
    3MOL     O2  429   2.094   3.166   3.731
    3MOL     H5  430   2.078   3.181   3.827
    3MOL     C4  431   1.978   2.956   3.335
    3MOL     H6  432   1.911   3.040   3.356
    3MOL     O3  433   1.945   2.898   3.209
    3MOL     H7  434   1.965   2.802   3.215
    3MOL     C5  435   2.123   3.008   3.330
    3MOL     H8  436   2.191   2.924   3.310
    3MOL     O4  437   2.138   3.108   3.227
    3MOL     H9  438   2.152   3.061   3.143
    3MOL     C6  439   2.159   3.066   3.468
    3MOL    H10  440   2.096   3.155   3.482
    3MOL     O5  441   2.299   3.102   3.464
    3MOL     C7  442   2.328   3.232   3.520
    3MOL    H11  443   2.237   3.276   3.561
    3MOL     O6  444   2.422   3.216   3.628
    3MOL     C8  445   2.553   3.169   3.592
    3MOL    H12  446   2.545   3.067   3.551
    3MOL     C9  447   2.640   3.166   3.720
    3MOL    H13  448   2.723   3.098   3.703
    3MOL    H14  449   2.579   3.127   3.803
    3MOL     O7  450   2.694   3.293   3.753
    3MOL    H15  451   2.774   3.304   3.697
    3MOL    C10  452   2.383   3.325   3.411
    3MOL    H16  453   2.398   3.424   3.457
    3MOL     O8  454   2.290   3.336   3.304
    3MOL    H17  455   2.253   3.245   3.291
    3MOL    C11  456   2.519   3.276   3.360
    3MOL    H18  457   2.506   3.176   3.316
    3MOL     O9  458   2.574   3.367   3.263
    3MOL    H19  459   2.512   3.445   3.254
    3MOL    C12  460   2.611   3.264   3.484
    3MOL    H20  461   2.619   3.363   3.528
    3MOL    O10  462   2.742   3.217   3.444
    3MOL    C13  463   2.848   3.313   3.463
    3MOL    H21  464   2.808   3.413   3.482
    3MOL    O11  465   2.930   3.271   3.575
    3MOL    C14  466   2.989   3.140   3.557
    3MOL    H22  467   2.910   3.066   3.542
    3MOL    C15  468   3.067   3.100   3.685
    3MOL    H23  469   3.087   2.993   3.675
    3MOL    H24  470   3.002   3.115   3.773
    3MOL    O12  471   3.190   3.169   3.702
    3MOL    H25  472   3.259   3.106   3.669
    3MOL    C16  473   2.933   3.319   3.333
    3MOL    H26  474   3.006   3.399   3.343
    3MOL    O13  475   2.844   3.346   3.225
    3MOL    H27  476   2.756   3.328   3.261
    3MOL    C17  477   3.006   3.187   3.307
    3MOL    H28  478   2.931   3.111   3.284
    3MOL    O14  479   3.097   3.200   3.198
    3MOL    H29  480   3.044   3.192   3.113
    3MOL    C18  481   3.081   3.141   3.433
    3MOL    H30  482   3.165   3.210   3.451
    3MOL    O15  483   3.127   3.007   3.409
    3MOL    C19  484   3.270   2.986   3.409
    3MOL    H31  485   3.325   3.081   3.410
    3MOL    O16  486   3.302   2.909   3.528
    3MOL    C20  487   3.241   2.777   3.533
    3MOL    H32  488   3.133   2.788   3.526
    3MOL    C21  489   3.273   2.708   3.668
    3MOL    H33  490   3.191   2.639   3.693
    3MOL    H34  491   3.276   2.785   3.745
    3MOL    O17  492   3.396   2.636   3.668
    3MOL    H35  493   3.370   2.542   3.652
    3MOL    C22  494   3.310   2.908   3.280
    3MOL    H36  495   3.419   2.902   3.276
    3MOL    O18  496   3.261   2.977   3.165
    3MOL    H37  497   3.197   3.044   3.198
    3MOL    C23  498   3.250   2.766   3.280
    3MOL    H38  499   3.141   2.776   3.278
    3MOL    O19  500   3.294   2.690   3.167
    3MOL    H39  501   3.278   2.744   3.084
    3MOL    C24  502   3.289   2.696   3.411
    3MOL    H40  503   3.399   2.688   3.415
    3MOL    O20  504   3.226   2.567   3.411
    3MOL    C25  505   3.317   2.455   3.424
    3MOL    H41  506   3.421   2.486   3.414
    3MOL    O21  507   3.295   2.394   3.554
    3MOL    C26  508   3.161   2.342   3.578
    3MOL    H42  509   3.089   2.424   3.574
    3MOL    C27  510   3.158   2.278   3.720
    3MOL    H43  511   3.054   2.260   3.749
    3MOL    H44  512   3.201   2.349   3.791
    3MOL    O22  513   3.227   2.154   3.725
    3MOL    H45  514   3.207   2.111   3.811
    3MOL    C28  515   3.288   2.353   3.311
    3MOL    H46  516   3.358   2.269   3.321
    3MOL    O23  517   3.305   2.416   3.185
    3MOL    H47  518   3.288   2.512   3.200
    3MOL    C29  519   3.145   2.296   3.323
    3MOL    H48  520   3.074   2.379   3.311
    3MOL    O24  521   3.120   2.195   3.223
    3MOL    H49  522   3.059   2.236   3.157
    3MOL    C30  523   3.126   2.239   3.466
    3MOL    H50  524   3.192   2.152   3.475
    3MOL    O25  525   2.988   2.201   3.479
    3MOL    C31  526   2.963   2.074   3.542
    3MOL    H51  527   3.054   2.032   3.586
    3MOL    O26  528   2.864   2.093   3.646
    3MOL    C32  529   2.738   2.148   3.601
    3MOL    H52  530   2.756   2.245   3.553
    3MOL    C33  531   2.644   2.174   3.724
    3MOL    H53  532   2.569   2.247   3.694
    3MOL    H54  533   2.704   2.218   3.805
    3MOL    O27  534   2.578   2.056   3.772
    3MOL    H55  535   2.486   2.062   3.737
    3MOL    C34  536   2.910   1.976   3.435
    3MOL    H56  537   2.893   1.878   3.482
    3MOL    O28  538   3.004   1.963   3.330
    3MOL    H57  539   3.032   2.055   3.307
    3MOL    C35  540   2.777   2.029   3.377
    3MOL    H58  541   2.796   2.128   3.334
    3MOL    O29  542   2.724   1.941   3.274
    3MOL    H59  543   2.790   1.940   3.200
    3MOL    C36  544   2.679   2.050   3.496
    3MOL    H60  545   2.663   1.954   3.547
    3MOL    O30  546   2.555   2.103   3.444
    3MOL    C37  547   2.449   2.005   3.438
    3MOL    H61  548   2.491   1.904   3.449
    3MOL    O31  549   2.358   2.028   3.547
    3MOL    C38  550   2.294   2.158   3.545
    3MOL    H62  551   2.372   2.235   3.548
    3MOL    C39  552   2.209   2.173   3.673
    3MOL    H63  553   2.128   2.099   3.672
    3MOL    H64  554   2.165   2.274   3.674
    3MOL    O32  555   2.291   2.155   3.788
    3MOL    H65  556   2.243   2.196   3.864
    3MOL    C40  557   2.375   2.016   3.303
    3MOL    H66  558   2.299   1.938   3.298
    3MOL    O33  559   2.467   2.001   3.195
    3MOL    H67  560   2.558   2.010   3.234
    3MOL    C41  561   2.304   2.152   3.291
    3MOL    H68  562   2.381   2.229   3.292
    3MOL    O34  563   2.232   2.157   3.167
    3MOL    H69  564   2.280   2.091   3.112
    3MOL    C42  565   2.213   2.173   3.414
    3MOL    H70  566   2.132   2.098   3.413
    3MOL    O35  567   2.161   2.308   3.406
    3MOL    C43  568   2.018   2.320   3.411
    3MOL    H71  569   1.970   2.222   3.409
    3MOL    O36  570   1.982   2.390   3.533
    3MOL    C44  571   2.032   2.526   3.546
    3MOL    H72  572   2.141   2.523   3.544
    3MOL    C45  573   1.991   2.584   3.685
    3MOL    H73  574   1.882   2.584   3.693
    3MOL    H74  575   2.024   2.689   3.691
    3MOL    O37  576   2.050   2.510   3.793
    3MOL    H75  577   1.981   2.505   3.864
    3MOL    C46  578   1.969   2.401   3.287
    3MOL    H76  579   1.859   2.407   3.291
    3MOL    O38  580   2.009   2.339   3.165
    3MOL    H77  581   2.091   2.286   3.184
    3MOL    C47  582   2.025   2.544   3.292
    3MOL    H78  583   2.134   2.538   3.290
    3MOL    O39  584   1.980   2.619   3.179
    3MOL    H79  585   1.981   2.556   3.103
    3MOL    C48  586   1.984   2.611   3.425
    3MOL    H80  587   1.874   2.620   3.429
    3MOL    O40  588   2.047   2.740   3.428
    4MOL     C1  589   3.323   2.852   4.628
    4MOL     H1  590   3.426   2.815   4.623
    4MOL     O1  591   3.290   2.915   4.503
    4MOL     C2  592   3.156   2.970   4.494
    4MOL     H2  593   3.083   2.890   4.507
    4MOL     C3  594   3.138   3.028   4.351
    4MOL     H3  595   3.033   3.053   4.335
    4MOL     H4  596   3.166   2.951   4.278
    4MOL     O2  597   3.218   3.145   4.331
    4MOL     H5  598   3.199   3.172   4.238
    4MOL     C4  599   3.309   2.953   4.745
    4MOL     H6  600   3.385   3.032   4.734
    4MOL     O3  601   3.331   2.882   4.867
    4MOL     H7  602   3.292   2.793   4.849
    4MOL     C5  603   3.169   3.020   4.746
    4MOL     H8  604   3.096   2.942   4.769
    4MOL     O4  605   3.162   3.126   4.843
    4MOL     H9  606   3.200   3.094   4.929
    4MOL     C6  607   3.137   3.076   4.605
    4MOL    H10  608   3.206   3.159   4.587
    4MOL     O5  609   3.000   3.121   4.608
    4MOL     C7  610   2.976   3.252   4.553
    4MOL    H11  611   3.068   3.293   4.509
    4MOL     O6  612   2.876   3.241   4.449
    4MOL     C8  613   2.747   3.191   4.493
    4MOL    H12  614   2.759   3.095   4.542
    4MOL     C9  615   2.658   3.173   4.369
    4MOL    H13  616   2.569   3.115   4.394
    4MOL    H14  617   2.715   3.116   4.295
    4MOL     O7  618   2.622   3.300   4.314
    4MOL    H15  619   2.523   3.306   4.308
    4MOL    C10  620   2.925   3.348   4.664
    4MOL    H16  621   2.915   3.448   4.621
    4MOL     O8  622   3.019   3.352   4.772
    4MOL    H17  623   3.046   3.259   4.790
    4MOL    C11  624   2.786   3.303   4.717
    4MOL    H18  625   2.797   3.203   4.760
    4MOL     O9  626   2.736   3.394   4.816
    4MOL    H19  627   2.796   3.382   4.894
    4MOL    C12  628   2.690   3.292   4.596
    4MOL    H20  629   2.681   3.391   4.548
    4MOL    O10  630   2.562   3.246   4.644
    4MOL    C13  631   2.446   3.328   4.612
    4MOL    H21  632   2.478   3.429   4.581
    4MOL    O11  633   2.372   3.265   4.505
    4MOL    C14  634   2.319   3.133   4.533
    4MOL    H22  635   2.402   3.065   4.557
    4MOL    C15  636   2.249   3.078   4.406
    4MOL    H23  637   2.250   2.969   4.411
    4MOL    H24  638   2.307   3.109   4.318
    4MOL    O12  639   2.113   3.122   4.393
    4MOL    H25  640   2.060   3.052   4.438
    4MOL    C16  641   2.358   3.340   4.738
    4MOL    H26  642   2.278   3.413   4.718
    4MOL    O13  643   2.441   3.386   4.843
    4MOL    H27  644   2.531   3.381   4.803
    4MOL    C17  645   2.293   3.204   4.777
    4MOL    H28  646   2.373   3.136   4.806
    4MOL    O14  647   2.202   3.218   4.887
    4MOL    H29  648   2.256   3.232   4.968
    4MOL    C18  649   2.223   3.142   4.654
    4MOL    H30  650   2.138   3.207   4.627
    4MOL    O15  651   2.178   3.009   4.690
    4MOL    C19  652   2.036   2.984   4.673
    4MOL    H31  653   1.980   3.079   4.669
    4MOL    O16  654   2.016   2.911   4.549
    4MOL    C20  655   2.068   2.775   4.545
    4MOL    H32  656   2.176   2.778   4.564
    4MOL    C21  657   2.045   2.714   4.403
    4MOL    H33  658   2.124   2.640   4.385
    4MOL    H34  659   2.057   2.793   4.328
    4MOL    O17  660   1.919   2.648   4.386
    4MOL    H35  661   1.927   2.561   4.433
    4MOL    C22  662   1.984   2.905   4.796
    4MOL    H36  663   1.874   2.906   4.794
    4MOL    O18  664   2.032   2.968   4.914
    4MOL    H37  665   2.097   3.033   4.879
    4MOL    C23  666   2.032   2.758   4.794
    4MOL    H38  667   2.142   2.759   4.804
    4MOL    O19  668   1.975   2.683   4.903
    4MOL    H39  669   1.978   2.743   4.981
    4MOL    C24  670   1.998   2.695   4.658
    4MOL    H40  671   1.889   2.698   4.644
    4MOL    O20  672   2.047   2.559   4.659
    4MOL    C25  673   1.952   2.452   4.638
    4MOL    H41  674   1.848   2.489   4.640
    4MOL    O21  675   1.982   2.391   4.510
    4MOL    C26  676   2.117   2.338   4.497
    4MOL    H42  677   2.185   2.421   4.509
    4MOL    C27  678   2.138   2.280   4.355
    4MOL    H43  679   2.245   2.272   4.334
    4MOL    H44  680   2.095   2.350   4.283
    4MOL    O22  681   2.075   2.152   4.337
    4MOL    H45  682   1.980   2.175   4.321
    4MOL    C28  683   1.969   2.348   4.750
    4MOL    H46  684   1.899   2.265   4.732
    4MOL    O23  685   1.938   2.411   4.873
    4MOL    H47  686   1.975   2.502   4.867
    4MOL    C29  687   2.115   2.294   4.751
    4MOL    H48  688   2.180   2.380   4.766
    4MOL    O24  689   2.139   2.197   4.855
    4MOL    H49  690   2.062   2.198   4.917
    4MOL    C30  691   2.148   2.236   4.612
    4MOL    H50  692   2.087   2.146   4.597
    4MOL    O25  693   2.290   2.206   4.612
    4MOL    C31  694   2.324   2.083   4.545
    4MOL    H51  695   2.235   2.041   4.499
    4MOL    O26  696   2.422   2.109   4.441
    4MOL    C32  697   2.553   2.152   4.485
    4MOL    H52  698   2.543   2.247   4.538
    4MOL    C33  699   2.646   2.174   4.362
    4MOL    H53  700   2.726   2.243   4.390
    4MOL    H54  701   2.589   2.222   4.282
    4MOL    O27  702   2.704   2.054   4.311
    4MOL    H55  703   2.801   2.070   4.310
    4MOL    C34  704   2.378   1.979   4.647
    4MOL    H56  705   2.392   1.883   4.595
    4MOL    O28  706   2.283   1.963   4.753
    4MOL    H57  707   2.255   2.055   4.777
    4MOL    C35  708   2.514   2.024   4.704
    4MOL    H58  709   2.500   2.121   4.754
    4MOL    O29  710   2.566   1.927   4.797
    4MOL    H59  711   2.491   1.896   4.853
    4MOL    C36  712   2.609   2.046   4.583
    4MOL    H60  713   2.621   1.951   4.529
    4MOL    O30  714   2.734   2.093   4.635
    4MOL    C37  715   2.839   1.994   4.636
    4MOL    H61  716   2.797   1.893   4.627
    4MOL    O31  717   2.928   2.021   4.525
    4MOL    C38  718   2.989   2.152   4.526
    4MOL    H62  719   2.913   2.230   4.522
    4MOL    C39  720   3.073   2.169   4.398
    4MOL    H63  721   3.151   2.092   4.394
    4MOL    H64  722   3.123   2.267   4.399
    4MOL    O32  723   2.989   2.160   4.282
    4MOL    H65  724   3.049   2.139   4.208
    4MOL    C40  725   2.914   2.004   4.770
    4MOL    H66  726   2.990   1.925   4.773
    4MOL    O33  727   2.822   1.987   4.878
    4MOL    H67  728   2.734   1.971   4.833
    4MOL    C41  729   2.984   2.140   4.783
    4MOL    H68  730   2.906   2.218   4.789
    4MOL    O34  731   3.061   2.143   4.904
    4MOL    H69  732   3.003   2.096   4.969
    4MOL    C42  733   3.070   2.168   4.658
    4MOL    H70  734   3.153   2.097   4.656
    4MOL    O35  735   3.114   2.305   4.667
    4MOL    C43  736   3.256   2.323   4.661
    4MOL    H71  737   3.308   2.227   4.662
    4MOL    O36  738   3.287   2.394   4.539
    4MOL    C44  739   3.239   2.531   4.526
    4MOL    H72  740   3.129   2.533   4.523
    4MOL    C45  741   3.295   2.587   4.392
    4MOL    H73  742   3.405   2.583   4.396
    4MOL    H74  743   3.266   2.692   4.381
    4MOL    O37  744   3.248   2.513   4.278
    4MOL    H75  745   3.273   2.564   4.198
    4MOL    C46  746   3.303   2.402   4.784
    4MOL    H76  747   3.412   2.411   4.776
    4MOL    O38  748   3.268   2.336   4.904
    4MOL    H77  749   3.173   2.309   4.896
    4MOL    C47  750   3.241   2.543   4.781
    4MOL    H78  751   3.132   2.534   4.779
    4MOL    O39  752   3.281   2.615   4.897
    4MOL    H79  753   3.287   2.545   4.967
    4MOL    C48  754   3.288   2.612   4.651
    4MOL    H80  755   3.398   2.615   4.650
    4MOL    O40  756   3.232   2.744   4.649
    5SOL     OW  757   0.221   0.618   0.111
    5SOL    HW1  758   0.171   0.569   0.176
    5SOL    HW2  759   0.248   0.551   0.048
    6SOL     OW  760   0.233   0.282   0.990
    6SOL    HW1  761   0.252   0.242   1.075
    6SOL    HW2  762   0.152   0.239   0.961
    7SOL     OW  763   0.001   0.408   0.662
    7SOL    HW1  764   5.208   0.430   0.668
    7SOL    HW2  765   0.002   0.317   0.632
    8SOL     OW  766   0.576   1.288   1.186
    8SOL    HW1  767   0.494   1.295   1.138
    8SOL    HW2  768   0.592   1.376   1.220
    9SOL     OW  769   1.564   1.513   0.708
    9SOL    HW1  770   1.521   1.491   0.791
    9SOL    HW2  771   1.493   1.516   0.645
   10SOL     OW  772   1.133   0.698   0.700
   10SOL    HW1  773   1.180   0.779   0.686
   10SOL    HW2  774   1.085   0.711   0.782
   11SOL     OW  775   1.772   0.598   0.230
   11SOL    HW1  776   1.727   0.605   0.147
   11SOL    HW2  777   1.731   0.524   0.274
   12SOL     OW  778   0.753   1.139   1.042
   12SOL    HW1  779   0.687   1.175   1.102
   12SOL    HW2  780   0.789   1.216   0.998
   13SOL     OW  781   0.868   0.774   1.823
   13SOL    HW1  782   0.861   0.845   1.886
   13SOL    HW2  783   0.893   0.817   1.741
   14SOL     OW  784   0.683   0.998   0.649
   14SOL    HW1  785   0.750   0.989   0.717
   14SOL    HW2  786   0.617   1.054   0.689
   15SOL     OW  787   0.711   1.150   1.815
   15SOL    HW1  788   0.759   1.228   1.843
   15SOL    HW2  789   0.630   1.184   1.777
   16SOL     OW  790   0.358   1.404   1.061
   16SOL    HW1  791   0.271   1.400   1.023
   16SOL    HW2  792   0.406   1.466   1.005
   17SOL     OW  793   1.460   1.500   1.357
   17SOL    HW1  794   1.513   1.580   1.366
   17SOL    HW2  795   1.395   1.507   1.427
   18SOL     OW  796   0.452   0.399   1.485
   18SOL    HW1  797   0.531   0.345   1.482
   18SOL    HW2  798   0.381   0.335   1.495
   19SOL     OW  799   1.609   0.451   0.739
   19SOL    HW1  800   1.530   0.470   0.688
   19SOL    HW2  801   1.623   0.530   0.791
   20SOL     OW  802   0.217   1.732   0.463
   20SOL    HW1  803   0.257   1.788   0.530
   20SOL    HW2  804   0.290   1.709   0.405
   21SOL     OW  805   1.137   1.342   1.693
   21SOL    HW1  806   1.178   1.336   1.780
   21SOL    HW2  807   1.085   1.262   1.686
   22SOL     OW  808   0.220   1.451   0.531
   22SOL    HW1  809   0.198   1.543   0.539
   22SOL    HW2  810   0.161   1.407   0.592
   23SOL     OW  811   0.256   1.077   0.878
   23SOL    HW1  812   0.262   0.990   0.916
   23SOL    HW2  813   0.200   1.126   0.938
   24SOL     OW  814   0.611   1.790   1.432
   24SOL    HW1  815   0.527   1.773   1.475
   24SOL    HW2  816   0.632   1.881   1.455
   25SOL     OW  817   0.617   0.958   0.142
   25SOL    HW1  818   0.573   1.037   0.111
   25SOL    HW2  819   0.676   0.988   0.211
   26SOL     OW  820   1.587   0.137   1.455
   26SOL    HW1  821   1.613   0.221   1.416
   26SOL    HW2  822   1.581   0.155   1.549
   27SOL     OW  823   0.128   0.640   0.583
   27SOL    HW1  824   0.093   0.555   0.611
   27SOL    HW2  825   0.098   0.701   0.650
   28SOL     OW  826   1.847   1.757   0.329
   28SOL    HW1  827   1.913   1.728   0.392
   28SOL    HW2  828   1.870   1.848   0.311
   29SOL     OW  829   0.032   1.581   0.104
   29SOL    HW1  830   0.023   1.496   0.148
   29SOL    HW2  831   0.008   1.645   0.171
   30SOL     OW  832   1.689   0.919   0.646
   30SOL    HW1  833   1.770   0.874   0.622
   30SOL    HW2  834   1.666   0.971   0.569
   31SOL     OW  835   1.647   1.104   0.435
   31SOL    HW1  836   1.728   1.115   0.386
   31SOL    HW2  837   1.653   1.167   0.506
   32SOL     OW  838   0.132   0.750   1.585
   32SOL    HW1  839   0.226   0.764   1.583
   32SOL    HW2  840   0.095   0.837   1.601
   33SOL     OW  841   0.617   1.388   0.733
   33SOL    HW1  842   0.569   1.306   0.744
   33SOL    HW2  843   0.599   1.414   0.643
   34SOL     OW  844   1.288   1.237   1.423
   34SOL    HW1  845   1.319   1.170   1.363
   34SOL    HW2  846   1.346   1.232   1.498
   35SOL     OW  847   0.818   0.031   0.530
   35SOL    HW1  848   0.846   0.118   0.499
   35SOL    HW2  849   0.723   0.033   0.523
   36SOL     OW  850   0.173   0.942   1.280
   36SOL    HW1  851   0.263   0.912   1.271
   36SOL    HW2  852   0.134   0.926   1.194
   37SOL     OW  853   1.507   1.009   0.214
   37SOL    HW1  854   1.444   0.945   0.248
   37SOL    HW2  855   1.560   1.033   0.289
   38SOL     OW  856   1.185   1.808   1.624
   38SOL    HW1  857   1.193   1.868   1.549
   38SOL    HW2  858   1.202   1.722   1.587
   39SOL     OW  859   0.331   0.281   1.797
   39SOL    HW1  860   0.389   0.339   1.846
   39SOL    HW2  861   0.250   0.280   1.848
   40SOL     OW  862   1.468   1.419   0.950
   40SOL    HW1  863   1.400   1.435   1.016
   40SOL    HW2  864   1.454   1.328   0.924
   41SOL     OW  865   1.658   1.745   0.582
   41SOL    HW1  866   1.637   1.716   0.493
   41SOL    HW2  867   1.635   1.671   0.638
   42SOL     OW  868   0.596   0.712   0.281
   42SOL    HW1  869   0.616   0.794   0.235
   42SOL    HW2  870   0.535   0.737   0.350
   43SOL     OW  871   1.276   0.350   0.932
   43SOL    HW1  872   1.186   0.321   0.944
   43SOL    HW2  873   1.327   0.299   0.996
   44SOL     OW  874   1.587   1.672   0.321
   44SOL    HW1  875   1.678   1.699   0.313
   44SOL    HW2  876   1.559   1.655   0.231
   45SOL     OW  877   0.794   0.619   1.450
   45SOL    HW1  878   0.765   0.597   1.538
   45SOL    HW2  879   0.753   0.552   1.394
   46SOL     OW  880   1.394   0.475   1.678
   46SOL    HW1  881   1.397   0.520   1.763
   46SOL    HW2  882   1.457   0.404   1.687
   47SOL     OW  883   0.953   0.887   1.584
   47SOL    HW1  884   1.008   0.817   1.547
   47SOL    HW2  885   0.905   0.922   1.508
   48SOL     OW  886   0.993   0.417   1.234
   48SOL    HW1  887   0.906   0.436   1.268
   48SOL    HW2  888   0.977   0.369   1.152
   49SOL     OW  889   1.054   0.699   0.428
   49SOL    HW1  890   1.070   0.691   0.522
   49SOL    HW2  891   0.971   0.653   0.414
   50SOL     OW  892   0.066   0.792   0.815
   50SOL    HW1  893   0.147   0.794   0.865
   50SOL    HW2  894   0.070   0.868   0.758
   51SOL     OW  895   0.128   1.886   1.585
   51SOL    HW1  896   0.132   1.860   1.677
   51SOL    HW2  897   0.060   1.829   1.548
   52SOL     OW  898   0.887   0.360   0.203
   52SOL    HW1  899   0.931   0.407   0.133
   52SOL    HW2  900   0.869   0.273   0.166
   53SOL     OW  901   1.706   0.572   1.828
   53SOL    HW1  902   1.669   0.646   1.779
   53SOL    HW2  903   1.737   0.512   1.761
   54SOL     OW  904   1.378   1.142   0.541
   54SOL    HW1  905   1.456   1.129   0.487
   54SOL    HW2  906   1.324   1.204   0.492
   55SOL     OW  907   0.535   0.202   0.883
   55SOL    HW1  908   0.552   0.222   0.975
   55SOL    HW2  909   0.548   0.286   0.838
   56SOL     OW  910   1.002   1.443   0.471
   56SOL    HW1  911   0.966   1.517   0.422
   56SOL    HW2  912   0.981   1.464   0.562
   57SOL     OW  913   0.358   1.803   0.870
   57SOL    HW1  914   0.398   1.717   0.883
   57SOL    HW2  915   0.423   1.865   0.903
   58SOL     OW  916   1.800   1.056   0.869
   58SOL    HW1  917   1.747   1.035   0.793
   58SOL    HW2  918   1.737   1.062   0.942
   59SOL     OW  919   1.228   1.539   1.513
   59SOL    HW1  920   1.214   1.466   1.574
   59SOL    HW2  921   1.162   1.525   1.445
   60SOL     OW  922   0.326   0.949   0.253
   60SOL    HW1  923   0.406   0.966   0.204
   60SOL    HW2  924   0.318   0.854   0.254
   61SOL     OW  925   1.480   0.746   0.725
   61SOL    HW1  926   1.473   0.704   0.811
   61SOL    HW2  927   1.557   0.801   0.732
   62SOL     OW  928   0.466   1.265   1.738
   62SOL    HW1  929   0.439   1.271   1.646
   62SOL    HW2  930   0.384   1.265   1.787
   63SOL     OW  931   1.107   1.781   0.222
   63SOL    HW1  932   1.050   1.741   0.288
   63SOL    HW2  933   1.128   1.710   0.162
   64SOL     OW  934   0.197   0.280   1.495
   64SOL    HW1  935   0.161   0.368   1.486
   64SOL    HW2  936   0.208   0.268   1.589
   65SOL     OW  937   1.634   1.372   0.083
   65SOL    HW1  938   1.593   1.459   0.083
   65SOL    HW2  939   1.563   1.311   0.064
   66SOL     OW  940   0.470   1.732   0.325
   66SOL    HW1  941   0.514   1.793   0.385
   66SOL    HW2  942   0.539   1.706   0.264
   67SOL     OW  943   1.418   0.101   0.447
   67SOL    HW1  944   1.412   0.080   0.353
   67SOL    HW2  945   1.509   0.127   0.460
   68SOL     OW  946   0.278   1.801   1.209
   68SOL    HW1  947   0.306   1.722   1.255
   68SOL    HW2  948   0.224   1.768   1.137
   69SOL     OW  949   0.939   1.699   0.898
   69SOL    HW1  950   1.017   1.648   0.919
   69SOL    HW2  951   0.896   1.649   0.829
   70SOL     OW  952   0.379   0.698   0.473
   70SOL    HW1  953   0.411   0.609   0.485
   70SOL    HW2  954   0.288   0.695   0.503
   71SOL     OW  955   1.537   0.228   1.722
   71SOL    HW1  956   1.545   0.245   1.816
   71SOL    HW2  957   1.460   0.171   1.715
   72SOL     OW  958   0.625   0.139   0.122
   72SOL    HW1  959   0.716   0.111   0.133
   72SOL    HW2  960   0.597   0.098   0.040
   73SOL     OW  961   0.779   0.312   1.767
   73SOL    HW1  962   0.839   0.239   1.766
   73SOL    HW2  963   0.734   0.306   1.852
   74SOL     OW  964   0.877   1.522   1.193
   74SOL    HW1  965   0.860   1.485   1.107
   74SOL    HW2  966   0.947   1.468   1.230
   75SOL     OW  967   1.340   0.589   1.432
   75SOL    HW1  968   1.371   0.558   1.518
   75SOL    HW2  969   1.376   0.677   1.424
   76SOL     OW  970   0.817   1.392   0.942
   76SOL    HW1  971   0.901   1.381   0.898
   76SOL    HW2  972   0.753   1.396   0.870
   77SOL     OW  973   0.928   0.511   0.902
   77SOL    HW1  974   0.904   0.502   0.809
   77SOL    HW2  975   0.957   0.423   0.927
   78SOL     OW  976   0.550   0.057   0.508
   78SOL    HW1  977   0.470   0.057   0.561
   78SOL    HW2  978   0.535   0.127   0.444
   79SOL     OW  979   1.433   1.200   0.035
   79SOL    HW1  980   1.456   1.126   0.092
   79SOL    HW2  981   1.345   1.225   0.064
   80SOL     OW  982   0.321   0.077   0.198
   80SOL    HW1  983   0.385   0.145   0.178
   80SOL    HW2  984   0.369   5.295   0.186
   81SOL     OW  985   0.947   0.262   0.454
   81SOL    HW1  986   0.921   0.306   0.373
   81SOL    HW2  987   1.039   0.284   0.465
   82SOL     OW  988   1.081   0.683   1.459
   82SOL    HW1  989   1.013   0.615   1.463
   82SOL    HW2  990   1.163   0.634   1.452
   83SOL     OW  991   1.222   1.570   0.794
   83SOL    HW1  992   1.237   1.637   0.727
   83SOL    HW2  993   1.291   1.586   0.859
   84SOL     OW  994   0.469   1.153   0.729
   84SOL    HW1  995   0.401   1.131   0.793
   84SOL    HW2  996   0.428   1.138   0.644
   85SOL     OW  997   1.267   1.793   0.609
   85SOL    HW1  998   1.317   1.857   0.558
   85SOL    HW2  999   1.198   1.845   0.652
   86SOL     OW 1000   1.029   0.525   0.033
   86SOL    HW1 1001   0.993   0.609   0.005
   86SOL    HW2 1002   1.094   0.548   0.100
   87SOL     OW 1003   0.102   0.528   1.414
   87SOL    HW1 1004   0.182   0.548   1.365
   87SOL    HW2 1005   0.080   0.610   1.459
   88SOL     OW 1006   0.559   0.240   1.159
   88SOL    HW1 1007   0.592   0.154   1.185
   88SOL    HW2 1008   0.467   0.239   1.183
   89SOL     OW 1009   0.867   0.461   0.640
   89SOL    HW1 1010   0.824   0.515   0.573
   89SOL    HW2 1011   0.889   0.380   0.594
   90SOL     OW 1012   0.978   0.062   0.764
   90SOL    HW1 1013   0.915   0.059   0.692
   90SOL    HW2 1014   0.987   5.270   0.792
   91SOL     OW 1015   1.438   1.162   0.857
   91SOL    HW1 1016   1.367   1.097   0.856
   91SOL    HW2 1017   1.462   1.172   0.764
   92SOL     OW 1018   1.466   0.608   0.974
   92SOL    HW1 1019   1.414   0.527   0.978
   92SOL    HW2 1020   1.526   0.601   1.049
   93SOL     OW 1021   1.848   0.813   0.387
   93SOL    HW1 1022   1.900   0.761   0.448
   93SOL    HW2 1023   1.818   0.750   0.322
   94SOL     OW 1024   0.484   1.441   0.173
   94SOL    HW1 1025   0.410   1.403   0.222
   94SOL    HW2 1026   0.490   1.387   0.094
   95SOL     OW 1027   1.673   1.265   0.646
   95SOL    HW1 1028   1.768   1.268   0.660
   95SOL    HW2 1029   1.644   1.354   0.667
   96SOL     OW 1030   1.399   0.575   0.088
   96SOL    HW1 1031   1.336   0.558   0.158
   96SOL    HW2 1032   1.451   0.495   0.083
   97SOL     OW 1033   0.522   0.269   0.328
   97SOL    HW1 1034   0.567   0.214   0.263
   97SOL    HW2 1035   0.505   0.351   0.282
   98SOL     OW 1036   1.751   1.241   1.570
   98SOL    HW1 1037   1.838   1.201   1.566
   98SOL    HW2 1038   1.767   1.331   1.598
   99SOL     OW 1039   1.057   1.353   1.333
   99SOL    HW1 1040   0.982   1.322   1.384
   99SOL    HW2 1041   1.133   1.312   1.374
  100SOL     OW 1042   1.609   1.626   1.656
  100SOL    HW1 1043   1.601   1.660   1.566
  100SOL    HW2 1044   1.691   1.578   1.656
  101SOL     OW 1045   1.131   1.206   1.104
  101SOL    HW1 1046   1.071   1.243   1.169
  101SOL    HW2 1047   1.100   1.239   1.020
  102SOL     OW 1048   1.626   1.097   1.077
  102SOL    HW1 1049   1.621   1.159   1.149
  102SOL    HW2 1050   1.548   1.115   1.024
  103SOL     OW 1051   0.905   0.108   1.386
  103SOL    HW1 1052   0.935   0.074   1.303
  103SOL    HW2 1053   0.982   0.150   1.425
  104SOL     OW 1054   0.984   1.115   1.723
  104SOL    HW1 1055   0.893   1.132   1.744
  104SOL    HW2 1056   0.982   1.037   1.667
  105SOL     OW 1057   0.717   1.064   0.382
  105SOL    HW1 1058   0.699   1.045   0.474
  105SOL    HW2 1059   0.794   1.012   0.361
  106SOL     OW 1060   0.421   0.823   1.253
  106SOL    HW1 1061   0.490   0.829   1.319
  106SOL    HW2 1062   0.387   0.734   1.262
  107SOL     OW 1063   1.266   0.378   1.274
  107SOL    HW1 1064   1.299   0.455   1.321
  107SOL    HW2 1065   1.175   0.400   1.252
  108SOL     OW 1066   0.103   1.623   1.366
  108SOL    HW1 1067   0.081   1.628   1.273
  108SOL    HW2 1068   0.190   1.582   1.368
  109SOL     OW 1069   0.344   1.111   0.486
  109SOL    HW1 1070   0.340   1.190   0.432
  109SOL    HW2 1071   0.356   1.040   0.423
  110SOL     OW 1072   0.554   0.535   0.859
  110SOL    HW1 1073   0.569   0.594   0.785
  110SOL    HW2 1074   0.620   0.561   0.924
  111SOL     OW 1075   1.247   1.347   0.394
  111SOL    HW1 1076   1.302   1.420   0.423
  111SOL    HW2 1077   1.159   1.370   0.426
  112SOL     OW 1078   1.284   1.459   1.147
  112SOL    HW1 1079   1.340   1.462   1.225
  112SOL    HW2 1080   1.228   1.382   1.160
  113SOL     OW 1081   1.580   0.625   0.483
  113SOL    HW1 1082   1.530   0.672   0.550
  113SOL    HW2 1083   1.613   0.693   0.425
  114SOL     OW 1084   0.352   1.520   1.309
  114SOL    HW1 1085   0.341   1.476   1.225
  114SOL    HW2 1086   0.446   1.537   1.315
  115SOL     OW 1087   0.417   0.740   1.603
  115SOL    HW1 1088   0.475   0.788   1.545
  115SOL    HW2 1089   0.462   0.657   1.619
  116SOL     OW 1090   1.604   0.779   1.683
  116SOL    HW1 1091   1.518   0.821   1.677
  116SOL    HW2 1092   1.656   0.822   1.615
  117SOL     OW 1093   1.051   0.119   1.786
  117SOL    HW1 1094   1.078   0.198   1.739
  117SOL    HW2 1095   1.054   0.050   1.720
  118SOL     OW 1096   0.483   0.060   1.737
  118SOL    HW1 1097   0.423   5.293   1.704
  118SOL    HW2 1098   0.427   0.136   1.753
  119SOL     OW 1099   0.586   0.874   1.033
  119SOL    HW1 1100   0.618   0.964   1.032
  119SOL    HW2 1101   0.529   0.869   1.109
  120SOL     OW 1102   1.355   0.859   1.027
  120SOL    HW1 1103   1.271   0.847   0.983
  120SOL    HW2 1104   1.397   0.773   1.020
  121SOL     OW 1105   1.200   0.527   0.269
  121SOL    HW1 1106   1.210   0.448   0.322
  121SOL    HW2 1107   1.158   0.590   0.327
  122SOL     OW 1108   0.304   0.204   1.246
  122SOL    HW1 1109   0.261   0.236   1.326
  122SOL    HW2 1110   0.297   0.109   1.252
  123SOL     OW 1111   0.064   1.316   1.279
  123SOL    HW1 1112   0.091   1.258   1.351
  123SOL    HW2 1113   5.293   1.368   1.315
  124SOL     OW 1114   0.726   0.632   1.059
  124SOL    HW1 1115   0.800   0.616   1.000
  124SOL    HW2 1116   0.696   0.720   1.037
  125SOL     OW 1117   1.736   0.959   1.854
  125SOL    HW1 1118   1.691   0.895   1.799
  125SOL    HW2 1119   1.676   0.975   1.927
  126SOL     OW 1120   0.319   0.066   0.657
  126SOL    HW1 1121   0.300   0.160   0.662
  126SOL    HW2 1122   0.327   0.039   0.749
  127SOL     OW 1123   1.625   0.381   0.365
  127SOL    HW1 1124   1.650   0.313   0.428
  127SOL    HW2 1125   1.599   0.455   0.420
  128SOL     OW 1126   1.028   0.759   0.960
  128SOL    HW1 1127   1.023   0.776   1.054
  128SOL    HW2 1128   1.001   0.668   0.950
  129SOL     OW 1129   0.981   1.566   1.719
  129SOL    HW1 1130   0.966   1.610   1.635
  129SOL    HW2 1131   1.026   1.484   1.695
  130SOL     OW 1132   1.853   1.504   1.605
  130SOL    HW1 1133   1.873   1.530   1.515
  130SOL    HW2 1134   1.934   1.520   1.653
  131SOL     OW 1135   0.354   0.917   1.807
  131SOL    HW1 1136   0.435   0.938   1.854
  131SOL    HW2 1137   0.381   0.852   1.741
  132SOL     OW 1138   1.517   0.309   0.126
  132SOL    HW1 1139   1.485   0.219   0.138
  132SOL    HW2 1140   1.559   0.330   0.209
  133SOL     OW 1141   1.296   0.822   0.021
  133SOL    HW1 1142   1.334   0.736   0.037
  133SOL    HW2 1143   1.358   0.865   8.042
  134SOL     OW 1144   1.067   1.336   0.855
  134SOL    HW1 1145   1.071   1.264   0.792
  134SOL    HW2 1146   1.127   1.402   0.820
  135SOL     OW 1147   0.313   0.808   0.949
  135SOL    HW1 1148   0.406   0.827   0.945
  135SOL    HW2 1149   0.307   0.718   0.980
  136SOL     OW 1150   0.336   0.527   1.015
  136SOL    HW1 1151   0.298   0.441   1.001
  136SOL    HW2 1152   0.411   0.531   0.956
  137SOL     OW 1153   1.135   0.377   1.690
  137SOL    HW1 1154   1.087   0.432   1.752
  137SOL    HW2 1155   1.222   0.417   1.686
  138SOL     OW 1156   1.132   0.222   1.467
  138SOL    HW1 1157   1.136   0.282   1.542
  138SOL    HW2 1158   1.188   0.263   1.401
  139SOL     OW 1159   0.012   1.324   0.201
  139SOL    HW1 1160   5.242   1.306   0.138
  139SOL    HW2 1161   0.015   1.246   0.256
  140SOL     OW 1162   0.095   1.783   0.950
  140SOL    HW1 1163   0.060   1.713   0.895
  140SOL    HW2 1164   0.183   1.799   0.916
  141SOL     OW 1165   0.504   1.573   0.908
  141SOL    HW1 1166   0.571   1.639   0.928
  141SOL    HW2 1167   0.547   1.513   0.847
  142SOL     OW 1168   0.980   0.791   1.225
  142SOL    HW1 1169   1.037   0.769   1.299
  142SOL    HW2 1170   0.895   0.752   1.249
  143SOL     OW 1171   0.036   0.573   1.123
  143SOL    HW1 1172   0.115   0.539   1.080
  143SOL    HW2 1173   0.036   0.532   1.209
  144SOL     OW 1174   0.166   0.518   1.719
  144SOL    HW1 1175   0.250   0.496   1.680
  144SOL    HW2 1176   0.137   0.596   1.672
  145SOL     OW 1177   1.378   0.937   1.658
  145SOL    HW1 1178   1.400   1.030   1.655
  145SOL    HW2 1179   1.375   0.910   1.566
  146SOL     OW 1180   0.819   0.571   0.369
  146SOL    HW1 1181   0.829   0.499   0.307
  146SOL    HW2 1182   0.742   0.619   0.338
  147SOL     OW 1183   1.642   0.601   1.184
  147SOL    HW1 1184   1.631   0.542   1.258
  147SOL    HW2 1185   1.729   0.582   1.150
  148SOL     OW 1186   0.256   1.555   1.734
  148SOL    HW1 1187   0.234   1.619   1.802
  148SOL    HW2 1188   0.251   1.470   1.778
  149SOL     OW 1189   0.703   0.451   1.259
  149SOL    HW1 1190   0.651   0.378   1.227
  149SOL    HW2 1191   0.700   0.516   1.188
  150SOL     OW 1192   0.927   1.679   1.469
  150SOL    HW1 1193   0.901   1.642   1.384
  150SOL    HW2 1194   0.920   1.774   1.457
  151SOL     OW 1195   0.470   0.491   0.175
  151SOL    HW1 1196   0.538   0.555   0.195
  151SOL    HW2 1197   0.388   0.536   0.195
  152SOL     OW 1198   0.147   1.137   1.470
  152SOL    HW1 1199   0.144   1.090   1.554
  152SOL    HW2 1200   0.157   1.069   1.405
  153SOL     OW 1201   1.324   1.046   1.222
  153SOL    HW1 1202   1.346   0.982   1.154
  153SOL    HW2 1203   1.255   1.099   1.183
  154SOL     OW 1204   1.306   0.848   0.308
  154SOL    HW1 1205   1.229   0.817   0.357
  154SOL    HW2 1206   1.282   0.835   0.217
  155SOL     OW 1207   1.774   1.742   1.152
  155SOL    HW1 1208   1.835   1.767   1.082
  155SOL    HW2 1209   1.749   1.652   1.130
  156SOL     OW 1210   1.241   1.733   1.110
  156SOL    HW1 1211   1.323   1.755   1.067
  156SOL    HW2 1212   1.248   1.639   1.129
  157SOL     OW 1213   0.082   1.212   1.027
  157SOL    HW1 1214   0.069   1.240   1.118
  157SOL    HW2 1215   5.294   1.203   0.992
  158SOL     OW 1216   0.678   1.668   1.733
  158SOL    HW1 1217   0.620   1.744   1.725
  158SOL    HW2 1218   0.743   1.681   1.664
  159SOL     OW 1219   0.893   0.085   0.139
  159SOL    HW1 1220   0.944   0.074   0.059
  159SOL    HW2 1221   0.906   0.004   0.188
  160SOL     OW 1222   1.711   0.151   0.502
  160SOL    HW1 1223   1.785   0.130   0.445
  160SOL    HW2 1224   1.705   0.077   0.562
  161SOL     OW 1225   1.390   1.568   0.488
  161SOL    HW1 1226   1.453   1.602   0.424
  161SOL    HW2 1227   1.342   1.645   0.517
  162SOL     OW 1228   0.147   1.798   1.842
  162SOL    HW1 1229   0.092   1.735   1.890
  162SOL    HW2 1230   0.195   1.844   1.911
  163SOL     OW 1231   1.277   0.927   0.672
  163SOL    HW1 1232   1.351   0.866   0.679
  163SOL    HW2 1233   1.311   0.999   0.618
  164SOL     OW 1234   0.811   1.274   1.428
  164SOL    HW1 1235   0.782   1.314   1.510
  164SOL    HW2 1236   0.742   1.294   1.366
  165SOL     OW 1237   0.678   1.622   0.156
  165SOL    HW1 1238   0.683   1.631   0.061
  165SOL    HW2 1239   0.617   1.550   0.170
  166SOL     OW 1240   1.623   1.727   1.391
  166SOL    HW1 1241   1.674   1.733   1.310
  166SOL    HW2 1242   1.609   1.818   1.418
  167SOL     OW 1243   1.847   0.154   0.956
  167SOL    HW1 1244   1.841   0.058   0.953
  167SOL    HW2 1245   1.761   0.184   0.926
  168SOL     OW 1246   0.271   0.330   0.718
  168SOL    HW1 1247   0.183   0.365   0.704
  168SOL    HW2 1248   0.276   0.314   0.812
  169SOL     OW 1249   1.158   1.579   0.051
  169SOL    HW1 1250   1.171   1.487   0.073
  169SOL    HW2 1251   1.171   1.584   8.036
  170SOL     OW 1252   0.824   1.006   1.373
  170SOL    HW1 1253   0.868   1.000   1.288
  170SOL    HW2 1254   0.822   1.099   1.394
  171SOL     OW 1255   0.919   0.913   0.298
  171SOL    HW1 1256   0.972   0.937   0.222
  171SOL    HW2 1257   0.967   0.842   0.340
  172SOL     OW 1258   1.509   1.622   0.062
  172SOL    HW1 1259   1.414   1.624   0.050
  172SOL    HW2 1260   1.545   1.627   8.053
  173SOL     OW 1261   0.367   1.304   1.493
  173SOL    HW1 1262   0.359   1.378   1.433
  173SOL    HW2 1263   0.291   1.249   1.474
  174SOL     OW 1264   1.610   1.283   1.280
  174SOL    HW1 1265   1.669   1.270   1.354
  174SOL    HW2 1266   1.549   1.351   1.310
  175SOL     OW 1267   1.055   1.108   0.708
  175SOL    HW1 1268   0.984   1.057   0.746
  175SOL    HW2 1269   1.118   1.043   0.678
  176SOL     OW 1270   1.018   0.244   0.969
  176SOL    HW1 1271   0.998   0.198   0.888
  176SOL    HW2 1272   1.012   0.176   1.037
  177SOL     OW 1273   0.603   1.486   0.478
  177SOL    HW1 1274   0.647   1.437   0.408
  177SOL    HW2 1275   0.535   1.535   0.433
  178SOL     OW 1276   1.726   0.386   1.377
  178SOL    HW1 1277   1.797   0.451   1.377
  178SOL    HW2 1278   1.757   0.316   1.320
  179SOL     OW 1279   0.271   1.324   0.300
  179SOL    HW1 1280   0.185   1.332   0.257
  179SOL    HW2 1281   0.261   1.372   0.382
  180SOL     OW 1282   0.118   1.016   1.716
  180SOL    HW1 1283   0.047   0.983   1.771
  180SOL    HW2 1284   0.197   0.986   1.759
  181SOL     OW 1285   0.676   0.218   1.492
  181SOL    HW1 1286   0.759   0.201   1.447
  181SOL    HW2 1287   0.701   0.263   1.572
  182SOL     OW 1288   0.084   0.356   8.075
  182SOL    HW1 1289   0.007   0.319   0.039
  182SOL    HW2 1290   0.058   0.445   8.052
  183SOL     OW 1291   1.428   0.858   1.399
  183SOL    HW1 1292   1.379   0.919   1.344
  183SOL    HW2 1293   1.517   0.860   1.364
  184SOL     OW 1294   0.081   0.143   0.285
  184SOL    HW1 1295   0.080   0.239   0.281
  184SOL    HW2 1296   0.170   0.119   0.262
  185SOL     OW 1297   1.184   1.315   0.121
  185SOL    HW1 1298   1.088   1.306   0.120
  185SOL    HW2 1299   1.206   1.317   0.215
  186SOL     OW 1300   0.620   0.831   1.436
  186SOL    HW1 1301   0.676   0.907   1.420
  186SOL    HW2 1302   0.681   0.757   1.443
  187SOL     OW 1303   1.483   1.779   0.980
  187SOL    HW1 1304   1.505   1.840   0.911
  187SOL    HW2 1305   1.567   1.757   1.022
  188SOL     OW 1306   0.713   0.573   1.702
  188SOL    HW1 1307   0.757   0.636   1.759
  188SOL    HW2 1308   0.742   0.488   1.733
  189SOL     OW 1309   1.473   1.198   1.631
  189SOL    HW1 1310   1.460   1.212   1.725
  189SOL    HW2 1311   1.566   1.214   1.616
  190SOL     OW 1312   0.375   1.744   1.565
  190SOL    HW1 1313   0.293   1.789   1.548
  190SOL    HW2 1314   0.349   1.663   1.609
  191SOL     OW 1315   1.668   0.881   1.255
  191SOL    HW1 1316   1.662   0.795   1.212
  191SOL    HW2 1317   1.658   0.944   1.184
  192SOL     OW 1318   1.216   0.328   0.473
  192SOL    HW1 1319   1.274   0.253   0.459
  192SOL    HW2 1320   1.255   0.374   0.547
  193SOL     OW 1321   0.587   0.735   0.670
  193SOL    HW1 1322   0.627   0.822   0.657
  193SOL    HW2 1323   0.517   0.731   0.604
  194SOL     OW 1324   1.765   0.362   1.649
  194SOL    HW1 1325   1.746   0.378   1.556
  194SOL    HW2 1326   1.693   0.307   1.679
  195SOL     OW 1327   1.746   0.934   1.512
  195SOL    HW1 1328   1.740   1.028   1.525
  195SOL    HW2 1329   1.730   0.921   1.418
  196SOL     OW 1330   0.897   1.370   0.041
  196SOL    HW1 1331   0.835   1.360   0.113
  196SOL    HW2 1332   0.877   1.456   0.004
  197SOL     OW 1333   0.664   1.792   0.941
  197SOL    HW1 1334   0.644   1.883   0.919
  197SOL    HW2 1335   0.760   1.786   0.935
  198SOL     OW 1336   0.868   0.968   0.854
  198SOL    HW1 1337   0.919   0.896   0.893
  198SOL    HW2 1338   0.833   1.015   0.929
  199SOL     OW 1339   1.076   0.974   0.085
  199SOL    HW1 1340   1.068   1.040   0.016
  199SOL    HW2 1341   1.154   0.923   0.060
  200SOL     OW 1342   1.852   1.554   0.844
  200SOL    HW1 1343   1.773   1.542   0.791
  200SOL    HW2 1344   1.844   1.488   0.913
  201SOL     OW 1345   0.227   1.304   1.861
  201SOL    HW1 1346   0.158   1.242   1.835
  201SOL    HW2 1347   0.215   1.314   1.956
  202SOL     OW 1348   0.099   1.235   0.661
  202SOL    HW1 1349   0.100   1.189   0.746
  202SOL    HW2 1350   0.174   1.200   0.614
  203SOL     OW 1351   0.682   1.404   1.630
  203SOL    HW1 1352   0.602   1.362   1.660
  203SOL    HW2 1353   0.678   1.492   1.666
  204SOL     OW 1354   1.811   0.175   1.231
  204SOL    HW1 1355   1.775   0.086   1.233
  204SOL    HW2 1356   1.833   0.190   1.139
  205SOL     OW 1357   0.430   0.441   0.521
  205SOL    HW1 1358   0.467   0.367   0.472
  205SOL    HW2 1359   0.386   0.400   0.596
  206SOL     OW 1360   1.699   1.488   1.094
  206SOL    HW1 1361   1.619   1.466   1.047
  206SOL    HW2 1362   1.708   1.419   1.160
  207SOL     OW 1363   0.339   0.563   1.289
  207SOL    HW1 1364   0.395   0.505   1.339
  207SOL    HW2 1365   0.351   0.536   1.198
  208SOL     OW 1366   0.830   1.577   0.677
  208SOL    HW1 1367   0.814   1.636   0.603
  208SOL    HW2 1368   0.754   1.519   0.678
  209SOL     OW 1369   1.427   0.219   1.116
  209SOL    HW1 1370   1.463   0.144   1.164
  209SOL    HW2 1371   1.379   0.268   1.183
  210SOL     OW 1372   1.001   0.019   1.139
  210SOL    HW1 1373   0.951   5.252   1.092
  210SOL    HW2 1374   1.087   5.280   1.153
  211SOL     OW 1375   0.773   1.326   0.308
  211SOL    HW1 1376   0.743   1.237   0.326
  211SOL    HW2 1377   0.853   1.335   0.360
  212SOL     OW 1378   0.623   1.555   1.288
  212SOL    HW1 1379   0.624   1.637   1.337
  212SOL    HW2 1380   0.710   1.550   1.249
  213SOL     OW 1381   1.397   0.050   0.167
  213SOL    HW1 1382   1.383   0.027   0.075
  213SOL    HW2 1383   1.311   0.080   0.197
  214SOL     OW 1384   1.309   0.468   0.689
  214SOL    HW1 1385   1.251   0.545   0.691
  214SOL    HW2 1386   1.297   0.427   0.774
  215SOL     OW 1387   1.595   0.215   0.884
  215SOL    HW1 1388   1.530   0.227   0.952
  215SOL    HW2 1389   1.588   0.294   0.829
  216SOL     OW 1390   0.048   1.072   0.321
  216SOL    HW1 1391   0.136   1.046   0.293
  216SOL    HW2 1392   5.297   0.991   0.320
  217SOL     OW 1393   0.885   1.655   0.346
  217SOL    HW1 1394   0.815   1.640   0.282
  217SOL    HW2 1395   0.854   1.731   0.397
  218SOL     OW 1396   0.232   0.632   1.980
  218SOL    HW1 1397   0.159   0.601   2.034
  218SOL    HW2 1398   0.210   0.603   1.892
  219SOL     OW 1399   0.234   0.281   2.852
  219SOL    HW1 1400   0.252   0.242   2.937
  219SOL    HW2 1401   0.153   0.239   2.823
  220SOL     OW 1402   5.299   0.407   2.528
  220SOL    HW1 1403   5.206   0.430   2.531
  220SOL    HW2 1404   0.001   0.317   2.496
  221SOL     OW 1405   0.576   1.288   3.048
  221SOL    HW1 1406   0.494   1.295   3.000
  221SOL    HW2 1407   0.592   1.376   3.082
  222SOL     OW 1408   1.564   1.512   2.570
  222SOL    HW1 1409   1.522   1.491   2.652
  222SOL    HW2 1410   1.493   1.516   2.506
  223SOL     OW 1411   1.132   0.698   2.561
  223SOL    HW1 1412   1.180   0.779   2.548
  223SOL    HW2 1413   1.084   0.711   2.643
  224SOL     OW 1414   1.769   0.604   2.089
  224SOL    HW1 1415   1.747   0.597   1.996
  224SOL    HW2 1416   1.733   0.525   2.128
  225SOL     OW 1417   0.752   1.139   2.903
  225SOL    HW1 1418   0.687   1.175   2.964
  225SOL    HW2 1419   0.789   1.216   2.860
  226SOL     OW 1420   0.868   0.774   3.685
  226SOL    HW1 1421   0.861   0.845   3.748
  226SOL    HW2 1422   0.893   0.817   3.603
  227SOL     OW 1423   0.685   1.000   2.508
  227SOL    HW1 1424   0.752   0.990   2.576
  227SOL    HW2 1425   0.618   1.055   2.549
  228SOL     OW 1426   0.711   1.150   3.677
  228SOL    HW1 1427   0.759   1.228   3.705
  228SOL    HW2 1428   0.630   1.184   3.639
  229SOL     OW 1429   0.359   1.403   2.922
  229SOL    HW1 1430   0.269   1.405   2.888
  229SOL    HW2 1431   0.407   1.465   2.867
  230SOL     OW 1432   1.460   1.500   3.218
  230SOL    HW1 1433   1.514   1.578   3.227
  230SOL    HW2 1434   1.396   1.507   3.289
  231SOL     OW 1435   0.452   0.399   3.346
  231SOL    HW1 1436   0.531   0.345   3.344
  231SOL    HW2 1437   0.381   0.336   3.357
  232SOL     OW 1438   1.609   0.451   2.601
  232SOL    HW1 1439   1.534   0.472   2.546
  232SOL    HW2 1440   1.624   0.530   2.652
  233SOL     OW 1441   0.234   1.714   2.339
  233SOL    HW1 1442   0.264   1.784   2.397
  233SOL    HW2 1443   0.297   1.712   2.267
  234SOL     OW 1444   1.137   1.342   3.555
  234SOL    HW1 1445   1.178   1.336   3.642
  234SOL    HW2 1446   1.085   1.262   3.548
  235SOL     OW 1447   0.221   1.446   2.403
  235SOL    HW1 1448   0.219   1.541   2.395
  235SOL    HW2 1449   0.150   1.425   2.463
  236SOL     OW 1450   0.252   1.076   2.736
  236SOL    HW1 1451   0.263   0.990   2.776
  236SOL    HW2 1452   0.199   1.126   2.798
  237SOL     OW 1453   0.611   1.790   3.295
  237SOL    HW1 1454   0.527   1.773   3.337
  237SOL    HW2 1455   0.632   1.881   3.317
  238SOL     OW 1456   0.580   0.985   1.999
  238SOL    HW1 1457   0.628   1.031   1.930
  238SOL    HW2 1458   0.621   1.015   2.080
  239SOL     OW 1459   1.586   0.137   3.317
  239SOL    HW1 1460   1.613   0.221   3.278
  239SOL    HW2 1461   1.581   0.155   3.411
  240SOL     OW 1462   0.124   0.635   2.440
  240SOL    HW1 1463   0.090   0.553   2.474
  240SOL    HW2 1464   0.098   0.701   2.504
  241SOL     OW 1465   1.842   1.757   2.195
  241SOL    HW1 1466   1.909   1.729   2.259
  241SOL    HW2 1467   1.864   1.848   2.176
  242SOL     OW 1468   0.039   1.599   1.995
  242SOL    HW1 1469   0.025   1.508   2.021
  242SOL    HW2 1470   5.280   1.649   2.053
  243SOL     OW 1471   1.689   0.918   2.505
  243SOL    HW1 1472   1.771   0.875   2.483
  243SOL    HW2 1473   1.667   0.969   2.427
  244SOL     OW 1474   1.647   1.105   2.291
  244SOL    HW1 1475   1.733   1.109   2.250
  244SOL    HW2 1476   1.653   1.167   2.364
  245SOL     OW 1477   0.132   0.750   3.446
  245SOL    HW1 1478   0.227   0.764   3.444
  245SOL    HW2 1479   0.095   0.837   3.464
  246SOL     OW 1480   0.617   1.387   2.596
  246SOL    HW1 1481   0.569   1.305   2.607
  246SOL    HW2 1482   0.599   1.414   2.506
  247SOL     OW 1483   1.287   1.237   3.285
  247SOL    HW1 1484   1.319   1.170   3.225
  247SOL    HW2 1485   1.346   1.232   3.360
  248SOL     OW 1486   0.817   0.031   2.392
  248SOL    HW1 1487   0.844   0.119   2.366
  248SOL    HW2 1488   0.722   0.032   2.384
  249SOL     OW 1489   0.173   0.942   3.142
  249SOL    HW1 1490   0.263   0.912   3.134
  249SOL    HW2 1491   0.134   0.925   3.056
  250SOL     OW 1492   1.531   0.995   2.061
  250SOL    HW1 1493   1.461   0.938   2.094
  250SOL    HW2 1494   1.573   1.030   2.140
  251SOL     OW 1495   1.187   1.809   3.486
  251SOL    HW1 1496   1.192   1.868   3.411
  251SOL    HW2 1497   1.202   1.722   3.450
  252SOL     OW 1498   0.331   0.281   3.659
  252SOL    HW1 1499   0.389   0.338   3.708
  252SOL    HW2 1500   0.250   0.280   3.709
  253SOL     OW 1501   1.466   1.420   2.812
  253SOL    HW1 1502   1.399   1.435   2.878
  253SOL    HW2 1503   1.454   1.328   2.785
  254SOL     OW 1504   1.656   1.744   2.440
  254SOL    HW1 1505   1.638   1.713   2.351
  254SOL    HW2 1506   1.634   1.670   2.496
  255SOL     OW 1507   0.593   0.719   2.129
  255SOL    HW1 1508   0.601   0.801   2.080
  255SOL    HW2 1509   0.529   0.738   2.197
  256SOL     OW 1510   1.277   0.350   2.793
  256SOL    HW1 1511   1.187   0.321   2.806
  256SOL    HW2 1512   1.328   0.299   2.857
  257SOL     OW 1513   1.580   1.671   2.172
  257SOL    HW1 1514   1.670   1.700   2.164
  257SOL    HW2 1515   1.552   1.655   2.081
  258SOL     OW 1516   0.794   0.618   3.311
  258SOL    HW1 1517   0.765   0.597   3.400
  258SOL    HW2 1518   0.753   0.552   3.256
  259SOL     OW 1519   1.394   0.475   3.540
  259SOL    HW1 1520   1.397   0.520   3.625
  259SOL    HW2 1521   1.457   0.404   3.548
  260SOL     OW 1522   0.953   0.887   3.446
  260SOL    HW1 1523   1.008   0.817   3.409
  260SOL    HW2 1524   0.905   0.922   3.370
  261SOL     OW 1525   0.993   0.417   3.096
  261SOL    HW1 1526   0.906   0.437   3.131
  261SOL    HW2 1527   0.976   0.369   3.014
  262SOL     OW 1528   1.052   0.698   2.288
  262SOL    HW1 1529   1.068   0.691   2.382
  262SOL    HW2 1530   0.968   0.652   2.275
  263SOL     OW 1531   0.069   0.789   2.672
  263SOL    HW1 1532   0.150   0.793   2.724
  263SOL    HW2 1533   0.068   0.872   2.624
  264SOL     OW 1534   0.128   1.886   3.447
  264SOL    HW1 1535   0.133   1.860   3.539
  264SOL    HW2 1536   0.060   1.830   3.410
  265SOL     OW 1537   0.877   0.368   2.051
  265SOL    HW1 1538   0.915   0.427   1.985
  265SOL    HW2 1539   0.934   0.291   2.050
  266SOL     OW 1540   1.705   0.572   3.690
  266SOL    HW1 1541   1.669   0.646   3.641
  266SOL    HW2 1542   1.737   0.512   3.623
  267SOL     OW 1543   1.378   1.142   2.402
  267SOL    HW1 1544   1.457   1.130   2.350
  267SOL    HW2 1545   1.325   1.204   2.352
  268SOL     OW 1546   0.535   0.204   2.744
  268SOL    HW1 1547   0.551   0.221   2.836
  268SOL    HW2 1548   0.548   0.288   2.701
  269SOL     OW 1549   1.003   1.443   2.333
  269SOL    HW1 1550   0.969   1.517   2.283
  269SOL    HW2 1551   0.983   1.464   2.424
  270SOL     OW 1552   0.358   1.804   2.733
  270SOL    HW1 1553   0.398   1.718   2.746
  270SOL    HW2 1554   0.423   1.866   2.764
  271SOL     OW 1555   1.800   1.055   2.731
  271SOL    HW1 1556   1.746   1.036   2.654
  271SOL    HW2 1557   1.737   1.061   2.803
  272SOL     OW 1558   1.228   1.539   3.375
  272SOL    HW1 1559   1.214   1.466   3.436
  272SOL    HW2 1560   1.163   1.525   3.306
  273SOL     OW 1561   0.315   0.952   2.111
  273SOL    HW1 1562   0.396   0.976   2.067
  273SOL    HW2 1563   0.293   0.866   2.076
  274SOL     OW 1564   1.480   0.746   2.588
  274SOL    HW1 1565   1.473   0.704   2.674
  274SOL    HW2 1566   1.558   0.801   2.593
  275SOL     OW 1567   0.466   1.265   3.600
  275SOL    HW1 1568   0.439   1.271   3.508
  275SOL    HW2 1569   0.384   1.265   3.649
  276SOL     OW 1570   1.123   1.777   2.092
  276SOL    HW1 1571   1.049   1.736   2.137
  276SOL    HW2 1572   1.147   1.716   2.023
  277SOL     OW 1573   0.198   0.281   3.357
  277SOL    HW1 1574   0.161   0.369   3.349
  277SOL    HW2 1575   0.209   0.268   3.452
  278SOL     OW 1576   1.628   1.381   1.951
  278SOL    HW1 1577   1.587   1.466   1.935
  278SOL    HW2 1578   1.560   1.317   1.931
  279SOL     OW 1579   0.471   1.735   2.181
  279SOL    HW1 1580   0.515   1.792   2.243
  279SOL    HW2 1581   0.541   1.702   2.124
  280SOL     OW 1582   1.408   0.102   2.293
  280SOL    HW1 1583   1.401   0.081   2.200
  280SOL    HW2 1584   1.501   0.121   2.307
  281SOL     OW 1585   0.278   1.801   3.071
  281SOL    HW1 1586   0.306   1.721   3.116
  281SOL    HW2 1587   0.224   1.769   2.999
  282SOL     OW 1588   0.939   1.699   2.760
  282SOL    HW1 1589   1.018   1.648   2.781
  282SOL    HW2 1590   0.896   1.649   2.691
  283SOL     OW 1591   0.385   0.696   2.340
  283SOL    HW1 1592   0.414   0.605   2.349
  283SOL    HW2 1593   0.292   0.693   2.362
  284SOL     OW 1594   1.537   0.227   3.584
  284SOL    HW1 1595   1.545   0.244   3.678
  284SOL    HW2 1596   1.460   0.171   3.577
  285SOL     OW 1597   0.621   0.132   1.969
  285SOL    HW1 1598   0.683   0.065   1.996
  285SOL    HW2 1599   0.573   0.093   1.896
  286SOL     OW 1600   0.779   0.312   3.629
  286SOL    HW1 1601   0.840   0.239   3.629
  286SOL    HW2 1602   0.734   0.306   3.714
  287SOL     OW 1603   0.877   1.522   3.056
  287SOL    HW1 1604   0.860   1.486   2.969
  287SOL    HW2 1605   0.947   1.468   3.092
  288SOL     OW 1606   1.340   0.589   3.294
  288SOL    HW1 1607   1.371   0.558   3.380
  288SOL    HW2 1608   1.376   0.677   3.286
  289SOL     OW 1609   0.817   1.392   2.804
  289SOL    HW1 1610   0.901   1.381   2.761
  289SOL    HW2 1611   0.753   1.396   2.733
  290SOL     OW 1612   0.928   0.511   2.765
  290SOL    HW1 1613   0.903   0.503   2.673
  290SOL    HW2 1614   0.958   0.423   2.789
  291SOL     OW 1615   0.548   0.058   2.366
  291SOL    HW1 1616   0.470   0.059   2.421
  291SOL    HW2 1617   0.534   0.128   2.303
  292SOL     OW 1618   1.428   1.199   1.902
  292SOL    HW1 1619   1.458   1.123   1.953
  292SOL    HW2 1620   1.343   1.221   1.940
  293SOL     OW 1621   0.318   0.067   2.047
  293SOL    HW1 1622   0.385   0.134   2.033
  293SOL    HW2 1623   0.366   5.284   2.049
  294SOL     OW 1624   0.940   0.267   2.324
  294SOL    HW1 1625   0.913   0.301   2.239
  294SOL    HW2 1626   1.036   0.277   2.325
  295SOL     OW 1627   1.081   0.683   3.321
  295SOL    HW1 1628   1.014   0.615   3.325
  295SOL    HW2 1629   1.163   0.634   3.314
  296SOL     OW 1630   1.221   1.571   2.656
  296SOL    HW1 1631   1.237   1.637   2.589
  296SOL    HW2 1632   1.291   1.585   2.720
  297SOL     OW 1633   0.469   1.152   2.591
  297SOL    HW1 1634   0.400   1.130   2.654
  297SOL    HW2 1635   0.428   1.134   2.506
  298SOL     OW 1636   1.268   1.793   2.472
  298SOL    HW1 1637   1.314   1.854   2.415
  298SOL    HW2 1638   1.199   1.846   2.513
  299SOL     OW 1639   1.024   0.545   1.886
  299SOL    HW1 1640   0.982   0.629   1.868
  299SOL    HW2 1641   1.088   0.564   1.955
  300SOL     OW 1642   0.102   0.528   3.276
  300SOL    HW1 1643   0.181   0.549   3.227
  300SOL    HW2 1644   0.080   0.610   3.320
  301SOL     OW 1645   0.559   0.239   3.020
  301SOL    HW1 1646   0.592   0.154   3.048
  301SOL    HW2 1647   0.467   0.239   3.045
  302SOL     OW 1648   0.866   0.465   2.504
  302SOL    HW1 1649   0.820   0.518   2.439
  302SOL    HW2 1650   0.890   0.385   2.456
  303SOL     OW 1651   0.979   0.061   2.626
  303SOL    HW1 1652   0.915   0.058   2.555
  303SOL    HW2 1653   0.987   5.270   2.654
  304SOL     OW 1654   1.438   1.162   2.719
  304SOL    HW1 1655   1.368   1.097   2.718
  304SOL    HW2 1656   1.463   1.172   2.627
  305SOL     OW 1657   1.466   0.608   2.837
  305SOL    HW1 1658   1.414   0.527   2.840
  305SOL    HW2 1659   1.525   0.601   2.911
  306SOL     OW 1660   1.843   0.815   2.245
  306SOL    HW1 1661   1.900   0.764   2.303
  306SOL    HW2 1662   1.816   0.752   2.178
  307SOL     OW 1663   0.491   1.420   2.018
  307SOL    HW1 1664   0.416   1.392   2.070
  307SOL    HW2 1665   0.478   1.378   1.933
  308SOL     OW 1666   1.672   1.264   2.507
  308SOL    HW1 1667   1.767   1.266   2.520
  308SOL    HW2 1668   1.643   1.353   2.528
  309SOL     OW 1669   1.394   0.573   1.933
  309SOL    HW1 1670   1.332   0.552   2.004
  309SOL    HW2 1671   1.479   0.543   1.966
  310SOL     OW 1672   0.521   0.265   2.181
  310SOL    HW1 1673   0.570   0.218   2.114
  310SOL    HW2 1674   0.500   0.349   2.141
  311SOL     OW 1675   1.752   1.241   3.432
  311SOL    HW1 1676   1.839   1.202   3.427
  311SOL    HW2 1677   1.767   1.331   3.461
  312SOL     OW 1678   1.057   1.353   3.195
  312SOL    HW1 1679   0.982   1.322   3.246
  312SOL    HW2 1680   1.133   1.312   3.236
  313SOL     OW 1681   1.609   1.626   3.517
  313SOL    HW1 1682   1.601   1.659   3.428
  313SOL    HW2 1683   1.692   1.578   3.519
  314SOL     OW 1684   1.131   1.206   2.966
  314SOL    HW1 1685   1.071   1.243   3.031
  314SOL    HW2 1686   1.100   1.239   2.882
  315SOL     OW 1687   1.626   1.097   2.938
  315SOL    HW1 1688   1.621   1.159   3.011
  315SOL    HW2 1689   1.548   1.115   2.886
  316SOL     OW 1690   0.905   0.108   3.248
  316SOL    HW1 1691   0.936   0.074   3.164
  316SOL    HW2 1692   0.981   0.150   3.287
  317SOL     OW 1693   0.984   1.115   3.585
  317SOL    HW1 1694   0.893   1.131   3.606
  317SOL    HW2 1695   0.982   1.037   3.529
  318SOL     OW 1696   0.708   1.060   2.234
  318SOL    HW1 1697   0.696   1.043   2.327
  318SOL    HW2 1698   0.784   1.008   2.209
  319SOL     OW 1699   0.421   0.823   3.116
  319SOL    HW1 1700   0.490   0.829   3.181
  319SOL    HW2 1701   0.387   0.734   3.124
  320SOL     OW 1702   1.266   0.378   3.136
  320SOL    HW1 1703   1.299   0.455   3.183
  320SOL    HW2 1704   1.175   0.401   3.114
  321SOL     OW 1705   0.103   1.623   3.228
  321SOL    HW1 1706   0.081   1.629   3.135
  321SOL    HW2 1707   0.189   1.582   3.230
  322SOL     OW 1708   0.342   1.109   2.348
  322SOL    HW1 1709   0.348   1.188   2.294
  322SOL    HW2 1710   0.348   1.037   2.285
  323SOL     OW 1711   0.554   0.535   2.721
  323SOL    HW1 1712   0.568   0.594   2.647
  323SOL    HW2 1713   0.620   0.561   2.785
  324SOL     OW 1714   1.248   1.349   2.251
  324SOL    HW1 1715   1.304   1.420   2.282
  324SOL    HW2 1716   1.161   1.370   2.285
  325SOL     OW 1717   1.284   1.459   3.009
  325SOL    HW1 1718   1.340   1.462   3.087
  325SOL    HW2 1719   1.228   1.382   3.023
  326SOL     OW 1720   1.580   0.621   2.342
  326SOL    HW1 1721   1.532   0.674   2.407
  326SOL    HW2 1722   1.626   0.686   2.288
  327SOL     OW 1723   0.352   1.520   3.171
  327SOL    HW1 1724   0.341   1.476   3.087
  327SOL    HW2 1725   0.446   1.537   3.177
  328SOL     OW 1726   0.417   0.740   3.465
  328SOL    HW1 1727   0.475   0.788   3.407
  328SOL    HW2 1728   0.462   0.657   3.482
  329SOL     OW 1729   1.604   0.779   3.545
  329SOL    HW1 1730   1.518   0.821   3.539
  329SOL    HW2 1731   1.656   0.822   3.477
  330SOL     OW 1732   1.050   0.119   3.647
  330SOL    HW1 1733   1.078   0.198   3.601
  330SOL    HW2 1734   1.054   0.050   3.581
  331SOL     OW 1735   0.483   0.060   3.599
  331SOL    HW1 1736   0.423   5.293   3.566
  331SOL    HW2 1737   0.427   0.136   3.615
  332SOL     OW 1738   0.586   0.874   2.895
  332SOL    HW1 1739   0.619   0.964   2.895
  332SOL    HW2 1740   0.529   0.870   2.972
  333SOL     OW 1741   1.355   0.859   2.889
  333SOL    HW1 1742   1.270   0.847   2.845
  333SOL    HW2 1743   1.397   0.774   2.882
  334SOL     OW 1744   1.203   0.527   2.127
  334SOL    HW1 1745   1.210   0.448   2.180
  334SOL    HW2 1746   1.161   0.591   2.185
  335SOL     OW 1747   0.304   0.204   3.108
  335SOL    HW1 1748   0.262   0.237   3.188
  335SOL    HW2 1749   0.293   0.109   3.113
  336SOL     OW 1750   0.064   1.316   3.141
  336SOL    HW1 1751   0.091   1.258   3.213
  336SOL    HW2 1752   5.292   1.368   3.178
  337SOL     OW 1753   0.725   0.632   2.921
  337SOL    HW1 1754   0.799   0.616   2.863
  337SOL    HW2 1755   0.696   0.720   2.899
  338SOL     OW 1756   1.736   0.959   3.716
  338SOL    HW1 1757   1.691   0.895   3.661
  338SOL    HW2 1758   1.676   0.974   3.789
  339SOL     OW 1759   0.319   0.068   2.519
  339SOL    HW1 1760   0.299   0.161   2.525
  339SOL    HW2 1761   0.330   0.040   2.611
  340SOL     OW 1762   1.615   0.377   2.223
  340SOL    HW1 1763   1.646   0.312   2.286
  340SOL    HW2 1764   1.594   0.454   2.277
  341SOL     OW 1765   1.028   0.759   2.822
  341SOL    HW1 1766   1.023   0.777   2.915
  341SOL    HW2 1767   1.001   0.668   2.812
  342SOL     OW 1768   0.982   1.566   3.581
  342SOL    HW1 1769   0.966   1.610   3.497
  342SOL    HW2 1770   1.026   1.485   3.557
  343SOL     OW 1771   1.854   1.504   3.467
  343SOL    HW1 1772   1.873   1.531   3.377
  343SOL    HW2 1773   1.935   1.521   3.515
  344SOL     OW 1774   0.354   0.917   3.669
  344SOL    HW1 1775   0.435   0.938   3.716
  344SOL    HW2 1776   0.381   0.852   3.604
  345SOL     OW 1777   1.525   0.270   1.987
  345SOL    HW1 1778   1.459   0.208   2.020
  345SOL    HW2 1779   1.562   0.310   2.067
  346SOL     OW 1780   1.290   0.826   1.892
  346SOL    HW1 1781   1.332   0.740   1.896
  346SOL    HW2 1782   1.321   0.865   1.811
  347SOL     OW 1783   1.067   1.336   2.717
  347SOL    HW1 1784   1.071   1.264   2.654
  347SOL    HW2 1785   1.127   1.402   2.682
  348SOL     OW 1786   0.313   0.809   2.811
  348SOL    HW1 1787   0.407   0.827   2.807
  348SOL    HW2 1788   0.307   0.719   2.842
  349SOL     OW 1789   0.336   0.527   2.877
  349SOL    HW1 1790   0.298   0.440   2.862
  349SOL    HW2 1791   0.411   0.532   2.818
  350SOL     OW 1792   1.135   0.377   3.552
  350SOL    HW1 1793   1.087   0.432   3.614
  350SOL    HW2 1794   1.222   0.417   3.548
  351SOL     OW 1795   1.132   0.222   3.329
  351SOL    HW1 1796   1.136   0.282   3.404
  351SOL    HW2 1797   1.188   0.263   3.263
  352SOL     OW 1798   0.003   1.328   2.072
  352SOL    HW1 1799   5.231   1.315   2.010
  352SOL    HW2 1800   0.013   1.243   2.115
  353SOL     OW 1801   0.096   1.781   2.815
  353SOL    HW1 1802   0.061   1.714   2.757
  353SOL    HW2 1803   0.182   1.801   2.780
  354SOL     OW 1804   0.505   1.574   2.770
  354SOL    HW1 1805   0.571   1.639   2.790
  354SOL    HW2 1806   0.548   1.513   2.709
  355SOL     OW 1807   0.980   0.791   3.087
  355SOL    HW1 1808   1.037   0.769   3.161
  355SOL    HW2 1809   0.895   0.752   3.111
  356SOL     OW 1810   0.036   0.572   2.984
  356SOL    HW1 1811   0.116   0.539   2.942
  356SOL    HW2 1812   0.036   0.533   3.071
  357SOL     OW 1813   0.165   0.518   3.581
  357SOL    HW1 1814   0.250   0.496   3.542
  357SOL    HW2 1815   0.137   0.596   3.533
  358SOL     OW 1816   1.378   0.937   3.520
  358SOL    HW1 1817   1.400   1.030   3.517
  358SOL    HW2 1818   1.375   0.910   3.428
  359SOL     OW 1819   0.814   0.573   2.227
  359SOL    HW1 1820   0.820   0.499   2.166
  359SOL    HW2 1821   0.740   0.625   2.195
  360SOL     OW 1822   1.642   0.601   3.046
  360SOL    HW1 1823   1.631   0.542   3.120
  360SOL    HW2 1824   1.729   0.582   3.012
  361SOL     OW 1825   0.256   1.555   3.596
  361SOL    HW1 1826   0.234   1.619   3.664
  361SOL    HW2 1827   0.251   1.470   3.640
  362SOL     OW 1828   0.703   0.451   3.121
  362SOL    HW1 1829   0.651   0.377   3.088
  362SOL    HW2 1830   0.700   0.515   3.050
  363SOL     OW 1831   0.926   1.679   3.331
  363SOL    HW1 1832   0.901   1.642   3.246
  363SOL    HW2 1833   0.919   1.774   3.318
  364SOL     OW 1834   0.462   0.492   2.039
  364SOL    HW1 1835   0.526   0.559   2.065
  364SOL    HW2 1836   0.380   0.539   2.030
  365SOL     OW 1837   0.147   1.137   3.333
  365SOL    HW1 1838   0.143   1.090   3.416
  365SOL    HW2 1839   0.158   1.069   3.267
  366SOL     OW 1840   1.324   1.046   3.084
  366SOL    HW1 1841   1.347   0.982   3.016
  366SOL    HW2 1842   1.255   1.099   3.045
  367SOL     OW 1843   1.313   0.857   2.167
  367SOL    HW1 1844   1.238   0.825   2.218
  367SOL    HW2 1845   1.287   0.843   2.076
  368SOL     OW 1846   1.768   1.741   3.010
  368SOL    HW1 1847   1.832   1.768   2.944
  368SOL    HW2 1848   1.748   1.650   2.988
  369SOL     OW 1849   1.242   1.734   2.973
  369SOL    HW1 1850   1.324   1.755   2.929
  369SOL    HW2 1851   1.248   1.640   2.992
  370SOL     OW 1852   0.082   1.212   2.889
  370SOL    HW1 1853   0.069   1.239   2.980
  370SOL    HW2 1854   5.293   1.203   2.855
  371SOL     OW 1855   0.678   1.668   3.595
  371SOL    HW1 1856   0.620   1.744   3.587
  371SOL    HW2 1857   0.743   1.681   3.526
  372SOL     OW 1858   1.711   0.151   2.362
  372SOL    HW1 1859   1.786   0.131   2.306
  372SOL    HW2 1860   1.705   0.077   2.423
  373SOL     OW 1861   1.391   1.568   2.349
  373SOL    HW1 1862   1.451   1.600   2.282
  373SOL    HW2 1863   1.342   1.645   2.377
  374SOL     OW 1864   0.147   1.798   3.704
  374SOL    HW1 1865   0.092   1.735   3.752
  374SOL    HW2 1866   0.195   1.844   3.773
  375SOL     OW 1867   1.277   0.927   2.533
  375SOL    HW1 1868   1.351   0.866   2.541
  375SOL    HW2 1869   1.311   0.999   2.480
  376SOL     OW 1870   0.811   1.274   3.290
  376SOL    HW1 1871   0.782   1.314   3.372
  376SOL    HW2 1872   0.742   1.295   3.228
  377SOL     OW 1873   0.672   1.621   2.017
  377SOL    HW1 1874   0.683   1.635   1.923
  377SOL    HW2 1875   0.617   1.544   2.023
  378SOL     OW 1876   1.623   1.723   3.251
  378SOL    HW1 1877   1.673   1.731   3.170
  378SOL    HW2 1878   1.615   1.813   3.283
  379SOL     OW 1879   1.846   0.154   2.818
  379SOL    HW1 1880   1.841   0.058   2.815
  379SOL    HW2 1881   1.760   0.184   2.788
  380SOL     OW 1882   0.270   0.329   2.580
  380SOL    HW1 1883   0.183   0.366   2.566
  380SOL    HW2 1884   0.275   0.314   2.674
  381SOL     OW 1885   1.208   1.604   1.894
  381SOL    HW1 1886   1.197   1.513   1.920
  381SOL    HW2 1887   1.143   1.617   1.825
  382SOL     OW 1888   0.824   1.006   3.235
  382SOL    HW1 1889   0.868   1.000   3.150
  382SOL    HW2 1890   0.822   1.099   3.256
  383SOL     OW 1891   0.915   0.910   2.152
  383SOL    HW1 1892   0.976   0.943   2.086
  383SOL    HW2 1893   0.964   0.842   2.198
  384SOL     OW 1894   1.490   1.626   1.905
  384SOL    HW1 1895   1.396   1.619   1.891
  384SOL    HW2 1896   1.528   1.632   1.817
  385SOL     OW 1897   0.367   1.304   3.355
  385SOL    HW1 1898   0.359   1.378   3.295
  385SOL    HW2 1899   0.291   1.249   3.336
  386SOL     OW 1900   1.609   1.283   3.142
  386SOL    HW1 1901   1.670   1.271   3.214
  386SOL    HW2 1902   1.549   1.351   3.172
  387SOL     OW 1903   1.055   1.108   2.569
  387SOL    HW1 1904   0.984   1.057   2.608
  387SOL    HW2 1905   1.118   1.043   2.540
  388SOL     OW 1906   1.018   0.244   2.831
  388SOL    HW1 1907   0.998   0.198   2.750
  388SOL    HW2 1908   1.012   0.176   2.899
  389SOL     OW 1909   0.602   1.487   2.342
  389SOL    HW1 1910   0.649   1.439   2.274
  389SOL    HW2 1911   0.534   1.535   2.295
  390SOL     OW 1912   1.726   0.386   3.240
  390SOL    HW1 1913   1.797   0.451   3.239
  390SOL    HW2 1914   1.757   0.316   3.182
  391SOL     OW 1915   0.261   1.348   2.156
  391SOL    HW1 1916   0.169   1.349   2.133
  391SOL    HW2 1917   0.265   1.386   2.244
  392SOL     OW 1918   0.117   1.016   3.578
  392SOL    HW1 1919   0.047   0.983   3.633
  392SOL    HW2 1920   0.197   0.985   3.621
  393SOL     OW 1921   0.676   0.218   3.354
  393SOL    HW1 1922   0.759   0.202   3.309
  393SOL    HW2 1923   0.701   0.263   3.435
  394SOL     OW 1924   0.080   0.333   1.898
  394SOL    HW1 1925   5.287   0.311   1.891
  394SOL    HW2 1926   0.093   0.404   1.835
  395SOL     OW 1927   1.428   0.858   3.261
  395SOL    HW1 1928   1.379   0.919   3.206
  395SOL    HW2 1929   1.517   0.860   3.227
  396SOL     OW 1930   0.085   0.143   2.154
  396SOL    HW1 1931   0.079   0.237   2.135
  396SOL    HW2 1932   0.172   0.118   2.123
  397SOL     OW 1933   1.179   1.338   1.979
  397SOL    HW1 1934   1.088   1.308   1.981
  397SOL    HW2 1935   1.206   1.338   2.071
  398SOL     OW 1936   0.620   0.831   3.298
  398SOL    HW1 1937   0.676   0.907   3.282
  398SOL    HW2 1938   0.681   0.758   3.305
  399SOL     OW 1939   1.485   1.781   2.846
  399SOL    HW1 1940   1.508   1.839   2.773
  399SOL    HW2 1941   1.568   1.759   2.886
  400SOL     OW 1942   0.713   0.573   3.564
  400SOL    HW1 1943   0.757   0.636   3.621
  400SOL    HW2 1944   0.742   0.488   3.595
  401SOL     OW 1945   1.473   1.198   3.493
  401SOL    HW1 1946   1.461   1.212   3.587
  401SOL    HW2 1947   1.566   1.215   3.478
  402SOL     OW 1948   0.375   1.743   3.427
  402SOL    HW1 1949   0.293   1.789   3.409
  402SOL    HW2 1950   0.349   1.663   3.472
  403SOL     OW 1951   1.667   0.881   3.117
  403SOL    HW1 1952   1.663   0.795   3.074
  403SOL    HW2 1953   1.658   0.944   3.046
  404SOL     OW 1954   1.220   0.318   2.326
  404SOL    HW1 1955   1.283   0.246   2.321
  404SOL    HW2 1956   1.250   0.370   2.401
  405SOL     OW 1957   0.588   0.737   2.533
  405SOL    HW1 1958   0.628   0.822   2.517
  405SOL    HW2 1959   0.520   0.729   2.466
  406SOL     OW 1960   1.765   0.362   3.511
  406SOL    HW1 1961   1.747   0.377   3.419
  406SOL    HW2 1962   1.693   0.307   3.541
  407SOL     OW 1963   1.745   0.934   3.374
  407SOL    HW1 1964   1.741   1.028   3.387
  407SOL    HW2 1965   1.730   0.921   3.280
  408SOL     OW 1966   0.863   1.366   1.899
  408SOL    HW1 1967   0.825   1.396   1.982
  408SOL    HW2 1968   0.880   1.447   1.851
  409SOL     OW 1969   0.665   1.792   2.803
  409SOL    HW1 1970   0.644   1.883   2.781
  409SOL    HW2 1971   0.760   1.787   2.797
  410SOL     OW 1972   0.868   0.968   2.716
  410SOL    HW1 1973   0.918   0.896   2.754
  410SOL    HW2 1974   0.832   1.015   2.790
  411SOL     OW 1975   1.077   0.987   1.950
  411SOL    HW1 1976   1.057   1.039   1.872
  411SOL    HW2 1977   1.152   0.934   1.925
  412SOL     OW 1978   1.852   1.554   2.706
  412SOL    HW1 1979   1.773   1.542   2.653
  412SOL    HW2 1980   1.844   1.489   2.776
  413SOL     OW 1981   0.227   1.304   3.723
  413SOL    HW1 1982   0.158   1.242   3.697
  413SOL    HW2 1983   0.215   1.314   3.818
  414SOL     OW 1984   0.089   1.216   2.515
  414SOL    HW1 1985   0.104   1.186   2.605
  414SOL    HW2 1986   0.177   1.220   2.477
  415SOL     OW 1987   0.682   1.404   3.492
  415SOL    HW1 1988   0.602   1.362   3.522
  415SOL    HW2 1989   0.678   1.492   3.528
  416SOL     OW 1990   1.811   0.175   3.093
  416SOL    HW1 1991   1.775   0.086   3.094
  416SOL    HW2 1992   1.833   0.190   3.001
  417SOL     OW 1993   0.434   0.437   2.384
  417SOL    HW1 1994   0.466   0.363   2.333
  417SOL    HW2 1995   0.387   0.397   2.457
  418SOL     OW 1996   1.700   1.486   2.954
  418SOL    HW1 1997   1.619   1.464   2.909
  418SOL    HW2 1998   1.710   1.417   3.021
  419SOL     OW 1999   0.339   0.563   3.151
  419SOL    HW1 2000   0.395   0.505   3.202
  419SOL    HW2 2001   0.351   0.536   3.060
  420SOL     OW 2002   0.830   1.578   2.539
  420SOL    HW1 2003   0.814   1.637   2.466
  420SOL    HW2 2004   0.754   1.519   2.540
  421SOL     OW 2005   1.427   0.219   2.978
  421SOL    HW1 2006   1.463   0.144   3.026
  421SOL    HW2 2007   1.379   0.268   3.044
  422SOL     OW 2008   1.001   0.019   3.000
  422SOL    HW1 2009   0.951   5.252   2.955
  422SOL    HW2 2010   1.087   5.280   3.015
  423SOL     OW 2011   0.772   1.333   2.180
  423SOL    HW1 2012   0.744   1.242   2.186
  423SOL    HW2 2013   0.854   1.336   2.229
  424SOL     OW 2014   0.623   1.555   3.150
  424SOL    HW1 2015   0.624   1.637   3.199
  424SOL    HW2 2016   0.710   1.550   3.111
  425SOL     OW 2017   1.354   0.036   2.025
  425SOL    HW1 2018   1.393   5.296   1.947
  425SOL    HW2 2019   1.277   5.283   2.044
  426SOL     OW 2020   1.300   0.464   2.545
  426SOL    HW1 2021   1.246   0.543   2.550
  426SOL    HW2 2022   1.293   0.425   2.632
  427SOL     OW 2023   1.595   0.215   2.745
  427SOL    HW1 2024   1.530   0.227   2.814
  427SOL    HW2 2025   1.587   0.294   2.691
  428SOL     OW 2026   0.049   1.068   2.152
  428SOL    HW1 2027   0.138   1.034   2.141
  428SOL    HW2 2028   5.299   0.994   2.189
  429SOL     OW 2029   0.887   1.654   2.202
  429SOL    HW1 2030   0.813   1.639   2.143
  429SOL    HW2 2031   0.860   1.729   2.256
  430SOL     OW 2032   0.232   0.632   3.842
  430SOL    HW1 2033   0.159   0.602   3.897
  430SOL    HW2 2034   0.210   0.603   3.754
  431SOL     OW 2035   0.234   0.281   4.714
  431SOL    HW1 2036   0.252   0.242   4.799
  431SOL    HW2 2037   0.153   0.239   4.685
  432SOL     OW 2038   5.299   0.407   4.390
  432SOL    HW1 2039   5.206   0.430   4.393
  432SOL    HW2 2040   0.001   0.317   4.358
  433SOL     OW 2041   0.576   1.288   4.910
  433SOL    HW1 2042   0.494   1.296   4.861
  433SOL    HW2 2043   0.592   1.376   4.944
  434SOL     OW 2044   1.564   1.512   4.432
  434SOL    HW1 2045   1.521   1.491   4.515
  434SOL    HW2 2046   1.492   1.515   4.369
  435SOL     OW 2047   1.132   0.698   4.423
  435SOL    HW1 2048   1.180   0.779   4.410
  435SOL    HW2 2049   1.084   0.711   4.505
  436SOL     OW 2050   1.769   0.604   3.951
  436SOL    HW1 2051   1.747   0.597   3.858
  436SOL    HW2 2052   1.733   0.525   3.990
  437SOL     OW 2053   0.752   1.139   4.765
  437SOL    HW1 2054   0.687   1.175   4.826
  437SOL    HW2 2055   0.789   1.216   4.722
  438SOL     OW 2056   0.868   0.774   5.547
  438SOL    HW1 2057   0.861   0.845   5.610
  438SOL    HW2 2058   0.892   0.817   5.465
  439SOL     OW 2059   0.685   1.000   4.370
  439SOL    HW1 2060   0.752   0.990   4.438
  439SOL    HW2 2061   0.618   1.055   4.411
  440SOL     OW 2062   0.711   1.150   5.539
  440SOL    HW1 2063   0.759   1.228   5.567
  440SOL    HW2 2064   0.630   1.184   5.501
  441SOL     OW 2065   0.359   1.403   4.784
  441SOL    HW1 2066   0.269   1.405   4.750
  441SOL    HW2 2067   0.407   1.465   4.729
  442SOL     OW 2068   1.460   1.501   5.080
  442SOL    HW1 2069   1.514   1.580   5.089
  442SOL    HW2 2070   1.396   1.507   5.151
  443SOL     OW 2071   0.452   0.399   5.208
  443SOL    HW1 2072   0.531   0.345   5.206
  443SOL    HW2 2073   0.381   0.335   5.219
  444SOL     OW 2074   1.609   0.451   4.463
  444SOL    HW1 2075   1.534   0.473   4.408
  444SOL    HW2 2076   1.624   0.530   4.514
  445SOL     OW 2077   0.234   1.713   4.201
  445SOL    HW1 2078   0.264   1.784   4.259
  445SOL    HW2 2079   0.297   1.712   4.129
  446SOL     OW 2080   1.137   1.342   5.417
  446SOL    HW1 2081   1.179   1.336   5.503
  446SOL    HW2 2082   1.085   1.262   5.410
  447SOL     OW 2083   0.221   1.446   4.265
  447SOL    HW1 2084   0.219   1.541   4.257
  447SOL    HW2 2085   0.150   1.425   4.325
  448SOL     OW 2086   0.251   1.076   4.597
  448SOL    HW1 2087   0.263   0.990   4.638
  448SOL    HW2 2088   0.199   1.125   4.660
  449SOL     OW 2089   0.611   1.790   5.156
  449SOL    HW1 2090   0.527   1.773   5.199
  449SOL    HW2 2091   0.632   1.881   5.179
  450SOL     OW 2092   0.580   0.985   3.861
  450SOL    HW1 2093   0.628   1.031   3.792
  450SOL    HW2 2094   0.621   1.015   3.942
  451SOL     OW 2095   1.587   0.137   5.179
  451SOL    HW1 2096   1.613   0.220   5.140
  451SOL    HW2 2097   1.581   0.155   5.273
  452SOL     OW 2098   0.124   0.635   4.301
  452SOL    HW1 2099   0.090   0.553   4.337
  452SOL    HW2 2100   0.098   0.701   4.366
  453SOL     OW 2101   1.841   1.761   4.055
  453SOL    HW1 2102   1.910   1.729   4.113
  453SOL    HW2 2103   1.865   1.851   4.035
  454SOL     OW 2104   0.039   1.599   3.857
  454SOL    HW1 2105   0.025   1.508   3.883
  454SOL    HW2 2106   5.280   1.649   3.914
  455SOL     OW 2107   1.689   0.918   4.367
  455SOL    HW1 2108   1.771   0.875   4.345
  455SOL    HW2 2109   1.667   0.969   4.288
  456SOL     OW 2110   1.647   1.105   4.153
  456SOL    HW1 2111   1.733   1.109   4.112
  456SOL    HW2 2112   1.653   1.167   4.226
  457SOL     OW 2113   0.132   0.750   5.308
  457SOL    HW1 2114   0.227   0.764   5.306
  457SOL    HW2 2115   0.095   0.837   5.326
  458SOL     OW 2116   0.617   1.387   4.458
  458SOL    HW1 2117   0.569   1.305   4.469
  458SOL    HW2 2118   0.599   1.414   4.368
  459SOL     OW 2119   1.287   1.237   5.147
  459SOL    HW1 2120   1.319   1.170   5.087
  459SOL    HW2 2121   1.346   1.232   5.222
  460SOL     OW 2122   0.817   0.031   4.254
  460SOL    HW1 2123   0.844   0.119   4.228
  460SOL    HW2 2124   0.721   0.032   4.246
  461SOL     OW 2125   0.173   0.942   5.004
  461SOL    HW1 2126   0.263   0.912   4.996
  461SOL    HW2 2127   0.134   0.925   4.918
  462SOL     OW 2128   1.531   0.995   3.923
  462SOL    HW1 2129   1.461   0.938   3.956
  462SOL    HW2 2130   1.573   1.030   4.002
  463SOL     OW 2131   1.184   1.808   5.348
  463SOL    HW1 2132   1.193   1.868   5.274
  463SOL    HW2 2133   1.202   1.722   5.311
  464SOL     OW 2134   0.331   0.281   5.521
  464SOL    HW1 2135   0.389   0.338   5.570
  464SOL    HW2 2136   0.250   0.280   5.571
  465SOL     OW 2137   1.467   1.419   4.674
  465SOL    HW1 2138   1.399   1.435   4.740
  465SOL    HW2 2139   1.454   1.328   4.648
  466SOL     OW 2140   1.658   1.739   4.302
  466SOL    HW1 2141   1.638   1.708   4.214
  466SOL    HW2 2142   1.633   1.666   4.359
  467SOL     OW 2143   0.593   0.719   3.991
  467SOL    HW1 2144   0.601   0.801   3.942
  467SOL    HW2 2145   0.529   0.738   4.059
  468SOL     OW 2146   1.277   0.350   4.655
  468SOL    HW1 2147   1.187   0.321   4.668
  468SOL    HW2 2148   1.328   0.299   4.719
  469SOL     OW 2149   1.579   1.671   4.034
  469SOL    HW1 2150   1.669   1.703   4.026
  469SOL    HW2 2151   1.552   1.654   3.943
  470SOL     OW 2152   0.794   0.618   5.173
  470SOL    HW1 2153   0.765   0.597   5.262
  470SOL    HW2 2154   0.753   0.552   5.118
  471SOL     OW 2155   1.394   0.475   5.402
  471SOL    HW1 2156   1.397   0.520   5.487
  471SOL    HW2 2157   1.458   0.404   5.410
  472SOL     OW 2158   0.953   0.887   5.308
  472SOL    HW1 2159   1.008   0.817   5.271
  472SOL    HW2 2160   0.905   0.922   5.232
  473SOL     OW 2161   0.993   0.417   4.958
  473SOL    HW1 2162   0.907   0.437   4.993
  473SOL    HW2 2163   0.976   0.370   4.876
  474SOL     OW 2164   1.052   0.698   4.150
  474SOL    HW1 2165   1.068   0.691   4.244
  474SOL    HW2 2166   0.968   0.652   4.137
  475SOL     OW 2167   0.070   0.789   4.534
  475SOL    HW1 2168   0.150   0.793   4.586
  475SOL    HW2 2169   0.068   0.872   4.486
  476SOL     OW 2170   0.127   1.886   5.310
  476SOL    HW1 2171   0.133   1.860   5.401
  476SOL    HW2 2172   0.060   1.830   5.272
  477SOL     OW 2173   0.876   0.368   3.912
  477SOL    HW1 2174   0.915   0.427   3.847
  477SOL    HW2 2175   0.934   0.291   3.912
  478SOL     OW 2176   1.705   0.572   5.552
  478SOL    HW1 2177   1.669   0.646   5.503
  478SOL    HW2 2178   1.737   0.512   5.485
  479SOL     OW 2179   1.378   1.142   4.264
  479SOL    HW1 2180   1.457   1.130   4.212
  479SOL    HW2 2181   1.325   1.204   4.214
  480SOL     OW 2182   0.535   0.204   4.606
  480SOL    HW1 2183   0.551   0.221   4.698
  480SOL    HW2 2184   0.548   0.288   4.563
  481SOL     OW 2185   1.003   1.443   4.195
  481SOL    HW1 2186   0.969   1.517   4.145
  481SOL    HW2 2187   0.984   1.464   4.286
  482SOL     OW 2188   0.358   1.804   4.595
  482SOL    HW1 2189   0.398   1.718   4.608
  482SOL    HW2 2190   0.423   1.866   4.626
  483SOL     OW 2191   1.799   1.054   4.593
  483SOL    HW1 2192   1.746   1.036   4.516
  483SOL    HW2 2193   1.737   1.061   4.665
  484SOL     OW 2194   1.228   1.539   5.237
  484SOL    HW1 2195   1.215   1.466   5.298
  484SOL    HW2 2196   1.163   1.525   5.168
  485SOL     OW 2197   0.315   0.952   3.973
  485SOL    HW1 2198   0.396   0.976   3.929
  485SOL    HW2 2199   0.294   0.866   3.938
  486SOL     OW 2200   1.480   0.745   4.450
  486SOL    HW1 2201   1.474   0.704   4.536
  486SOL    HW2 2202   1.558   0.801   4.455
  487SOL     OW 2203   0.466   1.265   5.462
  487SOL    HW1 2204   0.439   1.271   5.370
  487SOL    HW2 2205   0.384   1.265   5.511
  488SOL     OW 2206   1.122   1.778   3.954
  488SOL    HW1 2207   1.048   1.736   3.999
  488SOL    HW2 2208   1.146   1.715   3.885
  489SOL     OW 2209   0.198   0.281   5.219
  489SOL    HW1 2210   0.161   0.369   5.211
  489SOL    HW2 2211   0.209   0.269   5.314
  490SOL     OW 2212   1.628   1.381   3.813
  490SOL    HW1 2213   1.587   1.466   3.797
  490SOL    HW2 2214   1.560   1.317   3.793
  491SOL     OW 2215   0.471   1.735   4.043
  491SOL    HW1 2216   0.515   1.792   4.105
  491SOL    HW2 2217   0.541   1.702   3.986
  492SOL     OW 2218   1.408   0.102   4.155
  492SOL    HW1 2219   1.401   0.081   4.062
  492SOL    HW2 2220   1.501   0.121   4.169
  493SOL     OW 2221   0.277   1.801   4.933
  493SOL    HW1 2222   0.307   1.721   4.978
  493SOL    HW2 2223   0.224   1.769   4.861
  494SOL     OW 2224   0.939   1.699   4.622
  494SOL    HW1 2225   1.017   1.648   4.644
  494SOL    HW2 2226   0.896   1.649   4.553
  495SOL     OW 2227   0.385   0.696   4.202
  495SOL    HW1 2228   0.414   0.605   4.211
  495SOL    HW2 2229   0.292   0.693   4.223
  496SOL     OW 2230   1.537   0.227   5.446
  496SOL    HW1 2231   1.545   0.244   5.540
  496SOL    HW2 2232   1.460   0.171   5.439
  497SOL     OW 2233   0.620   0.132   3.831
  497SOL    HW1 2234   0.683   0.065   3.858
  497SOL    HW2 2235   0.573   0.092   3.758
  498SOL     OW 2236   0.779   0.312   5.491
  498SOL    HW1 2237   0.840   0.239   5.491
  498SOL    HW2 2238   0.734   0.306   5.576
  499SOL     OW 2239   0.877   1.522   4.917
  499SOL    HW1 2240   0.860   1.485   4.831
  499SOL    HW2 2241   0.947   1.468   4.954
  500SOL     OW 2242   1.340   0.589   5.156
  500SOL    HW1 2243   1.371   0.558   5.242
  500SOL    HW2 2244   1.376   0.677   5.148
  501SOL     OW 2245   0.817   1.392   4.666
  501SOL    HW1 2246   0.902   1.381   4.623
  501SOL    HW2 2247   0.754   1.396   4.595
  502SOL     OW 2248   0.928   0.511   4.627
  502SOL    HW1 2249   0.903   0.503   4.535
  502SOL    HW2 2250   0.958   0.423   4.651
  503SOL     OW 2251   0.548   0.058   4.228
  503SOL    HW1 2252   0.470   0.059   4.283
  503SOL    HW2 2253   0.534   0.128   4.165
  504SOL     OW 2254   1.428   1.199   3.764
  504SOL    HW1 2255   1.458   1.123   3.815
  504SOL    HW2 2256   1.343   1.221   3.802
  505SOL     OW 2257   0.318   0.067   3.909
  505SOL    HW1 2258   0.385   0.134   3.895
  505SOL    HW2 2259   0.366   5.284   3.911
  506SOL     OW 2260   0.940   0.267   4.187
  506SOL    HW1 2261   0.913   0.301   4.101
  506SOL    HW2 2262   1.036   0.277   4.187
  507SOL     OW 2263   1.081   0.683   5.183
  507SOL    HW1 2264   1.014   0.615   5.187
  507SOL    HW2 2265   1.163   0.635   5.176
  508SOL     OW 2266   1.222   1.570   4.518
  508SOL    HW1 2267   1.238   1.637   4.451
  508SOL    HW2 2268   1.291   1.585   4.583
  509SOL     OW 2269   0.469   1.152   4.453
  509SOL    HW1 2270   0.400   1.131   4.516
  509SOL    HW2 2271   0.428   1.134   4.368
  510SOL     OW 2272   1.267   1.793   4.334
  510SOL    HW1 2273   1.314   1.855   4.277
  510SOL    HW2 2274   1.200   1.846   4.376
  511SOL     OW 2275   1.024   0.545   3.748
  511SOL    HW1 2276   0.982   0.629   3.730
  511SOL    HW2 2277   1.088   0.563   3.817
  512SOL     OW 2278   0.102   0.528   5.138
  512SOL    HW1 2279   0.181   0.549   5.089
  512SOL    HW2 2280   0.080   0.610   5.182
  513SOL     OW 2281   0.559   0.239   4.882
  513SOL    HW1 2282   0.592   0.154   4.910
  513SOL    HW2 2283   0.467   0.239   4.907
  514SOL     OW 2284   0.866   0.465   4.366
  514SOL    HW1 2285   0.820   0.518   4.301
  514SOL    HW2 2286   0.890   0.385   4.318
  515SOL     OW 2287   0.979   0.061   4.488
  515SOL    HW1 2288   0.915   0.058   4.417
  515SOL    HW2 2289   0.987   5.270   4.516
  516SOL     OW 2290   1.438   1.162   4.581
  516SOL    HW1 2291   1.368   1.097   4.580
  516SOL    HW2 2292   1.463   1.172   4.489
  517SOL     OW 2293   1.466   0.608   4.699
  517SOL    HW1 2294   1.414   0.527   4.702
  517SOL    HW2 2295   1.525   0.601   4.773
  518SOL     OW 2296   1.843   0.815   4.107
  518SOL    HW1 2297   1.900   0.765   4.165
  518SOL    HW2 2298   1.817   0.752   4.040
  519SOL     OW 2299   0.491   1.420   3.880
  519SOL    HW1 2300   0.416   1.392   3.932
  519SOL    HW2 2301   0.478   1.378   3.795
  520SOL     OW 2302   1.671   1.264   4.368
  520SOL    HW1 2303   1.766   1.265   4.383
  520SOL    HW2 2304   1.643   1.352   4.390
  521SOL     OW 2305   1.394   0.573   3.795
  521SOL    HW1 2306   1.333   0.552   3.866
  521SOL    HW2 2307   1.479   0.543   3.828
  522SOL     OW 2308   0.521   0.265   4.043
  522SOL    HW1 2309   0.570   0.218   3.976
  522SOL    HW2 2310   0.500   0.349   4.004
  523SOL     OW 2311   1.752   1.241   5.295
  523SOL    HW1 2312   1.839   1.203   5.287
  523SOL    HW2 2313   1.767   1.331   5.323
  524SOL     OW 2314   1.057   1.353   5.056
  524SOL    HW1 2315   0.982   1.322   5.107
  524SOL    HW2 2316   1.133   1.312   5.098
  525SOL     OW 2317   1.608   1.626   5.379
  525SOL    HW1 2318   1.602   1.660   5.290
  525SOL    HW2 2319   1.691   1.578   5.380
  526SOL     OW 2320   1.130   1.205   4.828
  526SOL    HW1 2321   1.072   1.243   4.893
  526SOL    HW2 2322   1.100   1.239   4.744
  527SOL     OW 2323   1.626   1.097   4.801
  527SOL    HW1 2324   1.621   1.159   4.873
  527SOL    HW2 2325   1.548   1.115   4.748
  528SOL     OW 2326   0.905   0.108   5.110
  528SOL    HW1 2327   0.936   0.074   5.026
  528SOL    HW2 2328   0.982   0.150   5.149
  529SOL     OW 2329   0.984   1.115   5.447
  529SOL    HW1 2330   0.893   1.132   5.468
  529SOL    HW2 2331   0.982   1.037   5.391
  530SOL     OW 2332   0.708   1.060   4.096
  530SOL    HW1 2333   0.696   1.043   4.189
  530SOL    HW2 2334   0.784   1.008   4.071
  531SOL     OW 2335   0.421   0.823   4.978
  531SOL    HW1 2336   0.490   0.829   5.043
  531SOL    HW2 2337   0.387   0.734   4.986
  532SOL     OW 2338   1.266   0.378   4.998
  532SOL    HW1 2339   1.299   0.455   5.045
  532SOL    HW2 2340   1.175   0.401   4.976
  533SOL     OW 2341   0.103   1.623   5.090
  533SOL    HW1 2342   0.082   1.630   4.997
  533SOL    HW2 2343   0.189   1.582   5.092
  534SOL     OW 2344   0.342   1.109   4.210
  534SOL    HW1 2345   0.348   1.188   4.156
  534SOL    HW2 2346   0.347   1.037   4.147
  535SOL     OW 2347   0.554   0.535   4.583
  535SOL    HW1 2348   0.568   0.594   4.509
  535SOL    HW2 2349   0.620   0.561   4.647
  536SOL     OW 2350   1.248   1.349   4.113
  536SOL    HW1 2351   1.303   1.420   4.144
  536SOL    HW2 2352   1.161   1.370   4.147
  537SOL     OW 2353   1.284   1.459   4.872
  537SOL    HW1 2354   1.341   1.463   4.949
  537SOL    HW2 2355   1.229   1.382   4.886
  538SOL     OW 2356   1.580   0.621   4.204
  538SOL    HW1 2357   1.533   0.674   4.269
  538SOL    HW2 2358   1.626   0.686   4.150
  539SOL     OW 2359   0.352   1.520   5.033
  539SOL    HW1 2360   0.341   1.476   4.949
  539SOL    HW2 2361   0.446   1.537   5.039
  540SOL     OW 2362   0.417   0.740   5.327
  540SOL    HW1 2363   0.475   0.788   5.269
  540SOL    HW2 2364   0.462   0.657   5.344
  541SOL     OW 2365   1.603   0.779   5.407
  541SOL    HW1 2366   1.518   0.821   5.401
  541SOL    HW2 2367   1.656   0.821   5.339
  542SOL     OW 2368   1.050   0.119   5.509
  542SOL    HW1 2369   1.078   0.198   5.463
  542SOL    HW2 2370   1.054   0.050   5.443
  543SOL     OW 2371   0.483   0.060   5.461
  543SOL    HW1 2372   0.423   5.293   5.428
  543SOL    HW2 2373   0.427   0.136   5.477
  544SOL     OW 2374   0.586   0.875   4.757
  544SOL    HW1 2375   0.619   0.964   4.757
  544SOL    HW2 2376   0.529   0.870   4.834
  545SOL     OW 2377   1.355   0.859   4.751
  545SOL    HW1 2378   1.270   0.847   4.707
  545SOL    HW2 2379   1.397   0.774   4.744
  546SOL     OW 2380   1.203   0.527   3.989
  546SOL    HW1 2381   1.210   0.448   4.042
  546SOL    HW2 2382   1.161   0.591   4.047
  547SOL     OW 2383   0.304   0.204   4.970
  547SOL    HW1 2384   0.262   0.237   5.050
  547SOL    HW2 2385   0.293   0.109   4.975
  548SOL     OW 2386   0.064   1.316   5.003
  548SOL    HW1 2387   0.091   1.258   5.074
  548SOL    HW2 2388   5.292   1.368   5.040
  549SOL     OW 2389   0.725   0.632   4.782
  549SOL    HW1 2390   0.799   0.616   4.725
  549SOL    HW2 2391   0.696   0.720   4.761
  550SOL     OW 2392   1.736   0.959   5.579
  550SOL    HW1 2393   1.691   0.895   5.523
  550SOL    HW2 2394   1.676   0.974   5.652
  551SOL     OW 2395   0.319   0.068   4.381
  551SOL    HW1 2396   0.299   0.161   4.387
  551SOL    HW2 2397   0.330   0.040   4.473
  552SOL     OW 2398   1.614   0.377   4.085
  552SOL    HW1 2399   1.646   0.312   4.148
  552SOL    HW2 2400   1.594   0.454   4.139
  553SOL     OW 2401   1.028   0.759   4.683
  553SOL    HW1 2402   1.023   0.777   4.777
  553SOL    HW2 2403   1.001   0.668   4.674
  554SOL     OW 2404   0.981   1.565   5.443
  554SOL    HW1 2405   0.966   1.610   5.359
  554SOL    HW2 2406   1.026   1.484   5.419
  555SOL     OW 2407   1.853   1.504   5.330
  555SOL    HW1 2408   1.873   1.529   5.239
  555SOL    HW2 2409   1.935   1.520   5.377
  556SOL     OW 2410   0.354   0.917   5.531
  556SOL    HW1 2411   0.435   0.938   5.578
  556SOL    HW2 2412   0.381   0.852   5.466
  557SOL     OW 2413   1.525   0.270   3.849
  557SOL    HW1 2414   1.459   0.208   3.882
  557SOL    HW2 2415   1.562   0.310   3.928
  558SOL     OW 2416   1.289   0.826   3.754
  558SOL    HW1 2417   1.332   0.740   3.758
  558SOL    HW2 2418   1.321   0.865   3.673
  559SOL     OW 2419   1.067   1.336   4.579
  559SOL    HW1 2420   1.071   1.264   4.516
  559SOL    HW2 2421   1.127   1.402   4.544
  560SOL     OW 2422   0.313   0.809   4.673
  560SOL    HW1 2423   0.407   0.827   4.670
  560SOL    HW2 2424   0.307   0.719   4.704
  561SOL     OW 2425   0.335   0.527   4.739
  561SOL    HW1 2426   0.298   0.440   4.724
  561SOL    HW2 2427   0.411   0.532   4.680
  562SOL     OW 2428   1.135   0.377   5.414
  562SOL    HW1 2429   1.087   0.431   5.476
  562SOL    HW2 2430   1.222   0.417   5.410
  563SOL     OW 2431   1.132   0.222   5.191
  563SOL    HW1 2432   1.136   0.282   5.266
  563SOL    HW2 2433   1.188   0.263   5.125
  564SOL     OW 2434   0.003   1.328   3.934
  564SOL    HW1 2435   5.231   1.315   3.872
  564SOL    HW2 2436   0.013   1.243   3.977
  565SOL     OW 2437   0.095   1.781   4.677
  565SOL    HW1 2438   0.061   1.713   4.619
  565SOL    HW2 2439   0.182   1.801   4.642
  566SOL     OW 2440   0.505   1.574   4.632
  566SOL    HW1 2441   0.571   1.639   4.652
  566SOL    HW2 2442   0.548   1.513   4.571
  567SOL     OW 2443   0.980   0.791   4.949
  567SOL    HW1 2444   1.038   0.769   5.023
  567SOL    HW2 2445   0.895   0.753   4.974
  568SOL     OW 2446   0.036   0.572   4.846
  568SOL    HW1 2447   0.116   0.539   4.805
  568SOL    HW2 2448   0.036   0.533   4.933
  569SOL     OW 2449   0.165   0.518   5.443
  569SOL    HW1 2450   0.250   0.496   5.405
  569SOL    HW2 2451   0.137   0.596   5.395
  570SOL     OW 2452   1.378   0.937   5.382
  570SOL    HW1 2453   1.400   1.030   5.379
  570SOL    HW2 2454   1.375   0.911   5.290
  571SOL     OW 2455   0.814   0.573   4.089
  571SOL    HW1 2456   0.820   0.499   4.028
  571SOL    HW2 2457   0.740   0.625   4.057
  572SOL     OW 2458   1.642   0.601   4.907
  572SOL    HW1 2459   1.631   0.542   4.982
  572SOL    HW2 2460   1.729   0.581   4.874
  573SOL     OW 2461   0.256   1.555   5.458
  573SOL    HW1 2462   0.234   1.619   5.526
  573SOL    HW2 2463   0.251   1.470   5.502
  574SOL     OW 2464   0.703   0.451   4.983
  574SOL    HW1 2465   0.651   0.377   4.950
  574SOL    HW2 2466   0.700   0.515   4.912
  575SOL     OW 2467   0.926   1.679   5.193
  575SOL    HW1 2468   0.900   1.642   5.108
  575SOL    HW2 2469   0.920   1.774   5.181
  576SOL     OW 2470   0.463   0.492   3.901
  576SOL    HW1 2471   0.526   0.559   3.926
  576SOL    HW2 2472   0.380   0.539   3.892
  577SOL     OW 2473   0.147   1.137   5.194
  577SOL    HW1 2474   0.143   1.090   5.278
  577SOL    HW2 2475   0.157   1.069   5.128
  578SOL     OW 2476   1.323   1.045   4.946
  578SOL    HW1 2477   1.347   0.982   4.878
  578SOL    HW2 2478   1.255   1.099   4.907
  579SOL     OW 2479   1.313   0.857   4.029
  579SOL    HW1 2480   1.238   0.825   4.080
  579SOL    HW2 2481   1.287   0.843   3.938
  580SOL     OW 2482   1.760   1.744   4.868
  580SOL    HW1 2483   1.830   1.770   4.808
  580SOL    HW2 2484   1.745   1.651   4.848
  581SOL     OW 2485   1.241   1.733   4.833
  581SOL    HW1 2486   1.324   1.755   4.791
  581SOL    HW2 2487   1.248   1.639   4.853
  582SOL     OW 2488   0.082   1.212   4.751
  582SOL    HW1 2489   0.069   1.239   4.842
  582SOL    HW2 2490   5.293   1.203   4.717
  583SOL     OW 2491   0.678   1.668   5.457
  583SOL    HW1 2492   0.621   1.744   5.449
  583SOL    HW2 2493   0.744   1.680   5.388
  584SOL     OW 2494   1.711   0.151   4.224
  584SOL    HW1 2495   1.786   0.131   4.168
  584SOL    HW2 2496   1.706   0.077   4.285
  585SOL     OW 2497   1.391   1.568   4.211
  585SOL    HW1 2498   1.450   1.601   4.143
  585SOL    HW2 2499   1.342   1.645   4.239
  586SOL     OW 2500   0.147   1.798   5.566
  586SOL    HW1 2501   0.092   1.735   5.614
  586SOL    HW2 2502   0.195   1.844   5.635
  587SOL     OW 2503   1.277   0.926   4.395
  587SOL    HW1 2504   1.351   0.866   4.403
  587SOL    HW2 2505   1.311   0.999   4.342
  588SOL     OW 2506   0.811   1.274   5.152
  588SOL    HW1 2507   0.783   1.314   5.234
  588SOL    HW2 2508   0.742   1.295   5.090
  589SOL     OW 2509   0.672   1.622   3.879
  589SOL    HW1 2510   0.683   1.635   3.784
  589SOL    HW2 2511   0.617   1.544   3.885
  590SOL     OW 2512   1.623   1.727   5.114
  590SOL    HW1 2513   1.671   1.734   5.032
  590SOL    HW2 2514   1.609   1.818   5.141
  591SOL     OW 2515   1.846   0.154   4.680
  591SOL    HW1 2516   1.841   0.059   4.677
  591SOL    HW2 2517   1.760   0.184   4.650
  592SOL     OW 2518   0.270   0.329   4.442
  592SOL    HW1 2519   0.183   0.366   4.428
  592SOL    HW2 2520   0.275   0.314   4.536
  593SOL     OW 2521   1.208   1.604   3.756
  593SOL    HW1 2522   1.198   1.513   3.782
  593SOL    HW2 2523   1.142   1.617   3.687
  594SOL     OW 2524   0.824   1.006   5.097
  594SOL    HW1 2525   0.868   1.001   5.012
  594SOL    HW2 2526   0.822   1.099   5.118
  595SOL     OW 2527   0.915   0.910   4.014
  595SOL    HW1 2528   0.976   0.942   3.948
  595SOL    HW2 2529   0.964   0.842   4.060
  596SOL     OW 2530   1.490   1.627   3.767
  596SOL    HW1 2531   1.396   1.618   3.752
  596SOL    HW2 2532   1.528   1.632   3.679
  597SOL     OW 2533   0.367   1.304   5.217
  597SOL    HW1 2534   0.359   1.378   5.157
  597SOL    HW2 2535   0.291   1.249   5.198
  598SOL     OW 2536   1.608   1.283   5.003
  598SOL    HW1 2537   1.671   1.272   5.075
  598SOL    HW2 2538   1.549   1.351   5.034
  599SOL     OW 2539   1.055   1.108   4.431
  599SOL    HW1 2540   0.984   1.057   4.470
  599SOL    HW2 2541   1.119   1.043   4.402
  600SOL     OW 2542   1.018   0.244   4.693
  600SOL    HW1 2543   0.998   0.198   4.612
  600SOL    HW2 2544   1.012   0.176   4.761
  601SOL     OW 2545   0.602   1.487   4.204
  601SOL    HW1 2546   0.649   1.439   4.136
  601SOL    HW2 2547   0.534   1.535   4.157
  602SOL     OW 2548   1.726   0.386   5.102
  602SOL    HW1 2549   1.797   0.451   5.101
  602SOL    HW2 2550   1.758   0.316   5.044
  603SOL     OW 2551   0.261   1.348   4.018
  603SOL    HW1 2552   0.169   1.349   3.995
  603SOL    HW2 2553   0.264   1.386   4.106
  604SOL     OW 2554   0.117   1.015   5.440
  604SOL    HW1 2555   0.047   0.983   5.496
  604SOL    HW2 2556   0.198   0.985   5.483
  605SOL     OW 2557   0.676   0.218   5.216
  605SOL    HW1 2558   0.759   0.202   5.171
  605SOL    HW2 2559   0.701   0.263   5.297
  606SOL     OW 2560   0.080   0.332   3.760
  606SOL    HW1 2561   5.286   0.312   3.754
  606SOL    HW2 2562   0.092   0.403   3.697
  607SOL     OW 2563   1.428   0.858   5.123
  607SOL    HW1 2564   1.379   0.919   5.068
  607SOL    HW2 2565   1.517   0.860   5.089
  608SOL     OW 2566   0.085   0.143   4.016
  608SOL    HW1 2567   0.079   0.237   3.997
  608SOL    HW2 2568   0.172   0.118   3.985
  609SOL     OW 2569   1.179   1.338   3.841
  609SOL    HW1 2570   1.088   1.307   3.844
  609SOL    HW2 2571   1.206   1.338   3.933
  610SOL     OW 2572   0.620   0.831   5.160
  610SOL    HW1 2573   0.676   0.907   5.144
  610SOL    HW2 2574   0.681   0.758   5.167
  611SOL     OW 2575   1.485   1.779   4.707
  611SOL    HW1 2576   1.509   1.839   4.636
  611SOL    HW2 2577   1.568   1.761   4.751
  612SOL     OW 2578   0.713   0.573   5.426
  612SOL    HW1 2579   0.757   0.636   5.483
  612SOL    HW2 2580   0.742   0.488   5.457
  613SOL     OW 2581   1.473   1.198   5.355
  613SOL    HW1 2582   1.461   1.212   5.449
  613SOL    HW2 2583   1.566   1.215   5.339
  614SOL     OW 2584   0.375   1.744   5.289
  614SOL    HW1 2585   0.293   1.789   5.272
  614SOL    HW2 2586   0.349   1.663   5.334
  615SOL     OW 2587   1.667   0.881   4.979
  615SOL    HW1 2588   1.662   0.796   4.936
  615SOL    HW2 2589   1.658   0.944   4.908
  616SOL     OW 2590   1.220   0.318   4.188
  616SOL    HW1 2591   1.283   0.246   4.183
  616SOL    HW2 2592   1.250   0.370   4.263
  617SOL     OW 2593   0.588   0.736   4.395
  617SOL    HW1 2594   0.628   0.822   4.379
  617SOL    HW2 2595   0.520   0.729   4.328
  618SOL     OW 2596   1.765   0.362   5.373
  618SOL    HW1 2597   1.747   0.377   5.281
  618SOL    HW2 2598   1.693   0.307   5.403
  619SOL     OW 2599   1.745   0.933   5.236
  619SOL    HW1 2600   1.741   1.028   5.249
  619SOL    HW2 2601   1.730   0.922   5.142
  620SOL     OW 2602   0.862   1.366   3.761
  620SOL    HW1 2603   0.825   1.395   3.844
  620SOL    HW2 2604   0.880   1.447   3.713
  621SOL     OW 2605   0.664   1.792   4.665
  621SOL    HW1 2606   0.644   1.883   4.643
  621SOL    HW2 2607   0.760   1.787   4.659
  622SOL     OW 2608   0.868   0.968   4.577
  622SOL    HW1 2609   0.919   0.896   4.616
  622SOL    HW2 2610   0.832   1.015   4.652
  623SOL     OW 2611   1.077   0.987   3.812
  623SOL    HW1 2612   1.057   1.039   3.734
  623SOL    HW2 2613   1.152   0.934   3.787
  624SOL     OW 2614   1.852   1.555   4.569
  624SOL    HW1 2615   1.774   1.542   4.516
  624SOL    HW2 2616   1.844   1.491   4.640
  625SOL     OW 2617   0.227   1.304   5.585
  625SOL    HW1 2618   0.158   1.242   5.560
  625SOL    HW2 2619   0.216   1.314   5.680
  626SOL     OW 2620   0.089   1.215   4.377
  626SOL    HW1 2621   0.104   1.186   4.467
  626SOL    HW2 2622   0.177   1.221   4.339
  627SOL     OW 2623   0.682   1.404   5.354
  627SOL    HW1 2624   0.601   1.362   5.384
  627SOL    HW2 2625   0.678   1.492   5.390
  628SOL     OW 2626   1.811   0.175   4.955
  628SOL    HW1 2627   1.775   0.086   4.956
  628SOL    HW2 2628   1.833   0.190   4.863
  629SOL     OW 2629   0.434   0.437   4.246
  629SOL    HW1 2630   0.466   0.363   4.195
  629SOL    HW2 2631   0.387   0.397   4.319
  630SOL     OW 2632   1.702   1.485   4.815
  630SOL    HW1 2633   1.620   1.463   4.771
  630SOL    HW2 2634   1.712   1.417   4.882
  631SOL     OW 2635   0.339   0.563   5.013
  631SOL    HW1 2636   0.395   0.505   5.064
  631SOL    HW2 2637   0.351   0.536   4.922
  632SOL     OW 2638   0.830   1.577   4.401
  632SOL    HW1 2639   0.813   1.637   4.328
  632SOL    HW2 2640   0.754   1.519   4.402
  633SOL     OW 2641   1.427   0.219   4.840
  633SOL    HW1 2642   1.464   0.145   4.888
  633SOL    HW2 2643   1.379   0.269   4.906
  634SOL     OW 2644   1.001   0.019   4.862
  634SOL    HW1 2645   0.951   5.252   4.817
  634SOL    HW2 2646   1.087   5.280   4.877
  635SOL     OW 2647   0.772   1.333   4.042
  635SOL    HW1 2648   0.744   1.242   4.048
  635SOL    HW2 2649   0.854   1.336   4.091
  636SOL     OW 2650   0.623   1.555   5.012
  636SOL    HW1 2651   0.624   1.637   5.061
  636SOL    HW2 2652   0.710   1.550   4.973
  637SOL     OW 2653   1.353   0.036   3.888
  637SOL    HW1 2654   1.393   5.297   3.810
  637SOL    HW2 2655   1.277   5.281   3.905
  638SOL     OW 2656   1.300   0.464   4.407
  638SOL    HW1 2657   1.246   0.543   4.412
  638SOL    HW2 2658   1.293   0.425   4.494
  639SOL     OW 2659   1.594   0.215   4.607
  639SOL    HW1 2660   1.530   0.227   4.676
  639SOL    HW2 2661   1.587   0.294   4.553
  640SOL     OW 2662   0.048   1.067   4.014
  640SOL    HW1 2663   0.138   1.034   4.003
  640SOL    HW2 2664   5.299   0.994   4.051
  641SOL     OW 2665   0.887   1.654   4.064
  641SOL    HW1 2666   0.813   1.639   4.005
  641SOL    HW2 2667   0.860   1.729   4.118
  642SOL     OW 2668   0.232   0.632   5.704
  642SOL    HW1 2669   0.159   0.602   5.758
  642SOL    HW2 2670   0.210   0.602   5.616
  643SOL     OW 2671   0.233   0.281   6.576
  643SOL    HW1 2672   0.252   0.242   6.661
  643SOL    HW2 2673   0.153   0.239   6.547
  644SOL     OW 2674   5.299   0.407   6.253
  644SOL    HW1 2675   5.206   0.430   6.255
  644SOL    HW2 2676   0.001   0.317   6.220
  645SOL     OW 2677   0.576   1.288   6.772
  645SOL    HW1 2678   0.494   1.296   6.723
  645SOL    HW2 2679   0.592   1.376   6.806
  646SOL     OW 2680   1.564   1.512   6.293
  646SOL    HW1 2681   1.521   1.491   6.376
  646SOL    HW2 2682   1.493   1.516   6.230
  647SOL     OW 2683   1.132   0.698   6.285
  647SOL    HW1 2684   1.180   0.779   6.272
  647SOL    HW2 2685   1.084   0.712   6.367
  648SOL     OW 2686   1.769   0.604   5.813
  648SOL    HW1 2687   1.747   0.597   5.720
  648SOL    HW2 2688   1.733   0.524   5.852
  649SOL     OW 2689   0.752   1.139   6.627
  649SOL    HW1 2690   0.687   1.175   6.688
  649SOL    HW2 2691   0.789   1.216   6.584
  650SOL     OW 2692   0.866   0.776   7.406
  650SOL    HW1 2693   0.860   0.850   7.466
  650SOL    HW2 2694   0.893   0.815   7.322
  651SOL     OW 2695   0.685   1.000   6.232
  651SOL    HW1 2696   0.752   0.990   6.300
  651SOL    HW2 2697   0.618   1.055   6.273
  652SOL     OW 2698   0.711   1.151   7.401
  652SOL    HW1 2699   0.759   1.229   7.429
  652SOL    HW2 2700   0.630   1.185   7.363
  653SOL     OW 2701   0.359   1.403   6.646
  653SOL    HW1 2702   0.269   1.406   6.612
  653SOL    HW2 2703   0.407   1.465   6.591
  654SOL     OW 2704   1.460   1.500   6.943
  654SOL    HW1 2705   1.513   1.580   6.952
  654SOL    HW2 2706   1.395   1.507   7.013
  655SOL     OW 2707   0.451   0.399   7.073
  655SOL    HW1 2708   0.531   0.346   7.070
  655SOL    HW2 2709   0.381   0.335   7.079
  656SOL     OW 2710   1.609   0.451   6.325
  656SOL    HW1 2711   1.534   0.472   6.269
  656SOL    HW2 2712   1.624   0.530   6.376
  657SOL     OW 2713   0.234   1.713   6.063
  657SOL    HW1 2714   0.264   1.784   6.121
  657SOL    HW2 2715   0.297   1.712   5.992
  658SOL     OW 2716   1.137   1.341   7.276
  658SOL    HW1 2717   1.177   1.338   7.363
  658SOL    HW2 2718   1.085   1.261   7.270
  659SOL     OW 2719   0.221   1.446   6.127
  659SOL    HW1 2720   0.219   1.541   6.118
  659SOL    HW2 2721   0.149   1.426   6.188
  660SOL     OW 2722   0.251   1.076   6.459
  660SOL    HW1 2723   0.263   0.990   6.500
  660SOL    HW2 2724   0.199   1.126   6.522
  661SOL     OW 2725   0.611   1.790   7.017
  661SOL    HW1 2726   0.527   1.773   7.061
  661SOL    HW2 2727   0.632   1.880   7.040
  662SOL     OW 2728   0.580   0.985   5.723
  662SOL    HW1 2729   0.628   1.031   5.654
  662SOL    HW2 2730   0.621   1.015   5.804
  663SOL     OW 2731   1.587   0.137   7.041
  663SOL    HW1 2732   1.613   0.221   7.003
  663SOL    HW2 2733   1.580   0.154   7.135
  664SOL     OW 2734   0.124   0.635   6.163
  664SOL    HW1 2735   0.090   0.553   6.199
  664SOL    HW2 2736   0.098   0.701   6.228
  665SOL     OW 2737   1.843   1.757   5.920
  665SOL    HW1 2738   1.910   1.730   5.983
  665SOL    HW2 2739   1.864   1.848   5.900
  666SOL     OW 2740   0.039   1.599   5.719
  666SOL    HW1 2741   0.025   1.508   5.745
  666SOL    HW2 2742   5.280   1.649   5.777
  667SOL     OW 2743   1.689   0.918   6.229
  667SOL    HW1 2744   1.771   0.875   6.206
  667SOL    HW2 2745   1.667   0.969   6.151
  668SOL     OW 2746   1.647   1.105   6.015
  668SOL    HW1 2747   1.733   1.109   5.974
  668SOL    HW2 2748   1.653   1.167   6.088
  669SOL     OW 2749   0.132   0.750   7.171
  669SOL    HW1 2750   0.226   0.764   7.168
  669SOL    HW2 2751   0.095   0.836   7.190
  670SOL     OW 2752   0.617   1.387   6.320
  670SOL    HW1 2753   0.569   1.305   6.331
  670SOL    HW2 2754   0.599   1.414   6.230
  671SOL     OW 2755   1.288   1.237   7.008
  671SOL    HW1 2756   1.320   1.170   6.949
  671SOL    HW2 2757   1.346   1.232   7.084
  672SOL     OW 2758   0.817   0.031   6.116
  672SOL    HW1 2759   0.844   0.119   6.090
  672SOL    HW2 2760   0.721   0.032   6.108
  673SOL     OW 2761   0.173   0.942   6.866
  673SOL    HW1 2762   0.263   0.912   6.858
  673SOL    HW2 2763   0.134   0.926   6.780
  674SOL     OW 2764   1.531   0.995   5.786
  674SOL    HW1 2765   1.461   0.938   5.818
  674SOL    HW2 2766   1.573   1.030   5.864
  675SOL     OW 2767   1.185   1.809   7.209
  675SOL    HW1 2768   1.193   1.868   7.135
  675SOL    HW2 2769   1.203   1.722   7.173
  676SOL     OW 2770   0.330   0.277   7.390
  676SOL    HW1 2771   0.389   0.338   7.434
  676SOL    HW2 2772   0.248   0.284   7.438
  677SOL     OW 2773   1.467   1.419   6.536
  677SOL    HW1 2774   1.399   1.435   6.602
  677SOL    HW2 2775   1.454   1.328   6.510
  678SOL     OW 2776   1.656   1.745   6.164
  678SOL    HW1 2777   1.639   1.714   6.075
  678SOL    HW2 2778   1.633   1.670   6.220
  679SOL     OW 2779   0.593   0.719   5.853
  679SOL    HW1 2780   0.601   0.801   5.804
  679SOL    HW2 2781   0.529   0.738   5.921
  680SOL     OW 2782   1.277   0.350   6.517
  680SOL    HW1 2783   1.187   0.321   6.530
  680SOL    HW2 2784   1.328   0.299   6.581
  681SOL     OW 2785   1.580   1.671   5.896
  681SOL    HW1 2786   1.671   1.701   5.888
  681SOL    HW2 2787   1.553   1.654   5.805
  682SOL     OW 2788   0.794   0.618   7.036
  682SOL    HW1 2789   0.765   0.597   7.124
  682SOL    HW2 2790   0.753   0.552   6.980
  683SOL     OW 2791   1.394   0.475   7.264
  683SOL    HW1 2792   1.397   0.520   7.349
  683SOL    HW2 2793   1.457   0.403   7.273
  684SOL     OW 2794   0.953   0.887   7.169
  684SOL    HW1 2795   1.008   0.818   7.132
  684SOL    HW2 2796   0.905   0.922   7.094
  685SOL     OW 2797   0.993   0.417   6.820
  685SOL    HW1 2798   0.907   0.437   6.855
  685SOL    HW2 2799   0.976   0.370   6.738
  686SOL     OW 2800   1.052   0.698   6.012
  686SOL    HW1 2801   1.068   0.691   6.106
  686SOL    HW2 2802   0.968   0.652   5.999
  687SOL     OW 2803   0.069   0.789   6.396
  687SOL    HW1 2804   0.150   0.793   6.448
  687SOL    HW2 2805   0.068   0.872   6.348
  688SOL     OW 2806   0.127   1.886   7.171
  688SOL    HW1 2807   0.131   1.860   7.263
  688SOL    HW2 2808   0.060   1.829   7.133
  689SOL     OW 2809   0.876   0.368   5.774
  689SOL    HW1 2810   0.915   0.427   5.709
  689SOL    HW2 2811   0.934   0.291   5.774
  690SOL     OW 2812   1.707   0.573   7.415
  690SOL    HW1 2813   1.670   0.647   7.367
  690SOL    HW2 2814   1.737   0.513   7.348
  691SOL     OW 2815   1.378   1.142   6.126
  691SOL    HW1 2816   1.457   1.130   6.074
  691SOL    HW2 2817   1.325   1.204   6.076
  692SOL     OW 2818   0.535   0.204   6.468
  692SOL    HW1 2819   0.552   0.221   6.560
  692SOL    HW2 2820   0.548   0.288   6.424
  693SOL     OW 2821   1.003   1.443   6.057
  693SOL    HW1 2822   0.969   1.517   6.007
  693SOL    HW2 2823   0.984   1.464   6.148
  694SOL     OW 2824   0.358   1.804   6.457
  694SOL    HW1 2825   0.398   1.718   6.470
  694SOL    HW2 2826   0.423   1.866   6.488
  695SOL     OW 2827   1.800   1.054   6.456
  695SOL    HW1 2828   1.746   1.036   6.378
  695SOL    HW2 2829   1.737   1.061   6.527
  696SOL     OW 2830   1.228   1.539   7.099
  696SOL    HW1 2831   1.215   1.466   7.159
  696SOL    HW2 2832   1.162   1.526   7.031
  697SOL     OW 2833   0.315   0.952   5.835
  697SOL    HW1 2834   0.396   0.977   5.791
  697SOL    HW2 2835   0.294   0.866   5.800
  698SOL     OW 2836   1.480   0.745   6.312
  698SOL    HW1 2837   1.474   0.704   6.398
  698SOL    HW2 2838   1.558   0.801   6.317
  699SOL     OW 2839   0.465   1.263   7.324
  699SOL    HW1 2840   0.439   1.270   7.232
  699SOL    HW2 2841   0.383   1.264   7.372
  700SOL     OW 2842   1.122   1.778   5.816
  700SOL    HW1 2843   1.049   1.736   5.861
  700SOL    HW2 2844   1.147   1.716   5.747
  701SOL     OW 2845   0.198   0.281   7.081
  701SOL    HW1 2846   0.161   0.368   7.071
  701SOL    HW2 2847   0.208   0.268   7.175
  702SOL     OW 2848   1.628   1.380   5.676
  702SOL    HW1 2849   1.587   1.465   5.660
  702SOL    HW2 2850   1.560   1.317   5.655
  703SOL     OW 2851   0.471   1.734   5.905
  703SOL    HW1 2852   0.515   1.792   5.967
  703SOL    HW2 2853   0.541   1.702   5.848
  704SOL     OW 2854   1.408   0.102   6.017
  704SOL    HW1 2855   1.401   0.081   5.924
  704SOL    HW2 2856   1.501   0.121   6.031
  705SOL     OW 2857   0.277   1.801   6.795
  705SOL    HW1 2858   0.307   1.722   6.840
  705SOL    HW2 2859   0.224   1.769   6.723
  706SOL     OW 2860   0.939   1.699   6.484
  706SOL    HW1 2861   1.018   1.648   6.505
  706SOL    HW2 2862   0.896   1.649   6.415
  707SOL     OW 2863   0.385   0.696   6.064
  707SOL    HW1 2864   0.414   0.605   6.073
  707SOL    HW2 2865   0.292   0.693   6.085
  708SOL     OW 2866   1.537   0.227   7.310
  708SOL    HW1 2867   1.544   0.245   7.403
  708SOL    HW2 2868   1.460   0.171   7.302
  709SOL     OW 2869   0.620   0.132   5.693
  709SOL    HW1 2870   0.684   0.065   5.720
  709SOL    HW2 2871   0.573   0.092   5.620
  710SOL     OW 2872   0.778   0.312   7.350
  710SOL    HW1 2873   0.841   0.241   7.351
  710SOL    HW2 2874   0.742   0.313   7.439
  711SOL     OW 2875   0.877   1.522   6.779
  711SOL    HW1 2876   0.860   1.485   6.693
  711SOL    HW2 2877   0.947   1.468   6.815
  712SOL     OW 2878   1.340   0.589   7.018
  712SOL    HW1 2879   1.371   0.558   7.104
  712SOL    HW2 2880   1.376   0.677   7.010
  713SOL     OW 2881   0.817   1.392   6.528
  713SOL    HW1 2882   0.902   1.381   6.485
  713SOL    HW2 2883   0.754   1.396   6.457
  714SOL     OW 2884   0.928   0.511   6.489
  714SOL    HW1 2885   0.903   0.503   6.397
  714SOL    HW2 2886   0.958   0.423   6.513
  715SOL     OW 2887   0.548   0.058   6.090
  715SOL    HW1 2888   0.470   0.059   6.145
  715SOL    HW2 2889   0.534   0.128   6.027
  716SOL     OW 2890   1.428   1.199   5.626
  716SOL    HW1 2891   1.458   1.123   5.677
  716SOL    HW2 2892   1.343   1.221   5.664
  717SOL     OW 2893   0.318   0.067   5.771
  717SOL    HW1 2894   0.385   0.134   5.757
  717SOL    HW2 2895   0.366   5.284   5.773
  718SOL     OW 2896   0.940   0.267   6.049
  718SOL    HW1 2897   0.913   0.301   5.963
  718SOL    HW2 2898   1.036   0.277   6.049
  719SOL     OW 2899   1.081   0.683   7.045
  719SOL    HW1 2900   1.014   0.615   7.049
  719SOL    HW2 2901   1.164   0.635   7.038
  720SOL     OW 2902   1.222   1.571   6.380
  720SOL    HW1 2903   1.237   1.637   6.313
  720SOL    HW2 2904   1.291   1.586   6.445
  721SOL     OW 2905   0.469   1.152   6.315
  721SOL    HW1 2906   0.400   1.130   6.378
  721SOL    HW2 2907   0.428   1.134   6.230
  722SOL     OW 2908   1.267   1.793   6.196
  722SOL    HW1 2909   1.314   1.854   6.139
  722SOL    HW2 2910   1.200   1.846   6.238
  723SOL     OW 2911   1.024   0.545   5.610
  723SOL    HW1 2912   0.982   0.629   5.592
  723SOL    HW2 2913   1.088   0.563   5.678
  724SOL     OW 2914   0.102   0.528   7.000
  724SOL    HW1 2915   0.181   0.549   6.951
  724SOL    HW2 2916   0.079   0.610   7.044
  725SOL     OW 2917   0.560   0.239   6.744
  725SOL    HW1 2918   0.592   0.154   6.772
  725SOL    HW2 2919   0.467   0.239   6.769
  726SOL     OW 2920   0.866   0.465   6.228
  726SOL    HW1 2921   0.820   0.518   6.163
  726SOL    HW2 2922   0.890   0.385   6.180
  727SOL     OW 2923   0.979   0.061   6.350
  727SOL    HW1 2924   0.914   0.058   6.279
  727SOL    HW2 2925   0.987   5.269   6.378
  728SOL     OW 2926   1.438   1.162   6.443
  728SOL    HW1 2927   1.368   1.097   6.442
  728SOL    HW2 2928   1.464   1.172   6.351
  729SOL     OW 2929   1.466   0.608   6.561
  729SOL    HW1 2930   1.414   0.527   6.564
  729SOL    HW2 2931   1.525   0.601   6.635
  730SOL     OW 2932   1.843   0.815   5.969
  730SOL    HW1 2933   1.900   0.764   6.027
  730SOL    HW2 2934   1.816   0.752   5.902
  731SOL     OW 2935   0.491   1.420   5.742
  731SOL    HW1 2936   0.416   1.392   5.794
  731SOL    HW2 2937   0.478   1.378   5.657
  732SOL     OW 2938   1.672   1.263   6.231
  732SOL    HW1 2939   1.766   1.265   6.244
  732SOL    HW2 2940   1.643   1.352   6.251
  733SOL     OW 2941   1.394   0.573   5.657
  733SOL    HW1 2942   1.333   0.552   5.728
  733SOL    HW2 2943   1.479   0.544   5.690
  734SOL     OW 2944   0.521   0.265   5.905
  734SOL    HW1 2945   0.570   0.218   5.838
  734SOL    HW2 2946   0.500   0.349   5.866
  735SOL     OW 2947   1.751   1.240   7.156
  735SOL    HW1 2948   1.839   1.202   7.150
  735SOL    HW2 2949   1.766   1.330   7.185
  736SOL     OW 2950   1.057   1.352   6.918
  736SOL    HW1 2951   0.982   1.322   6.969
  736SOL    HW2 2952   1.133   1.312   6.960
  737SOL     OW 2953   1.609   1.626   7.240
  737SOL    HW1 2954   1.602   1.660   7.150
  737SOL    HW2 2955   1.691   1.577   7.241
  738SOL     OW 2956   1.131   1.205   6.690
  738SOL    HW1 2957   1.072   1.243   6.755
  738SOL    HW2 2958   1.100   1.239   6.606
  739SOL     OW 2959   1.626   1.097   6.663
  739SOL    HW1 2960   1.621   1.159   6.735
  739SOL    HW2 2961   1.548   1.115   6.610
  740SOL     OW 2962   0.905   0.108   6.972
  740SOL    HW1 2963   0.935   0.074   6.888
  740SOL    HW2 2964   0.981   0.150   7.011
  741SOL     OW 2965   0.985   1.114   7.311
  741SOL    HW1 2966   0.892   1.132   7.330
  741SOL    HW2 2967   0.983   1.037   7.255
  742SOL     OW 2968   0.708   1.060   5.958
  742SOL    HW1 2969   0.696   1.043   6.051
  742SOL    HW2 2970   0.784   1.008   5.933
  743SOL     OW 2971   0.421   0.823   6.840
  743SOL    HW1 2972   0.490   0.829   6.905
  743SOL    HW2 2973   0.387   0.733   6.848
  744SOL     OW 2974   1.266   0.378   6.860
  744SOL    HW1 2975   1.299   0.455   6.907
  744SOL    HW2 2976   1.176   0.401   6.838
  745SOL     OW 2977   0.103   1.623   6.952
  745SOL    HW1 2978   0.082   1.629   6.859
  745SOL    HW2 2979   0.190   1.582   6.954
  746SOL     OW 2980   0.342   1.109   6.072
  746SOL    HW1 2981   0.348   1.188   6.018
  746SOL    HW2 2982   0.347   1.037   6.009
  747SOL     OW 2983   0.554   0.535   6.445
  747SOL    HW1 2984   0.568   0.594   6.371
  747SOL    HW2 2985   0.620   0.561   6.509
  748SOL     OW 2986   1.248   1.349   5.976
  748SOL    HW1 2987   1.304   1.420   6.006
  748SOL    HW2 2988   1.161   1.370   6.009
  749SOL     OW 2989   1.284   1.459   6.734
  749SOL    HW1 2990   1.340   1.462   6.811
  749SOL    HW2 2991   1.228   1.382   6.748
  750SOL     OW 2992   1.580   0.621   6.066
  750SOL    HW1 2993   1.533   0.674   6.130
  750SOL    HW2 2994   1.626   0.685   6.012
  751SOL     OW 2995   0.352   1.520   6.895
  751SOL    HW1 2996   0.341   1.476   6.811
  751SOL    HW2 2997   0.446   1.537   6.901
  752SOL     OW 2998   0.417   0.740   7.189
  752SOL    HW1 2999   0.475   0.789   7.131
  752SOL    HW2 3000   0.463   0.658   7.205
  753SOL     OW 3001   1.603   0.779   7.270
  753SOL    HW1 3002   1.518   0.821   7.263
  753SOL    HW2 3003   1.656   0.821   7.202
  754SOL     OW 3004   1.047   0.118   7.372
  754SOL    HW1 3005   1.078   0.197   7.329
  754SOL    HW2 3006   1.054   0.049   7.306
  755SOL     OW 3007   0.482   0.060   7.323
  755SOL    HW1 3008   0.422   5.293   7.290
  755SOL    HW2 3009   0.427   0.136   7.339
  756SOL     OW 3010   0.586   0.875   6.619
  756SOL    HW1 3011   0.619   0.964   6.618
  756SOL    HW2 3012   0.529   0.870   6.696
  757SOL     OW 3013   1.355   0.859   6.613
  757SOL    HW1 3014   1.271   0.848   6.569
  757SOL    HW2 3015   1.397   0.773   6.606
  758SOL     OW 3016   1.203   0.527   5.851
  758SOL    HW1 3017   1.210   0.448   5.904
  758SOL    HW2 3018   1.161   0.591   5.909
  759SOL     OW 3019   0.304   0.204   6.832
  759SOL    HW1 3020   0.261   0.237   6.911
  759SOL    HW2 3021   0.293   0.109   6.836
  760SOL     OW 3022   0.064   1.316   6.865
  760SOL    HW1 3023   0.090   1.258   6.937
  760SOL    HW2 3024   5.292   1.368   6.902
  761SOL     OW 3025   0.725   0.632   6.645
  761SOL    HW1 3026   0.799   0.616   6.587
  761SOL    HW2 3027   0.696   0.720   6.623
  762SOL     OW 3028   1.737   0.960   7.440
  762SOL    HW1 3029   1.689   0.896   7.386
  762SOL    HW2 3030   1.679   0.975   7.515
  763SOL     OW 3031   0.319   0.068   6.243
  763SOL    HW1 3032   0.299   0.161   6.249
  763SOL    HW2 3033   0.330   0.040   6.335
  764SOL     OW 3034   1.614   0.377   5.947
  764SOL    HW1 3035   1.646   0.312   6.010
  764SOL    HW2 3036   1.594   0.454   6.001
  765SOL     OW 3037   1.028   0.759   6.545
  765SOL    HW1 3038   1.023   0.777   6.639
  765SOL    HW2 3039   1.001   0.668   6.536
  766SOL     OW 3040   0.981   1.565   7.304
  766SOL    HW1 3041   0.967   1.610   7.221
  766SOL    HW2 3042   1.026   1.484   7.280
  767SOL     OW 3043   1.853   1.504   7.191
  767SOL    HW1 3044   1.873   1.530   7.101
  767SOL    HW2 3045   1.935   1.520   7.239
  768SOL     OW 3046   0.354   0.914   7.395
  768SOL    HW1 3047   0.436   0.938   7.439
  768SOL    HW2 3048   0.381   0.851   7.328
  769SOL     OW 3049   1.525   0.270   5.711
  769SOL    HW1 3050   1.459   0.208   5.744
  769SOL    HW2 3051   1.562   0.310   5.790
  770SOL     OW 3052   1.289   0.826   5.616
  770SOL    HW1 3053   1.332   0.740   5.620
  770SOL    HW2 3054   1.321   0.865   5.535
  771SOL     OW 3055   1.067   1.336   6.441
  771SOL    HW1 3056   1.071   1.264   6.378
  771SOL    HW2 3057   1.127   1.402   6.406
  772SOL     OW 3058   0.313   0.809   6.535
  772SOL    HW1 3059   0.407   0.827   6.531
  772SOL    HW2 3060   0.307   0.719   6.566
  773SOL     OW 3061   0.336   0.527   6.601
  773SOL    HW1 3062   0.298   0.441   6.586
  773SOL    HW2 3063   0.411   0.532   6.542
  774SOL     OW 3064   1.135   0.376   7.276
  774SOL    HW1 3065   1.088   0.431   7.339
  774SOL    HW2 3066   1.222   0.416   7.271
  775SOL     OW 3067   1.132   0.222   7.053
  775SOL    HW1 3068   1.136   0.281   7.128
  775SOL    HW2 3069   1.188   0.263   6.987
  776SOL     OW 3070   0.003   1.328   5.796
  776SOL    HW1 3071   5.231   1.315   5.734
  776SOL    HW2 3072   0.013   1.243   5.839
  777SOL     OW 3073   0.096   1.781   6.539
  777SOL    HW1 3074   0.061   1.713   6.481
  777SOL    HW2 3075   0.182   1.801   6.504
  778SOL     OW 3076   0.505   1.574   6.494
  778SOL    HW1 3077   0.571   1.639   6.514
  778SOL    HW2 3078   0.548   1.513   6.433
  779SOL     OW 3079   0.980   0.791   6.811
  779SOL    HW1 3080   1.038   0.769   6.885
  779SOL    HW2 3081   0.895   0.753   6.835
  780SOL     OW 3082   0.036   0.571   6.708
  780SOL    HW1 3083   0.116   0.539   6.666
  780SOL    HW2 3084   0.036   0.532   6.795
  781SOL     OW 3085   0.169   0.517   7.301
  781SOL    HW1 3086   0.253   0.497   7.260
  781SOL    HW2 3087   0.139   0.595   7.256
  782SOL     OW 3088   1.378   0.937   7.244
  782SOL    HW1 3089   1.399   1.030   7.242
  782SOL    HW2 3090   1.375   0.911   7.152
  783SOL     OW 3091   0.814   0.573   5.951
  783SOL    HW1 3092   0.820   0.499   5.890
  783SOL    HW2 3093   0.740   0.625   5.919
  784SOL     OW 3094   1.642   0.601   6.770
  784SOL    HW1 3095   1.631   0.542   6.844
  784SOL    HW2 3096   1.729   0.581   6.736
  785SOL     OW 3097   0.255   1.555   7.320
  785SOL    HW1 3098   0.234   1.618   7.390
  785SOL    HW2 3099   0.251   1.470   7.363
  786SOL     OW 3100   0.702   0.451   6.845
  786SOL    HW1 3101   0.651   0.378   6.812
  786SOL    HW2 3102   0.700   0.516   6.774
  787SOL     OW 3103   0.927   1.679   7.054
  787SOL    HW1 3104   0.900   1.643   6.970
  787SOL    HW2 3105   0.921   1.773   7.043
  788SOL     OW 3106   0.463   0.492   5.763
  788SOL    HW1 3107   0.526   0.559   5.788
  788SOL    HW2 3108   0.380   0.539   5.754
  789SOL     OW 3109   0.147   1.137   7.056
  789SOL    HW1 3110   0.143   1.090   7.139
  789SOL    HW2 3111   0.157   1.069   6.990
  790SOL     OW 3112   1.324   1.045   6.808
  790SOL    HW1 3113   1.347   0.982   6.740
  790SOL    HW2 3114   1.255   1.099   6.769
  791SOL     OW 3115   1.313   0.856   5.891
  791SOL    HW1 3116   1.238   0.825   5.942
  791SOL    HW2 3117   1.287   0.843   5.800
  792SOL     OW 3118   1.774   1.742   6.738
  792SOL    HW1 3119   1.835   1.768   6.668
  792SOL    HW2 3120   1.749   1.652   6.716
  793SOL     OW 3121   1.241   1.733   6.696
  793SOL    HW1 3122   1.323   1.755   6.653
  793SOL    HW2 3123   1.248   1.639   6.715
  794SOL     OW 3124   0.082   1.211   6.613
  794SOL    HW1 3125   0.069   1.239   6.704
  794SOL    HW2 3126   5.293   1.203   6.579
  795SOL     OW 3127   0.677   1.666   7.317
  795SOL    HW1 3128   0.622   1.744   7.313
  795SOL    HW2 3129   0.744   1.681   7.251
  796SOL     OW 3130   1.711   0.151   6.086
  796SOL    HW1 3131   1.786   0.131   6.030
  796SOL    HW2 3132   1.706   0.077   6.147
  797SOL     OW 3133   1.391   1.568   6.073
  797SOL    HW1 3134   1.451   1.601   6.006
  797SOL    HW2 3135   1.342   1.645   6.101
  798SOL     OW 3136   0.143   1.799   7.429
  798SOL    HW1 3137   0.090   1.736   7.478
  798SOL    HW2 3138   0.197   1.841   7.495
  799SOL     OW 3139   1.277   0.926   6.257
  799SOL    HW1 3140   1.351   0.866   6.265
  799SOL    HW2 3141   1.311   0.999   6.204
  800SOL     OW 3142   0.811   1.274   7.015
  800SOL    HW1 3143   0.782   1.314   7.096
  800SOL    HW2 3144   0.742   1.295   6.952
  801SOL     OW 3145   0.672   1.621   5.741
  801SOL    HW1 3146   0.683   1.635   5.647
  801SOL    HW2 3147   0.617   1.544   5.747
  802SOL     OW 3148   1.623   1.727   6.976
  802SOL    HW1 3149   1.675   1.733   6.896
  802SOL    HW2 3150   1.609   1.818   7.003
  803SOL     OW 3151   1.846   0.154   6.542
  803SOL    HW1 3152   1.841   0.059   6.539
  803SOL    HW2 3153   1.760   0.184   6.512
  804SOL     OW 3154   0.270   0.329   6.304
  804SOL    HW1 3155   0.183   0.366   6.290
  804SOL    HW2 3156   0.275   0.314   6.398
  805SOL     OW 3157   1.208   1.605   5.618
  805SOL    HW1 3158   1.197   1.513   5.644
  805SOL    HW2 3159   1.143   1.617   5.549
  806SOL     OW 3160   0.824   1.006   6.959
  806SOL    HW1 3161   0.868   1.001   6.874
  806SOL    HW2 3162   0.822   1.099   6.980
  807SOL     OW 3163   0.915   0.910   5.876
  807SOL    HW1 3164   0.976   0.942   5.810
  807SOL    HW2 3165   0.964   0.842   5.922
  808SOL     OW 3166   1.491   1.626   5.629
  808SOL    HW1 3167   1.396   1.619   5.614
  808SOL    HW2 3168   1.528   1.632   5.541
  809SOL     OW 3169   0.367   1.304   7.079
  809SOL    HW1 3170   0.359   1.378   7.019
  809SOL    HW2 3171   0.291   1.249   7.059
  810SOL     OW 3172   1.610   1.283   6.866
  810SOL    HW1 3173   1.669   1.270   6.940
  810SOL    HW2 3174   1.549   1.351   6.896
  811SOL     OW 3175   1.055   1.108   6.293
  811SOL    HW1 3176   0.984   1.057   6.332
  811SOL    HW2 3177   1.118   1.043   6.264
  812SOL     OW 3178   1.018   0.244   6.555
  812SOL    HW1 3179   0.998   0.198   6.474
  812SOL    HW2 3180   1.012   0.176   6.623
  813SOL     OW 3181   0.602   1.487   6.066
  813SOL    HW1 3182   0.649   1.438   5.999
  813SOL    HW2 3183   0.534   1.535   6.019
  814SOL     OW 3184   1.727   0.385   6.964
  814SOL    HW1 3185   1.797   0.451   6.963
  814SOL    HW2 3186   1.758   0.316   6.906
  815SOL     OW 3187   0.261   1.348   5.880
  815SOL    HW1 3188   0.168   1.349   5.857
  815SOL    HW2 3189   0.264   1.386   5.968
  816SOL     OW 3190   0.118   1.014   7.301
  816SOL    HW1 3191   0.046   0.986   7.358
  816SOL    HW2 3192   0.197   0.984   7.345
  817SOL     OW 3193   0.676   0.218   7.079
  817SOL    HW1 3194   0.759   0.202   7.034
  817SOL    HW2 3195   0.702   0.263   7.160
  818SOL     OW 3196   0.080   0.332   5.622
  818SOL    HW1 3197   5.286   0.312   5.616
  818SOL    HW2 3198   0.092   0.403   5.559
  819SOL     OW 3199   1.428   0.858   6.985
  819SOL    HW1 3200   1.379   0.919   6.930
  819SOL    HW2 3201   1.517   0.861   6.951
  820SOL     OW 3202   0.085   0.143   5.878
  820SOL    HW1 3203   0.079   0.237   5.859
  820SOL    HW2 3204   0.172   0.118   5.847
  821SOL     OW 3205   1.179   1.338   5.703
  821SOL    HW1 3206   1.088   1.308   5.706
  821SOL    HW2 3207   1.206   1.338   5.795
  822SOL     OW 3208   0.620   0.831   7.022
  822SOL    HW1 3209   0.676   0.907   7.006
  822SOL    HW2 3210   0.681   0.758   7.029
  823SOL     OW 3211   1.483   1.779   6.567
  823SOL    HW1 3212   1.505   1.840   6.496
  823SOL    HW2 3213   1.567   1.758   6.607
  824SOL     OW 3214   0.711   0.574   7.288
  824SOL    HW1 3215   0.756   0.636   7.345
  824SOL    HW2 3216   0.740   0.488   7.318
  825SOL     OW 3217   1.472   1.197   7.217
  825SOL    HW1 3218   1.460   1.212   7.311
  825SOL    HW2 3219   1.565   1.214   7.202
  826SOL     OW 3220   0.375   1.744   7.150
  826SOL    HW1 3221   0.292   1.789   7.134
  826SOL    HW2 3222   0.349   1.663   7.195
  827SOL     OW 3223   1.668   0.881   6.841
  827SOL    HW1 3224   1.662   0.796   6.798
  827SOL    HW2 3225   1.658   0.944   6.770
  828SOL     OW 3226   1.220   0.318   6.050
  828SOL    HW1 3227   1.283   0.246   6.045
  828SOL    HW2 3228   1.250   0.370   6.125
  829SOL     OW 3229   0.588   0.736   6.257
  829SOL    HW1 3230   0.628   0.822   6.241
  829SOL    HW2 3231   0.520   0.729   6.190
  830SOL     OW 3232   1.765   0.361   7.237
  830SOL    HW1 3233   1.747   0.377   7.144
  830SOL    HW2 3234   1.692   0.307   7.266
  831SOL     OW 3235   1.746   0.933   7.098
  831SOL    HW1 3236   1.740   1.028   7.111
  831SOL    HW2 3237   1.730   0.921   7.004
  832SOL     OW 3238   0.862   1.366   5.623
  832SOL    HW1 3239   0.825   1.396   5.706
  832SOL    HW2 3240   0.881   1.447   5.574
  833SOL     OW 3241   0.664   1.792   6.527
  833SOL    HW1 3242   0.644   1.883   6.505
  833SOL    HW2 3243   0.760   1.787   6.521
  834SOL     OW 3244   0.868   0.968   6.439
  834SOL    HW1 3245   0.919   0.896   6.479
  834SOL    HW2 3246   0.832   1.015   6.514
  835SOL     OW 3247   1.076   0.987   5.674
  835SOL    HW1 3248   1.057   1.039   5.597
  835SOL    HW2 3249   1.152   0.934   5.649
  836SOL     OW 3250   1.852   1.554   6.430
  836SOL    HW1 3251   1.773   1.542   6.376
  836SOL    HW2 3252   1.844   1.488   6.498
  837SOL     OW 3253   0.227   1.304   7.448
  837SOL    HW1 3254   0.155   1.245   7.421
  837SOL    HW2 3255   0.214   1.315   7.542
  838SOL     OW 3256   0.089   1.214   6.239
  838SOL    HW1 3257   0.104   1.186   6.329
  838SOL    HW2 3258   0.177   1.222   6.201
  839SOL     OW 3259   0.682   1.403   7.216
  839SOL    HW1 3260   0.601   1.362   7.246
  839SOL    HW2 3261   0.679   1.492   7.251
  840SOL     OW 3262   1.811   0.175   6.817
  840SOL    HW1 3263   1.775   0.086   6.818
  840SOL    HW2 3264   1.833   0.190   6.725
  841SOL     OW 3265   0.434   0.437   6.108
  841SOL    HW1 3266   0.466   0.363   6.057
  841SOL    HW2 3267   0.387   0.397   6.181
  842SOL     OW 3268   1.699   1.488   6.681
  842SOL    HW1 3269   1.619   1.466   6.633
  842SOL    HW2 3270   1.708   1.419   6.746
  843SOL     OW 3271   0.339   0.563   6.875
  843SOL    HW1 3272   0.396   0.505   6.925
  843SOL    HW2 3273   0.351   0.536   6.784
  844SOL     OW 3274   0.830   1.577   6.263
  844SOL    HW1 3275   0.814   1.637   6.190
  844SOL    HW2 3276   0.754   1.519   6.264
  845SOL     OW 3277   1.427   0.219   6.702
  845SOL    HW1 3278   1.463   0.144   6.750
  845SOL    HW2 3279   1.379   0.268   6.768
  846SOL     OW 3280   1.001   0.019   6.725
  846SOL    HW1 3281   0.951   5.252   6.679
  846SOL    HW2 3282   1.087   5.280   6.739
  847SOL     OW 3283   0.772   1.333   5.904
  847SOL    HW1 3284   0.744   1.242   5.910
  847SOL    HW2 3285   0.854   1.336   5.953
  848SOL     OW 3286   0.623   1.555   6.874
  848SOL    HW1 3287   0.624   1.637   6.923
  848SOL    HW2 3288   0.710   1.550   6.835
  849SOL     OW 3289   1.353   0.036   5.750
  849SOL    HW1 3290   1.393   5.297   5.672
  849SOL    HW2 3291   1.277   5.281   5.767
  850SOL     OW 3292   1.300   0.464   6.269
  850SOL    HW1 3293   1.246   0.543   6.274
  850SOL    HW2 3294   1.293   0.425   6.356
  851SOL     OW 3295   1.595   0.215   6.469
  851SOL    HW1 3296   1.530   0.227   6.538
  851SOL    HW2 3297   1.588   0.294   6.415
  852SOL     OW 3298   0.048   1.067   5.875
  852SOL    HW1 3299   0.138   1.034   5.865
  852SOL    HW2 3300   5.300   0.994   5.913
  853SOL     OW 3301   0.887   1.654   5.926
  853SOL    HW1 3302   0.813   1.639   5.867
  853SOL    HW2 3303   0.860   1.729   5.980
  854SOL     OW 3304   0.226   0.630   7.567
  854SOL    HW1 3305   0.153   0.586   7.611
  854SOL    HW2 3306   0.215   0.607   7.475
  855SOL     OW 3307   1.769   0.596   7.679
  855SOL    HW1 3308   1.748   0.592   7.585
  855SOL    HW2 3309   1.728   0.518   7.716
  856SOL     OW 3310   0.234   1.701   7.922
  856SOL    HW1 3311   0.264   1.751   7.998
  856SOL    HW2 3312   0.302   1.713   7.857
  857SOL     OW 3313   0.215   1.435   7.993
  857SOL    HW1 3314   0.213   1.530   7.979
  857SOL    HW2 3315   0.152   1.420   8.064
  858SOL     OW 3316   0.580   0.986   7.582
  858SOL    HW1 3317   0.627   1.032   7.512
  858SOL    HW2 3318   0.622   1.016   7.663
  859SOL     OW 3319   1.837   1.757   7.796
  859SOL    HW1 3320   1.910   1.728   7.852
  859SOL    HW2 3321   1.861   1.846   7.771
  860SOL     OW 3322   0.036   1.603   7.585
  860SOL    HW1 3323   0.029   1.510   7.606
  860SOL    HW2 3324   5.274   1.646   7.644
  861SOL     OW 3325   1.683   0.862   8.030
  861SOL    HW1 3326   1.760   0.874   0.005
  861SOL    HW2 3327   1.668   0.947   7.989
  862SOL     OW 3328   1.656   1.097   7.878
  862SOL    HW1 3329   1.744   1.124   7.851
  862SOL    HW2 3330   1.625   1.170   7.933
  863SOL     OW 3331   0.811   5.285   7.941
  863SOL    HW1 3332   0.854   0.070   7.929
  863SOL    HW2 3333   0.717   0.006   7.941
  864SOL     OW 3334   1.534   0.996   7.650
  864SOL    HW1 3335   1.466   0.938   7.685
  864SOL    HW2 3336   1.578   1.030   7.728
  865SOL     OW 3337   0.587   0.722   7.707
  865SOL    HW1 3338   0.594   0.805   7.660
  865SOL    HW2 3339   0.535   0.743   7.785
  866SOL     OW 3340   1.574   1.672   7.757
  866SOL    HW1 3341   1.665   1.699   7.766
  866SOL    HW2 3342   1.562   1.659   7.663
  867SOL     OW 3343   0.048   0.817   0.193
  867SOL    HW1 3344   0.119   0.761   0.162
  867SOL    HW2 3345   0.031   0.876   0.120
  868SOL     OW 3346   0.872   0.362   7.629
  868SOL    HW1 3347   0.913   0.424   7.569
  868SOL    HW2 3348   0.937   0.294   7.642
  869SOL     OW 3349   0.317   0.948   7.694
  869SOL    HW1 3350   0.397   0.976   7.651
  869SOL    HW2 3351   0.296   0.864   7.654
  870SOL     OW 3352   1.125   1.776   7.681
  870SOL    HW1 3353   1.048   1.736   7.722
  870SOL    HW2 3354   1.150   1.714   7.612
  871SOL     OW 3355   1.628   1.381   7.534
  871SOL    HW1 3356   1.586   1.466   7.521
  871SOL    HW2 3357   1.560   1.317   7.516
  872SOL     OW 3358   0.470   1.738   7.769
  872SOL    HW1 3359   0.517   1.791   7.834
  872SOL    HW2 3360   0.539   1.702   7.713
  873SOL     OW 3361   1.413   0.107   7.884
  873SOL    HW1 3362   1.409   0.083   7.792
  873SOL    HW2 3363   1.506   0.113   7.904
  874SOL     OW 3364   0.378   0.697   7.923
  874SOL    HW1 3365   0.398   0.603   7.927
  874SOL    HW2 3366   0.288   0.703   7.955
  875SOL     OW 3367   0.614   0.132   7.560
  875SOL    HW1 3368   0.687   0.073   7.581
  875SOL    HW2 3369   0.571   0.090   7.485
  876SOL     OW 3370   0.549   0.063   7.950
  876SOL    HW1 3371   0.457   0.046   7.973
  876SOL    HW2 3372   0.545   0.137   7.889
  877SOL     OW 3373   1.428   1.199   7.489
  877SOL    HW1 3374   1.458   1.125   7.542
  877SOL    HW2 3375   1.344   1.223   7.527
  878SOL     OW 3376   0.316   0.073   7.654
  878SOL    HW1 3377   0.375   0.131   7.606
  878SOL    HW2 3378   0.361   5.288   7.654
  879SOL     OW 3379   0.949   0.226   7.909
  879SOL    HW1 3380   0.900   0.298   7.871
  879SOL    HW2 3381   1.038   0.260   7.919
  880SOL     OW 3382   0.445   1.158   0.089
  880SOL    HW1 3383   0.374   1.188   0.146
  880SOL    HW2 3384   0.403   1.142   0.005
  881SOL     OW 3385   1.292   1.813   8.014
  881SOL    HW1 3386   1.329   1.882   7.958
  881SOL    HW2 3387   1.205   1.844   8.036
  882SOL     OW 3388   1.025   0.544   7.470
  882SOL    HW1 3389   0.982   0.628   7.455
  882SOL    HW2 3390   1.084   0.560   7.543
  883SOL     OW 3391   1.876   0.814   7.801
  883SOL    HW1 3392   1.856   0.796   7.893
  883SOL    HW2 3393   1.836   0.741   7.753
  884SOL     OW 3394   0.489   1.418   7.602
  884SOL    HW1 3395   0.414   1.390   7.656
  884SOL    HW2 3396   0.474   1.376   7.517
  885SOL     OW 3397   1.393   0.572   7.519
  885SOL    HW1 3398   1.331   0.551   7.589
  885SOL    HW2 3399   1.477   0.541   7.552
  886SOL     OW 3400   0.524   0.273   7.774
  886SOL    HW1 3401   0.566   0.221   7.706
  886SOL    HW2 3402   0.501   0.355   7.730
  887SOL     OW 3403   0.711   1.062   7.813
  887SOL    HW1 3404   0.691   1.049   7.906
  887SOL    HW2 3405   0.789   1.009   7.797
  888SOL     OW 3406   0.342   1.097   7.926
  888SOL    HW1 3407   0.340   1.181   7.880
  888SOL    HW2 3408   0.344   1.032   7.855
  889SOL     OW 3409   1.221   1.357   7.821
  889SOL    HW1 3410   1.281   1.428   7.843
  889SOL    HW2 3411   1.191   1.323   7.906
  890SOL     OW 3412   1.589   0.623   7.920
  890SOL    HW1 3413   1.577   0.681   7.996
  890SOL    HW2 3414   1.624   0.680   7.852
  891SOL     OW 3415   1.202   0.524   7.713
  891SOL    HW1 3416   1.202   0.437   7.753
  891SOL    HW2 3417   1.183   0.584   7.785
  892SOL     OW 3418   1.618   0.376   7.812
  892SOL    HW1 3419   1.639   0.309   7.876
  892SOL    HW2 3420   1.595   0.453   7.864
  893SOL     OW 3421   1.527   0.271   7.575
  893SOL    HW1 3422   1.464   0.206   7.605
  893SOL    HW2 3423   1.563   0.309   7.655
  894SOL     OW 3424   1.292   0.827   7.480
  894SOL    HW1 3425   1.333   0.741   7.482
  894SOL    HW2 3426   1.323   0.866   7.398
  895SOL     OW 3427   0.005   1.332   7.655
  895SOL    HW1 3428   5.224   1.329   7.604
  895SOL    HW2 3429   0.014   1.244   7.691
  896SOL     OW 3430   0.841   0.609   7.759
  896SOL    HW1 3431   0.834   0.518   7.731
  896SOL    HW2 3432   0.751   0.640   7.763
  897SOL     OW 3433   0.458   0.494   7.629
  897SOL    HW1 3434   0.522   0.562   7.650
  897SOL    HW2 3435   0.375   0.540   7.618
  898SOL     OW 3436   1.313   0.853   7.753
  898SOL    HW1 3437   1.227   0.859   7.794
  898SOL    HW2 3438   1.295   0.841   7.660
  899SOL     OW 3439   1.709   0.133   7.944
  899SOL    HW1 3440   1.783   0.133   7.882
  899SOL    HW2 3441   1.743   0.087   8.021
  900SOL     OW 3442   1.361   1.578   7.894
  900SOL    HW1 3443   1.437   1.598   7.839
  900SOL    HW2 3444   1.331   1.663   7.925
  901SOL     OW 3445   0.668   1.620   7.603
  901SOL    HW1 3446   0.680   1.634   7.509
  901SOL    HW2 3447   0.614   1.542   7.609
  902SOL     OW 3448   1.210   1.606   7.478
  902SOL    HW1 3449   1.198   1.515   7.505
  902SOL    HW2 3450   1.143   1.620   7.411
  903SOL     OW 3451   0.922   0.907   7.755
  903SOL    HW1 3452   0.978   0.930   7.680
  903SOL    HW2 3453   0.918   0.811   7.752
  904SOL     OW 3454   1.492   1.627   7.489
  904SOL    HW1 3455   1.398   1.619   7.476
  904SOL    HW2 3456   1.528   1.632   7.400
  905SOL     OW 3457   0.609   1.507   7.935
  905SOL    HW1 3458   0.654   1.448   7.875
  905SOL    HW2 3459   0.534   1.540   7.885
  906SOL     OW 3460   0.261   1.346   7.744
  906SOL    HW1 3461   0.169   1.350   7.719
  906SOL    HW2 3462   0.263   1.381   7.833
  907SOL     OW 3463   0.080   0.339   7.485
  907SOL    HW1 3464   5.289   0.310   7.474
  907SOL    HW2 3465   0.092   0.406   7.418
  908SOL     OW 3466   0.068   0.143   7.734
  908SOL    HW1 3467   0.067   0.238   7.721
  908SOL    HW2 3468   0.158   0.117   7.712
  909SOL     OW 3469   1.175   1.337   7.556
  909SOL    HW1 3470   1.082   1.313   7.554
  909SOL    HW2 3471   1.196   1.344   7.649
  910SOL     OW 3472   1.221   0.317   7.916
  910SOL    HW1 3473   1.288   0.249   7.910
  910SOL    HW2 3474   1.244   0.366   7.995
  911SOL     OW 3475   0.627   0.747   8.039
  911SOL    HW1 3476   0.629   0.818   0.023
  911SOL    HW2 3477   0.534   0.737   8.017
  912SOL     OW 3478   0.864   1.367   7.486
  912SOL    HW1 3479   0.825   1.397   7.568
  912SOL    HW2 3480   0.881   1.447   7.437
  913SOL     OW 3481   1.069   0.975   7.537
  913SOL    HW1 3482   1.052   1.035   7.464
  913SOL    HW2 3483   1.149   0.928   7.511
  914SOL     OW 3484   0.402   0.431   7.983
  914SOL    HW1 3485   0.447   0.368   7.927
  914SOL    HW2 3486   0.444   0.422   8.068
  915SOL     OW 3487   0.765   1.336   7.766
  915SOL    HW1 3488   0.737   1.245   7.766
  915SOL    HW2 3489   0.847   1.336   7.814
  916SOL     OW 3490   1.364   0.036   7.613
  916SOL    HW1 3491   1.378   5.289   7.531
  916SOL    HW2 3492   1.283   5.299   7.649
  917SOL     OW 3493   0.049   1.069   7.720
  917SOL    HW1 3494   0.138   1.034   7.718
  917SOL    HW2 3495   0.001   1.010   7.779
  918SOL     OW 3496   0.894   1.654   7.778
  918SOL    HW1 3497   0.818   1.630   7.726
  918SOL    HW2 3498   0.860   1.715   7.843
  919SOL     OW 3499   0.220   2.480   0.120
  919SOL    HW1 3500   0.154   2.428   0.165
  919SOL    HW2 3501   0.231   2.438   0.035
  920SOL     OW 3502   0.243   2.137   0.988
  920SOL    HW1 3503   0.257   2.103   1.076
  920SOL    HW2 3504   0.158   2.101   0.961
  921SOL     OW 3505   5.295   2.261   0.647
  921SOL    HW1 3506   5.204   2.289   0.656
  921SOL    HW2 3507   5.290   2.167   0.628
  922SOL     OW 3508   0.576   3.150   1.186
  922SOL    HW1 3509   0.494   3.157   1.138
  922SOL    HW2 3510   0.592   3.238   1.220
  923SOL     OW 3511   1.564   3.375   0.708
  923SOL    HW1 3512   1.521   3.353   0.791
  923SOL    HW2 3513   1.493   3.378   0.645
  924SOL     OW 3514   1.132   2.560   0.699
  924SOL    HW1 3515   1.180   2.641   0.686
  924SOL    HW2 3516   1.085   2.574   0.782
  925SOL     OW 3517   1.765   2.463   0.234
  925SOL    HW1 3518   1.729   2.468   0.146
  925SOL    HW2 3519   1.727   2.383   0.271
  926SOL     OW 3520   0.753   3.001   1.042
  926SOL    HW1 3521   0.687   3.037   1.102
  926SOL    HW2 3522   0.789   3.078   0.998
  927SOL     OW 3523   0.870   2.632   1.823
  927SOL    HW1 3524   0.860   2.704   1.886
  927SOL    HW2 3525   0.892   2.676   1.740
  928SOL     OW 3526   0.683   2.860   0.649
  928SOL    HW1 3527   0.750   2.851   0.717
  928SOL    HW2 3528   0.616   2.916   0.689
  929SOL     OW 3529   0.711   3.012   1.815
  929SOL    HW1 3530   0.759   3.090   1.843
  929SOL    HW2 3531   0.630   3.046   1.777
  930SOL     OW 3532   0.358   3.266   1.061
  930SOL    HW1 3533   0.271   3.262   1.023
  930SOL    HW2 3534   0.406   3.327   1.005
  931SOL     OW 3535   1.460   3.362   1.357
  931SOL    HW1 3536   1.513   3.442   1.366
  931SOL    HW2 3537   1.395   3.369   1.427
  932SOL     OW 3538   0.451   2.261   1.490
  932SOL    HW1 3539   0.526   2.201   1.493
  932SOL    HW2 3540   0.375   2.205   1.501
  933SOL     OW 3541   1.610   2.309   0.742
  933SOL    HW1 3542   1.538   2.330   0.684
  933SOL    HW2 3543   1.619   2.386   0.798
  934SOL     OW 3544   0.217   3.594   0.463
  934SOL    HW1 3545   0.257   3.650   0.530
  934SOL    HW2 3546   0.290   3.571   0.405
  935SOL     OW 3547   1.137   3.204   1.693
  935SOL    HW1 3548   1.178   3.198   1.779
  935SOL    HW2 3549   1.085   3.124   1.686
  936SOL     OW 3550   0.220   3.313   0.531
  936SOL    HW1 3551   0.198   3.405   0.539
  936SOL    HW2 3552   0.161   3.269   0.593
  937SOL     OW 3553   0.256   2.940   0.878
  937SOL    HW1 3554   0.262   2.852   0.915
  937SOL    HW2 3555   0.201   2.988   0.938
  938SOL     OW 3556   0.611   3.652   1.432
  938SOL    HW1 3557   0.527   3.635   1.475
  938SOL    HW2 3558   0.632   3.743   1.455
  939SOL     OW 3559   0.616   2.820   0.141
  939SOL    HW1 3560   0.574   2.900   0.110
  939SOL    HW2 3561   0.675   2.850   0.211
  940SOL     OW 3562   1.596   1.987   1.467
  940SOL    HW1 3563   1.608   2.068   1.418
  940SOL    HW2 3564   1.580   2.015   1.557
  941SOL     OW 3565   0.130   2.497   0.584
  941SOL    HW1 3566   0.087   2.414   0.607
  941SOL    HW2 3567   0.100   2.558   0.651
  942SOL     OW 3568   1.847   3.619   0.329
  942SOL    HW1 3569   1.913   3.589   0.392
  942SOL    HW2 3570   1.869   3.710   0.311
  943SOL     OW 3571   0.032   3.443   0.104
  943SOL    HW1 3572   0.023   3.358   0.148
  943SOL    HW2 3573   0.008   3.507   0.171
  944SOL     OW 3574   1.687   2.780   0.644
  944SOL    HW1 3575   1.768   2.736   0.619
  944SOL    HW2 3576   1.664   2.833   0.568
  945SOL     OW 3577   1.647   2.965   0.435
  945SOL    HW1 3578   1.728   2.977   0.386
  945SOL    HW2 3579   1.653   3.029   0.506
  946SOL     OW 3580   0.133   2.611   1.583
  946SOL    HW1 3581   0.228   2.625   1.583
  946SOL    HW2 3582   0.097   2.698   1.602
  947SOL     OW 3583   0.617   3.250   0.733
  947SOL    HW1 3584   0.569   3.168   0.744
  947SOL    HW2 3585   0.599   3.276   0.643
  948SOL     OW 3586   1.288   3.099   1.423
  948SOL    HW1 3587   1.319   3.032   1.363
  948SOL    HW2 3588   1.346   3.094   1.498
  949SOL     OW 3589   0.826   1.866   0.515
  949SOL    HW1 3590   0.865   1.950   0.490
  949SOL    HW2 3591   0.732   1.883   0.518
  950SOL     OW 3592   0.173   2.804   1.280
  950SOL    HW1 3593   0.264   2.774   1.272
  950SOL    HW2 3594   0.135   2.788   1.194
  951SOL     OW 3595   1.504   2.873   0.215
  951SOL    HW1 3596   1.445   2.807   0.249
  951SOL    HW2 3597   1.560   2.896   0.289
  952SOL     OW 3598   1.185   3.671   1.624
  952SOL    HW1 3599   1.193   3.730   1.549
  952SOL    HW2 3600   1.202   3.584   1.587
  953SOL     OW 3601   0.341   2.116   1.822
  953SOL    HW1 3602   0.386   2.199   1.836
  953SOL    HW2 3603   0.252   2.132   1.854
  954SOL     OW 3604   1.467   3.281   0.950
  954SOL    HW1 3605   1.399   3.297   1.016
  954SOL    HW2 3606   1.454   3.190   0.924
  955SOL     OW 3607   1.658   3.607   0.582
  955SOL    HW1 3608   1.637   3.578   0.493
  955SOL    HW2 3609   1.635   3.533   0.638
  956SOL     OW 3610   0.597   2.573   0.282
  956SOL    HW1 3611   0.616   2.654   0.235
  956SOL    HW2 3612   0.534   2.599   0.349
  957SOL     OW 3613   1.279   2.218   0.933
  957SOL    HW1 3614   1.189   2.185   0.941
  957SOL    HW2 3615   1.330   2.164   0.993
  958SOL     OW 3616   1.587   3.534   0.321
  958SOL    HW1 3617   1.678   3.561   0.313
  958SOL    HW2 3618   1.559   3.517   0.231
  959SOL     OW 3619   0.791   2.479   1.450
  959SOL    HW1 3620   0.765   2.455   1.539
  959SOL    HW2 3621   0.753   2.412   1.394
  960SOL     OW 3622   1.393   2.336   1.678
  960SOL    HW1 3623   1.396   2.381   1.762
  960SOL    HW2 3624   1.453   2.262   1.688
  961SOL     OW 3625   0.953   2.748   1.584
  961SOL    HW1 3626   1.007   2.679   1.547
  961SOL    HW2 3627   0.905   2.784   1.509
  962SOL     OW 3628   0.992   2.273   1.238
  962SOL    HW1 3629   0.905   2.294   1.272
  962SOL    HW2 3630   0.976   2.229   1.154
  963SOL     OW 3631   1.053   2.561   0.427
  963SOL    HW1 3632   1.070   2.555   0.521
  963SOL    HW2 3633   0.971   2.515   0.414
  964SOL     OW 3634   0.066   2.652   0.814
  964SOL    HW1 3635   0.147   2.655   0.864
  964SOL    HW2 3636   0.070   2.728   0.756
  965SOL     OW 3637   0.128   3.748   1.585
  965SOL    HW1 3638   0.133   3.722   1.677
  965SOL    HW2 3639   0.060   3.692   1.548
  966SOL     OW 3640   0.886   2.219   0.203
  966SOL    HW1 3641   0.931   2.270   0.136
  966SOL    HW2 3642   0.886   2.130   0.170
  967SOL     OW 3643   1.706   2.432   1.827
  967SOL    HW1 3644   1.670   2.508   1.780
  967SOL    HW2 3645   1.736   2.373   1.758
  968SOL     OW 3646   1.378   3.003   0.541
  968SOL    HW1 3647   1.456   2.991   0.487
  968SOL    HW2 3648   1.324   3.065   0.491
  969SOL     OW 3649   0.556   2.045   0.894
  969SOL    HW1 3650   0.554   2.073   0.986
  969SOL    HW2 3651   0.554   2.126   0.844
  970SOL     OW 3652   1.002   3.305   0.471
  970SOL    HW1 3653   0.966   3.379   0.421
  970SOL    HW2 3654   0.981   3.326   0.563
  971SOL     OW 3655   0.358   3.665   0.870
  971SOL    HW1 3656   0.398   3.579   0.883
  971SOL    HW2 3657   0.423   3.727   0.903
  972SOL     OW 3658   1.798   2.916   0.870
  972SOL    HW1 3659   1.744   2.899   0.793
  972SOL    HW2 3660   1.736   2.923   0.942
  973SOL     OW 3661   1.228   3.401   1.513
  973SOL    HW1 3662   1.215   3.328   1.574
  973SOL    HW2 3663   1.162   3.387   1.445
  974SOL     OW 3664   0.331   2.814   0.256
  974SOL    HW1 3665   0.412   2.823   0.205
  974SOL    HW2 3666   0.311   2.721   0.252
  975SOL     OW 3667   1.479   2.606   0.726
  975SOL    HW1 3668   1.473   2.566   0.812
  975SOL    HW2 3669   1.557   2.662   0.731
  976SOL     OW 3670   0.466   3.127   1.738
  976SOL    HW1 3671   0.440   3.133   1.646
  976SOL    HW2 3672   0.384   3.127   1.787
  977SOL     OW 3673   1.107   3.643   0.222
  977SOL    HW1 3674   1.051   3.603   0.288
  977SOL    HW2 3675   1.129   3.572   0.162
  978SOL     OW 3676   0.206   2.139   1.497
  978SOL    HW1 3677   0.127   2.192   1.480
  978SOL    HW2 3678   0.172   2.059   1.537
  979SOL     OW 3679   1.635   3.234   0.083
  979SOL    HW1 3680   1.593   3.320   0.083
  979SOL    HW2 3681   1.564   3.173   0.064
  980SOL     OW 3682   0.470   3.594   0.325
  980SOL    HW1 3683   0.514   3.655   0.385
  980SOL    HW2 3684   0.539   3.567   0.264
  981SOL     OW 3685   1.407   1.973   0.447
  981SOL    HW1 3686   1.399   1.952   0.354
  981SOL    HW2 3687   1.502   1.981   0.461
  982SOL     OW 3688   0.278   3.663   1.209
  982SOL    HW1 3689   0.306   3.584   1.255
  982SOL    HW2 3690   0.224   3.630   1.137
  983SOL     OW 3691   0.939   3.561   0.898
  983SOL    HW1 3692   1.017   3.510   0.919
  983SOL    HW2 3693   0.896   3.511   0.829
  984SOL     OW 3694   0.381   2.560   0.476
  984SOL    HW1 3695   0.413   2.471   0.485
  984SOL    HW2 3696   0.289   2.557   0.502
  985SOL     OW 3697   1.534   2.087   1.725
  985SOL    HW1 3698   1.544   2.107   1.818
  985SOL    HW2 3699   1.464   2.022   1.722
  986SOL     OW 3700   0.629   1.971   0.139
  986SOL    HW1 3701   0.724   1.960   0.143
  986SOL    HW2 3702   0.606   1.953   0.047
  987SOL     OW 3703   0.766   2.141   1.755
  987SOL    HW1 3704   0.843   2.085   1.754
  987SOL    HW2 3705   0.718   2.114   1.834
  988SOL     OW 3706   0.877   3.384   1.193
  988SOL    HW1 3707   0.860   3.347   1.107
  988SOL    HW2 3708   0.947   3.330   1.230
  989SOL     OW 3709   1.340   2.451   1.432
  989SOL    HW1 3710   1.371   2.420   1.517
  989SOL    HW2 3711   1.376   2.539   1.424
  990SOL     OW 3712   0.817   3.254   0.942
  990SOL    HW1 3713   0.901   3.243   0.898
  990SOL    HW2 3714   0.753   3.258   0.870
  991SOL     OW 3715   0.928   2.371   0.901
  991SOL    HW1 3716   0.904   2.363   0.809
  991SOL    HW2 3717   0.958   2.284   0.926
  992SOL     OW 3718   0.561   1.923   0.499
  992SOL    HW1 3719   0.486   1.923   0.558
  992SOL    HW2 3720   0.550   2.002   0.446
  993SOL     OW 3721   1.432   3.062   0.035
  993SOL    HW1 3722   1.456   2.989   0.091
  993SOL    HW2 3723   1.345   3.088   0.064
  994SOL     OW 3724   0.315   1.911   0.178
  994SOL    HW1 3725   0.381   1.980   0.183
  994SOL    HW2 3726   0.356   1.835   0.220
  995SOL     OW 3727   0.943   2.111   0.457
  995SOL    HW1 3728   0.915   2.151   0.375
  995SOL    HW2 3729   1.037   2.128   0.462
  996SOL     OW 3730   1.080   2.544   1.459
  996SOL    HW1 3731   1.012   2.476   1.463
  996SOL    HW2 3732   1.162   2.495   1.452
  997SOL     OW 3733   1.222   3.432   0.794
  997SOL    HW1 3734   1.237   3.498   0.727
  997SOL    HW2 3735   1.291   3.448   0.859
  998SOL     OW 3736   0.469   3.014   0.729
  998SOL    HW1 3737   0.401   2.993   0.793
  998SOL    HW2 3738   0.429   2.999   0.644
  999SOL     OW 3739   1.267   3.655   0.609
  999SOL    HW1 3740   1.317   3.719   0.558
  999SOL    HW2 3741   1.198   3.707   0.652
 1000SOL     OW 3742   1.030   2.387   0.035
 1000SOL    HW1 3743   0.993   2.469   0.003
 1000SOL    HW2 3744   1.095   2.413   0.100
 1001SOL     OW 3745   0.090   2.405   1.399
 1001SOL    HW1 3746   0.178   2.413   1.362
 1001SOL    HW2 3747   0.081   2.482   1.455
 1002SOL     OW 3748   0.560   2.090   1.167
 1002SOL    HW1 3749   0.598   2.011   1.206
 1002SOL    HW2 3750   0.468   2.089   1.195
 1003SOL     OW 3751   0.867   2.320   0.639
 1003SOL    HW1 3752   0.826   2.376   0.573
 1003SOL    HW2 3753   0.889   2.240   0.591
 1004SOL     OW 3754   1.017   1.915   0.749
 1004SOL    HW1 3755   0.957   1.909   0.674
 1004SOL    HW2 3756   0.994   1.840   0.804
 1005SOL     OW 3757   1.438   3.024   0.857
 1005SOL    HW1 3758   1.367   2.959   0.856
 1005SOL    HW2 3759   1.463   3.034   0.765
 1006SOL     OW 3760   1.466   2.469   0.973
 1006SOL    HW1 3761   1.412   2.390   0.977
 1006SOL    HW2 3762   1.524   2.462   1.049
 1007SOL     OW 3763   1.846   2.677   0.387
 1007SOL    HW1 3764   1.889   2.621   0.451
 1007SOL    HW2 3765   1.817   2.618   0.318
 1008SOL     OW 3766   0.483   3.303   0.173
 1008SOL    HW1 3767   0.410   3.266   0.222
 1008SOL    HW2 3768   0.491   3.248   0.096
 1009SOL     OW 3769   1.672   3.127   0.647
 1009SOL    HW1 3770   1.767   3.129   0.661
 1009SOL    HW2 3771   1.644   3.216   0.667
 1010SOL     OW 3772   1.397   2.437   0.086
 1010SOL    HW1 3773   1.336   2.420   0.158
 1010SOL    HW2 3774   1.451   2.358   0.082
 1011SOL     OW 3775   0.514   2.126   0.323
 1011SOL    HW1 3776   0.565   2.074   0.261
 1011SOL    HW2 3777   0.499   2.209   0.278
 1012SOL     OW 3778   1.750   3.103   1.570
 1012SOL    HW1 3779   1.838   3.064   1.566
 1012SOL    HW2 3780   1.766   3.193   1.599
 1013SOL     OW 3781   1.057   3.215   1.333
 1013SOL    HW1 3782   0.982   3.184   1.383
 1013SOL    HW2 3783   1.133   3.174   1.374
 1014SOL     OW 3784   1.609   3.488   1.656
 1014SOL    HW1 3785   1.601   3.522   1.566
 1014SOL    HW2 3786   1.691   3.440   1.656
 1015SOL     OW 3787   1.131   3.067   1.104
 1015SOL    HW1 3788   1.071   3.105   1.169
 1015SOL    HW2 3789   1.100   3.101   1.020
 1016SOL     OW 3790   1.625   2.959   1.077
 1016SOL    HW1 3791   1.620   3.021   1.149
 1016SOL    HW2 3792   1.548   2.977   1.024
 1017SOL     OW 3793   0.919   1.957   1.395
 1017SOL    HW1 3794   0.941   1.939   1.304
 1017SOL    HW2 3795   0.998   1.997   1.432
 1018SOL     OW 3796   0.984   2.977   1.723
 1018SOL    HW1 3797   0.893   2.993   1.745
 1018SOL    HW2 3798   0.982   2.899   1.668
 1019SOL     OW 3799   0.717   2.926   0.382
 1019SOL    HW1 3800   0.698   2.906   0.474
 1019SOL    HW2 3801   0.794   2.873   0.361
 1020SOL     OW 3802   0.421   2.683   1.253
 1020SOL    HW1 3803   0.490   2.690   1.319
 1020SOL    HW2 3804   0.387   2.594   1.263
 1021SOL     OW 3805   1.264   2.238   1.277
 1021SOL    HW1 3806   1.297   2.316   1.322
 1021SOL    HW2 3807   1.174   2.260   1.255
 1022SOL     OW 3808   0.103   3.485   1.366
 1022SOL    HW1 3809   0.081   3.490   1.273
 1022SOL    HW2 3810   0.189   3.444   1.368
 1023SOL     OW 3811   0.345   2.973   0.486
 1023SOL    HW1 3812   0.341   3.053   0.433
 1023SOL    HW2 3813   0.356   2.902   0.422
 1024SOL     OW 3814   0.552   2.395   0.858
 1024SOL    HW1 3815   0.567   2.454   0.785
 1024SOL    HW2 3816   0.618   2.422   0.923
 1025SOL     OW 3817   1.247   3.209   0.394
 1025SOL    HW1 3818   1.302   3.281   0.423
 1025SOL    HW2 3819   1.159   3.232   0.426
 1026SOL     OW 3820   1.284   3.321   1.147
 1026SOL    HW1 3821   1.340   3.324   1.225
 1026SOL    HW2 3822   1.228   3.244   1.161
 1027SOL     OW 3823   1.580   2.482   0.485
 1027SOL    HW1 3824   1.530   2.534   0.548
 1027SOL    HW2 3825   1.617   2.546   0.425
 1028SOL     OW 3826   0.352   3.382   1.309
 1028SOL    HW1 3827   0.341   3.338   1.225
 1028SOL    HW2 3828   0.446   3.399   1.315
 1029SOL     OW 3829   0.415   2.604   1.602
 1029SOL    HW1 3830   0.477   2.650   1.545
 1029SOL    HW2 3831   0.454   2.518   1.615
 1030SOL     OW 3832   1.603   2.641   1.684
 1030SOL    HW1 3833   1.517   2.683   1.678
 1030SOL    HW2 3834   1.656   2.683   1.616
 1031SOL     OW 3835   0.996   1.989   1.755
 1031SOL    HW1 3836   1.053   2.061   1.730
 1031SOL    HW2 3837   1.044   1.910   1.729
 1032SOL     OW 3838   0.497   1.902   1.749
 1032SOL    HW1 3839   0.453   1.849   1.683
 1032SOL    HW2 3840   0.439   1.977   1.762
 1033SOL     OW 3841   0.586   2.736   1.033
 1033SOL    HW1 3842   0.617   2.826   1.032
 1033SOL    HW2 3843   0.529   2.731   1.110
 1034SOL     OW 3844   1.355   2.720   1.027
 1034SOL    HW1 3845   1.271   2.710   0.983
 1034SOL    HW2 3846   1.397   2.635   1.019
 1035SOL     OW 3847   1.202   2.389   0.270
 1035SOL    HW1 3848   1.210   2.310   0.325
 1035SOL    HW2 3849   1.159   2.453   0.327
 1036SOL     OW 3850   0.301   2.065   1.247
 1036SOL    HW1 3851   0.267   2.089   1.333
 1036SOL    HW2 3852   0.290   1.970   1.242
 1037SOL     OW 3853   0.064   3.178   1.279
 1037SOL    HW1 3854   0.091   3.120   1.351
 1037SOL    HW2 3855   5.293   3.230   1.316
 1038SOL     OW 3856   0.722   2.492   1.056
 1038SOL    HW1 3857   0.798   2.478   0.999
 1038SOL    HW2 3858   0.694   2.581   1.036
 1039SOL     OW 3859   1.733   2.823   1.854
 1039SOL    HW1 3860   1.689   2.757   1.800
 1039SOL    HW2 3861   1.675   2.836   1.928
 1040SOL     OW 3862   0.325   1.925   0.635
 1040SOL    HW1 3863   0.309   2.015   0.663
 1040SOL    HW2 3864   0.333   1.875   0.716
 1041SOL     OW 3865   1.622   2.238   0.368
 1041SOL    HW1 3866   1.647   2.173   0.434
 1041SOL    HW2 3867   1.597   2.315   0.418
 1042SOL     OW 3868   1.028   2.620   0.959
 1042SOL    HW1 3869   1.023   2.638   1.053
 1042SOL    HW2 3870   1.002   2.529   0.950
 1043SOL     OW 3871   0.981   3.428   1.719
 1043SOL    HW1 3872   0.966   3.472   1.635
 1043SOL    HW2 3873   1.026   3.346   1.695
 1044SOL     OW 3874   1.853   3.367   1.605
 1044SOL    HW1 3875   1.873   3.393   1.515
 1044SOL    HW2 3876   1.934   3.382   1.653
 1045SOL     OW 3877   0.355   2.780   1.807
 1045SOL    HW1 3878   0.436   2.800   1.854
 1045SOL    HW2 3879   0.380   2.715   1.741
 1046SOL     OW 3880   1.514   2.166   0.127
 1046SOL    HW1 3881   1.466   2.085   0.143
 1046SOL    HW2 3882   1.555   2.187   0.210
 1047SOL     OW 3883   1.296   2.685   0.020
 1047SOL    HW1 3884   1.334   2.598   0.037
 1047SOL    HW2 3885   1.360   2.728   8.044
 1048SOL     OW 3886   1.067   3.198   0.855
 1048SOL    HW1 3887   1.071   3.126   0.792
 1048SOL    HW2 3888   1.127   3.264   0.820
 1049SOL     OW 3889   0.312   2.670   0.950
 1049SOL    HW1 3890   0.406   2.690   0.946
 1049SOL    HW2 3891   0.308   2.580   0.981
 1050SOL     OW 3892   0.334   2.388   1.016
 1050SOL    HW1 3893   0.299   2.300   1.002
 1050SOL    HW2 3894   0.409   2.394   0.957
 1051SOL     OW 3895   1.134   2.236   1.684
 1051SOL    HW1 3896   1.086   2.291   1.746
 1051SOL    HW2 3897   1.221   2.275   1.680
 1052SOL     OW 3898   1.161   2.063   1.471
 1052SOL    HW1 3899   1.150   2.126   1.542
 1052SOL    HW2 3900   1.201   2.114   1.400
 1053SOL     OW 3901   0.012   3.186   0.201
 1053SOL    HW1 3902   5.243   3.166   0.138
 1053SOL    HW2 3903   0.015   3.110   0.259
 1054SOL     OW 3904   0.095   3.644   0.951
 1054SOL    HW1 3905   0.060   3.575   0.895
 1054SOL    HW2 3906   0.183   3.661   0.916
 1055SOL     OW 3907   0.504   3.435   0.908
 1055SOL    HW1 3908   0.571   3.501   0.928
 1055SOL    HW2 3909   0.547   3.375   0.847
 1056SOL     OW 3910   0.980   2.652   1.225
 1056SOL    HW1 3911   1.037   2.631   1.299
 1056SOL    HW2 3912   0.895   2.615   1.250
 1057SOL     OW 3913   0.031   2.423   1.116
 1057SOL    HW1 3914   0.120   2.404   1.084
 1057SOL    HW2 3915   0.036   2.406   1.211
 1058SOL     OW 3916   0.173   2.376   1.712
 1058SOL    HW1 3917   0.236   2.336   1.652
 1058SOL    HW2 3918   0.147   2.457   1.669
 1059SOL     OW 3919   1.378   2.799   1.658
 1059SOL    HW1 3920   1.400   2.892   1.655
 1059SOL    HW2 3921   1.375   2.772   1.566
 1060SOL     OW 3922   0.819   2.431   0.371
 1060SOL    HW1 3923   0.830   2.360   0.308
 1060SOL    HW2 3924   0.743   2.480   0.339
 1061SOL     OW 3925   1.639   2.463   1.184
 1061SOL    HW1 3926   1.629   2.405   1.259
 1061SOL    HW2 3927   1.726   2.443   1.150
 1062SOL     OW 3928   0.256   3.417   1.734
 1062SOL    HW1 3929   0.234   3.481   1.802
 1062SOL    HW2 3930   0.251   3.332   1.777
 1063SOL     OW 3931   0.706   2.310   1.257
 1063SOL    HW1 3932   0.652   2.237   1.229
 1063SOL    HW2 3933   0.700   2.373   1.186
 1064SOL     OW 3934   0.927   3.541   1.469
 1064SOL    HW1 3935   0.901   3.504   1.384
 1064SOL    HW2 3936   0.920   3.636   1.457
 1065SOL     OW 3937   0.467   2.352   0.177
 1065SOL    HW1 3938   0.532   2.418   0.201
 1065SOL    HW2 3939   0.383   2.398   0.180
 1066SOL     OW 3940   0.147   2.999   1.471
 1066SOL    HW1 3941   0.144   2.952   1.554
 1066SOL    HW2 3942   0.158   2.931   1.405
 1067SOL     OW 3943   1.324   2.907   1.222
 1067SOL    HW1 3944   1.347   2.844   1.154
 1067SOL    HW2 3945   1.255   2.961   1.183
 1068SOL     OW 3946   1.306   2.709   0.309
 1068SOL    HW1 3947   1.228   2.679   0.356
 1068SOL    HW2 3948   1.283   2.697   0.216
 1069SOL     OW 3949   1.774   3.604   1.152
 1069SOL    HW1 3950   1.835   3.630   1.082
 1069SOL    HW2 3951   1.749   3.514   1.130
 1070SOL     OW 3952   1.241   3.595   1.110
 1070SOL    HW1 3953   1.323   3.617   1.067
 1070SOL    HW2 3954   1.248   3.501   1.129
 1071SOL     OW 3955   0.082   3.074   1.027
 1071SOL    HW1 3956   0.069   3.102   1.118
 1071SOL    HW2 3957   5.294   3.066   0.992
 1072SOL     OW 3958   0.678   3.530   1.733
 1072SOL    HW1 3959   0.620   3.606   1.725
 1072SOL    HW2 3960   0.743   3.543   1.664
 1073SOL     OW 3961   0.905   1.954   0.131
 1073SOL    HW1 3962   0.920   1.937   0.038
 1073SOL    HW2 3963   0.971   1.901   0.176
 1074SOL     OW 3964   1.722   2.010   0.510
 1074SOL    HW1 3965   1.792   1.993   0.446
 1074SOL    HW2 3966   1.705   1.925   0.551
 1075SOL     OW 3967   1.390   3.430   0.488
 1075SOL    HW1 3968   1.453   3.464   0.424
 1075SOL    HW2 3969   1.342   3.508   0.517
 1076SOL     OW 3970   0.147   3.660   1.842
 1076SOL    HW1 3971   0.092   3.597   1.890
 1076SOL    HW2 3972   0.195   3.706   1.911
 1077SOL     OW 3973   1.277   2.788   0.671
 1077SOL    HW1 3974   1.351   2.728   0.679
 1077SOL    HW2 3975   1.311   2.860   0.618
 1078SOL     OW 3976   0.811   3.136   1.428
 1078SOL    HW1 3977   0.782   3.176   1.510
 1078SOL    HW2 3978   0.741   3.156   1.366
 1079SOL     OW 3979   0.678   3.484   0.156
 1079SOL    HW1 3980   0.683   3.492   0.060
 1079SOL    HW2 3981   0.616   3.412   0.170
 1080SOL     OW 3982   1.623   3.589   1.391
 1080SOL    HW1 3983   1.674   3.595   1.310
 1080SOL    HW2 3984   1.609   3.680   1.418
 1081SOL     OW 3985   1.837   2.031   0.966
 1081SOL    HW1 3986   1.865   1.944   0.939
 1081SOL    HW2 3987   1.751   2.042   0.926
 1082SOL     OW 3988   0.270   2.178   0.716
 1082SOL    HW1 3989   0.187   2.222   0.698
 1082SOL    HW2 3990   0.273   2.168   0.811
 1083SOL     OW 3991   1.159   3.442   0.051
 1083SOL    HW1 3992   1.171   3.349   0.073
 1083SOL    HW2 3993   1.171   3.446   8.036
 1084SOL     OW 3994   0.824   2.868   1.373
 1084SOL    HW1 3995   0.867   2.863   1.288
 1084SOL    HW2 3996   0.822   2.961   1.394
 1085SOL     OW 3997   0.919   2.775   0.298
 1085SOL    HW1 3998   0.972   2.799   0.222
 1085SOL    HW2 3999   0.968   2.704   0.340
 1086SOL     OW 4000   1.509   3.485   0.062
 1086SOL    HW1 4001   1.414   3.485   0.049
 1086SOL    HW2 4002   1.545   3.488   8.053
 1087SOL     OW 4003   0.367   3.166   1.493
 1087SOL    HW1 4004   0.359   3.240   1.433
 1087SOL    HW2 4005   0.291   3.111   1.474
 1088SOL     OW 4006   1.609   3.145   1.280
 1088SOL    HW1 4007   1.670   3.133   1.353
 1088SOL    HW2 4008   1.549   3.213   1.310
 1089SOL     OW 4009   1.055   2.970   0.708
 1089SOL    HW1 4010   0.984   2.919   0.746
 1089SOL    HW2 4011   1.118   2.905   0.678
 1090SOL     OW 4012   1.023   2.103   0.966
 1090SOL    HW1 4013   1.018   2.055   0.883
 1090SOL    HW2 4014   1.017   2.034   1.033
 1091SOL     OW 4015   0.603   3.348   0.478
 1091SOL    HW1 4016   0.647   3.299   0.408
 1091SOL    HW2 4017   0.534   3.396   0.433
 1092SOL     OW 4018   1.719   2.252   1.379
 1092SOL    HW1 4019   1.789   2.317   1.380
 1092SOL    HW2 4020   1.751   2.182   1.323
 1093SOL     OW 4021   0.271   3.186   0.301
 1093SOL    HW1 4022   0.186   3.195   0.258
 1093SOL    HW2 4023   0.261   3.234   0.383
 1094SOL     OW 4024   0.117   2.878   1.717
 1094SOL    HW1 4025   0.047   2.843   1.772
 1094SOL    HW2 4026   0.198   2.848   1.759
 1095SOL     OW 4027   0.675   2.058   1.500
 1095SOL    HW1 4028   0.759   2.037   1.459
 1095SOL    HW2 4029   0.698   2.090   1.587
 1096SOL     OW 4030   0.043   2.250   0.027
 1096SOL    HW1 4031   0.019   2.167   0.068
 1096SOL    HW2 4032   0.126   2.231   8.062
 1097SOL     OW 4033   1.428   2.720   1.399
 1097SOL    HW1 4034   1.380   2.781   1.344
 1097SOL    HW2 4035   1.518   2.723   1.365
 1098SOL     OW 4036   0.054   1.998   0.211
 1098SOL    HW1 4037   0.056   2.082   0.256
 1098SOL    HW2 4038   0.146   1.973   0.202
 1099SOL     OW 4039   1.183   3.177   0.121
 1099SOL    HW1 4040   1.088   3.169   0.120
 1099SOL    HW2 4041   1.206   3.179   0.215
 1100SOL     OW 4042   0.620   2.693   1.436
 1100SOL    HW1 4043   0.677   2.768   1.420
 1100SOL    HW2 4044   0.680   2.619   1.444
 1101SOL     OW 4045   1.483   3.641   0.980
 1101SOL    HW1 4046   1.506   3.702   0.911
 1101SOL    HW2 4047   1.567   3.619   1.022
 1102SOL     OW 4048   0.717   2.425   1.703
 1102SOL    HW1 4049   0.760   2.486   1.763
 1102SOL    HW2 4050   0.742   2.338   1.736
 1103SOL     OW 4051   1.473   3.060   1.631
 1103SOL    HW1 4052   1.461   3.074   1.725
 1103SOL    HW2 4053   1.566   3.077   1.616
 1104SOL     OW 4054   0.375   3.606   1.565
 1104SOL    HW1 4055   0.293   3.651   1.548
 1104SOL    HW2 4056   0.349   3.525   1.610
 1105SOL     OW 4057   1.669   2.743   1.255
 1105SOL    HW1 4058   1.661   2.658   1.211
 1105SOL    HW2 4059   1.657   2.807   1.184
 1106SOL     OW 4060   1.217   2.179   0.460
 1106SOL    HW1 4061   1.281   2.109   0.454
 1106SOL    HW2 4062   1.244   2.231   0.536
 1107SOL     OW 4063   0.587   2.597   0.670
 1107SOL    HW1 4064   0.627   2.683   0.657
 1107SOL    HW2 4065   0.518   2.593   0.604
 1108SOL     OW 4066   1.762   2.223   1.648
 1108SOL    HW1 4067   1.741   2.240   1.556
 1108SOL    HW2 4068   1.690   2.167   1.679
 1109SOL     OW 4069   1.745   2.796   1.512
 1109SOL    HW1 4070   1.740   2.891   1.526
 1109SOL    HW2 4071   1.729   2.785   1.418
 1110SOL     OW 4072   0.898   3.232   0.041
 1110SOL    HW1 4073   0.836   3.222   0.113
 1110SOL    HW2 4074   0.877   3.318   0.004
 1111SOL     OW 4075   0.664   3.654   0.941
 1111SOL    HW1 4076   0.644   3.745   0.919
 1111SOL    HW2 4077   0.760   3.648   0.935
 1112SOL     OW 4078   0.868   2.829   0.854
 1112SOL    HW1 4079   0.919   2.758   0.893
 1112SOL    HW2 4080   0.833   2.877   0.929
 1113SOL     OW 4081   1.076   2.835   0.085
 1113SOL    HW1 4082   1.068   2.903   0.017
 1113SOL    HW2 4083   1.154   2.785   0.059
 1114SOL     OW 4084   1.852   3.415   0.843
 1114SOL    HW1 4085   1.773   3.404   0.791
 1114SOL    HW2 4086   1.845   3.350   0.912
 1115SOL     OW 4087   0.227   3.166   1.861
 1115SOL    HW1 4088   0.159   3.103   1.835
 1115SOL    HW2 4089   0.215   3.176   1.955
 1116SOL     OW 4090   0.098   3.097   0.663
 1116SOL    HW1 4091   0.102   3.050   0.746
 1116SOL    HW2 4092   0.171   3.061   0.612
 1117SOL     OW 4093   0.682   3.266   1.630
 1117SOL    HW1 4094   0.602   3.224   1.660
 1117SOL    HW2 4095   0.678   3.354   1.666
 1118SOL     OW 4096   1.814   2.046   1.237
 1118SOL    HW1 4097   1.821   1.951   1.251
 1118SOL    HW2 4098   1.821   2.056   1.142
 1119SOL     OW 4099   0.432   2.302   0.523
 1119SOL    HW1 4100   0.463   2.229   0.469
 1119SOL    HW2 4101   0.387   2.259   0.596
 1120SOL     OW 4102   1.699   3.350   1.094
 1120SOL    HW1 4103   1.619   3.328   1.047
 1120SOL    HW2 4104   1.709   3.281   1.159
 1121SOL     OW 4105   0.339   2.423   1.292
 1121SOL    HW1 4106   0.391   2.364   1.346
 1121SOL    HW2 4107   0.352   2.393   1.202
 1122SOL     OW 4108   0.830   3.439   0.677
 1122SOL    HW1 4109   0.814   3.498   0.603
 1122SOL    HW2 4110   0.754   3.381   0.678
 1123SOL     OW 4111   1.432   2.088   1.118
 1123SOL    HW1 4112   1.453   2.007   1.163
 1123SOL    HW2 4113   1.380   2.138   1.181
 1124SOL     OW 4114   1.009   1.880   1.140
 1124SOL    HW1 4115   0.954   1.813   1.099
 1124SOL    HW2 4116   1.097   1.841   1.142
 1125SOL     OW 4117   0.773   3.188   0.308
 1125SOL    HW1 4118   0.742   3.099   0.325
 1125SOL    HW2 4119   0.853   3.197   0.360
 1126SOL     OW 4120   0.623   3.417   1.288
 1126SOL    HW1 4121   0.624   3.499   1.337
 1126SOL    HW2 4122   0.710   3.412   1.249
 1127SOL     OW 4123   1.356   1.916   0.186
 1127SOL    HW1 4124   1.376   1.870   0.104
 1127SOL    HW2 4125   1.270   1.884   0.212
 1128SOL     OW 4126   1.296   2.324   0.680
 1128SOL    HW1 4127   1.244   2.404   0.686
 1128SOL    HW2 4128   1.291   2.286   0.768
 1129SOL     OW 4129   1.584   2.062   0.879
 1129SOL    HW1 4130   1.526   2.084   0.951
 1129SOL    HW2 4131   1.583   2.140   0.823
 1130SOL     OW 4132   0.048   2.937   0.327
 1130SOL    HW1 4133   0.136   2.915   0.295
 1130SOL    HW2 4134   5.298   2.856   0.317
 1131SOL     OW 4135   0.885   3.517   0.346
 1131SOL    HW1 4136   0.815   3.502   0.282
 1131SOL    HW2 4137   0.854   3.593   0.397
 1132SOL     OW 4138   0.233   2.492   1.979
 1132SOL    HW1 4139   0.162   2.454   2.032
 1132SOL    HW2 4140   0.216   2.461   1.890
 1133SOL     OW 4141   0.244   2.137   2.851
 1133SOL    HW1 4142   0.257   2.102   2.939
 1133SOL    HW2 4143   0.159   2.103   2.823
 1134SOL     OW 4144   5.298   2.262   2.515
 1134SOL    HW1 4145   5.205   2.284   2.520
 1134SOL    HW2 4146   5.299   2.172   2.482
 1135SOL     OW 4147   0.576   3.150   3.048
 1135SOL    HW1 4148   0.494   3.157   3.000
 1135SOL    HW2 4149   0.592   3.238   3.082
 1136SOL     OW 4150   1.564   3.375   2.570
 1136SOL    HW1 4151   1.522   3.353   2.653
 1136SOL    HW2 4152   1.493   3.378   2.506
 1137SOL     OW 4153   1.131   2.560   2.561
 1137SOL    HW1 4154   1.180   2.641   2.547
 1137SOL    HW2 4155   1.084   2.574   2.643
 1138SOL     OW 4156   1.765   2.466   2.088
 1138SOL    HW1 4157   1.745   2.458   1.995
 1138SOL    HW2 4158   1.730   2.386   2.127
 1139SOL     OW 4159   0.753   3.001   2.904
 1139SOL    HW1 4160   0.687   3.037   2.964
 1139SOL    HW2 4161   0.789   3.078   2.860
 1140SOL     OW 4162   0.870   2.632   3.685
 1140SOL    HW1 4163   0.859   2.704   3.748
 1140SOL    HW2 4164   0.893   2.676   3.603
 1141SOL     OW 4165   0.685   2.862   2.508
 1141SOL    HW1 4166   0.752   2.852   2.576
 1141SOL    HW2 4167   0.618   2.917   2.549
 1142SOL     OW 4168   0.711   3.012   3.677
 1142SOL    HW1 4169   0.759   3.090   3.705
 1142SOL    HW2 4170   0.630   3.046   3.639
 1143SOL     OW 4171   0.359   3.265   2.922
 1143SOL    HW1 4172   0.269   3.267   2.888
 1143SOL    HW2 4173   0.407   3.327   2.867
 1144SOL     OW 4174   1.461   3.364   3.220
 1144SOL    HW1 4175   1.514   3.443   3.229
 1144SOL    HW2 4176   1.394   3.372   3.288
 1145SOL     OW 4177   0.452   2.261   3.352
 1145SOL    HW1 4178   0.526   2.201   3.354
 1145SOL    HW2 4179   0.375   2.206   3.363
 1146SOL     OW 4180   1.609   2.309   2.602
 1146SOL    HW1 4181   1.535   2.327   2.544
 1146SOL    HW2 4182   1.628   2.394   2.643
 1147SOL     OW 4183   0.234   3.576   2.339
 1147SOL    HW1 4184   0.264   3.646   2.397
 1147SOL    HW2 4185   0.297   3.574   2.267
 1148SOL     OW 4186   1.137   3.204   3.556
 1148SOL    HW1 4187   1.177   3.198   3.642
 1148SOL    HW2 4188   1.085   3.124   3.548
 1149SOL     OW 4189   0.221   3.308   2.403
 1149SOL    HW1 4190   0.218   3.403   2.395
 1149SOL    HW2 4191   0.151   3.287   2.463
 1150SOL     OW 4192   0.252   2.938   2.736
 1150SOL    HW1 4193   0.263   2.852   2.776
 1150SOL    HW2 4194   0.199   2.988   2.799
 1151SOL     OW 4195   0.611   3.652   3.295
 1151SOL    HW1 4196   0.527   3.635   3.337
 1151SOL    HW2 4197   0.632   3.742   3.317
 1152SOL     OW 4198   0.581   2.846   1.999
 1152SOL    HW1 4199   0.628   2.892   1.930
 1152SOL    HW2 4200   0.621   2.876   2.080
 1153SOL     OW 4201   1.604   1.978   3.337
 1153SOL    HW1 4202   1.600   2.050   3.274
 1153SOL    HW2 4203   1.569   2.016   3.418
 1154SOL     OW 4204   0.127   2.495   2.443
 1154SOL    HW1 4205   0.089   2.412   2.472
 1154SOL    HW2 4206   0.099   2.558   2.509
 1155SOL     OW 4207   1.843   3.619   2.196
 1155SOL    HW1 4208   1.909   3.592   2.259
 1155SOL    HW2 4209   1.864   3.710   2.176
 1156SOL     OW 4210   0.038   3.461   1.995
 1156SOL    HW1 4211   0.025   3.370   2.021
 1156SOL    HW2 4212   5.281   3.511   2.053
 1157SOL     OW 4213   1.689   2.779   2.506
 1157SOL    HW1 4214   1.770   2.733   2.486
 1157SOL    HW2 4215   1.669   2.828   2.426
 1158SOL     OW 4216   1.647   2.967   2.291
 1158SOL    HW1 4217   1.734   2.970   2.250
 1158SOL    HW2 4218   1.653   3.029   2.364
 1159SOL     OW 4219   0.133   2.611   3.445
 1159SOL    HW1 4220   0.228   2.625   3.445
 1159SOL    HW2 4221   0.096   2.697   3.464
 1160SOL     OW 4222   0.617   3.249   2.596
 1160SOL    HW1 4223   0.569   3.167   2.607
 1160SOL    HW2 4224   0.599   3.276   2.506
 1161SOL     OW 4225   1.285   3.099   3.284
 1161SOL    HW1 4226   1.319   3.033   3.224
 1161SOL    HW2 4227   1.343   3.093   3.361
 1162SOL     OW 4228   0.825   1.863   2.374
 1162SOL    HW1 4229   0.865   1.947   2.352
 1162SOL    HW2 4230   0.731   1.881   2.378
 1163SOL     OW 4231   0.174   2.804   3.142
 1163SOL    HW1 4232   0.264   2.775   3.134
 1163SOL    HW2 4233   0.135   2.786   3.056
 1164SOL     OW 4234   1.531   2.858   2.062
 1164SOL    HW1 4235   1.462   2.800   2.095
 1164SOL    HW2 4236   1.574   2.891   2.140
 1165SOL     OW 4237   1.185   3.671   3.486
 1165SOL    HW1 4238   1.193   3.730   3.411
 1165SOL    HW2 4239   1.202   3.584   3.449
 1166SOL     OW 4240   0.341   2.116   3.684
 1166SOL    HW1 4241   0.386   2.199   3.698
 1166SOL    HW2 4242   0.252   2.131   3.716
 1167SOL     OW 4243   1.467   3.281   2.812
 1167SOL    HW1 4244   1.399   3.296   2.878
 1167SOL    HW2 4245   1.454   3.190   2.786
 1168SOL     OW 4246   1.656   3.606   2.440
 1168SOL    HW1 4247   1.639   3.576   2.351
 1168SOL    HW2 4248   1.633   3.532   2.496
 1169SOL     OW 4249   0.595   2.582   2.130
 1169SOL    HW1 4250   0.602   2.663   2.080
 1169SOL    HW2 4251   0.530   2.600   2.198
 1170SOL     OW 4252   1.279   2.220   2.795
 1170SOL    HW1 4253   1.190   2.186   2.803
 1170SOL    HW2 4254   1.331   2.166   2.855
 1171SOL     OW 4255   1.580   3.533   2.172
 1171SOL    HW1 4256   1.671   3.562   2.164
 1171SOL    HW2 4257   1.552   3.516   2.081
 1172SOL     OW 4258   0.794   2.479   3.312
 1172SOL    HW1 4259   0.766   2.455   3.401
 1172SOL    HW2 4260   0.755   2.412   3.256
 1173SOL     OW 4261   1.394   2.338   3.539
 1173SOL    HW1 4262   1.395   2.382   3.624
 1173SOL    HW2 4263   1.448   2.260   3.552
 1174SOL     OW 4264   0.953   2.748   3.446
 1174SOL    HW1 4265   1.008   2.679   3.409
 1174SOL    HW2 4266   0.906   2.784   3.370
 1175SOL     OW 4267   0.993   2.273   3.100
 1175SOL    HW1 4268   0.906   2.293   3.134
 1175SOL    HW2 4269   0.977   2.229   3.016
 1176SOL     OW 4270   1.052   2.560   2.287
 1176SOL    HW1 4271   1.069   2.554   2.381
 1176SOL    HW2 4272   0.969   2.514   2.275
 1177SOL     OW 4273   0.070   2.650   2.672
 1177SOL    HW1 4274   0.150   2.655   2.724
 1177SOL    HW2 4275   0.067   2.733   2.623
 1178SOL     OW 4276   0.128   3.748   3.447
 1178SOL    HW1 4277   0.133   3.722   3.539
 1178SOL    HW2 4278   0.060   3.692   3.410
 1179SOL     OW 4279   0.896   2.212   2.056
 1179SOL    HW1 4280   0.935   2.275   1.996
 1179SOL    HW2 4281   0.910   2.127   2.015
 1180SOL     OW 4282   1.678   2.431   3.692
 1180SOL    HW1 4283   1.652   2.507   3.639
 1180SOL    HW2 4284   1.709   2.367   3.629
 1181SOL     OW 4285   1.378   3.004   2.402
 1181SOL    HW1 4286   1.457   2.991   2.350
 1181SOL    HW2 4287   1.326   3.066   2.352
 1182SOL     OW 4288   0.558   2.044   2.757
 1182SOL    HW1 4289   0.554   2.074   2.848
 1182SOL    HW2 4290   0.552   2.125   2.705
 1183SOL     OW 4291   1.003   3.305   2.333
 1183SOL    HW1 4292   0.969   3.379   2.283
 1183SOL    HW2 4293   0.983   3.326   2.424
 1184SOL     OW 4294   0.358   3.666   2.733
 1184SOL    HW1 4295   0.398   3.580   2.746
 1184SOL    HW2 4296   0.423   3.728   2.764
 1185SOL     OW 4297   1.798   2.922   2.731
 1185SOL    HW1 4298   1.745   2.900   2.654
 1185SOL    HW2 4299   1.735   2.924   2.804
 1186SOL     OW 4300   1.228   3.401   3.375
 1186SOL    HW1 4301   1.215   3.328   3.435
 1186SOL    HW2 4302   1.162   3.388   3.306
 1187SOL     OW 4303   0.314   2.814   2.111
 1187SOL    HW1 4304   0.396   2.838   2.066
 1187SOL    HW2 4305   0.292   2.728   2.076
 1188SOL     OW 4306   1.480   2.607   2.588
 1188SOL    HW1 4307   1.475   2.568   2.675
 1188SOL    HW2 4308   1.558   2.663   2.592
 1189SOL     OW 4309   0.466   3.127   3.600
 1189SOL    HW1 4310   0.440   3.133   3.508
 1189SOL    HW2 4311   0.384   3.127   3.649
 1190SOL     OW 4312   1.123   3.640   2.092
 1190SOL    HW1 4313   1.049   3.598   2.137
 1190SOL    HW2 4314   1.147   3.578   2.023
 1191SOL     OW 4315   0.206   2.140   3.360
 1191SOL    HW1 4316   0.127   2.192   3.342
 1191SOL    HW2 4317   0.172   2.059   3.399
 1192SOL     OW 4318   1.628   3.243   1.951
 1192SOL    HW1 4319   1.587   3.328   1.935
 1192SOL    HW2 4320   1.560   3.179   1.931
 1193SOL     OW 4321   0.471   3.597   2.181
 1193SOL    HW1 4322   0.515   3.654   2.243
 1193SOL    HW2 4323   0.541   3.564   2.124
 1194SOL     OW 4324   1.401   1.969   2.297
 1194SOL    HW1 4325   1.391   1.944   2.205
 1194SOL    HW2 4326   1.495   1.976   2.310
 1195SOL     OW 4327   0.277   3.663   3.071
 1195SOL    HW1 4328   0.306   3.583   3.116
 1195SOL    HW2 4329   0.224   3.631   2.999
 1196SOL     OW 4330   0.939   3.561   2.760
 1196SOL    HW1 4331   1.018   3.510   2.781
 1196SOL    HW2 4332   0.896   3.511   2.691
 1197SOL     OW 4333   0.386   2.557   2.340
 1197SOL    HW1 4334   0.415   2.467   2.350
 1197SOL    HW2 4335   0.293   2.555   2.361
 1198SOL     OW 4336   1.517   2.080   3.587
 1198SOL    HW1 4337   1.531   2.102   3.679
 1198SOL    HW2 4338   1.453   2.009   3.588
 1199SOL     OW 4339   0.637   1.983   1.966
 1199SOL    HW1 4340   0.704   1.915   1.979
 1199SOL    HW2 4341   0.587   1.952   1.890
 1200SOL     OW 4342   0.766   2.141   3.618
 1200SOL    HW1 4343   0.843   2.084   3.616
 1200SOL    HW2 4344   0.717   2.114   3.695
 1201SOL     OW 4345   0.877   3.384   3.055
 1201SOL    HW1 4346   0.860   3.348   2.969
 1201SOL    HW2 4347   0.947   3.330   3.091
 1202SOL     OW 4348   1.347   2.450   3.291
 1202SOL    HW1 4349   1.372   2.422   3.380
 1202SOL    HW2 4350   1.375   2.541   3.286
 1203SOL     OW 4351   0.817   3.254   2.804
 1203SOL    HW1 4352   0.902   3.243   2.760
 1203SOL    HW2 4353   0.754   3.258   2.733
 1204SOL     OW 4354   0.929   2.371   2.764
 1204SOL    HW1 4355   0.904   2.363   2.672
 1204SOL    HW2 4356   0.959   2.284   2.789
 1205SOL     OW 4357   0.562   1.923   2.356
 1205SOL    HW1 4358   0.487   1.923   2.416
 1205SOL    HW2 4359   0.551   2.002   2.303
 1206SOL     OW 4360   1.428   3.061   1.902
 1206SOL    HW1 4361   1.458   2.986   1.953
 1206SOL    HW2 4362   1.343   3.083   1.940
 1207SOL     OW 4363   0.306   1.909   2.040
 1207SOL    HW1 4364   0.368   1.973   2.005
 1207SOL    HW2 4365   0.361   1.845   2.086
 1208SOL     OW 4366   0.941   2.110   2.320
 1208SOL    HW1 4367   0.915   2.151   2.237
 1208SOL    HW2 4368   1.036   2.126   2.325
 1209SOL     OW 4369   1.080   2.542   3.321
 1209SOL    HW1 4370   1.008   2.479   3.325
 1209SOL    HW2 4371   1.159   2.488   3.313
 1210SOL     OW 4372   1.222   3.433   2.656
 1210SOL    HW1 4373   1.237   3.499   2.589
 1210SOL    HW2 4374   1.291   3.448   2.721
 1211SOL     OW 4375   0.469   3.013   2.591
 1211SOL    HW1 4376   0.400   2.992   2.654
 1211SOL    HW2 4377   0.428   2.996   2.506
 1212SOL     OW 4378   1.267   3.655   2.472
 1212SOL    HW1 4379   1.314   3.717   2.415
 1212SOL    HW2 4380   1.199   3.708   2.514
 1213SOL     OW 4381   1.022   2.401   1.887
 1213SOL    HW1 4382   0.980   2.485   1.867
 1213SOL    HW2 4383   1.089   2.423   1.952
 1214SOL     OW 4384   0.090   2.404   3.262
 1214SOL    HW1 4385   0.178   2.413   3.224
 1214SOL    HW2 4386   0.080   2.481   3.317
 1215SOL     OW 4387   0.560   2.090   3.030
 1215SOL    HW1 4388   0.597   2.011   3.068
 1215SOL    HW2 4389   0.468   2.089   3.057
 1216SOL     OW 4390   0.867   2.321   2.501
 1216SOL    HW1 4391   0.822   2.375   2.437
 1216SOL    HW2 4392   0.889   2.241   2.453
 1217SOL     OW 4393   1.016   1.916   2.612
 1217SOL    HW1 4394   0.958   1.909   2.536
 1217SOL    HW2 4395   0.994   1.840   2.667
 1218SOL     OW 4396   1.438   3.024   2.718
 1218SOL    HW1 4397   1.368   2.959   2.717
 1218SOL    HW2 4398   1.463   3.034   2.627
 1219SOL     OW 4399   1.467   2.472   2.839
 1219SOL    HW1 4400   1.416   2.391   2.839
 1219SOL    HW2 4401   1.532   2.460   2.909
 1220SOL     OW 4402   1.838   2.680   2.240
 1220SOL    HW1 4403   1.890   2.629   2.303
 1220SOL    HW2 4404   1.814   2.618   2.172
 1221SOL     OW 4405   0.491   3.282   2.018
 1221SOL    HW1 4406   0.416   3.254   2.070
 1221SOL    HW2 4407   0.478   3.240   1.933
 1222SOL     OW 4408   1.672   3.126   2.506
 1222SOL    HW1 4409   1.766   3.127   2.521
 1222SOL    HW2 4410   1.643   3.215   2.527
 1223SOL     OW 4411   1.394   2.434   1.933
 1223SOL    HW1 4412   1.333   2.414   2.004
 1223SOL    HW2 4413   1.479   2.406   1.966
 1224SOL     OW 4414   0.524   2.125   2.177
 1224SOL    HW1 4415   0.572   2.079   2.107
 1224SOL    HW2 4416   0.500   2.209   2.138
 1225SOL     OW 4417   1.056   3.215   3.194
 1225SOL    HW1 4418   0.981   3.184   3.245
 1225SOL    HW2 4419   1.132   3.174   3.235
 1226SOL     OW 4420   1.603   3.487   3.516
 1226SOL    HW1 4421   1.596   3.523   3.428
 1226SOL    HW2 4422   1.686   3.439   3.516
 1227SOL     OW 4423   1.130   3.067   2.966
 1227SOL    HW1 4424   1.071   3.106   3.030
 1227SOL    HW2 4425   1.100   3.101   2.882
 1228SOL     OW 4426   1.626   2.958   2.939
 1228SOL    HW1 4427   1.615   3.016   3.015
 1228SOL    HW2 4428   1.548   2.973   2.886
 1229SOL     OW 4429   0.919   1.957   3.258
 1229SOL    HW1 4430   0.941   1.939   3.166
 1229SOL    HW2 4431   0.998   1.997   3.294
 1230SOL     OW 4432   0.984   2.977   3.585
 1230SOL    HW1 4433   0.893   2.994   3.607
 1230SOL    HW2 4434   0.982   2.899   3.530
 1231SOL     OW 4435   0.708   2.923   2.234
 1231SOL    HW1 4436   0.696   2.905   2.327
 1231SOL    HW2 4437   0.784   2.870   2.209
 1232SOL     OW 4438   0.421   2.683   3.115
 1232SOL    HW1 4439   0.490   2.690   3.181
 1232SOL    HW2 4440   0.387   2.594   3.125
 1233SOL     OW 4441   1.265   2.237   3.140
 1233SOL    HW1 4442   1.297   2.316   3.184
 1233SOL    HW2 4443   1.174   2.258   3.116
 1234SOL     OW 4444   0.103   3.485   3.228
 1234SOL    HW1 4445   0.081   3.492   3.135
 1234SOL    HW2 4446   0.189   3.444   3.230
 1235SOL     OW 4447   0.341   2.971   2.348
 1235SOL    HW1 4448   0.348   3.050   2.294
 1235SOL    HW2 4449   0.347   2.899   2.285
 1236SOL     OW 4450   0.553   2.396   2.721
 1236SOL    HW1 4451   0.567   2.455   2.647
 1236SOL    HW2 4452   0.618   2.423   2.785
 1237SOL     OW 4453   1.248   3.211   2.251
 1237SOL    HW1 4454   1.304   3.282   2.282
 1237SOL    HW2 4455   1.161   3.232   2.285
 1238SOL     OW 4456   1.284   3.321   3.010
 1238SOL    HW1 4457   1.340   3.324   3.087
 1238SOL    HW2 4458   1.229   3.244   3.023
 1239SOL     OW 4459   1.579   2.481   2.342
 1239SOL    HW1 4460   1.532   2.536   2.405
 1239SOL    HW2 4461   1.632   2.543   2.291
 1240SOL     OW 4462   0.352   3.382   3.171
 1240SOL    HW1 4463   0.341   3.338   3.087
 1240SOL    HW2 4464   0.446   3.399   3.177
 1241SOL     OW 4465   0.415   2.604   3.464
 1241SOL    HW1 4466   0.477   2.650   3.407
 1241SOL    HW2 4467   0.453   2.517   3.477
 1242SOL     OW 4468   1.606   2.645   3.526
 1242SOL    HW1 4469   1.520   2.686   3.537
 1242SOL    HW2 4470   1.632   2.669   3.437
 1243SOL     OW 4471   0.996   1.989   3.617
 1243SOL    HW1 4472   1.054   2.060   3.591
 1243SOL    HW2 4473   1.044   1.909   3.592
 1244SOL     OW 4474   0.497   1.902   3.611
 1244SOL    HW1 4475   0.453   1.849   3.545
 1244SOL    HW2 4476   0.439   1.977   3.624
 1245SOL     OW 4477   0.586   2.736   2.895
 1245SOL    HW1 4478   0.618   2.826   2.895
 1245SOL    HW2 4479   0.529   2.731   2.972
 1246SOL     OW 4480   1.353   2.721   2.889
 1246SOL    HW1 4481   1.269   2.709   2.844
 1246SOL    HW2 4482   1.397   2.637   2.881
 1247SOL     OW 4483   1.202   2.390   2.127
 1247SOL    HW1 4484   1.211   2.312   2.182
 1247SOL    HW2 4485   1.160   2.455   2.183
 1248SOL     OW 4486   0.301   2.065   3.110
 1248SOL    HW1 4487   0.267   2.088   3.196
 1248SOL    HW2 4488   0.290   1.970   3.104
 1249SOL     OW 4489   0.064   3.178   3.141
 1249SOL    HW1 4490   0.091   3.120   3.213
 1249SOL    HW2 4491   5.293   3.230   3.178
 1250SOL     OW 4492   0.723   2.493   2.918
 1250SOL    HW1 4493   0.799   2.478   2.861
 1250SOL    HW2 4494   0.695   2.582   2.898
 1251SOL     OW 4495   1.722   2.808   3.724
 1251SOL    HW1 4496   1.676   2.751   3.663
 1251SOL    HW2 4497   1.658   2.826   3.793
 1252SOL     OW 4498   0.328   1.924   2.495
 1252SOL    HW1 4499   0.307   2.014   2.522
 1252SOL    HW2 4500   0.333   1.875   2.578
 1253SOL     OW 4501   1.617   2.237   2.226
 1253SOL    HW1 4502   1.645   2.173   2.293
 1253SOL    HW2 4503   1.595   2.315   2.276
 1254SOL     OW 4504   1.028   2.621   2.821
 1254SOL    HW1 4505   1.023   2.638   2.915
 1254SOL    HW2 4506   1.002   2.529   2.812
 1255SOL     OW 4507   0.981   3.428   3.580
 1255SOL    HW1 4508   0.966   3.472   3.497
 1255SOL    HW2 4509   1.026   3.346   3.557
 1256SOL     OW 4510   1.848   3.382   3.458
 1256SOL    HW1 4511   1.876   3.401   3.369
 1256SOL    HW2 4512   1.926   3.394   3.511
 1257SOL     OW 4513   0.355   2.780   3.669
 1257SOL    HW1 4514   0.436   2.800   3.716
 1257SOL    HW2 4515   0.380   2.715   3.603
 1258SOL     OW 4516   1.529   2.133   1.989
 1258SOL    HW1 4517   1.463   2.069   2.016
 1258SOL    HW2 4518   1.562   2.170   2.071
 1259SOL     OW 4519   1.289   2.687   1.892
 1259SOL    HW1 4520   1.333   2.602   1.896
 1259SOL    HW2 4521   1.321   2.727   1.811
 1260SOL     OW 4522   1.067   3.198   2.717
 1260SOL    HW1 4523   1.071   3.126   2.654
 1260SOL    HW2 4524   1.127   3.264   2.682
 1261SOL     OW 4525   0.313   2.671   2.812
 1261SOL    HW1 4526   0.407   2.689   2.808
 1261SOL    HW2 4527   0.307   2.581   2.843
 1262SOL     OW 4528   0.334   2.389   2.878
 1262SOL    HW1 4529   0.299   2.301   2.864
 1262SOL    HW2 4530   0.409   2.394   2.819
 1263SOL     OW 4531   1.134   2.237   3.545
 1263SOL    HW1 4532   1.085   2.291   3.607
 1263SOL    HW2 4533   1.221   2.277   3.542
 1264SOL     OW 4534   1.162   2.063   3.333
 1264SOL    HW1 4535   1.150   2.125   3.405
 1264SOL    HW2 4536   1.200   2.114   3.262
 1265SOL     OW 4537   0.003   3.190   2.072
 1265SOL    HW1 4538   5.232   3.177   2.010
 1265SOL    HW2 4539   0.013   3.105   2.115
 1266SOL     OW 4540   0.096   3.643   2.815
 1266SOL    HW1 4541   0.061   3.576   2.757
 1266SOL    HW2 4542   0.182   3.663   2.780
 1267SOL     OW 4543   0.505   3.436   2.770
 1267SOL    HW1 4544   0.571   3.501   2.790
 1267SOL    HW2 4545   0.548   3.375   2.709
 1268SOL     OW 4546   0.980   2.651   3.087
 1268SOL    HW1 4547   1.037   2.630   3.161
 1268SOL    HW2 4548   0.895   2.614   3.111
 1269SOL     OW 4549   0.032   2.429   2.980
 1269SOL    HW1 4550   0.117   2.403   2.945
 1269SOL    HW2 4551   0.036   2.406   3.073
 1270SOL     OW 4552   0.173   2.376   3.574
 1270SOL    HW1 4553   0.235   2.336   3.514
 1270SOL    HW2 4554   0.147   2.458   3.531
 1271SOL     OW 4555   1.379   2.798   3.523
 1271SOL    HW1 4556   1.397   2.892   3.521
 1271SOL    HW2 4557   1.373   2.773   3.431
 1272SOL     OW 4558   0.816   2.431   2.225
 1272SOL    HW1 4559   0.822   2.357   2.164
 1272SOL    HW2 4560   0.743   2.483   2.193
 1273SOL     OW 4561   1.659   2.449   3.041
 1273SOL    HW1 4562   1.623   2.411   3.121
 1273SOL    HW2 4563   1.744   2.408   3.030
 1274SOL     OW 4564   0.256   3.417   3.596
 1274SOL    HW1 4565   0.234   3.481   3.664
 1274SOL    HW2 4566   0.251   3.332   3.640
 1275SOL     OW 4567   0.707   2.311   3.120
 1275SOL    HW1 4568   0.652   2.237   3.092
 1275SOL    HW2 4569   0.700   2.374   3.048
 1276SOL     OW 4570   0.927   3.541   3.331
 1276SOL    HW1 4571   0.901   3.504   3.246
 1276SOL    HW2 4572   0.920   3.635   3.319
 1277SOL     OW 4573   0.464   2.355   2.045
 1277SOL    HW1 4574   0.524   2.425   2.069
 1277SOL    HW2 4575   0.380   2.399   2.032
 1278SOL     OW 4576   0.147   2.999   3.333
 1278SOL    HW1 4577   0.144   2.952   3.416
 1278SOL    HW2 4578   0.158   2.931   3.267
 1279SOL     OW 4579   1.319   2.905   3.086
 1279SOL    HW1 4580   1.345   2.843   3.018
 1279SOL    HW2 4581   1.252   2.960   3.045
 1280SOL     OW 4582   1.312   2.719   2.167
 1280SOL    HW1 4583   1.237   2.688   2.218
 1280SOL    HW2 4584   1.287   2.705   2.076
 1281SOL     OW 4585   1.777   3.604   3.016
 1281SOL    HW1 4586   1.836   3.631   2.946
 1281SOL    HW2 4587   1.748   3.516   2.991
 1282SOL     OW 4588   1.241   3.595   2.973
 1282SOL    HW1 4589   1.323   3.617   2.929
 1282SOL    HW2 4590   1.248   3.501   2.991
 1283SOL     OW 4591   0.082   3.074   2.889
 1283SOL    HW1 4592   0.070   3.101   2.980
 1283SOL    HW2 4593   5.293   3.065   2.855
 1284SOL     OW 4594   0.678   3.530   3.595
 1284SOL    HW1 4595   0.620   3.606   3.587
 1284SOL    HW2 4596   0.743   3.543   3.526
 1285SOL     OW 4597   1.720   2.011   2.370
 1285SOL    HW1 4598   1.791   1.996   2.308
 1285SOL    HW2 4599   1.704   1.926   2.410
 1286SOL     OW 4600   1.391   3.430   2.349
 1286SOL    HW1 4601   1.451   3.463   2.282
 1286SOL    HW2 4602   1.342   3.507   2.377
 1287SOL     OW 4603   0.147   3.660   3.704
 1287SOL    HW1 4604   0.092   3.597   3.752
 1287SOL    HW2 4605   0.195   3.706   3.773
 1288SOL     OW 4606   1.277   2.788   2.533
 1288SOL    HW1 4607   1.351   2.728   2.541
 1288SOL    HW2 4608   1.311   2.861   2.480
 1289SOL     OW 4609   0.811   3.136   3.291
 1289SOL    HW1 4610   0.782   3.176   3.372
 1289SOL    HW2 4611   0.742   3.157   3.228
 1290SOL     OW 4612   0.672   3.483   2.017
 1290SOL    HW1 4613   0.683   3.497   1.922
 1290SOL    HW2 4614   0.617   3.406   2.023
 1291SOL     OW 4615   1.622   3.590   3.251
 1291SOL    HW1 4616   1.672   3.598   3.170
 1291SOL    HW2 4617   1.608   3.681   3.280
 1292SOL     OW 4618   1.840   2.035   2.832
 1292SOL    HW1 4619   1.868   1.947   2.806
 1292SOL    HW2 4620   1.754   2.045   2.790
 1293SOL     OW 4621   0.273   2.179   2.579
 1293SOL    HW1 4622   0.188   2.217   2.560
 1293SOL    HW2 4623   0.274   2.168   2.674
 1294SOL     OW 4624   1.208   3.467   1.894
 1294SOL    HW1 4625   1.197   3.375   1.920
 1294SOL    HW2 4626   1.143   3.479   1.825
 1295SOL     OW 4627   0.824   2.868   3.235
 1295SOL    HW1 4628   0.867   2.864   3.149
 1295SOL    HW2 4629   0.822   2.961   3.256
 1296SOL     OW 4630   0.915   2.772   2.152
 1296SOL    HW1 4631   0.976   2.805   2.086
 1296SOL    HW2 4632   0.964   2.704   2.198
 1297SOL     OW 4633   1.490   3.488   1.905
 1297SOL    HW1 4634   1.396   3.481   1.891
 1297SOL    HW2 4635   1.528   3.494   1.817
 1298SOL     OW 4636   0.367   3.166   3.355
 1298SOL    HW1 4637   0.359   3.240   3.295
 1298SOL    HW2 4638   0.292   3.111   3.336
 1299SOL     OW 4639   1.597   3.138   3.142
 1299SOL    HW1 4640   1.685   3.152   3.176
 1299SOL    HW2 4641   1.546   3.211   3.176
 1300SOL     OW 4642   1.055   2.970   2.570
 1300SOL    HW1 4643   0.984   2.919   2.608
 1300SOL    HW2 4644   1.118   2.905   2.540
 1301SOL     OW 4645   1.023   2.103   2.828
 1301SOL    HW1 4646   1.018   2.056   2.745
 1301SOL    HW2 4647   1.017   2.034   2.895
 1302SOL     OW 4648   0.602   3.349   2.342
 1302SOL    HW1 4649   0.649   3.301   2.275
 1302SOL    HW2 4650   0.534   3.397   2.295
 1303SOL     OW 4651   0.262   3.210   2.156
 1303SOL    HW1 4652   0.169   3.211   2.133
 1303SOL    HW2 4653   0.265   3.248   2.244
 1304SOL     OW 4654   0.117   2.878   3.579
 1304SOL    HW1 4655   0.047   2.844   3.633
 1304SOL    HW2 4656   0.198   2.848   3.621
 1305SOL     OW 4657   0.675   2.058   3.362
 1305SOL    HW1 4658   0.759   2.037   3.321
 1305SOL    HW2 4659   0.698   2.091   3.449
 1306SOL     OW 4660   0.085   2.207   1.902
 1306SOL    HW1 4661   0.004   2.162   1.880
 1306SOL    HW2 4662   0.100   2.268   1.829
 1307SOL     OW 4663   1.427   2.720   3.264
 1307SOL    HW1 4664   1.373   2.781   3.212
 1307SOL    HW2 4665   1.513   2.723   3.222
 1308SOL     OW 4666   0.058   1.995   2.108
 1308SOL    HW1 4667   0.056   2.089   2.091
 1308SOL    HW2 4668   0.145   1.968   2.082
 1309SOL     OW 4669   1.179   3.200   1.979
 1309SOL    HW1 4670   1.088   3.170   1.981
 1309SOL    HW2 4671   1.206   3.200   2.071
 1310SOL     OW 4672   0.621   2.692   3.298
 1310SOL    HW1 4673   0.677   2.768   3.282
 1310SOL    HW2 4674   0.681   2.618   3.306
 1311SOL     OW 4675   1.482   3.642   2.843
 1311SOL    HW1 4676   1.505   3.702   2.772
 1311SOL    HW2 4677   1.566   3.618   2.882
 1312SOL     OW 4678   0.718   2.425   3.565
 1312SOL    HW1 4679   0.760   2.486   3.625
 1312SOL    HW2 4680   0.741   2.338   3.598
 1313SOL     OW 4681   1.463   3.062   3.498
 1313SOL    HW1 4682   1.448   3.072   3.592
 1313SOL    HW2 4683   1.551   3.097   3.485
 1314SOL     OW 4684   0.375   3.606   3.427
 1314SOL    HW1 4685   0.293   3.651   3.409
 1314SOL    HW2 4686   0.349   3.525   3.472
 1315SOL     OW 4687   1.655   2.732   3.125
 1315SOL    HW1 4688   1.671   2.655   3.070
 1315SOL    HW2 4689   1.667   2.806   3.066
 1316SOL     OW 4690   1.216   2.181   2.320
 1316SOL    HW1 4691   1.279   2.109   2.312
 1316SOL    HW2 4692   1.245   2.230   2.396
 1317SOL     OW 4693   0.589   2.598   2.532
 1317SOL    HW1 4694   0.628   2.684   2.517
 1317SOL    HW2 4695   0.520   2.591   2.466
 1318SOL     OW 4696   1.734   2.223   3.515
 1318SOL    HW1 4697   1.759   2.192   3.428
 1318SOL    HW2 4698   1.664   2.165   3.543
 1319SOL     OW 4699   0.863   3.228   1.899
 1319SOL    HW1 4700   0.825   3.258   1.982
 1319SOL    HW2 4701   0.880   3.309   1.851
 1320SOL     OW 4702   0.665   3.654   2.803
 1320SOL    HW1 4703   0.644   3.745   2.781
 1320SOL    HW2 4704   0.760   3.649   2.797
 1321SOL     OW 4705   0.868   2.830   2.716
 1321SOL    HW1 4706   0.918   2.758   2.755
 1321SOL    HW2 4707   0.832   2.877   2.790
 1322SOL     OW 4708   1.077   2.849   1.950
 1322SOL    HW1 4709   1.056   2.901   1.873
 1322SOL    HW2 4710   1.152   2.796   1.925
 1323SOL     OW 4711   1.851   3.417   2.704
 1323SOL    HW1 4712   1.773   3.405   2.650
 1323SOL    HW2 4713   1.843   3.350   2.773
 1324SOL     OW 4714   0.227   3.166   3.723
 1324SOL    HW1 4715   0.159   3.103   3.697
 1324SOL    HW2 4716   0.215   3.176   3.817
 1325SOL     OW 4717   0.089   3.079   2.516
 1325SOL    HW1 4718   0.104   3.048   2.605
 1325SOL    HW2 4719   0.176   3.082   2.477
 1326SOL     OW 4720   0.683   3.266   3.492
 1326SOL    HW1 4721   0.602   3.224   3.522
 1326SOL    HW2 4722   0.678   3.355   3.528
 1327SOL     OW 4723   1.797   2.056   3.106
 1327SOL    HW1 4724   1.826   1.967   3.126
 1327SOL    HW2 4725   1.808   2.064   3.012
 1328SOL     OW 4726   0.436   2.298   2.386
 1328SOL    HW1 4727   0.464   2.225   2.330
 1328SOL    HW2 4728   0.388   2.256   2.458
 1329SOL     OW 4729   1.698   3.354   2.954
 1329SOL    HW1 4730   1.617   3.326   2.911
 1329SOL    HW2 4731   1.719   3.283   3.015
 1330SOL     OW 4732   0.339   2.424   3.154
 1330SOL    HW1 4733   0.391   2.364   3.207
 1330SOL    HW2 4734   0.351   2.393   3.064
 1331SOL     OW 4735   0.830   3.440   2.539
 1331SOL    HW1 4736   0.814   3.499   2.466
 1331SOL    HW2 4737   0.754   3.381   2.540
 1332SOL     OW 4738   1.432   2.090   2.979
 1332SOL    HW1 4739   1.450   2.004   3.018
 1332SOL    HW2 4740   1.378   2.135   3.044
 1333SOL     OW 4741   1.009   1.879   3.002
 1333SOL    HW1 4742   0.954   1.813   2.961
 1333SOL    HW2 4743   1.097   1.841   3.004
 1334SOL     OW 4744   0.772   3.195   2.180
 1334SOL    HW1 4745   0.744   3.104   2.186
 1334SOL    HW2 4746   0.854   3.198   2.229
 1335SOL     OW 4747   0.623   3.417   3.150
 1335SOL    HW1 4748   0.624   3.499   3.199
 1335SOL    HW2 4749   0.710   3.412   3.111
 1336SOL     OW 4750   1.353   1.915   2.029
 1336SOL    HW1 4751   1.383   1.849   1.967
 1336SOL    HW2 4752   1.265   1.887   2.054
 1337SOL     OW 4753   1.295   2.323   2.541
 1337SOL    HW1 4754   1.244   2.403   2.547
 1337SOL    HW2 4755   1.291   2.286   2.629
 1338SOL     OW 4756   1.587   2.064   2.741
 1338SOL    HW1 4757   1.527   2.085   2.812
 1338SOL    HW2 4758   1.585   2.141   2.684
 1339SOL     OW 4759   0.049   2.930   2.152
 1339SOL    HW1 4760   0.137   2.896   2.141
 1339SOL    HW2 4761   5.299   2.856   2.188
 1340SOL     OW 4762   0.887   3.516   2.202
 1340SOL    HW1 4763   0.813   3.501   2.143
 1340SOL    HW2 4764   0.860   3.591   2.256
 1341SOL     OW 4765   0.233   2.492   3.841
 1341SOL    HW1 4766   0.162   2.455   3.894
 1341SOL    HW2 4767   0.216   2.461   3.752
 1342SOL     OW 4768   0.244   2.137   4.712
 1342SOL    HW1 4769   0.257   2.102   4.801
 1342SOL    HW2 4770   0.159   2.103   4.685
 1343SOL     OW 4771   5.298   2.262   4.377
 1343SOL    HW1 4772   5.205   2.284   4.382
 1343SOL    HW2 4773   5.300   2.172   4.344
 1344SOL     OW 4774   0.576   3.150   4.910
 1344SOL    HW1 4775   0.494   3.157   4.862
 1344SOL    HW2 4776   0.592   3.238   4.944
 1345SOL     OW 4777   1.561   3.378   4.434
 1345SOL    HW1 4778   1.518   3.354   4.516
 1345SOL    HW2 4779   1.489   3.380   4.370
 1346SOL     OW 4780   1.131   2.560   4.423
 1346SOL    HW1 4781   1.179   2.642   4.409
 1346SOL    HW2 4782   1.084   2.573   4.505
 1347SOL     OW 4783   1.774   2.461   3.947
 1347SOL    HW1 4784   1.740   2.454   3.858
 1347SOL    HW2 4785   1.739   2.385   3.993
 1348SOL     OW 4786   0.753   3.001   4.765
 1348SOL    HW1 4787   0.687   3.036   4.826
 1348SOL    HW2 4788   0.789   3.078   4.722
 1349SOL     OW 4789   0.870   2.632   5.547
 1349SOL    HW1 4790   0.860   2.704   5.610
 1349SOL    HW2 4791   0.892   2.676   5.465
 1350SOL     OW 4792   0.685   2.862   4.370
 1350SOL    HW1 4793   0.751   2.852   4.438
 1350SOL    HW2 4794   0.618   2.917   4.411
 1351SOL     OW 4795   0.711   3.012   5.539
 1351SOL    HW1 4796   0.759   3.090   5.567
 1351SOL    HW2 4797   0.630   3.046   5.501
 1352SOL     OW 4798   0.359   3.265   4.784
 1352SOL    HW1 4799   0.269   3.266   4.749
 1352SOL    HW2 4800   0.407   3.327   4.729
 1353SOL     OW 4801   1.461   3.364   5.081
 1353SOL    HW1 4802   1.513   3.444   5.092
 1353SOL    HW2 4803   1.396   3.368   5.151
 1354SOL     OW 4804   0.451   2.262   5.214
 1354SOL    HW1 4805   0.526   2.201   5.217
 1354SOL    HW2 4806   0.375   2.206   5.225
 1355SOL     OW 4807   1.595   2.311   4.467
 1355SOL    HW1 4808   1.517   2.322   4.414
 1355SOL    HW2 4809   1.602   2.392   4.518
 1356SOL     OW 4810   0.234   3.576   4.201
 1356SOL    HW1 4811   0.264   3.646   4.259
 1356SOL    HW2 4812   0.297   3.574   4.129
 1357SOL     OW 4813   1.137   3.204   5.417
 1357SOL    HW1 4814   1.179   3.198   5.503
 1357SOL    HW2 4815   1.085   3.124   5.410
 1358SOL     OW 4816   0.222   3.308   4.265
 1358SOL    HW1 4817   0.218   3.403   4.257
 1358SOL    HW2 4818   0.151   3.286   4.325
 1359SOL     OW 4819   0.252   2.938   4.598
 1359SOL    HW1 4820   0.263   2.852   4.638
 1359SOL    HW2 4821   0.199   2.988   4.660
 1360SOL     OW 4822   0.611   3.652   5.156
 1360SOL    HW1 4823   0.527   3.635   5.199
 1360SOL    HW2 4824   0.632   3.743   5.179
 1361SOL     OW 4825   0.581   2.846   3.861
 1361SOL    HW1 4826   0.628   2.893   3.792
 1361SOL    HW2 4827   0.621   2.877   3.942
 1362SOL     OW 4828   1.595   1.988   5.190
 1362SOL    HW1 4829   1.611   2.070   5.143
 1362SOL    HW2 4830   1.579   2.015   5.280
 1363SOL     OW 4831   0.127   2.495   4.305
 1363SOL    HW1 4832   0.089   2.412   4.334
 1363SOL    HW2 4833   0.099   2.558   4.371
 1364SOL     OW 4834   1.842   3.621   4.060
 1364SOL    HW1 4835   1.908   3.592   4.122
 1364SOL    HW2 4836   1.865   3.711   4.040
 1365SOL     OW 4837   0.039   3.461   3.857
 1365SOL    HW1 4838   0.025   3.370   3.883
 1365SOL    HW2 4839   5.280   3.511   3.915
 1366SOL     OW 4840   1.670   2.782   4.370
 1366SOL    HW1 4841   1.756   2.741   4.356
 1366SOL    HW2 4842   1.656   2.833   4.290
 1367SOL     OW 4843   1.648   2.968   4.151
 1367SOL    HW1 4844   1.732   2.968   4.106
 1367SOL    HW2 4845   1.656   3.038   4.216
 1368SOL     OW 4846   0.133   2.611   5.307
 1368SOL    HW1 4847   0.228   2.625   5.307
 1368SOL    HW2 4848   0.097   2.698   5.326
 1369SOL     OW 4849   0.617   3.249   4.458
 1369SOL    HW1 4850   0.569   3.167   4.469
 1369SOL    HW2 4851   0.599   3.276   4.368
 1370SOL     OW 4852   1.288   3.100   5.147
 1370SOL    HW1 4853   1.321   3.034   5.086
 1370SOL    HW2 4854   1.347   3.095   5.222
 1371SOL     OW 4855   0.825   1.862   4.235
 1371SOL    HW1 4856   0.865   1.947   4.214
 1371SOL    HW2 4857   0.731   1.881   4.240
 1372SOL     OW 4858   0.174   2.804   5.004
 1372SOL    HW1 4859   0.265   2.775   4.996
 1372SOL    HW2 4860   0.135   2.786   4.918
 1373SOL     OW 4861   1.526   2.857   3.925
 1373SOL    HW1 4862   1.457   2.801   3.961
 1373SOL    HW2 4863   1.572   2.892   4.001
 1374SOL     OW 4864   1.186   3.671   5.348
 1374SOL    HW1 4865   1.192   3.730   5.273
 1374SOL    HW2 4866   1.202   3.584   5.311
 1375SOL     OW 4867   0.341   2.116   5.546
 1375SOL    HW1 4868   0.387   2.199   5.560
 1375SOL    HW2 4869   0.252   2.132   5.578
 1376SOL     OW 4870   1.468   3.280   4.677
 1376SOL    HW1 4871   1.400   3.296   4.741
 1376SOL    HW2 4872   1.454   3.189   4.649
 1377SOL     OW 4873   1.656   3.607   4.304
 1377SOL    HW1 4874   1.643   3.576   4.214
 1377SOL    HW2 4875   1.631   3.533   4.359
 1378SOL     OW 4876   0.595   2.582   3.992
 1378SOL    HW1 4877   0.601   2.664   3.942
 1378SOL    HW2 4878   0.530   2.600   4.060
 1379SOL     OW 4879   1.279   2.219   4.657
 1379SOL    HW1 4880   1.189   2.185   4.666
 1379SOL    HW2 4881   1.330   2.165   4.717
 1380SOL     OW 4882   1.579   3.534   4.034
 1380SOL    HW1 4883   1.671   3.561   4.027
 1380SOL    HW2 4884   1.552   3.516   3.943
 1381SOL     OW 4885   0.791   2.480   5.174
 1381SOL    HW1 4886   0.765   2.455   5.263
 1381SOL    HW2 4887   0.753   2.412   5.118
 1382SOL     OW 4888   1.393   2.336   5.401
 1382SOL    HW1 4889   1.396   2.381   5.486
 1382SOL    HW2 4890   1.453   2.262   5.411
 1383SOL     OW 4891   0.953   2.748   5.308
 1383SOL    HW1 4892   1.007   2.679   5.271
 1383SOL    HW2 4893   0.905   2.783   5.233
 1384SOL     OW 4894   0.992   2.274   4.961
 1384SOL    HW1 4895   0.905   2.294   4.996
 1384SOL    HW2 4896   0.976   2.228   4.879
 1385SOL     OW 4897   1.052   2.560   4.150
 1385SOL    HW1 4898   1.068   2.553   4.244
 1385SOL    HW2 4899   0.969   2.514   4.136
 1386SOL     OW 4900   0.069   2.650   4.534
 1386SOL    HW1 4901   0.150   2.655   4.586
 1386SOL    HW2 4902   0.067   2.733   4.485
 1387SOL     OW 4903   0.128   3.748   5.309
 1387SOL    HW1 4904   0.133   3.722   5.401
 1387SOL    HW2 4905   0.060   3.692   5.272
 1388SOL     OW 4906   0.896   2.212   3.919
 1388SOL    HW1 4907   0.935   2.274   3.858
 1388SOL    HW2 4908   0.908   2.127   3.877
 1389SOL     OW 4909   1.705   2.435   5.553
 1389SOL    HW1 4910   1.671   2.509   5.503
 1389SOL    HW2 4911   1.735   2.373   5.486
 1390SOL     OW 4912   1.380   3.004   4.266
 1390SOL    HW1 4913   1.460   2.995   4.214
 1390SOL    HW2 4914   1.327   3.066   4.216
 1391SOL     OW 4915   0.557   2.044   4.619
 1391SOL    HW1 4916   0.554   2.073   4.710
 1391SOL    HW2 4917   0.551   2.125   4.568
 1392SOL     OW 4918   1.003   3.305   4.195
 1392SOL    HW1 4919   0.969   3.379   4.145
 1392SOL    HW2 4920   0.983   3.326   4.286
 1393SOL     OW 4921   0.358   3.666   4.595
 1393SOL    HW1 4922   0.398   3.580   4.608
 1393SOL    HW2 4923   0.423   3.728   4.627
 1394SOL     OW 4924   1.733   2.974   4.563
 1394SOL    HW1 4925   1.701   2.904   4.507
 1394SOL    HW2 4926   1.692   2.958   4.648
 1395SOL     OW 4927   1.228   3.401   5.237
 1395SOL    HW1 4928   1.215   3.328   5.298
 1395SOL    HW2 4929   1.162   3.387   5.169
 1396SOL     OW 4930   0.315   2.814   3.973
 1396SOL    HW1 4931   0.396   2.838   3.928
 1396SOL    HW2 4932   0.292   2.727   3.938
 1397SOL     OW 4933   1.475   2.601   4.449
 1397SOL    HW1 4934   1.470   2.569   4.539
 1397SOL    HW2 4935   1.548   2.664   4.450
 1398SOL     OW 4936   0.466   3.127   5.462
 1398SOL    HW1 4937   0.440   3.133   5.370
 1398SOL    HW2 4938   0.384   3.127   5.511
 1399SOL     OW 4939   1.123   3.640   3.954
 1399SOL    HW1 4940   1.049   3.598   3.999
 1399SOL    HW2 4941   1.147   3.578   3.885
 1400SOL     OW 4942   0.206   2.140   5.221
 1400SOL    HW1 4943   0.127   2.192   5.204
 1400SOL    HW2 4944   0.172   2.059   5.261
 1401SOL     OW 4945   1.622   3.243   3.810
 1401SOL    HW1 4946   1.581   3.328   3.795
 1401SOL    HW2 4947   1.553   3.180   3.791
 1402SOL     OW 4948   0.471   3.597   4.043
 1402SOL    HW1 4949   0.515   3.654   4.105
 1402SOL    HW2 4950   0.541   3.564   3.986
 1403SOL     OW 4951   1.401   1.969   4.159
 1403SOL    HW1 4952   1.391   1.944   4.067
 1403SOL    HW2 4953   1.496   1.976   4.172
 1404SOL     OW 4954   0.278   3.663   4.933
 1404SOL    HW1 4955   0.306   3.583   4.978
 1404SOL    HW2 4956   0.224   3.631   4.861
 1405SOL     OW 4957   0.939   3.561   4.622
 1405SOL    HW1 4958   1.017   3.510   4.643
 1405SOL    HW2 4959   0.896   3.511   4.553
 1406SOL     OW 4960   0.386   2.557   4.202
 1406SOL    HW1 4961   0.415   2.467   4.212
 1406SOL    HW2 4962   0.293   2.555   4.223
 1407SOL     OW 4963   1.531   2.086   5.449
 1407SOL    HW1 4964   1.542   2.107   5.542
 1407SOL    HW2 4965   1.463   2.020   5.447
 1408SOL     OW 4966   0.638   1.983   3.827
 1408SOL    HW1 4967   0.703   1.915   3.842
 1408SOL    HW2 4968   0.587   1.953   3.752
 1409SOL     OW 4969   0.766   2.141   5.479
 1409SOL    HW1 4970   0.843   2.085   5.478
 1409SOL    HW2 4971   0.718   2.114   5.558
 1410SOL     OW 4972   0.877   3.385   4.917
 1410SOL    HW1 4973   0.860   3.348   4.831
 1410SOL    HW2 4974   0.947   3.329   4.954
 1411SOL     OW 4975   1.341   2.451   5.155
 1411SOL    HW1 4976   1.371   2.419   5.241
 1411SOL    HW2 4977   1.375   2.540   5.149
 1412SOL     OW 4978   0.817   3.254   4.666
 1412SOL    HW1 4979   0.901   3.243   4.622
 1412SOL    HW2 4980   0.753   3.258   4.595
 1413SOL     OW 4981   0.929   2.372   4.626
 1413SOL    HW1 4982   0.904   2.363   4.534
 1413SOL    HW2 4983   0.958   2.284   4.651
 1414SOL     OW 4984   0.561   1.923   4.218
 1414SOL    HW1 4985   0.487   1.923   4.278
 1414SOL    HW2 4986   0.550   2.002   4.165
 1415SOL     OW 4987   1.422   3.060   3.766
 1415SOL    HW1 4988   1.454   2.986   3.818
 1415SOL    HW2 4989   1.339   3.083   3.806
 1416SOL     OW 4990   0.306   1.909   3.902
 1416SOL    HW1 4991   0.367   1.973   3.867
 1416SOL    HW2 4992   0.361   1.845   3.948
 1417SOL     OW 4993   0.941   2.110   4.182
 1417SOL    HW1 4994   0.915   2.151   4.099
 1417SOL    HW2 4995   1.035   2.125   4.187
 1418SOL     OW 4996   1.080   2.544   5.183
 1418SOL    HW1 4997   1.012   2.476   5.187
 1418SOL    HW2 4998   1.162   2.495   5.177
 1419SOL     OW 4999   1.223   3.432   4.518
 1419SOL    HW1 5000   1.237   3.498   4.450
 1419SOL    HW2 5001   1.291   3.449   4.583
 1420SOL     OW 5002   0.469   3.013   4.453
 1420SOL    HW1 5003   0.400   2.992   4.516
 1420SOL    HW2 5004   0.428   2.996   4.367
 1421SOL     OW 5005   1.267   3.655   4.335
 1421SOL    HW1 5006   1.314   3.716   4.278
 1421SOL    HW2 5007   1.199   3.708   4.375
 1422SOL     OW 5008   1.023   2.401   3.748
 1422SOL    HW1 5009   0.980   2.484   3.729
 1422SOL    HW2 5010   1.089   2.423   3.814
 1423SOL     OW 5011   0.090   2.404   5.123
 1423SOL    HW1 5012   0.177   2.413   5.086
 1423SOL    HW2 5013   0.081   2.482   5.180
 1424SOL     OW 5014   0.560   2.090   4.892
 1424SOL    HW1 5015   0.598   2.011   4.930
 1424SOL    HW2 5016   0.468   2.089   4.919
 1425SOL     OW 5017   0.868   2.321   4.363
 1425SOL    HW1 5018   0.822   2.375   4.299
 1425SOL    HW2 5019   0.889   2.241   4.315
 1426SOL     OW 5020   1.016   1.916   4.474
 1426SOL    HW1 5021   0.957   1.908   4.398
 1426SOL    HW2 5022   0.994   1.841   4.529
 1427SOL     OW 5023   1.428   3.024   4.579
 1427SOL    HW1 5024   1.359   2.958   4.581
 1427SOL    HW2 5025   1.449   3.035   4.487
 1428SOL     OW 5026   1.473   2.470   4.703
 1428SOL    HW1 5027   1.418   2.392   4.705
 1428SOL    HW2 5028   1.533   2.459   4.777
 1429SOL     OW 5029   1.830   2.681   4.097
 1429SOL    HW1 5030   1.888   2.640   4.161
 1429SOL    HW2 5031   1.811   2.611   4.033
 1430SOL     OW 5032   0.491   3.282   3.880
 1430SOL    HW1 5033   0.416   3.254   3.932
 1430SOL    HW2 5034   0.478   3.240   3.794
 1431SOL     OW 5035   1.676   3.141   4.350
 1431SOL    HW1 5036   1.718   3.105   4.428
 1431SOL    HW2 5037   1.644   3.227   4.378
 1432SOL     OW 5038   1.391   2.436   3.793
 1432SOL    HW1 5039   1.334   2.414   3.867
 1432SOL    HW2 5040   1.478   2.407   3.819
 1433SOL     OW 5041   0.525   2.125   4.039
 1433SOL    HW1 5042   0.572   2.079   3.969
 1433SOL    HW2 5043   0.500   2.209   4.000
 1434SOL     OW 5044   1.751   3.096   5.307
 1434SOL    HW1 5045   1.839   3.058   5.305
 1434SOL    HW2 5046   1.766   3.190   5.323
 1435SOL     OW 5047   1.057   3.214   5.056
 1435SOL    HW1 5048   0.982   3.184   5.107
 1435SOL    HW2 5049   1.133   3.174   5.098
 1436SOL     OW 5050   1.609   3.489   5.380
 1436SOL    HW1 5051   1.603   3.523   5.291
 1436SOL    HW2 5052   1.690   3.438   5.380
 1437SOL     OW 5053   1.130   3.067   4.827
 1437SOL    HW1 5054   1.072   3.105   4.893
 1437SOL    HW2 5055   1.099   3.101   4.744
 1438SOL     OW 5056   1.608   2.950   4.806
 1438SOL    HW1 5057   1.605   3.012   4.879
 1438SOL    HW2 5058   1.530   2.969   4.755
 1439SOL     OW 5059   0.919   1.957   5.119
 1439SOL    HW1 5060   0.941   1.939   5.028
 1439SOL    HW2 5061   0.998   1.997   5.156
 1440SOL     OW 5062   0.984   2.977   5.447
 1440SOL    HW1 5063   0.893   2.993   5.469
 1440SOL    HW2 5064   0.982   2.899   5.391
 1441SOL     OW 5065   0.708   2.923   4.096
 1441SOL    HW1 5066   0.696   2.905   4.189
 1441SOL    HW2 5067   0.784   2.870   4.071
 1442SOL     OW 5068   0.421   2.683   4.977
 1442SOL    HW1 5069   0.490   2.690   5.043
 1442SOL    HW2 5070   0.387   2.594   4.987
 1443SOL     OW 5071   1.264   2.238   5.000
 1443SOL    HW1 5072   1.297   2.315   5.047
 1443SOL    HW2 5073   1.174   2.260   4.979
 1444SOL     OW 5074   0.103   3.485   5.090
 1444SOL    HW1 5075   0.082   3.491   4.997
 1444SOL    HW2 5076   0.189   3.444   5.092
 1445SOL     OW 5077   0.341   2.971   4.209
 1445SOL    HW1 5078   0.348   3.050   4.156
 1445SOL    HW2 5079   0.347   2.899   4.147
 1446SOL     OW 5080   0.553   2.396   4.582
 1446SOL    HW1 5081   0.567   2.455   4.509
 1446SOL    HW2 5082   0.618   2.422   4.647
 1447SOL     OW 5083   1.248   3.210   4.114
 1447SOL    HW1 5084   1.304   3.282   4.144
 1447SOL    HW2 5085   1.161   3.232   4.148
 1448SOL     OW 5086   1.284   3.321   4.872
 1448SOL    HW1 5087   1.340   3.324   4.949
 1448SOL    HW2 5088   1.228   3.244   4.886
 1449SOL     OW 5089   1.583   2.487   4.203
 1449SOL    HW1 5090   1.532   2.532   4.269
 1449SOL    HW2 5091   1.617   2.557   4.146
 1450SOL     OW 5092   0.352   3.382   5.033
 1450SOL    HW1 5093   0.341   3.338   4.949
 1450SOL    HW2 5094   0.446   3.399   5.039
 1451SOL     OW 5095   0.415   2.604   5.326
 1451SOL    HW1 5096   0.477   2.649   5.269
 1451SOL    HW2 5097   0.454   2.517   5.339
 1452SOL     OW 5098   1.605   2.642   5.406
 1452SOL    HW1 5099   1.520   2.685   5.400
 1452SOL    HW2 5100   1.658   2.685   5.338
 1453SOL     OW 5101   0.996   1.989   5.478
 1453SOL    HW1 5102   1.053   2.061   5.453
 1453SOL    HW2 5103   1.044   1.910   5.453
 1454SOL     OW 5104   0.497   1.902   5.473
 1454SOL    HW1 5105   0.453   1.849   5.407
 1454SOL    HW2 5106   0.439   1.977   5.486
 1455SOL     OW 5107   0.586   2.736   4.757
 1455SOL    HW1 5108   0.618   2.827   4.757
 1455SOL    HW2 5109   0.529   2.731   4.834
 1456SOL     OW 5110   1.355   2.721   4.748
 1456SOL    HW1 5111   1.269   2.708   4.708
 1456SOL    HW2 5112   1.397   2.635   4.745
 1457SOL     OW 5113   1.203   2.390   3.990
 1457SOL    HW1 5114   1.211   2.311   4.044
 1457SOL    HW2 5115   1.160   2.454   4.046
 1458SOL     OW 5116   0.301   2.065   4.972
 1458SOL    HW1 5117   0.267   2.088   5.058
 1458SOL    HW2 5118   0.290   1.970   4.966
 1459SOL     OW 5119   0.064   3.178   5.003
 1459SOL    HW1 5120   0.091   3.120   5.074
 1459SOL    HW2 5121   5.293   3.230   5.040
 1460SOL     OW 5122   0.723   2.492   4.780
 1460SOL    HW1 5123   0.798   2.478   4.723
 1460SOL    HW2 5124   0.695   2.582   4.760
 1461SOL     OW 5125   1.734   2.823   5.578
 1461SOL    HW1 5126   1.690   2.757   5.524
 1461SOL    HW2 5127   1.675   2.837   5.652
 1462SOL     OW 5128   0.328   1.924   4.357
 1462SOL    HW1 5129   0.307   2.014   4.384
 1462SOL    HW2 5130   0.333   1.875   4.440
 1463SOL     OW 5131   1.613   2.240   4.086
 1463SOL    HW1 5132   1.647   2.178   4.150
 1463SOL    HW2 5133   1.594   2.319   4.137
 1464SOL     OW 5134   1.030   2.620   4.684
 1464SOL    HW1 5135   1.023   2.638   4.778
 1464SOL    HW2 5136   1.002   2.529   4.675
 1465SOL     OW 5137   0.982   3.428   5.443
 1465SOL    HW1 5138   0.967   3.472   5.359
 1465SOL    HW2 5139   1.026   3.346   5.419
 1466SOL     OW 5140   1.855   3.367   5.325
 1466SOL    HW1 5141   1.878   3.397   5.237
 1466SOL    HW2 5142   1.933   3.383   5.378
 1467SOL     OW 5143   0.355   2.781   5.530
 1467SOL    HW1 5144   0.436   2.800   5.578
 1467SOL    HW2 5145   0.380   2.715   5.465
 1468SOL     OW 5146   1.526   2.133   3.849
 1468SOL    HW1 5147   1.462   2.068   3.878
 1468SOL    HW2 5148   1.560   2.171   3.930
 1469SOL     OW 5149   1.287   2.688   3.756
 1469SOL    HW1 5150   1.329   2.602   3.759
 1469SOL    HW2 5151   1.320   2.727   3.674
 1470SOL     OW 5152   1.067   3.199   4.579
 1470SOL    HW1 5153   1.071   3.127   4.516
 1470SOL    HW2 5154   1.127   3.264   4.544
 1471SOL     OW 5155   0.313   2.671   4.674
 1471SOL    HW1 5156   0.407   2.689   4.670
 1471SOL    HW2 5157   0.307   2.581   4.705
 1472SOL     OW 5158   0.334   2.389   4.739
 1472SOL    HW1 5159   0.299   2.301   4.726
 1472SOL    HW2 5160   0.409   2.394   4.680
 1473SOL     OW 5161   1.134   2.236   5.408
 1473SOL    HW1 5162   1.086   2.291   5.470
 1473SOL    HW2 5163   1.221   2.275   5.404
 1474SOL     OW 5164   1.161   2.063   5.195
 1474SOL    HW1 5165   1.150   2.126   5.266
 1474SOL    HW2 5166   1.202   2.113   5.124
 1475SOL     OW 5167   0.003   3.189   3.934
 1475SOL    HW1 5168   5.232   3.176   3.872
 1475SOL    HW2 5169   0.013   3.105   3.977
 1476SOL     OW 5170   0.096   3.643   4.677
 1476SOL    HW1 5171   0.061   3.575   4.619
 1476SOL    HW2 5172   0.182   3.663   4.642
 1477SOL     OW 5173   0.505   3.436   4.632
 1477SOL    HW1 5174   0.571   3.501   4.652
 1477SOL    HW2 5175   0.548   3.375   4.571
 1478SOL     OW 5176   0.980   2.652   4.949
 1478SOL    HW1 5177   1.037   2.631   5.023
 1478SOL    HW2 5178   0.895   2.615   4.974
 1479SOL     OW 5179   0.032   2.428   4.842
 1479SOL    HW1 5180   0.117   2.403   4.807
 1479SOL    HW2 5181   0.036   2.407   4.935
 1480SOL     OW 5182   0.173   2.376   5.436
 1480SOL    HW1 5183   0.236   2.336   5.376
 1480SOL    HW2 5184   0.147   2.457   5.393
 1481SOL     OW 5185   1.379   2.799   5.382
 1481SOL    HW1 5186   1.400   2.893   5.379
 1481SOL    HW2 5187   1.374   2.773   5.291
 1482SOL     OW 5188   0.817   2.431   4.087
 1482SOL    HW1 5189   0.822   2.357   4.026
 1482SOL    HW2 5190   0.743   2.483   4.055
 1483SOL     OW 5191   1.662   2.459   4.908
 1483SOL    HW1 5192   1.633   2.405   4.982
 1483SOL    HW2 5193   1.756   2.442   4.902
 1484SOL     OW 5194   0.255   3.417   5.458
 1484SOL    HW1 5195   0.234   3.481   5.526
 1484SOL    HW2 5196   0.251   3.332   5.501
 1485SOL     OW 5197   0.706   2.310   4.981
 1485SOL    HW1 5198   0.652   2.237   4.954
 1485SOL    HW2 5199   0.700   2.373   4.910
 1486SOL     OW 5200   0.927   3.541   5.192
 1486SOL    HW1 5201   0.901   3.504   5.108
 1486SOL    HW2 5202   0.920   3.636   5.181
 1487SOL     OW 5203   0.464   2.355   3.907
 1487SOL    HW1 5204   0.524   2.425   3.931
 1487SOL    HW2 5205   0.380   2.399   3.893
 1488SOL     OW 5206   0.147   2.999   5.195
 1488SOL    HW1 5207   0.144   2.952   5.278
 1488SOL    HW2 5208   0.158   2.931   5.128
 1489SOL     OW 5209   1.320   2.905   4.946
 1489SOL    HW1 5210   1.345   2.844   4.877
 1489SOL    HW2 5211   1.252   2.960   4.907
 1490SOL     OW 5212   1.312   2.716   4.031
 1490SOL    HW1 5213   1.236   2.687   4.081
 1490SOL    HW2 5214   1.287   2.705   3.939
 1491SOL     OW 5215   1.772   3.601   4.876
 1491SOL    HW1 5216   1.834   3.629   4.808
 1491SOL    HW2 5217   1.747   3.512   4.849
 1492SOL     OW 5218   1.241   3.595   4.835
 1492SOL    HW1 5219   1.323   3.617   4.791
 1492SOL    HW2 5220   1.248   3.502   4.854
 1493SOL     OW 5221   0.082   3.074   4.751
 1493SOL    HW1 5222   0.070   3.101   4.842
 1493SOL    HW2 5223   5.293   3.065   4.716
 1494SOL     OW 5224   0.678   3.530   5.457
 1494SOL    HW1 5225   0.620   3.606   5.450
 1494SOL    HW2 5226   0.743   3.543   5.388
 1495SOL     OW 5227   1.711   1.997   4.228
 1495SOL    HW1 5228   1.785   1.985   4.169
 1495SOL    HW2 5229   1.698   1.911   4.268
 1496SOL     OW 5230   1.390   3.430   4.210
 1496SOL    HW1 5231   1.452   3.462   4.144
 1496SOL    HW2 5232   1.342   3.507   4.238
 1497SOL     OW 5233   0.147   3.660   5.566
 1497SOL    HW1 5234   0.092   3.597   5.614
 1497SOL    HW2 5235   0.195   3.706   5.635
 1498SOL     OW 5236   1.277   2.789   4.394
 1498SOL    HW1 5237   1.349   2.726   4.400
 1498SOL    HW2 5238   1.312   2.861   4.341
 1499SOL     OW 5239   0.811   3.136   5.152
 1499SOL    HW1 5240   0.783   3.176   5.234
 1499SOL    HW2 5241   0.741   3.156   5.090
 1500SOL     OW 5242   0.672   3.483   3.879
 1500SOL    HW1 5243   0.683   3.497   3.784
 1500SOL    HW2 5244   0.617   3.406   3.885
 1501SOL     OW 5245   1.627   3.590   5.115
 1501SOL    HW1 5246   1.672   3.599   5.031
 1501SOL    HW2 5247   1.612   3.680   5.144
 1502SOL     OW 5248   1.842   2.035   4.688
 1502SOL    HW1 5249   1.878   1.951   4.661
 1502SOL    HW2 5250   1.756   2.039   4.646
 1503SOL     OW 5251   0.273   2.179   4.441
 1503SOL    HW1 5252   0.188   2.217   4.422
 1503SOL    HW2 5253   0.274   2.168   4.536
 1504SOL     OW 5254   1.207   3.467   3.756
 1504SOL    HW1 5255   1.197   3.375   3.782
 1504SOL    HW2 5256   1.142   3.479   3.687
 1505SOL     OW 5257   0.824   2.868   5.097
 1505SOL    HW1 5258   0.868   2.863   5.012
 1505SOL    HW2 5259   0.822   2.961   5.118
 1506SOL     OW 5260   0.915   2.772   4.015
 1506SOL    HW1 5261   0.975   2.805   3.948
 1506SOL    HW2 5262   0.964   2.704   4.060
 1507SOL     OW 5263   1.489   3.490   3.767
 1507SOL    HW1 5264   1.395   3.482   3.752
 1507SOL    HW2 5265   1.527   3.495   3.679
 1508SOL     OW 5266   0.367   3.166   5.217
 1508SOL    HW1 5267   0.359   3.240   5.157
 1508SOL    HW2 5268   0.291   3.111   5.198
 1509SOL     OW 5269   1.594   3.135   5.003
 1509SOL    HW1 5270   1.681   3.147   5.042
 1509SOL    HW2 5271   1.542   3.207   5.038
 1510SOL     OW 5272   1.056   2.970   4.432
 1510SOL    HW1 5273   0.984   2.920   4.470
 1510SOL    HW2 5274   1.118   2.904   4.402
 1511SOL     OW 5275   1.023   2.103   4.690
 1511SOL    HW1 5276   1.018   2.056   4.607
 1511SOL    HW2 5277   1.017   2.035   4.757
 1512SOL     OW 5278   0.602   3.349   4.204
 1512SOL    HW1 5279   0.649   3.301   4.136
 1512SOL    HW2 5280   0.534   3.397   4.157
 1513SOL     OW 5281   1.713   2.246   5.104
 1513SOL    HW1 5282   1.785   2.308   5.117
 1513SOL    HW2 5283   1.749   2.180   5.046
 1514SOL     OW 5284   0.262   3.210   4.018
 1514SOL    HW1 5285   0.169   3.211   3.995
 1514SOL    HW2 5286   0.265   3.248   4.106
 1515SOL     OW 5287   0.117   2.878   5.441
 1515SOL    HW1 5288   0.047   2.843   5.496
 1515SOL    HW2 5289   0.198   2.848   5.483
 1516SOL     OW 5290   0.675   2.058   5.224
 1516SOL    HW1 5291   0.759   2.037   5.183
 1516SOL    HW2 5292   0.698   2.090   5.311
 1517SOL     OW 5293   0.086   2.206   3.764
 1517SOL    HW1 5294   0.003   2.162   3.742
 1517SOL    HW2 5295   0.100   2.267   3.691
 1518SOL     OW 5296   1.425   2.719   5.124
 1518SOL    HW1 5297   1.376   2.782   5.070
 1518SOL    HW2 5298   1.514   2.723   5.088
 1519SOL     OW 5299   0.058   1.995   3.970
 1519SOL    HW1 5300   0.056   2.089   3.953
 1519SOL    HW2 5301   0.145   1.967   3.944
 1520SOL     OW 5302   1.178   3.200   3.842
 1520SOL    HW1 5303   1.087   3.171   3.844
 1520SOL    HW2 5304   1.205   3.201   3.934
 1521SOL     OW 5305   0.620   2.693   5.160
 1521SOL    HW1 5306   0.677   2.768   5.144
 1521SOL    HW2 5307   0.680   2.619   5.168
 1522SOL     OW 5308   1.482   3.642   4.705
 1522SOL    HW1 5309   1.503   3.701   4.632
 1522SOL    HW2 5310   1.567   3.621   4.744
 1523SOL     OW 5311   0.717   2.425   5.427
 1523SOL    HW1 5312   0.760   2.486   5.487
 1523SOL    HW2 5313   0.742   2.338   5.460
 1524SOL     OW 5314   1.472   3.060   5.355
 1524SOL    HW1 5315   1.461   3.074   5.449
 1524SOL    HW2 5316   1.565   3.075   5.340
 1525SOL     OW 5317   0.375   3.605   5.289
 1525SOL    HW1 5318   0.293   3.651   5.272
 1525SOL    HW2 5319   0.349   3.525   5.334
 1526SOL     OW 5320   1.663   2.743   4.983
 1526SOL    HW1 5321   1.668   2.659   4.938
 1526SOL    HW2 5322   1.647   2.807   4.913
 1527SOL     OW 5323   1.216   2.181   4.182
 1527SOL    HW1 5324   1.279   2.109   4.174
 1527SOL    HW2 5325   1.246   2.230   4.259
 1528SOL     OW 5326   0.589   2.598   4.394
 1528SOL    HW1 5327   0.628   2.684   4.379
 1528SOL    HW2 5328   0.520   2.591   4.328
 1529SOL     OW 5329   1.759   2.223   5.380
 1529SOL    HW1 5330   1.744   2.240   5.287
 1529SOL    HW2 5331   1.686   2.166   5.406
 1530SOL     OW 5332   1.747   2.803   5.235
 1530SOL    HW1 5333   1.731   2.896   5.250
 1530SOL    HW2 5334   1.722   2.790   5.143
 1531SOL     OW 5335   0.864   3.228   3.761
 1531SOL    HW1 5336   0.825   3.257   3.844
 1531SOL    HW2 5337   0.880   3.309   3.713
 1532SOL     OW 5338   0.665   3.654   4.665
 1532SOL    HW1 5339   0.644   3.745   4.643
 1532SOL    HW2 5340   0.760   3.649   4.659
 1533SOL     OW 5341   0.869   2.830   4.578
 1533SOL    HW1 5342   0.918   2.758   4.617
 1533SOL    HW2 5343   0.832   2.877   4.652
 1534SOL     OW 5344   1.076   2.851   3.814
 1534SOL    HW1 5345   1.056   2.902   3.735
 1534SOL    HW2 5346   1.151   2.797   3.788
 1535SOL     OW 5347   1.850   3.415   4.576
 1535SOL    HW1 5348   1.787   3.404   4.504
 1535SOL    HW2 5349   1.811   3.368   4.649
 1536SOL     OW 5350   0.227   3.166   5.585
 1536SOL    HW1 5351   0.159   3.103   5.559
 1536SOL    HW2 5352   0.215   3.176   5.679
 1537SOL     OW 5353   0.089   3.079   4.379
 1537SOL    HW1 5354   0.104   3.048   4.468
 1537SOL    HW2 5355   0.176   3.082   4.339
 1538SOL     OW 5356   0.682   3.266   5.354
 1538SOL    HW1 5357   0.602   3.224   5.384
 1538SOL    HW2 5358   0.678   3.355   5.390
 1539SOL     OW 5359   1.824   2.053   4.956
 1539SOL    HW1 5360   1.842   1.962   4.980
 1539SOL    HW2 5361   1.828   2.054   4.861
 1540SOL     OW 5362   0.436   2.298   4.248
 1540SOL    HW1 5363   0.464   2.225   4.192
 1540SOL    HW2 5364   0.388   2.256   4.320
 1541SOL     OW 5365   1.709   3.346   4.812
 1541SOL    HW1 5366   1.624   3.318   4.778
 1541SOL    HW2 5367   1.732   3.278   4.876
 1542SOL     OW 5368   0.339   2.424   5.016
 1542SOL    HW1 5369   0.391   2.364   5.069
 1542SOL    HW2 5370   0.352   2.393   4.926
 1543SOL     OW 5371   0.830   3.439   4.401
 1543SOL    HW1 5372   0.814   3.499   4.328
 1543SOL    HW2 5373   0.754   3.381   4.402
 1544SOL     OW 5374   1.433   2.089   4.841
 1544SOL    HW1 5375   1.458   2.009   4.887
 1544SOL    HW2 5376   1.380   2.137   4.905
 1545SOL     OW 5377   1.009   1.880   4.864
 1545SOL    HW1 5378   0.955   1.813   4.823
 1545SOL    HW2 5379   1.097   1.842   4.866
 1546SOL     OW 5380   0.772   3.195   4.042
 1546SOL    HW1 5381   0.744   3.104   4.048
 1546SOL    HW2 5382   0.854   3.198   4.091
 1547SOL     OW 5383   0.623   3.417   5.012
 1547SOL    HW1 5384   0.624   3.499   5.061
 1547SOL    HW2 5385   0.710   3.412   4.973
 1548SOL     OW 5386   1.353   1.914   3.891
 1548SOL    HW1 5387   1.384   1.846   3.831
 1548SOL    HW2 5388   1.265   1.886   3.915
 1549SOL     OW 5389   1.298   2.324   4.405
 1549SOL    HW1 5390   1.244   2.403   4.409
 1549SOL    HW2 5391   1.290   2.284   4.492
 1550SOL     OW 5392   1.585   2.062   4.603
 1550SOL    HW1 5393   1.527   2.080   4.677
 1550SOL    HW2 5394   1.581   2.141   4.549
 1551SOL     OW 5395   0.049   2.930   4.015
 1551SOL    HW1 5396   0.137   2.896   4.003
 1551SOL    HW2 5397   5.299   2.856   4.050
 1552SOL     OW 5398   0.887   3.516   4.064
 1552SOL    HW1 5399   0.813   3.501   4.005
 1552SOL    HW2 5400   0.860   3.591   4.118
 1553SOL     OW 5401   0.232   2.492   5.703
 1553SOL    HW1 5402   0.162   2.454   5.756
 1553SOL    HW2 5403   0.216   2.461   5.614
 1554SOL     OW 5404   0.244   2.137   6.575
 1554SOL    HW1 5405   0.257   2.102   6.663
 1554SOL    HW2 5406   0.159   2.103   6.547
 1555SOL     OW 5407   5.298   2.262   6.239
 1555SOL    HW1 5408   5.205   2.284   6.244
 1555SOL    HW2 5409   5.300   2.172   6.206
 1556SOL     OW 5410   0.576   3.150   6.772
 1556SOL    HW1 5411   0.494   3.158   6.724
 1556SOL    HW2 5412   0.592   3.238   6.806
 1557SOL     OW 5413   1.564   3.374   6.294
 1557SOL    HW1 5414   1.522   3.353   6.377
 1557SOL    HW2 5415   1.493   3.378   6.230
 1558SOL     OW 5416   1.131   2.560   6.285
 1558SOL    HW1 5417   1.180   2.641   6.271
 1558SOL    HW2 5418   1.084   2.574   6.367
 1559SOL     OW 5419   1.766   2.465   5.814
 1559SOL    HW1 5420   1.745   2.460   5.721
 1559SOL    HW2 5421   1.730   2.384   5.852
 1560SOL     OW 5422   0.752   3.001   6.627
 1560SOL    HW1 5423   0.687   3.037   6.688
 1560SOL    HW2 5424   0.789   3.078   6.584
 1561SOL     OW 5425   0.868   2.634   7.406
 1561SOL    HW1 5426   0.858   2.708   7.465
 1561SOL    HW2 5427   0.893   2.673   7.322
 1562SOL     OW 5428   0.685   2.862   6.232
 1562SOL    HW1 5429   0.752   2.852   6.300
 1562SOL    HW2 5430   0.618   2.917   6.273
 1563SOL     OW 5431   0.711   3.013   7.401
 1563SOL    HW1 5432   0.759   3.091   7.429
 1563SOL    HW2 5433   0.630   3.047   7.363
 1564SOL     OW 5434   0.359   3.265   6.646
 1564SOL    HW1 5435   0.270   3.266   6.611
 1564SOL    HW2 5436   0.406   3.327   6.591
 1565SOL     OW 5437   1.460   3.362   6.943
 1565SOL    HW1 5438   1.513   3.442   6.952
 1565SOL    HW2 5439   1.395   3.369   7.013
 1566SOL     OW 5440   0.452   2.262   7.076
 1566SOL    HW1 5441   0.526   2.202   7.079
 1566SOL    HW2 5442   0.375   2.206   7.088
 1567SOL     OW 5443   1.610   2.309   6.328
 1567SOL    HW1 5444   1.537   2.330   6.269
 1567SOL    HW2 5445   1.621   2.387   6.382
 1568SOL     OW 5446   0.234   3.576   6.063
 1568SOL    HW1 5447   0.264   3.646   6.121
 1568SOL    HW2 5448   0.297   3.574   5.992
 1569SOL     OW 5449   1.137   3.203   7.276
 1569SOL    HW1 5450   1.177   3.200   7.363
 1569SOL    HW2 5451   1.085   3.123   7.271
 1570SOL     OW 5452   0.222   3.308   6.126
 1570SOL    HW1 5453   0.218   3.403   6.119
 1570SOL    HW2 5454   0.151   3.286   6.187
 1571SOL     OW 5455   0.252   2.938   6.460
 1571SOL    HW1 5456   0.263   2.852   6.500
 1571SOL    HW2 5457   0.199   2.988   6.522
 1572SOL     OW 5458   0.611   3.652   7.017
 1572SOL    HW1 5459   0.527   3.635   7.061
 1572SOL    HW2 5460   0.632   3.743   7.041
 1573SOL     OW 5461   0.581   2.846   5.723
 1573SOL    HW1 5462   0.628   2.892   5.654
 1573SOL    HW2 5463   0.621   2.876   5.804
 1574SOL     OW 5464   1.596   1.987   7.053
 1574SOL    HW1 5465   1.608   2.068   7.004
 1574SOL    HW2 5466   1.579   2.015   7.143
 1575SOL     OW 5467   0.126   2.495   6.167
 1575SOL    HW1 5468   0.089   2.412   6.196
 1575SOL    HW2 5469   0.099   2.558   6.233
 1576SOL     OW 5470   1.843   3.619   5.919
 1576SOL    HW1 5471   1.909   3.591   5.982
 1576SOL    HW2 5472   1.864   3.710   5.900
 1577SOL     OW 5473   0.038   3.461   5.719
 1577SOL    HW1 5474   0.025   3.370   5.745
 1577SOL    HW2 5475   5.281   3.511   5.777
 1578SOL     OW 5476   1.689   2.781   6.228
 1578SOL    HW1 5477   1.770   2.736   6.204
 1578SOL    HW2 5478   1.665   2.831   6.151
 1579SOL     OW 5479   1.647   2.968   6.015
 1579SOL    HW1 5480   1.734   2.971   5.974
 1579SOL    HW2 5481   1.653   3.030   6.088
 1580SOL     OW 5482   0.133   2.610   7.171
 1580SOL    HW1 5483   0.228   2.623   7.169
 1580SOL    HW2 5484   0.097   2.696   7.189
 1581SOL     OW 5485   0.617   3.249   6.320
 1581SOL    HW1 5486   0.569   3.167   6.331
 1581SOL    HW2 5487   0.599   3.276   6.230
 1582SOL     OW 5488   1.288   3.099   7.008
 1582SOL    HW1 5489   1.320   3.032   6.949
 1582SOL    HW2 5490   1.346   3.094   7.084
 1583SOL     OW 5491   0.825   1.862   6.097
 1583SOL    HW1 5492   0.865   1.947   6.076
 1583SOL    HW2 5493   0.731   1.881   6.102
 1584SOL     OW 5494   0.174   2.804   6.866
 1584SOL    HW1 5495   0.264   2.774   6.858
 1584SOL    HW2 5496   0.135   2.786   6.780
 1585SOL     OW 5497   1.531   2.857   5.786
 1585SOL    HW1 5498   1.461   2.800   5.818
 1585SOL    HW2 5499   1.573   2.891   5.864
 1586SOL     OW 5500   1.185   3.671   7.209
 1586SOL    HW1 5501   1.193   3.730   7.135
 1586SOL    HW2 5502   1.203   3.584   7.173
 1587SOL     OW 5503   0.342   2.115   7.406
 1587SOL    HW1 5504   0.387   2.198   7.421
 1587SOL    HW2 5505   0.253   2.130   7.439
 1588SOL     OW 5506   1.467   3.281   6.536
 1588SOL    HW1 5507   1.399   3.297   6.602
 1588SOL    HW2 5508   1.454   3.190   6.510
 1589SOL     OW 5509   1.656   3.606   6.164
 1589SOL    HW1 5510   1.638   3.575   6.075
 1589SOL    HW2 5511   1.634   3.533   6.220
 1590SOL     OW 5512   0.595   2.582   5.854
 1590SOL    HW1 5513   0.602   2.663   5.804
 1590SOL    HW2 5514   0.530   2.600   5.922
 1591SOL     OW 5515   1.279   2.219   6.519
 1591SOL    HW1 5516   1.189   2.185   6.528
 1591SOL    HW2 5517   1.330   2.165   6.579
 1592SOL     OW 5518   1.580   3.534   5.896
 1592SOL    HW1 5519   1.671   3.562   5.888
 1592SOL    HW2 5520   1.552   3.517   5.806
 1593SOL     OW 5521   0.791   2.480   7.036
 1593SOL    HW1 5522   0.765   2.455   7.125
 1593SOL    HW2 5523   0.753   2.412   6.980
 1594SOL     OW 5524   1.394   2.336   7.263
 1594SOL    HW1 5525   1.396   2.380   7.348
 1594SOL    HW2 5526   1.453   2.261   7.274
 1595SOL     OW 5527   0.953   2.749   7.169
 1595SOL    HW1 5528   1.008   2.679   7.132
 1595SOL    HW2 5529   0.905   2.784   7.094
 1596SOL     OW 5530   0.992   2.274   6.823
 1596SOL    HW1 5531   0.905   2.293   6.857
 1596SOL    HW2 5532   0.976   2.229   6.740
 1597SOL     OW 5533   1.052   2.560   6.011
 1597SOL    HW1 5534   1.069   2.554   6.105
 1597SOL    HW2 5535   0.969   2.514   5.999
 1598SOL     OW 5536   0.070   2.650   6.396
 1598SOL    HW1 5537   0.150   2.655   6.448
 1598SOL    HW2 5538   0.067   2.733   6.347
 1599SOL     OW 5539   0.127   3.748   7.171
 1599SOL    HW1 5540   0.131   3.723   7.263
 1599SOL    HW2 5541   0.061   3.691   7.133
 1600SOL     OW 5542   0.896   2.212   5.780
 1600SOL    HW1 5543   0.935   2.275   5.720
 1600SOL    HW2 5544   0.911   2.127   5.739
 1601SOL     OW 5545   1.709   2.435   7.415
 1601SOL    HW1 5546   1.671   2.509   7.368
 1601SOL    HW2 5547   1.734   2.373   7.347
 1602SOL     OW 5548   1.378   3.004   6.126
 1602SOL    HW1 5549   1.457   2.992   6.074
 1602SOL    HW2 5550   1.325   3.066   6.076
 1603SOL     OW 5551   0.557   2.044   6.481
 1603SOL    HW1 5552   0.554   2.073   6.572
 1603SOL    HW2 5553   0.552   2.125   6.430
 1604SOL     OW 5554   1.003   3.305   6.057
 1604SOL    HW1 5555   0.969   3.379   6.007
 1604SOL    HW2 5556   0.983   3.326   6.148
 1605SOL     OW 5557   0.358   3.666   6.457
 1605SOL    HW1 5558   0.398   3.580   6.470
 1605SOL    HW2 5559   0.423   3.728   6.489
 1606SOL     OW 5560   1.798   2.917   6.456
 1606SOL    HW1 5561   1.745   2.899   6.378
 1606SOL    HW2 5562   1.735   2.923   6.527
 1607SOL     OW 5563   1.228   3.401   7.099
 1607SOL    HW1 5564   1.215   3.328   7.160
 1607SOL    HW2 5565   1.162   3.388   7.031
 1608SOL     OW 5566   0.314   2.814   5.835
 1608SOL    HW1 5567   0.396   2.837   5.790
 1608SOL    HW2 5568   0.292   2.727   5.800
 1609SOL     OW 5569   1.479   2.608   6.312
 1609SOL    HW1 5570   1.473   2.566   6.398
 1609SOL    HW2 5571   1.558   2.663   6.318
 1610SOL     OW 5572   0.465   3.126   7.324
 1610SOL    HW1 5573   0.439   3.132   7.232
 1610SOL    HW2 5574   0.383   3.126   7.372
 1611SOL     OW 5575   1.123   3.640   5.816
 1611SOL    HW1 5576   1.049   3.599   5.861
 1611SOL    HW2 5577   1.147   3.578   5.747
 1612SOL     OW 5578   0.205   2.140   7.084
 1612SOL    HW1 5579   0.127   2.191   7.065
 1612SOL    HW2 5580   0.172   2.059   7.123
 1613SOL     OW 5581   1.628   3.243   5.675
 1613SOL    HW1 5582   1.586   3.328   5.660
 1613SOL    HW2 5583   1.561   3.179   5.655
 1614SOL     OW 5584   0.471   3.597   5.905
 1614SOL    HW1 5585   0.515   3.654   5.967
 1614SOL    HW2 5586   0.541   3.564   5.848
 1615SOL     OW 5587   1.401   1.969   6.021
 1615SOL    HW1 5588   1.391   1.944   5.929
 1615SOL    HW2 5589   1.495   1.976   6.034
 1616SOL     OW 5590   0.278   3.663   6.795
 1616SOL    HW1 5591   0.306   3.584   6.840
 1616SOL    HW2 5592   0.224   3.631   6.723
 1617SOL     OW 5593   0.939   3.561   6.484
 1617SOL    HW1 5594   1.017   3.510   6.505
 1617SOL    HW2 5595   0.896   3.511   6.415
 1618SOL     OW 5596   0.386   2.557   6.064
 1618SOL    HW1 5597   0.415   2.467   6.074
 1618SOL    HW2 5598   0.293   2.555   6.085
 1619SOL     OW 5599   1.533   2.087   7.311
 1619SOL    HW1 5600   1.543   2.107   7.404
 1619SOL    HW2 5601   1.464   2.020   7.309
 1620SOL     OW 5602   0.637   1.983   5.690
 1620SOL    HW1 5603   0.704   1.916   5.703
 1620SOL    HW2 5604   0.587   1.952   5.614
 1621SOL     OW 5605   0.765   2.139   7.340
 1621SOL    HW1 5606   0.843   2.084   7.340
 1621SOL    HW2 5607   0.723   2.122   7.425
 1622SOL     OW 5608   0.877   3.384   6.779
 1622SOL    HW1 5609   0.860   3.347   6.693
 1622SOL    HW2 5610   0.947   3.330   6.816
 1623SOL     OW 5611   1.340   2.451   7.018
 1623SOL    HW1 5612   1.371   2.420   7.103
 1623SOL    HW2 5613   1.376   2.539   7.010
 1624SOL     OW 5614   0.817   3.254   6.528
 1624SOL    HW1 5615   0.902   3.243   6.485
 1624SOL    HW2 5616   0.754   3.258   6.457
 1625SOL     OW 5617   0.928   2.371   6.488
 1625SOL    HW1 5618   0.904   2.363   6.396
 1625SOL    HW2 5619   0.959   2.284   6.513
 1626SOL     OW 5620   0.561   1.923   6.080
 1626SOL    HW1 5621   0.487   1.923   6.140
 1626SOL    HW2 5622   0.550   2.002   6.027
 1627SOL     OW 5623   1.428   3.061   5.627
 1627SOL    HW1 5624   1.459   2.986   5.677
 1627SOL    HW2 5625   1.343   3.083   5.664
 1628SOL     OW 5626   0.306   1.909   5.764
 1628SOL    HW1 5627   0.368   1.973   5.729
 1628SOL    HW2 5628   0.361   1.845   5.810
 1629SOL     OW 5629   0.941   2.110   6.044
 1629SOL    HW1 5630   0.915   2.151   5.961
 1629SOL    HW2 5631   1.036   2.125   6.049
 1630SOL     OW 5632   1.080   2.544   7.045
 1630SOL    HW1 5633   1.012   2.476   7.049
 1630SOL    HW2 5634   1.162   2.495   7.038
 1631SOL     OW 5635   1.222   3.432   6.380
 1631SOL    HW1 5636   1.237   3.499   6.313
 1631SOL    HW2 5637   1.291   3.448   6.445
 1632SOL     OW 5638   0.468   3.014   6.315
 1632SOL    HW1 5639   0.400   2.992   6.378
 1632SOL    HW2 5640   0.428   2.996   6.230
 1633SOL     OW 5641   1.267   3.655   6.196
 1633SOL    HW1 5642   1.314   3.717   6.139
 1633SOL    HW2 5643   1.199   3.708   6.238
 1634SOL     OW 5644   1.023   2.401   5.611
 1634SOL    HW1 5645   0.980   2.485   5.591
 1634SOL    HW2 5646   1.089   2.423   5.676
 1635SOL     OW 5647   0.090   2.404   6.986
 1635SOL    HW1 5648   0.177   2.412   6.948
 1635SOL    HW2 5649   0.081   2.481   7.042
 1636SOL     OW 5650   0.560   2.090   6.754
 1636SOL    HW1 5651   0.598   2.011   6.793
 1636SOL    HW2 5652   0.468   2.089   6.781
 1637SOL     OW 5653   0.867   2.320   6.225
 1637SOL    HW1 5654   0.822   2.375   6.161
 1637SOL    HW2 5655   0.889   2.241   6.177
 1638SOL     OW 5656   1.016   1.916   6.336
 1638SOL    HW1 5657   0.958   1.908   6.261
 1638SOL    HW2 5658   0.994   1.840   6.391
 1639SOL     OW 5659   1.439   3.024   6.443
 1639SOL    HW1 5660   1.368   2.959   6.442
 1639SOL    HW2 5661   1.464   3.034   6.351
 1640SOL     OW 5662   1.466   2.469   6.559
 1640SOL    HW1 5663   1.413   2.389   6.562
 1640SOL    HW2 5664   1.524   2.462   6.635
 1641SOL     OW 5665   1.837   2.678   5.971
 1641SOL    HW1 5666   1.889   2.626   6.031
 1641SOL    HW2 5667   1.815   2.618   5.900
 1642SOL     OW 5668   0.491   3.282   5.742
 1642SOL    HW1 5669   0.416   3.254   5.794
 1642SOL    HW2 5670   0.478   3.239   5.657
 1643SOL     OW 5671   1.672   3.126   6.231
 1643SOL    HW1 5672   1.766   3.127   6.245
 1643SOL    HW2 5673   1.643   3.215   6.252
 1644SOL     OW 5674   1.394   2.434   5.657
 1644SOL    HW1 5675   1.334   2.414   5.728
 1644SOL    HW2 5676   1.479   2.405   5.688
 1645SOL     OW 5677   0.524   2.125   5.901
 1645SOL    HW1 5678   0.572   2.079   5.831
 1645SOL    HW2 5679   0.500   2.209   5.862
 1646SOL     OW 5680   1.751   3.103   7.156
 1646SOL    HW1 5681   1.838   3.065   7.147
 1646SOL    HW2 5682   1.766   3.192   7.186
 1647SOL     OW 5683   1.057   3.215   6.918
 1647SOL    HW1 5684   0.982   3.184   6.969
 1647SOL    HW2 5685   1.133   3.174   6.960
 1648SOL     OW 5686   1.609   3.488   7.240
 1648SOL    HW1 5687   1.602   3.522   7.150
 1648SOL    HW2 5688   1.691   3.439   7.241
 1649SOL     OW 5689   1.131   3.067   6.690
 1649SOL    HW1 5690   1.072   3.105   6.755
 1649SOL    HW2 5691   1.099   3.101   6.606
 1650SOL     OW 5692   1.625   2.958   6.663
 1650SOL    HW1 5693   1.620   3.021   6.735
 1650SOL    HW2 5694   1.548   2.977   6.610
 1651SOL     OW 5695   0.919   1.957   6.981
 1651SOL    HW1 5696   0.941   1.939   6.890
 1651SOL    HW2 5697   0.998   1.997   7.018
 1652SOL     OW 5698   0.984   2.976   7.311
 1652SOL    HW1 5699   0.892   2.993   7.330
 1652SOL    HW2 5700   0.983   2.898   7.255
 1653SOL     OW 5701   0.708   2.923   5.958
 1653SOL    HW1 5702   0.696   2.905   6.051
 1653SOL    HW2 5703   0.784   2.870   5.933
 1654SOL     OW 5704   0.421   2.683   6.839
 1654SOL    HW1 5705   0.490   2.690   6.905
 1654SOL    HW2 5706   0.387   2.594   6.849
 1655SOL     OW 5707   1.264   2.238   6.863
 1655SOL    HW1 5708   1.297   2.316   6.908
 1655SOL    HW2 5709   1.174   2.260   6.841
 1656SOL     OW 5710   0.103   3.485   6.952
 1656SOL    HW1 5711   0.082   3.491   6.858
 1656SOL    HW2 5712   0.190   3.444   6.954
 1657SOL     OW 5713   0.341   2.971   6.072
 1657SOL    HW1 5714   0.348   3.050   6.018
 1657SOL    HW2 5715   0.347   2.899   6.009
 1658SOL     OW 5716   0.553   2.396   6.445
 1658SOL    HW1 5717   0.567   2.455   6.371
 1658SOL    HW2 5718   0.618   2.422   6.509
 1659SOL     OW 5719   1.248   3.211   5.975
 1659SOL    HW1 5720   1.304   3.282   6.006
 1659SOL    HW2 5721   1.161   3.232   6.009
 1660SOL     OW 5722   1.284   3.321   6.734
 1660SOL    HW1 5723   1.340   3.324   6.811
 1660SOL    HW2 5724   1.228   3.244   6.748
 1661SOL     OW 5725   1.580   2.482   6.067
 1661SOL    HW1 5726   1.533   2.536   6.130
 1661SOL    HW2 5727   1.628   2.544   6.013
 1662SOL     OW 5728   0.352   3.382   6.895
 1662SOL    HW1 5729   0.341   3.338   6.811
 1662SOL    HW2 5730   0.446   3.399   6.901
 1663SOL     OW 5731   0.415   2.604   7.188
 1663SOL    HW1 5732   0.477   2.650   7.131
 1663SOL    HW2 5733   0.454   2.517   7.200
 1664SOL     OW 5734   1.604   2.641   7.269
 1664SOL    HW1 5735   1.518   2.683   7.263
 1664SOL    HW2 5736   1.656   2.683   7.201
 1665SOL     OW 5737   0.996   1.989   7.340
 1665SOL    HW1 5738   1.054   2.061   7.315
 1665SOL    HW2 5739   1.044   1.910   7.315
 1666SOL     OW 5740   0.498   1.901   7.334
 1666SOL    HW1 5741   0.454   1.848   7.268
 1666SOL    HW2 5742   0.441   1.977   7.347
 1667SOL     OW 5743   0.585   2.737   6.619
 1667SOL    HW1 5744   0.618   2.826   6.619
 1667SOL    HW2 5745   0.529   2.731   6.696
 1668SOL     OW 5746   1.355   2.720   6.613
 1668SOL    HW1 5747   1.271   2.709   6.569
 1668SOL    HW2 5748   1.397   2.635   6.605
 1669SOL     OW 5749   1.203   2.390   5.851
 1669SOL    HW1 5750   1.211   2.312   5.906
 1669SOL    HW2 5751   1.160   2.454   5.907
 1670SOL     OW 5752   0.301   2.065   6.834
 1670SOL    HW1 5753   0.268   2.088   6.920
 1670SOL    HW2 5754   0.290   1.970   6.828
 1671SOL     OW 5755   0.064   3.178   6.865
 1671SOL    HW1 5756   0.091   3.120   6.937
 1671SOL    HW2 5757   5.293   3.230   6.902
 1672SOL     OW 5758   0.723   2.492   6.642
 1672SOL    HW1 5759   0.799   2.478   6.586
 1672SOL    HW2 5760   0.695   2.582   6.622
 1673SOL     OW 5761   1.736   2.822   7.439
 1673SOL    HW1 5762   1.688   2.758   7.387
 1673SOL    HW2 5763   1.681   2.838   7.515
 1674SOL     OW 5764   0.328   1.924   6.219
 1674SOL    HW1 5765   0.307   2.014   6.246
 1674SOL    HW2 5766   0.333   1.875   6.302
 1675SOL     OW 5767   1.617   2.236   5.951
 1675SOL    HW1 5768   1.646   2.173   6.017
 1675SOL    HW2 5769   1.595   2.315   6.001
 1676SOL     OW 5770   1.028   2.621   6.545
 1676SOL    HW1 5771   1.023   2.638   6.639
 1676SOL    HW2 5772   1.002   2.529   6.536
 1677SOL     OW 5773   0.981   3.427   7.304
 1677SOL    HW1 5774   0.967   3.472   7.221
 1677SOL    HW2 5775   1.026   3.346   7.280
 1678SOL     OW 5776   1.854   3.366   7.191
 1678SOL    HW1 5777   1.873   3.393   7.101
 1678SOL    HW2 5778   1.935   3.382   7.239
 1679SOL     OW 5779   0.354   2.778   7.394
 1679SOL    HW1 5780   0.436   2.800   7.438
 1679SOL    HW2 5781   0.380   2.714   7.327
 1680SOL     OW 5782   1.528   2.134   5.713
 1680SOL    HW1 5783   1.463   2.069   5.740
 1680SOL    HW2 5784   1.561   2.170   5.795
 1681SOL     OW 5785   1.289   2.687   5.616
 1681SOL    HW1 5786   1.333   2.602   5.620
 1681SOL    HW2 5787   1.322   2.727   5.535
 1682SOL     OW 5788   1.067   3.198   6.441
 1682SOL    HW1 5789   1.071   3.126   6.378
 1682SOL    HW2 5790   1.127   3.264   6.406
 1683SOL     OW 5791   0.313   2.671   6.536
 1683SOL    HW1 5792   0.407   2.689   6.532
 1683SOL    HW2 5793   0.307   2.581   6.567
 1684SOL     OW 5794   0.334   2.389   6.602
 1684SOL    HW1 5795   0.299   2.301   6.588
 1684SOL    HW2 5796   0.409   2.394   6.543
 1685SOL     OW 5797   1.134   2.236   7.269
 1685SOL    HW1 5798   1.086   2.291   7.331
 1685SOL    HW2 5799   1.222   2.276   7.265
 1686SOL     OW 5800   1.161   2.063   7.056
 1686SOL    HW1 5801   1.150   2.125   7.128
 1686SOL    HW2 5802   1.202   2.114   6.986
 1687SOL     OW 5803   0.003   3.190   5.796
 1687SOL    HW1 5804   5.231   3.176   5.734
 1687SOL    HW2 5805   0.013   3.105   5.839
 1688SOL     OW 5806   0.095   3.643   6.539
 1688SOL    HW1 5807   0.061   3.575   6.481
 1688SOL    HW2 5808   0.182   3.663   6.504
 1689SOL     OW 5809   0.504   3.436   6.494
 1689SOL    HW1 5810   0.571   3.501   6.514
 1689SOL    HW2 5811   0.548   3.375   6.433
 1690SOL     OW 5812   0.979   2.652   6.811
 1690SOL    HW1 5813   1.037   2.631   6.885
 1690SOL    HW2 5814   0.895   2.614   6.836
 1691SOL     OW 5815   0.032   2.428   6.704
 1691SOL    HW1 5816   0.117   2.403   6.669
 1691SOL    HW2 5817   0.036   2.406   6.797
 1692SOL     OW 5818   0.173   2.375   7.303
 1692SOL    HW1 5819   0.234   2.333   7.242
 1692SOL    HW2 5820   0.147   2.456   7.259
 1693SOL     OW 5821   1.378   2.799   7.244
 1693SOL    HW1 5822   1.399   2.892   7.242
 1693SOL    HW2 5823   1.375   2.773   7.152
 1694SOL     OW 5824   0.816   2.431   5.949
 1694SOL    HW1 5825   0.822   2.357   5.888
 1694SOL    HW2 5826   0.743   2.483   5.917
 1695SOL     OW 5827   1.640   2.463   6.770
 1695SOL    HW1 5828   1.629   2.404   6.845
 1695SOL    HW2 5829   1.727   2.443   6.736
 1696SOL     OW 5830   0.255   3.417   7.320
 1696SOL    HW1 5831   0.234   3.479   7.390
 1696SOL    HW2 5832   0.251   3.331   7.363
 1697SOL     OW 5833   0.706   2.311   6.844
 1697SOL    HW1 5834   0.652   2.237   6.816
 1697SOL    HW2 5835   0.700   2.374   6.772
 1698SOL     OW 5836   0.927   3.541   7.054
 1698SOL    HW1 5837   0.900   3.505   6.970
 1698SOL    HW2 5838   0.920   3.635   7.043
 1699SOL     OW 5839   0.464   2.355   5.769
 1699SOL    HW1 5840   0.524   2.425   5.793
 1699SOL    HW2 5841   0.380   2.399   5.756
 1700SOL     OW 5842   0.147   2.999   7.056
 1700SOL    HW1 5843   0.144   2.951   7.139
 1700SOL    HW2 5844   0.158   2.931   6.990
 1701SOL     OW 5845   1.324   2.907   6.808
 1701SOL    HW1 5846   1.346   2.844   6.740
 1701SOL    HW2 5847   1.255   2.961   6.769
 1702SOL     OW 5848   1.312   2.719   5.891
 1702SOL    HW1 5849   1.237   2.688   5.942
 1702SOL    HW2 5850   1.287   2.705   5.800
 1703SOL     OW 5851   1.774   3.604   6.738
 1703SOL    HW1 5852   1.835   3.630   6.668
 1703SOL    HW2 5853   1.749   3.514   6.716
 1704SOL     OW 5854   1.241   3.595   6.696
 1704SOL    HW1 5855   1.323   3.617   6.653
 1704SOL    HW2 5856   1.248   3.502   6.715
 1705SOL     OW 5857   0.082   3.075   6.613
 1705SOL    HW1 5858   0.070   3.102   6.704
 1705SOL    HW2 5859   5.293   3.065   6.579
 1706SOL     OW 5860   0.677   3.528   7.317
 1706SOL    HW1 5861   0.622   3.606   7.312
 1706SOL    HW2 5862   0.744   3.542   7.251
 1707SOL     OW 5863   1.721   2.012   6.095
 1707SOL    HW1 5864   1.792   1.996   6.032
 1707SOL    HW2 5865   1.705   1.926   6.134
 1708SOL     OW 5866   1.391   3.430   6.073
 1708SOL    HW1 5867   1.451   3.463   6.006
 1708SOL    HW2 5868   1.342   3.507   6.101
 1709SOL     OW 5869   0.143   3.661   7.429
 1709SOL    HW1 5870   0.090   3.598   7.478
 1709SOL    HW2 5871   0.197   3.703   7.495
 1710SOL     OW 5872   1.277   2.789   6.257
 1710SOL    HW1 5873   1.351   2.728   6.266
 1710SOL    HW2 5874   1.311   2.861   6.204
 1711SOL     OW 5875   0.811   3.136   7.014
 1711SOL    HW1 5876   0.782   3.176   7.096
 1711SOL    HW2 5877   0.742   3.157   6.952
 1712SOL     OW 5878   0.672   3.484   5.741
 1712SOL    HW1 5879   0.683   3.497   5.646
 1712SOL    HW2 5880   0.617   3.406   5.747
 1713SOL     OW 5881   1.623   3.589   6.976
 1713SOL    HW1 5882   1.675   3.595   6.896
 1713SOL    HW2 5883   1.609   3.680   7.003
 1714SOL     OW 5884   1.839   2.032   6.553
 1714SOL    HW1 5885   1.867   1.945   6.526
 1714SOL    HW2 5886   1.752   2.043   6.512
 1715SOL     OW 5887   0.273   2.178   6.303
 1715SOL    HW1 5888   0.188   2.217   6.284
 1715SOL    HW2 5889   0.274   2.168   6.398
 1716SOL     OW 5890   1.208   3.466   5.618
 1716SOL    HW1 5891   1.197   3.375   5.644
 1716SOL    HW2 5892   1.142   3.479   5.549
 1717SOL     OW 5893   0.824   2.868   6.959
 1717SOL    HW1 5894   0.868   2.863   6.874
 1717SOL    HW2 5895   0.822   2.961   6.980
 1718SOL     OW 5896   0.915   2.772   5.876
 1718SOL    HW1 5897   0.976   2.805   5.810
 1718SOL    HW2 5898   0.964   2.704   5.922
 1719SOL     OW 5899   1.490   3.489   5.629
 1719SOL    HW1 5900   1.396   3.481   5.615
 1719SOL    HW2 5901   1.527   3.494   5.541
 1720SOL     OW 5902   0.367   3.166   7.079
 1720SOL    HW1 5903   0.359   3.240   7.019
 1720SOL    HW2 5904   0.291   3.111   7.060
 1721SOL     OW 5905   1.609   3.145   6.866
 1721SOL    HW1 5906   1.670   3.133   6.939
 1721SOL    HW2 5907   1.549   3.213   6.896
 1722SOL     OW 5908   1.055   2.970   6.293
 1722SOL    HW1 5909   0.984   2.919   6.332
 1722SOL    HW2 5910   1.119   2.905   6.264
 1723SOL     OW 5911   1.022   2.103   6.552
 1723SOL    HW1 5912   1.018   2.056   6.469
 1723SOL    HW2 5913   1.017   2.035   6.619
 1724SOL     OW 5914   0.602   3.349   6.066
 1724SOL    HW1 5915   0.649   3.301   5.998
 1724SOL    HW2 5916   0.534   3.396   6.019
 1725SOL     OW 5917   1.720   2.252   6.966
 1725SOL    HW1 5918   1.790   2.317   6.967
 1725SOL    HW2 5919   1.752   2.182   6.909
 1726SOL     OW 5920   0.261   3.210   5.880
 1726SOL    HW1 5921   0.169   3.211   5.857
 1726SOL    HW2 5922   0.265   3.248   5.968
 1727SOL     OW 5923   0.118   2.876   7.301
 1727SOL    HW1 5924   0.046   2.846   7.358
 1727SOL    HW2 5925   0.197   2.846   7.345
 1728SOL     OW 5926   0.675   2.058   7.085
 1728SOL    HW1 5927   0.759   2.037   7.045
 1728SOL    HW2 5928   0.697   2.089   7.173
 1729SOL     OW 5929   0.085   2.207   5.626
 1729SOL    HW1 5930   0.004   2.162   5.604
 1729SOL    HW2 5931   0.100   2.268   5.553
 1730SOL     OW 5932   1.429   2.720   6.985
 1730SOL    HW1 5933   1.379   2.781   6.931
 1730SOL    HW2 5934   1.517   2.722   6.949
 1731SOL     OW 5935   0.058   1.995   5.832
 1731SOL    HW1 5936   0.056   2.089   5.815
 1731SOL    HW2 5937   0.146   1.968   5.806
 1732SOL     OW 5938   1.179   3.200   5.703
 1732SOL    HW1 5939   1.088   3.169   5.706
 1732SOL    HW2 5940   1.206   3.200   5.795
 1733SOL     OW 5941   0.620   2.693   7.022
 1733SOL    HW1 5942   0.677   2.768   7.006
 1733SOL    HW2 5943   0.680   2.619   7.030
 1734SOL     OW 5944   1.483   3.641   6.567
 1734SOL    HW1 5945   1.506   3.702   6.497
 1734SOL    HW2 5946   1.567   3.619   6.608
 1735SOL     OW 5947   0.717   2.424   7.290
 1735SOL    HW1 5948   0.760   2.486   7.349
 1735SOL    HW2 5949   0.742   2.338   7.322
 1736SOL     OW 5950   1.472   3.059   7.217
 1736SOL    HW1 5951   1.460   3.074   7.311
 1736SOL    HW2 5952   1.565   3.077   7.202
 1737SOL     OW 5953   0.375   3.606   7.151
 1737SOL    HW1 5954   0.292   3.651   7.134
 1737SOL    HW2 5955   0.349   3.525   7.196
 1738SOL     OW 5956   1.668   2.743   6.841
 1738SOL    HW1 5957   1.661   2.658   6.798
 1738SOL    HW2 5958   1.657   2.806   6.771
 1739SOL     OW 5959   1.216   2.181   6.044
 1739SOL    HW1 5960   1.279   2.109   6.036
 1739SOL    HW2 5961   1.245   2.230   6.120
 1740SOL     OW 5962   0.589   2.598   6.256
 1740SOL    HW1 5963   0.628   2.684   6.241
 1740SOL    HW2 5964   0.520   2.591   6.190
 1741SOL     OW 5965   1.760   2.225   7.237
 1741SOL    HW1 5966   1.742   2.241   7.144
 1741SOL    HW2 5967   1.689   2.168   7.266
 1742SOL     OW 5968   1.753   2.791   7.097
 1742SOL    HW1 5969   1.744   2.884   7.115
 1742SOL    HW2 5970   1.732   2.782   7.004
 1743SOL     OW 5971   0.862   3.228   5.623
 1743SOL    HW1 5972   0.825   3.257   5.706
 1743SOL    HW2 5973   0.880   3.309   5.575
 1744SOL     OW 5974   0.664   3.654   6.527
 1744SOL    HW1 5975   0.644   3.745   6.505
 1744SOL    HW2 5976   0.760   3.649   6.521
 1745SOL     OW 5977   0.868   2.830   6.440
 1745SOL    HW1 5978   0.918   2.758   6.479
 1745SOL    HW2 5979   0.832   2.877   6.514
 1746SOL     OW 5980   1.077   2.849   5.674
 1746SOL    HW1 5981   1.057   2.901   5.596
 1746SOL    HW2 5982   1.152   2.796   5.649
 1747SOL     OW 5983   1.852   3.416   6.429
 1747SOL    HW1 5984   1.773   3.403   6.377
 1747SOL    HW2 5985   1.846   3.349   6.498
 1748SOL     OW 5986   0.226   3.165   7.447
 1748SOL    HW1 5987   0.157   3.105   7.420
 1748SOL    HW2 5988   0.213   3.177   7.541
 1749SOL     OW 5989   0.089   3.079   6.241
 1749SOL    HW1 5990   0.104   3.048   6.330
 1749SOL    HW2 5991   0.176   3.082   6.201
 1750SOL     OW 5992   0.682   3.265   7.216
 1750SOL    HW1 5993   0.601   3.224   7.246
 1750SOL    HW2 5994   0.679   3.354   7.251
 1751SOL     OW 5995   1.814   2.046   6.824
 1751SOL    HW1 5996   1.821   1.951   6.838
 1751SOL    HW2 5997   1.821   2.057   6.729
 1752SOL     OW 5998   0.436   2.298   6.110
 1752SOL    HW1 5999   0.464   2.225   6.054
 1752SOL    HW2 6000   0.388   2.256   6.181
 1753SOL     OW 6001   1.699   3.351   6.681
 1753SOL    HW1 6002   1.619   3.328   6.634
 1753SOL    HW2 6003   1.709   3.281   6.745
 1754SOL     OW 6004   0.338   2.423   6.878
 1754SOL    HW1 6005   0.392   2.364   6.931
 1754SOL    HW2 6006   0.352   2.393   6.788
 1755SOL     OW 6007   0.830   3.439   6.263
 1755SOL    HW1 6008   0.813   3.499   6.190
 1755SOL    HW2 6009   0.754   3.381   6.264
 1756SOL     OW 6010   1.431   2.089   6.704
 1756SOL    HW1 6011   1.453   2.007   6.749
 1756SOL    HW2 6012   1.380   2.138   6.768
 1757SOL     OW 6013   1.009   1.880   6.726
 1757SOL    HW1 6014   0.955   1.813   6.685
 1757SOL    HW2 6015   1.097   1.841   6.728
 1758SOL     OW 6016   0.772   3.195   5.904
 1758SOL    HW1 6017   0.744   3.104   5.910
 1758SOL    HW2 6018   0.854   3.198   5.953
 1759SOL     OW 6019   0.623   3.417   6.874
 1759SOL    HW1 6020   0.624   3.499   6.923
 1759SOL    HW2 6021   0.710   3.412   6.835
 1760SOL     OW 6022   1.353   1.915   5.753
 1760SOL    HW1 6023   1.383   1.849   5.691
 1760SOL    HW2 6024   1.265   1.886   5.778
 1761SOL     OW 6025   1.296   2.323   6.266
 1761SOL    HW1 6026   1.243   2.403   6.272
 1761SOL    HW2 6027   1.291   2.285   6.353
 1762SOL     OW 6028   1.585   2.062   6.465
 1762SOL    HW1 6029   1.526   2.084   6.537
 1762SOL    HW2 6030   1.584   2.140   6.409
 1763SOL     OW 6031   0.049   2.930   5.876
 1763SOL    HW1 6032   0.138   2.896   5.865
 1763SOL    HW2 6033   5.299   2.856   5.912
 1764SOL     OW 6034   0.887   3.516   5.926
 1764SOL    HW1 6035   0.813   3.501   5.867
 1764SOL    HW2 6036   0.860   3.591   5.980
 1765SOL     OW 6037   0.229   2.490   7.568
 1765SOL    HW1 6038   0.157   2.446   7.613
 1765SOL    HW2 6039   0.218   2.464   7.476
 1766SOL     OW 6040   1.772   2.456   7.678
 1766SOL    HW1 6041   1.750   2.453   7.585
 1766SOL    HW2 6042   1.727   2.380   7.716
 1767SOL     OW 6043   0.233   3.563   7.922
 1767SOL    HW1 6044   0.264   3.612   7.999
 1767SOL    HW2 6045   0.302   3.575   7.857
 1768SOL     OW 6046   0.215   3.298   7.992
 1768SOL    HW1 6047   0.212   3.392   7.979
 1768SOL    HW2 6048   0.153   3.282   8.064
 1769SOL     OW 6049   0.581   2.847   7.582
 1769SOL    HW1 6050   0.627   2.894   7.512
 1769SOL    HW2 6051   0.622   2.878   7.663
 1770SOL     OW 6052   1.837   3.620   7.796
 1770SOL    HW1 6053   1.909   3.591   7.852
 1770SOL    HW2 6054   1.862   3.709   7.770
 1771SOL     OW 6055   0.036   3.465   7.584
 1771SOL    HW1 6056   0.029   3.372   7.606
 1771SOL    HW2 6057   5.274   3.508   7.644
 1772SOL     OW 6058   1.673   2.726   8.038
 1772SOL    HW1 6059   1.756   2.733   0.006
 1772SOL    HW2 6060   1.667   2.807   7.989
 1773SOL     OW 6061   1.656   2.959   7.877
 1773SOL    HW1 6062   1.744   2.985   7.851
 1773SOL    HW2 6063   1.626   3.030   7.934
 1774SOL     OW 6064   0.799   1.858   7.937
 1774SOL    HW1 6065   0.849   1.937   7.920
 1774SOL    HW2 6066   0.708   1.888   7.947
 1775SOL     OW 6067   1.533   2.858   7.650
 1775SOL    HW1 6068   1.467   2.798   7.685
 1775SOL    HW2 6069   1.578   2.891   7.728
 1776SOL     OW 6070   0.588   2.585   7.708
 1776SOL    HW1 6071   0.594   2.668   7.660
 1776SOL    HW2 6072   0.534   2.606   7.785
 1777SOL     OW 6073   1.574   3.535   7.757
 1777SOL    HW1 6074   1.665   3.561   7.766
 1777SOL    HW2 6075   1.562   3.521   7.663
 1778SOL     OW 6076   0.057   2.689   0.197
 1778SOL    HW1 6077   0.119   2.620   0.173
 1778SOL    HW2 6078   0.035   2.732   0.114
 1779SOL     OW 6079   0.885   2.211   7.637
 1779SOL    HW1 6080   0.927   2.271   7.576
 1779SOL    HW2 6081   0.920   2.125   7.614
 1780SOL     OW 6082   0.316   2.809   7.694
 1780SOL    HW1 6083   0.396   2.837   7.650
 1780SOL    HW2 6084   0.294   2.725   7.653
 1781SOL     OW 6085   1.125   3.638   7.681
 1781SOL    HW1 6086   1.048   3.599   7.722
 1781SOL    HW2 6087   1.150   3.576   7.612
 1782SOL     OW 6088   1.628   3.243   7.534
 1782SOL    HW1 6089   1.586   3.328   7.520
 1782SOL    HW2 6090   1.560   3.179   7.516
 1783SOL     OW 6091   0.470   3.600   7.769
 1783SOL    HW1 6092   0.517   3.653   7.834
 1783SOL    HW2 6093   0.539   3.564   7.713
 1784SOL     OW 6094   1.418   1.995   7.864
 1784SOL    HW1 6095   1.407   1.960   7.776
 1784SOL    HW2 6096   1.512   1.995   7.878
 1785SOL     OW 6097   0.378   2.562   7.924
 1785SOL    HW1 6098   0.395   2.468   7.930
 1785SOL    HW2 6099   0.283   2.570   7.930
 1786SOL     OW 6100   0.630   1.979   7.559
 1786SOL    HW1 6101   0.704   1.919   7.569
 1786SOL    HW2 6102   0.586   1.950   7.479
 1787SOL     OW 6103   0.525   1.940   7.961
 1787SOL    HW1 6104   0.437   1.945   7.999
 1787SOL    HW2 6105   0.528   2.009   7.895
 1788SOL     OW 6106   1.428   3.060   7.489
 1788SOL    HW1 6107   1.458   2.987   7.542
 1788SOL    HW2 6108   1.344   3.084   7.527
 1789SOL     OW 6109   0.307   1.904   7.619
 1789SOL    HW1 6110   0.368   1.969   7.582
 1789SOL    HW2 6111   0.363   1.843   7.667
 1790SOL     OW 6112   0.944   2.087   7.909
 1790SOL    HW1 6113   0.901   2.152   7.854
 1790SOL    HW2 6114   1.035   2.117   7.914
 1791SOL     OW 6115   0.447   3.023   0.087
 1791SOL    HW1 6116   0.376   3.047   0.147
 1791SOL    HW2 6117   0.403   3.005   0.004
 1792SOL     OW 6118   1.292   3.675   8.013
 1792SOL    HW1 6119   1.328   3.744   7.958
 1792SOL    HW2 6120   1.205   3.706   8.037
 1793SOL     OW 6121   1.024   2.401   7.469
 1793SOL    HW1 6122   0.979   2.484   7.452
 1793SOL    HW2 6123   1.084   2.420   7.541
 1794SOL     OW 6124   1.863   2.681   7.800
 1794SOL    HW1 6125   1.879   2.650   7.889
 1794SOL    HW2 6126   1.832   2.604   7.753
 1795SOL     OW 6127   0.489   3.280   7.602
 1795SOL    HW1 6128   0.414   3.252   7.656
 1795SOL    HW2 6129   0.475   3.238   7.517
 1796SOL     OW 6130   1.394   2.434   7.519
 1796SOL    HW1 6131   1.332   2.413   7.588
 1796SOL    HW2 6132   1.478   2.403   7.552
 1797SOL     OW 6133   0.526   2.128   7.769
 1797SOL    HW1 6134   0.572   2.079   7.700
 1797SOL    HW2 6135   0.501   2.210   7.727
 1798SOL     OW 6136   0.711   2.924   7.813
 1798SOL    HW1 6137   0.691   2.911   7.906
 1798SOL    HW2 6138   0.789   2.871   7.797
 1799SOL     OW 6139   0.342   2.959   7.925
 1799SOL    HW1 6140   0.340   3.043   7.879
 1799SOL    HW2 6141   0.344   2.894   7.855
 1800SOL     OW 6142   1.220   3.219   7.821
 1800SOL    HW1 6143   1.281   3.290   7.843
 1800SOL    HW2 6144   1.191   3.185   7.906
 1801SOL     OW 6145   1.589   2.488   7.919
 1801SOL    HW1 6146   1.577   2.546   7.995
 1801SOL    HW2 6147   1.629   2.544   7.853
 1802SOL     OW 6148   1.202   2.387   7.712
 1802SOL    HW1 6149   1.202   2.305   7.762
 1802SOL    HW2 6150   1.185   2.455   7.777
 1803SOL     OW 6151   1.619   2.243   7.811
 1803SOL    HW1 6152   1.641   2.176   7.877
 1803SOL    HW2 6153   1.595   2.320   7.862
 1804SOL     OW 6154   1.530   2.136   7.574
 1804SOL    HW1 6155   1.463   2.071   7.600
 1804SOL    HW2 6156   1.561   2.172   7.657
 1805SOL     OW 6157   1.292   2.689   7.479
 1805SOL    HW1 6158   1.334   2.603   7.482
 1805SOL    HW2 6159   1.323   2.729   7.398
 1806SOL     OW 6160   0.005   3.194   7.655
 1806SOL    HW1 6161   5.225   3.190   7.603
 1806SOL    HW2 6162   0.014   3.106   7.692
 1807SOL     OW 6163   0.843   2.469   7.756
 1807SOL    HW1 6164   0.837   2.377   7.732
 1807SOL    HW2 6165   0.752   2.499   7.759
 1808SOL     OW 6166   0.460   2.355   7.637
 1808SOL    HW1 6167   0.522   2.426   7.655
 1808SOL    HW2 6168   0.377   2.399   7.621
 1809SOL     OW 6169   1.311   2.712   7.753
 1809SOL    HW1 6170   1.225   2.728   7.792
 1809SOL    HW2 6171   1.294   2.703   7.659
 1810SOL     OW 6172   1.710   2.011   7.943
 1810SOL    HW1 6173   1.788   2.004   7.887
 1810SOL    HW2 6174   1.716   1.934   8.000
 1811SOL     OW 6175   1.362   3.440   7.894
 1811SOL    HW1 6176   1.437   3.460   7.839
 1811SOL    HW2 6177   1.331   3.525   7.925
 1812SOL     OW 6178   0.668   3.483   7.603
 1812SOL    HW1 6179   0.680   3.496   7.509
 1812SOL    HW2 6180   0.614   3.404   7.609
 1813SOL     OW 6181   1.210   3.468   7.478
 1813SOL    HW1 6182   1.198   3.377   7.506
 1813SOL    HW2 6183   1.143   3.481   7.411
 1814SOL     OW 6184   0.923   2.768   7.755
 1814SOL    HW1 6185   0.978   2.793   7.680
 1814SOL    HW2 6186   0.918   2.673   7.751
 1815SOL     OW 6187   1.492   3.490   7.489
 1815SOL    HW1 6188   1.398   3.481   7.476
 1815SOL    HW2 6189   1.528   3.494   7.400
 1816SOL     OW 6190   0.610   3.371   7.935
 1816SOL    HW1 6191   0.655   3.311   7.875
 1816SOL    HW2 6192   0.534   3.401   7.885
 1817SOL     OW 6193   0.261   3.208   7.744
 1817SOL    HW1 6194   0.169   3.212   7.719
 1817SOL    HW2 6195   0.263   3.243   7.833
 1818SOL     OW 6196   0.084   2.198   7.487
 1818SOL    HW1 6197   5.299   2.161   7.465
 1818SOL    HW2 6198   0.101   2.263   7.419
 1819SOL     OW 6199   0.084   2.001   7.740
 1819SOL    HW1 6200   0.069   2.086   7.699
 1819SOL    HW2 6201   0.155   1.962   7.689
 1820SOL     OW 6202   1.175   3.199   7.556
 1820SOL    HW1 6203   1.082   3.175   7.554
 1820SOL    HW2 6204   1.196   3.206   7.649
 1821SOL     OW 6205   1.214   2.180   7.904
 1821SOL    HW1 6206   1.288   2.121   7.892
 1821SOL    HW2 6207   1.235   2.228   7.984
 1822SOL     OW 6208   0.626   2.605   8.043
 1822SOL    HW1 6209   0.628   2.679   0.024
 1822SOL    HW2 6210   0.534   2.599   8.017
 1823SOL     OW 6211   0.864   3.229   7.486
 1823SOL    HW1 6212   0.825   3.259   7.568
 1823SOL    HW2 6213   0.881   3.309   7.437
 1824SOL     OW 6214   1.070   2.838   7.538
 1824SOL    HW1 6215   1.052   2.897   7.464
 1824SOL    HW2 6216   1.149   2.790   7.511
 1825SOL     OW 6217   0.391   2.295   7.982
 1825SOL    HW1 6218   0.434   2.234   7.921
 1825SOL    HW2 6219   0.439   2.284   8.064
 1826SOL     OW 6220   0.765   3.199   7.765
 1826SOL    HW1 6221   0.736   3.107   7.766
 1826SOL    HW2 6222   0.847   3.198   7.814
 1827SOL     OW 6223   1.354   1.914   7.610
 1827SOL    HW1 6224   1.384   1.845   7.552
 1827SOL    HW2 6225   1.267   1.886   7.638
 1828SOL     OW 6226   0.049   2.931   7.720
 1828SOL    HW1 6227   0.138   2.896   7.718
 1828SOL    HW2 6228   0.001   2.872   7.779
 1829SOL     OW 6229   0.894   3.516   7.778
 1829SOL    HW1 6230   0.818   3.491   7.726
 1829SOL    HW2 6231   0.860   3.577   7.843
 1830SOL     OW 6232   0.223   4.343   0.117
 1830SOL    HW1 6233   0.155   4.296   0.166
 1830SOL    HW2 6234   0.229   4.296   0.034
 1831SOL     OW 6235   0.243   3.998   0.987
 1831SOL    HW1 6236   0.257   3.965   1.076
 1831SOL    HW2 6237   0.158   3.963   0.961
 1832SOL     OW 6238   5.294   4.122   0.648
 1832SOL    HW1 6239   5.203   4.150   0.657
 1832SOL    HW2 6240   5.289   4.029   0.629
 1833SOL     OW 6241   0.577   5.003   1.187
 1833SOL    HW1 6242   0.497   5.007   1.134
 1833SOL    HW2 6243   0.595   5.094   1.210
 1834SOL     OW 6244   1.558   5.234   0.688
 1834SOL    HW1 6245   1.536   5.230   0.781
 1834SOL    HW2 6246   1.479   5.269   0.647
 1835SOL     OW 6247   1.131   4.422   0.699
 1835SOL    HW1 6248   1.180   4.503   0.686
 1835SOL    HW2 6249   1.084   4.435   0.781
 1836SOL     OW 6250   1.771   4.323   0.232
 1836SOL    HW1 6251   1.730   4.327   0.146
 1836SOL    HW2 6252   1.731   4.247   0.275
 1837SOL     OW 6253   0.756   4.865   1.038
 1837SOL    HW1 6254   0.691   4.896   1.101
 1837SOL    HW2 6255   0.785   4.944   0.993
 1838SOL     OW 6256   0.871   4.494   1.823
 1838SOL    HW1 6257   0.858   4.566   1.885
 1838SOL    HW2 6258   0.893   4.538   1.741
 1839SOL     OW 6259   0.683   4.721   0.651
 1839SOL    HW1 6260   0.750   4.714   0.719
 1839SOL    HW2 6261   0.617   4.779   0.689
 1840SOL     OW 6262   0.708   4.871   1.815
 1840SOL    HW1 6263   0.757   4.950   1.838
 1840SOL    HW2 6264   0.626   4.903   1.777
 1841SOL     OW 6265   0.378   5.147   1.053
 1841SOL    HW1 6266   0.284   5.159   1.041
 1841SOL    HW2 6267   0.418   5.193   0.980
 1842SOL     OW 6268   1.454   5.221   1.348
 1842SOL    HW1 6269   1.509   5.293   1.379
 1842SOL    HW2 6270   1.387   5.213   1.416
 1843SOL     OW 6271   0.452   4.123   1.490
 1843SOL    HW1 6272   0.526   4.063   1.493
 1843SOL    HW2 6273   0.375   4.068   1.501
 1844SOL     OW 6274   1.610   4.170   0.742
 1844SOL    HW1 6275   1.535   4.191   0.686
 1844SOL    HW2 6276   1.621   4.247   0.797
 1845SOL     OW 6277   1.133   5.073   1.703
 1845SOL    HW1 6278   1.162   5.075   1.794
 1845SOL    HW2 6279   1.080   4.994   1.696
 1846SOL     OW 6280   0.209   5.151   0.532
 1846SOL    HW1 6281   0.254   5.228   0.566
 1846SOL    HW2 6282   0.126   5.148   0.580
 1847SOL     OW 6283   0.256   4.799   0.876
 1847SOL    HW1 6284   0.264   4.710   0.911
 1847SOL    HW2 6285   0.197   4.843   0.938
 1848SOL     OW 6286   0.617   4.682   0.140
 1848SOL    HW1 6287   0.573   4.761   0.109
 1848SOL    HW2 6288   0.672   4.712   0.212
 1849SOL     OW 6289   1.596   3.849   1.467
 1849SOL    HW1 6290   1.609   3.930   1.417
 1849SOL    HW2 6291   1.580   3.878   1.556
 1850SOL     OW 6292   0.133   4.352   0.582
 1850SOL    HW1 6293   0.086   4.274   0.610
 1850SOL    HW2 6294   0.101   4.422   0.639
 1851SOL     OW 6295   0.014   5.291   0.070
 1851SOL    HW1 6296   0.020   5.208   0.116
 1851SOL    HW2 6297   0.043   0.056   0.134
 1852SOL     OW 6298   1.687   4.642   0.645
 1852SOL    HW1 6299   1.769   4.598   0.622
 1852SOL    HW2 6300   1.665   4.694   0.568
 1853SOL     OW 6301   1.647   4.828   0.434
 1853SOL    HW1 6302   1.729   4.838   0.386
 1853SOL    HW2 6303   1.654   4.890   0.506
 1854SOL     OW 6304   0.133   4.472   1.584
 1854SOL    HW1 6305   0.228   4.487   1.583
 1854SOL    HW2 6306   0.095   4.559   1.598
 1855SOL     OW 6307   0.627   5.099   0.739
 1855SOL    HW1 6308   0.571   5.021   0.735
 1855SOL    HW2 6309   0.604   5.149   0.660
 1856SOL     OW 6310   1.288   4.952   1.426
 1856SOL    HW1 6311   1.321   4.887   1.364
 1856SOL    HW2 6312   1.349   4.950   1.499
 1857SOL     OW 6313   0.826   3.728   0.515
 1857SOL    HW1 6314   0.865   3.812   0.490
 1857SOL    HW2 6315   0.732   3.745   0.518
 1858SOL     OW 6316   0.172   4.663   1.283
 1858SOL    HW1 6317   0.262   4.632   1.271
 1858SOL    HW2 6318   0.135   4.664   1.196
 1859SOL     OW 6319   1.506   4.737   0.212
 1859SOL    HW1 6320   1.445   4.671   0.245
 1859SOL    HW2 6321   1.560   4.760   0.287
 1860SOL     OW 6322   0.341   3.978   1.822
 1860SOL    HW1 6323   0.386   4.061   1.836
 1860SOL    HW2 6324   0.252   3.993   1.854
 1861SOL     OW 6325   1.479   5.147   0.962
 1861SOL    HW1 6326   1.406   5.160   1.022
 1861SOL    HW2 6327   1.467   5.059   0.927
 1862SOL     OW 6328   0.597   4.435   0.281
 1862SOL    HW1 6329   0.616   4.517   0.236
 1862SOL    HW2 6330   0.534   4.460   0.350
 1863SOL     OW 6331   1.279   4.080   0.933
 1863SOL    HW1 6332   1.189   4.047   0.941
 1863SOL    HW2 6333   1.330   4.027   0.993
 1864SOL     OW 6334   0.792   4.341   1.450
 1864SOL    HW1 6335   0.765   4.317   1.539
 1864SOL    HW2 6336   0.753   4.274   1.394
 1865SOL     OW 6337   1.393   4.198   1.678
 1865SOL    HW1 6338   1.396   4.243   1.762
 1865SOL    HW2 6339   1.453   4.124   1.687
 1866SOL     OW 6340   0.953   4.611   1.584
 1866SOL    HW1 6341   1.008   4.541   1.548
 1866SOL    HW2 6342   0.905   4.645   1.509
 1867SOL     OW 6343   0.992   4.136   1.237
 1867SOL    HW1 6344   0.905   4.155   1.272
 1867SOL    HW2 6345   0.976   4.091   1.155
 1868SOL     OW 6346   1.054   4.423   0.427
 1868SOL    HW1 6347   1.070   4.416   0.522
 1868SOL    HW2 6348   0.971   4.377   0.414
 1869SOL     OW 6349   0.064   4.513   0.818
 1869SOL    HW1 6350   0.148   4.516   0.864
 1869SOL    HW2 6351   0.068   4.587   0.756
 1870SOL     OW 6352   0.886   4.081   0.203
 1870SOL    HW1 6353   0.931   4.131   0.135
 1870SOL    HW2 6354   0.886   3.991   0.170
 1871SOL     OW 6355   1.707   4.297   1.828
 1871SOL    HW1 6356   1.670   4.370   1.780
 1871SOL    HW2 6357   1.735   4.235   1.761
 1872SOL     OW 6358   1.377   4.863   0.539
 1872SOL    HW1 6359   1.458   4.851   0.489
 1872SOL    HW2 6360   1.327   4.926   0.486
 1873SOL     OW 6361   0.557   3.907   0.894
 1873SOL    HW1 6362   0.554   3.935   0.986
 1873SOL    HW2 6363   0.553   3.988   0.844
 1874SOL     OW 6364   1.017   5.160   0.472
 1874SOL    HW1 6365   0.944   5.223   0.474
 1874SOL    HW2 6366   1.039   5.146   0.564
 1875SOL     OW 6367   1.801   4.779   0.867
 1875SOL    HW1 6368   1.744   4.760   0.792
 1875SOL    HW2 6369   1.741   4.787   0.941
 1876SOL     OW 6370   1.251   5.240   1.526
 1876SOL    HW1 6371   1.215   5.173   1.585
 1876SOL    HW2 6372   1.178   5.263   1.469
 1877SOL     OW 6373   0.330   4.674   0.252
 1877SOL    HW1 6374   0.412   4.682   0.203
 1877SOL    HW2 6375   0.313   4.579   0.254
 1878SOL     OW 6376   1.479   4.468   0.725
 1878SOL    HW1 6377   1.473   4.427   0.812
 1878SOL    HW2 6378   1.557   4.524   0.731
 1879SOL     OW 6379   0.463   4.990   1.744
 1879SOL    HW1 6380   0.438   4.993   1.652
 1879SOL    HW2 6381   0.380   4.989   1.792
 1880SOL     OW 6382   1.160   0.156   0.235
 1880SOL    HW1 6383   1.079   0.177   0.281
 1880SOL    HW2 6384   1.133   0.133   0.146
 1881SOL     OW 6385   0.206   4.002   1.497
 1881SOL    HW1 6386   0.128   4.054   1.480
 1881SOL    HW2 6387   0.172   3.921   1.537
 1882SOL     OW 6388   1.630   5.094   0.077
 1882SOL    HW1 6389   1.591   5.179   0.096
 1882SOL    HW2 6390   1.556   5.036   0.061
 1883SOL     OW 6391   1.408   3.835   0.447
 1883SOL    HW1 6392   1.400   3.814   0.354
 1883SOL    HW2 6393   1.502   3.842   0.462
 1884SOL     OW 6394   0.382   4.422   0.475
 1884SOL    HW1 6395   0.413   4.332   0.485
 1884SOL    HW2 6396   0.290   4.420   0.501
 1885SOL     OW 6397   1.533   3.949   1.725
 1885SOL    HW1 6398   1.543   3.969   1.818
 1885SOL    HW2 6399   1.464   3.883   1.722
 1886SOL     OW 6400   0.629   3.833   0.138
 1886SOL    HW1 6401   0.724   3.821   0.142
 1886SOL    HW2 6402   0.606   3.815   0.047
 1887SOL     OW 6403   0.766   4.003   1.755
 1887SOL    HW1 6404   0.843   3.947   1.754
 1887SOL    HW2 6405   0.718   3.976   1.833
 1888SOL     OW 6406   1.340   4.313   1.432
 1888SOL    HW1 6407   1.371   4.282   1.517
 1888SOL    HW2 6408   1.376   4.401   1.424
 1889SOL     OW 6409   0.816   5.117   0.939
 1889SOL    HW1 6410   0.896   5.104   0.888
 1889SOL    HW2 6411   0.747   5.124   0.872
 1890SOL     OW 6412   0.929   4.234   0.901
 1890SOL    HW1 6413   0.904   4.225   0.809
 1890SOL    HW2 6414   0.958   4.146   0.926
 1891SOL     OW 6415   0.561   3.786   0.499
 1891SOL    HW1 6416   0.486   3.785   0.558
 1891SOL    HW2 6417   0.550   3.864   0.446
 1892SOL     OW 6418   1.424   4.926   0.034
 1892SOL    HW1 6419   1.452   4.853   0.089
 1892SOL    HW2 6420   1.338   4.951   0.068
 1893SOL     OW 6421   0.315   3.773   0.178
 1893SOL    HW1 6422   0.381   3.842   0.184
 1893SOL    HW2 6423   0.356   3.697   0.220
 1894SOL     OW 6424   0.943   3.973   0.457
 1894SOL    HW1 6425   0.915   4.013   0.375
 1894SOL    HW2 6426   1.037   3.989   0.462
 1895SOL     OW 6427   1.080   4.406   1.459
 1895SOL    HW1 6428   1.012   4.339   1.463
 1895SOL    HW2 6429   1.162   4.357   1.452
 1896SOL     OW 6430   1.263   5.265   0.779
 1896SOL    HW1 6431   1.218   0.044   0.750
 1896SOL    HW2 6432   1.308   5.291   0.859
 1897SOL     OW 6433   0.467   4.875   0.726
 1897SOL    HW1 6434   0.398   4.854   0.790
 1897SOL    HW2 6435   0.426   4.857   0.641
 1898SOL     OW 6436   1.031   4.249   0.033
 1898SOL    HW1 6437   0.991   4.331   0.004
 1898SOL    HW2 6438   1.094   4.275   0.100
 1899SOL     OW 6439   0.090   4.267   1.399
 1899SOL    HW1 6440   0.178   4.275   1.362
 1899SOL    HW2 6441   0.080   4.344   1.455
 1900SOL     OW 6442   0.560   3.952   1.168
 1900SOL    HW1 6443   0.598   3.873   1.206
 1900SOL    HW2 6444   0.468   3.951   1.195
 1901SOL     OW 6445   0.867   4.182   0.639
 1901SOL    HW1 6446   0.825   4.238   0.574
 1901SOL    HW2 6447   0.889   4.102   0.591
 1902SOL     OW 6448   1.017   3.777   0.749
 1902SOL    HW1 6449   0.957   3.770   0.674
 1902SOL    HW2 6450   0.994   3.702   0.804
 1903SOL     OW 6451   1.439   4.890   0.859
 1903SOL    HW1 6452   1.371   4.823   0.856
 1903SOL    HW2 6453   1.464   4.903   0.767
 1904SOL     OW 6454   1.466   4.330   0.973
 1904SOL    HW1 6455   1.413   4.251   0.977
 1904SOL    HW2 6456   1.524   4.324   1.049
 1905SOL     OW 6457   1.848   4.537   0.388
 1905SOL    HW1 6458   1.901   4.485   0.448
 1905SOL    HW2 6459   1.818   4.475   0.322
 1906SOL     OW 6460   0.472   5.158   0.155
 1906SOL    HW1 6461   0.420   5.111   0.220
 1906SOL    HW2 6462   0.505   5.090   0.097
 1907SOL     OW 6463   1.671   4.988   0.646
 1907SOL    HW1 6464   1.765   4.995   0.665
 1907SOL    HW2 6465   1.637   5.076   0.662
 1908SOL     OW 6466   1.398   4.300   0.088
 1908SOL    HW1 6467   1.336   4.283   0.158
 1908SOL    HW2 6468   1.451   4.220   0.082
 1909SOL     OW 6469   0.513   3.988   0.323
 1909SOL    HW1 6470   0.565   3.936   0.261
 1909SOL    HW2 6471   0.498   4.071   0.278
 1910SOL     OW 6472   1.750   4.960   1.572
 1910SOL    HW1 6473   1.836   4.917   1.573
 1910SOL    HW2 6474   1.770   5.053   1.583
 1911SOL     OW 6475   1.064   5.074   1.330
 1911SOL    HW1 6476   0.985   5.048   1.377
 1911SOL    HW2 6477   1.136   5.034   1.380
 1912SOL     OW 6478   1.128   4.927   1.107
 1912SOL    HW1 6479   1.078   4.968   1.177
 1912SOL    HW2 6480   1.082   4.951   1.027
 1913SOL     OW 6481   1.628   4.822   1.076
 1913SOL    HW1 6482   1.622   4.883   1.149
 1913SOL    HW2 6483   1.551   4.841   1.022
 1914SOL     OW 6484   0.919   3.819   1.395
 1914SOL    HW1 6485   0.941   3.801   1.304
 1914SOL    HW2 6486   0.998   3.859   1.432
 1915SOL     OW 6487   0.984   4.839   1.726
 1915SOL    HW1 6488   0.892   4.855   1.745
 1915SOL    HW2 6489   0.984   4.763   1.668
 1916SOL     OW 6490   0.711   4.784   0.381
 1916SOL    HW1 6491   0.694   4.766   0.474
 1916SOL    HW2 6492   0.791   4.734   0.362
 1917SOL     OW 6493   0.421   4.544   1.252
 1917SOL    HW1 6494   0.490   4.552   1.319
 1917SOL    HW2 6495   0.387   4.456   1.263
 1918SOL     OW 6496   1.264   4.100   1.277
 1918SOL    HW1 6497   1.297   4.177   1.322
 1918SOL    HW2 6498   1.174   4.122   1.255
 1919SOL     OW 6499   0.111   5.287   1.320
 1919SOL    HW1 6500   0.051   0.042   1.370
 1919SOL    HW2 6501   0.190   5.282   1.374
 1920SOL     OW 6502   0.346   4.829   0.485
 1920SOL    HW1 6503   0.336   4.908   0.431
 1920SOL    HW2 6504   0.354   4.758   0.421
 1921SOL     OW 6505   0.552   4.257   0.859
 1921SOL    HW1 6506   0.567   4.316   0.784
 1921SOL    HW2 6507   0.618   4.284   0.923
 1922SOL     OW 6508   1.258   5.073   0.384
 1922SOL    HW1 6509   1.312   5.148   0.409
 1922SOL    HW2 6510   1.169   5.097   0.411
 1923SOL     OW 6511   1.271   5.183   1.141
 1923SOL    HW1 6512   1.330   5.197   1.216
 1923SOL    HW2 6513   1.227   5.100   1.160
 1924SOL     OW 6514   1.581   4.346   0.484
 1924SOL    HW1 6515   1.530   4.394   0.550
 1924SOL    HW2 6516   1.614   4.414   0.425
 1925SOL     OW 6517   0.382   5.231   1.314
 1925SOL    HW1 6518   0.367   5.193   1.227
 1925SOL    HW2 6519   0.474   5.257   1.313
 1926SOL     OW 6520   0.415   4.466   1.602
 1926SOL    HW1 6521   0.477   4.511   1.545
 1926SOL    HW2 6522   0.454   4.379   1.615
 1927SOL     OW 6523   1.604   4.504   1.684
 1927SOL    HW1 6524   1.518   4.545   1.677
 1927SOL    HW2 6525   1.656   4.545   1.615
 1928SOL     OW 6526   0.996   3.851   1.755
 1928SOL    HW1 6527   1.053   3.923   1.729
 1928SOL    HW2 6528   1.044   3.772   1.729
 1929SOL     OW 6529   0.497   3.764   1.749
 1929SOL    HW1 6530   0.453   3.711   1.683
 1929SOL    HW2 6531   0.439   3.839   1.762
 1930SOL     OW 6532   0.586   4.597   1.033
 1930SOL    HW1 6533   0.615   4.688   1.031
 1930SOL    HW2 6534   0.529   4.592   1.109
 1931SOL     OW 6535   1.354   4.582   1.025
 1931SOL    HW1 6536   1.270   4.570   0.982
 1931SOL    HW2 6537   1.397   4.496   1.019
 1932SOL     OW 6538   1.201   4.251   0.270
 1932SOL    HW1 6539   1.209   4.173   0.324
 1932SOL    HW2 6540   1.158   4.315   0.327
 1933SOL     OW 6541   0.301   3.927   1.247
 1933SOL    HW1 6542   0.267   3.951   1.333
 1933SOL    HW2 6543   0.290   3.832   1.242
 1934SOL     OW 6544   0.041   5.020   1.276
 1934SOL    HW1 6545   0.072   4.971   1.352
 1934SOL    HW2 6546   0.045   5.112   1.303
 1935SOL     OW 6547   0.723   4.354   1.056
 1935SOL    HW1 6548   0.798   4.340   0.999
 1935SOL    HW2 6549   0.694   4.443   1.037
 1936SOL     OW 6550   1.736   4.684   1.854
 1936SOL    HW1 6551   1.691   4.619   1.799
 1936SOL    HW2 6552   1.676   4.699   1.927
 1937SOL     OW 6553   0.325   3.787   0.635
 1937SOL    HW1 6554   0.309   3.877   0.663
 1937SOL    HW2 6555   0.333   3.737   0.716
 1938SOL     OW 6556   1.625   4.101   0.368
 1938SOL    HW1 6557   1.648   4.035   0.433
 1938SOL    HW2 6558   1.598   4.177   0.419
 1939SOL     OW 6559   1.029   4.482   0.960
 1939SOL    HW1 6560   1.023   4.500   1.054
 1939SOL    HW2 6561   1.002   4.391   0.951
 1940SOL     OW 6562   1.854   5.213   1.582
 1940SOL    HW1 6563   1.843   5.292   1.528
 1940SOL    HW2 6564   1.924   5.235   1.643
 1941SOL     OW 6565   0.355   4.643   1.806
 1941SOL    HW1 6566   0.436   4.660   1.855
 1941SOL    HW2 6567   0.380   4.577   1.741
 1942SOL     OW 6568   1.513   4.029   0.127
 1942SOL    HW1 6569   1.466   3.948   0.143
 1942SOL    HW2 6570   1.555   4.049   0.210
 1943SOL     OW 6571   1.296   4.546   0.018
 1943SOL    HW1 6572   1.333   4.460   0.037
 1943SOL    HW2 6573   1.359   4.587   8.039
 1944SOL     OW 6574   1.058   5.081   0.823
 1944SOL    HW1 6575   1.064   4.995   0.781
 1944SOL    HW2 6576   1.144   5.120   0.811
 1945SOL     OW 6577   0.314   4.532   0.948
 1945SOL    HW1 6578   0.408   4.550   0.945
 1945SOL    HW2 6579   0.308   4.442   0.980
 1946SOL     OW 6580   0.334   4.250   1.016
 1946SOL    HW1 6581   0.299   4.162   1.002
 1946SOL    HW2 6582   0.409   4.255   0.957
 1947SOL     OW 6583   1.134   4.098   1.684
 1947SOL    HW1 6584   1.086   4.153   1.746
 1947SOL    HW2 6585   1.221   4.138   1.680
 1948SOL     OW 6586   1.161   3.925   1.471
 1948SOL    HW1 6587   1.150   3.988   1.542
 1948SOL    HW2 6588   1.202   3.975   1.400
 1949SOL     OW 6589   0.012   5.049   0.197
 1949SOL    HW1 6590   5.223   5.052   0.164
 1949SOL    HW2 6591   0.019   4.966   0.243
 1950SOL     OW 6592   0.979   4.514   1.225
 1950SOL    HW1 6593   1.037   4.493   1.299
 1950SOL    HW2 6594   0.895   4.476   1.249
 1951SOL     OW 6595   0.031   4.279   1.116
 1951SOL    HW1 6596   0.120   4.267   1.085
 1951SOL    HW2 6597   0.036   4.266   1.211
 1952SOL     OW 6598   0.173   4.238   1.712
 1952SOL    HW1 6599   0.236   4.198   1.652
 1952SOL    HW2 6600   0.147   4.319   1.670
 1953SOL     OW 6601   1.378   4.661   1.658
 1953SOL    HW1 6602   1.399   4.754   1.654
 1953SOL    HW2 6603   1.374   4.633   1.566
 1954SOL     OW 6604   0.820   4.294   0.369
 1954SOL    HW1 6605   0.830   4.222   0.307
 1954SOL    HW2 6606   0.743   4.342   0.339
 1955SOL     OW 6607   1.641   4.325   1.184
 1955SOL    HW1 6608   1.631   4.267   1.259
 1955SOL    HW2 6609   1.729   4.306   1.150
 1956SOL     OW 6610   0.208   5.278   1.731
 1956SOL    HW1 6611   0.167   0.019   1.808
 1956SOL    HW2 6612   0.212   5.185   1.754
 1957SOL     OW 6613   0.706   4.172   1.257
 1957SOL    HW1 6614   0.652   4.099   1.230
 1957SOL    HW2 6615   0.700   4.235   1.186
 1958SOL     OW 6616   0.468   4.214   0.177
 1958SOL    HW1 6617   0.532   4.280   0.202
 1958SOL    HW2 6618   0.384   4.260   0.179
 1959SOL     OW 6619   0.150   4.861   1.472
 1959SOL    HW1 6620   0.146   4.813   1.555
 1959SOL    HW2 6621   0.159   4.792   1.406
 1960SOL     OW 6622   1.325   4.768   1.221
 1960SOL    HW1 6623   1.347   4.705   1.152
 1960SOL    HW2 6624   1.256   4.822   1.183
 1961SOL     OW 6625   1.307   4.573   0.307
 1961SOL    HW1 6626   1.231   4.543   0.358
 1961SOL    HW2 6627   1.281   4.560   0.216
 1962SOL     OW 6628   0.074   4.912   1.031
 1962SOL    HW1 6629   0.062   4.955   1.116
 1962SOL    HW2 6630   5.288   4.919   0.989
 1963SOL     OW 6631   0.754   0.035   1.709
 1963SOL    HW1 6632   0.661   0.058   1.718
 1963SOL    HW2 6633   0.775   0.059   1.618
 1964SOL     OW 6634   0.905   3.816   0.131
 1964SOL    HW1 6635   0.920   3.798   0.038
 1964SOL    HW2 6636   0.971   3.763   0.176
 1965SOL     OW 6637   1.720   3.871   0.508
 1965SOL    HW1 6638   1.791   3.854   0.447
 1965SOL    HW2 6639   1.704   3.787   0.550
 1966SOL     OW 6640   1.277   4.650   0.672
 1966SOL    HW1 6641   1.351   4.589   0.680
 1966SOL    HW2 6642   1.311   4.722   0.618
 1967SOL     OW 6643   0.815   4.993   1.415
 1967SOL    HW1 6644   0.783   5.028   1.498
 1967SOL    HW2 6645   0.741   4.999   1.355
 1968SOL     OW 6646   1.841   3.896   0.966
 1968SOL    HW1 6647   1.870   3.809   0.940
 1968SOL    HW2 6648   1.755   3.906   0.927
 1969SOL     OW 6649   0.271   4.040   0.715
 1969SOL    HW1 6650   0.188   4.085   0.698
 1969SOL    HW2 6651   0.272   4.030   0.810
 1970SOL     OW 6652   1.138   0.017   0.001
 1970SOL    HW1 6653   1.153   5.228   0.032
 1970SOL    HW2 6654   1.146   0.011   7.986
 1971SOL     OW 6655   0.825   4.726   1.371
 1971SOL    HW1 6656   0.871   4.718   1.287
 1971SOL    HW2 6657   0.828   4.820   1.391
 1972SOL     OW 6658   0.919   4.638   0.299
 1972SOL    HW1 6659   0.974   4.664   0.225
 1972SOL    HW2 6660   0.967   4.567   0.341
 1973SOL     OW 6661   0.365   5.029   1.501
 1973SOL    HW1 6662   0.367   5.097   1.434
 1973SOL    HW2 6663   0.291   4.974   1.477
 1974SOL     OW 6664   1.613   5.004   1.282
 1974SOL    HW1 6665   1.668   4.996   1.359
 1974SOL    HW2 6666   1.549   5.072   1.305
 1975SOL     OW 6667   1.058   4.835   0.714
 1975SOL    HW1 6668   0.985   4.783   0.749
 1975SOL    HW2 6669   1.120   4.769   0.682
 1976SOL     OW 6670   1.023   3.965   0.966
 1976SOL    HW1 6671   1.018   3.917   0.883
 1976SOL    HW2 6672   1.017   3.897   1.033
 1977SOL     OW 6673   1.724   4.116   1.380
 1977SOL    HW1 6674   1.795   4.179   1.380
 1977SOL    HW2 6675   1.753   4.045   1.324
 1978SOL     OW 6676   0.272   5.034   0.297
 1978SOL    HW1 6677   0.190   5.046   0.249
 1978SOL    HW2 6678   0.258   5.081   0.379
 1979SOL     OW 6679   0.117   4.743   1.719
 1979SOL    HW1 6680   0.047   4.704   1.771
 1979SOL    HW2 6681   0.198   4.710   1.760
 1980SOL     OW 6682   0.675   3.920   1.500
 1980SOL    HW1 6683   0.759   3.899   1.459
 1980SOL    HW2 6684   0.698   3.952   1.587
 1981SOL     OW 6685   0.044   4.112   0.026
 1981SOL    HW1 6686   0.018   4.030   0.069
 1981SOL    HW2 6687   0.126   4.091   8.062
 1982SOL     OW 6688   1.428   4.581   1.399
 1982SOL    HW1 6689   1.379   4.642   1.344
 1982SOL    HW2 6690   1.517   4.584   1.364
 1983SOL     OW 6691   0.054   3.860   0.211
 1983SOL    HW1 6692   0.055   3.944   0.257
 1983SOL    HW2 6693   0.146   3.835   0.202
 1984SOL     OW 6694   1.183   5.062   0.110
 1984SOL    HW1 6695   1.088   5.050   0.106
 1984SOL    HW2 6696   1.204   5.058   0.203
 1985SOL     OW 6697   0.620   4.555   1.436
 1985SOL    HW1 6698   0.677   4.630   1.419
 1985SOL    HW2 6699   0.680   4.480   1.444
 1986SOL     OW 6700   0.718   4.287   1.703
 1986SOL    HW1 6701   0.761   4.348   1.763
 1986SOL    HW2 6702   0.741   4.200   1.736
 1987SOL     OW 6703   1.475   4.920   1.630
 1987SOL    HW1 6704   1.462   4.934   1.724
 1987SOL    HW2 6705   1.569   4.935   1.617
 1988SOL     OW 6706   1.668   4.605   1.255
 1988SOL    HW1 6707   1.662   4.520   1.212
 1988SOL    HW2 6708   1.657   4.668   1.184
 1989SOL     OW 6709   1.217   4.042   0.460
 1989SOL    HW1 6710   1.282   3.971   0.454
 1989SOL    HW2 6711   1.244   4.093   0.536
 1990SOL     OW 6712   0.588   4.459   0.670
 1990SOL    HW1 6713   0.627   4.545   0.658
 1990SOL    HW2 6714   0.518   4.455   0.605
 1991SOL     OW 6715   1.760   4.087   1.652
 1991SOL    HW1 6716   1.744   4.102   1.558
 1991SOL    HW2 6717   1.688   4.030   1.679
 1992SOL     OW 6718   1.746   4.657   1.511
 1992SOL    HW1 6719   1.738   4.752   1.524
 1992SOL    HW2 6720   1.730   4.644   1.418
 1993SOL     OW 6721   0.913   5.094   0.037
 1993SOL    HW1 6722   0.854   5.075   0.110
 1993SOL    HW2 6723   0.864   5.156   8.063
 1994SOL     OW 6724   0.870   4.692   0.854
 1994SOL    HW1 6725   0.918   4.620   0.894
 1994SOL    HW2 6726   0.833   4.741   0.928
 1995SOL     OW 6727   1.079   4.699   0.088
 1995SOL    HW1 6728   1.061   4.757   0.014
 1995SOL    HW2 6729   1.156   4.649   0.060
 1996SOL     OW 6730   0.218   5.022   1.855
 1996SOL    HW1 6731   0.156   4.952   1.836
 1996SOL    HW2 6732   0.216   5.032   1.950
 1997SOL     OW 6733   0.084   4.923   0.656
 1997SOL    HW1 6734   0.110   4.900   0.745
 1997SOL    HW2 6735   0.164   4.952   0.613
 1998SOL     OW 6736   0.674   5.101   1.610
 1998SOL    HW1 6737   0.595   5.072   1.656
 1998SOL    HW2 6738   0.707   5.174   1.662
 1999SOL     OW 6739   1.812   3.908   1.237
 1999SOL    HW1 6740   1.821   3.813   1.251
 1999SOL    HW2 6741   1.822   3.919   1.143
 2000SOL     OW 6742   0.434   4.164   0.524
 2000SOL    HW1 6743   0.462   4.091   0.469
 2000SOL    HW2 6744   0.387   4.122   0.596
 2001SOL     OW 6745   1.706   5.225   1.118
 2001SOL    HW1 6746   1.633   5.208   1.059
 2001SOL    HW2 6747   1.713   5.146   1.172
 2002SOL     OW 6748   0.339   4.285   1.292
 2002SOL    HW1 6749   0.391   4.226   1.346
 2002SOL    HW2 6750   0.352   4.255   1.202
 2003SOL     OW 6751   1.431   3.951   1.118
 2003SOL    HW1 6752   1.454   3.869   1.163
 2003SOL    HW2 6753   1.380   4.000   1.181
 2004SOL     OW 6754   1.009   3.742   1.140
 2004SOL    HW1 6755   0.954   3.675   1.099
 2004SOL    HW2 6756   1.097   3.703   1.142
 2005SOL     OW 6757   0.799   5.038   0.281
 2005SOL    HW1 6758   0.745   4.963   0.308
 2005SOL    HW2 6759   0.855   5.056   0.356
 2006SOL     OW 6760   0.642   0.003   1.290
 2006SOL    HW1 6761   0.645   0.058   1.368
 2006SOL    HW2 6762   0.734   5.286   1.269
 2007SOL     OW 6763   1.356   3.779   0.186
 2007SOL    HW1 6764   1.376   3.731   0.105
 2007SOL    HW2 6765   1.270   3.746   0.212
 2008SOL     OW 6766   1.296   4.186   0.680
 2008SOL    HW1 6767   1.244   4.266   0.686
 2008SOL    HW2 6768   1.292   4.147   0.767
 2009SOL     OW 6769   1.586   3.924   0.879
 2009SOL    HW1 6770   1.527   3.945   0.952
 2009SOL    HW2 6771   1.585   4.001   0.824
 2010SOL     OW 6772   0.042   4.801   0.309
 2010SOL    HW1 6773   0.133   4.775   0.295
 2010SOL    HW2 6774   5.295   4.719   0.320
 2011SOL     OW 6775   0.233   4.354   1.979
 2011SOL    HW1 6776   0.162   4.318   2.031
 2011SOL    HW2 6777   0.215   4.322   1.890
 2012SOL     OW 6778   0.244   3.999   2.850
 2012SOL    HW1 6779   0.257   3.964   2.939
 2012SOL    HW2 6780   0.159   3.965   2.823
 2013SOL     OW 6781   5.297   4.123   2.517
 2013SOL    HW1 6782   5.204   4.145   2.520
 2013SOL    HW2 6783   5.299   4.034   2.483
 2014SOL     OW 6784   0.577   5.003   3.049
 2014SOL    HW1 6785   0.497   5.008   2.996
 2014SOL    HW2 6786   0.595   5.094   3.074
 2015SOL     OW 6787   1.557   5.233   2.551
 2015SOL    HW1 6788   1.540   5.229   2.645
 2015SOL    HW2 6789   1.476   5.268   2.514
 2016SOL     OW 6790   1.131   4.422   2.561
 2016SOL    HW1 6791   1.179   4.504   2.548
 2016SOL    HW2 6792   1.084   4.435   2.643
 2017SOL     OW 6793   1.769   4.328   2.090
 2017SOL    HW1 6794   1.747   4.321   1.997
 2017SOL    HW2 6795   1.733   4.248   2.129
 2018SOL     OW 6796   0.756   4.865   2.900
 2018SOL    HW1 6797   0.691   4.896   2.963
 2018SOL    HW2 6798   0.785   4.945   2.855
 2019SOL     OW 6799   0.871   4.494   3.685
 2019SOL    HW1 6800   0.858   4.566   3.747
 2019SOL    HW2 6801   0.893   4.538   3.603
 2020SOL     OW 6802   0.685   4.724   2.509
 2020SOL    HW1 6803   0.751   4.714   2.577
 2020SOL    HW2 6804   0.618   4.779   2.548
 2021SOL     OW 6805   0.708   4.871   3.677
 2021SOL    HW1 6806   0.757   4.950   3.700
 2021SOL    HW2 6807   0.626   4.903   3.639
 2022SOL     OW 6808   0.378   5.146   2.915
 2022SOL    HW1 6809   0.284   5.159   2.903
 2022SOL    HW2 6810   0.418   5.194   2.843
 2023SOL     OW 6811   1.454   5.222   3.210
 2023SOL    HW1 6812   1.509   5.293   3.241
 2023SOL    HW2 6813   1.387   5.213   3.277
 2024SOL     OW 6814   0.452   4.124   3.352
 2024SOL    HW1 6815   0.526   4.063   3.355
 2024SOL    HW2 6816   0.375   4.068   3.363
 2025SOL     OW 6817   1.610   4.170   2.603
 2025SOL    HW1 6818   1.536   4.191   2.547
 2025SOL    HW2 6819   1.622   4.248   2.658
 2026SOL     OW 6820   1.133   5.073   3.565
 2026SOL    HW1 6821   1.162   5.075   3.656
 2026SOL    HW2 6822   1.080   4.994   3.558
 2027SOL     OW 6823   0.212   5.151   2.398
 2027SOL    HW1 6824   0.254   5.230   2.433
 2027SOL    HW2 6825   0.128   5.146   2.445
 2028SOL     OW 6826   0.254   4.797   2.737
 2028SOL    HW1 6827   0.266   4.710   2.773
 2028SOL    HW2 6828   0.197   4.842   2.799
 2029SOL     OW 6829   0.580   4.707   1.999
 2029SOL    HW1 6830   0.629   4.753   1.930
 2029SOL    HW2 6831   0.620   4.737   2.080
 2030SOL     OW 6832   1.596   3.849   3.329
 2030SOL    HW1 6833   1.609   3.930   3.280
 2030SOL    HW2 6834   1.580   3.878   3.419
 2031SOL     OW 6835   0.127   4.354   2.441
 2031SOL    HW1 6836   0.088   4.272   2.474
 2031SOL    HW2 6837   0.100   4.420   2.505
 2032SOL     OW 6838   5.299   5.298   1.944
 2032SOL    HW1 6839   0.012   5.210   1.979
 2032SOL    HW2 6840   0.027   0.056   2.014
 2033SOL     OW 6841   1.689   4.642   2.504
 2033SOL    HW1 6842   1.771   4.598   2.482
 2033SOL    HW2 6843   1.667   4.693   2.426
 2034SOL     OW 6844   1.647   4.829   2.292
 2034SOL    HW1 6845   1.733   4.832   2.249
 2034SOL    HW2 6846   1.653   4.891   2.364
 2035SOL     OW 6847   0.133   4.472   3.446
 2035SOL    HW1 6848   0.228   4.487   3.445
 2035SOL    HW2 6849   0.095   4.559   3.461
 2036SOL     OW 6850   0.627   5.098   2.600
 2036SOL    HW1 6851   0.571   5.020   2.598
 2036SOL    HW2 6852   0.604   5.147   2.522
 2037SOL     OW 6853   1.288   4.953   3.287
 2037SOL    HW1 6854   1.321   4.887   3.226
 2037SOL    HW2 6855   1.349   4.950   3.361
 2038SOL     OW 6856   0.825   3.724   2.374
 2038SOL    HW1 6857   0.865   3.809   2.352
 2038SOL    HW2 6858   0.731   3.743   2.379
 2039SOL     OW 6859   0.173   4.664   3.145
 2039SOL    HW1 6860   0.263   4.632   3.133
 2039SOL    HW2 6861   0.135   4.662   3.058
 2040SOL     OW 6862   1.530   4.721   2.060
 2040SOL    HW1 6863   1.461   4.663   2.093
 2040SOL    HW2 6864   1.572   4.755   2.139
 2041SOL     OW 6865   0.341   3.978   3.684
 2041SOL    HW1 6866   0.386   4.061   3.698
 2041SOL    HW2 6867   0.252   3.993   3.716
 2042SOL     OW 6868   1.479   5.148   2.824
 2042SOL    HW1 6869   1.406   5.160   2.884
 2042SOL    HW2 6870   1.466   5.059   2.789
 2043SOL     OW 6871   0.595   4.444   2.130
 2043SOL    HW1 6872   0.601   4.526   2.081
 2043SOL    HW2 6873   0.530   4.462   2.198
 2044SOL     OW 6874   1.279   4.081   2.795
 2044SOL    HW1 6875   1.189   4.047   2.803
 2044SOL    HW2 6876   1.330   4.027   2.855
 2045SOL     OW 6877   0.791   4.342   3.312
 2045SOL    HW1 6878   0.765   4.317   3.401
 2045SOL    HW2 6879   0.753   4.274   3.256
 2046SOL     OW 6880   1.393   4.198   3.540
 2046SOL    HW1 6881   1.396   4.243   3.624
 2046SOL    HW2 6882   1.453   4.124   3.549
 2047SOL     OW 6883   0.953   4.611   3.446
 2047SOL    HW1 6884   1.008   4.541   3.410
 2047SOL    HW2 6885   0.905   4.645   3.371
 2048SOL     OW 6886   0.992   4.136   3.099
 2048SOL    HW1 6887   0.905   4.155   3.133
 2048SOL    HW2 6888   0.976   4.091   3.016
 2049SOL     OW 6889   1.052   4.422   2.287
 2049SOL    HW1 6890   1.068   4.415   2.381
 2049SOL    HW2 6891   0.969   4.376   2.274
 2050SOL     OW 6892   0.071   4.510   2.671
 2050SOL    HW1 6893   0.151   4.515   2.723
 2050SOL    HW2 6894   0.064   4.596   2.629
 2051SOL     OW 6895   0.896   4.074   2.057
 2051SOL    HW1 6896   0.935   4.136   1.996
 2051SOL    HW2 6897   0.909   3.988   2.015
 2052SOL     OW 6898   1.707   4.297   3.690
 2052SOL    HW1 6899   1.670   4.370   3.642
 2052SOL    HW2 6900   1.735   4.235   3.623
 2053SOL     OW 6901   1.379   4.863   2.400
 2053SOL    HW1 6902   1.460   4.850   2.352
 2053SOL    HW2 6903   1.329   4.924   2.346
 2054SOL     OW 6904   0.558   3.906   2.757
 2054SOL    HW1 6905   0.554   3.935   2.848
 2054SOL    HW2 6906   0.551   3.987   2.705
 2055SOL     OW 6907   1.022   5.167   2.335
 2055SOL    HW1 6908   0.947   5.226   2.334
 2055SOL    HW2 6909   1.038   5.150   2.428
 2056SOL     OW 6910   1.801   4.779   2.729
 2056SOL    HW1 6911   1.745   4.760   2.654
 2056SOL    HW2 6912   1.741   4.787   2.803
 2057SOL     OW 6913   1.251   5.240   3.388
 2057SOL    HW1 6914   1.215   5.173   3.447
 2057SOL    HW2 6915   1.178   5.263   3.331
 2058SOL     OW 6916   0.315   4.676   2.110
 2058SOL    HW1 6917   0.397   4.698   2.066
 2058SOL    HW2 6918   0.292   4.589   2.076
 2059SOL     OW 6919   1.479   4.469   2.588
 2059SOL    HW1 6920   1.473   4.427   2.674
 2059SOL    HW2 6921   1.558   4.524   2.593
 2060SOL     OW 6922   0.463   4.989   3.606
 2060SOL    HW1 6923   0.438   4.992   3.514
 2060SOL    HW2 6924   0.380   4.989   3.654
 2061SOL     OW 6925   1.062   0.176   2.065
 2061SOL    HW1 6926   1.084   0.103   2.124
 2061SOL    HW2 6927   1.090   0.146   1.979
 2062SOL     OW 6928   0.206   4.002   3.359
 2062SOL    HW1 6929   0.128   4.054   3.342
 2062SOL    HW2 6930   0.172   3.921   3.399
 2063SOL     OW 6931   1.621   5.102   1.972
 2063SOL    HW1 6932   1.625   5.173   1.908
 2063SOL    HW2 6933   1.554   5.043   1.938
 2064SOL     OW 6934   1.401   3.831   2.297
 2064SOL    HW1 6935   1.391   3.806   2.205
 2064SOL    HW2 6936   1.495   3.837   2.311
 2065SOL     OW 6937   0.387   4.419   2.340
 2065SOL    HW1 6938   0.415   4.328   2.350
 2065SOL    HW2 6939   0.293   4.417   2.360
 2066SOL     OW 6940   1.533   3.949   3.587
 2066SOL    HW1 6941   1.543   3.969   3.680
 2066SOL    HW2 6942   1.464   3.882   3.584
 2067SOL     OW 6943   0.637   3.845   1.966
 2067SOL    HW1 6944   0.704   3.777   1.979
 2067SOL    HW2 6945   0.587   3.814   1.890
 2068SOL     OW 6946   0.766   4.003   3.617
 2068SOL    HW1 6947   0.843   3.947   3.616
 2068SOL    HW2 6948   0.718   3.976   3.695
 2069SOL     OW 6949   1.339   4.313   3.294
 2069SOL    HW1 6950   1.371   4.282   3.379
 2069SOL    HW2 6951   1.376   4.401   3.286
 2070SOL     OW 6952   0.816   5.117   2.800
 2070SOL    HW1 6953   0.896   5.104   2.749
 2070SOL    HW2 6954   0.747   5.124   2.734
 2071SOL     OW 6955   0.929   4.234   2.764
 2071SOL    HW1 6956   0.904   4.225   2.672
 2071SOL    HW2 6957   0.958   4.146   2.789
 2072SOL     OW 6958   0.562   3.785   2.356
 2072SOL    HW1 6959   0.487   3.785   2.416
 2072SOL    HW2 6960   0.550   3.864   2.303
 2073SOL     OW 6961   1.428   4.925   1.899
 2073SOL    HW1 6962   1.458   4.849   1.950
 2073SOL    HW2 6963   1.340   4.943   1.932
 2074SOL     OW 6964   0.306   3.771   2.040
 2074SOL    HW1 6965   0.367   3.835   2.005
 2074SOL    HW2 6966   0.361   3.707   2.086
 2075SOL     OW 6967   0.941   3.972   2.320
 2075SOL    HW1 6968   0.915   4.013   2.237
 2075SOL    HW2 6969   1.036   3.988   2.325
 2076SOL     OW 6970   1.080   4.406   3.321
 2076SOL    HW1 6971   1.012   4.338   3.325
 2076SOL    HW2 6972   1.162   4.357   3.314
 2077SOL     OW 6973   1.264   5.266   2.638
 2077SOL    HW1 6974   1.215   0.045   2.616
 2077SOL    HW2 6975   1.310   5.289   2.720
 2078SOL     OW 6976   0.466   4.874   2.587
 2078SOL    HW1 6977   0.398   4.853   2.652
 2078SOL    HW2 6978   0.426   4.855   2.503
 2079SOL     OW 6979   1.023   4.263   1.887
 2079SOL    HW1 6980   0.980   4.347   1.867
 2079SOL    HW2 6981   1.088   4.285   1.952
 2080SOL     OW 6982   0.090   4.266   3.262
 2080SOL    HW1 6983   0.178   4.275   3.224
 2080SOL    HW2 6984   0.080   4.343   3.317
 2081SOL     OW 6985   0.560   3.952   3.030
 2081SOL    HW1 6986   0.597   3.873   3.068
 2081SOL    HW2 6987   0.468   3.951   3.057
 2082SOL     OW 6988   0.868   4.183   2.501
 2082SOL    HW1 6989   0.822   4.237   2.437
 2082SOL    HW2 6990   0.889   4.103   2.453
 2083SOL     OW 6991   1.016   3.778   2.612
 2083SOL    HW1 6992   0.958   3.770   2.536
 2083SOL    HW2 6993   0.994   3.702   2.667
 2084SOL     OW 6994   1.439   4.890   2.721
 2084SOL    HW1 6995   1.372   4.822   2.718
 2084SOL    HW2 6996   1.465   4.902   2.630
 2085SOL     OW 6997   1.466   4.331   2.836
 2085SOL    HW1 6998   1.413   4.251   2.839
 2085SOL    HW2 6999   1.524   4.324   2.911
 2086SOL     OW 7000   1.844   4.538   2.246
 2086SOL    HW1 7001   1.901   4.487   2.303
 2086SOL    HW2 7002   1.816   4.475   2.178
 2087SOL     OW 7003   0.480   5.146   2.010
 2087SOL    HW1 7004   0.421   5.095   2.065
 2087SOL    HW2 7005   0.487   5.096   1.929
 2088SOL     OW 7006   1.670   4.987   2.507
 2088SOL    HW1 7007   1.764   4.993   2.525
 2088SOL    HW2 7008   1.637   5.075   2.523
 2089SOL     OW 7009   1.394   4.296   1.933
 2089SOL    HW1 7010   1.333   4.276   2.004
 2089SOL    HW2 7011   1.478   4.264   1.965
 2090SOL     OW 7012   0.524   3.987   2.177
 2090SOL    HW1 7013   0.572   3.941   2.107
 2090SOL    HW2 7014   0.500   4.071   2.138
 2091SOL     OW 7015   1.750   4.960   3.434
 2091SOL    HW1 7016   1.836   4.917   3.435
 2091SOL    HW2 7017   1.770   5.053   3.445
 2092SOL     OW 7018   1.064   5.074   3.192
 2092SOL    HW1 7019   0.985   5.048   3.239
 2092SOL    HW2 7020   1.136   5.035   3.242
 2093SOL     OW 7021   1.128   4.927   2.969
 2093SOL    HW1 7022   1.079   4.968   3.040
 2093SOL    HW2 7023   1.080   4.950   2.889
 2094SOL     OW 7024   1.627   4.821   2.938
 2094SOL    HW1 7025   1.622   4.883   3.011
 2094SOL    HW2 7026   1.550   4.841   2.884
 2095SOL     OW 7027   0.919   3.819   3.257
 2095SOL    HW1 7028   0.941   3.801   3.166
 2095SOL    HW2 7029   0.998   3.859   3.294
 2096SOL     OW 7030   0.984   4.839   3.588
 2096SOL    HW1 7031   0.892   4.855   3.607
 2096SOL    HW2 7032   0.984   4.762   3.530
 2097SOL     OW 7033   0.704   4.782   2.234
 2097SOL    HW1 7034   0.692   4.766   2.327
 2097SOL    HW2 7035   0.782   4.732   2.210
 2098SOL     OW 7036   0.421   4.544   3.114
 2098SOL    HW1 7037   0.490   4.551   3.181
 2098SOL    HW2 7038   0.387   4.456   3.124
 2099SOL     OW 7039   1.264   4.100   3.139
 2099SOL    HW1 7040   1.297   4.177   3.184
 2099SOL    HW2 7041   1.174   4.122   3.117
 2100SOL     OW 7042   0.112   5.290   3.180
 2100SOL    HW1 7043   0.050   0.041   3.232
 2100SOL    HW2 7044   0.189   5.281   3.236
 2101SOL     OW 7045   0.344   4.830   2.346
 2101SOL    HW1 7046   0.344   4.909   2.291
 2101SOL    HW2 7047   0.346   4.757   2.284
 2102SOL     OW 7048   0.553   4.258   2.721
 2102SOL    HW1 7049   0.567   4.317   2.647
 2102SOL    HW2 7050   0.618   4.284   2.785
 2103SOL     OW 7051   1.261   5.079   2.247
 2103SOL    HW1 7052   1.318   5.145   2.287
 2103SOL    HW2 7053   1.173   5.102   2.277
 2104SOL     OW 7054   1.271   5.183   3.003
 2104SOL    HW1 7055   1.330   5.197   3.077
 2104SOL    HW2 7056   1.228   5.100   3.023
 2105SOL     OW 7057   1.581   4.345   2.343
 2105SOL    HW1 7058   1.532   4.397   2.407
 2105SOL    HW2 7059   1.625   4.410   2.289
 2106SOL     OW 7060   0.382   5.229   3.176
 2106SOL    HW1 7061   0.367   5.192   3.089
 2106SOL    HW2 7062   0.474   5.256   3.175
 2107SOL     OW 7063   0.415   4.466   3.464
 2107SOL    HW1 7064   0.477   4.511   3.407
 2107SOL    HW2 7065   0.453   4.379   3.477
 2108SOL     OW 7066   1.604   4.504   3.546
 2108SOL    HW1 7067   1.518   4.545   3.539
 2108SOL    HW2 7068   1.656   4.545   3.477
 2109SOL     OW 7069   0.996   3.851   3.617
 2109SOL    HW1 7070   1.053   3.923   3.591
 2109SOL    HW2 7071   1.044   3.772   3.591
 2110SOL     OW 7072   0.497   3.764   3.611
 2110SOL    HW1 7073   0.453   3.711   3.545
 2110SOL    HW2 7074   0.439   3.839   3.624
 2111SOL     OW 7075   0.586   4.597   2.895
 2111SOL    HW1 7076   0.616   4.688   2.894
 2111SOL    HW2 7077   0.529   4.591   2.971
 2112SOL     OW 7078   1.354   4.582   2.887
 2112SOL    HW1 7079   1.270   4.570   2.844
 2112SOL    HW2 7080   1.397   4.497   2.881
 2113SOL     OW 7081   1.203   4.252   2.127
 2113SOL    HW1 7082   1.211   4.174   2.182
 2113SOL    HW2 7083   1.160   4.316   2.184
 2114SOL     OW 7084   0.301   3.927   3.110
 2114SOL    HW1 7085   0.267   3.950   3.196
 2114SOL    HW2 7086   0.290   3.832   3.104
 2115SOL     OW 7087   0.043   5.021   3.137
 2115SOL    HW1 7088   0.073   4.972   3.214
 2115SOL    HW2 7089   0.043   5.112   3.165
 2116SOL     OW 7090   0.723   4.354   2.919
 2116SOL    HW1 7091   0.799   4.340   2.861
 2116SOL    HW2 7092   0.695   4.443   2.898
 2117SOL     OW 7093   1.736   4.684   3.716
 2117SOL    HW1 7094   1.691   4.619   3.661
 2117SOL    HW2 7095   1.676   4.699   3.789
 2118SOL     OW 7096   0.328   3.786   2.495
 2118SOL    HW1 7097   0.307   3.875   2.522
 2118SOL    HW2 7098   0.333   3.737   2.578
 2119SOL     OW 7099   1.618   4.100   2.227
 2119SOL    HW1 7100   1.646   4.035   2.292
 2119SOL    HW2 7101   1.596   4.177   2.278
 2120SOL     OW 7102   1.028   4.483   2.822
 2120SOL    HW1 7103   1.023   4.500   2.916
 2120SOL    HW2 7104   1.002   4.391   2.812
 2121SOL     OW 7105   1.854   5.213   3.444
 2121SOL    HW1 7106   1.843   5.292   3.390
 2121SOL    HW2 7107   1.924   5.235   3.505
 2122SOL     OW 7108   0.355   4.643   3.668
 2122SOL    HW1 7109   0.436   4.660   3.717
 2122SOL    HW2 7110   0.380   4.577   3.603
 2123SOL     OW 7111   1.528   3.997   1.989
 2123SOL    HW1 7112   1.463   3.931   2.016
 2123SOL    HW2 7113   1.561   4.032   2.071
 2124SOL     OW 7114   1.290   4.550   1.892
 2124SOL    HW1 7115   1.333   4.464   1.896
 2124SOL    HW2 7116   1.321   4.588   1.810
 2125SOL     OW 7117   1.057   5.082   2.683
 2125SOL    HW1 7118   1.063   4.995   2.642
 2125SOL    HW2 7119   1.145   5.120   2.672
 2126SOL     OW 7120   0.314   4.532   2.811
 2126SOL    HW1 7121   0.408   4.549   2.807
 2126SOL    HW2 7122   0.307   4.442   2.843
 2127SOL     OW 7123   0.334   4.250   2.878
 2127SOL    HW1 7124   0.299   4.162   2.864
 2127SOL    HW2 7125   0.409   4.256   2.819
 2128SOL     OW 7126   1.134   4.098   3.546
 2128SOL    HW1 7127   1.086   4.153   3.608
 2128SOL    HW2 7128   1.221   4.138   3.542
 2129SOL     OW 7129   1.161   3.925   3.333
 2129SOL    HW1 7130   1.150   3.988   3.404
 2129SOL    HW2 7131   1.202   3.975   3.262
 2130SOL     OW 7132   0.002   5.045   2.068
 2130SOL    HW1 7133   5.229   5.029   2.009
 2130SOL    HW2 7134   0.015   4.961   2.114
 2131SOL     OW 7135   0.979   4.514   3.088
 2131SOL    HW1 7136   1.037   4.493   3.161
 2131SOL    HW2 7137   0.895   4.475   3.111
 2132SOL     OW 7138   0.031   4.286   2.979
 2132SOL    HW1 7139   0.118   4.265   2.945
 2132SOL    HW2 7140   0.036   4.268   3.073
 2133SOL     OW 7141   0.173   4.238   3.574
 2133SOL    HW1 7142   0.236   4.198   3.514
 2133SOL    HW2 7143   0.147   4.319   3.532
 2134SOL     OW 7144   1.378   4.661   3.520
 2134SOL    HW1 7145   1.399   4.754   3.516
 2134SOL    HW2 7146   1.374   4.633   3.428
 2135SOL     OW 7147   0.817   4.293   2.224
 2135SOL    HW1 7148   0.822   4.219   2.164
 2135SOL    HW2 7149   0.743   4.345   2.193
 2136SOL     OW 7150   1.641   4.325   3.046
 2136SOL    HW1 7151   1.631   4.267   3.121
 2136SOL    HW2 7152   1.729   4.306   3.012
 2137SOL     OW 7153   0.208   5.278   3.593
 2137SOL    HW1 7154   0.168   0.019   3.669
 2137SOL    HW2 7155   0.212   5.185   3.616
 2138SOL     OW 7156   0.706   4.172   3.120
 2138SOL    HW1 7157   0.652   4.099   3.092
 2138SOL    HW2 7158   0.700   4.235   3.048
 2139SOL     OW 7159   0.464   4.217   2.045
 2139SOL    HW1 7160   0.524   4.287   2.069
 2139SOL    HW2 7161   0.380   4.261   2.031
 2140SOL     OW 7162   0.150   4.861   3.334
 2140SOL    HW1 7163   0.146   4.813   3.417
 2140SOL    HW2 7164   0.158   4.793   3.268
 2141SOL     OW 7165   1.325   4.768   3.083
 2141SOL    HW1 7166   1.347   4.705   3.014
 2141SOL    HW2 7167   1.256   4.821   3.045
 2142SOL     OW 7168   1.312   4.582   2.167
 2142SOL    HW1 7169   1.238   4.549   2.218
 2142SOL    HW2 7170   1.287   4.567   2.076
 2143SOL     OW 7171   0.074   4.912   2.893
 2143SOL    HW1 7172   0.064   4.955   2.978
 2143SOL    HW2 7173   5.288   4.919   2.852
 2144SOL     OW 7174   0.754   0.035   3.571
 2144SOL    HW1 7175   0.661   0.057   3.580
 2144SOL    HW2 7176   0.775   0.060   3.481
 2145SOL     OW 7177   1.720   3.873   2.370
 2145SOL    HW1 7178   1.792   3.858   2.308
 2145SOL    HW2 7179   1.704   3.788   2.410
 2146SOL     OW 7180   1.277   4.651   2.534
 2146SOL    HW1 7181   1.350   4.590   2.543
 2146SOL    HW2 7182   1.312   4.722   2.480
 2147SOL     OW 7183   0.815   4.993   3.277
 2147SOL    HW1 7184   0.783   5.028   3.360
 2147SOL    HW2 7185   0.740   4.998   3.217
 2148SOL     OW 7186   1.841   3.896   2.829
 2148SOL    HW1 7187   1.870   3.809   2.802
 2148SOL    HW2 7188   1.755   3.906   2.789
 2149SOL     OW 7189   0.273   4.040   2.579
 2149SOL    HW1 7190   0.188   4.079   2.560
 2149SOL    HW2 7191   0.274   4.030   2.674
 2150SOL     OW 7192   0.825   4.726   3.233
 2150SOL    HW1 7193   0.871   4.718   3.150
 2150SOL    HW2 7194   0.828   4.820   3.253
 2151SOL     OW 7195   0.916   4.636   2.153
 2151SOL    HW1 7196   0.976   4.669   2.086
 2151SOL    HW2 7197   0.964   4.567   2.198
 2152SOL     OW 7198   0.365   5.028   3.363
 2152SOL    HW1 7199   0.368   5.097   3.296
 2152SOL    HW2 7200   0.291   4.973   3.339
 2153SOL     OW 7201   1.612   5.004   3.144
 2153SOL    HW1 7202   1.668   4.996   3.221
 2153SOL    HW2 7203   1.549   5.072   3.167
 2154SOL     OW 7204   1.058   4.835   2.575
 2154SOL    HW1 7205   0.985   4.784   2.611
 2154SOL    HW2 7206   1.120   4.769   2.545
 2155SOL     OW 7207   1.022   3.965   2.828
 2155SOL    HW1 7208   1.018   3.918   2.745
 2155SOL    HW2 7209   1.017   3.897   2.895
 2156SOL     OW 7210   1.724   4.116   3.242
 2156SOL    HW1 7211   1.795   4.179   3.242
 2156SOL    HW2 7212   1.754   4.045   3.186
 2157SOL     OW 7213   0.260   5.058   2.151
 2157SOL    HW1 7214   0.167   5.061   2.126
 2157SOL    HW2 7215   0.262   5.097   2.238
 2158SOL     OW 7216   0.117   4.742   3.581
 2158SOL    HW1 7217   0.047   4.704   3.633
 2158SOL    HW2 7218   0.198   4.710   3.622
 2159SOL     OW 7219   0.675   3.920   3.362
 2159SOL    HW1 7220   0.759   3.899   3.321
 2159SOL    HW2 7221   0.698   3.952   3.449
 2160SOL     OW 7222   0.085   4.068   1.902
 2160SOL    HW1 7223   0.003   4.024   1.880
 2160SOL    HW2 7224   0.100   4.129   1.829
 2161SOL     OW 7225   1.428   4.581   3.261
 2161SOL    HW1 7226   1.379   4.642   3.206
 2161SOL    HW2 7227   1.518   4.584   3.226
 2162SOL     OW 7228   0.058   3.857   2.108
 2162SOL    HW1 7229   0.056   3.951   2.091
 2162SOL    HW2 7230   0.145   3.829   2.082
 2163SOL     OW 7231   1.182   5.062   1.983
 2163SOL    HW1 7232   1.091   5.032   1.984
 2163SOL    HW2 7233   1.210   5.055   2.074
 2164SOL     OW 7234   0.620   4.555   3.298
 2164SOL    HW1 7235   0.677   4.630   3.282
 2164SOL    HW2 7236   0.680   4.480   3.306
 2165SOL     OW 7237   0.718   4.287   3.565
 2165SOL    HW1 7238   0.761   4.348   3.625
 2165SOL    HW2 7239   0.741   4.200   3.598
 2166SOL     OW 7240   1.475   4.920   3.492
 2166SOL    HW1 7241   1.462   4.934   3.586
 2166SOL    HW2 7242   1.569   4.935   3.479
 2167SOL     OW 7243   1.668   4.605   3.117
 2167SOL    HW1 7244   1.662   4.519   3.074
 2167SOL    HW2 7245   1.658   4.668   3.046
 2168SOL     OW 7246   1.216   4.043   2.320
 2168SOL    HW1 7247   1.279   3.971   2.312
 2168SOL    HW2 7248   1.246   4.092   2.396
 2169SOL     OW 7249   0.589   4.460   2.532
 2169SOL    HW1 7250   0.628   4.546   2.517
 2169SOL    HW2 7251   0.521   4.453   2.466
 2170SOL     OW 7252   1.760   4.087   3.514
 2170SOL    HW1 7253   1.744   4.102   3.421
 2170SOL    HW2 7254   1.688   4.030   3.541
 2171SOL     OW 7255   1.746   4.657   3.373
 2171SOL    HW1 7256   1.738   4.752   3.386
 2171SOL    HW2 7257   1.730   4.644   3.280
 2172SOL     OW 7258   0.848   5.094   1.882
 2172SOL    HW1 7259   0.831   5.093   1.977
 2172SOL    HW2 7260   0.861   5.186   1.861
 2173SOL     OW 7261   0.869   4.693   2.715
 2173SOL    HW1 7262   0.918   4.620   2.755
 2173SOL    HW2 7263   0.833   4.740   2.790
 2174SOL     OW 7264   1.080   4.714   1.952
 2174SOL    HW1 7265   1.057   4.764   1.874
 2174SOL    HW2 7266   1.153   4.659   1.925
 2175SOL     OW 7267   0.218   5.022   3.717
 2175SOL    HW1 7268   0.156   4.952   3.699
 2175SOL    HW2 7269   0.216   5.032   3.812
 2176SOL     OW 7270   0.085   4.922   2.515
 2176SOL    HW1 7271   0.106   4.904   2.607
 2176SOL    HW2 7272   0.168   4.950   2.477
 2177SOL     OW 7273   0.674   5.101   3.472
 2177SOL    HW1 7274   0.595   5.072   3.518
 2177SOL    HW2 7275   0.707   5.174   3.524
 2178SOL     OW 7276   1.813   3.907   3.100
 2178SOL    HW1 7277   1.820   3.813   3.113
 2178SOL    HW2 7278   1.822   3.919   3.005
 2179SOL     OW 7279   0.437   4.160   2.386
 2179SOL    HW1 7280   0.464   4.087   2.330
 2179SOL    HW2 7281   0.388   4.118   2.457
 2180SOL     OW 7282   1.706   5.225   2.980
 2180SOL    HW1 7283   1.633   5.208   2.922
 2180SOL    HW2 7284   1.713   5.146   3.034
 2181SOL     OW 7285   0.339   4.286   3.154
 2181SOL    HW1 7286   0.391   4.226   3.207
 2181SOL    HW2 7287   0.351   4.255   3.064
 2182SOL     OW 7288   1.431   3.951   2.980
 2182SOL    HW1 7289   1.453   3.869   3.024
 2182SOL    HW2 7290   1.380   4.000   3.044
 2183SOL     OW 7291   1.009   3.742   3.002
 2183SOL    HW1 7292   0.954   3.675   2.961
 2183SOL    HW2 7293   1.097   3.703   3.004
 2184SOL     OW 7294   0.806   5.046   2.147
 2184SOL    HW1 7295   0.748   4.972   2.167
 2184SOL    HW2 7296   0.860   5.057   2.225
 2185SOL     OW 7297   0.642   0.004   3.152
 2185SOL    HW1 7298   0.644   0.058   3.231
 2185SOL    HW2 7299   0.734   5.286   3.132
 2186SOL     OW 7300   1.353   3.777   2.029
 2186SOL    HW1 7301   1.383   3.711   1.967
 2186SOL    HW2 7302   1.265   3.749   2.054
 2187SOL     OW 7303   1.296   4.186   2.542
 2187SOL    HW1 7304   1.243   4.265   2.548
 2187SOL    HW2 7305   1.292   4.147   2.629
 2188SOL     OW 7306   1.586   3.924   2.741
 2188SOL    HW1 7307   1.527   3.946   2.813
 2188SOL    HW2 7308   1.585   4.001   2.685
 2189SOL     OW 7309   0.048   4.789   2.151
 2189SOL    HW1 7310   0.138   4.756   2.143
 2189SOL    HW2 7311   0.001   4.717   2.192
 2190SOL     OW 7312   0.233   4.354   3.841
 2190SOL    HW1 7313   0.162   4.318   3.894
 2190SOL    HW2 7314   0.216   4.322   3.752
 2191SOL     OW 7315   0.244   3.999   4.712
 2191SOL    HW1 7316   0.257   3.964   4.801
 2191SOL    HW2 7317   0.159   3.965   4.685
 2192SOL     OW 7318   5.297   4.123   4.379
 2192SOL    HW1 7319   5.204   4.145   4.382
 2192SOL    HW2 7320   5.299   4.034   4.345
 2193SOL     OW 7321   0.577   5.003   4.911
 2193SOL    HW1 7322   0.497   5.008   4.858
 2193SOL    HW2 7323   0.595   5.094   4.936
 2194SOL     OW 7324   1.557   5.232   4.413
 2194SOL    HW1 7325   1.540   5.229   4.507
 2194SOL    HW2 7326   1.476   5.268   4.376
 2195SOL     OW 7327   1.131   4.422   4.423
 2195SOL    HW1 7328   1.179   4.504   4.410
 2195SOL    HW2 7329   1.084   4.435   4.505
 2196SOL     OW 7330   1.769   4.327   3.952
 2196SOL    HW1 7331   1.747   4.321   3.859
 2196SOL    HW2 7332   1.733   4.248   3.991
 2197SOL     OW 7333   0.756   4.865   4.762
 2197SOL    HW1 7334   0.691   4.896   4.825
 2197SOL    HW2 7335   0.785   4.945   4.717
 2198SOL     OW 7336   0.871   4.494   5.547
 2198SOL    HW1 7337   0.858   4.566   5.609
 2198SOL    HW2 7338   0.893   4.538   5.465
 2199SOL     OW 7339   0.685   4.724   4.371
 2199SOL    HW1 7340   0.751   4.714   4.439
 2199SOL    HW2 7341   0.618   4.779   4.410
 2200SOL     OW 7342   0.708   4.871   5.538
 2200SOL    HW1 7343   0.757   4.950   5.562
 2200SOL    HW2 7344   0.626   4.903   5.501
 2201SOL     OW 7345   0.378   5.146   4.777
 2201SOL    HW1 7346   0.284   5.159   4.765
 2201SOL    HW2 7347   0.418   5.194   4.705
 2202SOL     OW 7348   1.454   5.221   5.072
 2202SOL    HW1 7349   1.509   5.294   5.103
 2202SOL    HW2 7350   1.387   5.213   5.139
 2203SOL     OW 7351   0.452   4.123   5.214
 2203SOL    HW1 7352   0.526   4.063   5.217
 2203SOL    HW2 7353   0.375   4.068   5.225
 2204SOL     OW 7354   1.610   4.170   4.465
 2204SOL    HW1 7355   1.536   4.191   4.408
 2204SOL    HW2 7356   1.621   4.249   4.519
 2205SOL     OW 7357   1.133   5.073   5.427
 2205SOL    HW1 7358   1.162   5.075   5.518
 2205SOL    HW2 7359   1.080   4.994   5.420
 2206SOL     OW 7360   0.212   5.151   4.260
 2206SOL    HW1 7361   0.254   5.230   4.295
 2206SOL    HW2 7362   0.128   5.146   4.307
 2207SOL     OW 7363   0.254   4.797   4.599
 2207SOL    HW1 7364   0.266   4.710   4.636
 2207SOL    HW2 7365   0.197   4.842   4.661
 2208SOL     OW 7366   0.580   4.707   3.861
 2208SOL    HW1 7367   0.629   4.753   3.792
 2208SOL    HW2 7368   0.620   4.737   3.942
 2209SOL     OW 7369   1.597   3.849   5.191
 2209SOL    HW1 7370   1.607   3.931   5.142
 2209SOL    HW2 7371   1.579   3.877   5.281
 2210SOL     OW 7372   0.127   4.354   4.303
 2210SOL    HW1 7373   0.088   4.272   4.336
 2210SOL    HW2 7374   0.100   4.420   4.367
 2211SOL     OW 7375   5.299   5.297   3.806
 2211SOL    HW1 7376   0.012   5.209   3.841
 2211SOL    HW2 7377   0.027   0.056   3.876
 2212SOL     OW 7378   1.689   4.642   4.366
 2212SOL    HW1 7379   1.771   4.598   4.343
 2212SOL    HW2 7380   1.666   4.693   4.288
 2213SOL     OW 7381   1.647   4.829   4.154
 2213SOL    HW1 7382   1.732   4.833   4.111
 2213SOL    HW2 7383   1.653   4.891   4.226
 2214SOL     OW 7384   0.133   4.472   5.308
 2214SOL    HW1 7385   0.228   4.487   5.307
 2214SOL    HW2 7386   0.095   4.559   5.323
 2215SOL     OW 7387   0.627   5.098   4.462
 2215SOL    HW1 7388   0.571   5.020   4.460
 2215SOL    HW2 7389   0.604   5.147   4.384
 2216SOL     OW 7390   1.288   4.952   5.150
 2216SOL    HW1 7391   1.322   4.887   5.088
 2216SOL    HW2 7392   1.349   4.950   5.223
 2217SOL     OW 7393   0.825   3.725   4.236
 2217SOL    HW1 7394   0.865   3.809   4.214
 2217SOL    HW2 7395   0.731   3.743   4.241
 2218SOL     OW 7396   0.173   4.664   5.007
 2218SOL    HW1 7397   0.263   4.632   4.995
 2218SOL    HW2 7398   0.135   4.662   4.920
 2219SOL     OW 7399   1.530   4.721   3.922
 2219SOL    HW1 7400   1.461   4.663   3.955
 2219SOL    HW2 7401   1.572   4.755   4.001
 2220SOL     OW 7402   0.341   3.978   5.546
 2220SOL    HW1 7403   0.386   4.061   5.560
 2220SOL    HW2 7404   0.252   3.993   5.578
 2221SOL     OW 7405   1.479   5.148   4.686
 2221SOL    HW1 7406   1.406   5.160   4.746
 2221SOL    HW2 7407   1.466   5.059   4.651
 2222SOL     OW 7408   0.595   4.444   3.992
 2222SOL    HW1 7409   0.601   4.526   3.943
 2222SOL    HW2 7410   0.530   4.462   4.060
 2223SOL     OW 7411   1.279   4.080   4.657
 2223SOL    HW1 7412   1.190   4.047   4.665
 2223SOL    HW2 7413   1.330   4.027   4.717
 2224SOL     OW 7414   0.792   4.341   5.174
 2224SOL    HW1 7415   0.765   4.317   5.263
 2224SOL    HW2 7416   0.753   4.274   5.118
 2225SOL     OW 7417   1.393   4.198   5.402
 2225SOL    HW1 7418   1.396   4.243   5.487
 2225SOL    HW2 7419   1.453   4.124   5.412
 2226SOL     OW 7420   0.953   4.611   5.308
 2226SOL    HW1 7421   1.008   4.541   5.272
 2226SOL    HW2 7422   0.905   4.645   5.233
 2227SOL     OW 7423   0.992   4.136   4.961
 2227SOL    HW1 7424   0.905   4.155   4.996
 2227SOL    HW2 7425   0.976   4.091   4.878
 2228SOL     OW 7426   1.052   4.422   4.149
 2228SOL    HW1 7427   1.068   4.415   4.243
 2228SOL    HW2 7428   0.969   4.376   4.136
 2229SOL     OW 7429   0.071   4.510   4.533
 2229SOL    HW1 7430   0.151   4.515   4.585
 2229SOL    HW2 7431   0.064   4.597   4.492
 2230SOL     OW 7432   0.896   4.074   3.919
 2230SOL    HW1 7433   0.935   4.136   3.858
 2230SOL    HW2 7434   0.909   3.988   3.877
 2231SOL     OW 7435   1.707   4.296   5.552
 2231SOL    HW1 7436   1.670   4.370   5.504
 2231SOL    HW2 7437   1.736   4.235   5.484
 2232SOL     OW 7438   1.379   4.863   4.262
 2232SOL    HW1 7439   1.460   4.850   4.214
 2232SOL    HW2 7440   1.329   4.924   4.208
 2233SOL     OW 7441   0.558   3.906   4.619
 2233SOL    HW1 7442   0.554   3.935   4.710
 2233SOL    HW2 7443   0.551   3.987   4.567
 2234SOL     OW 7444   1.022   5.167   4.197
 2234SOL    HW1 7445   0.947   5.226   4.196
 2234SOL    HW2 7446   1.038   5.150   4.290
 2235SOL     OW 7447   1.801   4.779   4.591
 2235SOL    HW1 7448   1.745   4.760   4.516
 2235SOL    HW2 7449   1.741   4.786   4.665
 2236SOL     OW 7450   1.251   5.240   5.250
 2236SOL    HW1 7451   1.215   5.173   5.308
 2236SOL    HW2 7452   1.178   5.264   5.193
 2237SOL     OW 7453   0.315   4.676   3.972
 2237SOL    HW1 7454   0.397   4.698   3.928
 2237SOL    HW2 7455   0.292   4.589   3.938
 2238SOL     OW 7456   1.479   4.469   4.450
 2238SOL    HW1 7457   1.473   4.427   4.536
 2238SOL    HW2 7458   1.557   4.524   4.455
 2239SOL     OW 7459   0.463   4.989   5.468
 2239SOL    HW1 7460   0.438   4.992   5.376
 2239SOL    HW2 7461   0.380   4.989   5.516
 2240SOL     OW 7462   1.061   0.176   3.928
 2240SOL    HW1 7463   1.085   0.105   3.987
 2240SOL    HW2 7464   1.091   0.146   3.841
 2241SOL     OW 7465   0.206   4.002   5.221
 2241SOL    HW1 7466   0.128   4.054   5.204
 2241SOL    HW2 7467   0.172   3.921   5.261
 2242SOL     OW 7468   1.621   5.102   3.834
 2242SOL    HW1 7469   1.626   5.173   3.770
 2242SOL    HW2 7470   1.554   5.043   3.800
 2243SOL     OW 7471   1.401   3.831   4.159
 2243SOL    HW1 7472   1.391   3.806   4.067
 2243SOL    HW2 7473   1.495   3.836   4.172
 2244SOL     OW 7474   0.387   4.419   4.202
 2244SOL    HW1 7475   0.415   4.328   4.212
 2244SOL    HW2 7476   0.293   4.417   4.222
 2245SOL     OW 7477   1.533   3.948   5.449
 2245SOL    HW1 7478   1.543   3.969   5.542
 2245SOL    HW2 7479   1.462   3.883   5.447
 2246SOL     OW 7480   0.638   3.845   3.828
 2246SOL    HW1 7481   0.704   3.777   3.841
 2246SOL    HW2 7482   0.587   3.815   3.752
 2247SOL     OW 7483   0.766   4.003   5.479
 2247SOL    HW1 7484   0.843   3.947   5.478
 2247SOL    HW2 7485   0.717   3.976   5.557
 2248SOL     OW 7486   1.340   4.313   5.156
 2248SOL    HW1 7487   1.371   4.282   5.241
 2248SOL    HW2 7488   1.376   4.401   5.148
 2249SOL     OW 7489   0.816   5.117   4.662
 2249SOL    HW1 7490   0.896   5.104   4.611
 2249SOL    HW2 7491   0.747   5.124   4.596
 2250SOL     OW 7492   0.929   4.234   4.626
 2250SOL    HW1 7493   0.905   4.225   4.534
 2250SOL    HW2 7494   0.958   4.146   4.651
 2251SOL     OW 7495   0.562   3.785   4.218
 2251SOL    HW1 7496   0.487   3.785   4.278
 2251SOL    HW2 7497   0.550   3.864   4.165
 2252SOL     OW 7498   1.428   4.925   3.761
 2252SOL    HW1 7499   1.457   4.849   3.812
 2252SOL    HW2 7500   1.340   4.943   3.794
 2253SOL     OW 7501   0.306   3.771   3.902
 2253SOL    HW1 7502   0.367   3.835   3.867
 2253SOL    HW2 7503   0.361   3.707   3.948
 2254SOL     OW 7504   0.941   3.972   4.182
 2254SOL    HW1 7505   0.915   4.012   4.099
 2254SOL    HW2 7506   1.036   3.988   4.187
 2255SOL     OW 7507   1.080   4.406   5.183
 2255SOL    HW1 7508   1.012   4.339   5.187
 2255SOL    HW2 7509   1.162   4.357   5.176
 2256SOL     OW 7510   1.264   5.266   4.501
 2256SOL    HW1 7511   1.215   0.045   4.478
 2256SOL    HW2 7512   1.310   5.289   4.582
 2257SOL     OW 7513   0.466   4.874   4.449
 2257SOL    HW1 7514   0.399   4.853   4.514
 2257SOL    HW2 7515   0.426   4.855   4.365
 2258SOL     OW 7516   1.023   4.263   3.749
 2258SOL    HW1 7517   0.980   4.347   3.729
 2258SOL    HW2 7518   1.088   4.285   3.814
 2259SOL     OW 7519   0.090   4.266   5.123
 2259SOL    HW1 7520   0.178   4.275   5.086
 2259SOL    HW2 7521   0.080   4.343   5.179
 2260SOL     OW 7522   0.560   3.952   4.892
 2260SOL    HW1 7523   0.597   3.873   4.930
 2260SOL    HW2 7524   0.468   3.951   4.919
 2261SOL     OW 7525   0.868   4.183   4.363
 2261SOL    HW1 7526   0.822   4.237   4.299
 2261SOL    HW2 7527   0.889   4.103   4.315
 2262SOL     OW 7528   1.016   3.777   4.474
 2262SOL    HW1 7529   0.958   3.771   4.398
 2262SOL    HW2 7530   0.994   3.702   4.529
 2263SOL     OW 7531   1.439   4.890   4.583
 2263SOL    HW1 7532   1.371   4.823   4.580
 2263SOL    HW2 7533   1.465   4.902   4.492
 2264SOL     OW 7534   1.466   4.331   4.697
 2264SOL    HW1 7535   1.413   4.251   4.701
 2264SOL    HW2 7536   1.524   4.324   4.773
 2265SOL     OW 7537   1.844   4.538   4.108
 2265SOL    HW1 7538   1.901   4.487   4.165
 2265SOL    HW2 7539   1.816   4.475   4.041
 2266SOL     OW 7540   0.480   5.146   3.872
 2266SOL    HW1 7541   0.421   5.095   3.927
 2266SOL    HW2 7542   0.487   5.096   3.791
 2267SOL     OW 7543   1.670   4.987   4.369
 2267SOL    HW1 7544   1.764   4.993   4.387
 2267SOL    HW2 7545   1.637   5.075   4.385
 2268SOL     OW 7546   1.394   4.296   3.795
 2268SOL    HW1 7547   1.333   4.276   3.866
 2268SOL    HW2 7548   1.478   4.264   3.827
 2269SOL     OW 7549   0.525   3.987   4.039
 2269SOL    HW1 7550   0.572   3.941   3.969
 2269SOL    HW2 7551   0.500   4.071   4.000
 2270SOL     OW 7552   1.750   4.960   5.296
 2270SOL    HW1 7553   1.836   4.918   5.297
 2270SOL    HW2 7554   1.770   5.053   5.307
 2271SOL     OW 7555   1.064   5.074   5.054
 2271SOL    HW1 7556   0.985   5.048   5.101
 2271SOL    HW2 7557   1.136   5.034   5.104
 2272SOL     OW 7558   1.128   4.927   4.831
 2272SOL    HW1 7559   1.079   4.968   4.902
 2272SOL    HW2 7560   1.081   4.950   4.751
 2273SOL     OW 7561   1.627   4.821   4.800
 2273SOL    HW1 7562   1.622   4.883   4.873
 2273SOL    HW2 7563   1.550   4.841   4.746
 2274SOL     OW 7564   0.919   3.819   5.119
 2274SOL    HW1 7565   0.941   3.801   5.028
 2274SOL    HW2 7566   0.998   3.859   5.156
 2275SOL     OW 7567   0.984   4.839   5.450
 2275SOL    HW1 7568   0.892   4.855   5.469
 2275SOL    HW2 7569   0.984   4.762   5.392
 2276SOL     OW 7570   0.704   4.782   4.096
 2276SOL    HW1 7571   0.692   4.766   4.189
 2276SOL    HW2 7572   0.782   4.732   4.072
 2277SOL     OW 7573   0.421   4.544   4.976
 2277SOL    HW1 7574   0.490   4.551   5.043
 2277SOL    HW2 7575   0.387   4.456   4.986
 2278SOL     OW 7576   1.264   4.100   5.001
 2278SOL    HW1 7577   1.297   4.178   5.046
 2278SOL    HW2 7578   1.174   4.122   4.979
 2279SOL     OW 7579   0.112   5.290   5.042
 2279SOL    HW1 7580   0.050   0.042   5.094
 2279SOL    HW2 7581   0.189   5.281   5.098
 2280SOL     OW 7582   0.344   4.830   4.208
 2280SOL    HW1 7583   0.344   4.909   4.153
 2280SOL    HW2 7584   0.346   4.757   4.146
 2281SOL     OW 7585   0.553   4.258   4.583
 2281SOL    HW1 7586   0.567   4.317   4.509
 2281SOL    HW2 7587   0.618   4.285   4.647
 2282SOL     OW 7588   1.261   5.079   4.109
 2282SOL    HW1 7589   1.318   5.145   4.149
 2282SOL    HW2 7590   1.173   5.102   4.139
 2283SOL     OW 7591   1.271   5.183   4.865
 2283SOL    HW1 7592   1.330   5.197   4.939
 2283SOL    HW2 7593   1.227   5.100   4.885
 2284SOL     OW 7594   1.581   4.345   4.205
 2284SOL    HW1 7595   1.532   4.397   4.269
 2284SOL    HW2 7596   1.625   4.410   4.150
 2285SOL     OW 7597   0.382   5.229   5.038
 2285SOL    HW1 7598   0.367   5.192   4.951
 2285SOL    HW2 7599   0.474   5.256   5.037
 2286SOL     OW 7600   0.415   4.466   5.326
 2286SOL    HW1 7601   0.477   4.511   5.269
 2286SOL    HW2 7602   0.453   4.379   5.339
 2287SOL     OW 7603   1.604   4.503   5.408
 2287SOL    HW1 7604   1.518   4.545   5.401
 2287SOL    HW2 7605   1.656   4.545   5.339
 2288SOL     OW 7606   0.996   3.851   5.479
 2288SOL    HW1 7607   1.053   3.923   5.453
 2288SOL    HW2 7608   1.044   3.772   5.453
 2289SOL     OW 7609   0.497   3.764   5.473
 2289SOL    HW1 7610   0.453   3.711   5.407
 2289SOL    HW2 7611   0.439   3.839   5.486
 2290SOL     OW 7612   0.586   4.597   4.757
 2290SOL    HW1 7613   0.616   4.688   4.756
 2290SOL    HW2 7614   0.529   4.591   4.833
 2291SOL     OW 7615   1.354   4.582   4.749
 2291SOL    HW1 7616   1.270   4.570   4.706
 2291SOL    HW2 7617   1.397   4.497   4.742
 2292SOL     OW 7618   1.203   4.252   3.989
 2292SOL    HW1 7619   1.211   4.174   4.044
 2292SOL    HW2 7620   1.160   4.316   4.046
 2293SOL     OW 7621   0.301   3.927   4.972
 2293SOL    HW1 7622   0.267   3.950   5.058
 2293SOL    HW2 7623   0.290   3.832   4.966
 2294SOL     OW 7624   0.043   5.021   4.999
 2294SOL    HW1 7625   0.073   4.972   5.076
 2294SOL    HW2 7626   0.043   5.112   5.027
 2295SOL     OW 7627   0.723   4.354   4.781
 2295SOL    HW1 7628   0.799   4.340   4.723
 2295SOL    HW2 7629   0.695   4.443   4.760
 2296SOL     OW 7630   1.736   4.684   5.578
 2296SOL    HW1 7631   1.691   4.619   5.523
 2296SOL    HW2 7632   1.676   4.699   5.651
 2297SOL     OW 7633   0.328   3.786   4.357
 2297SOL    HW1 7634   0.307   3.875   4.384
 2297SOL    HW2 7635   0.333   3.737   4.440
 2298SOL     OW 7636   1.619   4.099   4.089
 2298SOL    HW1 7637   1.646   4.035   4.154
 2298SOL    HW2 7638   1.596   4.177   4.140
 2299SOL     OW 7639   1.029   4.483   4.684
 2299SOL    HW1 7640   1.023   4.500   4.778
 2299SOL    HW2 7641   1.002   4.391   4.674
 2300SOL     OW 7642   1.854   5.213   5.306
 2300SOL    HW1 7643   1.843   5.292   5.252
 2300SOL    HW2 7644   1.924   5.235   5.367
 2301SOL     OW 7645   0.355   4.643   5.530
 2301SOL    HW1 7646   0.436   4.660   5.579
 2301SOL    HW2 7647   0.380   4.577   5.465
 2302SOL     OW 7648   1.528   3.997   3.851
 2302SOL    HW1 7649   1.463   3.932   3.878
 2302SOL    HW2 7650   1.561   4.032   3.933
 2303SOL     OW 7651   1.290   4.550   3.754
 2303SOL    HW1 7652   1.333   4.464   3.758
 2303SOL    HW2 7653   1.321   4.588   3.672
 2304SOL     OW 7654   1.057   5.082   4.545
 2304SOL    HW1 7655   1.063   4.995   4.504
 2304SOL    HW2 7656   1.145   5.120   4.534
 2305SOL     OW 7657   0.314   4.532   4.673
 2305SOL    HW1 7658   0.408   4.549   4.669
 2305SOL    HW2 7659   0.307   4.442   4.705
 2306SOL     OW 7660   0.334   4.250   4.740
 2306SOL    HW1 7661   0.299   4.162   4.726
 2306SOL    HW2 7662   0.409   4.256   4.680
 2307SOL     OW 7663   1.134   4.098   5.408
 2307SOL    HW1 7664   1.085   4.153   5.469
 2307SOL    HW2 7665   1.221   4.138   5.404
 2308SOL     OW 7666   1.162   3.925   5.195
 2308SOL    HW1 7667   1.150   3.988   5.266
 2308SOL    HW2 7668   1.201   3.976   5.124
 2309SOL     OW 7669   0.002   5.045   3.930
 2309SOL    HW1 7670   5.229   5.029   3.871
 2309SOL    HW2 7671   0.015   4.961   3.976
 2310SOL     OW 7672   0.979   4.514   4.949
 2310SOL    HW1 7673   1.037   4.493   5.023
 2310SOL    HW2 7674   0.895   4.475   4.973
 2311SOL     OW 7675   0.031   4.286   4.841
 2311SOL    HW1 7676   0.118   4.265   4.807
 2311SOL    HW2 7677   0.036   4.268   4.935
 2312SOL     OW 7678   0.173   4.238   5.436
 2312SOL    HW1 7679   0.236   4.198   5.376
 2312SOL    HW2 7680   0.147   4.319   5.394
 2313SOL     OW 7681   1.378   4.660   5.382
 2313SOL    HW1 7682   1.399   4.754   5.378
 2313SOL    HW2 7683   1.374   4.633   5.290
 2314SOL     OW 7684   0.817   4.293   4.086
 2314SOL    HW1 7685   0.822   4.219   4.026
 2314SOL    HW2 7686   0.743   4.345   4.055
 2315SOL     OW 7687   1.641   4.325   4.907
 2315SOL    HW1 7688   1.631   4.267   4.983
 2315SOL    HW2 7689   1.729   4.305   4.873
 2316SOL     OW 7690   0.208   5.277   5.455
 2316SOL    HW1 7691   0.168   0.019   5.531
 2316SOL    HW2 7692   0.212   5.185   5.478
 2317SOL     OW 7693   0.706   4.172   4.982
 2317SOL    HW1 7694   0.652   4.099   4.954
 2317SOL    HW2 7695   0.700   4.235   4.910
 2318SOL     OW 7696   0.464   4.217   3.907
 2318SOL    HW1 7697   0.524   4.287   3.931
 2318SOL    HW2 7698   0.380   4.261   3.893
 2319SOL     OW 7699   0.150   4.861   5.196
 2319SOL    HW1 7700   0.146   4.813   5.279
 2319SOL    HW2 7701   0.158   4.793   5.130
 2320SOL     OW 7702   1.325   4.768   4.945
 2320SOL    HW1 7703   1.347   4.705   4.876
 2320SOL    HW2 7704   1.256   4.821   4.907
 2321SOL     OW 7705   1.312   4.582   4.029
 2321SOL    HW1 7706   1.238   4.549   4.080
 2321SOL    HW2 7707   1.287   4.567   3.938
 2322SOL     OW 7708   0.074   4.912   4.755
 2322SOL    HW1 7709   0.064   4.955   4.840
 2322SOL    HW2 7710   5.288   4.919   4.714
 2323SOL     OW 7711   0.753   0.035   5.433
 2323SOL    HW1 7712   0.661   0.057   5.442
 2323SOL    HW2 7713   0.776   0.060   5.343
 2324SOL     OW 7714   1.721   3.874   4.233
 2324SOL    HW1 7715   1.792   3.858   4.170
 2324SOL    HW2 7716   1.705   3.788   4.272
 2325SOL     OW 7717   1.277   4.651   4.396
 2325SOL    HW1 7718   1.350   4.590   4.405
 2325SOL    HW2 7719   1.312   4.722   4.342
 2326SOL     OW 7720   0.815   4.993   5.139
 2326SOL    HW1 7721   0.783   5.028   5.222
 2326SOL    HW2 7722   0.740   4.998   5.079
 2327SOL     OW 7723   1.841   3.895   4.691
 2327SOL    HW1 7724   1.869   3.808   4.663
 2327SOL    HW2 7725   1.755   3.907   4.652
 2328SOL     OW 7726   0.273   4.041   4.441
 2328SOL    HW1 7727   0.188   4.079   4.422
 2328SOL    HW2 7728   0.274   4.030   4.536
 2329SOL     OW 7729   0.825   4.726   5.095
 2329SOL    HW1 7730   0.871   4.718   5.012
 2329SOL    HW2 7731   0.828   4.820   5.115
 2330SOL     OW 7732   0.916   4.636   4.015
 2330SOL    HW1 7733   0.976   4.669   3.948
 2330SOL    HW2 7734   0.964   4.567   4.060
 2331SOL     OW 7735   0.365   5.028   5.225
 2331SOL    HW1 7736   0.368   5.096   5.158
 2331SOL    HW2 7737   0.291   4.973   5.201
 2332SOL     OW 7738   1.612   5.004   5.006
 2332SOL    HW1 7739   1.668   4.996   5.083
 2332SOL    HW2 7740   1.549   5.072   5.029
 2333SOL     OW 7741   1.058   4.835   4.437
 2333SOL    HW1 7742   0.985   4.784   4.473
 2333SOL    HW2 7743   1.120   4.769   4.407
 2334SOL     OW 7744   1.023   3.965   4.690
 2334SOL    HW1 7745   1.018   3.918   4.607
 2334SOL    HW2 7746   1.017   3.897   4.757
 2335SOL     OW 7747   1.723   4.116   5.104
 2335SOL    HW1 7748   1.795   4.179   5.104
 2335SOL    HW2 7749   1.754   4.045   5.048
 2336SOL     OW 7750   0.260   5.058   4.013
 2336SOL    HW1 7751   0.167   5.061   3.988
 2336SOL    HW2 7752   0.262   5.098   4.100
 2337SOL     OW 7753   0.117   4.742   5.443
 2337SOL    HW1 7754   0.047   4.704   5.495
 2337SOL    HW2 7755   0.198   4.710   5.484
 2338SOL     OW 7756   0.675   3.920   5.224
 2338SOL    HW1 7757   0.759   3.899   5.183
 2338SOL    HW2 7758   0.698   3.952   5.311
 2339SOL     OW 7759   0.085   4.068   3.764
 2339SOL    HW1 7760   0.003   4.024   3.742
 2339SOL    HW2 7761   0.100   4.129   3.691
 2340SOL     OW 7762   1.428   4.581   5.123
 2340SOL    HW1 7763   1.379   4.642   5.068
 2340SOL    HW2 7764   1.518   4.584   5.088
 2341SOL     OW 7765   0.058   3.857   3.970
 2341SOL    HW1 7766   0.056   3.951   3.953
 2341SOL    HW2 7767   0.145   3.829   3.944
 2342SOL     OW 7768   1.182   5.062   3.845
 2342SOL    HW1 7769   1.091   5.033   3.846
 2342SOL    HW2 7770   1.210   5.054   3.936
 2343SOL     OW 7771   0.620   4.555   5.160
 2343SOL    HW1 7772   0.677   4.630   5.144
 2343SOL    HW2 7773   0.680   4.480   5.168
 2344SOL     OW 7774   0.718   4.287   5.427
 2344SOL    HW1 7775   0.761   4.348   5.487
 2344SOL    HW2 7776   0.741   4.200   5.460
 2345SOL     OW 7777   1.475   4.920   5.354
 2345SOL    HW1 7778   1.461   4.934   5.447
 2345SOL    HW2 7779   1.569   4.936   5.341
 2346SOL     OW 7780   1.668   4.605   4.979
 2346SOL    HW1 7781   1.662   4.520   4.935
 2346SOL    HW2 7782   1.657   4.668   4.908
 2347SOL     OW 7783   1.216   4.043   4.182
 2347SOL    HW1 7784   1.279   3.971   4.174
 2347SOL    HW2 7785   1.246   4.092   4.258
 2348SOL     OW 7786   0.589   4.460   4.394
 2348SOL    HW1 7787   0.628   4.546   4.379
 2348SOL    HW2 7788   0.521   4.453   4.328
 2349SOL     OW 7789   1.760   4.086   5.375
 2349SOL    HW1 7790   1.744   4.101   5.282
 2349SOL    HW2 7791   1.688   4.030   5.403
 2350SOL     OW 7792   1.746   4.657   5.235
 2350SOL    HW1 7793   1.738   4.752   5.248
 2350SOL    HW2 7794   1.730   4.644   5.142
 2351SOL     OW 7795   0.848   5.094   3.744
 2351SOL    HW1 7796   0.831   5.093   3.838
 2351SOL    HW2 7797   0.861   5.186   3.722
 2352SOL     OW 7798   0.870   4.693   4.577
 2352SOL    HW1 7799   0.918   4.620   4.617
 2352SOL    HW2 7800   0.833   4.741   4.652
 2353SOL     OW 7801   1.080   4.714   3.814
 2353SOL    HW1 7802   1.057   4.764   3.736
 2353SOL    HW2 7803   1.153   4.659   3.787
 2354SOL     OW 7804   0.218   5.022   5.579
 2354SOL    HW1 7805   0.156   4.953   5.561
 2354SOL    HW2 7806   0.216   5.032   5.674
 2355SOL     OW 7807   0.085   4.922   4.377
 2355SOL    HW1 7808   0.106   4.904   4.469
 2355SOL    HW2 7809   0.168   4.950   4.339
 2356SOL     OW 7810   0.674   5.101   5.334
 2356SOL    HW1 7811   0.595   5.072   5.380
 2356SOL    HW2 7812   0.707   5.174   5.386
 2357SOL     OW 7813   1.815   3.907   4.962
 2357SOL    HW1 7814   1.817   3.812   4.975
 2357SOL    HW2 7815   1.823   3.919   4.867
 2358SOL     OW 7816   0.437   4.160   4.248
 2358SOL    HW1 7817   0.464   4.087   4.192
 2358SOL    HW2 7818   0.388   4.118   4.320
 2359SOL     OW 7819   1.707   5.225   4.842
 2359SOL    HW1 7820   1.633   5.208   4.783
 2359SOL    HW2 7821   1.713   5.146   4.896
 2360SOL     OW 7822   0.339   4.286   5.016
 2360SOL    HW1 7823   0.391   4.226   5.069
 2360SOL    HW2 7824   0.351   4.255   4.926
 2361SOL     OW 7825   1.431   3.951   4.842
 2361SOL    HW1 7826   1.450   3.868   4.886
 2361SOL    HW2 7827   1.379   4.000   4.906
 2362SOL     OW 7828   1.009   3.742   4.864
 2362SOL    HW1 7829   0.954   3.675   4.823
 2362SOL    HW2 7830   1.097   3.703   4.866
 2363SOL     OW 7831   0.806   5.046   4.009
 2363SOL    HW1 7832   0.748   4.972   4.029
 2363SOL    HW2 7833   0.860   5.057   4.087
 2364SOL     OW 7834   0.642   0.004   5.014
 2364SOL    HW1 7835   0.644   0.058   5.093
 2364SOL    HW2 7836   0.734   5.287   4.994
 2365SOL     OW 7837   1.353   3.778   3.891
 2365SOL    HW1 7838   1.385   3.710   3.830
 2365SOL    HW2 7839   1.265   3.749   3.915
 2366SOL     OW 7840   1.297   4.186   4.404
 2366SOL    HW1 7841   1.243   4.265   4.410
 2366SOL    HW2 7842   1.292   4.147   4.491
 2367SOL     OW 7843   1.587   3.925   4.604
 2367SOL    HW1 7844   1.527   3.947   4.676
 2367SOL    HW2 7845   1.586   4.002   4.547
 2368SOL     OW 7846   0.048   4.788   4.013
 2368SOL    HW1 7847   0.138   4.756   4.005
 2368SOL    HW2 7848   0.001   4.717   4.054
 2369SOL     OW 7849   0.233   4.354   5.703
 2369SOL    HW1 7850   0.162   4.318   5.756
 2369SOL    HW2 7851   0.215   4.322   5.614
 2370SOL     OW 7852   0.244   3.999   6.574
 2370SOL    HW1 7853   0.257   3.964   6.663
 2370SOL    HW2 7854   0.159   3.965   6.547
 2371SOL     OW 7855   5.297   4.123   6.240
 2371SOL    HW1 7856   5.204   4.145   6.244
 2371SOL    HW2 7857   5.299   4.034   6.207
 2372SOL     OW 7858   0.577   5.003   6.773
 2372SOL    HW1 7859   0.497   5.008   6.720
 2372SOL    HW2 7860   0.595   5.094   6.797
 2373SOL     OW 7861   1.557   5.232   6.275
 2373SOL    HW1 7862   1.540   5.228   6.369
 2373SOL    HW2 7863   1.476   5.268   6.238
 2374SOL     OW 7864   1.131   4.422   6.285
 2374SOL    HW1 7865   1.179   4.504   6.272
 2374SOL    HW2 7866   1.084   4.435   6.367
 2375SOL     OW 7867   1.770   4.327   5.813
 2375SOL    HW1 7868   1.747   4.320   5.720
 2375SOL    HW2 7869   1.732   4.249   5.853
 2376SOL     OW 7870   0.756   4.865   6.624
 2376SOL    HW1 7871   0.691   4.896   6.687
 2376SOL    HW2 7872   0.785   4.945   6.579
 2377SOL     OW 7873   0.869   4.496   7.406
 2377SOL    HW1 7874   0.856   4.571   7.465
 2377SOL    HW2 7875   0.894   4.536   7.322
 2378SOL     OW 7876   0.685   4.724   6.233
 2378SOL    HW1 7877   0.751   4.714   6.301
 2378SOL    HW2 7878   0.618   4.779   6.272
 2379SOL     OW 7879   0.708   4.871   7.400
 2379SOL    HW1 7880   0.757   4.950   7.423
 2379SOL    HW2 7881   0.627   4.903   7.362
 2380SOL     OW 7882   0.378   5.147   6.639
 2380SOL    HW1 7883   0.284   5.159   6.627
 2380SOL    HW2 7884   0.418   5.194   6.566
 2381SOL     OW 7885   1.454   5.222   6.934
 2381SOL    HW1 7886   1.509   5.293   6.965
 2381SOL    HW2 7887   1.387   5.213   7.002
 2382SOL     OW 7888   0.452   4.124   7.076
 2382SOL    HW1 7889   0.526   4.064   7.079
 2382SOL    HW2 7890   0.375   4.068   7.088
 2383SOL     OW 7891   1.610   4.170   6.327
 2383SOL    HW1 7892   1.536   4.191   6.271
 2383SOL    HW2 7893   1.621   4.248   6.382
 2384SOL     OW 7894   1.133   5.073   7.288
 2384SOL    HW1 7895   1.164   5.072   7.378
 2384SOL    HW2 7896   1.079   4.994   7.280
 2385SOL     OW 7897   0.212   5.151   6.122
 2385SOL    HW1 7898   0.254   5.230   6.157
 2385SOL    HW2 7899   0.128   5.146   6.169
 2386SOL     OW 7900   0.254   4.797   6.461
 2386SOL    HW1 7901   0.266   4.710   6.497
 2386SOL    HW2 7902   0.197   4.842   6.523
 2387SOL     OW 7903   0.580   4.707   5.723
 2387SOL    HW1 7904   0.629   4.753   5.654
 2387SOL    HW2 7905   0.620   4.737   5.804
 2388SOL     OW 7906   1.596   3.849   7.053
 2388SOL    HW1 7907   1.609   3.930   7.003
 2388SOL    HW2 7908   1.579   3.878   7.142
 2389SOL     OW 7909   0.127   4.354   6.165
 2389SOL    HW1 7910   0.088   4.272   6.198
 2389SOL    HW2 7911   0.100   4.420   6.229
 2390SOL     OW 7912   5.299   5.297   5.668
 2390SOL    HW1 7913   0.012   5.209   5.703
 2390SOL    HW2 7914   0.027   0.056   5.738
 2391SOL     OW 7915   1.689   4.642   6.228
 2391SOL    HW1 7916   1.771   4.599   6.206
 2391SOL    HW2 7917   1.667   4.693   6.150
 2392SOL     OW 7918   1.647   4.829   6.015
 2392SOL    HW1 7919   1.733   4.832   5.973
 2392SOL    HW2 7920   1.653   4.891   6.088
 2393SOL     OW 7921   0.133   4.471   7.172
 2393SOL    HW1 7922   0.228   4.486   7.169
 2393SOL    HW2 7923   0.095   4.558   7.184
 2394SOL     OW 7924   0.627   5.098   6.324
 2394SOL    HW1 7925   0.571   5.021   6.322
 2394SOL    HW2 7926   0.604   5.147   6.246
 2395SOL     OW 7927   1.288   4.953   7.012
 2395SOL    HW1 7928   1.322   4.887   6.951
 2395SOL    HW2 7929   1.349   4.950   7.086
 2396SOL     OW 7930   0.825   3.725   6.097
 2396SOL    HW1 7931   0.865   3.809   6.076
 2396SOL    HW2 7932   0.731   3.743   6.102
 2397SOL     OW 7933   0.173   4.664   6.870
 2397SOL    HW1 7934   0.262   4.632   6.857
 2397SOL    HW2 7935   0.135   4.662   6.782
 2398SOL     OW 7936   1.530   4.721   5.784
 2398SOL    HW1 7937   1.461   4.664   5.817
 2398SOL    HW2 7938   1.572   4.755   5.863
 2399SOL     OW 7939   0.342   3.977   7.406
 2399SOL    HW1 7940   0.386   4.060   7.421
 2399SOL    HW2 7941   0.253   3.991   7.439
 2400SOL     OW 7942   1.478   5.148   6.547
 2400SOL    HW1 7943   1.406   5.160   6.608
 2400SOL    HW2 7944   1.466   5.059   6.513
 2401SOL     OW 7945   0.595   4.444   5.854
 2401SOL    HW1 7946   0.601   4.526   5.805
 2401SOL    HW2 7947   0.530   4.462   5.922
 2402SOL     OW 7948   1.279   4.081   6.519
 2402SOL    HW1 7949   1.189   4.047   6.528
 2402SOL    HW2 7950   1.330   4.027   6.579
 2403SOL     OW 7951   0.791   4.342   7.036
 2403SOL    HW1 7952   0.765   4.317   7.125
 2403SOL    HW2 7953   0.753   4.274   6.980
 2404SOL     OW 7954   1.394   4.198   7.263
 2404SOL    HW1 7955   1.397   4.243   7.348
 2404SOL    HW2 7956   1.453   4.123   7.273
 2405SOL     OW 7957   0.954   4.611   7.169
 2405SOL    HW1 7958   1.008   4.541   7.133
 2405SOL    HW2 7959   0.905   4.645   7.094
 2406SOL     OW 7960   0.992   4.137   6.823
 2406SOL    HW1 7961   0.905   4.155   6.857
 2406SOL    HW2 7962   0.976   4.090   6.741
 2407SOL     OW 7963   1.052   4.422   6.011
 2407SOL    HW1 7964   1.068   4.415   6.105
 2407SOL    HW2 7965   0.969   4.376   5.998
 2408SOL     OW 7966   0.071   4.511   6.395
 2408SOL    HW1 7967   0.150   4.515   6.447
 2408SOL    HW2 7968   0.065   4.596   6.353
 2409SOL     OW 7969   0.896   4.074   5.781
 2409SOL    HW1 7970   0.935   4.136   5.720
 2409SOL    HW2 7971   0.909   3.988   5.739
 2410SOL     OW 7972   1.708   4.298   7.416
 2410SOL    HW1 7973   1.670   4.371   7.367
 2410SOL    HW2 7974   1.735   4.236   7.348
 2411SOL     OW 7975   1.379   4.863   6.124
 2411SOL    HW1 7976   1.460   4.850   6.076
 2411SOL    HW2 7977   1.329   4.924   6.070
 2412SOL     OW 7978   0.558   3.906   6.481
 2412SOL    HW1 7979   0.554   3.935   6.572
 2412SOL    HW2 7980   0.551   3.987   6.430
 2413SOL     OW 7981   1.022   5.167   6.059
 2413SOL    HW1 7982   0.947   5.226   6.058
 2413SOL    HW2 7983   1.038   5.150   6.152
 2414SOL     OW 7984   1.801   4.779   6.453
 2414SOL    HW1 7985   1.745   4.760   6.378
 2414SOL    HW2 7986   1.741   4.787   6.527
 2415SOL     OW 7987   1.251   5.240   7.112
 2415SOL    HW1 7988   1.215   5.173   7.170
 2415SOL    HW2 7989   1.178   5.264   7.055
 2416SOL     OW 7990   0.315   4.676   5.834
 2416SOL    HW1 7991   0.397   4.698   5.790
 2416SOL    HW2 7992   0.292   4.589   5.800
 2417SOL     OW 7993   1.479   4.469   6.312
 2417SOL    HW1 7994   1.473   4.427   6.397
 2417SOL    HW2 7995   1.558   4.524   6.317
 2418SOL     OW 7996   0.462   4.989   7.331
 2418SOL    HW1 7997   0.437   4.992   7.239
 2418SOL    HW2 7998   0.379   4.989   7.379
 2419SOL     OW 7999   1.061   0.176   5.790
 2419SOL    HW1 8000   1.085   0.105   5.849
 2419SOL    HW2 8001   1.091   0.147   5.704
 2420SOL     OW 8002   0.205   4.002   7.084
 2420SOL    HW1 8003   0.127   4.053   7.065
 2420SOL    HW2 8004   0.172   3.921   7.123
 2421SOL     OW 8005   1.621   5.102   5.696
 2421SOL    HW1 8006   1.626   5.173   5.632
 2421SOL    HW2 8007   1.554   5.043   5.662
 2422SOL     OW 8008   1.401   3.831   6.021
 2422SOL    HW1 8009   1.392   3.806   5.929
 2422SOL    HW2 8010   1.495   3.837   6.035
 2423SOL     OW 8011   0.387   4.419   6.064
 2423SOL    HW1 8012   0.415   4.328   6.074
 2423SOL    HW2 8013   0.293   4.417   6.084
 2424SOL     OW 8014   1.532   3.949   7.311
 2424SOL    HW1 8015   1.542   3.970   7.404
 2424SOL    HW2 8016   1.464   3.882   7.309
 2425SOL     OW 8017   0.638   3.845   5.689
 2425SOL    HW1 8018   0.703   3.777   5.704
 2425SOL    HW2 8019   0.587   3.815   5.614
 2426SOL     OW 8020   0.765   4.002   7.341
 2426SOL    HW1 8021   0.843   3.946   7.340
 2426SOL    HW2 8022   0.722   3.982   7.424
 2427SOL     OW 8023   1.339   4.313   7.018
 2427SOL    HW1 8024   1.371   4.282   7.103
 2427SOL    HW2 8025   1.376   4.401   7.010
 2428SOL     OW 8026   0.816   5.117   6.524
 2428SOL    HW1 8027   0.896   5.104   6.473
 2428SOL    HW2 8028   0.746   5.124   6.458
 2429SOL     OW 8029   0.929   4.234   6.488
 2429SOL    HW1 8030   0.905   4.225   6.396
 2429SOL    HW2 8031   0.958   4.146   6.513
 2430SOL     OW 8032   0.562   3.785   6.080
 2430SOL    HW1 8033   0.487   3.785   6.140
 2430SOL    HW2 8034   0.550   3.864   6.027
 2431SOL     OW 8035   1.428   4.925   5.623
 2431SOL    HW1 8036   1.457   4.849   5.674
 2431SOL    HW2 8037   1.340   4.943   5.656
 2432SOL     OW 8038   0.306   3.771   5.764
 2432SOL    HW1 8039   0.368   3.835   5.729
 2432SOL    HW2 8040   0.361   3.707   5.810
 2433SOL     OW 8041   0.941   3.972   6.044
 2433SOL    HW1 8042   0.915   4.013   5.961
 2433SOL    HW2 8043   1.036   3.988   6.049
 2434SOL     OW 8044   1.080   4.406   7.045
 2434SOL    HW1 8045   1.012   4.338   7.049
 2434SOL    HW2 8046   1.162   4.357   7.038
 2435SOL     OW 8047   1.264   5.266   6.363
 2435SOL    HW1 8048   1.216   0.045   6.340
 2435SOL    HW2 8049   1.310   5.289   6.444
 2436SOL     OW 8050   0.466   4.874   6.311
 2436SOL    HW1 8051   0.399   4.853   6.376
 2436SOL    HW2 8052   0.426   4.855   6.227
 2437SOL     OW 8053   1.023   4.263   5.610
 2437SOL    HW1 8054   0.980   4.347   5.590
 2437SOL    HW2 8055   1.088   4.285   5.677
 2438SOL     OW 8056   0.090   4.266   6.986
 2438SOL    HW1 8057   0.177   4.275   6.948
 2438SOL    HW2 8058   0.080   4.343   7.042
 2439SOL     OW 8059   0.560   3.952   6.754
 2439SOL    HW1 8060   0.598   3.873   6.792
 2439SOL    HW2 8061   0.468   3.951   6.781
 2440SOL     OW 8062   0.868   4.183   6.225
 2440SOL    HW1 8063   0.822   4.237   6.161
 2440SOL    HW2 8064   0.889   4.103   6.177
 2441SOL     OW 8065   1.016   3.777   6.336
 2441SOL    HW1 8066   0.957   3.770   6.260
 2441SOL    HW2 8067   0.994   3.703   6.391
 2442SOL     OW 8068   1.439   4.890   6.445
 2442SOL    HW1 8069   1.372   4.822   6.442
 2442SOL    HW2 8070   1.465   4.902   6.354
 2443SOL     OW 8071   1.466   4.331   6.560
 2443SOL    HW1 8072   1.413   4.251   6.563
 2443SOL    HW2 8073   1.525   4.324   6.635
 2444SOL     OW 8074   1.844   4.538   5.969
 2444SOL    HW1 8075   1.901   4.487   6.028
 2444SOL    HW2 8076   1.817   4.475   5.902
 2445SOL     OW 8077   0.480   5.146   5.734
 2445SOL    HW1 8078   0.421   5.095   5.789
 2445SOL    HW2 8079   0.487   5.096   5.653
 2446SOL     OW 8080   1.670   4.987   6.231
 2446SOL    HW1 8081   1.764   4.993   6.249
 2446SOL    HW2 8082   1.637   5.075   6.247
 2447SOL     OW 8083   1.394   4.296   5.657
 2447SOL    HW1 8084   1.332   4.276   5.728
 2447SOL    HW2 8085   1.478   4.264   5.690
 2448SOL     OW 8086   0.524   3.987   5.901
 2448SOL    HW1 8087   0.572   3.941   5.831
 2448SOL    HW2 8088   0.500   4.071   5.862
 2449SOL     OW 8089   1.750   4.960   7.157
 2449SOL    HW1 8090   1.835   4.917   7.159
 2449SOL    HW2 8091   1.769   5.053   7.169
 2450SOL     OW 8092   1.064   5.074   6.916
 2450SOL    HW1 8093   0.985   5.048   6.963
 2450SOL    HW2 8094   1.136   5.034   6.966
 2451SOL     OW 8095   1.128   4.927   6.693
 2451SOL    HW1 8096   1.079   4.968   6.764
 2451SOL    HW2 8097   1.081   4.950   6.613
 2452SOL     OW 8098   1.627   4.821   6.662
 2452SOL    HW1 8099   1.622   4.883   6.735
 2452SOL    HW2 8100   1.550   4.841   6.609
 2453SOL     OW 8101   0.918   3.819   6.981
 2453SOL    HW1 8102   0.941   3.801   6.890
 2453SOL    HW2 8103   0.998   3.859   7.018
 2454SOL     OW 8104   0.985   4.838   7.314
 2454SOL    HW1 8105   0.892   4.855   7.331
 2454SOL    HW2 8106   0.985   4.762   7.256
 2455SOL     OW 8107   0.704   4.782   5.958
 2455SOL    HW1 8108   0.692   4.766   6.051
 2455SOL    HW2 8109   0.781   4.732   5.934
 2456SOL     OW 8110   0.421   4.544   6.839
 2456SOL    HW1 8111   0.490   4.551   6.905
 2456SOL    HW2 8112   0.387   4.456   6.848
 2457SOL     OW 8113   1.264   4.100   6.863
 2457SOL    HW1 8114   1.297   4.178   6.908
 2457SOL    HW2 8115   1.174   4.122   6.841
 2458SOL     OW 8116   0.112   5.290   6.904
 2458SOL    HW1 8117   0.051   0.042   6.956
 2458SOL    HW2 8118   0.190   5.282   6.960
 2459SOL     OW 8119   0.344   4.830   6.070
 2459SOL    HW1 8120   0.344   4.909   6.016
 2459SOL    HW2 8121   0.346   4.757   6.008
 2460SOL     OW 8122   0.553   4.258   6.445
 2460SOL    HW1 8123   0.567   4.317   6.371
 2460SOL    HW2 8124   0.618   4.284   6.509
 2461SOL     OW 8125   1.261   5.079   5.971
 2461SOL    HW1 8126   1.318   5.145   6.011
 2461SOL    HW2 8127   1.173   5.102   6.001
 2462SOL     OW 8128   1.271   5.183   6.727
 2462SOL    HW1 8129   1.330   5.197   6.801
 2462SOL    HW2 8130   1.228   5.100   6.747
 2463SOL     OW 8131   1.580   4.346   6.066
 2463SOL    HW1 8132   1.532   4.396   6.132
 2463SOL    HW2 8133   1.625   4.411   6.013
 2464SOL     OW 8134   0.383   5.229   6.900
 2464SOL    HW1 8135   0.368   5.192   6.813
 2464SOL    HW2 8136   0.474   5.256   6.899
 2465SOL     OW 8137   0.415   4.466   7.188
 2465SOL    HW1 8138   0.477   4.511   7.131
 2465SOL    HW2 8139   0.453   4.379   7.200
 2466SOL     OW 8140   1.604   4.504   7.270
 2466SOL    HW1 8141   1.518   4.545   7.263
 2466SOL    HW2 8142   1.656   4.545   7.202
 2467SOL     OW 8143   0.996   3.851   7.339
 2467SOL    HW1 8144   1.054   3.923   7.314
 2467SOL    HW2 8145   1.044   3.772   7.315
 2468SOL     OW 8146   0.498   3.763   7.334
 2468SOL    HW1 8147   0.454   3.710   7.268
 2468SOL    HW2 8148   0.441   3.839   7.347
 2469SOL     OW 8149   0.586   4.597   6.618
 2469SOL    HW1 8150   0.616   4.688   6.618
 2469SOL    HW2 8151   0.529   4.592   6.695
 2470SOL     OW 8152   1.354   4.582   6.611
 2470SOL    HW1 8153   1.270   4.569   6.568
 2470SOL    HW2 8154   1.397   4.497   6.605
 2471SOL     OW 8155   1.203   4.252   5.851
 2471SOL    HW1 8156   1.211   4.174   5.906
 2471SOL    HW2 8157   1.160   4.316   5.907
 2472SOL     OW 8158   0.301   3.927   6.834
 2472SOL    HW1 8159   0.268   3.950   6.921
 2472SOL    HW2 8160   0.290   3.832   6.828
 2473SOL     OW 8161   0.043   5.021   6.861
 2473SOL    HW1 8162   0.073   4.972   6.938
 2473SOL    HW2 8163   0.043   5.112   6.889
 2474SOL     OW 8164   0.723   4.354   6.642
 2474SOL    HW1 8165   0.799   4.339   6.585
 2474SOL    HW2 8166   0.695   4.443   6.622
 2475SOL     OW 8167   1.736   4.685   7.439
 2475SOL    HW1 8168   1.690   4.620   7.386
 2475SOL    HW2 8169   1.679   4.700   7.514
 2476SOL     OW 8170   0.328   3.786   6.219
 2476SOL    HW1 8171   0.307   3.876   6.246
 2476SOL    HW2 8172   0.333   3.737   6.302
 2477SOL     OW 8173   1.619   4.100   5.950
 2477SOL    HW1 8174   1.646   4.035   6.016
 2477SOL    HW2 8175   1.596   4.177   6.002
 2478SOL     OW 8176   1.028   4.483   6.546
 2478SOL    HW1 8177   1.023   4.500   6.640
 2478SOL    HW2 8178   1.002   4.391   6.537
 2479SOL     OW 8179   1.853   5.213   7.166
 2479SOL    HW1 8180   1.843   5.291   7.113
 2479SOL    HW2 8181   1.924   5.234   7.227
 2480SOL     OW 8182   0.355   4.641   7.393
 2480SOL    HW1 8183   0.436   4.660   7.439
 2480SOL    HW2 8184   0.380   4.576   7.327
 2481SOL     OW 8185   1.528   3.996   5.713
 2481SOL    HW1 8186   1.463   3.931   5.740
 2481SOL    HW2 8187   1.562   4.032   5.795
 2482SOL     OW 8188   1.290   4.549   5.616
 2482SOL    HW1 8189   1.333   4.464   5.620
 2482SOL    HW2 8190   1.321   4.588   5.534
 2483SOL     OW 8191   1.057   5.082   6.407
 2483SOL    HW1 8192   1.063   4.995   6.366
 2483SOL    HW2 8193   1.145   5.120   6.396
 2484SOL     OW 8194   0.314   4.532   6.535
 2484SOL    HW1 8195   0.408   4.549   6.531
 2484SOL    HW2 8196   0.307   4.442   6.567
 2485SOL     OW 8197   0.334   4.251   6.602
 2485SOL    HW1 8198   0.299   4.163   6.588
 2485SOL    HW2 8199   0.409   4.256   6.543
 2486SOL     OW 8200   1.135   4.098   7.268
 2486SOL    HW1 8201   1.086   4.153   7.330
 2486SOL    HW2 8202   1.222   4.138   7.264
 2487SOL     OW 8203   1.161   3.925   7.056
 2487SOL    HW1 8204   1.150   3.987   7.127
 2487SOL    HW2 8205   1.202   3.976   6.986
 2488SOL     OW 8206   0.002   5.045   5.792
 2488SOL    HW1 8207   5.229   5.029   5.733
 2488SOL    HW2 8208   0.015   4.961   5.838
 2489SOL     OW 8209   0.979   4.515   6.812
 2489SOL    HW1 8210   1.037   4.493   6.885
 2489SOL    HW2 8211   0.895   4.474   6.835
 2490SOL     OW 8212   0.031   4.287   6.703
 2490SOL    HW1 8213   0.118   4.265   6.669
 2490SOL    HW2 8214   0.036   4.268   6.797
 2491SOL     OW 8215   0.173   4.237   7.303
 2491SOL    HW1 8216   0.234   4.194   7.242
 2491SOL    HW2 8217   0.148   4.318   7.259
 2492SOL     OW 8218   1.377   4.661   7.244
 2492SOL    HW1 8219   1.398   4.754   7.240
 2492SOL    HW2 8220   1.374   4.633   7.152
 2493SOL     OW 8221   0.817   4.294   5.948
 2493SOL    HW1 8222   0.822   4.219   5.888
 2493SOL    HW2 8223   0.743   4.345   5.917
 2494SOL     OW 8224   1.641   4.325   6.770
 2494SOL    HW1 8225   1.631   4.267   6.845
 2494SOL    HW2 8226   1.729   4.306   6.736
 2495SOL     OW 8227   0.207   5.277   7.318
 2495SOL    HW1 8228   0.153   0.013   7.389
 2495SOL    HW2 8229   0.215   5.184   7.340
 2496SOL     OW 8230   0.706   4.172   6.844
 2496SOL    HW1 8231   0.652   4.099   6.816
 2496SOL    HW2 8232   0.700   4.235   6.772
 2497SOL     OW 8233   0.464   4.217   5.769
 2497SOL    HW1 8234   0.524   4.287   5.793
 2497SOL    HW2 8235   0.380   4.261   5.755
 2498SOL     OW 8236   0.150   4.861   7.058
 2498SOL    HW1 8237   0.146   4.813   7.141
 2498SOL    HW2 8238   0.159   4.793   6.991
 2499SOL     OW 8239   1.325   4.768   6.807
 2499SOL    HW1 8240   1.347   4.705   6.738
 2499SOL    HW2 8241   1.256   4.821   6.769
 2500SOL     OW 8242   1.312   4.582   5.891
 2500SOL    HW1 8243   1.238   4.549   5.942
 2500SOL    HW2 8244   1.287   4.568   5.800
 2501SOL     OW 8245   0.074   4.912   6.617
 2501SOL    HW1 8246   0.063   4.955   6.702
 2501SOL    HW2 8247   5.288   4.919   6.575
 2502SOL     OW 8248   0.753   0.033   7.297
 2502SOL    HW1 8249   0.660   0.057   7.305
 2502SOL    HW2 8250   0.777   0.060   7.209
 2503SOL     OW 8251   1.720   3.873   6.094
 2503SOL    HW1 8252   1.792   3.858   6.033
 2503SOL    HW2 8253   1.704   3.788   6.134
 2504SOL     OW 8254   1.277   4.651   6.258
 2504SOL    HW1 8255   1.350   4.590   6.267
 2504SOL    HW2 8256   1.312   4.722   6.204
 2505SOL     OW 8257   0.815   4.993   7.001
 2505SOL    HW1 8258   0.783   5.028   7.083
 2505SOL    HW2 8259   0.741   4.998   6.941
 2506SOL     OW 8260   1.841   3.896   6.552
 2506SOL    HW1 8261   1.870   3.809   6.527
 2506SOL    HW2 8262   1.755   3.906   6.513
 2507SOL     OW 8263   0.273   4.041   6.303
 2507SOL    HW1 8264   0.188   4.079   6.284
 2507SOL    HW2 8265   0.274   4.030   6.398
 2508SOL     OW 8266   0.825   4.726   6.957
 2508SOL    HW1 8267   0.871   4.717   6.874
 2508SOL    HW2 8268   0.828   4.820   6.976
 2509SOL     OW 8269   0.916   4.636   5.877
 2509SOL    HW1 8270   0.976   4.669   5.810
 2509SOL    HW2 8271   0.964   4.567   5.922
 2510SOL     OW 8272   0.365   5.029   7.088
 2510SOL    HW1 8273   0.368   5.097   7.021
 2510SOL    HW2 8274   0.291   4.974   7.063
 2511SOL     OW 8275   1.612   5.004   6.868
 2511SOL    HW1 8276   1.668   4.995   6.945
 2511SOL    HW2 8277   1.549   5.072   6.891
 2512SOL     OW 8278   1.058   4.835   6.299
 2512SOL    HW1 8279   0.985   4.784   6.335
 2512SOL    HW2 8280   1.120   4.769   6.269
 2513SOL     OW 8281   1.022   3.965   6.552
 2513SOL    HW1 8282   1.018   3.918   6.469
 2513SOL    HW2 8283   1.017   3.897   6.619
 2514SOL     OW 8284   1.724   4.116   6.967
 2514SOL    HW1 8285   1.796   4.179   6.966
 2514SOL    HW2 8286   1.753   4.045   6.910
 2515SOL     OW 8287   0.260   5.058   5.875
 2515SOL    HW1 8288   0.167   5.061   5.850
 2515SOL    HW2 8289   0.262   5.098   5.962
 2516SOL     OW 8290   0.118   4.743   7.306
 2516SOL    HW1 8291   0.047   4.705   7.357
 2516SOL    HW2 8292   0.197   4.709   7.346
 2517SOL     OW 8293   0.675   3.920   7.086
 2517SOL    HW1 8294   0.759   3.899   7.045
 2517SOL    HW2 8295   0.697   3.951   7.173
 2518SOL     OW 8296   0.085   4.069   5.626
 2518SOL    HW1 8297   0.004   4.024   5.604
 2518SOL    HW2 8298   0.100   4.129   5.553
 2519SOL     OW 8299   1.428   4.582   6.985
 2519SOL    HW1 8300   1.379   4.642   6.930
 2519SOL    HW2 8301   1.517   4.584   6.951
 2520SOL     OW 8302   0.057   3.857   5.832
 2520SOL    HW1 8303   0.056   3.951   5.815
 2520SOL    HW2 8304   0.145   3.829   5.806
 2521SOL     OW 8305   1.182   5.062   5.707
 2521SOL    HW1 8306   1.091   5.033   5.708
 2521SOL    HW2 8307   1.210   5.054   5.798
 2522SOL     OW 8308   0.620   4.555   7.023
 2522SOL    HW1 8309   0.677   4.630   7.005
 2522SOL    HW2 8310   0.679   4.480   7.030
 2523SOL     OW 8311   0.717   4.286   7.290
 2523SOL    HW1 8312   0.760   4.347   7.350
 2523SOL    HW2 8313   0.741   4.199   7.322
 2524SOL     OW 8314   1.475   4.920   7.217
 2524SOL    HW1 8315   1.462   4.934   7.311
 2524SOL    HW2 8316   1.569   4.935   7.203
 2525SOL     OW 8317   1.668   4.605   6.841
 2525SOL    HW1 8318   1.662   4.519   6.798
 2525SOL    HW2 8319   1.658   4.668   6.770
 2526SOL     OW 8320   1.217   4.043   6.043
 2526SOL    HW1 8321   1.279   3.971   6.036
 2526SOL    HW2 8322   1.246   4.092   6.120
 2527SOL     OW 8323   0.589   4.460   6.256
 2527SOL    HW1 8324   0.628   4.546   6.241
 2527SOL    HW2 8325   0.520   4.453   6.190
 2528SOL     OW 8326   1.759   4.087   7.239
 2528SOL    HW1 8327   1.744   4.103   7.145
 2528SOL    HW2 8328   1.688   4.030   7.265
 2529SOL     OW 8329   1.746   4.657   7.097
 2529SOL    HW1 8330   1.738   4.752   7.110
 2529SOL    HW2 8331   1.730   4.644   7.004
 2530SOL     OW 8332   0.848   5.094   5.606
 2530SOL    HW1 8333   0.831   5.093   5.700
 2530SOL    HW2 8334   0.860   5.186   5.584
 2531SOL     OW 8335   0.869   4.693   6.439
 2531SOL    HW1 8336   0.918   4.620   6.479
 2531SOL    HW2 8337   0.833   4.740   6.514
 2532SOL     OW 8338   1.080   4.714   5.676
 2532SOL    HW1 8339   1.057   4.764   5.598
 2532SOL    HW2 8340   1.153   4.659   5.649
 2533SOL     OW 8341   0.218   5.021   7.442
 2533SOL    HW1 8342   0.156   4.952   7.420
 2533SOL    HW2 8343   0.208   5.033   7.537
 2534SOL     OW 8344   0.085   4.922   6.239
 2534SOL    HW1 8345   0.106   4.904   6.331
 2534SOL    HW2 8346   0.168   4.950   6.201
 2535SOL     OW 8347   0.673   5.101   7.196
 2535SOL    HW1 8348   0.594   5.073   7.242
 2535SOL    HW2 8349   0.706   5.174   7.247
 2536SOL     OW 8350   1.812   3.908   6.823
 2536SOL    HW1 8351   1.821   3.813   6.837
 2536SOL    HW2 8352   1.822   3.919   6.729
 2537SOL     OW 8353   0.437   4.160   6.110
 2537SOL    HW1 8354   0.464   4.087   6.054
 2537SOL    HW2 8355   0.388   4.118   6.182
 2538SOL     OW 8356   1.706   5.225   6.705
 2538SOL    HW1 8357   1.633   5.208   6.646
 2538SOL    HW2 8358   1.713   5.146   6.758
 2539SOL     OW 8359   0.339   4.285   6.878
 2539SOL    HW1 8360   0.391   4.226   6.931
 2539SOL    HW2 8361   0.351   4.255   6.788
 2540SOL     OW 8362   1.431   3.951   6.703
 2540SOL    HW1 8363   1.454   3.869   6.748
 2540SOL    HW2 8364   1.380   4.000   6.767
 2541SOL     OW 8365   1.009   3.742   6.726
 2541SOL    HW1 8366   0.954   3.675   6.685
 2541SOL    HW2 8367   1.097   3.703   6.728
 2542SOL     OW 8368   0.806   5.046   5.871
 2542SOL    HW1 8369   0.748   4.972   5.891
 2542SOL    HW2 8370   0.860   5.057   5.949
 2543SOL     OW 8371   0.642   0.004   6.876
 2543SOL    HW1 8372   0.645   0.058   6.955
 2543SOL    HW2 8373   0.734   5.287   6.855
 2544SOL     OW 8374   1.353   3.777   5.753
 2544SOL    HW1 8375   1.384   3.710   5.691
 2544SOL    HW2 8376   1.265   3.749   5.778
 2545SOL     OW 8377   1.296   4.186   6.266
 2545SOL    HW1 8378   1.243   4.265   6.272
 2545SOL    HW2 8379   1.292   4.147   6.353
 2546SOL     OW 8380   1.586   3.924   6.465
 2546SOL    HW1 8381   1.527   3.946   6.538
 2546SOL    HW2 8382   1.585   4.001   6.409
 2547SOL     OW 8383   0.048   4.789   5.875
 2547SOL    HW1 8384   0.138   4.756   5.867
 2547SOL    HW2 8385   0.000   4.716   5.916
 2548SOL     OW 8386   0.228   4.353   7.567
 2548SOL    HW1 8387   0.158   4.308   7.614
 2548SOL    HW2 8388   0.218   4.326   7.476
 2549SOL     OW 8389   1.768   4.320   7.679
 2549SOL    HW1 8390   1.747   4.316   7.585
 2549SOL    HW2 8391   1.728   4.242   7.716
 2550SOL     OW 8392   0.280   0.133   7.960
 2550SOL    HW1 8393   0.237   0.207   8.002
 2550SOL    HW2 8394   0.286   0.157   7.868
 2551SOL     OW 8395   0.227   5.160   7.991
 2551SOL    HW1 8396   0.239   5.255   7.993
 2551SOL    HW2 8397   0.155   5.143   8.053
 2552SOL     OW 8398   0.580   4.708   7.583
 2552SOL    HW1 8399   0.627   4.754   7.513
 2552SOL    HW2 8400   0.621   4.739   7.664
 2553SOL     OW 8401   0.001   5.297   7.522
 2553SOL    HW1 8402   0.014   5.209   7.560
 2553SOL    HW2 8403   0.021   0.057   7.594
 2554SOL     OW 8404   1.681   4.587   8.031
 2554SOL    HW1 8405   1.759   4.598   0.006
 2554SOL    HW2 8406   1.669   4.672   7.989
 2555SOL     OW 8407   1.658   4.824   7.877
 2555SOL    HW1 8408   1.746   4.843   7.847
 2555SOL    HW2 8409   1.636   4.896   7.936
 2556SOL     OW 8410   0.799   3.720   7.937
 2556SOL    HW1 8411   0.849   3.800   7.920
 2556SOL    HW2 8412   0.708   3.750   7.947
 2557SOL     OW 8413   1.532   4.723   7.649
 2557SOL    HW1 8414   1.466   4.663   7.684
 2557SOL    HW2 8415   1.577   4.756   7.727
 2558SOL     OW 8416   0.588   4.447   7.709
 2558SOL    HW1 8417   0.593   4.530   7.661
 2558SOL    HW2 8418   0.535   4.467   7.786
 2559SOL     OW 8419   0.053   4.543   0.198
 2559SOL    HW1 8420   0.121   4.483   0.167
 2559SOL    HW2 8421   0.032   4.597   0.121
 2560SOL     OW 8422   0.886   4.073   7.639
 2560SOL    HW1 8423   0.927   4.132   7.576
 2560SOL    HW2 8424   0.918   3.986   7.614
 2561SOL     OW 8425   0.315   4.671   7.693
 2561SOL    HW1 8426   0.396   4.697   7.650
 2561SOL    HW2 8427   0.294   4.586   7.654
 2562SOL     OW 8428   1.082   0.191   7.643
 2562SOL    HW1 8429   1.066   0.122   7.707
 2562SOL    HW2 8430   1.084   0.145   7.559
 2563SOL     OW 8431   1.626   5.101   7.552
 2563SOL    HW1 8432   1.616   5.177   7.496
 2563SOL    HW2 8433   1.557   5.041   7.524
 2564SOL     OW 8434   1.418   3.858   7.864
 2564SOL    HW1 8435   1.406   3.822   7.776
 2564SOL    HW2 8436   1.512   3.856   7.878
 2565SOL     OW 8437   0.378   4.424   7.923
 2565SOL    HW1 8438   0.395   4.330   7.929
 2565SOL    HW2 8439   0.284   4.432   7.933
 2566SOL     OW 8440   0.631   3.842   7.558
 2566SOL    HW1 8441   0.703   3.780   7.569
 2566SOL    HW2 8442   0.586   3.812   7.479
 2567SOL     OW 8443   0.525   3.802   7.961
 2567SOL    HW1 8444   0.438   3.807   7.999
 2567SOL    HW2 8445   0.527   3.871   7.895
 2568SOL     OW 8446   1.428   4.926   7.487
 2568SOL    HW1 8447   1.457   4.851   7.539
 2568SOL    HW2 8448   1.340   4.944   7.520
 2569SOL     OW 8449   0.307   3.767   7.619
 2569SOL    HW1 8450   0.368   3.831   7.582
 2569SOL    HW2 8451   0.362   3.705   7.667
 2570SOL     OW 8452   0.944   3.949   7.909
 2570SOL    HW1 8453   0.901   4.014   7.852
 2570SOL    HW2 8454   1.035   3.979   7.914
 2571SOL     OW 8455   0.448   4.884   0.087
 2571SOL    HW1 8456   0.377   4.905   0.147
 2571SOL    HW2 8457   0.404   4.866   0.003
 2572SOL     OW 8458   1.024   4.263   7.469
 2572SOL    HW1 8459   0.979   4.346   7.452
 2572SOL    HW2 8460   1.084   4.283   7.541
 2573SOL     OW 8461   1.874   4.538   7.802
 2573SOL    HW1 8462   1.858   4.517   7.894
 2573SOL    HW2 8463   1.835   4.465   7.753
 2574SOL     OW 8464   0.474   5.149   7.598
 2574SOL    HW1 8465   0.417   5.096   7.654
 2574SOL    HW2 8466   0.484   5.096   7.519
 2575SOL     OW 8467   1.394   4.296   7.519
 2575SOL    HW1 8468   1.332   4.275   7.589
 2575SOL    HW2 8469   1.478   4.262   7.550
 2576SOL     OW 8470   0.527   3.990   7.768
 2576SOL    HW1 8471   0.572   3.941   7.700
 2576SOL    HW2 8472   0.501   4.072   7.727
 2577SOL     OW 8473   0.708   4.784   7.814
 2577SOL    HW1 8474   0.688   4.769   7.906
 2577SOL    HW2 8475   0.788   4.733   7.798
 2578SOL     OW 8476   0.343   4.821   7.925
 2578SOL    HW1 8477   0.336   4.904   7.879
 2578SOL    HW2 8478   0.344   4.755   7.855
 2579SOL     OW 8479   1.225   5.116   7.833
 2579SOL    HW1 8480   1.312   5.123   7.872
 2579SOL    HW2 8481   1.175   5.062   7.894
 2580SOL     OW 8482   1.587   4.349   7.920
 2580SOL    HW1 8483   1.578   4.408   7.995
 2580SOL    HW2 8484   1.624   4.404   7.851
 2581SOL     OW 8485   1.202   4.249   7.713
 2581SOL    HW1 8486   1.204   4.166   7.761
 2581SOL    HW2 8487   1.177   4.314   7.779
 2582SOL     OW 8488   1.620   4.104   7.811
 2582SOL    HW1 8489   1.642   4.037   7.877
 2582SOL    HW2 8490   1.596   4.181   7.863
 2583SOL     OW 8491   1.528   3.999   7.574
 2583SOL    HW1 8492   1.463   3.934   7.600
 2583SOL    HW2 8493   1.561   4.034   7.657
 2584SOL     OW 8494   1.293   4.551   7.480
 2584SOL    HW1 8495   1.334   4.464   7.482
 2584SOL    HW2 8496   1.323   4.590   7.398
 2585SOL     OW 8497   0.004   5.049   7.653
 2585SOL    HW1 8498   5.228   5.036   7.597
 2585SOL    HW2 8499   0.018   4.964   7.694
 2586SOL     OW 8500   0.844   4.332   7.755
 2586SOL    HW1 8501   0.838   4.239   7.732
 2586SOL    HW2 8502   0.753   4.361   7.760
 2587SOL     OW 8503   0.460   4.217   7.637
 2587SOL    HW1 8504   0.522   4.288   7.655
 2587SOL    HW2 8505   0.376   4.261   7.621
 2588SOL     OW 8506   1.312   4.580   7.753
 2588SOL    HW1 8507   1.225   4.583   7.793
 2588SOL    HW2 8508   1.295   4.567   7.660
 2589SOL     OW 8509   1.712   3.873   7.944
 2589SOL    HW1 8510   1.788   3.866   7.887
 2589SOL    HW2 8511   1.716   3.795   8.000
 2590SOL     OW 8512   0.925   4.632   7.757
 2590SOL    HW1 8513   0.979   4.656   7.682
 2590SOL    HW2 8514   0.917   4.536   7.751
 2591SOL     OW 8515   0.260   5.058   7.747
 2591SOL    HW1 8516   0.168   5.066   7.722
 2591SOL    HW2 8517   0.265   5.098   7.834
 2592SOL     OW 8518   0.084   4.060   7.487
 2592SOL    HW1 8519   5.299   4.023   7.465
 2592SOL    HW2 8520   0.101   4.125   7.419
 2593SOL     OW 8521   0.083   3.863   7.740
 2593SOL    HW1 8522   0.069   3.948   7.700
 2593SOL    HW2 8523   0.155   3.824   7.689
 2594SOL     OW 8524   1.180   5.057   7.566
 2594SOL    HW1 8525   1.088   5.031   7.563
 2594SOL    HW2 8526   1.197   5.073   7.659
 2595SOL     OW 8527   1.214   4.042   7.904
 2595SOL    HW1 8528   1.288   3.982   7.892
 2595SOL    HW2 8529   1.234   4.089   7.984
 2596SOL     OW 8530   0.627   4.470   8.040
 2596SOL    HW1 8531   0.629   4.542   0.023
 2596SOL    HW2 8532   0.535   4.460   8.017
 2597SOL     OW 8533   0.850   5.093   7.467
 2597SOL    HW1 8534   0.834   5.093   7.562
 2597SOL    HW2 8535   0.859   5.185   7.444
 2598SOL     OW 8536   1.072   4.702   7.539
 2598SOL    HW1 8537   1.052   4.758   7.464
 2598SOL    HW2 8538   1.150   4.653   7.512
 2599SOL     OW 8539   0.392   4.157   7.982
 2599SOL    HW1 8540   0.434   4.095   7.922
 2599SOL    HW2 8541   0.439   4.146   8.064
 2600SOL     OW 8542   0.808   5.050   7.732
 2600SOL    HW1 8543   0.758   4.971   7.754
 2600SOL    HW2 8544   0.818   5.096   7.815
 2601SOL     OW 8545   1.354   3.776   7.610
 2601SOL    HW1 8546   1.385   3.707   7.552
 2601SOL    HW2 8547   1.267   3.748   7.638
 2602SOL     OW 8548   0.051   4.791   7.724
 2602SOL    HW1 8549   0.139   4.754   7.720
 2602SOL    HW2 8550   0.002   4.730   7.780
 2603SOL     OW 8551   2.075   0.623   0.122
 2603SOL    HW1 8552   1.996   0.588   0.163
 2603SOL    HW2 8553   2.102   0.556   0.059
 2604SOL     OW 8554   2.079   0.286   0.994
 2604SOL    HW1 8555   2.108   0.249   1.077
 2604SOL    HW2 8556   1.995   0.242   0.976
 2605SOL     OW 8557   1.864   0.388   0.637
 2605SOL    HW1 8558   1.780   0.410   0.678
 2605SOL    HW2 8559   1.846   0.310   0.585
 2606SOL     OW 8560   2.429   1.291   1.178
 2606SOL    HW1 8561   2.342   1.295   1.139
 2606SOL    HW2 8562   2.445   1.380   1.210
 2607SOL     OW 8563   3.426   1.513   0.708
 2607SOL    HW1 8564   3.384   1.491   0.791
 2607SOL    HW2 8565   3.355   1.515   0.645
 2608SOL     OW 8566   2.995   0.697   0.700
 2608SOL    HW1 8567   3.042   0.779   0.686
 2608SOL    HW2 8568   2.947   0.711   0.782
 2609SOL     OW 8569   3.635   0.598   0.230
 2609SOL    HW1 8570   3.588   0.606   0.147
 2609SOL    HW2 8571   3.593   0.524   0.274
 2610SOL     OW 8572   2.614   1.141   1.043
 2610SOL    HW1 8573   2.546   1.177   1.100
 2610SOL    HW2 8574   2.651   1.217   0.999
 2611SOL     OW 8575   2.731   0.773   1.823
 2611SOL    HW1 8576   2.720   0.845   1.886
 2611SOL    HW2 8577   2.755   0.817   1.742
 2612SOL     OW 8578   2.546   0.999   0.649
 2612SOL    HW1 8579   2.612   0.989   0.717
 2612SOL    HW2 8580   2.478   1.053   0.689
 2613SOL     OW 8581   2.574   1.150   1.814
 2613SOL    HW1 8582   2.621   1.228   1.843
 2613SOL    HW2 8583   2.492   1.184   1.777
 2614SOL     OW 8584   2.192   1.423   1.068
 2614SOL    HW1 8585   2.119   1.384   1.019
 2614SOL    HW2 8586   2.241   1.473   1.002
 2615SOL     OW 8587   3.322   1.501   1.357
 2615SOL    HW1 8588   3.375   1.580   1.366
 2615SOL    HW2 8589   3.257   1.507   1.427
 2616SOL     OW 8590   2.307   0.397   1.482
 2616SOL    HW1 8591   2.382   0.337   1.483
 2616SOL    HW2 8592   2.232   0.341   1.499
 2617SOL     OW 8593   3.471   0.451   0.739
 2617SOL    HW1 8594   3.392   0.470   0.688
 2617SOL    HW2 8595   3.485   0.530   0.791
 2618SOL     OW 8596   2.082   1.716   0.471
 2618SOL    HW1 8597   2.103   1.792   0.525
 2618SOL    HW2 8598   2.158   1.707   0.413
 2619SOL     OW 8599   2.999   1.342   1.694
 2619SOL    HW1 8600   3.040   1.336   1.780
 2619SOL    HW2 8601   2.947   1.262   1.686
 2620SOL     OW 8602   2.088   1.441   0.528
 2620SOL    HW1 8603   2.074   1.536   0.532
 2620SOL    HW2 8604   2.032   1.405   0.596
 2621SOL     OW 8605   2.122   1.090   0.891
 2621SOL    HW1 8606   2.119   1.003   0.931
 2621SOL    HW2 8607   2.064   1.143   0.946
 2622SOL     OW 8608   2.470   1.790   1.428
 2622SOL    HW1 8609   2.388   1.773   1.476
 2622SOL    HW2 8610   2.495   1.879   1.453
 2623SOL     OW 8611   2.486   0.959   0.137
 2623SOL    HW1 8612   2.435   1.036   0.112
 2623SOL    HW2 8613   2.541   0.990   0.210
 2624SOL     OW 8614   3.448   0.137   1.455
 2624SOL    HW1 8615   3.475   0.221   1.416
 2624SOL    HW2 8616   3.443   0.154   1.549
 2625SOL     OW 8617   1.977   0.652   0.563
 2625SOL    HW1 8618   1.948   0.563   0.584
 2625SOL    HW2 8619   1.969   0.700   0.645
 2626SOL     OW 8620   3.709   1.756   0.329
 2626SOL    HW1 8621   3.775   1.727   0.391
 2626SOL    HW2 8622   3.732   1.848   0.311
 2627SOL     OW 8623   1.896   1.594   0.110
 2627SOL    HW1 8624   1.880   1.507   0.145
 2627SOL    HW2 8625   1.877   1.653   0.183
 2628SOL     OW 8626   3.551   0.919   0.646
 2628SOL    HW1 8627   3.632   0.874   0.622
 2628SOL    HW2 8628   3.528   0.971   0.569
 2629SOL     OW 8629   3.509   1.104   0.435
 2629SOL    HW1 8630   3.590   1.115   0.386
 2629SOL    HW2 8631   3.515   1.166   0.507
 2630SOL     OW 8632   1.985   0.745   1.583
 2630SOL    HW1 8633   2.077   0.772   1.589
 2630SOL    HW2 8634   1.935   0.826   1.591
 2631SOL     OW 8635   2.476   1.388   0.734
 2631SOL    HW1 8636   2.431   1.304   0.744
 2631SOL    HW2 8637   2.461   1.414   0.643
 2632SOL     OW 8638   3.150   1.237   1.423
 2632SOL    HW1 8639   3.181   1.170   1.363
 2632SOL    HW2 8640   3.208   1.232   1.498
 2633SOL     OW 8641   2.676   0.032   0.532
 2633SOL    HW1 8642   2.705   0.117   0.500
 2633SOL    HW2 8643   2.580   0.035   0.525
 2634SOL     OW 8644   2.051   0.965   1.273
 2634SOL    HW1 8645   2.136   0.924   1.259
 2634SOL    HW2 8646   1.990   0.911   1.223
 2635SOL     OW 8647   3.369   1.009   0.214
 2635SOL    HW1 8648   3.307   0.945   0.248
 2635SOL    HW2 8649   3.422   1.033   0.289
 2636SOL     OW 8650   3.046   1.808   1.623
 2636SOL    HW1 8651   3.054   1.869   1.549
 2636SOL    HW2 8652   3.064   1.722   1.586
 2637SOL     OW 8653   2.192   0.269   1.815
 2637SOL    HW1 8654   2.243   0.343   1.847
 2637SOL    HW2 8655   2.105   0.280   1.852
 2638SOL     OW 8656   3.329   1.419   0.950
 2638SOL    HW1 8657   3.261   1.435   1.016
 2638SOL    HW2 8658   3.316   1.328   0.923
 2639SOL     OW 8659   3.519   1.745   0.582
 2639SOL    HW1 8660   3.499   1.715   0.493
 2639SOL    HW2 8661   3.496   1.671   0.638
 2640SOL     OW 8662   2.461   0.713   0.284
 2640SOL    HW1 8663   2.477   0.792   0.233
 2640SOL    HW2 8664   2.395   0.739   0.349
 2641SOL     OW 8665   3.138   0.350   0.932
 2641SOL    HW1 8666   3.048   0.321   0.944
 2641SOL    HW2 8667   3.189   0.299   0.996
 2642SOL     OW 8668   3.449   1.672   0.321
 2642SOL    HW1 8669   3.540   1.699   0.313
 2642SOL    HW2 8670   3.421   1.655   0.231
 2643SOL     OW 8671   2.656   0.619   1.448
 2643SOL    HW1 8672   2.628   0.597   1.537
 2643SOL    HW2 8673   2.615   0.551   1.394
 2644SOL     OW 8674   3.256   0.475   1.678
 2644SOL    HW1 8675   3.259   0.520   1.763
 2644SOL    HW2 8676   3.319   0.404   1.687
 2645SOL     OW 8677   2.815   0.887   1.584
 2645SOL    HW1 8678   2.870   0.817   1.547
 2645SOL    HW2 8679   2.767   0.921   1.508
 2646SOL     OW 8680   2.856   0.417   1.233
 2646SOL    HW1 8681   2.769   0.436   1.269
 2646SOL    HW2 8682   2.839   0.369   1.152
 2647SOL     OW 8683   2.916   0.699   0.428
 2647SOL    HW1 8684   2.932   0.691   0.522
 2647SOL    HW2 8685   2.833   0.653   0.414
 2648SOL     OW 8686   1.951   0.822   0.777
 2648SOL    HW1 8687   2.031   0.814   0.828
 2648SOL    HW2 8688   1.907   0.900   0.812
 2649SOL     OW 8689   1.986   1.859   1.581
 2649SOL    HW1 8690   1.989   1.835   1.674
 2649SOL    HW2 8691   1.898   1.833   1.553
 2650SOL     OW 8692   2.750   0.359   0.204
 2650SOL    HW1 8693   2.793   0.408   0.134
 2650SOL    HW2 8694   2.731   0.274   0.166
 2651SOL     OW 8695   3.568   0.572   1.828
 2651SOL    HW1 8696   3.531   0.646   1.779
 2651SOL    HW2 8697   3.599   0.512   1.761
 2652SOL     OW 8698   3.240   1.141   0.541
 2652SOL    HW1 8699   3.318   1.129   0.488
 2652SOL    HW2 8700   3.186   1.203   0.492
 2653SOL     OW 8701   2.383   0.202   0.882
 2653SOL    HW1 8702   2.406   0.218   0.973
 2653SOL    HW2 8703   2.407   0.283   0.837
 2654SOL     OW 8704   2.865   1.444   0.471
 2654SOL    HW1 8705   2.828   1.517   0.422
 2654SOL    HW2 8706   2.844   1.464   0.563
 2655SOL     OW 8707   2.216   1.809   0.863
 2655SOL    HW1 8708   2.260   1.725   0.871
 2655SOL    HW2 8709   2.284   1.874   0.882
 2656SOL     OW 8710   3.662   1.055   0.870
 2656SOL    HW1 8711   3.609   1.035   0.793
 2656SOL    HW2 8712   3.599   1.061   0.942
 2657SOL     OW 8713   3.090   1.539   1.513
 2657SOL    HW1 8714   3.076   1.466   1.574
 2657SOL    HW2 8715   3.025   1.524   1.444
 2658SOL     OW 8716   2.185   0.944   0.258
 2658SOL    HW1 8717   2.253   0.984   0.204
 2658SOL    HW2 8718   2.188   0.851   0.235
 2659SOL     OW 8719   3.342   0.746   0.726
 2659SOL    HW1 8720   3.335   0.704   0.811
 2659SOL    HW2 8721   3.419   0.801   0.732
 2660SOL     OW 8722   2.329   1.266   1.738
 2660SOL    HW1 8723   2.303   1.271   1.646
 2660SOL    HW2 8724   2.247   1.263   1.787
 2661SOL     OW 8725   2.969   1.781   0.223
 2661SOL    HW1 8726   2.913   1.740   0.289
 2661SOL    HW2 8727   2.991   1.710   0.162
 2662SOL     OW 8728   2.059   0.278   1.505
 2662SOL    HW1 8729   1.980   0.331   1.503
 2662SOL    HW2 8730   2.053   0.227   1.586
 2663SOL     OW 8731   3.496   1.372   0.083
 2663SOL    HW1 8732   3.455   1.459   0.083
 2663SOL    HW2 8733   3.425   1.311   0.064
 2664SOL     OW 8734   2.326   1.738   0.322
 2664SOL    HW1 8735   2.371   1.793   0.386
 2664SOL    HW2 8736   2.395   1.706   0.264
 2665SOL     OW 8737   3.280   0.100   0.447
 2665SOL    HW1 8738   3.274   0.080   0.354
 2665SOL    HW2 8739   3.371   0.127   0.460
 2666SOL     OW 8740   2.118   1.791   1.231
 2666SOL    HW1 8741   2.170   1.725   1.276
 2666SOL    HW2 8742   2.110   1.759   1.141
 2667SOL     OW 8743   2.800   1.698   0.899
 2667SOL    HW1 8744   2.879   1.648   0.919
 2667SOL    HW2 8745   2.757   1.648   0.829
 2668SOL     OW 8746   2.248   0.699   0.475
 2668SOL    HW1 8747   2.272   0.607   0.487
 2668SOL    HW2 8748   2.156   0.703   0.499
 2669SOL     OW 8749   3.399   0.228   1.722
 2669SOL    HW1 8750   3.407   0.245   1.816
 2669SOL    HW2 8751   3.322   0.171   1.715
 2670SOL     OW 8752   2.488   0.138   0.124
 2670SOL    HW1 8753   2.579   0.111   0.133
 2670SOL    HW2 8754   2.459   0.099   0.041
 2671SOL     OW 8755   2.640   0.312   1.768
 2671SOL    HW1 8756   2.700   0.238   1.768
 2671SOL    HW2 8757   2.594   0.306   1.852
 2672SOL     OW 8758   2.737   1.521   1.194
 2672SOL    HW1 8759   2.722   1.485   1.107
 2672SOL    HW2 8760   2.808   1.468   1.230
 2673SOL     OW 8761   3.202   0.589   1.432
 2673SOL    HW1 8762   3.233   0.558   1.518
 2673SOL    HW2 8763   3.238   0.677   1.424
 2674SOL     OW 8764   2.678   1.393   0.942
 2674SOL    HW1 8765   2.763   1.381   0.899
 2674SOL    HW2 8766   2.615   1.396   0.870
 2675SOL     OW 8767   2.789   0.511   0.902
 2675SOL    HW1 8768   2.765   0.502   0.809
 2675SOL    HW2 8769   2.820   0.423   0.927
 2676SOL     OW 8770   2.405   0.061   0.510
 2676SOL    HW1 8771   2.319   0.057   0.552
 2676SOL    HW2 8772   2.397   0.130   0.444
 2677SOL     OW 8773   3.295   1.200   0.035
 2677SOL    HW1 8774   3.318   1.126   0.092
 2677SOL    HW2 8775   3.207   1.225   0.064
 2678SOL     OW 8776   2.163   0.072   0.206
 2678SOL    HW1 8777   2.221   0.144   0.181
 2678SOL    HW2 8778   2.215   5.293   0.193
 2679SOL     OW 8779   2.808   0.260   0.454
 2679SOL    HW1 8780   2.782   0.305   0.373
 2679SOL    HW2 8781   2.900   0.283   0.465
 2680SOL     OW 8782   2.943   0.683   1.459
 2680SOL    HW1 8783   2.875   0.615   1.463
 2680SOL    HW2 8784   3.025   0.634   1.452
 2681SOL     OW 8785   3.084   1.571   0.795
 2681SOL    HW1 8786   3.099   1.637   0.727
 2681SOL    HW2 8787   3.152   1.586   0.859
 2682SOL     OW 8788   2.331   1.152   0.731
 2682SOL    HW1 8789   2.263   1.132   0.796
 2682SOL    HW2 8790   2.289   1.137   0.647
 2683SOL     OW 8791   3.129   1.793   0.609
 2683SOL    HW1 8792   3.179   1.857   0.558
 2683SOL    HW2 8793   3.061   1.845   0.652
 2684SOL     OW 8794   2.891   0.525   0.033
 2684SOL    HW1 8795   2.853   0.608   0.004
 2684SOL    HW2 8796   2.955   0.550   0.100
 2685SOL     OW 8797   1.942   0.553   1.393
 2685SOL    HW1 8798   2.034   0.553   1.366
 2685SOL    HW2 8799   1.936   0.623   1.458
 2686SOL     OW 8800   2.416   0.238   1.159
 2686SOL    HW1 8801   2.448   0.153   1.188
 2686SOL    HW2 8802   2.324   0.239   1.185
 2687SOL     OW 8803   2.728   0.461   0.640
 2687SOL    HW1 8804   2.687   0.515   0.573
 2687SOL    HW2 8805   2.751   0.380   0.593
 2688SOL     OW 8806   2.838   0.062   0.764
 2688SOL    HW1 8807   2.775   0.058   0.692
 2688SOL    HW2 8808   2.851   5.271   0.790
 2689SOL     OW 8809   3.300   1.162   0.856
 2689SOL    HW1 8810   3.229   1.097   0.856
 2689SOL    HW2 8811   3.324   1.172   0.764
 2690SOL     OW 8812   3.328   0.608   0.975
 2690SOL    HW1 8813   3.276   0.528   0.978
 2690SOL    HW2 8814   3.388   0.601   1.049
 2691SOL     OW 8815   3.710   0.813   0.387
 2691SOL    HW1 8816   3.762   0.761   0.448
 2691SOL    HW2 8817   3.680   0.750   0.322
 2692SOL     OW 8818   2.344   1.440   0.173
 2692SOL    HW1 8819   2.271   1.400   0.220
 2692SOL    HW2 8820   2.354   1.387   0.094
 2693SOL     OW 8821   3.535   1.265   0.646
 2693SOL    HW1 8822   3.630   1.267   0.660
 2693SOL    HW2 8823   3.506   1.354   0.667
 2694SOL     OW 8824   3.261   0.575   0.088
 2694SOL    HW1 8825   3.198   0.558   0.158
 2694SOL    HW2 8826   3.313   0.495   0.083
 2695SOL     OW 8827   2.383   0.269   0.328
 2695SOL    HW1 8828   2.426   0.214   0.262
 2695SOL    HW2 8829   2.366   0.352   0.283
 2696SOL     OW 8830   3.613   1.241   1.570
 2696SOL    HW1 8831   3.701   1.202   1.565
 2696SOL    HW2 8832   3.629   1.331   1.598
 2697SOL     OW 8833   2.919   1.354   1.333
 2697SOL    HW1 8834   2.844   1.322   1.384
 2697SOL    HW2 8835   2.995   1.312   1.374
 2698SOL     OW 8836   3.470   1.626   1.655
 2698SOL    HW1 8837   3.463   1.660   1.566
 2698SOL    HW2 8838   3.553   1.578   1.656
 2699SOL     OW 8839   2.993   1.206   1.104
 2699SOL    HW1 8840   2.933   1.243   1.169
 2699SOL    HW2 8841   2.962   1.239   1.020
 2700SOL     OW 8842   3.488   1.097   1.077
 2700SOL    HW1 8843   3.483   1.159   1.149
 2700SOL    HW2 8844   3.410   1.115   1.024
 2701SOL     OW 8845   2.765   0.107   1.386
 2701SOL    HW1 8846   2.795   0.073   1.302
 2701SOL    HW2 8847   2.842   0.150   1.424
 2702SOL     OW 8848   2.846   1.115   1.723
 2702SOL    HW1 8849   2.754   1.131   1.745
 2702SOL    HW2 8850   2.844   1.037   1.667
 2703SOL     OW 8851   2.579   1.065   0.381
 2703SOL    HW1 8852   2.560   1.045   0.473
 2703SOL    HW2 8853   2.657   1.012   0.361
 2704SOL     OW 8854   2.282   0.817   1.252
 2704SOL    HW1 8855   2.350   0.825   1.318
 2704SOL    HW2 8856   2.246   0.729   1.265
 2705SOL     OW 8857   3.128   0.378   1.274
 2705SOL    HW1 8858   3.161   0.455   1.321
 2705SOL    HW2 8859   3.038   0.401   1.252
 2706SOL     OW 8860   1.935   1.574   1.355
 2706SOL    HW1 8861   1.906   1.646   1.298
 2706SOL    HW2 8862   2.030   1.574   1.348
 2707SOL     OW 8863   2.203   1.112   0.491
 2707SOL    HW1 8864   2.209   1.183   0.428
 2707SOL    HW2 8865   2.211   1.032   0.438
 2708SOL     OW 8866   2.414   0.536   0.860
 2708SOL    HW1 8867   2.428   0.594   0.786
 2708SOL    HW2 8868   2.480   0.561   0.924
 2709SOL     OW 8869   3.109   1.347   0.394
 2709SOL    HW1 8870   3.165   1.419   0.423
 2709SOL    HW2 8871   3.022   1.370   0.426
 2710SOL     OW 8872   3.146   1.458   1.147
 2710SOL    HW1 8873   3.202   1.462   1.225
 2710SOL    HW2 8874   3.091   1.381   1.161
 2711SOL     OW 8875   3.442   0.625   0.483
 2711SOL    HW1 8876   3.392   0.672   0.550
 2711SOL    HW2 8877   3.475   0.693   0.425
 2712SOL     OW 8878   2.208   1.529   1.313
 2712SOL    HW1 8879   2.196   1.485   1.229
 2712SOL    HW2 8880   2.303   1.540   1.321
 2713SOL     OW 8881   2.278   0.744   1.602
 2713SOL    HW1 8882   2.340   0.789   1.545
 2713SOL    HW2 8883   2.319   0.660   1.621
 2714SOL     OW 8884   3.466   0.779   1.683
 2714SOL    HW1 8885   3.380   0.821   1.677
 2714SOL    HW2 8886   3.518   0.822   1.615
 2715SOL     OW 8887   2.914   0.118   1.787
 2715SOL    HW1 8888   2.939   0.198   1.741
 2715SOL    HW2 8889   2.915   0.050   1.720
 2716SOL     OW 8890   2.345   0.058   1.737
 2716SOL    HW1 8891   2.284   5.294   1.703
 2716SOL    HW2 8892   2.290   0.134   1.759
 2717SOL     OW 8893   2.445   0.873   1.031
 2717SOL    HW1 8894   2.478   0.963   1.033
 2717SOL    HW2 8895   2.389   0.867   1.109
 2718SOL     OW 8896   3.217   0.859   1.027
 2718SOL    HW1 8897   3.133   0.848   0.982
 2718SOL    HW2 8898   3.259   0.773   1.020
 2719SOL     OW 8899   3.063   0.527   0.269
 2719SOL    HW1 8900   3.072   0.448   0.323
 2719SOL    HW2 8901   3.021   0.590   0.327
 2720SOL     OW 8902   2.157   0.202   1.249
 2720SOL    HW1 8903   2.116   0.242   1.326
 2720SOL    HW2 8904   2.159   0.109   1.268
 2721SOL     OW 8905   1.908   1.311   1.275
 2721SOL    HW1 8906   1.941   1.256   1.346
 2721SOL    HW2 8907   1.914   1.400   1.310
 2722SOL     OW 8908   2.586   0.631   1.058
 2722SOL    HW1 8909   2.661   0.616   1.000
 2722SOL    HW2 8910   2.557   0.720   1.036
 2723SOL     OW 8911   3.598   0.959   1.854
 2723SOL    HW1 8912   3.553   0.895   1.799
 2723SOL    HW2 8913   3.538   0.975   1.927
 2724SOL     OW 8914   2.168   0.069   0.657
 2724SOL    HW1 8915   2.145   0.162   0.659
 2724SOL    HW2 8916   2.218   0.054   0.737
 2725SOL     OW 8917   3.487   0.381   0.365
 2725SOL    HW1 8918   3.512   0.313   0.428
 2725SOL    HW2 8919   3.461   0.455   0.420
 2726SOL     OW 8920   2.890   0.759   0.960
 2726SOL    HW1 8921   2.885   0.776   1.054
 2726SOL    HW2 8922   2.863   0.668   0.951
 2727SOL     OW 8923   2.843   1.566   1.719
 2727SOL    HW1 8924   2.828   1.610   1.635
 2727SOL    HW2 8925   2.887   1.485   1.695
 2728SOL     OW 8926   3.715   1.504   1.605
 2728SOL    HW1 8927   3.735   1.531   1.515
 2728SOL    HW2 8928   3.796   1.521   1.653
 2729SOL     OW 8929   2.215   0.917   1.808
 2729SOL    HW1 8930   2.296   0.935   1.856
 2729SOL    HW2 8931   2.240   0.854   1.741
 2730SOL     OW 8932   3.379   0.309   0.126
 2730SOL    HW1 8933   3.347   0.219   0.137
 2730SOL    HW2 8934   3.421   0.330   0.209
 2731SOL     OW 8935   3.158   0.822   0.021
 2731SOL    HW1 8936   3.196   0.736   0.037
 2731SOL    HW2 8937   3.220   0.864   8.041
 2732SOL     OW 8938   2.928   1.337   0.855
 2732SOL    HW1 8939   2.932   1.264   0.793
 2732SOL    HW2 8940   2.989   1.402   0.820
 2733SOL     OW 8941   2.171   0.808   0.946
 2733SOL    HW1 8942   2.264   0.829   0.940
 2733SOL    HW2 8943   2.168   0.718   0.978
 2734SOL     OW 8944   2.193   0.528   1.013
 2734SOL    HW1 8945   2.156   0.440   0.998
 2734SOL    HW2 8946   2.269   0.531   0.956
 2735SOL     OW 8947   2.997   0.377   1.690
 2735SOL    HW1 8948   2.949   0.431   1.752
 2735SOL    HW2 8949   3.084   0.417   1.686
 2736SOL     OW 8950   2.993   0.222   1.467
 2736SOL    HW1 8951   2.997   0.281   1.542
 2736SOL    HW2 8952   3.049   0.263   1.401
 2737SOL     OW 8953   1.875   1.322   0.188
 2737SOL    HW1 8954   1.788   1.336   0.150
 2737SOL    HW2 8955   1.872   1.232   0.222
 2738SOL     OW 8956   1.952   1.785   0.938
 2738SOL    HW1 8957   1.922   1.706   0.894
 2738SOL    HW2 8958   2.042   1.798   0.908
 2739SOL     OW 8959   2.356   1.573   0.904
 2739SOL    HW1 8960   2.424   1.635   0.929
 2739SOL    HW2 8961   2.400   1.510   0.847
 2740SOL     OW 8962   2.841   0.791   1.226
 2740SOL    HW1 8963   2.899   0.769   1.299
 2740SOL    HW2 8964   2.757   0.752   1.250
 2741SOL     OW 8965   1.897   0.545   1.117
 2741SOL    HW1 8966   1.977   0.531   1.065
 2741SOL    HW2 8967   1.928   0.548   1.208
 2742SOL     OW 8968   2.048   0.524   1.729
 2742SOL    HW1 8969   2.112   0.487   1.668
 2742SOL    HW2 8970   2.011   0.599   1.682
 2743SOL     OW 8971   3.240   0.937   1.658
 2743SOL    HW1 8972   3.262   1.030   1.655
 2743SOL    HW2 8973   3.237   0.910   1.566
 2744SOL     OW 8974   2.681   0.571   0.371
 2744SOL    HW1 8975   2.691   0.500   0.307
 2744SOL    HW2 8976   2.605   0.620   0.341
 2745SOL     OW 8977   3.504   0.601   1.184
 2745SOL    HW1 8978   3.493   0.542   1.258
 2745SOL    HW2 8979   3.591   0.582   1.150
 2746SOL     OW 8980   2.102   1.550   1.726
 2746SOL    HW1 8981   2.081   1.614   1.794
 2746SOL    HW2 8982   2.108   1.467   1.772
 2747SOL     OW 8983   2.566   0.450   1.258
 2747SOL    HW1 8984   2.512   0.377   1.226
 2747SOL    HW2 8985   2.563   0.514   1.187
 2748SOL     OW 8986   2.787   1.680   1.469
 2748SOL    HW1 8987   2.763   1.643   1.384
 2748SOL    HW2 8988   2.783   1.774   1.456
 2749SOL     OW 8989   2.329   0.493   0.175
 2749SOL    HW1 8990   2.398   0.556   0.194
 2749SOL    HW2 8991   2.247   0.540   0.194
 2750SOL     OW 8992   2.006   1.141   1.473
 2750SOL    HW1 8993   2.008   1.091   1.554
 2750SOL    HW2 8994   2.023   1.076   1.404
 2751SOL     OW 8995   3.186   1.046   1.222
 2751SOL    HW1 8996   3.208   0.982   1.154
 2751SOL    HW2 8997   3.117   1.099   1.182
 2752SOL     OW 8998   3.168   0.848   0.308
 2752SOL    HW1 8999   3.091   0.817   0.357
 2752SOL    HW2 9000   3.144   0.836   0.216
 2753SOL     OW 9001   3.636   1.742   1.152
 2753SOL    HW1 9002   3.696   1.768   1.082
 2753SOL    HW2 9003   3.611   1.652   1.130
 2754SOL     OW 9004   3.103   1.732   1.109
 2754SOL    HW1 9005   3.185   1.755   1.066
 2754SOL    HW2 9006   3.111   1.639   1.129
 2755SOL     OW 9007   1.946   1.267   1.011
 2755SOL    HW1 9008   1.931   1.280   1.104
 2755SOL    HW2 9009   1.874   1.211   0.982
 2756SOL     OW 9010   2.540   1.668   1.732
 2756SOL    HW1 9011   2.486   1.746   1.726
 2756SOL    HW2 9012   2.608   1.680   1.666
 2757SOL     OW 9013   2.755   0.085   0.138
 2757SOL    HW1 9014   2.806   0.075   0.057
 2757SOL    HW2 9015   2.770   0.004   0.186
 2758SOL     OW 9016   3.573   0.151   0.502
 2758SOL    HW1 9017   3.647   0.130   0.445
 2758SOL    HW2 9018   3.567   0.077   0.562
 2759SOL     OW 9019   3.252   1.568   0.488
 2759SOL    HW1 9020   3.315   1.601   0.424
 2759SOL    HW2 9021   3.204   1.645   0.517
 2760SOL     OW 9022   1.999   1.797   1.843
 2760SOL    HW1 9023   1.949   1.730   1.890
 2760SOL    HW2 9024   2.046   1.844   1.912
 2761SOL     OW 9025   3.139   0.927   0.672
 2761SOL    HW1 9026   3.213   0.866   0.679
 2761SOL    HW2 9027   3.173   0.999   0.618
 2762SOL     OW 9028   2.673   1.274   1.428
 2762SOL    HW1 9029   2.645   1.314   1.510
 2762SOL    HW2 9030   2.604   1.296   1.366
 2763SOL     OW 9031   2.536   1.624   0.156
 2763SOL    HW1 9032   2.545   1.630   0.061
 2763SOL    HW2 9033   2.476   1.551   0.170
 2764SOL     OW 9034   3.485   1.727   1.391
 2764SOL    HW1 9035   3.536   1.733   1.310
 2764SOL    HW2 9036   3.471   1.818   1.418
 2765SOL     OW 9037   3.708   0.154   0.956
 2765SOL    HW1 9038   3.703   0.058   0.953
 2765SOL    HW2 9039   3.622   0.183   0.926
 2766SOL     OW 9040   2.121   0.329   0.718
 2766SOL    HW1 9041   2.033   0.360   0.698
 2766SOL    HW2 9042   2.121   0.318   0.813
 2767SOL     OW 9043   3.020   1.580   0.051
 2767SOL    HW1 9044   3.032   1.488   0.073
 2767SOL    HW2 9045   3.032   1.584   8.036
 2768SOL     OW 9046   2.685   1.006   1.373
 2768SOL    HW1 9047   2.731   1.000   1.289
 2768SOL    HW2 9048   2.685   1.099   1.394
 2769SOL     OW 9049   2.783   0.915   0.300
 2769SOL    HW1 9050   2.836   0.938   0.223
 2769SOL    HW2 9051   2.830   0.842   0.341
 2770SOL     OW 9052   3.371   1.623   0.062
 2770SOL    HW1 9053   3.276   1.623   0.049
 2770SOL    HW2 9054   3.407   1.627   8.053
 2771SOL     OW 9055   2.230   1.304   1.492
 2771SOL    HW1 9056   2.217   1.380   1.436
 2771SOL    HW2 9057   2.153   1.249   1.476
 2772SOL     OW 9058   3.472   1.283   1.280
 2772SOL    HW1 9059   3.531   1.270   1.354
 2772SOL    HW2 9060   3.411   1.351   1.310
 2773SOL     OW 9061   2.917   1.109   0.709
 2773SOL    HW1 9062   2.845   1.057   0.746
 2773SOL    HW2 9063   2.980   1.043   0.677
 2774SOL     OW 9064   2.880   0.244   0.969
 2774SOL    HW1 9065   2.860   0.198   0.888
 2774SOL    HW2 9066   2.874   0.176   1.037
 2775SOL     OW 9067   2.466   1.486   0.478
 2775SOL    HW1 9068   2.513   1.436   0.411
 2775SOL    HW2 9069   2.394   1.527   0.431
 2776SOL     OW 9070   3.588   0.386   1.377
 2776SOL    HW1 9071   3.659   0.451   1.377
 2776SOL    HW2 9072   3.619   0.316   1.320
 2777SOL     OW 9073   2.130   1.318   0.293
 2777SOL    HW1 9074   2.044   1.328   0.252
 2777SOL    HW2 9075   2.122   1.363   0.377
 2778SOL     OW 9076   1.975   1.025   1.720
 2778SOL    HW1 9077   1.899   1.001   1.773
 2778SOL    HW2 9078   2.049   0.986   1.766
 2779SOL     OW 9079   2.535   0.214   1.491
 2779SOL    HW1 9080   2.618   0.197   1.445
 2779SOL    HW2 9081   2.560   0.264   1.569
 2780SOL     OW 9082   1.931   0.362   0.033
 2780SOL    HW1 9083   1.859   0.298   0.026
 2780SOL    HW2 9084   1.942   0.394   8.023
 2781SOL     OW 9085   3.290   0.858   1.399
 2781SOL    HW1 9086   3.241   0.919   1.344
 2781SOL    HW2 9087   3.379   0.860   1.364
 2782SOL     OW 9088   1.929   0.165   0.313
 2782SOL    HW1 9089   1.938   0.253   0.278
 2782SOL    HW2 9090   2.014   0.124   0.296
 2783SOL     OW 9091   3.046   1.316   0.121
 2783SOL    HW1 9092   2.951   1.305   0.119
 2783SOL    HW2 9093   3.068   1.316   0.214
 2784SOL     OW 9094   2.482   0.830   1.434
 2784SOL    HW1 9095   2.538   0.907   1.419
 2784SOL    HW2 9096   2.543   0.757   1.442
 2785SOL     OW 9097   3.345   1.778   0.980
 2785SOL    HW1 9098   3.368   1.841   0.911
 2785SOL    HW2 9099   3.429   1.758   1.022
 2786SOL     OW 9100   2.577   0.573   1.701
 2786SOL    HW1 9101   2.620   0.635   1.760
 2786SOL    HW2 9102   2.604   0.487   1.733
 2787SOL     OW 9103   3.335   1.198   1.631
 2787SOL    HW1 9104   3.322   1.212   1.725
 2787SOL    HW2 9105   3.428   1.215   1.616
 2788SOL     OW 9106   2.237   1.740   1.565
 2788SOL    HW1 9107   2.153   1.783   1.550
 2788SOL    HW2 9108   2.215   1.656   1.606
 2789SOL     OW 9109   3.530   0.881   1.255
 2789SOL    HW1 9110   3.524   0.795   1.212
 2789SOL    HW2 9111   3.520   0.944   1.184
 2790SOL     OW 9112   3.077   0.327   0.473
 2790SOL    HW1 9113   3.135   0.253   0.459
 2790SOL    HW2 9114   3.116   0.374   0.547
 2791SOL     OW 9115   2.448   0.736   0.671
 2791SOL    HW1 9116   2.489   0.822   0.657
 2791SOL    HW2 9117   2.381   0.730   0.603
 2792SOL     OW 9118   3.627   0.362   1.649
 2792SOL    HW1 9119   3.608   0.378   1.556
 2792SOL    HW2 9120   3.555   0.307   1.679
 2793SOL     OW 9121   3.608   0.934   1.512
 2793SOL    HW1 9122   3.602   1.028   1.525
 2793SOL    HW2 9123   3.592   0.921   1.418
 2794SOL     OW 9124   2.761   1.371   0.042
 2794SOL    HW1 9125   2.697   1.360   0.112
 2794SOL    HW2 9126   2.739   1.455   0.002
 2795SOL     OW 9127   2.525   1.782   0.942
 2795SOL    HW1 9128   2.504   1.873   0.922
 2795SOL    HW2 9129   2.620   1.778   0.939
 2796SOL     OW 9130   2.730   0.968   0.855
 2796SOL    HW1 9131   2.780   0.896   0.893
 2796SOL    HW2 9132   2.694   1.015   0.930
 2797SOL     OW 9133   2.940   0.975   0.086
 2797SOL    HW1 9134   2.927   1.037   0.014
 2797SOL    HW2 9135   3.016   0.924   0.060
 2798SOL     OW 9136   3.714   1.553   0.843
 2798SOL    HW1 9137   3.635   1.542   0.791
 2798SOL    HW2 9138   3.706   1.489   0.913
 2799SOL     OW 9139   2.087   1.302   1.855
 2799SOL    HW1 9140   2.021   1.239   1.825
 2799SOL    HW2 9141   2.068   1.314   1.948
 2800SOL     OW 9142   1.949   1.231   0.665
 2800SOL    HW1 9143   1.953   1.184   0.748
 2800SOL    HW2 9144   2.020   1.194   0.613
 2801SOL     OW 9145   2.543   1.405   1.628
 2801SOL    HW1 9146   2.465   1.361   1.661
 2801SOL    HW2 9147   2.540   1.493   1.666
 2802SOL     OW 9148   3.672   0.175   1.231
 2802SOL    HW1 9149   3.637   0.086   1.233
 2802SOL    HW2 9150   3.695   0.190   1.139
 2803SOL     OW 9151   2.287   0.439   0.523
 2803SOL    HW1 9152   2.325   0.367   0.473
 2803SOL    HW2 9153   2.242   0.396   0.596
 2804SOL     OW 9154   3.561   1.488   1.094
 2804SOL    HW1 9155   3.481   1.466   1.047
 2804SOL    HW2 9156   3.571   1.419   1.159
 2805SOL     OW 9157   2.192   0.558   1.291
 2805SOL    HW1 9158   2.247   0.503   1.346
 2805SOL    HW2 9159   2.211   0.530   1.201
 2806SOL     OW 9160   2.691   1.578   0.677
 2806SOL    HW1 9161   2.675   1.634   0.601
 2806SOL    HW2 9162   2.615   1.519   0.680
 2807SOL     OW 9163   3.289   0.219   1.116
 2807SOL    HW1 9164   3.326   0.144   1.164
 2807SOL    HW2 9165   3.241   0.268   1.183
 2808SOL     OW 9166   2.865   0.020   1.138
 2808SOL    HW1 9167   2.814   5.252   1.093
 2808SOL    HW2 9168   2.951   5.281   1.153
 2809SOL     OW 9169   2.633   1.328   0.310
 2809SOL    HW1 9170   2.603   1.238   0.325
 2809SOL    HW2 9171   2.715   1.335   0.359
 2810SOL     OW 9172   2.481   1.556   1.285
 2810SOL    HW1 9173   2.483   1.638   1.335
 2810SOL    HW2 9174   2.569   1.548   1.248
 2811SOL     OW 9175   3.259   0.049   0.167
 2811SOL    HW1 9176   3.246   0.028   0.075
 2811SOL    HW2 9177   3.173   0.080   0.197
 2812SOL     OW 9178   3.171   0.468   0.689
 2812SOL    HW1 9179   3.113   0.545   0.691
 2812SOL    HW2 9180   3.159   0.427   0.774
 2813SOL     OW 9181   3.457   0.215   0.883
 2813SOL    HW1 9182   3.391   0.227   0.952
 2813SOL    HW2 9183   3.450   0.294   0.829
 2814SOL     OW 9184   1.906   1.066   0.306
 2814SOL    HW1 9185   2.002   1.064   0.309
 2814SOL    HW2 9186   1.879   0.982   0.344
 2815SOL     OW 9187   2.746   1.656   0.347
 2815SOL    HW1 9188   2.676   1.639   0.282
 2815SOL    HW2 9189   2.714   1.730   0.398
 2816SOL     OW 9190   2.088   0.626   1.986
 2816SOL    HW1 9191   2.000   0.621   2.023
 2816SOL    HW2 9192   2.078   0.600   1.895
 2817SOL     OW 9193   2.079   0.285   2.855
 2817SOL    HW1 9194   2.108   0.249   2.939
 2817SOL    HW2 9195   1.995   0.242   2.838
 2818SOL     OW 9196   1.864   0.388   2.500
 2818SOL    HW1 9197   1.780   0.409   2.540
 2818SOL    HW2 9198   1.847   0.311   2.446
 2819SOL     OW 9199   2.424   1.281   3.035
 2819SOL    HW1 9200   2.337   1.291   2.997
 2819SOL    HW2 9201   2.445   1.369   3.068
 2820SOL     OW 9202   3.426   1.512   2.570
 2820SOL    HW1 9203   3.383   1.491   2.653
 2820SOL    HW2 9204   3.354   1.516   2.506
 2821SOL     OW 9205   2.994   0.698   2.562
 2821SOL    HW1 9206   3.042   0.779   2.547
 2821SOL    HW2 9207   2.946   0.711   2.643
 2822SOL     OW 9208   3.631   0.604   2.089
 2822SOL    HW1 9209   3.609   0.597   1.996
 2822SOL    HW2 9210   3.595   0.525   2.128
 2823SOL     OW 9211   2.614   1.140   2.904
 2823SOL    HW1 9212   2.545   1.174   2.960
 2823SOL    HW2 9213   2.652   1.217   2.861
 2824SOL     OW 9214   2.731   0.773   3.685
 2824SOL    HW1 9215   2.720   0.845   3.748
 2824SOL    HW2 9216   2.755   0.817   3.603
 2825SOL     OW 9217   2.548   1.001   2.507
 2825SOL    HW1 9218   2.613   0.990   2.576
 2825SOL    HW2 9219   2.479   1.054   2.548
 2826SOL     OW 9220   2.573   1.150   3.676
 2826SOL    HW1 9221   2.621   1.228   3.704
 2826SOL    HW2 9222   2.492   1.183   3.640
 2827SOL     OW 9223   2.190   1.421   2.928
 2827SOL    HW1 9224   2.118   1.384   2.878
 2827SOL    HW2 9225   2.240   1.472   2.863
 2828SOL     OW 9226   3.325   1.500   3.216
 2828SOL    HW1 9227   3.376   1.580   3.229
 2828SOL    HW2 9228   3.255   1.506   3.282
 2829SOL     OW 9229   2.307   0.397   3.344
 2829SOL    HW1 9230   2.382   0.337   3.345
 2829SOL    HW2 9231   2.232   0.341   3.361
 2830SOL     OW 9232   3.471   0.451   2.601
 2830SOL    HW1 9233   3.396   0.472   2.546
 2830SOL    HW2 9234   3.486   0.530   2.653
 2831SOL     OW 9235   2.081   1.715   2.333
 2831SOL    HW1 9236   2.102   1.792   2.386
 2831SOL    HW2 9237   2.155   1.707   2.273
 2832SOL     OW 9238   2.996   1.341   3.557
 2832SOL    HW1 9239   3.041   1.334   3.641
 2832SOL    HW2 9240   2.945   1.261   3.550
 2833SOL     OW 9241   2.093   1.443   2.397
 2833SOL    HW1 9242   2.074   1.536   2.401
 2833SOL    HW2 9243   2.034   1.404   2.462
 2834SOL     OW 9244   2.122   1.090   2.753
 2834SOL    HW1 9245   2.119   1.003   2.793
 2834SOL    HW2 9246   2.064   1.144   2.808
 2835SOL     OW 9247   2.488   1.723   3.307
 2835SOL    HW1 9248   2.399   1.725   3.344
 2835SOL    HW2 9249   2.496   1.805   3.258
 2836SOL     OW 9250   2.444   0.983   1.998
 2836SOL    HW1 9251   2.492   1.030   1.929
 2836SOL    HW2 9252   2.484   1.014   2.080
 2837SOL     OW 9253   3.449   0.137   3.317
 2837SOL    HW1 9254   3.475   0.221   3.278
 2837SOL    HW2 9255   3.443   0.154   3.411
 2838SOL     OW 9256   1.977   0.655   2.422
 2838SOL    HW1 9257   1.949   0.566   2.443
 2838SOL    HW2 9258   1.970   0.703   2.504
 2839SOL     OW 9259   3.705   1.757   2.196
 2839SOL    HW1 9260   3.771   1.730   2.259
 2839SOL    HW2 9261   3.726   1.848   2.176
 2840SOL     OW 9262   1.896   1.593   1.985
 2840SOL    HW1 9263   1.878   1.502   2.005
 2840SOL    HW2 9264   1.871   1.641   2.064
 2841SOL     OW 9265   3.551   0.918   2.505
 2841SOL    HW1 9266   3.633   0.875   2.482
 2841SOL    HW2 9267   3.529   0.969   2.426
 2842SOL     OW 9268   3.509   1.105   2.291
 2842SOL    HW1 9269   3.595   1.109   2.250
 2842SOL    HW2 9270   3.515   1.167   2.364
 2843SOL     OW 9271   1.985   0.745   3.445
 2843SOL    HW1 9272   2.077   0.772   3.451
 2843SOL    HW2 9273   1.936   0.826   3.453
 2844SOL     OW 9274   2.476   1.387   2.597
 2844SOL    HW1 9275   2.431   1.303   2.606
 2844SOL    HW2 9276   2.460   1.413   2.506
 2845SOL     OW 9277   3.146   1.232   3.285
 2845SOL    HW1 9278   3.181   1.166   3.225
 2845SOL    HW2 9279   3.207   1.231   3.359
 2846SOL     OW 9280   2.675   0.031   2.393
 2846SOL    HW1 9281   2.704   0.118   2.366
 2846SOL    HW2 9282   2.579   0.034   2.386
 2847SOL     OW 9283   2.051   0.964   3.136
 2847SOL    HW1 9284   2.136   0.924   3.121
 2847SOL    HW2 9285   1.990   0.912   3.083
 2848SOL     OW 9286   3.393   0.995   2.061
 2848SOL    HW1 9287   3.323   0.938   2.094
 2848SOL    HW2 9288   3.435   1.030   2.140
 2849SOL     OW 9289   2.192   0.268   3.677
 2849SOL    HW1 9290   2.243   0.343   3.709
 2849SOL    HW2 9291   2.105   0.280   3.714
 2850SOL     OW 9292   3.329   1.420   2.812
 2850SOL    HW1 9293   3.262   1.435   2.879
 2850SOL    HW2 9294   3.316   1.328   2.786
 2851SOL     OW 9295   3.518   1.744   2.440
 2851SOL    HW1 9296   3.500   1.713   2.351
 2851SOL    HW2 9297   3.495   1.670   2.496
 2852SOL     OW 9298   2.456   0.720   2.129
 2852SOL    HW1 9299   2.461   0.802   2.081
 2852SOL    HW2 9300   2.391   0.736   2.198
 2853SOL     OW 9301   3.139   0.350   2.793
 2853SOL    HW1 9302   3.049   0.321   2.806
 2853SOL    HW2 9303   3.190   0.299   2.857
 2854SOL     OW 9304   3.442   1.672   2.171
 2854SOL    HW1 9305   3.533   1.701   2.164
 2854SOL    HW2 9306   3.415   1.654   2.081
 2855SOL     OW 9307   2.656   0.618   3.310
 2855SOL    HW1 9308   2.628   0.597   3.399
 2855SOL    HW2 9309   2.615   0.551   3.256
 2856SOL     OW 9310   3.256   0.475   3.540
 2856SOL    HW1 9311   3.259   0.520   3.625
 2856SOL    HW2 9312   3.320   0.404   3.549
 2857SOL     OW 9313   2.815   0.887   3.445
 2857SOL    HW1 9314   2.870   0.818   3.409
 2857SOL    HW2 9315   2.767   0.922   3.370
 2858SOL     OW 9316   2.856   0.416   3.096
 2858SOL    HW1 9317   2.769   0.437   3.131
 2858SOL    HW2 9318   2.838   0.370   3.014
 2859SOL     OW 9319   2.914   0.697   2.288
 2859SOL    HW1 9320   2.930   0.691   2.382
 2859SOL    HW2 9321   2.830   0.653   2.275
 2860SOL     OW 9322   1.950   0.821   2.639
 2860SOL    HW1 9323   2.031   0.814   2.690
 2860SOL    HW2 9324   1.907   0.900   2.674
 2861SOL     OW 9325   1.997   1.849   3.440
 2861SOL    HW1 9326   1.996   1.831   3.534
 2861SOL    HW2 9327   1.906   1.841   3.413
 2862SOL     OW 9328   2.740   0.368   2.052
 2862SOL    HW1 9329   2.777   0.427   1.986
 2862SOL    HW2 9330   2.797   0.291   2.050
 2863SOL     OW 9331   3.568   0.572   3.690
 2863SOL    HW1 9332   3.531   0.646   3.641
 2863SOL    HW2 9333   3.599   0.512   3.623
 2864SOL     OW 9334   3.240   1.142   2.403
 2864SOL    HW1 9335   3.319   1.130   2.350
 2864SOL    HW2 9336   3.187   1.204   2.353
 2865SOL     OW 9337   2.385   0.203   2.743
 2865SOL    HW1 9338   2.407   0.218   2.835
 2865SOL    HW2 9339   2.407   0.285   2.699
 2866SOL     OW 9340   2.865   1.443   2.332
 2866SOL    HW1 9341   2.831   1.518   2.283
 2866SOL    HW2 9342   2.847   1.464   2.424
 2867SOL     OW 9343   2.217   1.808   2.726
 2867SOL    HW1 9344   2.258   1.721   2.733
 2867SOL    HW2 9345   2.287   1.869   2.747
 2868SOL     OW 9346   3.662   1.054   2.731
 2868SOL    HW1 9347   3.608   1.036   2.654
 2868SOL    HW2 9348   3.599   1.061   2.803
 2869SOL     OW 9349   3.103   1.524   3.371
 2869SOL    HW1 9350   3.078   1.455   3.431
 2869SOL    HW2 9351   3.022   1.545   3.324
 2870SOL     OW 9352   2.180   0.959   2.113
 2870SOL    HW1 9353   2.263   0.977   2.069
 2870SOL    HW2 9354   2.150   0.876   2.076
 2871SOL     OW 9355   3.342   0.745   2.587
 2871SOL    HW1 9356   3.335   0.704   2.674
 2871SOL    HW2 9357   3.420   0.801   2.593
 2872SOL     OW 9358   2.329   1.266   3.600
 2872SOL    HW1 9359   2.302   1.270   3.509
 2872SOL    HW2 9360   2.246   1.263   3.649
 2873SOL     OW 9361   2.984   1.779   2.091
 2873SOL    HW1 9362   2.910   1.737   2.137
 2873SOL    HW2 9363   3.008   1.716   2.023
 2874SOL     OW 9364   2.059   0.277   3.367
 2874SOL    HW1 9365   1.980   0.332   3.365
 2874SOL    HW2 9366   2.052   0.228   3.448
 2875SOL     OW 9367   3.490   1.380   1.951
 2875SOL    HW1 9368   3.449   1.465   1.935
 2875SOL    HW2 9369   3.422   1.317   1.931
 2876SOL     OW 9370   2.327   1.737   2.182
 2876SOL    HW1 9371   2.372   1.791   2.247
 2876SOL    HW2 9372   2.397   1.703   2.126
 2877SOL     OW 9373   3.270   0.101   2.294
 2877SOL    HW1 9374   3.263   0.081   2.200
 2877SOL    HW2 9375   3.363   0.121   2.307
 2878SOL     OW 9376   2.113   1.788   3.093
 2878SOL    HW1 9377   2.164   1.721   3.139
 2878SOL    HW2 9378   2.112   1.759   3.002
 2879SOL     OW 9379   2.799   1.699   2.761
 2879SOL    HW1 9380   2.878   1.650   2.785
 2879SOL    HW2 9381   2.759   1.647   2.692
 2880SOL     OW 9382   2.256   0.696   2.336
 2880SOL    HW1 9383   2.276   0.604   2.348
 2880SOL    HW2 9384   2.162   0.703   2.354
 2881SOL     OW 9385   3.399   0.227   3.584
 2881SOL    HW1 9386   3.407   0.244   3.678
 2881SOL    HW2 9387   3.322   0.171   3.577
 2882SOL     OW 9388   2.486   0.132   1.970
 2882SOL    HW1 9389   2.546   0.062   1.997
 2882SOL    HW2 9390   2.434   0.093   1.899
 2883SOL     OW 9391   2.640   0.312   3.630
 2883SOL    HW1 9392   2.700   0.238   3.630
 2883SOL    HW2 9393   2.594   0.306   3.714
 2884SOL     OW 9394   2.745   1.521   3.052
 2884SOL    HW1 9395   2.729   1.484   2.965
 2884SOL    HW2 9396   2.813   1.465   3.089
 2885SOL     OW 9397   3.202   0.589   3.294
 2885SOL    HW1 9398   3.233   0.558   3.380
 2885SOL    HW2 9399   3.238   0.677   3.286
 2886SOL     OW 9400   2.679   1.393   2.804
 2886SOL    HW1 9401   2.763   1.381   2.760
 2886SOL    HW2 9402   2.615   1.396   2.732
 2887SOL     OW 9403   2.790   0.511   2.765
 2887SOL    HW1 9404   2.765   0.503   2.673
 2887SOL    HW2 9405   2.820   0.423   2.789
 2888SOL     OW 9406   2.405   0.062   2.369
 2888SOL    HW1 9407   2.320   0.059   2.413
 2888SOL    HW2 9408   2.396   0.131   2.303
 2889SOL     OW 9409   3.290   1.199   1.902
 2889SOL    HW1 9410   3.320   1.123   1.953
 2889SOL    HW2 9411   3.205   1.220   1.940
 2890SOL     OW 9412   2.163   0.064   2.055
 2890SOL    HW1 9413   2.221   0.135   2.027
 2890SOL    HW2 9414   2.220   5.287   2.058
 2891SOL     OW 9415   2.802   0.265   2.324
 2891SOL    HW1 9416   2.774   0.301   2.239
 2891SOL    HW2 9417   2.897   0.276   2.324
 2892SOL     OW 9418   2.943   0.683   3.321
 2892SOL    HW1 9419   2.875   0.615   3.325
 2892SOL    HW2 9420   3.025   0.634   3.314
 2893SOL     OW 9421   3.084   1.569   2.655
 2893SOL    HW1 9422   3.100   1.637   2.589
 2893SOL    HW2 9423   3.150   1.586   2.722
 2894SOL     OW 9424   2.332   1.151   2.593
 2894SOL    HW1 9425   2.264   1.131   2.657
 2894SOL    HW2 9426   2.290   1.135   2.508
 2895SOL     OW 9427   3.130   1.793   2.472
 2895SOL    HW1 9428   3.177   1.854   2.415
 2895SOL    HW2 9429   3.063   1.846   2.515
 2896SOL     OW 9430   2.887   0.545   1.885
 2896SOL    HW1 9431   2.844   0.628   1.868
 2896SOL    HW2 9432   2.950   0.564   1.955
 2897SOL     OW 9433   1.942   0.553   3.256
 2897SOL    HW1 9434   2.034   0.553   3.228
 2897SOL    HW2 9435   1.936   0.623   3.320
 2898SOL     OW 9436   2.415   0.238   3.020
 2898SOL    HW1 9437   2.448   0.153   3.050
 2898SOL    HW2 9438   2.323   0.239   3.047
 2899SOL     OW 9439   2.728   0.464   2.503
 2899SOL    HW1 9440   2.682   0.518   2.439
 2899SOL    HW2 9441   2.752   0.384   2.455
 2900SOL     OW 9442   2.840   0.061   2.626
 2900SOL    HW1 9443   2.775   0.058   2.556
 2900SOL    HW2 9444   2.850   5.270   2.653
 2901SOL     OW 9445   3.301   1.162   2.719
 2901SOL    HW1 9446   3.230   1.097   2.719
 2901SOL    HW2 9447   3.324   1.171   2.627
 2902SOL     OW 9448   3.328   0.608   2.836
 2902SOL    HW1 9449   3.276   0.527   2.840
 2902SOL    HW2 9450   3.387   0.601   2.911
 2903SOL     OW 9451   3.706   0.815   2.245
 2903SOL    HW1 9452   3.763   0.764   2.303
 2903SOL    HW2 9453   3.679   0.752   2.178
 2904SOL     OW 9454   2.351   1.420   2.017
 2904SOL    HW1 9455   2.276   1.391   2.068
 2904SOL    HW2 9456   2.343   1.374   1.933
 2905SOL     OW 9457   3.534   1.264   2.506
 2905SOL    HW1 9458   3.629   1.266   2.520
 2905SOL    HW2 9459   3.505   1.353   2.528
 2906SOL     OW 9460   3.256   0.573   1.933
 2906SOL    HW1 9461   3.194   0.552   2.004
 2906SOL    HW2 9462   3.341   0.543   1.966
 2907SOL     OW 9463   2.384   0.265   2.182
 2907SOL    HW1 9464   2.431   0.218   2.114
 2907SOL    HW2 9465   2.362   0.349   2.142
 2908SOL     OW 9466   3.614   1.240   3.432
 2908SOL    HW1 9467   3.701   1.202   3.427
 2908SOL    HW2 9468   3.629   1.331   3.460
 2909SOL     OW 9469   2.917   1.347   3.188
 2909SOL    HW1 9470   2.844   1.319   3.242
 2909SOL    HW2 9471   2.995   1.313   3.233
 2910SOL     OW 9472   3.473   1.626   3.520
 2910SOL    HW1 9473   3.462   1.659   3.431
 2910SOL    HW2 9474   3.556   1.578   3.518
 2911SOL     OW 9475   2.992   1.201   2.964
 2911SOL    HW1 9476   2.938   1.242   3.032
 2911SOL    HW2 9477   2.960   1.238   2.882
 2912SOL     OW 9478   3.489   1.097   2.939
 2912SOL    HW1 9479   3.483   1.160   3.011
 2912SOL    HW2 9480   3.411   1.115   2.886
 2913SOL     OW 9481   2.765   0.107   3.248
 2913SOL    HW1 9482   2.795   0.073   3.164
 2913SOL    HW2 9483   2.842   0.150   3.286
 2914SOL     OW 9484   2.846   1.114   3.586
 2914SOL    HW1 9485   2.754   1.130   3.607
 2914SOL    HW2 9486   2.844   1.037   3.529
 2915SOL     OW 9487   2.571   1.062   2.233
 2915SOL    HW1 9488   2.557   1.044   2.326
 2915SOL    HW2 9489   2.647   1.008   2.209
 2916SOL     OW 9490   2.281   0.817   3.114
 2916SOL    HW1 9491   2.350   0.826   3.180
 2916SOL    HW2 9492   2.246   0.729   3.127
 2917SOL     OW 9493   3.128   0.378   3.136
 2917SOL    HW1 9494   3.161   0.455   3.183
 2917SOL    HW2 9495   3.037   0.400   3.114
 2918SOL     OW 9496   1.934   1.573   3.216
 2918SOL    HW1 9497   1.907   1.648   3.163
 2918SOL    HW2 9498   2.029   1.574   3.213
 2919SOL     OW 9499   2.206   1.112   2.352
 2919SOL    HW1 9500   2.213   1.185   2.290
 2919SOL    HW2 9501   2.204   1.034   2.297
 2920SOL     OW 9502   2.414   0.536   2.722
 2920SOL    HW1 9503   2.428   0.594   2.648
 2920SOL    HW2 9504   2.480   0.562   2.786
 2921SOL     OW 9505   3.110   1.349   2.251
 2921SOL    HW1 9506   3.166   1.420   2.282
 2921SOL    HW2 9507   3.023   1.370   2.285
 2922SOL     OW 9508   3.147   1.458   3.010
 2922SOL    HW1 9509   3.202   1.464   3.088
 2922SOL    HW2 9510   3.089   1.384   3.028
 2923SOL     OW 9511   3.442   0.621   2.343
 2923SOL    HW1 9512   3.395   0.673   2.407
 2923SOL    HW2 9513   3.487   0.686   2.288
 2924SOL     OW 9514   2.208   1.525   3.173
 2924SOL    HW1 9515   2.192   1.482   3.089
 2924SOL    HW2 9516   2.304   1.531   3.179
 2925SOL     OW 9517   2.278   0.744   3.464
 2925SOL    HW1 9518   2.339   0.789   3.406
 2925SOL    HW2 9519   2.319   0.660   3.483
 2926SOL     OW 9520   3.466   0.779   3.545
 2926SOL    HW1 9521   3.380   0.821   3.539
 2926SOL    HW2 9522   3.518   0.822   3.477
 2927SOL     OW 9523   2.914   0.118   3.649
 2927SOL    HW1 9524   2.939   0.198   3.603
 2927SOL    HW2 9525   2.915   0.050   3.582
 2928SOL     OW 9526   2.345   0.058   3.600
 2928SOL    HW1 9527   2.284   5.294   3.564
 2928SOL    HW2 9528   2.291   0.134   3.621
 2929SOL     OW 9529   2.446   0.873   2.894
 2929SOL    HW1 9530   2.478   0.963   2.894
 2929SOL    HW2 9531   2.389   0.868   2.971
 2930SOL     OW 9532   3.217   0.858   2.888
 2930SOL    HW1 9533   3.132   0.847   2.845
 2930SOL    HW2 9534   3.259   0.773   2.881
 2931SOL     OW 9535   3.065   0.528   2.127
 2931SOL    HW1 9536   3.071   0.447   2.179
 2931SOL    HW2 9537   3.023   0.591   2.185
 2932SOL     OW 9538   2.156   0.202   3.111
 2932SOL    HW1 9539   2.116   0.242   3.188
 2932SOL    HW2 9540   2.159   0.109   3.130
 2933SOL     OW 9541   1.906   1.311   3.137
 2933SOL    HW1 9542   1.940   1.256   3.208
 2933SOL    HW2 9543   1.914   1.401   3.171
 2934SOL     OW 9544   2.586   0.631   2.920
 2934SOL    HW1 9545   2.661   0.616   2.862
 2934SOL    HW2 9546   2.557   0.720   2.898
 2935SOL     OW 9547   3.598   0.959   3.717
 2935SOL    HW1 9548   3.553   0.895   3.661
 2935SOL    HW2 9549   3.538   0.974   3.789
 2936SOL     OW 9550   2.170   0.071   2.520
 2936SOL    HW1 9551   2.147   0.163   2.522
 2936SOL    HW2 9552   2.219   0.056   2.601
 2937SOL     OW 9553   3.477   0.377   2.223
 2937SOL    HW1 9554   3.508   0.312   2.286
 2937SOL    HW2 9555   3.456   0.454   2.277
 2938SOL     OW 9556   2.891   0.759   2.822
 2938SOL    HW1 9557   2.885   0.776   2.915
 2938SOL    HW2 9558   2.863   0.668   2.812
 2939SOL     OW 9559   2.850   1.568   3.579
 2939SOL    HW1 9560   2.832   1.605   3.493
 2939SOL    HW2 9561   2.892   1.484   3.561
 2940SOL     OW 9562   3.716   1.503   3.467
 2940SOL    HW1 9563   3.735   1.530   3.377
 2940SOL    HW2 9564   3.797   1.520   3.514
 2941SOL     OW 9565   2.215   0.917   3.671
 2941SOL    HW1 9566   2.296   0.935   3.717
 2941SOL    HW2 9567   2.240   0.854   3.603
 2942SOL     OW 9568   3.387   0.271   1.987
 2942SOL    HW1 9569   3.322   0.208   2.019
 2942SOL    HW2 9570   3.424   0.310   2.067
 2943SOL     OW 9571   3.152   0.826   1.892
 2943SOL    HW1 9572   3.194   0.740   1.896
 2943SOL    HW2 9573   3.184   0.865   1.811
 2944SOL     OW 9574   2.928   1.337   2.717
 2944SOL    HW1 9575   2.933   1.264   2.654
 2944SOL    HW2 9576   2.989   1.402   2.682
 2945SOL     OW 9577   2.170   0.809   2.809
 2945SOL    HW1 9578   2.264   0.830   2.802
 2945SOL    HW2 9579   2.169   0.718   2.840
 2946SOL     OW 9580   2.193   0.528   2.875
 2946SOL    HW1 9581   2.156   0.440   2.860
 2946SOL    HW2 9582   2.270   0.532   2.818
 2947SOL     OW 9583   2.997   0.376   3.552
 2947SOL    HW1 9584   2.949   0.431   3.614
 2947SOL    HW2 9585   3.084   0.416   3.547
 2948SOL     OW 9586   2.994   0.221   3.329
 2948SOL    HW1 9587   2.997   0.281   3.404
 2948SOL    HW2 9588   3.049   0.263   3.263
 2949SOL     OW 9589   1.867   1.320   2.057
 2949SOL    HW1 9590   1.780   1.335   2.019
 2949SOL    HW2 9591   1.864   1.230   2.091
 2950SOL     OW 9592   1.951   1.788   2.799
 2950SOL    HW1 9593   1.920   1.708   2.755
 2950SOL    HW2 9594   2.041   1.798   2.769
 2951SOL     OW 9595   2.355   1.572   2.766
 2951SOL    HW1 9596   2.424   1.633   2.790
 2951SOL    HW2 9597   2.399   1.508   2.709
 2952SOL     OW 9598   2.842   0.790   3.087
 2952SOL    HW1 9599   2.900   0.769   3.161
 2952SOL    HW2 9600   2.757   0.753   3.112
 2953SOL     OW 9601   1.897   0.545   2.979
 2953SOL    HW1 9602   1.977   0.532   2.927
 2953SOL    HW2 9603   1.928   0.548   3.070
 2954SOL     OW 9604   2.048   0.524   3.590
 2954SOL    HW1 9605   2.112   0.488   3.530
 2954SOL    HW2 9606   2.011   0.599   3.544
 2955SOL     OW 9607   3.240   0.937   3.520
 2955SOL    HW1 9608   3.262   1.030   3.517
 2955SOL    HW2 9609   3.236   0.910   3.428
 2956SOL     OW 9610   2.676   0.573   2.227
 2956SOL    HW1 9611   2.681   0.500   2.166
 2956SOL    HW2 9612   2.602   0.625   2.196
 2957SOL     OW 9613   3.503   0.601   3.045
 2957SOL    HW1 9614   3.493   0.542   3.120
 2957SOL    HW2 9615   3.591   0.582   3.012
 2958SOL     OW 9616   2.104   1.549   3.591
 2958SOL    HW1 9617   2.079   1.613   3.659
 2958SOL    HW2 9618   2.107   1.465   3.637
 2959SOL     OW 9619   2.565   0.450   3.120
 2959SOL    HW1 9620   2.512   0.377   3.088
 2959SOL    HW2 9621   2.563   0.514   3.049
 2960SOL     OW 9622   2.804   1.661   3.325
 2960SOL    HW1 9623   2.770   1.624   3.243
 2960SOL    HW2 9624   2.800   1.756   3.312
 2961SOL     OW 9625   2.323   0.492   2.042
 2961SOL    HW1 9626   2.384   0.562   2.067
 2961SOL    HW2 9627   2.238   0.536   2.034
 2962SOL     OW 9628   2.006   1.141   3.335
 2962SOL    HW1 9629   2.008   1.091   3.416
 2962SOL    HW2 9630   2.023   1.076   3.266
 2963SOL     OW 9631   3.187   1.044   3.083
 2963SOL    HW1 9632   3.209   0.981   3.015
 2963SOL    HW2 9633   3.117   1.098   3.044
 2964SOL     OW 9634   3.175   0.857   2.167
 2964SOL    HW1 9635   3.100   0.826   2.218
 2964SOL    HW2 9636   3.149   0.843   2.076
 2965SOL     OW 9637   3.635   1.742   3.012
 2965SOL    HW1 9638   3.696   1.767   2.943
 2965SOL    HW2 9639   3.611   1.652   2.991
 2966SOL     OW 9640   3.098   1.731   2.966
 2966SOL    HW1 9641   3.183   1.756   2.927
 2966SOL    HW2 9642   3.109   1.639   2.990
 2967SOL     OW 9643   1.946   1.267   2.873
 2967SOL    HW1 9644   1.931   1.280   2.966
 2967SOL    HW2 9645   1.874   1.211   2.844
 2968SOL     OW 9646   2.539   1.660   3.598
 2968SOL    HW1 9647   2.463   1.715   3.580
 2968SOL    HW2 9648   2.594   1.669   3.520
 2969SOL     OW 9649   3.573   0.151   2.362
 2969SOL    HW1 9650   3.648   0.131   2.306
 2969SOL    HW2 9651   3.568   0.077   2.423
 2970SOL     OW 9652   3.253   1.568   2.348
 2970SOL    HW1 9653   3.313   1.601   2.281
 2970SOL    HW2 9654   3.204   1.645   2.377
 2971SOL     OW 9655   1.997   1.799   3.706
 2971SOL    HW1 9656   1.948   1.732   3.754
 2971SOL    HW2 9657   2.046   1.845   3.774
 2972SOL     OW 9658   3.139   0.926   2.532
 2972SOL    HW1 9659   3.213   0.866   2.541
 2972SOL    HW2 9660   3.173   0.999   2.480
 2973SOL     OW 9661   2.672   1.274   3.289
 2973SOL    HW1 9662   2.644   1.313   3.372
 2973SOL    HW2 9663   2.604   1.296   3.227
 2974SOL     OW 9664   2.532   1.623   2.018
 2974SOL    HW1 9665   2.544   1.636   1.924
 2974SOL    HW2 9666   2.477   1.544   2.024
 2975SOL     OW 9667   3.488   1.724   3.253
 2975SOL    HW1 9668   3.537   1.731   3.171
 2975SOL    HW2 9669   3.470   1.815   3.277
 2976SOL     OW 9670   3.708   0.154   2.818
 2976SOL    HW1 9671   3.703   0.059   2.815
 2976SOL    HW2 9672   3.622   0.184   2.788
 2977SOL     OW 9673   2.122   0.329   2.580
 2977SOL    HW1 9674   2.034   0.361   2.559
 2977SOL    HW2 9675   2.121   0.319   2.675
 2978SOL     OW 9676   3.070   1.605   1.894
 2978SOL    HW1 9677   3.059   1.513   1.921
 2978SOL    HW2 9678   3.005   1.617   1.825
 2979SOL     OW 9679   2.686   1.006   3.234
 2979SOL    HW1 9680   2.731   1.001   3.150
 2979SOL    HW2 9681   2.685   1.099   3.255
 2980SOL     OW 9682   2.778   0.911   2.152
 2980SOL    HW1 9683   2.839   0.943   2.086
 2980SOL    HW2 9684   2.826   0.842   2.198
 2981SOL     OW 9685   3.352   1.626   1.905
 2981SOL    HW1 9686   3.258   1.618   1.890
 2981SOL    HW2 9687   3.390   1.632   1.817
 2982SOL     OW 9688   2.230   1.304   3.355
 2982SOL    HW1 9689   2.217   1.379   3.298
 2982SOL    HW2 9690   2.153   1.248   3.339
 2983SOL     OW 9691   3.472   1.283   3.142
 2983SOL    HW1 9692   3.532   1.270   3.216
 2983SOL    HW2 9693   3.412   1.351   3.171
 2984SOL     OW 9694   2.917   1.108   2.570
 2984SOL    HW1 9695   2.846   1.058   2.608
 2984SOL    HW2 9696   2.980   1.042   2.540
 2985SOL     OW 9697   2.880   0.244   2.831
 2985SOL    HW1 9698   2.860   0.198   2.750
 2985SOL    HW2 9699   2.874   0.176   2.899
 2986SOL     OW 9700   2.466   1.488   2.342
 2986SOL    HW1 9701   2.514   1.438   2.276
 2986SOL    HW2 9702   2.394   1.528   2.295
 2987SOL     OW 9703   3.588   0.386   3.240
 2987SOL    HW1 9704   3.659   0.451   3.239
 2987SOL    HW2 9705   3.619   0.316   3.182
 2988SOL     OW 9706   2.122   1.344   2.151
 2988SOL    HW1 9707   2.029   1.341   2.128
 2988SOL    HW2 9708   2.124   1.381   2.239
 2989SOL     OW 9709   1.975   1.025   3.582
 2989SOL    HW1 9710   1.899   1.001   3.635
 2989SOL    HW2 9711   2.049   0.986   3.628
 2990SOL     OW 9712   2.535   0.214   3.353
 2990SOL    HW1 9713   2.618   0.197   3.307
 2990SOL    HW2 9714   2.560   0.264   3.430
 2991SOL     OW 9715   1.940   0.337   1.903
 2991SOL    HW1 9716   1.857   0.304   1.871
 2991SOL    HW2 9717   1.960   0.411   1.846
 2992SOL     OW 9718   3.290   0.857   3.261
 2992SOL    HW1 9719   3.241   0.919   3.206
 2992SOL    HW2 9720   3.379   0.860   3.226
 2993SOL     OW 9721   1.933   0.167   2.176
 2993SOL    HW1 9722   1.936   0.250   2.128
 2993SOL    HW2 9723   2.017   0.125   2.157
 2994SOL     OW 9724   3.041   1.338   1.979
 2994SOL    HW1 9725   2.951   1.306   1.982
 2994SOL    HW2 9726   3.069   1.339   2.071
 2995SOL     OW 9727   2.482   0.831   3.296
 2995SOL    HW1 9728   2.538   0.907   3.280
 2995SOL    HW2 9729   2.543   0.757   3.304
 2996SOL     OW 9730   3.347   1.782   2.845
 2996SOL    HW1 9731   3.370   1.840   2.773
 2996SOL    HW2 9732   3.431   1.757   2.884
 2997SOL     OW 9733   2.577   0.573   3.563
 2997SOL    HW1 9734   2.620   0.635   3.621
 2997SOL    HW2 9735   2.604   0.487   3.595
 2998SOL     OW 9736   3.335   1.197   3.493
 2998SOL    HW1 9737   3.323   1.212   3.586
 2998SOL    HW2 9738   3.428   1.215   3.477
 2999SOL     OW 9739   2.246   1.725   3.427
 2999SOL    HW1 9740   2.168   1.780   3.418
 2999SOL    HW2 9741   2.216   1.648   3.475
 3000SOL     OW 9742   3.530   0.881   3.117
 3000SOL    HW1 9743   3.524   0.796   3.074
 3000SOL    HW2 9744   3.520   0.945   3.047
 3001SOL     OW 9745   3.082   0.318   2.327
 3001SOL    HW1 9746   3.145   0.246   2.321
 3001SOL    HW2 9747   3.112   0.370   2.401
 3002SOL     OW 9748   2.450   0.737   2.533
 3002SOL    HW1 9749   2.490   0.822   2.518
 3002SOL    HW2 9750   2.384   0.728   2.465
 3003SOL     OW 9751   3.627   0.362   3.511
 3003SOL    HW1 9752   3.609   0.378   3.419
 3003SOL    HW2 9753   3.555   0.307   3.541
 3004SOL     OW 9754   3.608   0.934   3.374
 3004SOL    HW1 9755   3.602   1.028   3.387
 3004SOL    HW2 9756   3.592   0.922   3.280
 3005SOL     OW 9757   2.722   1.367   1.898
 3005SOL    HW1 9758   2.687   1.395   1.982
 3005SOL    HW2 9759   2.742   1.448   1.852
 3006SOL     OW 9760   2.525   1.781   2.804
 3006SOL    HW1 9761   2.507   1.873   2.787
 3006SOL    HW2 9762   2.621   1.774   2.800
 3007SOL     OW 9763   2.730   0.968   2.716
 3007SOL    HW1 9764   2.781   0.897   2.755
 3007SOL    HW2 9765   2.694   1.016   2.791
 3008SOL     OW 9766   2.940   0.989   1.950
 3008SOL    HW1 9767   2.919   1.039   1.872
 3008SOL    HW2 9768   3.015   0.934   1.925
 3009SOL     OW 9769   3.714   1.553   2.705
 3009SOL    HW1 9770   3.635   1.542   2.652
 3009SOL    HW2 9771   3.704   1.489   2.776
 3010SOL     OW 9772   2.087   1.301   3.718
 3010SOL    HW1 9773   2.021   1.238   3.688
 3010SOL    HW2 9774   2.068   1.312   3.811
 3011SOL     OW 9775   1.948   1.232   2.527
 3011SOL    HW1 9776   1.955   1.185   2.610
 3011SOL    HW2 9777   2.015   1.193   2.471
 3012SOL     OW 9778   2.543   1.402   3.489
 3012SOL    HW1 9779   2.464   1.358   3.521
 3012SOL    HW2 9780   2.543   1.486   3.534
 3013SOL     OW 9781   3.673   0.175   3.093
 3013SOL    HW1 9782   3.637   0.086   3.094
 3013SOL    HW2 9783   3.695   0.190   3.001
 3014SOL     OW 9784   2.291   0.436   2.386
 3014SOL    HW1 9785   2.325   0.364   2.334
 3014SOL    HW2 9786   2.244   0.394   2.458
 3015SOL     OW 9787   3.562   1.487   2.955
 3015SOL    HW1 9788   3.481   1.466   2.909
 3015SOL    HW2 9789   3.570   1.419   3.022
 3016SOL     OW 9790   2.192   0.558   3.153
 3016SOL    HW1 9791   2.247   0.503   3.208
 3016SOL    HW2 9792   2.211   0.531   3.063
 3017SOL     OW 9793   2.691   1.578   2.539
 3017SOL    HW1 9794   2.675   1.635   2.464
 3017SOL    HW2 9795   2.616   1.519   2.542
 3018SOL     OW 9796   3.289   0.219   2.978
 3018SOL    HW1 9797   3.326   0.145   3.026
 3018SOL    HW2 9798   3.241   0.269   3.044
 3019SOL     OW 9799   2.865   0.020   3.000
 3019SOL    HW1 9800   2.814   5.252   2.956
 3019SOL    HW2 9801   2.951   5.281   3.015
 3020SOL     OW 9802   2.635   1.333   2.180
 3020SOL    HW1 9803   2.606   1.242   2.186
 3020SOL    HW2 9804   2.717   1.336   2.229
 3021SOL     OW 9805   2.485   1.527   3.130
 3021SOL    HW1 9806   2.490   1.593   3.200
 3021SOL    HW2 9807   2.572   1.530   3.089
 3022SOL     OW 9808   3.218   0.036   2.026
 3022SOL    HW1 9809   3.255   5.294   1.948
 3022SOL    HW2 9810   3.138   5.286   2.044
 3023SOL     OW 9811   3.163   0.464   2.545
 3023SOL    HW1 9812   3.109   0.543   2.550
 3023SOL    HW2 9813   3.155   0.425   2.632
 3024SOL     OW 9814   3.456   0.215   2.745
 3024SOL    HW1 9815   3.392   0.227   2.814
 3024SOL    HW2 9816   3.449   0.294   2.691
 3025SOL     OW 9817   1.905   1.069   2.169
 3025SOL    HW1 9818   1.999   1.061   2.151
 3025SOL    HW2 9819   1.877   0.980   2.191
 3026SOL     OW 9820   2.748   1.655   2.203
 3026SOL    HW1 9821   2.675   1.639   2.144
 3026SOL    HW2 9822   2.720   1.729   2.256
 3027SOL     OW 9823   2.088   0.625   3.849
 3027SOL    HW1 9824   2.000   0.621   3.885
 3027SOL    HW2 9825   2.078   0.600   3.757
 3028SOL     OW 9826   2.079   0.285   4.717
 3028SOL    HW1 9827   2.108   0.249   4.801
 3028SOL    HW2 9828   1.995   0.242   4.700
 3029SOL     OW 9829   1.864   0.388   4.362
 3029SOL    HW1 9830   1.780   0.409   4.402
 3029SOL    HW2 9831   1.846   0.311   4.308
 3030SOL     OW 9832   2.427   1.289   4.902
 3030SOL    HW1 9833   2.340   1.296   4.862
 3030SOL    HW2 9834   2.447   1.378   4.932
 3031SOL     OW 9835   3.427   1.512   4.431
 3031SOL    HW1 9836   3.385   1.493   4.515
 3031SOL    HW2 9837   3.355   1.516   4.368
 3032SOL     OW 9838   2.994   0.697   4.424
 3032SOL    HW1 9839   3.042   0.779   4.409
 3032SOL    HW2 9840   2.947   0.711   4.505
 3033SOL     OW 9841   3.631   0.604   3.951
 3033SOL    HW1 9842   3.609   0.597   3.858
 3033SOL    HW2 9843   3.595   0.525   3.990
 3034SOL     OW 9844   2.612   1.137   4.769
 3034SOL    HW1 9845   2.544   1.173   4.826
 3034SOL    HW2 9846   2.649   1.213   4.724
 3035SOL     OW 9847   2.731   0.773   5.547
 3035SOL    HW1 9848   2.719   0.845   5.610
 3035SOL    HW2 9849   2.755   0.817   5.465
 3036SOL     OW 9850   2.548   1.001   4.370
 3036SOL    HW1 9851   2.614   0.991   4.439
 3036SOL    HW2 9852   2.479   1.053   4.410
 3037SOL     OW 9853   2.574   1.150   5.539
 3037SOL    HW1 9854   2.622   1.228   5.567
 3037SOL    HW2 9855   2.492   1.184   5.502
 3038SOL     OW 9856   2.194   1.423   4.791
 3038SOL    HW1 9857   2.120   1.386   4.742
 3038SOL    HW2 9858   2.242   1.475   4.727
 3039SOL     OW 9859   3.322   1.500   5.082
 3039SOL    HW1 9860   3.373   1.580   5.089
 3039SOL    HW2 9861   3.256   1.506   5.151
 3040SOL     OW 9862   2.307   0.397   5.206
 3040SOL    HW1 9863   2.382   0.337   5.207
 3040SOL    HW2 9864   2.232   0.341   5.223
 3041SOL     OW 9865   3.471   0.451   4.463
 3041SOL    HW1 9866   3.396   0.472   4.408
 3041SOL    HW2 9867   3.486   0.530   4.515
 3042SOL     OW 9868   2.079   1.699   4.177
 3042SOL    HW1 9869   2.106   1.767   4.239
 3042SOL    HW2 9870   2.153   1.691   4.117
 3043SOL     OW 9871   2.999   1.341   5.417
 3043SOL    HW1 9872   3.040   1.336   5.504
 3043SOL    HW2 9873   2.947   1.261   5.410
 3044SOL     OW 9874   2.095   1.435   4.261
 3044SOL    HW1 9875   2.074   1.529   4.256
 3044SOL    HW2 9876   2.034   1.400   4.325
 3045SOL     OW 9877   2.121   1.090   4.614
 3045SOL    HW1 9878   2.119   1.004   4.655
 3045SOL    HW2 9879   2.065   1.144   4.669
 3046SOL     OW 9880   2.469   1.790   5.151
 3046SOL    HW1 9881   2.389   1.773   5.200
 3046SOL    HW2 9882   2.494   1.880   5.176
 3047SOL     OW 9883   2.445   0.983   3.860
 3047SOL    HW1 9884   2.492   1.030   3.792
 3047SOL    HW2 9885   2.484   1.014   3.942
 3048SOL     OW 9886   3.449   0.137   5.179
 3048SOL    HW1 9887   3.475   0.221   5.140
 3048SOL    HW2 9888   3.443   0.154   5.273
 3049SOL     OW 9889   1.977   0.655   4.284
 3049SOL    HW1 9890   1.949   0.566   4.305
 3049SOL    HW2 9891   1.970   0.703   4.366
 3050SOL     OW 9892   3.705   1.758   4.058
 3050SOL    HW1 9893   3.772   1.731   4.120
 3050SOL    HW2 9894   3.727   1.848   4.037
 3051SOL     OW 9895   1.897   1.593   3.847
 3051SOL    HW1 9896   1.879   1.501   3.867
 3051SOL    HW2 9897   1.870   1.641   3.926
 3052SOL     OW 9898   3.551   0.919   4.367
 3052SOL    HW1 9899   3.633   0.875   4.344
 3052SOL    HW2 9900   3.528   0.969   4.289
 3053SOL     OW 9901   3.509   1.105   4.153
 3053SOL    HW1 9902   3.595   1.109   4.112
 3053SOL    HW2 9903   3.514   1.167   4.226
 3054SOL     OW 9904   1.985   0.745   5.307
 3054SOL    HW1 9905   2.077   0.772   5.313
 3054SOL    HW2 9906   1.936   0.827   5.316
 3055SOL     OW 9907   2.473   1.387   4.456
 3055SOL    HW1 9908   2.429   1.303   4.465
 3055SOL    HW2 9909   2.457   1.413   4.365
 3056SOL     OW 9910   3.151   1.236   5.148
 3056SOL    HW1 9911   3.182   1.169   5.087
 3056SOL    HW2 9912   3.210   1.230   5.223
 3057SOL     OW 9913   2.675   0.031   4.255
 3057SOL    HW1 9914   2.704   0.118   4.228
 3057SOL    HW2 9915   2.579   0.034   4.248
 3058SOL     OW 9916   2.051   0.964   4.998
 3058SOL    HW1 9917   2.137   0.924   4.983
 3058SOL    HW2 9918   1.991   0.912   4.945
 3059SOL     OW 9919   3.393   0.995   3.923
 3059SOL    HW1 9920   3.324   0.938   3.956
 3059SOL    HW2 9921   3.435   1.029   4.002
 3060SOL     OW 9922   3.049   1.809   5.343
 3060SOL    HW1 9923   3.059   1.860   5.262
 3060SOL    HW2 9924   3.064   1.719   5.316
 3061SOL     OW 9925   2.192   0.268   5.539
 3061SOL    HW1 9926   2.243   0.343   5.571
 3061SOL    HW2 9927   2.105   0.280   5.576
 3062SOL     OW 9928   3.330   1.418   4.673
 3062SOL    HW1 9929   3.263   1.434   4.740
 3062SOL    HW2 9930   3.318   1.327   4.647
 3063SOL     OW 9931   3.516   1.746   4.302
 3063SOL    HW1 9932   3.500   1.713   4.214
 3063SOL    HW2 9933   3.494   1.672   4.359
 3064SOL     OW 9934   2.456   0.720   3.991
 3064SOL    HW1 9935   2.461   0.802   3.943
 3064SOL    HW2 9936   2.391   0.736   4.060
 3065SOL     OW 9937   3.139   0.350   4.655
 3065SOL    HW1 9938   3.049   0.321   4.668
 3065SOL    HW2 9939   3.190   0.299   4.719
 3066SOL     OW 9940   3.441   1.674   4.033
 3066SOL    HW1 9941   3.532   1.701   4.026
 3066SOL    HW2 9942   3.415   1.655   3.943
 3067SOL     OW 9943   2.657   0.618   5.172
 3067SOL    HW1 9944   2.628   0.597   5.261
 3067SOL    HW2 9945   2.615   0.551   5.118
 3068SOL     OW 9946   3.256   0.475   5.402
 3068SOL    HW1 9947   3.259   0.520   5.487
 3068SOL    HW2 9948   3.319   0.404   5.411
 3069SOL     OW 9949   2.815   0.887   5.307
 3069SOL    HW1 9950   2.870   0.818   5.271
 3069SOL    HW2 9951   2.767   0.922   5.232
 3070SOL     OW 9952   2.856   0.416   4.958
 3070SOL    HW1 9953   2.769   0.437   4.993
 3070SOL    HW2 9954   2.838   0.370   4.876
 3071SOL     OW 9955   2.914   0.697   4.150
 3071SOL    HW1 9956   2.930   0.691   4.244
 3071SOL    HW2 9957   2.830   0.653   4.137
 3072SOL     OW 9958   1.950   0.821   4.501
 3072SOL    HW1 9959   2.031   0.814   4.552
 3072SOL    HW2 9960   1.907   0.900   4.536
 3073SOL     OW 9961   1.985   1.860   5.305
 3073SOL    HW1 9962   1.988   1.837   5.398
 3073SOL    HW2 9963   1.899   1.830   5.276
 3074SOL     OW 9964   2.740   0.368   3.914
 3074SOL    HW1 9965   2.777   0.427   3.848
 3074SOL    HW2 9966   2.798   0.291   3.912
 3075SOL     OW 9967   3.568   0.572   5.552
 3075SOL    HW1 9968   3.531   0.646   5.503
 3075SOL    HW2 9969   3.599   0.512   5.485
 3076SOL     OW 9970   3.240   1.142   4.265
 3076SOL    HW1 9971   3.319   1.130   4.212
 3076SOL    HW2 9972   3.187   1.204   4.215
 3077SOL     OW 9973   2.385   0.203   4.605
 3077SOL    HW1 9974   2.407   0.218   4.697
 3077SOL    HW2 9975   2.407   0.285   4.561
 3078SOL     OW 9976   2.866   1.447   4.192
 3078SOL    HW1 9977   2.828   1.522   4.148
 3078SOL    HW2 9978   2.847   1.462   4.285
 3079SOL     OW 9979   3.662   1.055   4.593
 3079SOL    HW1 9980   3.608   1.036   4.516
 3079SOL    HW2 9981   3.599   1.061   4.665
 3080SOL     OW 9982   3.091   1.539   5.239
 3080SOL    HW1 9983   3.075   1.464   5.297
 3080SOL    HW2 9984   3.026   1.529   5.169
 3081SOL     OW 9985   2.180   0.959   3.975
 3081SOL    HW1 9986   2.263   0.977   3.931
 3081SOL    HW2 9987   2.150   0.876   3.937
 3082SOL     OW 9988   3.342   0.745   4.449
 3082SOL    HW1 9989   3.335   0.704   4.536
 3082SOL    HW2 9990   3.420   0.801   4.456
 3083SOL     OW 9991   2.330   1.266   5.464
 3083SOL    HW1 9992   2.303   1.269   5.372
 3083SOL    HW2 9993   2.247   1.264   5.512
 3084SOL     OW 9994   2.993   1.775   3.958
 3084SOL    HW1 9995   2.915   1.739   4.001
 3084SOL    HW2 9996   3.011   1.714   3.887
 3085SOL     OW 9997   2.059   0.277   5.228
 3085SOL    HW1 9998   1.981   0.332   5.227
 3085SOL    HW2 9999   2.052   0.228   5.310
 3086SOL     OW10000   3.490   1.381   3.814
 3086SOL    HW110001   3.449   1.466   3.796
 3086SOL    HW210002   3.422   1.317   3.793
 3087SOL     OW10003   2.324   1.730   4.032
 3087SOL    HW110004   2.364   1.784   4.100
 3087SOL    HW210005   2.398   1.698   3.980
 3088SOL     OW10006   3.270   0.101   4.156
 3088SOL    HW110007   3.263   0.081   4.063
 3088SOL    HW210008   3.363   0.122   4.169
 3089SOL     OW10009   2.091   1.772   4.951
 3089SOL    HW110010   2.156   1.733   5.010
 3089SOL    HW210011   2.142   1.803   4.876
 3090SOL     OW10012   2.807   1.657   4.626
 3090SOL    HW110013   2.897   1.627   4.617
 3090SOL    HW210014   2.764   1.631   4.545
 3091SOL     OW10015   2.256   0.696   4.198
 3091SOL    HW110016   2.275   0.604   4.210
 3091SOL    HW210017   2.162   0.704   4.216
 3092SOL     OW10018   3.399   0.227   5.446
 3092SOL    HW110019   3.407   0.244   5.540
 3092SOL    HW210020   3.322   0.171   5.439
 3093SOL     OW10021   2.486   0.132   3.832
 3093SOL    HW110022   2.546   0.062   3.858
 3093SOL    HW210023   2.434   0.093   3.761
 3094SOL     OW10024   2.640   0.312   5.492
 3094SOL    HW110025   2.700   0.238   5.492
 3094SOL    HW210026   2.594   0.306   5.576
 3095SOL     OW10027   2.732   1.514   4.928
 3095SOL    HW110028   2.730   1.502   4.833
 3095SOL    HW210029   2.809   1.465   4.956
 3096SOL     OW10030   3.202   0.589   5.156
 3096SOL    HW110031   3.233   0.558   5.242
 3096SOL    HW210032   3.238   0.677   5.148
 3097SOL     OW10033   2.672   1.381   4.661
 3097SOL    HW110034   2.759   1.382   4.622
 3097SOL    HW210035   2.612   1.388   4.587
 3098SOL     OW10036   2.790   0.510   4.627
 3098SOL    HW110037   2.765   0.503   4.535
 3098SOL    HW210038   2.820   0.423   4.651
 3099SOL     OW10039   2.405   0.062   4.231
 3099SOL    HW110040   2.320   0.059   4.275
 3099SOL    HW210041   2.396   0.131   4.165
 3100SOL     OW10042   3.290   1.199   3.765
 3100SOL    HW110043   3.320   1.123   3.815
 3100SOL    HW210044   3.205   1.221   3.802
 3101SOL     OW10045   2.163   0.064   3.917
 3101SOL    HW110046   2.221   0.136   3.889
 3101SOL    HW210047   2.220   5.287   3.920
 3102SOL     OW10048   2.802   0.265   4.186
 3102SOL    HW110049   2.774   0.301   4.101
 3102SOL    HW210050   2.897   0.276   4.186
 3103SOL     OW10051   2.943   0.683   5.183
 3103SOL    HW110052   2.875   0.616   5.187
 3103SOL    HW210053   3.025   0.634   5.176
 3104SOL     OW10054   3.083   1.571   4.519
 3104SOL    HW110055   3.102   1.636   4.451
 3104SOL    HW210056   3.153   1.584   4.584
 3105SOL     OW10057   2.331   1.150   4.455
 3105SOL    HW110058   2.263   1.131   4.519
 3105SOL    HW210059   2.290   1.135   4.370
 3106SOL     OW10060   3.133   1.792   4.332
 3106SOL    HW110061   3.180   1.854   4.276
 3106SOL    HW210062   3.065   1.844   4.374
 3107SOL     OW10063   2.886   0.545   3.747
 3107SOL    HW110064   2.844   0.628   3.730
 3107SOL    HW210065   2.950   0.564   3.816
 3108SOL     OW10066   1.942   0.552   5.118
 3108SOL    HW110067   2.034   0.553   5.090
 3108SOL    HW210068   1.936   0.623   5.182
 3109SOL     OW10069   2.415   0.238   4.882
 3109SOL    HW110070   2.448   0.153   4.912
 3109SOL    HW210071   2.323   0.239   4.909
 3110SOL     OW10072   2.728   0.463   4.365
 3110SOL    HW110073   2.682   0.518   4.301
 3110SOL    HW210074   2.752   0.384   4.317
 3111SOL     OW10075   2.840   0.061   4.488
 3111SOL    HW110076   2.775   0.058   4.418
 3111SOL    HW210077   2.850   5.270   4.515
 3112SOL     OW10078   3.301   1.161   4.581
 3112SOL    HW110079   3.229   1.098   4.581
 3112SOL    HW210080   3.324   1.171   4.488
 3113SOL     OW10081   3.328   0.608   4.699
 3113SOL    HW110082   3.276   0.527   4.702
 3113SOL    HW210083   3.387   0.601   4.773
 3114SOL     OW10084   3.706   0.815   4.107
 3114SOL    HW110085   3.763   0.764   4.165
 3114SOL    HW210086   3.679   0.752   4.040
 3115SOL     OW10087   2.351   1.418   3.876
 3115SOL    HW110088   2.276   1.391   3.928
 3115SOL    HW210089   2.341   1.371   3.793
 3116SOL     OW10090   3.534   1.264   4.368
 3116SOL    HW110091   3.629   1.266   4.382
 3116SOL    HW210092   3.505   1.352   4.390
 3117SOL     OW10093   3.256   0.573   3.795
 3117SOL    HW110094   3.194   0.552   3.866
 3117SOL    HW210095   3.341   0.543   3.828
 3118SOL     OW10096   2.384   0.265   4.044
 3118SOL    HW110097   2.431   0.218   3.975
 3118SOL    HW210098   2.362   0.349   4.004
 3119SOL     OW10099   3.614   1.241   5.294
 3119SOL    HW110100   3.701   1.202   5.289
 3119SOL    HW210101   3.629   1.331   5.322
 3120SOL     OW10102   2.922   1.351   5.057
 3120SOL    HW110103   2.847   1.322   5.107
 3120SOL    HW210104   2.997   1.310   5.099
 3121SOL     OW10105   3.471   1.627   5.380
 3121SOL    HW110106   3.463   1.660   5.290
 3121SOL    HW210107   3.553   1.578   5.380
 3122SOL     OW10108   2.990   1.202   4.828
 3122SOL    HW110109   2.933   1.242   4.893
 3122SOL    HW210110   2.960   1.238   4.744
 3123SOL     OW10111   3.489   1.097   4.801
 3123SOL    HW110112   3.483   1.160   4.873
 3123SOL    HW210113   3.411   1.115   4.748
 3124SOL     OW10114   2.765   0.107   5.110
 3124SOL    HW110115   2.796   0.073   5.026
 3124SOL    HW210116   2.842   0.150   5.148
 3125SOL     OW10117   2.846   1.114   5.448
 3125SOL    HW110118   2.755   1.131   5.469
 3125SOL    HW210119   2.844   1.037   5.391
 3126SOL     OW10120   2.571   1.062   4.095
 3126SOL    HW110121   2.557   1.044   4.188
 3126SOL    HW210122   2.647   1.008   4.071
 3127SOL     OW10123   2.282   0.817   4.976
 3127SOL    HW110124   2.350   0.826   5.042
 3127SOL    HW210125   2.246   0.729   4.989
 3128SOL     OW10126   3.128   0.378   4.998
 3128SOL    HW110127   3.161   0.454   5.045
 3128SOL    HW210128   3.037   0.400   4.976
 3129SOL     OW10129   1.933   1.570   5.079
 3129SOL    HW110130   1.907   1.644   5.025
 3129SOL    HW210131   2.029   1.568   5.073
 3130SOL     OW10132   2.206   1.111   4.214
 3130SOL    HW110133   2.213   1.185   4.153
 3130SOL    HW210134   2.204   1.034   4.158
 3131SOL     OW10135   2.414   0.536   4.584
 3131SOL    HW110136   2.428   0.594   4.510
 3131SOL    HW210137   2.480   0.562   4.648
 3132SOL     OW10138   3.110   1.348   4.114
 3132SOL    HW110139   3.166   1.419   4.145
 3132SOL    HW210140   3.023   1.371   4.147
 3133SOL     OW10141   3.148   1.454   4.870
 3133SOL    HW110142   3.201   1.460   4.949
 3133SOL    HW210143   3.088   1.381   4.887
 3134SOL     OW10144   3.443   0.621   4.205
 3134SOL    HW110145   3.395   0.673   4.269
 3134SOL    HW210146   3.487   0.686   4.150
 3135SOL     OW10147   2.210   1.516   5.043
 3135SOL    HW110148   2.195   1.481   4.956
 3135SOL    HW210149   2.304   1.534   5.046
 3136SOL     OW10150   2.278   0.744   5.326
 3136SOL    HW110151   2.339   0.789   5.268
 3136SOL    HW210152   2.320   0.660   5.345
 3137SOL     OW10153   3.466   0.779   5.407
 3137SOL    HW110154   3.380   0.821   5.401
 3137SOL    HW210155   3.518   0.822   5.339
 3138SOL     OW10156   2.913   0.118   5.512
 3138SOL    HW110157   2.939   0.198   5.465
 3138SOL    HW210158   2.915   0.050   5.445
 3139SOL     OW10159   2.345   0.058   5.462
 3139SOL    HW110160   2.284   5.294   5.426
 3139SOL    HW210161   2.291   0.134   5.483
 3140SOL     OW10162   2.446   0.873   4.756
 3140SOL    HW110163   2.479   0.963   4.756
 3140SOL    HW210164   2.390   0.869   4.833
 3141SOL     OW10165   3.217   0.859   4.751
 3141SOL    HW110166   3.132   0.848   4.708
 3141SOL    HW210167   3.259   0.773   4.743
 3142SOL     OW10168   3.066   0.527   3.990
 3142SOL    HW110169   3.071   0.447   4.041
 3142SOL    HW210170   3.023   0.591   4.047
 3143SOL     OW10171   2.156   0.202   4.973
 3143SOL    HW110172   2.116   0.242   5.050
 3143SOL    HW210173   2.158   0.108   4.992
 3144SOL     OW10174   1.905   1.310   4.999
 3144SOL    HW110175   1.940   1.255   5.070
 3144SOL    HW210176   1.914   1.399   5.032
 3145SOL     OW10177   2.586   0.631   4.782
 3145SOL    HW110178   2.661   0.616   4.724
 3145SOL    HW210179   2.557   0.720   4.761
 3146SOL     OW10180   3.598   0.959   5.578
 3146SOL    HW110181   3.553   0.895   5.523
 3146SOL    HW210182   3.538   0.974   5.651
 3147SOL     OW10183   2.170   0.071   4.382
 3147SOL    HW110184   2.147   0.163   4.384
 3147SOL    HW210185   2.219   0.056   4.463
 3148SOL     OW10186   3.476   0.377   4.086
 3148SOL    HW110187   3.508   0.312   4.148
 3148SOL    HW210188   3.456   0.454   4.139
 3149SOL     OW10189   2.891   0.759   4.683
 3149SOL    HW110190   2.885   0.776   4.777
 3149SOL    HW210191   2.863   0.668   4.674
 3150SOL     OW10192   2.845   1.566   5.442
 3150SOL    HW110193   2.827   1.609   5.359
 3150SOL    HW210194   2.888   1.484   5.419
 3151SOL     OW10195   3.716   1.504   5.329
 3151SOL    HW110196   3.735   1.530   5.239
 3151SOL    HW210197   3.797   1.520   5.377
 3152SOL     OW10198   2.215   0.916   5.533
 3152SOL    HW110199   2.297   0.936   5.579
 3152SOL    HW210200   2.240   0.853   5.465
 3153SOL     OW10201   3.387   0.270   3.849
 3153SOL    HW110202   3.322   0.208   3.881
 3153SOL    HW210203   3.424   0.310   3.929
 3154SOL     OW10204   3.152   0.826   3.754
 3154SOL    HW110205   3.194   0.740   3.758
 3154SOL    HW210206   3.183   0.865   3.673
 3155SOL     OW10207   2.930   1.336   4.580
 3155SOL    HW110208   2.933   1.264   4.517
 3155SOL    HW210209   2.990   1.401   4.545
 3156SOL     OW10210   2.171   0.809   4.671
 3156SOL    HW110211   2.264   0.830   4.664
 3156SOL    HW210212   2.169   0.718   4.702
 3157SOL     OW10213   2.193   0.527   4.737
 3157SOL    HW110214   2.157   0.440   4.722
 3157SOL    HW210215   2.270   0.531   4.680
 3158SOL     OW10216   2.997   0.376   5.414
 3158SOL    HW110217   2.949   0.431   5.476
 3158SOL    HW210218   3.084   0.416   5.409
 3159SOL     OW10219   2.994   0.221   5.191
 3159SOL    HW110220   2.997   0.280   5.266
 3159SOL    HW210221   3.049   0.263   5.125
 3160SOL     OW10222   1.867   1.320   3.920
 3160SOL    HW110223   1.780   1.335   3.882
 3160SOL    HW210224   1.864   1.231   3.953
 3161SOL     OW10225   1.953   1.792   4.645
 3161SOL    HW110226   1.916   1.711   4.610
 3161SOL    HW210227   2.046   1.772   4.657
 3162SOL     OW10228   2.363   1.572   4.631
 3162SOL    HW110229   2.442   1.615   4.664
 3162SOL    HW210230   2.396   1.508   4.567
 3163SOL     OW10231   2.843   0.789   4.949
 3163SOL    HW110232   2.900   0.769   5.023
 3163SOL    HW210233   2.757   0.754   4.975
 3164SOL     OW10234   1.897   0.544   4.841
 3164SOL    HW110235   1.977   0.533   4.789
 3164SOL    HW210236   1.928   0.548   4.932
 3165SOL     OW10237   2.048   0.524   5.452
 3165SOL    HW110238   2.113   0.488   5.392
 3165SOL    HW210239   2.011   0.599   5.406
 3166SOL     OW10240   3.240   0.937   5.382
 3166SOL    HW110241   3.262   1.030   5.379
 3166SOL    HW210242   3.237   0.910   5.290
 3167SOL     OW10243   2.676   0.573   4.089
 3167SOL    HW110244   2.681   0.500   4.028
 3167SOL    HW210245   2.602   0.625   4.058
 3168SOL     OW10246   3.503   0.601   4.908
 3168SOL    HW110247   3.493   0.542   4.982
 3168SOL    HW210248   3.591   0.582   4.874
 3169SOL     OW10249   2.102   1.551   5.450
 3169SOL    HW110250   2.081   1.615   5.518
 3169SOL    HW210251   2.108   1.467   5.496
 3170SOL     OW10252   2.565   0.450   4.982
 3170SOL    HW110253   2.512   0.377   4.950
 3170SOL    HW210254   2.563   0.514   4.911
 3171SOL     OW10255   2.787   1.674   5.193
 3171SOL    HW110256   2.765   1.638   5.106
 3171SOL    HW210257   2.782   1.769   5.182
 3172SOL     OW10258   2.323   0.492   3.904
 3172SOL    HW110259   2.384   0.562   3.929
 3172SOL    HW210260   2.238   0.536   3.896
 3173SOL     OW10261   2.004   1.141   5.197
 3173SOL    HW110262   2.007   1.091   5.279
 3173SOL    HW210263   2.022   1.076   5.129
 3174SOL     OW10264   3.186   1.046   4.946
 3174SOL    HW110265   3.208   0.983   4.878
 3174SOL    HW210266   3.116   1.099   4.907
 3175SOL     OW10267   3.175   0.857   4.029
 3175SOL    HW110268   3.100   0.826   4.080
 3175SOL    HW210269   3.149   0.843   3.938
 3176SOL     OW10270   3.636   1.742   4.876
 3176SOL    HW110271   3.696   1.767   4.806
 3176SOL    HW210272   3.610   1.652   4.854
 3177SOL     OW10273   3.134   1.733   4.853
 3177SOL    HW110274   3.206   1.744   4.791
 3177SOL    HW210275   3.122   1.638   4.859
 3178SOL     OW10276   1.947   1.267   4.735
 3178SOL    HW110277   1.931   1.280   4.829
 3178SOL    HW210278   1.874   1.212   4.706
 3179SOL     OW10279   2.540   1.668   5.456
 3179SOL    HW110280   2.484   1.745   5.450
 3179SOL    HW210281   2.606   1.681   5.387
 3180SOL     OW10282   3.573   0.151   4.224
 3180SOL    HW110283   3.649   0.131   4.168
 3180SOL    HW210284   3.568   0.077   4.285
 3181SOL     OW10285   3.254   1.567   4.210
 3181SOL    HW110286   3.313   1.600   4.143
 3181SOL    HW210287   3.205   1.644   4.239
 3182SOL     OW10288   1.998   1.796   5.568
 3182SOL    HW110289   1.948   1.729   5.615
 3182SOL    HW210290   2.045   1.844   5.637
 3183SOL     OW10291   3.139   0.926   4.394
 3183SOL    HW110292   3.213   0.866   4.403
 3183SOL    HW210293   3.173   0.999   4.342
 3184SOL     OW10294   2.676   1.273   5.154
 3184SOL    HW110295   2.645   1.313   5.235
 3184SOL    HW210296   2.612   1.301   5.088
 3185SOL     OW10297   2.537   1.613   3.882
 3185SOL    HW110298   2.549   1.634   3.789
 3185SOL    HW210299   2.479   1.538   3.883
 3186SOL     OW10300   3.486   1.728   5.116
 3186SOL    HW110301   3.536   1.734   5.035
 3186SOL    HW210302   3.470   1.819   5.141
 3187SOL     OW10303   3.708   0.154   4.680
 3187SOL    HW110304   3.703   0.059   4.677
 3187SOL    HW210305   3.622   0.184   4.650
 3188SOL     OW10306   2.122   0.329   4.442
 3188SOL    HW110307   2.034   0.361   4.421
 3188SOL    HW210308   2.121   0.319   4.537
 3189SOL     OW10309   3.068   1.604   3.754
 3189SOL    HW110310   3.063   1.513   3.783
 3189SOL    HW210311   3.001   1.611   3.686
 3190SOL     OW10312   2.686   1.006   5.096
 3190SOL    HW110313   2.729   1.003   5.011
 3190SOL    HW210314   2.684   1.099   5.119
 3191SOL     OW10315   2.778   0.911   4.014
 3191SOL    HW110316   2.839   0.943   3.948
 3191SOL    HW210317   2.826   0.842   4.060
 3192SOL     OW10318   3.353   1.627   3.767
 3192SOL    HW110319   3.259   1.619   3.750
 3192SOL    HW210320   3.392   1.633   3.680
 3193SOL     OW10321   2.230   1.300   5.219
 3193SOL    HW110322   2.222   1.376   5.161
 3193SOL    HW210323   2.153   1.247   5.201
 3194SOL     OW10324   3.472   1.284   5.004
 3194SOL    HW110325   3.531   1.271   5.079
 3194SOL    HW210326   3.411   1.351   5.033
 3195SOL     OW10327   2.917   1.108   4.430
 3195SOL    HW110328   2.846   1.058   4.470
 3195SOL    HW210329   2.980   1.042   4.402
 3196SOL     OW10330   2.880   0.244   4.693
 3196SOL    HW110331   2.861   0.198   4.612
 3196SOL    HW210332   2.874   0.176   4.761
 3197SOL     OW10333   2.464   1.485   4.202
 3197SOL    HW110334   2.511   1.437   4.134
 3197SOL    HW210335   2.397   1.534   4.155
 3198SOL     OW10336   3.588   0.386   5.102
 3198SOL    HW110337   3.659   0.451   5.101
 3198SOL    HW210338   3.619   0.316   5.044
 3199SOL     OW10339   2.122   1.344   4.012
 3199SOL    HW110340   2.029   1.342   3.990
 3199SOL    HW210341   2.125   1.379   4.101
 3200SOL     OW10342   1.975   1.024   5.444
 3200SOL    HW110343   1.899   1.000   5.497
 3200SOL    HW210344   2.050   0.985   5.490
 3201SOL     OW10345   2.535   0.213   5.215
 3201SOL    HW110346   2.618   0.197   5.169
 3201SOL    HW210347   2.560   0.264   5.292
 3202SOL     OW10348   1.940   0.337   3.765
 3202SOL    HW110349   1.857   0.304   3.733
 3202SOL    HW210350   1.960   0.411   3.708
 3203SOL     OW10351   3.290   0.858   5.123
 3203SOL    HW110352   3.241   0.919   5.068
 3203SOL    HW210353   3.379   0.861   5.088
 3204SOL     OW10354   1.933   0.167   4.037
 3204SOL    HW110355   1.936   0.250   3.990
 3204SOL    HW210356   2.017   0.125   4.019
 3205SOL     OW10357   3.042   1.339   3.842
 3205SOL    HW110358   2.952   1.306   3.844
 3205SOL    HW210359   3.069   1.338   3.934
 3206SOL     OW10360   2.482   0.830   5.158
 3206SOL    HW110361   2.537   0.907   5.143
 3206SOL    HW210362   2.543   0.757   5.166
 3207SOL     OW10363   3.353   1.768   4.688
 3207SOL    HW110364   3.377   1.837   4.626
 3207SOL    HW210365   3.432   1.755   4.741
 3208SOL     OW10366   2.577   0.573   5.425
 3208SOL    HW110367   2.620   0.635   5.483
 3208SOL    HW210368   2.604   0.487   5.457
 3209SOL     OW10369   3.335   1.197   5.355
 3209SOL    HW110370   3.323   1.212   5.449
 3209SOL    HW210371   3.428   1.215   5.340
 3210SOL     OW10372   2.237   1.741   5.288
 3210SOL    HW110373   2.153   1.785   5.275
 3210SOL    HW210374   2.214   1.657   5.328
 3211SOL     OW10375   3.530   0.881   4.979
 3211SOL    HW110376   3.524   0.796   4.936
 3211SOL    HW210377   3.520   0.945   4.908
 3212SOL     OW10378   3.082   0.318   4.189
 3212SOL    HW110379   3.145   0.246   4.183
 3212SOL    HW210380   3.112   0.370   4.263
 3213SOL     OW10381   2.450   0.737   4.395
 3213SOL    HW110382   2.490   0.822   4.380
 3213SOL    HW210383   2.384   0.728   4.327
 3214SOL     OW10384   3.627   0.362   5.373
 3214SOL    HW110385   3.609   0.378   5.281
 3214SOL    HW210386   3.555   0.307   5.403
 3215SOL     OW10387   3.608   0.934   5.236
 3215SOL    HW110388   3.602   1.028   5.249
 3215SOL    HW210389   3.592   0.921   5.142
 3216SOL     OW10390   2.721   1.368   3.759
 3216SOL    HW110391   2.685   1.394   3.844
 3216SOL    HW210392   2.741   1.451   3.715
 3217SOL     OW10393   2.730   0.969   4.578
 3217SOL    HW110394   2.781   0.897   4.617
 3217SOL    HW210395   2.694   1.016   4.653
 3218SOL     OW10396   2.941   0.989   3.813
 3218SOL    HW110397   2.919   1.039   3.735
 3218SOL    HW210398   3.015   0.935   3.787
 3219SOL     OW10399   3.713   1.554   4.568
 3219SOL    HW110400   3.634   1.543   4.515
 3219SOL    HW210401   3.705   1.489   4.638
 3220SOL     OW10402   2.087   1.302   5.580
 3220SOL    HW110403   2.021   1.240   5.549
 3220SOL    HW210404   2.068   1.314   5.673
 3221SOL     OW10405   1.946   1.230   4.390
 3221SOL    HW110406   1.955   1.184   4.473
 3221SOL    HW210407   2.014   1.193   4.334
 3222SOL     OW10408   2.544   1.404   5.353
 3222SOL    HW110409   2.464   1.362   5.385
 3222SOL    HW210410   2.540   1.493   5.389
 3223SOL     OW10411   3.673   0.175   4.955
 3223SOL    HW110412   3.637   0.086   4.956
 3223SOL    HW210413   3.695   0.190   4.863
 3224SOL     OW10414   2.291   0.436   4.248
 3224SOL    HW110415   2.325   0.364   4.196
 3224SOL    HW210416   2.244   0.394   4.320
 3225SOL     OW10417   3.561   1.488   4.818
 3225SOL    HW110418   3.481   1.467   4.771
 3225SOL    HW210419   3.569   1.418   4.884
 3226SOL     OW10420   2.191   0.558   5.015
 3226SOL    HW110421   2.247   0.503   5.069
 3226SOL    HW210422   2.211   0.531   4.925
 3227SOL     OW10423   2.689   1.570   4.392
 3227SOL    HW110424   2.671   1.613   4.308
 3227SOL    HW210425   2.612   1.515   4.407
 3228SOL     OW10426   3.289   0.219   4.840
 3228SOL    HW110427   3.326   0.145   4.888
 3228SOL    HW210428   3.240   0.269   4.906
 3229SOL     OW10429   2.865   0.020   4.862
 3229SOL    HW110430   2.814   5.251   4.818
 3229SOL    HW210431   2.951   5.281   4.877
 3230SOL     OW10432   2.636   1.332   4.040
 3230SOL    HW110433   2.606   1.242   4.047
 3230SOL    HW210434   2.717   1.335   4.091
 3231SOL     OW10435   2.479   1.559   5.006
 3231SOL    HW110436   2.483   1.640   5.058
 3231SOL    HW210437   2.568   1.546   4.975
 3232SOL     OW10438   3.218   0.036   3.888
 3232SOL    HW110439   3.255   5.295   3.810
 3232SOL    HW210440   3.138   5.287   3.906
 3233SOL     OW10441   3.163   0.464   4.407
 3233SOL    HW110442   3.109   0.543   4.412
 3233SOL    HW210443   3.155   0.425   4.494
 3234SOL     OW10444   3.456   0.215   4.607
 3234SOL    HW110445   3.391   0.227   4.676
 3234SOL    HW210446   3.449   0.294   4.553
 3235SOL     OW10447   1.905   1.069   4.031
 3235SOL    HW110448   1.999   1.061   4.013
 3235SOL    HW210449   1.878   0.980   4.053
 3236SOL     OW10450   2.735   1.662   4.076
 3236SOL    HW110451   2.673   1.633   4.009
 3236SOL    HW210452   2.702   1.748   4.104
 3237SOL     OW10453   2.088   0.625   5.711
 3237SOL    HW110454   2.000   0.621   5.747
 3237SOL    HW210455   2.078   0.600   5.619
 3238SOL     OW10456   2.079   0.285   6.579
 3238SOL    HW110457   2.108   0.249   6.663
 3238SOL    HW210458   1.995   0.242   6.562
 3239SOL     OW10459   1.864   0.388   6.224
 3239SOL    HW110460   1.780   0.409   6.264
 3239SOL    HW210461   1.846   0.311   6.170
 3240SOL     OW10462   2.429   1.291   6.764
 3240SOL    HW110463   2.342   1.296   6.724
 3240SOL    HW210464   2.445   1.380   6.796
 3241SOL     OW10465   3.426   1.512   6.293
 3241SOL    HW110466   3.383   1.491   6.376
 3241SOL    HW210467   3.355   1.516   6.230
 3242SOL     OW10468   2.994   0.697   6.286
 3242SOL    HW110469   3.042   0.779   6.271
 3242SOL    HW210470   2.947   0.712   6.367
 3243SOL     OW10471   3.631   0.604   5.813
 3243SOL    HW110472   3.609   0.597   5.720
 3243SOL    HW210473   3.595   0.525   5.852
 3244SOL     OW10474   2.614   1.140   6.629
 3244SOL    HW110475   2.546   1.177   6.686
 3244SOL    HW210476   2.651   1.217   6.585
 3245SOL     OW10477   2.729   0.775   7.406
 3245SOL    HW110478   2.718   0.849   7.466
 3245SOL    HW210479   2.756   0.815   7.323
 3246SOL     OW10480   2.548   1.001   6.231
 3246SOL    HW110481   2.613   0.990   6.301
 3246SOL    HW210482   2.479   1.054   6.271
 3247SOL     OW10483   2.574   1.151   7.400
 3247SOL    HW110484   2.621   1.229   7.428
 3247SOL    HW210485   2.492   1.185   7.363
 3248SOL     OW10486   2.192   1.423   6.654
 3248SOL    HW110487   2.120   1.384   6.604
 3248SOL    HW210488   2.241   1.473   6.589
 3249SOL     OW10489   3.322   1.501   6.943
 3249SOL    HW110490   3.375   1.580   6.952
 3249SOL    HW210491   3.257   1.507   7.013
 3250SOL     OW10492   2.307   0.397   7.069
 3250SOL    HW110493   2.382   0.338   7.070
 3250SOL    HW210494   2.232   0.341   7.085
 3251SOL     OW10495   3.471   0.451   6.325
 3251SOL    HW110496   3.396   0.472   6.270
 3251SOL    HW210497   3.486   0.530   6.376
 3252SOL     OW10498   2.081   1.716   6.057
 3252SOL    HW110499   2.103   1.792   6.111
 3252SOL    HW210500   2.155   1.708   5.996
 3253SOL     OW10501   2.999   1.342   7.276
 3253SOL    HW110502   3.039   1.338   7.363
 3253SOL    HW210503   2.947   1.261   7.270
 3254SOL     OW10504   2.093   1.443   6.121
 3254SOL    HW110505   2.075   1.537   6.124
 3254SOL    HW210506   2.034   1.405   6.186
 3255SOL     OW10507   2.122   1.090   6.477
 3255SOL    HW110508   2.119   1.003   6.517
 3255SOL    HW210509   2.064   1.144   6.532
 3256SOL     OW10510   2.470   1.790   7.014
 3256SOL    HW110511   2.389   1.773   7.062
 3256SOL    HW210512   2.495   1.879   7.038
 3257SOL     OW10513   2.445   0.983   5.722
 3257SOL    HW110514   2.492   1.030   5.653
 3257SOL    HW210515   2.484   1.014   5.804
 3258SOL     OW10516   3.449   0.137   7.041
 3258SOL    HW110517   3.475   0.221   7.003
 3258SOL    HW210518   3.442   0.154   7.135
 3259SOL     OW10519   1.977   0.655   6.146
 3259SOL    HW110520   1.949   0.566   6.167
 3259SOL    HW210521   1.970   0.703   6.228
 3260SOL     OW10522   3.705   1.757   5.919
 3260SOL    HW110523   3.771   1.730   5.983
 3260SOL    HW210524   3.726   1.848   5.900
 3261SOL     OW10525   1.896   1.593   5.710
 3261SOL    HW110526   1.878   1.501   5.730
 3261SOL    HW210527   1.871   1.640   5.789
 3262SOL     OW10528   3.551   0.918   6.229
 3262SOL    HW110529   3.633   0.875   6.206
 3262SOL    HW210530   3.528   0.969   6.151
 3263SOL     OW10531   3.509   1.105   6.015
 3263SOL    HW110532   3.595   1.109   5.974
 3263SOL    HW210533   3.514   1.167   6.088
 3264SOL     OW10534   1.985   0.744   7.170
 3264SOL    HW110535   2.077   0.772   7.175
 3264SOL    HW210536   1.935   0.825   7.178
 3265SOL     OW10537   2.476   1.388   6.321
 3265SOL    HW110538   2.431   1.304   6.330
 3265SOL    HW210539   2.460   1.414   6.231
 3266SOL     OW10540   3.150   1.237   7.008
 3266SOL    HW110541   3.181   1.170   6.949
 3266SOL    HW210542   3.208   1.232   7.084
 3267SOL     OW10543   2.675   0.031   6.117
 3267SOL    HW110544   2.704   0.118   6.090
 3267SOL    HW210545   2.579   0.034   6.110
 3268SOL     OW10546   2.051   0.964   6.860
 3268SOL    HW110547   2.136   0.924   6.845
 3268SOL    HW210548   1.990   0.912   6.807
 3269SOL     OW10549   3.393   0.995   5.785
 3269SOL    HW110550   3.324   0.938   5.818
 3269SOL    HW210551   3.435   1.029   5.865
 3270SOL     OW10552   3.047   1.808   7.209
 3270SOL    HW110553   3.054   1.869   7.135
 3270SOL    HW210554   3.065   1.722   7.172
 3271SOL     OW10555   2.191   0.264   7.408
 3271SOL    HW110556   2.242   0.342   7.433
 3271SOL    HW210557   2.103   0.281   7.441
 3272SOL     OW10558   3.330   1.419   6.536
 3272SOL    HW110559   3.262   1.435   6.602
 3272SOL    HW210560   3.316   1.328   6.510
 3273SOL     OW10561   3.519   1.744   6.164
 3273SOL    HW110562   3.500   1.713   6.075
 3273SOL    HW210563   3.495   1.670   6.220
 3274SOL     OW10564   2.456   0.720   5.853
 3274SOL    HW110565   2.461   0.802   5.805
 3274SOL    HW210566   2.391   0.736   5.921
 3275SOL     OW10567   3.139   0.350   6.517
 3275SOL    HW110568   3.049   0.321   6.530
 3275SOL    HW210569   3.190   0.299   6.581
 3276SOL     OW10570   3.442   1.671   5.895
 3276SOL    HW110571   3.533   1.701   5.888
 3276SOL    HW210572   3.414   1.654   5.805
 3277SOL     OW10573   2.656   0.618   7.034
 3277SOL    HW110574   2.628   0.597   7.123
 3277SOL    HW210575   2.615   0.551   6.980
 3278SOL     OW10576   3.256   0.475   7.264
 3278SOL    HW110577   3.258   0.520   7.349
 3278SOL    HW210578   3.319   0.403   7.273
 3279SOL     OW10579   2.815   0.887   7.169
 3279SOL    HW110580   2.870   0.818   7.132
 3279SOL    HW210581   2.767   0.922   7.094
 3280SOL     OW10582   2.856   0.417   6.820
 3280SOL    HW110583   2.769   0.437   6.855
 3280SOL    HW210584   2.838   0.370   6.738
 3281SOL     OW10585   2.914   0.697   6.012
 3281SOL    HW110586   2.930   0.691   6.106
 3281SOL    HW210587   2.830   0.653   5.999
 3282SOL     OW10588   1.950   0.821   6.364
 3282SOL    HW110589   2.031   0.814   6.414
 3282SOL    HW210590   1.907   0.899   6.398
 3283SOL     OW10591   1.986   1.861   7.168
 3283SOL    HW110592   1.989   1.837   7.261
 3283SOL    HW210593   1.900   1.833   7.139
 3284SOL     OW10594   2.740   0.368   5.776
 3284SOL    HW110595   2.777   0.427   5.710
 3284SOL    HW210596   2.798   0.291   5.774
 3285SOL     OW10597   3.570   0.573   7.415
 3285SOL    HW110598   3.532   0.647   7.367
 3285SOL    HW210599   3.599   0.513   7.347
 3286SOL     OW10600   3.240   1.142   6.127
 3286SOL    HW110601   3.319   1.130   6.074
 3286SOL    HW210602   3.187   1.204   6.077
 3287SOL     OW10603   2.385   0.203   6.467
 3287SOL    HW110604   2.407   0.218   6.559
 3287SOL    HW210605   2.407   0.285   6.423
 3288SOL     OW10606   2.866   1.444   6.057
 3288SOL    HW110607   2.831   1.518   6.007
 3288SOL    HW210608   2.846   1.464   6.148
 3289SOL     OW10609   2.216   1.810   6.451
 3289SOL    HW110610   2.260   1.725   6.458
 3289SOL    HW210611   2.285   1.875   6.468
 3290SOL     OW10612   3.662   1.054   6.455
 3290SOL    HW110613   3.608   1.036   6.378
 3290SOL    HW210614   3.599   1.061   6.527
 3291SOL     OW10615   3.090   1.539   7.098
 3291SOL    HW110616   3.077   1.467   7.159
 3291SOL    HW210617   3.024   1.525   7.030
 3292SOL     OW10618   2.180   0.959   5.838
 3292SOL    HW110619   2.263   0.978   5.793
 3292SOL    HW210620   2.150   0.876   5.799
 3293SOL     OW10621   3.342   0.745   6.311
 3293SOL    HW110622   3.335   0.704   6.398
 3293SOL    HW210623   3.420   0.801   6.317
 3294SOL     OW10624   2.329   1.265   7.324
 3294SOL    HW110625   2.302   1.270   7.232
 3294SOL    HW210626   2.246   1.263   7.373
 3295SOL     OW10627   2.985   1.778   5.816
 3295SOL    HW110628   2.910   1.737   5.861
 3295SOL    HW210629   3.008   1.715   5.747
 3296SOL     OW10630   2.059   0.278   7.090
 3296SOL    HW110631   1.981   0.332   7.087
 3296SOL    HW210632   2.050   0.227   7.170
 3297SOL     OW10633   3.490   1.381   5.675
 3297SOL    HW110634   3.449   1.466   5.659
 3297SOL    HW210635   3.422   1.317   5.655
 3298SOL     OW10636   2.327   1.737   5.905
 3298SOL    HW110637   2.372   1.792   5.970
 3298SOL    HW210638   2.398   1.704   5.850
 3299SOL     OW10639   3.270   0.101   6.018
 3299SOL    HW110640   3.263   0.081   5.925
 3299SOL    HW210641   3.363   0.122   6.031
 3300SOL     OW10642   2.116   1.790   6.818
 3300SOL    HW110643   2.170   1.724   6.862
 3300SOL    HW210644   2.111   1.760   6.727
 3301SOL     OW10645   2.800   1.698   6.485
 3301SOL    HW110646   2.879   1.648   6.505
 3301SOL    HW210647   2.757   1.648   6.415
 3302SOL     OW10648   2.256   0.696   6.060
 3302SOL    HW110649   2.276   0.603   6.072
 3302SOL    HW210650   2.162   0.703   6.078
 3303SOL     OW10651   3.399   0.227   7.310
 3303SOL    HW110652   3.407   0.245   7.403
 3303SOL    HW210653   3.322   0.171   7.302
 3304SOL     OW10654   2.486   0.132   5.694
 3304SOL    HW110655   2.546   0.062   5.720
 3304SOL    HW210656   2.434   0.093   5.623
 3305SOL     OW10657   2.639   0.312   7.351
 3305SOL    HW110658   2.701   0.239   7.352
 3305SOL    HW210659   2.601   0.312   7.439
 3306SOL     OW10660   2.737   1.521   6.780
 3306SOL    HW110661   2.721   1.485   6.693
 3306SOL    HW210662   2.808   1.467   6.816
 3307SOL     OW10663   3.202   0.589   7.018
 3307SOL    HW110664   3.233   0.558   7.104
 3307SOL    HW210665   3.238   0.677   7.010
 3308SOL     OW10666   2.678   1.392   6.528
 3308SOL    HW110667   2.763   1.381   6.484
 3308SOL    HW210668   2.615   1.396   6.456
 3309SOL     OW10669   2.790   0.511   6.489
 3309SOL    HW110670   2.765   0.503   6.397
 3309SOL    HW210671   2.820   0.423   6.513
 3310SOL     OW10672   2.405   0.062   6.093
 3310SOL    HW110673   2.320   0.059   6.137
 3310SOL    HW210674   2.396   0.131   6.027
 3311SOL     OW10675   3.290   1.199   5.627
 3311SOL    HW110676   3.320   1.123   5.677
 3311SOL    HW210677   3.204   1.221   5.664
 3312SOL     OW10678   2.163   0.064   5.779
 3312SOL    HW110679   2.220   0.136   5.751
 3312SOL    HW210680   2.220   5.287   5.782
 3313SOL     OW10681   2.802   0.265   6.048
 3313SOL    HW110682   2.774   0.301   5.963
 3313SOL    HW210683   2.897   0.276   6.048
 3314SOL     OW10684   2.943   0.683   7.045
 3314SOL    HW110685   2.876   0.615   7.050
 3314SOL    HW210686   3.025   0.634   7.038
 3315SOL     OW10687   3.084   1.571   6.380
 3315SOL    HW110688   3.099   1.637   6.313
 3315SOL    HW210689   3.152   1.587   6.445
 3316SOL     OW10690   2.332   1.151   6.317
 3316SOL    HW110691   2.263   1.131   6.381
 3316SOL    HW210692   2.291   1.135   6.232
 3317SOL     OW10693   3.129   1.793   6.196
 3317SOL    HW110694   3.176   1.854   6.140
 3317SOL    HW210695   3.062   1.846   6.239
 3318SOL     OW10696   2.886   0.545   5.609
 3318SOL    HW110697   2.843   0.628   5.592
 3318SOL    HW210698   2.950   0.564   5.678
 3319SOL     OW10699   1.943   0.552   6.980
 3319SOL    HW110700   2.034   0.553   6.952
 3319SOL    HW210701   1.937   0.623   7.044
 3320SOL     OW10702   2.416   0.238   6.744
 3320SOL    HW110703   2.448   0.153   6.774
 3320SOL    HW210704   2.324   0.239   6.771
 3321SOL     OW10705   2.728   0.463   6.227
 3321SOL    HW110706   2.682   0.518   6.163
 3321SOL    HW210707   2.752   0.384   6.179
 3322SOL     OW10708   2.840   0.061   6.350
 3322SOL    HW110709   2.775   0.058   6.280
 3322SOL    HW210710   2.850   5.270   6.377
 3323SOL     OW10711   3.300   1.162   6.443
 3323SOL    HW110712   3.229   1.097   6.442
 3323SOL    HW210713   3.325   1.172   6.351
 3324SOL     OW10714   3.328   0.608   6.561
 3324SOL    HW110715   3.276   0.527   6.564
 3324SOL    HW210716   3.387   0.601   6.635
 3325SOL     OW10717   3.706   0.815   5.969
 3325SOL    HW110718   3.763   0.764   6.027
 3325SOL    HW210719   3.679   0.752   5.902
 3326SOL     OW10720   2.352   1.420   5.740
 3326SOL    HW110721   2.276   1.391   5.792
 3326SOL    HW210722   2.342   1.375   5.657
 3327SOL     OW10723   3.534   1.264   6.231
 3327SOL    HW110724   3.628   1.266   6.244
 3327SOL    HW210725   3.504   1.352   6.252
 3328SOL     OW10726   3.256   0.573   5.657
 3328SOL    HW110727   3.194   0.552   5.728
 3328SOL    HW210728   3.341   0.543   5.690
 3329SOL     OW10729   2.384   0.265   5.906
 3329SOL    HW110730   2.431   0.218   5.838
 3329SOL    HW210731   2.362   0.349   5.866
 3330SOL     OW10732   3.613   1.240   7.155
 3330SOL    HW110733   3.701   1.202   7.150
 3330SOL    HW210734   3.628   1.330   7.185
 3331SOL     OW10735   2.919   1.353   6.918
 3331SOL    HW110736   2.844   1.322   6.970
 3331SOL    HW210737   2.995   1.312   6.960
 3332SOL     OW10738   3.471   1.626   7.240
 3332SOL    HW110739   3.464   1.660   7.150
 3332SOL    HW210740   3.553   1.577   7.241
 3333SOL     OW10741   2.993   1.205   6.690
 3333SOL    HW110742   2.934   1.243   6.755
 3333SOL    HW210743   2.962   1.239   6.606
 3334SOL     OW10744   3.488   1.097   6.663
 3334SOL    HW110745   3.483   1.160   6.735
 3334SOL    HW210746   3.411   1.115   6.610
 3335SOL     OW10747   2.765   0.107   6.972
 3335SOL    HW110748   2.795   0.073   6.888
 3335SOL    HW210749   2.842   0.150   7.010
 3336SOL     OW10750   2.846   1.114   7.311
 3336SOL    HW110751   2.754   1.131   7.331
 3336SOL    HW210752   2.845   1.037   7.255
 3337SOL     OW10753   2.571   1.062   5.957
 3337SOL    HW110754   2.557   1.044   6.050
 3337SOL    HW210755   2.647   1.008   5.933
 3338SOL     OW10756   2.282   0.817   6.838
 3338SOL    HW110757   2.350   0.825   6.904
 3338SOL    HW210758   2.246   0.729   6.851
 3339SOL     OW10759   3.128   0.378   6.860
 3339SOL    HW110760   3.161   0.455   6.907
 3339SOL    HW210761   3.038   0.400   6.838
 3340SOL     OW10762   1.935   1.574   6.941
 3340SOL    HW110763   1.906   1.645   6.884
 3340SOL    HW210764   2.030   1.574   6.933
 3341SOL     OW10765   2.207   1.112   6.076
 3341SOL    HW110766   2.213   1.185   6.014
 3341SOL    HW210767   2.205   1.034   6.020
 3342SOL     OW10768   2.414   0.536   6.446
 3342SOL    HW110769   2.428   0.594   6.372
 3342SOL    HW210770   2.480   0.562   6.510
 3343SOL     OW10771   3.110   1.349   5.976
 3343SOL    HW110772   3.166   1.420   6.006
 3343SOL    HW210773   3.023   1.370   6.009
 3344SOL     OW10774   3.146   1.458   6.734
 3344SOL    HW110775   3.202   1.462   6.811
 3344SOL    HW210776   3.090   1.382   6.748
 3345SOL     OW10777   3.443   0.621   6.067
 3345SOL    HW110778   3.394   0.673   6.131
 3345SOL    HW210779   3.487   0.686   6.012
 3346SOL     OW10780   2.208   1.528   6.899
 3346SOL    HW110781   2.196   1.485   6.815
 3346SOL    HW210782   2.303   1.540   6.907
 3347SOL     OW10783   2.278   0.744   7.188
 3347SOL    HW110784   2.339   0.789   7.130
 3347SOL    HW210785   2.320   0.660   7.207
 3348SOL     OW10786   3.466   0.779   7.269
 3348SOL    HW110787   3.380   0.821   7.263
 3348SOL    HW210788   3.518   0.821   7.202
 3349SOL     OW10789   2.908   0.118   7.375
 3349SOL    HW110790   2.939   0.197   7.331
 3349SOL    HW210791   2.914   0.050   7.308
 3350SOL     OW10792   2.345   0.058   7.323
 3350SOL    HW110793   2.283   5.293   7.289
 3350SOL    HW210794   2.290   0.133   7.346
 3351SOL     OW10795   2.446   0.873   6.618
 3351SOL    HW110796   2.478   0.963   6.618
 3351SOL    HW210797   2.389   0.868   6.695
 3352SOL     OW10798   3.217   0.859   6.613
 3352SOL    HW110799   3.133   0.848   6.569
 3352SOL    HW210800   3.259   0.773   6.606
 3353SOL     OW10801   3.066   0.527   5.852
 3353SOL    HW110802   3.071   0.447   5.903
 3353SOL    HW210803   3.023   0.591   5.909
 3354SOL     OW10804   2.157   0.202   6.835
 3354SOL    HW110805   2.116   0.242   6.912
 3354SOL    HW210806   2.159   0.108   6.854
 3355SOL     OW10807   1.908   1.311   6.862
 3355SOL    HW110808   1.940   1.256   6.933
 3355SOL    HW210809   1.914   1.401   6.896
 3356SOL     OW10810   2.586   0.631   6.644
 3356SOL    HW110811   2.661   0.616   6.586
 3356SOL    HW210812   2.557   0.720   6.623
 3357SOL     OW10813   3.599   0.960   7.440
 3357SOL    HW110814   3.552   0.896   7.386
 3357SOL    HW210815   3.541   0.975   7.514
 3358SOL     OW10816   2.170   0.071   6.244
 3358SOL    HW110817   2.147   0.163   6.246
 3358SOL    HW210818   2.219   0.056   6.325
 3359SOL     OW10819   3.476   0.377   5.948
 3359SOL    HW110820   3.508   0.312   6.010
 3359SOL    HW210821   3.456   0.454   6.001
 3360SOL     OW10822   2.890   0.759   6.546
 3360SOL    HW110823   2.885   0.776   6.640
 3360SOL    HW210824   2.863   0.668   6.536
 3361SOL     OW10825   2.843   1.565   7.304
 3361SOL    HW110826   2.829   1.610   7.221
 3361SOL    HW210827   2.888   1.484   7.280
 3362SOL     OW10828   3.716   1.504   7.191
 3362SOL    HW110829   3.735   1.530   7.101
 3362SOL    HW210830   3.797   1.521   7.239
 3363SOL     OW10831   2.215   0.914   7.396
 3363SOL    HW110832   2.298   0.935   7.440
 3363SOL    HW210833   2.240   0.852   7.327
 3364SOL     OW10834   3.387   0.271   5.711
 3364SOL    HW110835   3.322   0.208   5.743
 3364SOL    HW210836   3.424   0.310   5.791
 3365SOL     OW10837   3.152   0.826   5.616
 3365SOL    HW110838   3.194   0.740   5.620
 3365SOL    HW210839   3.184   0.865   5.535
 3366SOL     OW10840   2.929   1.337   6.441
 3366SOL    HW110841   2.933   1.265   6.379
 3366SOL    HW210842   2.989   1.402   6.406
 3367SOL     OW10843   2.170   0.809   6.533
 3367SOL    HW110844   2.263   0.830   6.525
 3367SOL    HW210845   2.169   0.718   6.564
 3368SOL     OW10846   2.193   0.528   6.599
 3368SOL    HW110847   2.156   0.440   6.584
 3368SOL    HW210848   2.270   0.532   6.542
 3369SOL     OW10849   2.997   0.376   7.276
 3369SOL    HW110850   2.949   0.431   7.338
 3369SOL    HW210851   3.084   0.415   7.271
 3370SOL     OW10852   2.994   0.221   7.052
 3370SOL    HW110853   2.997   0.280   7.128
 3370SOL    HW210854   3.049   0.263   6.987
 3371SOL     OW10855   1.867   1.320   5.781
 3371SOL    HW110856   1.780   1.335   5.744
 3371SOL    HW210857   1.864   1.230   5.815
 3372SOL     OW10858   1.952   1.786   6.525
 3372SOL    HW110859   1.922   1.706   6.480
 3372SOL    HW210860   2.042   1.798   6.494
 3373SOL     OW10861   2.356   1.573   6.491
 3373SOL    HW110862   2.424   1.635   6.515
 3373SOL    HW210863   2.400   1.510   6.434
 3374SOL     OW10864   2.842   0.790   6.811
 3374SOL    HW110865   2.900   0.769   6.885
 3374SOL    HW210866   2.757   0.753   6.836
 3375SOL     OW10867   1.897   0.544   6.703
 3375SOL    HW110868   1.976   0.532   6.651
 3375SOL    HW210869   1.929   0.548   6.794
 3376SOL     OW10870   2.049   0.522   7.314
 3376SOL    HW110871   2.113   0.487   7.252
 3376SOL    HW210872   2.011   0.597   7.269
 3377SOL     OW10873   3.240   0.937   7.244
 3377SOL    HW110874   3.261   1.030   7.242
 3377SOL    HW210875   3.237   0.911   7.152
 3378SOL     OW10876   2.676   0.573   5.952
 3378SOL    HW110877   2.681   0.500   5.890
 3378SOL    HW210878   2.602   0.626   5.920
 3379SOL     OW10879   3.503   0.601   6.770
 3379SOL    HW110880   3.493   0.542   6.844
 3379SOL    HW210881   3.591   0.582   6.736
 3380SOL     OW10882   2.101   1.551   7.312
 3380SOL    HW110883   2.082   1.615   7.379
 3380SOL    HW210884   2.108   1.467   7.358
 3381SOL     OW10885   2.565   0.450   6.844
 3381SOL    HW110886   2.512   0.377   6.812
 3381SOL    HW210887   2.562   0.514   6.773
 3382SOL     OW10888   2.788   1.679   7.054
 3382SOL    HW110889   2.762   1.643   6.969
 3382SOL    HW210890   2.783   1.774   7.043
 3383SOL     OW10891   2.323   0.492   5.767
 3383SOL    HW110892   2.384   0.562   5.791
 3383SOL    HW210893   2.238   0.536   5.758
 3384SOL     OW10894   2.006   1.141   7.059
 3384SOL    HW110895   2.008   1.091   7.141
 3384SOL    HW210896   2.023   1.076   6.991
 3385SOL     OW10897   3.186   1.045   6.808
 3385SOL    HW110898   3.209   0.982   6.740
 3385SOL    HW210899   3.117   1.099   6.769
 3386SOL     OW10900   3.175   0.856   5.891
 3386SOL    HW110901   3.100   0.826   5.942
 3386SOL    HW210902   3.150   0.843   5.800
 3387SOL     OW10903   3.636   1.742   6.738
 3387SOL    HW110904   3.696   1.768   6.668
 3387SOL    HW210905   3.611   1.652   6.716
 3388SOL     OW10906   3.103   1.732   6.696
 3388SOL    HW110907   3.185   1.755   6.652
 3388SOL    HW210908   3.111   1.639   6.715
 3389SOL     OW10909   1.946   1.267   6.597
 3389SOL    HW110910   1.931   1.280   6.691
 3389SOL    HW210911   1.874   1.211   6.569
 3390SOL     OW10912   2.538   1.666   7.317
 3390SOL    HW110913   2.487   1.747   7.315
 3390SOL    HW210914   2.608   1.681   7.253
 3391SOL     OW10915   3.573   0.151   6.086
 3391SOL    HW110916   3.649   0.131   6.030
 3391SOL    HW210917   3.568   0.077   6.147
 3392SOL     OW10918   3.253   1.568   6.073
 3392SOL    HW110919   3.313   1.601   6.006
 3392SOL    HW210920   3.204   1.645   6.101
 3393SOL     OW10921   1.999   1.796   7.430
 3393SOL    HW110922   1.948   1.731   7.479
 3393SOL    HW210923   2.047   1.844   7.498
 3394SOL     OW10924   3.139   0.926   6.257
 3394SOL    HW110925   3.213   0.866   6.265
 3394SOL    HW210926   3.173   0.999   6.204
 3395SOL     OW10927   2.673   1.274   7.014
 3395SOL    HW110928   2.645   1.314   7.096
 3395SOL    HW210929   2.605   1.297   6.951
 3396SOL     OW10930   2.532   1.622   5.742
 3396SOL    HW110931   2.544   1.636   5.648
 3396SOL    HW210932   2.477   1.544   5.748
 3397SOL     OW10933   3.485   1.727   6.976
 3397SOL    HW110934   3.537   1.734   6.896
 3397SOL    HW210935   3.471   1.818   7.003
 3398SOL     OW10936   3.708   0.154   6.542
 3398SOL    HW110937   3.703   0.059   6.539
 3398SOL    HW210938   3.622   0.184   6.512
 3399SOL     OW10939   2.122   0.329   6.304
 3399SOL    HW110940   2.034   0.361   6.283
 3399SOL    HW210941   2.121   0.319   6.399
 3400SOL     OW10942   3.069   1.604   5.618
 3400SOL    HW110943   3.060   1.513   5.645
 3400SOL    HW210944   3.003   1.616   5.549
 3401SOL     OW10945   2.686   1.006   6.959
 3401SOL    HW110946   2.730   1.001   6.874
 3401SOL    HW210947   2.684   1.099   6.980
 3402SOL     OW10948   2.778   0.911   5.877
 3402SOL    HW110949   2.839   0.943   5.810
 3402SOL    HW210950   2.827   0.841   5.922
 3403SOL     OW10951   3.352   1.626   5.629
 3403SOL    HW110952   3.258   1.618   5.614
 3403SOL    HW210953   3.390   1.632   5.541
 3404SOL     OW10954   2.229   1.304   7.079
 3404SOL    HW110955   2.218   1.380   7.022
 3404SOL    HW210956   2.153   1.249   7.062
 3405SOL     OW10957   3.472   1.283   6.866
 3405SOL    HW110958   3.531   1.270   6.940
 3405SOL    HW210959   3.411   1.351   6.896
 3406SOL     OW10960   2.917   1.108   6.294
 3406SOL    HW110961   2.846   1.058   6.332
 3406SOL    HW210962   2.980   1.043   6.264
 3407SOL     OW10963   2.880   0.244   6.555
 3407SOL    HW110964   2.860   0.198   6.474
 3407SOL    HW210965   2.874   0.176   6.623
 3408SOL     OW10966   2.466   1.488   6.067
 3408SOL    HW110967   2.513   1.438   6.000
 3408SOL    HW210968   2.394   1.530   6.019
 3409SOL     OW10969   3.589   0.385   6.964
 3409SOL    HW110970   3.659   0.451   6.963
 3409SOL    HW210971   3.620   0.316   6.906
 3410SOL     OW10972   2.122   1.344   5.876
 3410SOL    HW110973   2.029   1.341   5.853
 3410SOL    HW210974   2.124   1.381   5.964
 3411SOL     OW10975   1.975   1.024   7.306
 3411SOL    HW110976   1.899   1.001   7.359
 3411SOL    HW210977   2.049   0.985   7.353
 3412SOL     OW10978   2.535   0.214   7.078
 3412SOL    HW110979   2.618   0.197   7.032
 3412SOL    HW210980   2.560   0.263   7.156
 3413SOL     OW10981   1.940   0.337   5.627
 3413SOL    HW110982   1.856   0.304   5.594
 3413SOL    HW210983   1.961   0.411   5.570
 3414SOL     OW10984   3.290   0.858   6.985
 3414SOL    HW110985   3.241   0.919   6.930
 3414SOL    HW210986   3.379   0.861   6.950
 3415SOL     OW10987   1.933   0.167   5.899
 3415SOL    HW110988   1.936   0.250   5.852
 3415SOL    HW210989   2.017   0.125   5.881
 3416SOL     OW10990   3.041   1.338   5.703
 3416SOL    HW110991   2.950   1.307   5.705
 3416SOL    HW210992   3.068   1.338   5.795
 3417SOL     OW10993   2.482   0.831   7.020
 3417SOL    HW110994   2.538   0.907   7.005
 3417SOL    HW210995   2.543   0.757   7.028
 3418SOL     OW10996   3.345   1.778   6.566
 3418SOL    HW110997   3.367   1.841   6.497
 3418SOL    HW210998   3.429   1.759   6.607
 3419SOL     OW10999   2.575   0.574   7.287
 3419SOL    HW111000   2.619   0.635   7.346
 3419SOL    HW211001   2.603   0.487   7.318
 3420SOL     OW11002   3.334   1.198   7.217
 3420SOL    HW111003   3.322   1.212   7.311
 3420SOL    HW211004   3.427   1.215   7.202
 3421SOL     OW11005   2.237   1.740   7.149
 3421SOL    HW111006   2.152   1.783   7.136
 3421SOL    HW211007   2.215   1.657   7.191
 3422SOL     OW11008   3.530   0.881   6.841
 3422SOL    HW111009   3.524   0.796   6.798
 3422SOL    HW211010   3.520   0.945   6.770
 3423SOL     OW11011   3.082   0.318   6.051
 3423SOL    HW111012   3.145   0.246   6.045
 3423SOL    HW211013   3.112   0.370   6.125
 3424SOL     OW11014   2.450   0.737   6.258
 3424SOL    HW111015   2.490   0.822   6.242
 3424SOL    HW211016   2.384   0.728   6.189
 3425SOL     OW11017   3.627   0.361   7.237
 3425SOL    HW111018   3.609   0.377   7.144
 3425SOL    HW211019   3.554   0.307   7.266
 3426SOL     OW11020   3.608   0.933   7.098
 3426SOL    HW111021   3.602   1.028   7.111
 3426SOL    HW211022   3.592   0.921   7.004
 3427SOL     OW11023   2.725   1.367   5.623
 3427SOL    HW111024   2.687   1.396   5.706
 3427SOL    HW211025   2.742   1.448   5.575
 3428SOL     OW11026   2.525   1.782   6.528
 3428SOL    HW111027   2.503   1.873   6.508
 3428SOL    HW211028   2.620   1.779   6.524
 3429SOL     OW11029   2.730   0.968   6.441
 3429SOL    HW111030   2.780   0.897   6.479
 3429SOL    HW211031   2.694   1.015   6.516
 3430SOL     OW11032   2.940   0.988   5.675
 3430SOL    HW111033   2.918   1.039   5.597
 3430SOL    HW211034   3.015   0.934   5.649
 3431SOL     OW11035   3.714   1.553   6.429
 3431SOL    HW111036   3.635   1.542   6.376
 3431SOL    HW211037   3.704   1.489   6.499
 3432SOL     OW11038   2.087   1.302   7.442
 3432SOL    HW111039   2.022   1.240   7.410
 3432SOL    HW211040   2.064   1.316   7.534
 3433SOL     OW11041   1.947   1.232   6.251
 3433SOL    HW111042   1.955   1.185   6.334
 3433SOL    HW211043   2.015   1.194   6.195
 3434SOL     OW11044   2.543   1.404   7.214
 3434SOL    HW111045   2.464   1.362   7.247
 3434SOL    HW211046   2.540   1.492   7.251
 3435SOL     OW11047   3.673   0.175   6.817
 3435SOL    HW111048   3.637   0.086   6.818
 3435SOL    HW211049   3.695   0.190   6.725
 3436SOL     OW11050   2.291   0.436   6.111
 3436SOL    HW111051   2.325   0.363   6.058
 3436SOL    HW211052   2.244   0.394   6.182
 3437SOL     OW11053   3.562   1.488   6.680
 3437SOL    HW111054   3.481   1.467   6.633
 3437SOL    HW211055   3.570   1.418   6.745
 3438SOL     OW11056   2.192   0.558   6.877
 3438SOL    HW111057   2.248   0.503   6.931
 3438SOL    HW211058   2.211   0.531   6.787
 3439SOL     OW11059   2.692   1.578   6.262
 3439SOL    HW111060   2.675   1.637   6.189
 3439SOL    HW211061   2.615   1.520   6.264
 3440SOL     OW11062   3.289   0.219   6.702
 3440SOL    HW111063   3.326   0.145   6.750
 3440SOL    HW211064   3.240   0.269   6.768
 3441SOL     OW11065   2.865   0.020   6.724
 3441SOL    HW111066   2.814   5.252   6.680
 3441SOL    HW211067   2.951   5.281   6.739
 3442SOL     OW11068   2.634   1.333   5.904
 3442SOL    HW111069   2.605   1.242   5.910
 3442SOL    HW211070   2.716   1.335   5.952
 3443SOL     OW11071   2.481   1.555   6.871
 3443SOL    HW111072   2.483   1.638   6.920
 3443SOL    HW211073   2.569   1.548   6.834
 3444SOL     OW11074   3.218   0.036   5.750
 3444SOL    HW111075   3.255   5.294   5.672
 3444SOL    HW211076   3.138   5.287   5.768
 3445SOL     OW11077   3.163   0.464   6.269
 3445SOL    HW111078   3.109   0.543   6.274
 3445SOL    HW211079   3.155   0.425   6.356
 3446SOL     OW11080   3.456   0.215   6.469
 3446SOL    HW111081   3.391   0.227   6.538
 3446SOL    HW211082   3.450   0.294   6.415
 3447SOL     OW11083   1.905   1.069   5.893
 3447SOL    HW111084   1.999   1.061   5.875
 3447SOL    HW211085   1.877   0.980   5.915
 3448SOL     OW11086   2.748   1.655   5.926
 3448SOL    HW111087   2.675   1.638   5.867
 3448SOL    HW211088   2.719   1.728   5.980
 3449SOL     OW11089   2.087   0.621   7.573
 3449SOL    HW111090   1.997   0.629   7.606
 3449SOL    HW211091   2.077   0.598   7.481
 3450SOL     OW11092   3.631   0.596   7.679
 3450SOL    HW111093   3.610   0.592   7.585
 3450SOL    HW211094   3.590   0.518   7.716
 3451SOL     OW11095   2.082   1.716   7.918
 3451SOL    HW111096   2.109   1.755   8.001
 3451SOL    HW211097   2.162   1.715   7.865
 3452SOL     OW11098   2.078   1.439   7.993
 3452SOL    HW111099   2.063   1.533   7.988
 3452SOL    HW211100   2.019   1.408   8.061
 3453SOL     OW11101   2.445   0.983   7.580
 3453SOL    HW111102   2.491   1.031   7.511
 3453SOL    HW211103   2.484   1.015   7.661
 3454SOL     OW11104   3.700   1.758   7.797
 3454SOL    HW111105   3.772   1.728   7.852
 3454SOL    HW211106   3.724   1.847   7.771
 3455SOL     OW11107   1.893   1.598   7.577
 3455SOL    HW111108   1.877   1.505   7.593
 3455SOL    HW211109   1.866   1.641   7.658
 3456SOL     OW11110   3.546   0.862   8.030
 3456SOL    HW111111   3.622   0.875   0.005
 3456SOL    HW211112   3.530   0.947   7.989
 3457SOL     OW11113   3.518   1.097   7.879
 3457SOL    HW111114   3.605   1.124   7.851
 3457SOL    HW211115   3.487   1.170   7.933
 3458SOL     OW11116   2.673   5.285   7.942
 3458SOL    HW111117   2.717   0.069   7.928
 3458SOL    HW211118   2.580   0.007   7.942
 3459SOL     OW11119   3.396   0.996   7.650
 3459SOL    HW111120   3.328   0.938   7.684
 3459SOL    HW211121   3.440   1.030   7.729
 3460SOL     OW11122   2.451   0.724   7.708
 3460SOL    HW111123   2.454   0.807   7.661
 3460SOL    HW211124   2.391   0.740   7.781
 3461SOL     OW11125   3.436   1.672   7.757
 3461SOL    HW111126   3.527   1.699   7.765
 3461SOL    HW211127   3.423   1.659   7.663
 3462SOL     OW11128   1.920   0.864   0.085
 3462SOL    HW111129   1.982   0.796   0.109
 3462SOL    HW211130   1.922   0.925   0.159
 3463SOL     OW11131   2.736   0.361   7.630
 3463SOL    HW111132   2.777   0.424   7.570
 3463SOL    HW211133   2.802   0.293   7.642
 3464SOL     OW11134   2.184   0.957   7.698
 3464SOL    HW111135   2.264   0.973   7.648
 3464SOL    HW211136   2.146   0.878   7.659
 3465SOL     OW11137   2.988   1.775   7.682
 3465SOL    HW111138   2.910   1.736   7.722
 3465SOL    HW211139   3.012   1.714   7.613
 3466SOL     OW11140   3.490   1.381   7.534
 3466SOL    HW111141   3.448   1.466   7.521
 3466SOL    HW211142   3.422   1.317   7.516
 3467SOL     OW11143   2.328   1.737   7.770
 3467SOL    HW111144   2.380   1.787   7.833
 3467SOL    HW211145   2.392   1.700   7.709
 3468SOL     OW11146   3.275   0.107   7.884
 3468SOL    HW111147   3.271   0.082   7.792
 3468SOL    HW211148   3.368   0.113   7.904
 3469SOL     OW11149   2.254   0.696   7.918
 3469SOL    HW111150   2.255   0.600   7.928
 3469SOL    HW211151   2.163   0.721   7.936
 3470SOL     OW11152   2.480   0.131   7.561
 3470SOL    HW111153   2.548   0.068   7.582
 3470SOL    HW211154   2.432   0.091   7.488
 3471SOL     OW11155   2.411   0.065   7.951
 3471SOL    HW111156   2.320   0.046   7.972
 3471SOL    HW211157   2.408   0.138   7.889
 3472SOL     OW11158   3.290   1.199   7.489
 3472SOL    HW111159   3.320   1.125   7.542
 3472SOL    HW211160   3.206   1.222   7.527
 3473SOL     OW11161   2.167   0.076   7.663
 3473SOL    HW111162   2.214   0.135   7.605
 3473SOL    HW211163   2.215   5.293   7.659
 3474SOL     OW11164   2.812   0.225   7.906
 3474SOL    HW111165   2.762   0.298   7.870
 3474SOL    HW211166   2.900   0.260   7.917
 3475SOL     OW11167   2.300   1.150   0.098
 3475SOL    HW111168   2.226   1.191   0.143
 3475SOL    HW211169   2.270   1.138   0.008
 3476SOL     OW11170   3.154   1.813   8.013
 3476SOL    HW111171   3.191   1.882   7.958
 3476SOL    HW211172   3.066   1.844   8.035
 3477SOL     OW11173   2.887   0.544   7.469
 3477SOL    HW111174   2.843   0.628   7.454
 3477SOL    HW211175   2.946   0.561   7.543
 3478SOL     OW11176   3.738   0.814   7.802
 3478SOL    HW111177   3.716   0.796   7.893
 3478SOL    HW211178   3.698   0.741   7.754
 3479SOL     OW11179   2.348   1.418   7.602
 3479SOL    HW111180   2.274   1.389   7.655
 3479SOL    HW211181   2.337   1.372   7.519
 3480SOL     OW11182   3.255   0.572   7.519
 3480SOL    HW111183   3.192   0.551   7.588
 3480SOL    HW211184   3.339   0.540   7.553
 3481SOL     OW11185   2.386   0.273   7.774
 3481SOL    HW111186   2.428   0.221   7.705
 3481SOL    HW211187   2.363   0.355   7.730
 3482SOL     OW11188   2.575   1.064   7.810
 3482SOL    HW111189   2.547   1.047   7.900
 3482SOL    HW211190   2.653   1.009   7.798
 3483SOL     OW11191   2.226   1.107   7.925
 3483SOL    HW111192   2.206   1.185   7.873
 3483SOL    HW211193   2.213   1.034   7.864
 3484SOL     OW11194   3.083   1.357   7.821
 3484SOL    HW111195   3.143   1.428   7.844
 3484SOL    HW211196   3.053   1.322   7.905
 3485SOL     OW11197   3.451   0.623   7.921
 3485SOL    HW111198   3.439   0.680   7.996
 3485SOL    HW211199   3.485   0.680   7.852
 3486SOL     OW11200   3.064   0.524   7.713
 3486SOL    HW111201   3.064   0.437   7.753
 3486SOL    HW211202   3.044   0.583   7.785
 3487SOL     OW11203   3.481   0.376   7.812
 3487SOL    HW111204   3.501   0.309   7.876
 3487SOL    HW211205   3.457   0.453   7.864
 3488SOL     OW11206   3.390   0.272   7.575
 3488SOL    HW111207   3.327   0.205   7.604
 3488SOL    HW211208   3.425   0.309   7.655
 3489SOL     OW11209   3.154   0.827   7.480
 3489SOL    HW111210   3.195   0.741   7.482
 3489SOL    HW211211   3.185   0.866   7.398
 3490SOL     OW11212   1.869   1.324   7.639
 3490SOL    HW111213   1.781   1.337   7.603
 3490SOL    HW211214   1.867   1.234   7.673
 3491SOL     OW11215   2.703   0.609   7.760
 3491SOL    HW111216   2.696   0.518   7.732
 3491SOL    HW211217   2.613   0.642   7.761
 3492SOL     OW11218   2.320   0.495   7.635
 3492SOL    HW111219   2.381   0.566   7.653
 3492SOL    HW211220   2.236   0.537   7.620
 3493SOL     OW11221   3.175   0.853   7.753
 3493SOL    HW111222   3.088   0.860   7.794
 3493SOL    HW211223   3.157   0.841   7.660
 3494SOL     OW11224   3.572   0.133   7.944
 3494SOL    HW111225   3.645   0.133   7.882
 3494SOL    HW211226   3.605   0.087   8.021
 3495SOL     OW11227   3.224   1.578   7.895
 3495SOL    HW111228   3.299   1.598   7.839
 3495SOL    HW211229   3.193   1.663   7.925
 3496SOL     OW11230   2.528   1.620   7.604
 3496SOL    HW111231   2.541   1.634   7.511
 3496SOL    HW211232   2.474   1.541   7.609
 3497SOL     OW11233   3.072   1.606   7.479
 3497SOL    HW111234   3.060   1.515   7.505
 3497SOL    HW211235   3.006   1.620   7.411
 3498SOL     OW11236   2.788   0.906   7.758
 3498SOL    HW111237   2.841   0.930   7.682
 3498SOL    HW211238   2.780   0.811   7.753
 3499SOL     OW11239   3.354   1.627   7.489
 3499SOL    HW111240   3.260   1.619   7.476
 3499SOL    HW211241   3.390   1.632   7.400
 3500SOL     OW11242   2.473   1.510   7.935
 3500SOL    HW111243   2.519   1.449   7.878
 3500SOL    HW211244   2.395   1.535   7.886
 3501SOL     OW11245   2.121   1.345   7.744
 3501SOL    HW111246   2.029   1.343   7.717
 3501SOL    HW211247   2.119   1.381   7.833
 3502SOL     OW11248   1.937   0.337   7.489
 3502SOL    HW111249   1.854   0.306   7.452
 3502SOL    HW211250   1.961   0.413   7.436
 3503SOL     OW11251   1.924   0.183   7.742
 3503SOL    HW111252   1.923   0.258   7.683
 3503SOL    HW211253   2.006   0.138   7.722
 3504SOL     OW11254   3.037   1.337   7.556
 3504SOL    HW111255   2.944   1.312   7.554
 3504SOL    HW211256   3.059   1.344   7.648
 3505SOL     OW11257   3.083   0.317   7.917
 3505SOL    HW111258   3.150   0.249   7.910
 3505SOL    HW211259   3.106   0.366   7.996
 3506SOL     OW11260   2.491   0.737   8.052
 3506SOL    HW111261   2.492   0.817   0.024
 3506SOL    HW211262   2.403   0.734   8.014
 3507SOL     OW11263   2.725   1.367   7.486
 3507SOL    HW111264   2.686   1.398   7.568
 3507SOL    HW211265   2.743   1.447   7.437
 3508SOL     OW11266   2.932   0.976   7.538
 3508SOL    HW111267   2.914   1.035   7.464
 3508SOL    HW211268   3.011   0.928   7.512
 3509SOL     OW11269   2.250   0.422   7.986
 3509SOL    HW111270   2.304   0.370   7.926
 3509SOL    HW211271   2.299   0.423   8.068
 3510SOL     OW11272   2.627   1.337   7.766
 3510SOL    HW111273   2.597   1.246   7.766
 3510SOL    HW211274   2.711   1.335   7.812
 3511SOL     OW11275   3.230   0.036   7.613
 3511SOL    HW111276   3.238   5.286   7.532
 3511SOL    HW211277   3.143   0.012   7.647
 3512SOL     OW11278   1.915   1.078   7.749
 3512SOL    HW111279   2.009   1.069   7.736
 3512SOL    HW211280   1.884   0.988   7.764
 3513SOL     OW11281   2.756   1.654   7.779
 3513SOL    HW111282   2.679   1.630   7.727
 3513SOL    HW211283   2.722   1.715   7.844
 3514SOL     OW11284   2.082   2.502   0.117
 3514SOL    HW111285   2.016   2.444   0.155
 3514SOL    HW211286   2.114   2.454   0.040
 3515SOL     OW11287   2.087   2.121   0.990
 3515SOL    HW111288   2.115   2.091   1.076
 3515SOL    HW211289   1.996   2.094   0.983
 3516SOL     OW11290   1.861   2.239   0.644
 3516SOL    HW111291   1.778   2.265   0.685
 3516SOL    HW211292   1.838   2.162   0.591
 3517SOL     OW11293   2.417   3.161   1.197
 3517SOL    HW111294   2.333   3.170   1.152
 3517SOL    HW211295   2.438   3.250   1.226
 3518SOL     OW11296   3.425   3.374   0.708
 3518SOL    HW111297   3.383   3.353   0.792
 3518SOL    HW211298   3.352   3.378   0.646
 3519SOL     OW11299   3.631   2.462   0.232
 3519SOL    HW111300   3.592   2.466   0.145
 3519SOL    HW211301   3.593   2.384   0.272
 3520SOL     OW11302   2.573   3.033   1.018
 3520SOL    HW111303   2.514   3.062   1.087
 3520SOL    HW211304   2.619   3.113   0.990
 3521SOL     OW11305   2.549   3.033   1.842
 3521SOL    HW111306   2.620   3.096   1.827
 3521SOL    HW211307   2.475   3.067   1.791
 3522SOL     OW11308   2.191   3.288   1.068
 3522SOL    HW111309   2.119   3.247   1.019
 3522SOL    HW211310   2.241   3.336   1.002
 3523SOL     OW11311   3.324   3.360   1.361
 3523SOL    HW111312   3.375   3.441   1.368
 3523SOL    HW211313   3.256   3.369   1.429
 3524SOL     OW11314   2.292   2.229   1.480
 3524SOL    HW111315   2.366   2.169   1.485
 3524SOL    HW211316   2.216   2.174   1.499
 3525SOL     OW11317   3.474   2.307   0.742
 3525SOL    HW111318   3.400   2.330   0.686
 3525SOL    HW211319   3.485   2.383   0.800
 3526SOL     OW11320   2.082   3.578   0.470
 3526SOL    HW111321   2.102   3.654   0.525
 3526SOL    HW211322   2.158   3.569   0.412
 3527SOL     OW11323   2.994   3.198   1.690
 3527SOL    HW111324   3.025   3.183   1.779
 3527SOL    HW211325   2.953   3.115   1.665
 3528SOL     OW11326   2.087   3.307   0.536
 3528SOL    HW111327   2.072   3.402   0.537
 3528SOL    HW211328   2.029   3.273   0.604
 3529SOL     OW11329   2.116   2.955   0.886
 3529SOL    HW111330   2.117   2.870   0.932
 3529SOL    HW211331   2.063   3.012   0.942
 3530SOL     OW11332   2.469   3.655   1.428
 3530SOL    HW111333   2.389   3.637   1.476
 3530SOL    HW211334   2.493   3.744   1.455
 3531SOL     OW11335   2.443   2.823   0.144
 3531SOL    HW111336   2.413   2.907   0.111
 3531SOL    HW211337   2.515   2.844   0.203
 3532SOL     OW11338   3.458   1.987   1.467
 3532SOL    HW111339   3.470   2.068   1.417
 3532SOL    HW211340   3.442   2.016   1.556
 3533SOL     OW11341   1.940   2.504   0.575
 3533SOL    HW111342   1.915   2.414   0.598
 3533SOL    HW211343   1.937   2.552   0.658
 3534SOL     OW11344   3.709   3.618   0.329
 3534SOL    HW111345   3.776   3.589   0.392
 3534SOL    HW211346   3.732   3.710   0.311
 3535SOL     OW11347   1.896   3.457   0.109
 3535SOL    HW111348   1.881   3.369   0.143
 3535SOL    HW211349   1.877   3.515   0.183
 3536SOL     OW11350   3.546   2.778   0.644
 3536SOL    HW111351   3.630   2.736   0.625
 3536SOL    HW211352   3.528   2.831   0.566
 3537SOL     OW11353   3.512   2.968   0.433
 3537SOL    HW111354   3.594   2.978   0.386
 3537SOL    HW211355   3.519   3.029   0.506
 3538SOL     OW11356   1.954   2.600   1.591
 3538SOL    HW111357   2.046   2.626   1.590
 3538SOL    HW211358   1.905   2.682   1.593
 3539SOL     OW11359   2.480   3.251   0.733
 3539SOL    HW111360   2.438   3.166   0.747
 3539SOL    HW211361   2.459   3.275   0.643
 3540SOL     OW11362   3.145   3.093   1.429
 3540SOL    HW111363   3.178   3.030   1.365
 3540SOL    HW211364   3.209   3.090   1.500
 3541SOL     OW11365   2.679   1.864   0.513
 3541SOL    HW111366   2.719   1.947   0.488
 3541SOL    HW211367   2.586   1.883   0.521
 3542SOL     OW11368   2.032   2.836   1.270
 3542SOL    HW111369   2.116   2.792   1.262
 3542SOL    HW211370   1.972   2.784   1.218
 3543SOL     OW11371   3.368   2.876   0.215
 3543SOL    HW111372   3.322   2.797   0.245
 3543SOL    HW211373   3.426   2.900   0.287
 3544SOL     OW11374   3.047   3.670   1.624
 3544SOL    HW111375   3.055   3.730   1.549
 3544SOL    HW211376   3.063   3.583   1.586
 3545SOL     OW11377   2.196   2.110   1.818
 3545SOL    HW111378   2.225   2.200   1.811
 3545SOL    HW211379   2.104   2.117   1.846
 3546SOL     OW11380   3.331   3.281   0.951
 3546SOL    HW111381   3.264   3.301   1.016
 3546SOL    HW211382   3.315   3.190   0.926
 3547SOL     OW11383   3.519   3.607   0.582
 3547SOL    HW111384   3.499   3.577   0.493
 3547SOL    HW211385   3.496   3.532   0.638
 3548SOL     OW11386   3.145   2.213   0.931
 3548SOL    HW111387   3.054   2.183   0.941
 3548SOL    HW211388   3.194   2.162   0.995
 3549SOL     OW11389   3.449   3.532   0.321
 3549SOL    HW111390   3.540   3.561   0.313
 3549SOL    HW211391   3.421   3.517   0.231
 3550SOL     OW11392   3.254   2.336   1.676
 3550SOL    HW111393   3.258   2.378   1.762
 3550SOL    HW211394   3.316   2.264   1.682
 3551SOL     OW11395   2.858   2.267   1.237
 3551SOL    HW111396   2.785   2.307   1.286
 3551SOL    HW211397   2.827   2.266   1.146
 3552SOL     OW11398   1.944   2.682   0.782
 3552SOL    HW111399   2.026   2.682   0.831
 3552SOL    HW211400   1.898   2.761   0.810
 3553SOL     OW11401   1.988   3.719   1.580
 3553SOL    HW111402   1.990   3.696   1.673
 3553SOL    HW211403   1.898   3.699   1.552
 3554SOL     OW11404   2.746   2.208   0.206
 3554SOL    HW111405   2.798   2.259   0.143
 3554SOL    HW211406   2.749   2.119   0.173
 3555SOL     OW11407   3.569   2.435   1.828
 3555SOL    HW111408   3.532   2.509   1.779
 3555SOL    HW211409   3.597   2.373   1.760
 3556SOL     OW11410   3.244   3.002   0.523
 3556SOL    HW111411   3.327   3.000   0.477
 3556SOL    HW211412   3.194   3.072   0.481
 3557SOL     OW11413   2.408   2.028   0.887
 3557SOL    HW111414   2.409   2.054   0.979
 3557SOL    HW211415   2.428   2.109   0.840
 3558SOL     OW11416   2.855   3.300   0.471
 3558SOL    HW111417   2.826   3.377   0.423
 3558SOL    HW211418   2.843   3.323   0.563
 3559SOL     OW11419   2.217   3.672   0.865
 3559SOL    HW111420   2.260   3.587   0.872
 3559SOL    HW211421   2.285   3.736   0.884
 3560SOL     OW11422   3.661   2.915   0.869
 3560SOL    HW111423   3.605   2.899   0.793
 3560SOL    HW211424   3.599   2.922   0.943
 3561SOL     OW11425   3.089   3.400   1.512
 3561SOL    HW111426   3.077   3.328   1.575
 3561SOL    HW211427   3.026   3.382   1.442
 3562SOL     OW11428   2.184   2.807   0.248
 3562SOL    HW111429   2.268   2.810   0.203
 3562SOL    HW211430   2.167   2.714   0.263
 3563SOL     OW11431   3.344   2.598   0.727
 3563SOL    HW111432   3.339   2.559   0.814
 3563SOL    HW211433   3.420   2.657   0.732
 3564SOL     OW11434   2.322   3.137   1.735
 3564SOL    HW111435   2.295   3.140   1.643
 3564SOL    HW211436   2.239   3.131   1.784
 3565SOL     OW11437   2.969   3.643   0.222
 3565SOL    HW111438   2.912   3.603   0.288
 3565SOL    HW211439   2.990   3.572   0.162
 3566SOL     OW11440   2.044   2.131   1.506
 3566SOL    HW111441   1.962   2.181   1.508
 3566SOL    HW211442   2.024   2.051   1.554
 3567SOL     OW11443   3.496   3.235   0.085
 3567SOL    HW111444   3.456   3.321   0.084
 3567SOL    HW211445   3.425   3.175   0.063
 3568SOL     OW11446   2.326   3.599   0.325
 3568SOL    HW111447   2.369   3.659   0.386
 3568SOL    HW211448   2.396   3.573   0.264
 3569SOL     OW11449   3.269   1.974   0.446
 3569SOL    HW111450   3.262   1.951   0.354
 3569SOL    HW211451   3.364   1.979   0.462
 3570SOL     OW11452   2.118   3.653   1.230
 3570SOL    HW111453   2.168   3.586   1.276
 3570SOL    HW211454   2.109   3.620   1.141
 3571SOL     OW11455   2.798   3.564   0.897
 3571SOL    HW111456   2.871   3.510   0.928
 3571SOL    HW211457   2.756   3.512   0.829
 3572SOL     OW11458   2.178   2.597   0.492
 3572SOL    HW111459   2.226   2.515   0.486
 3572SOL    HW211460   2.090   2.572   0.519
 3573SOL     OW11461   3.395   2.087   1.724
 3573SOL    HW111462   3.405   2.108   1.817
 3573SOL    HW211463   3.326   2.021   1.722
 3574SOL     OW11464   2.495   1.980   0.134
 3574SOL    HW111465   2.589   1.962   0.141
 3574SOL    HW211466   2.472   1.951   0.046
 3575SOL     OW11467   2.625   2.131   1.751
 3575SOL    HW111468   2.704   2.077   1.749
 3575SOL    HW211469   2.584   2.110   1.835
 3576SOL     OW11470   2.740   3.390   1.196
 3576SOL    HW111471   2.722   3.353   1.109
 3576SOL    HW211472   2.806   3.333   1.233
 3577SOL     OW11473   3.216   2.450   1.424
 3577SOL    HW111474   3.235   2.421   1.513
 3577SOL    HW211475   3.240   2.542   1.422
 3578SOL     OW11476   2.675   3.276   0.941
 3578SOL    HW111477   2.761   3.262   0.903
 3578SOL    HW211478   2.615   3.270   0.867
 3579SOL     OW11479   2.800   2.332   0.915
 3579SOL    HW111480   2.790   2.337   0.820
 3579SOL    HW211481   2.835   2.244   0.931
 3580SOL     OW11482   2.413   1.925   0.505
 3580SOL    HW111483   2.333   1.922   0.558
 3580SOL    HW211484   2.402   2.002   0.448
 3581SOL     OW11485   3.296   3.063   0.032
 3581SOL    HW111486   3.319   2.991   0.090
 3581SOL    HW211487   3.207   3.088   0.059
 3582SOL     OW11488   2.175   1.919   0.169
 3582SOL    HW111489   2.238   1.987   0.194
 3582SOL    HW211490   2.208   1.839   0.210
 3583SOL     OW11491   2.803   2.104   0.451
 3583SOL    HW111492   2.778   2.145   0.368
 3583SOL    HW211493   2.897   2.118   0.457
 3584SOL     OW11494   3.095   3.438   0.794
 3584SOL    HW111495   3.106   3.506   0.728
 3584SOL    HW211496   3.160   3.459   0.861
 3585SOL     OW11497   2.330   3.020   0.729
 3585SOL    HW111498   2.262   2.997   0.792
 3585SOL    HW211499   2.294   2.997   0.644
 3586SOL     OW11500   3.129   3.656   0.609
 3586SOL    HW111501   3.179   3.719   0.558
 3586SOL    HW211502   3.061   3.708   0.651
 3587SOL     OW11503   2.918   2.367   0.025
 3587SOL    HW111504   2.861   2.438   8.076
 3587SOL    HW211505   2.967   2.404   0.099
 3588SOL     OW11506   1.931   2.418   1.393
 3588SOL    HW111507   2.023   2.418   1.370
 3588SOL    HW211508   1.923   2.486   1.460
 3589SOL     OW11509   2.412   2.077   1.151
 3589SOL    HW111510   2.470   2.030   1.212
 3589SOL    HW211511   2.327   2.077   1.195
 3590SOL     OW11512   2.768   2.289   0.651
 3590SOL    HW111513   2.709   2.355   0.615
 3590SOL    HW211514   2.771   2.221   0.584
 3591SOL     OW11515   2.880   1.908   0.745
 3591SOL    HW111516   2.818   1.904   0.672
 3591SOL    HW211517   2.856   1.835   0.802
 3592SOL     OW11518   3.301   3.023   0.859
 3592SOL    HW111519   3.223   2.969   0.852
 3592SOL    HW211520   3.331   3.035   0.768
 3593SOL     OW11521   3.328   2.467   0.974
 3593SOL    HW111522   3.273   2.388   0.980
 3593SOL    HW211523   3.387   2.461   1.049
 3594SOL     OW11524   3.708   2.675   0.388
 3594SOL    HW111525   3.762   2.624   0.448
 3594SOL    HW211526   3.679   2.613   0.322
 3595SOL     OW11527   2.345   3.302   0.182
 3595SOL    HW111528   2.270   3.268   0.231
 3595SOL    HW211529   2.353   3.243   0.106
 3596SOL     OW11530   3.534   3.127   0.647
 3596SOL    HW111531   3.629   3.129   0.661
 3596SOL    HW211532   3.505   3.216   0.667
 3597SOL     OW11533   3.261   2.433   0.086
 3597SOL    HW111534   3.198   2.414   0.155
 3597SOL    HW211535   3.314   2.354   0.079
 3598SOL     OW11536   2.374   2.121   0.319
 3598SOL    HW111537   2.424   2.070   0.255
 3598SOL    HW211538   2.404   2.211   0.306
 3599SOL     OW11539   3.613   3.103   1.570
 3599SOL    HW111540   3.701   3.064   1.566
 3599SOL    HW211541   3.629   3.193   1.598
 3600SOL     OW11542   2.921   3.230   1.346
 3600SOL    HW111543   2.842   3.193   1.385
 3600SOL    HW211544   2.993   3.177   1.381
 3601SOL     OW11545   3.471   3.488   1.656
 3601SOL    HW111546   3.463   3.522   1.566
 3601SOL    HW211547   3.553   3.440   1.656
 3602SOL     OW11548   3.021   3.102   1.104
 3602SOL    HW111549   2.950   3.088   1.167
 3602SOL    HW211550   2.977   3.106   1.019
 3603SOL     OW11551   3.488   2.959   1.076
 3603SOL    HW111552   3.483   3.021   1.149
 3603SOL    HW211553   3.411   2.978   1.023
 3604SOL     OW11554   2.780   1.957   1.395
 3604SOL    HW111555   2.801   1.940   1.303
 3604SOL    HW211556   2.858   1.998   1.430
 3605SOL     OW11557   2.253   2.679   1.270
 3605SOL    HW111558   2.349   2.683   1.274
 3605SOL    HW211559   2.233   2.587   1.288
 3606SOL     OW11560   3.128   2.237   1.277
 3606SOL    HW111561   3.159   2.316   1.321
 3606SOL    HW211562   3.037   2.256   1.255
 3607SOL     OW11563   1.934   3.436   1.355
 3607SOL    HW111564   1.906   3.509   1.299
 3607SOL    HW211565   2.030   3.437   1.348
 3608SOL     OW11566   2.215   2.972   0.483
 3608SOL    HW111567   2.201   3.042   0.420
 3608SOL    HW211568   2.210   2.892   0.432
 3609SOL     OW11569   3.104   3.210   0.395
 3609SOL    HW111570   3.161   3.282   0.422
 3609SOL    HW211571   3.018   3.234   0.428
 3610SOL     OW11572   3.150   3.333   1.146
 3610SOL    HW111573   3.200   3.326   1.228
 3610SOL    HW211574   3.096   3.255   1.144
 3611SOL     OW11575   3.440   2.482   0.482
 3611SOL    HW111576   3.397   2.533   0.551
 3611SOL    HW211577   3.477   2.548   0.424
 3612SOL     OW11578   2.207   3.393   1.313
 3612SOL    HW111579   2.195   3.350   1.228
 3612SOL    HW211580   2.302   3.405   1.321
 3613SOL     OW11581   2.220   2.631   1.585
 3613SOL    HW111582   2.273   2.700   1.546
 3613SOL    HW211583   2.283   2.570   1.623
 3614SOL     OW11584   3.464   2.642   1.684
 3614SOL    HW111585   3.378   2.683   1.677
 3614SOL    HW211586   3.517   2.684   1.616
 3615SOL     OW11587   2.861   1.990   1.757
 3615SOL    HW111588   2.919   2.060   1.729
 3615SOL    HW211589   2.906   1.910   1.731
 3616SOL     OW11590   2.358   1.899   1.749
 3616SOL    HW111591   2.314   1.846   1.683
 3616SOL    HW211592   2.299   1.974   1.762
 3617SOL     OW11593   3.221   2.720   1.033
 3617SOL    HW111594   3.155   2.715   0.964
 3617SOL    HW211595   3.264   2.634   1.031
 3618SOL     OW11596   3.060   2.390   0.272
 3618SOL    HW111597   3.062   2.307   0.319
 3618SOL    HW211598   3.072   2.456   0.340
 3619SOL     OW11599   2.155   2.060   1.251
 3619SOL    HW111600   2.112   2.090   1.331
 3619SOL    HW211601   2.141   1.965   1.250
 3620SOL     OW11602   1.907   3.175   1.275
 3620SOL    HW111603   1.939   3.119   1.346
 3620SOL    HW211604   1.913   3.264   1.309
 3621SOL     OW11605   3.599   2.822   1.854
 3621SOL    HW111606   3.553   2.757   1.800
 3621SOL    HW211607   3.540   2.839   1.927
 3622SOL     OW11608   2.167   1.928   0.625
 3622SOL    HW111609   2.144   2.018   0.650
 3622SOL    HW211610   2.175   1.881   0.708
 3623SOL     OW11611   3.486   2.238   0.367
 3623SOL    HW111612   3.510   2.172   0.433
 3623SOL    HW211613   3.460   2.314   0.419
 3624SOL     OW11614   2.844   3.427   1.716
 3624SOL    HW111615   2.828   3.472   1.633
 3624SOL    HW211616   2.888   3.346   1.690
 3625SOL     OW11617   3.715   3.366   1.605
 3625SOL    HW111618   3.735   3.393   1.515
 3625SOL    HW211619   3.796   3.383   1.653
 3626SOL     OW11620   2.206   2.803   1.812
 3626SOL    HW111621   2.284   2.810   1.868
 3626SOL    HW211622   2.219   2.721   1.765
 3627SOL     OW11623   3.373   2.168   0.128
 3627SOL    HW111624   3.328   2.085   0.142
 3627SOL    HW211625   3.417   2.187   0.211
 3628SOL     OW11626   3.160   2.681   0.033
 3628SOL    HW111627   3.200   2.594   0.036
 3628SOL    HW211628   3.216   2.731   8.053
 3629SOL     OW11629   2.925   3.231   0.855
 3629SOL    HW111630   2.953   3.153   0.807
 3629SOL    HW211631   2.988   3.299   0.831
 3630SOL     OW11632   2.155   2.688   0.959
 3630SOL    HW111633   2.241   2.690   0.917
 3630SOL    HW211634   2.149   2.601   0.998
 3631SOL     OW11635   2.152   2.375   1.015
 3631SOL    HW111636   2.131   2.283   1.003
 3631SOL    HW211637   2.211   2.396   0.941
 3632SOL     OW11638   3.001   2.230   1.684
 3632SOL    HW111639   2.948   2.300   1.722
 3632SOL    HW211640   3.089   2.267   1.678
 3633SOL     OW11641   3.024   2.061   1.469
 3633SOL    HW111642   3.014   2.123   1.540
 3633SOL    HW211643   3.061   2.112   1.397
 3634SOL     OW11644   1.876   3.185   0.189
 3634SOL    HW111645   1.789   3.199   0.151
 3634SOL    HW211646   1.874   3.096   0.222
 3635SOL     OW11647   1.952   3.647   0.939
 3635SOL    HW111648   1.922   3.568   0.894
 3635SOL    HW211649   2.042   3.660   0.908
 3636SOL     OW11650   2.357   3.435   0.904
 3636SOL    HW111651   2.426   3.497   0.930
 3636SOL    HW211652   2.402   3.371   0.849
 3637SOL     OW11653   1.894   2.407   1.117
 3637SOL    HW111654   1.977   2.400   1.070
 3637SOL    HW211655   1.919   2.411   1.209
 3638SOL     OW11656   2.058   2.380   1.725
 3638SOL    HW111657   2.096   2.338   1.648
 3638SOL    HW211658   2.008   2.454   1.690
 3639SOL     OW11659   3.235   2.798   1.657
 3639SOL    HW111660   3.258   2.891   1.657
 3639SOL    HW211661   3.238   2.773   1.565
 3640SOL     OW11662   3.503   2.466   1.182
 3640SOL    HW111663   3.490   2.408   1.258
 3640SOL    HW211664   3.591   2.443   1.151
 3641SOL     OW11665   2.103   3.413   1.726
 3641SOL    HW111666   2.081   3.477   1.793
 3641SOL    HW211667   2.106   3.329   1.773
 3642SOL     OW11668   2.783   3.543   1.471
 3642SOL    HW111669   2.766   3.502   1.386
 3642SOL    HW211670   2.779   3.637   1.454
 3643SOL     OW11671   2.004   3.007   1.475
 3643SOL    HW111672   2.004   2.955   1.555
 3643SOL    HW211673   2.016   2.943   1.405
 3644SOL     OW11674   3.185   2.910   1.223
 3644SOL    HW111675   3.206   2.845   1.155
 3644SOL    HW211676   3.128   2.973   1.179
 3645SOL     OW11677   3.192   2.685   0.308
 3645SOL    HW111678   3.111   2.713   0.351
 3645SOL    HW211679   3.170   2.682   0.215
 3646SOL     OW11680   3.635   3.604   1.152
 3646SOL    HW111681   3.696   3.630   1.082
 3646SOL    HW211682   3.611   3.514   1.130
 3647SOL     OW11683   3.103   3.599   1.109
 3647SOL    HW111684   3.185   3.620   1.066
 3647SOL    HW211685   3.109   3.506   1.130
 3648SOL     OW11686   1.946   3.130   1.011
 3648SOL    HW111687   1.931   3.143   1.105
 3648SOL    HW211688   1.875   3.073   0.983
 3649SOL     OW11689   2.540   3.529   1.731
 3649SOL    HW111690   2.485   3.607   1.724
 3649SOL    HW211691   2.608   3.542   1.665
 3650SOL     OW11692   2.768   1.950   0.131
 3650SOL    HW111693   2.780   1.931   0.037
 3650SOL    HW211694   2.835   1.897   0.174
 3651SOL     OW11695   3.582   2.009   0.508
 3651SOL    HW111696   3.653   1.992   0.447
 3651SOL    HW211697   3.566   1.925   0.550
 3652SOL     OW11698   3.250   3.429   0.485
 3652SOL    HW111699   3.315   3.463   0.423
 3652SOL    HW211700   3.204   3.507   0.516
 3653SOL     OW11701   1.999   3.658   1.843
 3653SOL    HW111702   1.949   3.592   1.891
 3653SOL    HW211703   2.047   3.706   1.911
 3654SOL     OW11704   3.161   2.795   0.668
 3654SOL    HW111705   3.222   2.722   0.675
 3654SOL    HW211706   3.203   2.857   0.609
 3655SOL     OW11707   2.675   3.152   1.425
 3655SOL    HW111708   2.639   3.190   1.506
 3655SOL    HW211709   2.599   3.143   1.367
 3656SOL     OW11710   2.538   3.484   0.155
 3656SOL    HW111711   2.545   3.493   0.060
 3656SOL    HW211712   2.475   3.414   0.168
 3657SOL     OW11713   3.485   3.589   1.391
 3657SOL    HW111714   3.536   3.595   1.310
 3657SOL    HW211715   3.471   3.680   1.418
 3658SOL     OW11716   3.703   2.034   0.966
 3658SOL    HW111717   3.732   1.947   0.940
 3658SOL    HW211718   3.616   2.043   0.927
 3659SOL     OW11719   2.118   2.179   0.724
 3659SOL    HW111720   2.030   2.210   0.701
 3659SOL    HW211721   2.113   2.158   0.817
 3660SOL     OW11722   3.021   3.441   0.051
 3660SOL    HW111723   3.034   3.348   0.070
 3660SOL    HW211724   3.031   3.449   8.036
 3661SOL     OW11725   3.372   3.485   0.061
 3661SOL    HW111726   3.277   3.486   0.048
 3661SOL    HW211727   3.408   3.490   8.053
 3662SOL     OW11728   2.229   3.167   1.489
 3662SOL    HW111729   2.216   3.242   1.431
 3662SOL    HW211730   2.151   3.112   1.474
 3663SOL     OW11731   3.472   3.145   1.280
 3663SOL    HW111732   3.532   3.132   1.353
 3663SOL    HW211733   3.412   3.213   1.310
 3664SOL     OW11734   2.987   3.003   0.728
 3664SOL    HW111735   2.906   2.987   0.679
 3664SOL    HW211736   3.047   2.935   0.699
 3665SOL     OW11737   2.897   2.087   0.961
 3665SOL    HW111738   2.890   2.034   0.882
 3665SOL    HW211739   2.884   2.025   1.032
 3666SOL     OW11740   2.463   3.350   0.475
 3666SOL    HW111741   2.502   3.314   0.395
 3666SOL    HW211742   2.388   3.401   0.444
 3667SOL     OW11743   3.586   2.254   1.381
 3667SOL    HW111744   3.658   2.317   1.379
 3667SOL    HW211745   3.616   2.183   1.324
 3668SOL     OW11746   2.128   3.181   0.305
 3668SOL    HW111747   2.044   3.192   0.260
 3668SOL    HW211748   2.117   3.228   0.387
 3669SOL     OW11749   1.968   2.891   1.719
 3669SOL    HW111750   1.894   2.864   1.773
 3669SOL    HW211751   2.045   2.857   1.764
 3670SOL     OW11752   2.532   2.054   1.497
 3670SOL    HW111753   2.616   2.039   1.454
 3670SOL    HW211754   2.556   2.087   1.584
 3671SOL     OW11755   1.921   2.214   0.047
 3671SOL    HW111756   1.844   2.172   0.009
 3671SOL    HW211757   1.977   2.234   8.052
 3672SOL     OW11758   3.289   2.725   1.401
 3672SOL    HW111759   3.242   2.786   1.344
 3672SOL    HW211760   3.378   2.723   1.366
 3673SOL     OW11761   1.933   2.016   0.300
 3673SOL    HW111762   1.915   2.099   0.256
 3673SOL    HW211763   2.016   1.986   0.261
 3674SOL     OW11764   3.047   3.175   0.120
 3674SOL    HW111765   2.952   3.171   0.112
 3674SOL    HW211766   3.063   3.183   0.214
 3675SOL     OW11767   3.346   3.640   0.978
 3675SOL    HW111768   3.369   3.704   0.911
 3675SOL    HW211769   3.428   3.620   1.022
 3676SOL     OW11770   3.336   3.058   1.631
 3676SOL    HW111771   3.324   3.073   1.724
 3676SOL    HW211772   3.429   3.076   1.615
 3677SOL     OW11773   2.238   3.602   1.565
 3677SOL    HW111774   2.154   3.645   1.550
 3677SOL    HW211775   2.216   3.518   1.607
 3678SOL     OW11776   3.529   2.743   1.256
 3678SOL    HW111777   3.524   2.657   1.213
 3678SOL    HW211778   3.519   2.805   1.184
 3679SOL     OW11779   3.079   2.178   0.457
 3679SOL    HW111780   3.143   2.108   0.450
 3679SOL    HW211781   3.105   2.226   0.536
 3680SOL     OW11782   3.622   2.225   1.651
 3680SOL    HW111783   3.606   2.240   1.558
 3680SOL    HW211784   3.550   2.168   1.679
 3681SOL     OW11785   3.607   2.795   1.512
 3681SOL    HW111786   3.602   2.890   1.525
 3681SOL    HW211787   3.591   2.783   1.418
 3682SOL     OW11788   2.763   3.240   0.040
 3682SOL    HW111789   2.702   3.229   0.113
 3682SOL    HW211790   2.738   3.323   0.000
 3683SOL     OW11791   2.523   3.651   0.942
 3683SOL    HW111792   2.505   3.743   0.920
 3683SOL    HW211793   2.618   3.643   0.936
 3684SOL     OW11794   3.714   3.414   0.843
 3684SOL    HW111795   3.635   3.405   0.791
 3684SOL    HW211796   3.704   3.351   0.915
 3685SOL     OW11797   2.082   3.165   1.855
 3685SOL    HW111798   2.018   3.100   1.825
 3685SOL    HW211799   2.063   3.176   1.948
 3686SOL     OW11800   1.947   3.093   0.668
 3686SOL    HW111801   1.954   3.045   0.750
 3686SOL    HW211802   2.020   3.061   0.614
 3687SOL     OW11803   2.546   3.264   1.638
 3687SOL    HW111804   2.461   3.226   1.660
 3687SOL    HW211805   2.541   3.355   1.668
 3688SOL     OW11806   3.675   2.046   1.237
 3688SOL    HW111807   3.683   1.951   1.251
 3688SOL    HW211808   3.684   2.057   1.142
 3689SOL     OW11809   2.265   2.277   0.520
 3689SOL    HW111810   2.281   2.202   0.462
 3689SOL    HW211811   2.215   2.240   0.592
 3690SOL     OW11812   3.562   3.349   1.093
 3690SOL    HW111813   3.481   3.328   1.047
 3690SOL    HW211814   3.571   3.281   1.159
 3691SOL     OW11815   2.179   2.408   1.296
 3691SOL    HW111816   2.225   2.342   1.348
 3691SOL    HW211817   2.183   2.375   1.206
 3692SOL     OW11818   2.691   3.441   0.674
 3692SOL    HW111819   2.671   3.499   0.600
 3692SOL    HW211820   2.615   3.383   0.679
 3693SOL     OW11821   3.295   2.089   1.120
 3693SOL    HW111822   3.316   2.008   1.166
 3693SOL    HW211823   3.243   2.140   1.182
 3694SOL     OW11824   2.869   1.875   1.141
 3694SOL    HW111825   2.817   1.807   1.099
 3694SOL    HW211826   2.958   1.839   1.144
 3695SOL     OW11827   2.647   3.189   0.299
 3695SOL    HW111828   2.595   3.122   0.344
 3695SOL    HW211829   2.716   3.212   0.362
 3696SOL     OW11830   2.481   3.421   1.285
 3696SOL    HW111831   2.484   3.503   1.334
 3696SOL    HW211832   2.569   3.411   1.250
 3697SOL     OW11833   3.218   1.916   0.186
 3697SOL    HW111834   3.238   1.870   0.104
 3697SOL    HW211835   3.132   1.883   0.212
 3698SOL     OW11836   3.162   2.317   0.681
 3698SOL    HW111837   3.113   2.397   0.698
 3698SOL    HW211838   3.161   2.270   0.765
 3699SOL     OW11839   3.447   2.061   0.880
 3699SOL    HW111840   3.389   2.083   0.952
 3699SOL    HW211841   3.447   2.139   0.824
 3700SOL     OW11842   1.907   2.929   0.305
 3700SOL    HW111843   2.002   2.924   0.301
 3700SOL    HW211844   1.880   2.845   0.342
 3701SOL     OW11845   2.745   3.517   0.347
 3701SOL    HW111846   2.678   3.504   0.280
 3701SOL    HW211847   2.716   3.593   0.397
 3702SOL     OW11848   2.076   2.517   1.980
 3702SOL    HW111849   1.998   2.484   2.024
 3702SOL    HW211850   2.081   2.468   1.898
 3703SOL     OW11851   2.085   2.130   2.875
 3703SOL    HW111852   2.097   2.105   2.967
 3703SOL    HW211853   1.996   2.102   2.854
 3704SOL     OW11854   1.867   2.234   2.510
 3704SOL    HW111855   1.784   2.267   2.545
 3704SOL    HW211856   1.842   2.161   2.453
 3705SOL     OW11857   2.394   3.157   3.054
 3705SOL    HW111858   2.316   3.189   3.007
 3705SOL    HW211859   2.428   3.235   3.098
 3706SOL     OW11860   3.423   3.373   2.572
 3706SOL    HW111861   3.377   3.354   2.654
 3706SOL    HW211862   3.353   3.378   2.507
 3707SOL     OW11863   3.062   2.530   2.610
 3707SOL    HW111864   3.070   2.625   2.596
 3707SOL    HW211865   2.978   2.520   2.656
 3708SOL     OW11866   3.635   2.465   2.088
 3708SOL    HW111867   3.611   2.458   1.996
 3708SOL    HW211868   3.595   2.388   2.129
 3709SOL     OW11869   2.579   3.024   2.920
 3709SOL    HW111870   2.512   3.068   2.973
 3709SOL    HW211871   2.618   3.094   2.868
 3710SOL     OW11872   2.190   3.287   2.930
 3710SOL    HW111873   2.116   3.252   2.880
 3710SOL    HW211874   2.239   3.340   2.867
 3711SOL     OW11875   3.338   3.373   3.207
 3711SOL    HW111876   3.387   3.455   3.220
 3711SOL    HW211877   3.289   3.361   3.289
 3712SOL     OW11878   3.475   2.307   2.603
 3712SOL    HW111879   3.396   2.324   2.551
 3712SOL    HW211880   3.483   2.385   2.659
 3713SOL     OW11881   2.081   3.577   2.333
 3713SOL    HW111882   2.102   3.653   2.387
 3713SOL    HW211883   2.155   3.569   2.273
 3714SOL     OW11884   2.092   3.305   2.397
 3714SOL    HW111885   2.074   3.399   2.400
 3714SOL    HW211886   2.034   3.267   2.463
 3715SOL     OW11887   2.114   2.953   2.744
 3715SOL    HW111888   2.119   2.867   2.785
 3715SOL    HW211889   2.062   3.006   2.804
 3716SOL     OW11890   2.466   3.649   3.293
 3716SOL    HW111891   2.379   3.639   3.333
 3716SOL    HW211892   2.492   3.739   3.314
 3717SOL     OW11893   2.416   2.852   1.986
 3717SOL    HW111894   2.459   2.919   1.931
 3717SOL    HW211895   2.484   2.825   2.048
 3718SOL     OW11896   3.458   1.985   3.320
 3718SOL    HW111897   3.480   2.068   3.278
 3718SOL    HW211898   3.459   2.005   3.413
 3719SOL     OW11899   1.943   2.515   2.423
 3719SOL    HW111900   1.950   2.422   2.446
 3719SOL    HW211901   1.960   2.562   2.505
 3720SOL     OW11902   3.705   3.619   2.196
 3720SOL    HW111903   3.772   3.592   2.259
 3720SOL    HW211904   3.726   3.710   2.176
 3721SOL     OW11905   1.896   3.455   1.985
 3721SOL    HW111906   1.878   3.364   2.005
 3721SOL    HW211907   1.872   3.503   2.065
 3722SOL     OW11908   3.556   2.787   2.506
 3722SOL    HW111909   3.637   2.741   2.484
 3722SOL    HW211910   3.533   2.834   2.426
 3723SOL     OW11911   3.509   2.969   2.290
 3723SOL    HW111912   3.595   2.972   2.249
 3723SOL    HW211913   3.515   3.031   2.363
 3724SOL     OW11914   2.475   3.250   2.593
 3724SOL    HW111915   2.430   3.166   2.603
 3724SOL    HW211916   2.455   3.278   2.503
 3725SOL     OW11917   2.679   1.862   2.372
 3725SOL    HW111918   2.719   1.946   2.351
 3725SOL    HW211919   2.586   1.881   2.381
 3726SOL     OW11920   3.400   2.862   2.059
 3726SOL    HW111921   3.333   2.799   2.088
 3726SOL    HW211922   3.438   2.895   2.140
 3727SOL     OW11923   3.052   3.675   3.483
 3727SOL    HW111924   3.056   3.752   3.426
 3727SOL    HW211925   3.028   3.603   3.425
 3728SOL     OW11926   3.320   3.278   2.824
 3728SOL    HW111927   3.268   3.273   2.904
 3728SOL    HW211928   3.312   3.191   2.784
 3729SOL     OW11929   3.517   3.606   2.441
 3729SOL    HW111930   3.500   3.575   2.352
 3729SOL    HW211931   3.495   3.532   2.497
 3730SOL     OW11932   3.151   2.206   2.799
 3730SOL    HW111933   3.058   2.182   2.806
 3730SOL    HW211934   3.193   2.156   2.869
 3731SOL     OW11935   3.442   3.533   2.172
 3731SOL    HW111936   3.533   3.562   2.164
 3731SOL    HW211937   3.415   3.516   2.081
 3732SOL     OW11938   2.858   2.260   3.104
 3732SOL    HW111939   2.792   2.323   3.135
 3732SOL    HW211940   2.843   2.254   3.010
 3733SOL     OW11941   1.945   2.683   2.643
 3733SOL    HW111942   2.026   2.675   2.693
 3733SOL    HW211943   1.906   2.765   2.673
 3734SOL     OW11944   1.976   3.724   3.446
 3734SOL    HW111945   1.978   3.703   3.539
 3734SOL    HW211946   1.888   3.699   3.417
 3735SOL     OW11947   2.747   2.181   2.064
 3735SOL    HW111948   2.777   2.269   2.041
 3735SOL    HW211949   2.793   2.124   2.002
 3736SOL     OW11950   3.601   2.435   3.696
 3736SOL    HW111951   3.582   2.519   3.653
 3736SOL    HW211952   3.610   2.373   3.623
 3737SOL     OW11953   3.236   3.002   2.395
 3737SOL    HW111954   3.319   2.992   2.348
 3737SOL    HW211955   3.189   3.069   2.346
 3738SOL     OW11956   2.413   2.032   2.765
 3738SOL    HW111957   2.405   2.079   2.848
 3738SOL    HW211958   2.425   2.101   2.700
 3739SOL     OW11959   2.864   3.304   2.336
 3739SOL    HW111960   2.831   3.377   2.284
 3739SOL    HW211961   2.842   3.328   2.427
 3740SOL     OW11962   2.217   3.673   2.728
 3740SOL    HW111963   2.260   3.588   2.734
 3740SOL    HW211964   2.287   3.736   2.745
 3741SOL     OW11965   3.662   2.918   2.732
 3741SOL    HW111966   3.609   2.896   2.656
 3741SOL    HW211967   3.598   2.925   2.804
 3742SOL     OW11968   2.173   2.814   2.118
 3742SOL    HW111969   2.251   2.836   2.067
 3742SOL    HW211970   2.143   2.730   2.083
 3743SOL     OW11971   3.362   2.594   2.581
 3743SOL    HW111972   3.339   2.557   2.666
 3743SOL    HW211973   3.433   2.656   2.600
 3744SOL     OW11974   2.985   3.639   2.092
 3744SOL    HW111975   2.910   3.599   2.137
 3744SOL    HW211976   3.008   3.577   2.023
 3745SOL     OW11977   3.490   3.243   1.951
 3745SOL    HW111978   3.449   3.328   1.936
 3745SOL    HW211979   3.422   3.179   1.930
 3746SOL     OW11980   2.327   3.598   2.183
 3746SOL    HW111981   2.370   3.656   2.246
 3746SOL    HW211982   2.398   3.567   2.127
 3747SOL     OW11983   3.263   1.968   2.296
 3747SOL    HW111984   3.255   1.943   2.204
 3747SOL    HW211985   3.357   1.976   2.311
 3748SOL     OW11986   2.123   3.643   3.096
 3748SOL    HW111987   2.202   3.600   3.127
 3748SOL    HW211988   2.113   3.615   3.005
 3749SOL     OW11989   2.798   3.572   2.743
 3749SOL    HW111990   2.838   3.511   2.806
 3749SOL    HW211991   2.761   3.516   2.675
 3750SOL     OW11992   3.440   2.055   3.585
 3750SOL    HW111993   3.450   2.090   3.674
 3750SOL    HW211994   3.350   2.024   3.581
 3751SOL     OW11995   2.493   1.988   1.966
 3751SOL    HW111996   2.564   1.926   1.983
 3751SOL    HW211997   2.448   1.953   1.889
 3752SOL     OW11998   2.743   3.430   2.983
 3752SOL    HW111999   2.706   3.362   2.927
 3752SOL    HW212000   2.777   3.383   3.060
 3753SOL     OW12001   2.672   3.246   2.788
 3753SOL    HW112002   2.757   3.235   2.746
 3753SOL    HW212003   2.609   3.249   2.716
 3754SOL     OW12004   2.846   2.347   2.759
 3754SOL    HW112005   2.786   2.351   2.685
 3754SOL    HW212006   2.857   2.254   2.776
 3755SOL     OW12007   2.413   1.921   2.368
 3755SOL    HW112008   2.330   1.922   2.416
 3755SOL    HW212009   2.408   1.996   2.309
 3756SOL     OW12010   3.290   3.062   1.901
 3756SOL    HW112011   3.321   2.987   1.952
 3756SOL    HW212012   3.205   3.084   1.940
 3757SOL     OW12013   2.153   1.910   2.047
 3757SOL    HW112014   2.212   1.972   2.003
 3757SOL    HW212015   2.212   1.847   2.089
 3758SOL     OW12016   2.801   2.105   2.320
 3758SOL    HW112017   2.774   2.134   2.233
 3758SOL    HW212018   2.896   2.120   2.322
 3759SOL     OW12019   3.095   3.424   2.652
 3759SOL    HW112020   3.099   3.497   2.590
 3759SOL    HW212021   3.161   3.445   2.717
 3760SOL     OW12022   2.332   3.020   2.592
 3760SOL    HW112023   2.264   2.993   2.654
 3760SOL    HW212024   2.298   2.994   2.507
 3761SOL     OW12025   3.129   3.655   2.473
 3761SOL    HW112026   3.176   3.716   2.416
 3761SOL    HW212027   3.060   3.708   2.514
 3762SOL     OW12028   2.724   2.296   2.504
 3762SOL    HW112029   2.723   2.372   2.446
 3762SOL    HW212030   2.752   2.223   2.448
 3763SOL     OW12031   2.879   1.910   2.611
 3763SOL    HW112032   2.821   1.905   2.535
 3763SOL    HW212033   2.855   1.836   2.665
 3764SOL     OW12034   3.292   3.031   2.710
 3764SOL    HW112035   3.239   2.952   2.712
 3764SOL    HW212036   3.324   3.036   2.620
 3765SOL     OW12037   3.329   2.471   2.831
 3765SOL    HW112038   3.277   2.392   2.843
 3765SOL    HW212039   3.393   2.470   2.902
 3766SOL     OW12040   3.705   2.676   2.246
 3766SOL    HW112041   3.762   2.626   2.304
 3766SOL    HW212042   3.679   2.614   2.178
 3767SOL     OW12043   2.354   3.278   2.018
 3767SOL    HW112044   2.277   3.252   2.069
 3767SOL    HW212045   2.341   3.236   1.933
 3768SOL     OW12046   3.532   3.127   2.505
 3768SOL    HW112047   3.627   3.127   2.520
 3768SOL    HW212048   3.504   3.215   2.528
 3769SOL     OW12049   3.255   2.426   1.932
 3769SOL    HW112050   3.191   2.407   2.001
 3769SOL    HW212051   3.338   2.395   1.967
 3770SOL     OW12052   2.395   2.116   2.185
 3770SOL    HW112053   2.433   2.075   2.107
 3770SOL    HW212054   2.399   2.210   2.168
 3771SOL     OW12055   3.617   3.103   3.410
 3771SOL    HW112056   3.705   3.067   3.408
 3771SOL    HW212057   3.626   3.185   3.459
 3772SOL     OW12058   3.460   3.478   3.509
 3772SOL    HW112059   3.464   3.523   3.424
 3772SOL    HW212060   3.545   3.435   3.516
 3773SOL     OW12061   2.968   3.121   2.974
 3773SOL    HW112062   2.895   3.069   3.007
 3773SOL    HW212063   2.949   3.131   2.880
 3774SOL     OW12064   3.493   2.963   2.944
 3774SOL    HW112065   3.493   3.027   3.015
 3774SOL    HW212066   3.404   2.965   2.910
 3775SOL     OW12067   2.277   2.737   3.138
 3775SOL    HW112068   2.328   2.701   3.211
 3775SOL    HW212069   2.212   2.670   3.118
 3776SOL     OW12070   1.937   3.448   3.208
 3776SOL    HW112071   1.886   3.509   3.155
 3776SOL    HW212072   2.027   3.480   3.202
 3777SOL     OW12073   2.218   2.972   2.345
 3777SOL    HW112074   2.208   3.047   2.286
 3777SOL    HW212075   2.204   2.895   2.289
 3778SOL     OW12076   3.108   3.212   2.251
 3778SOL    HW112077   3.165   3.283   2.280
 3778SOL    HW212078   3.021   3.235   2.285
 3779SOL     OW12079   3.440   2.483   2.336
 3779SOL    HW112080   3.403   2.527   2.413
 3779SOL    HW212081   3.487   2.552   2.289
 3780SOL     OW12082   2.389   2.802   2.892
 3780SOL    HW112083   2.449   2.876   2.895
 3780SOL    HW212084   2.356   2.794   2.982
 3781SOL     OW12085   3.240   2.725   2.896
 3781SOL    HW112086   3.167   2.731   2.836
 3781SOL    HW212087   3.274   2.637   2.884
 3782SOL     OW12088   3.074   2.381   2.136
 3782SOL    HW112089   3.075   2.300   2.188
 3782SOL    HW212090   3.070   2.451   2.201
 3783SOL     OW12091   1.870   3.194   3.138
 3783SOL    HW112092   1.934   3.133   3.175
 3783SOL    HW212093   1.901   3.280   3.164
 3784SOL     OW12094   3.605   2.832   3.714
 3784SOL    HW112095   3.547   2.782   3.656
 3784SOL    HW212096   3.554   2.844   3.794
 3785SOL     OW12097   2.167   1.927   2.487
 3785SOL    HW112098   2.140   2.014   2.514
 3785SOL    HW212099   2.175   1.878   2.569
 3786SOL     OW12100   3.479   2.236   2.226
 3786SOL    HW112101   3.507   2.174   2.293
 3786SOL    HW212102   3.456   2.315   2.276
 3787SOL     OW12103   3.713   3.373   3.470
 3787SOL    HW112104   3.734   3.396   3.379
 3787SOL    HW212105   3.795   3.385   3.517
 3788SOL     OW12106   3.390   2.134   1.989
 3788SOL    HW112107   3.325   2.069   2.016
 3788SOL    HW212108   3.424   2.170   2.071
 3789SOL     OW12109   3.184   2.689   1.905
 3789SOL    HW112110   3.216   2.599   1.897
 3789SOL    HW212111   3.199   2.728   1.819
 3790SOL     OW12112   2.928   3.205   2.700
 3790SOL    HW112113   2.959   3.131   2.646
 3790SOL    HW212114   2.987   3.277   2.678
 3791SOL     OW12115   2.160   2.673   2.813
 3791SOL    HW112116   2.246   2.710   2.830
 3791SOL    HW212117   2.166   2.582   2.841
 3792SOL     OW12118   2.155   2.391   2.850
 3792SOL    HW112119   2.122   2.305   2.874
 3792SOL    HW212120   2.211   2.375   2.774
 3793SOL     OW12121   1.868   3.182   2.058
 3793SOL    HW112122   1.781   3.197   2.020
 3793SOL    HW212123   1.864   3.093   2.092
 3794SOL     OW12124   1.952   3.648   2.801
 3794SOL    HW112125   1.922   3.569   2.756
 3794SOL    HW212126   2.042   3.660   2.770
 3795SOL     OW12127   2.358   3.436   2.768
 3795SOL    HW112128   2.427   3.498   2.789
 3795SOL    HW212129   2.400   3.372   2.711
 3796SOL     OW12130   3.522   2.486   3.023
 3796SOL    HW112131   3.486   2.431   3.092
 3796SOL    HW212132   3.607   2.447   3.003
 3797SOL     OW12133   2.075   3.427   3.602
 3797SOL    HW112134   2.054   3.503   3.656
 3797SOL    HW212135   2.067   3.352   3.660
 3798SOL     OW12136   2.767   3.603   3.357
 3798SOL    HW112137   2.743   3.553   3.279
 3798SOL    HW212138   2.766   3.694   3.329
 3799SOL     OW12139   3.185   2.718   2.171
 3799SOL    HW112140   3.096   2.722   2.207
 3799SOL    HW212141   3.172   2.705   2.077
 3800SOL     OW12142   3.638   3.605   3.015
 3800SOL    HW112143   3.698   3.632   2.946
 3800SOL    HW212144   3.612   3.516   2.991
 3801SOL     OW12145   3.107   3.602   2.981
 3801SOL    HW112146   3.186   3.620   2.930
 3801SOL    HW212147   3.121   3.515   3.018
 3802SOL     OW12148   1.942   3.125   2.878
 3802SOL    HW112149   1.911   3.144   2.966
 3802SOL    HW212150   1.876   3.067   2.841
 3803SOL     OW12151   2.561   3.587   3.607
 3803SOL    HW112152   2.491   3.653   3.601
 3803SOL    HW212153   2.608   3.596   3.524
 3804SOL     OW12154   3.582   2.011   2.370
 3804SOL    HW112155   3.654   1.996   2.309
 3804SOL    HW212156   3.566   1.926   2.410
 3805SOL     OW12157   3.253   3.429   2.348
 3805SOL    HW112158   3.313   3.463   2.281
 3805SOL    HW212159   3.204   3.506   2.377
 3806SOL     OW12160   1.989   3.668   3.712
 3806SOL    HW112161   1.939   3.603   3.761
 3806SOL    HW212162   2.041   3.714   3.778
 3807SOL     OW12163   3.167   2.790   2.555
 3807SOL    HW112164   3.236   2.726   2.541
 3807SOL    HW212165   3.186   2.860   2.493
 3808SOL     OW12166   2.531   3.484   2.017
 3808SOL    HW112167   2.543   3.497   1.922
 3808SOL    HW212168   2.477   3.406   2.023
 3809SOL     OW12169   3.488   3.594   3.254
 3809SOL    HW112170   3.540   3.599   3.174
 3809SOL    HW212171   3.473   3.686   3.279
 3810SOL     OW12172   3.704   2.035   2.826
 3810SOL    HW112173   3.731   1.947   2.800
 3810SOL    HW212174   3.617   2.045   2.788
 3811SOL     OW12175   2.120   2.172   2.602
 3811SOL    HW112176   2.034   2.205   2.572
 3811SOL    HW212177   2.109   2.158   2.696
 3812SOL     OW12178   3.069   3.465   1.894
 3812SOL    HW112179   3.060   3.372   1.916
 3812SOL    HW212180   3.005   3.479   1.824
 3813SOL     OW12181   3.352   3.488   1.905
 3813SOL    HW112182   3.258   3.481   1.890
 3813SOL    HW212183   3.390   3.494   1.817
 3814SOL     OW12184   3.495   3.161   3.140
 3814SOL    HW112185   3.540   3.143   3.222
 3814SOL    HW212186   3.429   3.227   3.163
 3815SOL     OW12187   2.889   2.087   2.829
 3815SOL    HW112188   2.889   2.033   2.750
 3815SOL    HW212189   2.881   2.024   2.901
 3816SOL     OW12190   2.462   3.356   2.341
 3816SOL    HW112191   2.511   3.309   2.274
 3816SOL    HW212192   2.391   3.398   2.294
 3817SOL     OW12193   3.597   2.247   3.243
 3817SOL    HW112194   3.663   2.316   3.235
 3817SOL    HW212195   3.625   2.179   3.182
 3818SOL     OW12196   2.123   3.205   2.153
 3818SOL    HW112197   2.030   3.202   2.129
 3818SOL    HW212198   2.124   3.244   2.240
 3819SOL     OW12199   1.942   2.193   1.896
 3819SOL    HW112200   1.852   2.176   1.866
 3819SOL    HW212201   1.970   2.269   1.844
 3820SOL     OW12202   1.928   2.016   2.170
 3820SOL    HW112203   1.915   2.099   2.124
 3820SOL    HW212204   2.013   1.984   2.140
 3821SOL     OW12205   3.037   3.193   1.977
 3821SOL    HW112206   2.941   3.188   1.978
 3821SOL    HW212207   3.062   3.196   2.069
 3822SOL     OW12208   3.346   3.639   2.844
 3822SOL    HW112209   3.366   3.700   2.773
 3822SOL    HW212210   3.431   3.619   2.883
 3823SOL     OW12211   2.226   3.617   3.420
 3823SOL    HW112212   2.141   3.661   3.414
 3823SOL    HW212213   2.205   3.528   3.447
 3824SOL     OW12214   3.592   2.752   3.109
 3824SOL    HW112215   3.555   2.668   3.079
 3824SOL    HW212216   3.556   2.816   3.048
 3825SOL     OW12217   3.076   2.175   2.322
 3825SOL    HW112218   3.139   2.103   2.311
 3825SOL    HW212219   3.107   2.221   2.400
 3826SOL     OW12220   3.625   2.237   3.509
 3826SOL    HW112221   3.612   2.244   3.415
 3826SOL    HW212222   3.564   2.168   3.537
 3827SOL     OW12223   3.634   2.785   3.379
 3827SOL    HW112224   3.620   2.879   3.393
 3827SOL    HW212225   3.622   2.773   3.285
 3828SOL     OW12226   2.754   3.232   1.908
 3828SOL    HW112227   2.693   3.259   1.977
 3828SOL    HW212228   2.757   3.306   1.848
 3829SOL     OW12229   2.522   3.652   2.803
 3829SOL    HW112230   2.506   3.743   2.780
 3829SOL    HW212231   2.617   3.642   2.798
 3830SOL     OW12232   3.717   3.416   2.704
 3830SOL    HW112233   3.637   3.402   2.652
 3830SOL    HW212234   3.711   3.350   2.773
 3831SOL     OW12235   1.947   3.095   2.529
 3831SOL    HW112236   1.955   3.046   2.611
 3831SOL    HW212237   2.015   3.057   2.472
 3832SOL     OW12238   3.679   2.040   3.097
 3832SOL    HW112239   3.682   1.945   3.107
 3832SOL    HW212240   3.688   2.054   3.002
 3833SOL     OW12241   2.225   2.251   2.363
 3833SOL    HW112242   2.273   2.178   2.326
 3833SOL    HW212243   2.199   2.222   2.451
 3834SOL     OW12244   3.561   3.355   2.950
 3834SOL    HW112245   3.481   3.333   2.903
 3834SOL    HW212246   3.570   3.286   3.016
 3835SOL     OW12247   2.691   3.437   2.532
 3835SOL    HW112248   2.672   3.499   2.462
 3835SOL    HW212249   2.613   3.381   2.537
 3836SOL     OW12250   3.286   2.079   2.995
 3836SOL    HW112251   3.324   1.993   3.016
 3836SOL    HW212252   3.251   2.110   3.079
 3837SOL     OW12253   2.865   1.877   3.019
 3837SOL    HW112254   2.816   1.807   2.975
 3837SOL    HW212255   2.955   1.844   3.022
 3838SOL     OW12256   2.634   3.208   2.179
 3838SOL    HW112257   2.609   3.117   2.162
 3838SOL    HW212258   2.718   3.202   2.223
 3839SOL     OW12259   3.215   1.915   2.029
 3839SOL    HW112260   3.246   1.849   1.967
 3839SOL    HW212261   3.127   1.886   2.053
 3840SOL     OW12262   3.176   2.300   2.543
 3840SOL    HW112263   3.139   2.387   2.557
 3840SOL    HW212264   3.170   2.258   2.629
 3841SOL     OW12265   3.447   2.064   2.742
 3841SOL    HW112266   3.382   2.089   2.808
 3841SOL    HW212267   3.451   2.140   2.684
 3842SOL     OW12268   1.906   2.932   2.169
 3842SOL    HW112269   1.999   2.921   2.148
 3842SOL    HW212270   1.876   2.844   2.190
 3843SOL     OW12271   2.750   3.516   2.202
 3843SOL    HW112272   2.676   3.499   2.143
 3843SOL    HW212273   2.721   3.590   2.255
 3844SOL     OW12274   1.819   2.221   4.326
 3844SOL    HW112275   1.754   2.267   4.378
 3844SOL    HW212276   1.778   2.138   4.303
 3845SOL     OW12277   3.420   3.373   4.428
 3845SOL    HW112278   3.362   3.378   4.504
 3845SOL    HW212279   3.360   3.366   4.353
 3846SOL     OW12280   3.624   2.462   3.963
 3846SOL    HW112281   3.612   2.455   3.868
 3846SOL    HW212282   3.587   2.381   3.998
 3847SOL     OW12283   2.563   3.001   4.757
 3847SOL    HW112284   2.559   3.022   4.851
 3847SOL    HW212285   2.575   3.085   4.714
 3848SOL     OW12286   2.545   3.035   5.570
 3848SOL    HW112287   2.617   3.095   5.549
 3848SOL    HW212288   2.473   3.066   5.515
 3849SOL     OW12289   3.331   3.366   5.082
 3849SOL    HW112290   3.377   3.449   5.094
 3849SOL    HW212291   3.251   3.375   5.134
 3850SOL     OW12292   2.296   2.224   5.198
 3850SOL    HW112293   2.369   2.162   5.205
 3850SOL    HW212294   2.219   2.173   5.222
 3851SOL     OW12295   3.511   2.305   4.440
 3851SOL    HW112296   3.419   2.331   4.435
 3851SOL    HW212297   3.551   2.369   4.498
 3852SOL     OW12298   2.084   3.594   4.196
 3852SOL    HW112299   2.109   3.671   4.248
 3852SOL    HW212300   2.156   3.581   4.135
 3853SOL     OW12301   2.999   3.196   5.414
 3853SOL    HW112302   3.028   3.183   5.505
 3853SOL    HW212303   2.953   3.115   5.392
 3854SOL     OW12304   2.038   3.325   4.228
 3854SOL    HW112305   2.053   3.415   4.255
 3854SOL    HW212306   2.063   3.273   4.305
 3855SOL     OW12307   2.454   3.674   5.144
 3855SOL    HW112308   2.379   3.650   5.198
 3855SOL    HW212309   2.481   3.759   5.178
 3856SOL     OW12310   2.413   2.872   3.861
 3856SOL    HW112311   2.433   2.939   3.796
 3856SOL    HW212312   2.498   2.844   3.894
 3857SOL     OW12313   3.453   1.989   5.188
 3857SOL    HW112314   3.477   2.070   5.141
 3857SOL    HW212315   3.440   2.017   5.278
 3858SOL     OW12316   3.706   3.620   4.058
 3858SOL    HW112317   3.773   3.592   4.121
 3858SOL    HW212318   3.727   3.711   4.038
 3859SOL     OW12319   1.897   3.456   3.851
 3859SOL    HW112320   1.878   3.364   3.869
 3859SOL    HW212321   1.873   3.502   3.931
 3860SOL     OW12322   3.572   2.792   4.368
 3860SOL    HW112323   3.638   2.740   4.322
 3860SOL    HW212324   3.531   2.845   4.300
 3861SOL     OW12325   3.515   2.968   4.156
 3861SOL    HW112326   3.605   2.980   4.125
 3861SOL    HW212327   3.507   3.029   4.230
 3862SOL     OW12328   1.955   2.605   5.321
 3862SOL    HW112329   2.048   2.627   5.326
 3862SOL    HW212330   1.910   2.689   5.329
 3863SOL     OW12331   3.158   3.066   5.137
 3863SOL    HW112332   3.213   2.993   5.109
 3863SOL    HW212333   3.198   3.096   5.219
 3864SOL     OW12334   3.414   2.859   3.932
 3864SOL    HW112335   3.367   2.784   3.970
 3864SOL    HW212336   3.447   2.907   4.008
 3865SOL     OW12337   3.049   3.669   5.347
 3865SOL    HW112338   3.057   3.729   5.273
 3865SOL    HW212339   3.064   3.582   5.309
 3866SOL     OW12340   2.199   2.110   5.554
 3866SOL    HW112341   2.224   2.197   5.525
 3866SOL    HW212342   2.106   2.118   5.577
 3867SOL     OW12343   3.519   3.605   4.303
 3867SOL    HW112344   3.502   3.576   4.214
 3867SOL    HW212345   3.493   3.532   4.358
 3868SOL     OW12346   3.443   3.538   4.033
 3868SOL    HW112347   3.535   3.566   4.027
 3868SOL    HW212348   3.418   3.520   3.942
 3869SOL     OW12349   3.253   2.332   5.399
 3869SOL    HW112350   3.257   2.375   5.484
 3869SOL    HW212351   3.316   2.261   5.405
 3870SOL     OW12352   1.987   3.710   5.302
 3870SOL    HW112353   1.988   3.691   5.396
 3870SOL    HW212354   1.894   3.704   5.278
 3871SOL     OW12355   3.569   2.436   5.553
 3871SOL    HW112356   3.531   2.508   5.503
 3871SOL    HW212357   3.597   2.373   5.487
 3872SOL     OW12358   2.870   3.305   4.162
 3872SOL    HW112359   2.832   3.386   4.128
 3872SOL    HW212360   2.851   3.307   4.256
 3873SOL     OW12361   2.223   3.676   4.594
 3873SOL    HW112362   2.287   3.607   4.580
 3873SOL    HW212363   2.275   3.754   4.611
 3874SOL     OW12364   3.657   2.935   4.599
 3874SOL    HW112365   3.622   2.914   4.513
 3874SOL    HW212366   3.583   2.928   4.659
 3875SOL     OW12367   3.092   3.399   5.234
 3875SOL    HW112368   3.082   3.332   5.301
 3875SOL    HW212369   3.033   3.372   5.164
 3876SOL     OW12370   2.169   2.780   3.940
 3876SOL    HW112371   2.252   2.807   3.901
 3876SOL    HW212372   2.150   2.695   3.900
 3877SOL     OW12373   2.321   3.138   5.450
 3877SOL    HW112374   2.296   3.130   5.357
 3877SOL    HW212375   2.239   3.129   5.497
 3878SOL     OW12376   2.984   3.642   3.952
 3878SOL    HW112377   2.908   3.606   3.998
 3878SOL    HW212378   3.010   3.574   3.891
 3879SOL     OW12379   2.049   2.143   5.257
 3879SOL    HW112380   1.971   2.193   5.232
 3879SOL    HW212381   2.015   2.056   5.279
 3880SOL     OW12382   3.485   3.238   3.811
 3880SOL    HW112383   3.451   3.327   3.797
 3880SOL    HW212384   3.407   3.184   3.822
 3881SOL     OW12385   2.326   3.600   4.046
 3881SOL    HW112386   2.372   3.658   4.107
 3881SOL    HW212387   2.393   3.569   3.986
 3882SOL     OW12388   3.262   1.973   4.166
 3882SOL    HW112389   3.250   1.950   4.074
 3882SOL    HW212390   3.357   1.974   4.178
 3883SOL     OW12391   2.122   3.641   4.962
 3883SOL    HW112392   2.211   3.612   4.980
 3883SOL    HW212393   2.110   3.624   4.868
 3884SOL     OW12394   2.134   2.546   4.146
 3884SOL    HW112395   2.226   2.538   4.170
 3884SOL    HW212396   2.089   2.560   4.229
 3885SOL     OW12397   3.395   2.085   5.449
 3885SOL    HW112398   3.404   2.107   5.542
 3885SOL    HW212399   3.328   2.017   5.447
 3886SOL     OW12400   2.626   2.131   5.479
 3886SOL    HW112401   2.704   2.075   5.476
 3886SOL    HW212402   2.583   2.109   5.561
 3887SOL     OW12403   3.214   2.483   5.167
 3887SOL    HW112404   3.229   2.427   5.243
 3887SOL    HW212405   3.245   2.570   5.194
 3888SOL     OW12406   2.765   2.367   4.639
 3888SOL    HW112407   2.744   2.390   4.549
 3888SOL    HW212408   2.748   2.273   4.645
 3889SOL     OW12409   2.411   1.893   4.223
 3889SOL    HW112410   2.335   1.900   4.281
 3889SOL    HW212411   2.420   1.980   4.185
 3890SOL     OW12412   2.157   1.913   3.905
 3890SOL    HW112413   2.220   1.975   3.870
 3890SOL    HW212414   2.209   1.846   3.949
 3891SOL     OW12415   3.135   3.660   4.316
 3891SOL    HW112416   3.180   3.723   4.259
 3891SOL    HW212417   3.083   3.713   4.375
 3892SOL     OW12418   2.882   2.423   3.745
 3892SOL    HW112419   2.797   2.467   3.749
 3892SOL    HW212420   2.910   2.416   3.837
 3893SOL     OW12421   1.927   2.394   5.160
 3893SOL    HW112422   1.999   2.409   5.097
 3893SOL    HW212423   1.926   2.473   5.214
 3894SOL     OW12424   3.710   2.678   4.109
 3894SOL    HW112425   3.768   2.625   4.164
 3894SOL    HW212426   3.671   2.616   4.048
 3895SOL     OW12427   2.355   3.271   3.899
 3895SOL    HW112428   2.274   3.244   3.940
 3895SOL    HW212429   2.345   3.249   3.807
 3896SOL     OW12430   3.541   3.124   4.373
 3896SOL    HW112431   3.635   3.138   4.384
 3896SOL    HW212432   3.502   3.209   4.393
 3897SOL     OW12433   2.398   2.102   4.052
 3897SOL    HW112434   2.453   2.068   3.981
 3897SOL    HW212435   2.427   2.192   4.063
 3898SOL     OW12436   3.615   3.101   5.297
 3898SOL    HW112437   3.703   3.065   5.289
 3898SOL    HW212438   3.628   3.192   5.323
 3899SOL     OW12439   2.931   3.241   5.071
 3899SOL    HW112440   2.851   3.198   5.099
 3899SOL    HW212441   2.999   3.174   5.081
 3900SOL     OW12442   3.473   3.490   5.382
 3900SOL    HW112443   3.463   3.522   5.292
 3900SOL    HW212444   3.554   3.440   5.381
 3901SOL     OW12445   2.781   1.950   5.142
 3901SOL    HW112446   2.787   1.955   5.047
 3901SOL    HW212447   2.861   1.993   5.173
 3902SOL     OW12448   2.265   2.689   5.054
 3902SOL    HW112449   2.329   2.700   4.983
 3902SOL    HW212450   2.224   2.604   5.036
 3903SOL     OW12451   1.942   3.457   5.076
 3903SOL    HW112452   1.871   3.494   5.024
 3903SOL    HW212453   2.015   3.517   5.064
 3904SOL     OW12454   2.248   2.913   4.157
 3904SOL    HW112455   2.209   2.999   4.144
 3904SOL    HW212456   2.215   2.860   4.084
 3905SOL     OW12457   3.118   3.227   4.089
 3905SOL    HW112458   3.166   3.306   4.115
 3905SOL    HW212459   3.027   3.247   4.110
 3906SOL     OW12460   2.220   2.632   5.320
 3906SOL    HW112461   2.250   2.674   5.240
 3906SOL    HW212462   2.296   2.583   5.352
 3907SOL     OW12463   3.460   2.642   5.410
 3907SOL    HW112464   3.376   2.688   5.408
 3907SOL    HW212465   3.513   2.686   5.344
 3908SOL     OW12466   2.861   1.987   5.484
 3908SOL    HW112467   2.920   2.058   5.460
 3908SOL    HW212468   2.906   1.908   5.455
 3909SOL     OW12469   2.357   1.898   5.475
 3909SOL    HW112470   2.314   1.847   5.407
 3909SOL    HW212471   2.299   1.973   5.489
 3910SOL     OW12472   3.028   2.411   3.997
 3910SOL    HW112473   3.072   2.327   4.011
 3910SOL    HW212474   3.059   2.466   4.069
 3911SOL     OW12475   1.861   3.197   5.022
 3911SOL    HW112476   1.919   3.129   5.056
 3911SOL    HW212477   1.907   3.280   5.041
 3912SOL     OW12478   3.600   2.822   5.578
 3912SOL    HW112479   3.554   2.757   5.525
 3912SOL    HW212480   3.540   2.839   5.651
 3913SOL     OW12481   2.159   1.889   4.347
 3913SOL    HW112482   2.131   1.980   4.333
 3913SOL    HW212483   2.129   1.868   4.435
 3914SOL     OW12484   3.480   2.239   4.110
 3914SOL    HW112485   3.513   2.164   4.159
 3914SOL    HW212486   3.453   2.301   4.178
 3915SOL     OW12487   2.846   3.424   5.442
 3915SOL    HW112488   2.832   3.474   5.362
 3915SOL    HW212489   2.890   3.344   5.414
 3916SOL     OW12490   3.716   3.365   5.328
 3916SOL    HW112491   3.735   3.392   5.239
 3916SOL    HW212492   3.797   3.382   5.376
 3917SOL     OW12493   2.209   2.812   5.532
 3917SOL    HW112494   2.283   2.811   5.593
 3917SOL    HW212495   2.222   2.735   5.477
 3918SOL     OW12496   3.466   2.096   3.874
 3918SOL    HW112497   3.396   2.034   3.895
 3918SOL    HW212498   3.468   2.156   3.948
 3919SOL     OW12499   3.000   2.226   5.414
 3919SOL    HW112500   2.944   2.297   5.446
 3919SOL    HW212501   3.087   2.265   5.409
 3920SOL     OW12502   3.022   2.082   5.184
 3920SOL    HW112503   3.004   2.129   5.266
 3920SOL    HW212504   3.092   2.133   5.142
 3921SOL     OW12505   1.857   3.186   3.922
 3921SOL    HW112506   1.772   3.201   3.880
 3921SOL    HW212507   1.854   3.096   3.952
 3922SOL     OW12508   1.956   3.645   4.666
 3922SOL    HW112509   1.925   3.567   4.622
 3922SOL    HW212510   2.045   3.658   4.633
 3923SOL     OW12511   2.059   2.376   5.449
 3923SOL    HW112512   2.079   2.323   5.372
 3923SOL    HW212513   2.013   2.452   5.415
 3924SOL     OW12514   3.233   2.806   5.395
 3924SOL    HW112515   3.254   2.899   5.402
 3924SOL    HW212516   3.239   2.786   5.302
 3925SOL     OW12517   3.541   2.492   4.966
 3925SOL    HW112518   3.500   2.414   5.004
 3925SOL    HW212519   3.614   2.458   4.913
 3926SOL     OW12520   2.106   3.410   5.449
 3926SOL    HW112521   2.082   3.477   5.513
 3926SOL    HW212522   2.106   3.328   5.498
 3927SOL     OW12523   2.780   3.553   5.212
 3927SOL    HW112524   2.724   3.506   5.150
 3927SOL    HW212525   2.780   3.643   5.179
 3928SOL     OW12526   2.016   3.009   5.197
 3928SOL    HW112527   2.008   2.951   5.272
 3928SOL    HW212528   2.027   2.950   5.122
 3929SOL     OW12529   3.195   2.688   4.044
 3929SOL    HW112530   3.136   2.724   4.110
 3929SOL    HW212531   3.169   2.733   3.963
 3930SOL     OW12532   3.631   3.604   4.871
 3930SOL    HW112533   3.694   3.629   4.804
 3930SOL    HW212534   3.610   3.512   4.851
 3931SOL     OW12535   3.106   3.609   4.840
 3931SOL    HW112536   3.191   3.618   4.797
 3931SOL    HW212537   3.088   3.515   4.838
 3932SOL     OW12538   2.541   3.528   5.452
 3932SOL    HW112539   2.490   3.610   5.446
 3932SOL    HW212540   2.616   3.542   5.394
 3933SOL     OW12541   3.578   2.008   4.226
 3933SOL    HW112542   3.651   1.993   4.167
 3933SOL    HW212543   3.564   1.924   4.269
 3934SOL     OW12544   3.253   3.436   4.204
 3934SOL    HW112545   3.314   3.474   4.141
 3934SOL    HW212546   3.206   3.511   4.240
 3935SOL     OW12547   2.003   3.655   5.566
 3935SOL    HW112548   1.951   3.591   5.614
 3935SOL    HW212549   2.049   3.705   5.634
 3936SOL     OW12550   2.678   3.154   5.148
 3936SOL    HW112551   2.657   3.174   5.239
 3936SOL    HW212552   2.619   3.209   5.097
 3937SOL     OW12553   2.524   3.496   3.888
 3937SOL    HW112554   2.552   3.507   3.797
 3937SOL    HW212555   2.490   3.407   3.892
 3938SOL     OW12556   3.490   3.593   5.117
 3938SOL    HW112557   3.537   3.599   5.034
 3938SOL    HW212558   3.474   3.684   5.142
 3939SOL     OW12559   3.706   2.031   4.687
 3939SOL    HW112560   3.741   1.944   4.667
 3939SOL    HW212561   3.620   2.032   4.644
 3940SOL     OW12562   3.079   3.463   3.761
 3940SOL    HW112563   3.079   3.369   3.775
 3940SOL    HW212564   3.025   3.476   3.682
 3941SOL     OW12565   3.359   3.489   3.767
 3941SOL    HW112566   3.264   3.481   3.758
 3941SOL    HW212567   3.391   3.493   3.677
 3942SOL     OW12568   2.231   3.174   5.188
 3942SOL    HW112569   2.189   3.258   5.206
 3942SOL    HW212570   2.159   3.110   5.189
 3943SOL     OW12571   3.461   3.142   5.008
 3943SOL    HW112572   3.527   3.129   5.076
 3943SOL    HW212573   3.409   3.217   5.038
 3944SOL     OW12574   2.391   3.348   4.177
 3944SOL    HW112575   2.437   3.306   4.104
 3944SOL    HW212576   2.349   3.424   4.138
 3945SOL     OW12577   3.591   2.241   5.113
 3945SOL    HW112578   3.656   2.311   5.106
 3945SOL    HW212579   3.621   2.174   5.051
 3946SOL     OW12580   2.110   3.200   4.006
 3946SOL    HW112581   2.017   3.195   3.986
 3946SOL    HW212582   2.114   3.246   4.090
 3947SOL     OW12583   1.968   2.891   5.440
 3947SOL    HW112584   1.894   2.866   5.495
 3947SOL    HW212585   2.045   2.859   5.486
 3948SOL     OW12586   2.529   2.052   5.228
 3948SOL    HW112587   2.613   2.038   5.183
 3948SOL    HW212588   2.553   2.090   5.313
 3949SOL     OW12589   1.916   2.213   3.777
 3949SOL    HW112590   1.846   2.183   3.720
 3949SOL    HW212591   1.950   2.292   3.735
 3950SOL     OW12592   3.299   2.754   5.144
 3950SOL    HW112593   3.260   2.746   5.057
 3950SOL    HW212594   3.393   2.760   5.127
 3951SOL     OW12595   1.930   2.019   4.030
 3951SOL    HW112596   1.912   2.096   3.976
 3951SOL    HW212597   2.016   1.988   4.000
 3952SOL     OW12598   3.354   3.637   4.708
 3952SOL    HW112599   3.371   3.696   4.635
 3952SOL    HW212600   3.438   3.629   4.753
 3953SOL     OW12601   3.334   3.065   5.358
 3953SOL    HW112602   3.325   3.080   5.452
 3953SOL    HW212603   3.427   3.080   5.340
 3954SOL     OW12604   2.236   3.598   5.288
 3954SOL    HW112605   2.151   3.641   5.275
 3954SOL    HW212606   2.215   3.519   5.338
 3955SOL     OW12607   3.564   2.761   4.983
 3955SOL    HW112608   3.552   2.667   4.968
 3955SOL    HW212609   3.498   2.802   4.927
 3956SOL     OW12610   3.622   2.223   5.382
 3956SOL    HW112611   3.610   2.236   5.288
 3956SOL    HW212612   3.550   2.166   5.408
 3957SOL     OW12613   3.601   2.801   5.245
 3957SOL    HW112614   3.603   2.895   5.260
 3957SOL    HW212615   3.607   2.792   5.150
 3958SOL     OW12616   2.516   3.660   4.654
 3958SOL    HW112617   2.483   3.749   4.638
 3958SOL    HW212618   2.611   3.671   4.660
 3959SOL     OW12619   3.065   2.846   3.855
 3959SOL    HW112620   3.047   2.934   3.822
 3959SOL    HW212621   3.073   2.792   3.776
 3960SOL     OW12622   3.713   3.416   4.569
 3960SOL    HW112623   3.638   3.403   4.512
 3960SOL    HW212624   3.705   3.348   4.636
 3961SOL     OW12625   2.082   3.164   5.576
 3961SOL    HW112626   2.018   3.097   5.550
 3961SOL    HW212627   2.069   3.175   5.670
 3962SOL     OW12628   2.553   3.258   5.371
 3962SOL    HW112629   2.466   3.223   5.391
 3962SOL    HW212630   2.546   3.352   5.391
 3963SOL     OW12631   3.680   2.042   4.959
 3963SOL    HW112632   3.684   1.947   4.971
 3963SOL    HW212633   3.687   2.054   4.865
 3964SOL     OW12634   3.563   3.344   4.826
 3964SOL    HW112635   3.469   3.327   4.829
 3964SOL    HW212636   3.601   3.278   4.885
 3965SOL     OW12637   2.185   2.417   5.038
 3965SOL    HW112638   2.224   2.366   5.110
 3965SOL    HW212639   2.193   2.361   4.961
 3966SOL     OW12640   3.333   2.051   4.837
 3966SOL    HW112641   3.334   1.974   4.893
 3966SOL    HW212642   3.265   2.107   4.873
 3967SOL     OW12643   2.645   3.158   4.043
 3967SOL    HW112644   2.591   3.128   4.116
 3967SOL    HW212645   2.707   3.219   4.082
 3968SOL     OW12646   2.566   3.437   5.077
 3968SOL    HW112647   2.526   3.519   5.107
 3968SOL    HW212648   2.518   3.416   4.997
 3969SOL     OW12649   3.217   1.922   3.897
 3969SOL    HW112650   3.253   1.860   3.834
 3969SOL    HW212651   3.132   1.885   3.922
 3970SOL     OW12652   3.453   2.036   4.591
 3970SOL    HW112653   3.409   2.055   4.674
 3970SOL    HW212654   3.453   2.121   4.545
 3971SOL     OW12655   1.900   2.933   4.030
 3971SOL    HW112656   1.990   2.924   3.998
 3971SOL    HW212657   1.870   2.844   4.046
 3972SOL     OW12658   2.749   3.526   4.061
 3972SOL    HW112659   2.674   3.509   4.004
 3972SOL    HW212660   2.717   3.589   4.125
 3973SOL     OW12661   2.067   2.515   5.699
 3973SOL    HW112662   1.988   2.478   5.740
 3973SOL    HW212663   2.078   2.464   5.619
 3974SOL     OW12664   2.084   2.134   6.581
 3974SOL    HW112665   2.114   2.100   6.665
 3974SOL    HW212666   1.994   2.103   6.572
 3975SOL     OW12667   1.863   2.240   6.231
 3975SOL    HW112668   1.779   2.266   6.270
 3975SOL    HW212669   1.841   2.164   6.176
 3976SOL     OW12670   2.411   3.164   6.784
 3976SOL    HW112671   2.329   3.175   6.737
 3976SOL    HW212672   2.434   3.252   6.813
 3977SOL     OW12673   3.426   3.375   6.294
 3977SOL    HW112674   3.383   3.354   6.377
 3977SOL    HW212675   3.354   3.379   6.231
 3978SOL     OW12676   3.063   2.531   6.339
 3978SOL    HW112677   3.072   2.622   6.313
 3978SOL    HW212678   2.971   2.522   6.363
 3979SOL     OW12679   3.634   2.466   5.813
 3979SOL    HW112680   3.611   2.459   5.720
 3979SOL    HW212681   3.595   2.388   5.853
 3980SOL     OW12682   2.588   3.037   6.631
 3980SOL    HW112683   2.519   3.070   6.687
 3980SOL    HW212684   2.624   3.116   6.589
 3981SOL     OW12685   2.544   3.038   7.410
 3981SOL    HW112686   2.604   3.112   7.422
 3981SOL    HW212687   2.468   3.076   7.366
 3982SOL     OW12688   2.190   3.288   6.653
 3982SOL    HW112689   2.118   3.247   6.604
 3982SOL    HW212690   2.240   3.337   6.587
 3983SOL     OW12691   3.325   3.361   6.943
 3983SOL    HW112692   3.378   3.441   6.951
 3983SOL    HW212693   3.255   3.372   7.007
 3984SOL     OW12694   2.303   2.225   7.038
 3984SOL    HW112695   2.377   2.168   7.056
 3984SOL    HW212696   2.227   2.178   7.073
 3985SOL     OW12697   3.474   2.307   6.327
 3985SOL    HW112698   3.395   2.320   6.275
 3985SOL    HW212699   3.482   2.386   6.380
 3986SOL     OW12700   2.081   3.577   6.057
 3986SOL    HW112701   2.102   3.653   6.112
 3986SOL    HW212702   2.155   3.569   5.997
 3987SOL     OW12703   3.044   3.247   7.285
 3987SOL    HW112704   3.072   3.242   7.377
 3987SOL    HW212705   3.000   3.163   7.269
 3988SOL     OW12706   2.092   3.304   6.120
 3988SOL    HW112707   2.074   3.398   6.124
 3988SOL    HW212708   2.034   3.266   6.187
 3989SOL     OW12709   2.116   2.953   6.471
 3989SOL    HW112710   2.121   2.868   6.516
 3989SOL    HW212711   2.064   3.008   6.529
 3990SOL     OW12712   2.469   3.656   7.012
 3990SOL    HW112713   2.389   3.637   7.061
 3990SOL    HW212714   2.493   3.744   7.040
 3991SOL     OW12715   2.415   2.856   5.716
 3991SOL    HW112716   2.458   2.921   5.661
 3991SOL    HW212717   2.485   2.820   5.770
 3992SOL     OW12718   3.458   1.987   7.053
 3992SOL    HW112719   3.471   2.068   7.004
 3992SOL    HW212720   3.441   2.015   7.142
 3993SOL     OW12721   1.945   2.511   6.158
 3993SOL    HW112722   1.924   2.420   6.182
 3993SOL    HW212723   1.946   2.558   6.241
 3994SOL     OW12724   3.705   3.619   5.920
 3994SOL    HW112725   3.772   3.592   5.983
 3994SOL    HW212726   3.726   3.710   5.900
 3995SOL     OW12727   1.895   3.455   5.708
 3995SOL    HW112728   1.878   3.363   5.728
 3995SOL    HW212729   1.871   3.502   5.787
 3996SOL     OW12730   3.557   2.787   6.230
 3996SOL    HW112731   3.636   2.739   6.206
 3996SOL    HW212732   3.532   2.834   6.150
 3997SOL     OW12733   3.509   2.969   6.016
 3997SOL    HW112734   3.595   2.972   5.974
 3997SOL    HW212735   3.515   3.031   6.089
 3998SOL     OW12736   1.982   2.613   7.179
 3998SOL    HW112737   2.053   2.656   7.226
 3998SOL    HW212738   1.916   2.681   7.166
 3999SOL     OW12739   2.481   3.250   6.321
 3999SOL    HW112740   2.436   3.166   6.333
 3999SOL    HW212741   2.460   3.276   6.232
 4000SOL     OW12742   3.146   3.093   7.016
 4000SOL    HW112743   3.181   3.031   6.953
 4000SOL    HW212744   3.209   3.092   7.088
 4001SOL     OW12745   2.678   1.860   6.097
 4001SOL    HW112746   2.719   1.943   6.075
 4001SOL    HW212747   2.585   1.880   6.105
 4002SOL     OW12748   2.032   2.837   6.855
 4002SOL    HW112749   2.116   2.792   6.844
 4002SOL    HW212750   1.970   2.785   6.804
 4003SOL     OW12751   3.401   2.862   5.783
 4003SOL    HW112752   3.334   2.799   5.811
 4003SOL    HW212753   3.439   2.895   5.865
 4004SOL     OW12754   3.046   3.671   7.207
 4004SOL    HW112755   3.054   3.734   7.135
 4004SOL    HW212756   3.064   3.586   7.166
 4005SOL     OW12757   2.196   2.109   7.405
 4005SOL    HW112758   2.228   2.198   7.398
 4005SOL    HW212759   2.104   2.119   7.432
 4006SOL     OW12760   3.330   3.280   6.536
 4006SOL    HW112761   3.262   3.297   6.602
 4006SOL    HW212762   3.315   3.189   6.510
 4007SOL     OW12763   3.518   3.606   6.164
 4007SOL    HW112764   3.501   3.575   6.075
 4007SOL    HW212765   3.495   3.532   6.220
 4008SOL     OW12766   3.146   2.211   6.519
 4008SOL    HW112767   3.055   2.183   6.529
 4008SOL    HW212768   3.194   2.158   6.583
 4009SOL     OW12769   3.442   3.533   5.896
 4009SOL    HW112770   3.533   3.562   5.888
 4009SOL    HW212771   3.415   3.516   5.805
 4010SOL     OW12772   3.259   2.337   7.262
 4010SOL    HW112773   3.257   2.381   7.347
 4010SOL    HW212774   3.315   2.261   7.275
 4011SOL     OW12775   2.860   2.274   6.827
 4011SOL    HW112776   2.779   2.315   6.856
 4011SOL    HW212777   2.841   2.243   6.739
 4012SOL     OW12778   1.946   2.682   6.371
 4012SOL    HW112779   2.030   2.681   6.418
 4012SOL    HW212780   1.903   2.762   6.399
 4013SOL     OW12781   1.987   3.720   7.167
 4013SOL    HW112782   1.990   3.696   7.260
 4013SOL    HW212783   1.899   3.697   7.139
 4014SOL     OW12784   2.744   2.185   5.789
 4014SOL    HW112785   2.774   2.272   5.766
 4014SOL    HW212786   2.788   2.126   5.727
 4015SOL     OW12787   3.570   2.436   7.416
 4015SOL    HW112788   3.532   2.510   7.367
 4015SOL    HW212789   3.597   2.374   7.348
 4016SOL     OW12790   3.236   3.003   6.119
 4016SOL    HW112791   3.318   2.992   6.072
 4016SOL    HW212792   3.188   3.069   6.069
 4017SOL     OW12793   2.408   2.029   6.473
 4017SOL    HW112794   2.409   2.054   6.565
 4017SOL    HW212795   2.429   2.109   6.425
 4018SOL     OW12796   2.864   3.305   6.061
 4018SOL    HW112797   2.831   3.377   6.008
 4018SOL    HW212798   2.843   3.329   6.151
 4019SOL     OW12799   2.217   3.672   6.451
 4019SOL    HW112800   2.260   3.587   6.458
 4019SOL    HW212801   2.286   3.736   6.470
 4020SOL     OW12802   3.663   2.918   6.456
 4020SOL    HW112803   3.611   2.896   6.379
 4020SOL    HW212804   3.599   2.924   6.527
 4021SOL     OW12805   3.093   3.414   7.083
 4021SOL    HW112806   3.087   3.352   7.155
 4021SOL    HW212807   3.025   3.386   7.022
 4022SOL     OW12808   2.168   2.822   5.842
 4022SOL    HW112809   2.246   2.839   5.790
 4022SOL    HW212810   2.151   2.729   5.830
 4023SOL     OW12811   3.363   2.594   6.306
 4023SOL    HW112812   3.339   2.558   6.391
 4023SOL    HW212813   3.433   2.656   6.325
 4024SOL     OW12814   2.316   3.140   7.321
 4024SOL    HW112815   2.290   3.141   7.229
 4024SOL    HW212816   2.234   3.135   7.369
 4025SOL     OW12817   2.984   3.640   5.815
 4025SOL    HW112818   2.910   3.599   5.861
 4025SOL    HW212819   3.008   3.577   5.747
 4026SOL     OW12820   2.052   2.135   7.095
 4026SOL    HW112821   1.969   2.183   7.093
 4026SOL    HW212822   2.033   2.054   7.141
 4027SOL     OW12823   3.490   3.243   5.676
 4027SOL    HW112824   3.449   3.328   5.659
 4027SOL    HW212825   3.422   3.179   5.655
 4028SOL     OW12826   2.327   3.599   5.906
 4028SOL    HW112827   2.370   3.656   5.970
 4028SOL    HW212828   2.398   3.567   5.851
 4029SOL     OW12829   3.263   1.967   6.021
 4029SOL    HW112830   3.255   1.943   5.928
 4029SOL    HW212831   3.357   1.976   6.035
 4030SOL     OW12832   2.118   3.653   6.816
 4030SOL    HW112833   2.169   3.586   6.862
 4030SOL    HW212834   2.109   3.620   6.727
 4031SOL     OW12835   2.798   3.564   6.483
 4031SOL    HW112836   2.871   3.511   6.513
 4031SOL    HW212837   2.756   3.512   6.415
 4032SOL     OW12838   2.181   2.563   6.035
 4032SOL    HW112839   2.210   2.472   6.031
 4032SOL    HW212840   2.093   2.560   6.071
 4033SOL     OW12841   3.394   2.086   7.311
 4033SOL    HW112842   3.404   2.107   7.404
 4033SOL    HW212843   3.324   2.022   7.308
 4034SOL     OW12844   2.493   1.986   5.693
 4034SOL    HW112845   2.564   1.924   5.706
 4034SOL    HW212846   2.446   1.952   5.616
 4035SOL     OW12847   2.618   2.115   7.335
 4035SOL    HW112848   2.702   2.069   7.335
 4035SOL    HW212849   2.608   2.148   7.424
 4036SOL     OW12850   2.739   3.391   6.779
 4036SOL    HW112851   2.722   3.354   6.693
 4036SOL    HW212852   2.802   3.331   6.819
 4037SOL     OW12853   3.248   2.437   7.003
 4037SOL    HW112854   3.262   2.410   7.094
 4037SOL    HW212855   3.262   2.531   7.003
 4038SOL     OW12856   2.680   3.271   6.524
 4038SOL    HW112857   2.764   3.249   6.483
 4038SOL    HW212858   2.617   3.267   6.453
 4039SOL     OW12859   2.806   2.359   6.487
 4039SOL    HW112860   2.796   2.345   6.393
 4039SOL    HW212861   2.832   2.273   6.521
 4040SOL     OW12862   2.412   1.923   6.089
 4040SOL    HW112863   2.331   1.923   6.140
 4040SOL    HW212864   2.406   2.000   6.033
 4041SOL     OW12865   3.290   3.062   5.627
 4041SOL    HW112866   3.321   2.987   5.678
 4041SOL    HW212867   3.205   3.084   5.665
 4042SOL     OW12868   2.152   1.910   5.771
 4042SOL    HW112869   2.207   1.971   5.722
 4042SOL    HW212870   2.213   1.849   5.811
 4043SOL     OW12871   2.801   2.101   6.043
 4043SOL    HW112872   2.772   2.133   5.958
 4043SOL    HW212873   2.896   2.117   6.043
 4044SOL     OW12874   2.984   2.471   7.056
 4044SOL    HW112875   2.924   2.403   7.025
 4044SOL    HW212876   3.070   2.444   7.024
 4045SOL     OW12877   3.088   3.429   6.379
 4045SOL    HW112878   3.100   3.497   6.313
 4045SOL    HW212879   3.153   3.449   6.447
 4046SOL     OW12880   2.331   3.022   6.317
 4046SOL    HW112881   2.262   2.996   6.379
 4046SOL    HW212882   2.297   2.996   6.231
 4047SOL     OW12883   3.129   3.655   6.196
 4047SOL    HW112884   3.176   3.716   6.140
 4047SOL    HW212885   3.062   3.708   6.238
 4048SOL     OW12886   1.932   2.421   6.985
 4048SOL    HW112887   2.023   2.415   6.955
 4048SOL    HW212888   1.932   2.492   7.049
 4049SOL     OW12889   2.412   2.073   6.737
 4049SOL    HW112890   2.469   2.030   6.800
 4049SOL    HW212891   2.327   2.078   6.781
 4050SOL     OW12892   2.775   2.299   6.231
 4050SOL    HW112893   2.685   2.329   6.219
 4050SOL    HW212894   2.785   2.226   6.170
 4051SOL     OW12895   2.879   1.913   6.335
 4051SOL    HW112896   2.820   1.907   6.260
 4051SOL    HW212897   2.855   1.838   6.390
 4052SOL     OW12898   3.298   3.023   6.441
 4052SOL    HW112899   3.237   2.949   6.433
 4052SOL    HW212900   3.331   3.036   6.352
 4053SOL     OW12901   3.329   2.468   6.559
 4053SOL    HW112902   3.273   2.391   6.561
 4053SOL    HW212903   3.387   2.458   6.635
 4054SOL     OW12904   3.705   2.676   5.970
 4054SOL    HW112905   3.762   2.626   6.028
 4054SOL    HW212906   3.678   2.614   5.903
 4055SOL     OW12907   2.353   3.279   5.741
 4055SOL    HW112908   2.277   3.253   5.793
 4055SOL    HW212909   2.343   3.232   5.658
 4056SOL     OW12910   3.532   3.126   6.232
 4056SOL    HW112911   3.627   3.127   6.245
 4056SOL    HW212912   3.504   3.216   6.252
 4057SOL     OW12913   3.255   2.424   5.654
 4057SOL    HW112914   3.191   2.406   5.724
 4057SOL    HW212915   3.338   2.394   5.690
 4058SOL     OW12916   2.391   2.121   5.907
 4058SOL    HW112917   2.426   2.072   5.833
 4058SOL    HW212918   2.406   2.213   5.884
 4059SOL     OW12919   3.613   3.102   7.155
 4059SOL    HW112920   3.701   3.064   7.150
 4059SOL    HW212921   3.628   3.192   7.184
 4060SOL     OW12922   2.923   3.219   6.920
 4060SOL    HW112923   2.843   3.192   6.965
 4060SOL    HW212924   2.993   3.172   6.964
 4061SOL     OW12925   3.471   3.489   7.240
 4061SOL    HW112926   3.464   3.522   7.150
 4061SOL    HW212927   3.553   3.440   7.241
 4062SOL     OW12928   3.004   3.078   6.695
 4062SOL    HW112929   2.945   3.110   6.763
 4062SOL    HW212930   2.956   3.091   6.614
 4063SOL     OW12931   3.489   2.960   6.662
 4063SOL    HW112932   3.484   3.021   6.736
 4063SOL    HW212933   3.409   2.977   6.612
 4064SOL     OW12934   2.778   1.958   6.980
 4064SOL    HW112935   2.801   1.939   6.889
 4064SOL    HW212936   2.857   1.997   7.017
 4065SOL     OW12937   2.901   3.028   7.281
 4065SOL    HW112938   2.817   3.063   7.310
 4065SOL    HW212939   2.886   2.999   7.191
 4066SOL     OW12940   2.251   2.677   6.848
 4066SOL    HW112941   2.338   2.693   6.886
 4066SOL    HW212942   2.231   2.587   6.873
 4067SOL     OW12943   3.131   2.231   6.862
 4067SOL    HW112944   3.174   2.309   6.899
 4067SOL    HW212945   3.043   2.260   6.841
 4068SOL     OW12946   1.934   3.436   6.941
 4068SOL    HW112947   1.906   3.508   6.884
 4068SOL    HW212948   2.030   3.437   6.934
 4069SOL     OW12949   2.218   2.970   6.072
 4069SOL    HW112950   2.209   3.044   6.013
 4069SOL    HW212951   2.203   2.893   6.017
 4070SOL     OW12952   3.107   3.212   5.975
 4070SOL    HW112953   3.164   3.283   6.004
 4070SOL    HW212954   3.021   3.235   6.009
 4071SOL     OW12955   3.147   3.324   6.732
 4071SOL    HW112956   3.201   3.324   6.811
 4071SOL    HW212957   3.090   3.248   6.742
 4072SOL     OW12958   3.441   2.483   6.061
 4072SOL    HW112959   3.403   2.527   6.137
 4072SOL    HW212960   3.486   2.552   6.012
 4073SOL     OW12961   2.207   3.393   6.899
 4073SOL    HW112962   2.195   3.350   6.814
 4073SOL    HW212963   2.302   3.405   6.907
 4074SOL     OW12964   3.465   2.643   7.271
 4074SOL    HW112965   3.377   2.681   7.262
 4074SOL    HW212966   3.516   2.684   7.202
 4075SOL     OW12967   2.861   1.989   7.341
 4075SOL    HW112968   2.918   2.062   7.315
 4075SOL    HW212969   2.910   1.911   7.315
 4076SOL     OW12970   2.359   1.898   7.334
 4076SOL    HW112971   2.314   1.845   7.268
 4076SOL    HW212972   2.301   1.974   7.347
 4077SOL     OW12973   3.233   2.723   6.612
 4077SOL    HW112974   3.164   2.718   6.546
 4077SOL    HW212975   3.273   2.635   6.612
 4078SOL     OW12976   3.077   2.380   5.860
 4078SOL    HW112977   3.077   2.299   5.911
 4078SOL    HW212978   3.059   2.449   5.924
 4079SOL     OW12979   2.153   2.058   6.834
 4079SOL    HW112980   2.116   2.089   6.917
 4079SOL    HW212981   2.138   1.964   6.835
 4080SOL     OW12982   1.906   3.175   6.861
 4080SOL    HW112983   1.939   3.120   6.932
 4080SOL    HW212984   1.913   3.264   6.895
 4081SOL     OW12985   3.599   2.822   7.440
 4081SOL    HW112986   3.552   2.758   7.386
 4081SOL    HW212987   3.542   2.837   7.515
 4082SOL     OW12988   2.166   1.928   6.211
 4082SOL    HW112989   2.144   2.017   6.236
 4082SOL    HW212990   2.175   1.881   6.294
 4083SOL     OW12991   3.480   2.236   5.950
 4083SOL    HW112992   3.507   2.173   6.017
 4083SOL    HW212993   3.456   2.315   6.000
 4084SOL     OW12994   2.839   3.430   7.303
 4084SOL    HW112995   2.823   3.474   7.219
 4084SOL    HW212996   2.902   3.361   7.282
 4085SOL     OW12997   3.716   3.366   7.191
 4085SOL    HW112998   3.735   3.392   7.101
 4085SOL    HW212999   3.797   3.382   7.239
 4086SOL     OW13000   2.222   2.762   7.365
 4086SOL    HW113001   2.277   2.803   7.432
 4086SOL    HW213002   2.273   2.686   7.337
 4087SOL     OW13003   3.390   2.134   5.713
 4087SOL    HW113004   3.325   2.069   5.740
 4087SOL    HW213005   3.424   2.170   5.795
 4088SOL     OW13006   3.188   2.688   5.638
 4088SOL    HW113007   3.217   2.597   5.625
 4088SOL    HW213008   3.200   2.729   5.552
 4089SOL     OW13009   2.927   3.206   6.431
 4089SOL    HW113010   2.955   3.131   6.380
 4089SOL    HW213011   2.988   3.276   6.408
 4090SOL     OW13012   2.171   2.678   6.532
 4090SOL    HW113013   2.265   2.693   6.517
 4090SOL    HW213014   2.167   2.593   6.576
 4091SOL     OW13015   2.165   2.384   6.585
 4091SOL    HW113016   2.134   2.293   6.583
 4091SOL    HW213017   2.233   2.387   6.517
 4092SOL     OW13018   3.002   2.227   7.268
 4092SOL    HW113019   2.952   2.278   7.332
 4092SOL    HW213020   3.084   2.275   7.258
 4093SOL     OW13021   3.023   2.058   7.054
 4093SOL    HW113022   3.014   2.120   7.127
 4093SOL    HW213023   3.063   2.109   6.984
 4094SOL     OW13024   1.867   3.182   5.782
 4094SOL    HW113025   1.780   3.196   5.745
 4094SOL    HW213026   1.865   3.092   5.815
 4095SOL     OW13027   1.952   3.648   6.525
 4095SOL    HW113028   1.922   3.569   6.480
 4095SOL    HW213029   2.042   3.660   6.494
 4096SOL     OW13030   2.357   3.435   6.490
 4096SOL    HW113031   2.426   3.497   6.515
 4096SOL    HW213032   2.401   3.371   6.435
 4097SOL     OW13033   1.895   2.406   6.703
 4097SOL    HW113034   1.975   2.400   6.650
 4097SOL    HW213035   1.926   2.411   6.793
 4098SOL     OW13036   2.055   2.379   7.312
 4098SOL    HW113037   2.104   2.338   7.240
 4098SOL    HW213038   2.012   2.454   7.271
 4099SOL     OW13039   3.233   2.800   7.246
 4099SOL    HW113040   3.260   2.892   7.241
 4099SOL    HW213041   3.233   2.771   7.154
 4100SOL     OW13042   3.503   2.466   6.770
 4100SOL    HW113043   3.489   2.408   6.846
 4100SOL    HW213044   3.590   2.442   6.738
 4101SOL     OW13045   2.102   3.413   7.312
 4101SOL    HW113046   2.081   3.478   7.379
 4101SOL    HW213047   2.106   3.330   7.360
 4102SOL     OW13048   2.784   3.543   7.056
 4102SOL    HW113049   2.763   3.503   6.971
 4102SOL    HW213050   2.780   3.637   7.040
 4103SOL     OW13051   2.002   3.007   7.061
 4103SOL    HW113052   2.006   2.955   7.142
 4103SOL    HW213053   2.015   2.942   6.991
 4104SOL     OW13054   3.192   2.910   6.808
 4104SOL    HW113055   3.215   2.846   6.740
 4104SOL    HW213056   3.128   2.968   6.767
 4105SOL     OW13057   3.188   2.721   5.902
 4105SOL    HW113058   3.099   2.718   5.938
 4105SOL    HW213059   3.175   2.704   5.808
 4106SOL     OW13060   3.636   3.604   6.738
 4106SOL    HW113061   3.696   3.630   6.668
 4106SOL    HW213062   3.611   3.514   6.715
 4107SOL     OW13063   3.102   3.596   6.694
 4107SOL    HW113064   3.185   3.617   6.652
 4107SOL    HW213065   3.109   3.503   6.716
 4108SOL     OW13066   1.946   3.130   6.597
 4108SOL    HW113067   1.931   3.143   6.691
 4108SOL    HW213068   1.875   3.073   6.568
 4109SOL     OW13069   2.539   3.530   7.318
 4109SOL    HW113070   2.486   3.609   7.312
 4109SOL    HW213071   2.608   3.542   7.254
 4110SOL     OW13072   3.582   2.011   6.094
 4110SOL    HW113073   3.654   1.996   6.033
 4110SOL    HW213074   3.566   1.926   6.134
 4111SOL     OW13075   3.252   3.429   6.072
 4111SOL    HW113076   3.313   3.463   6.005
 4111SOL    HW213077   3.204   3.507   6.101
 4112SOL     OW13078   1.999   3.657   7.430
 4112SOL    HW113079   1.948   3.593   7.479
 4112SOL    HW213080   2.047   3.706   7.497
 4113SOL     OW13081   3.168   2.790   6.278
 4113SOL    HW113082   3.238   2.726   6.264
 4113SOL    HW213083   3.187   2.860   6.216
 4114SOL     OW13084   2.675   3.173   7.012
 4114SOL    HW113085   2.632   3.210   7.089
 4114SOL    HW213086   2.603   3.143   6.956
 4115SOL     OW13087   2.531   3.485   5.740
 4115SOL    HW113088   2.543   3.496   5.646
 4115SOL    HW213089   2.477   3.406   5.748
 4116SOL     OW13090   3.486   3.589   6.976
 4116SOL    HW113091   3.537   3.596   6.895
 4116SOL    HW213092   3.471   3.680   7.003
 4117SOL     OW13093   3.703   2.034   6.552
 4117SOL    HW113094   3.732   1.947   6.526
 4117SOL    HW213095   3.617   2.044   6.513
 4118SOL     OW13096   2.119   2.180   6.312
 4118SOL    HW113097   2.032   2.209   6.288
 4118SOL    HW213098   2.113   2.160   6.405
 4119SOL     OW13099   3.069   3.465   5.618
 4119SOL    HW113100   3.061   3.372   5.641
 4119SOL    HW213101   3.005   3.479   5.549
 4120SOL     OW13102   3.352   3.488   5.629
 4120SOL    HW113103   3.258   3.481   5.614
 4120SOL    HW213104   3.391   3.495   5.542
 4121SOL     OW13105   2.227   3.167   7.074
 4121SOL    HW113106   2.216   3.242   7.016
 4121SOL    HW213107   2.149   3.113   7.059
 4122SOL     OW13108   3.472   3.144   6.867
 4122SOL    HW113109   3.531   3.131   6.941
 4122SOL    HW213110   3.413   3.213   6.896
 4123SOL     OW13111   2.890   2.097   6.553
 4123SOL    HW113112   2.886   2.049   6.471
 4123SOL    HW213113   2.881   2.031   6.621
 4124SOL     OW13114   2.464   3.355   6.068
 4124SOL    HW113115   2.512   3.308   6.000
 4124SOL    HW213116   2.390   3.396   6.022
 4125SOL     OW13117   3.587   2.252   6.968
 4125SOL    HW113118   3.658   2.317   6.965
 4125SOL    HW213119   3.617   2.182   6.910
 4126SOL     OW13120   2.122   3.208   5.874
 4126SOL    HW113121   2.030   3.203   5.851
 4126SOL    HW213122   2.124   3.245   5.962
 4127SOL     OW13123   1.976   2.889   7.309
 4127SOL    HW113124   1.900   2.863   7.361
 4127SOL    HW213125   2.050   2.846   7.351
 4128SOL     OW13126   2.534   2.059   7.079
 4128SOL    HW113127   2.619   2.037   7.041
 4128SOL    HW213128   2.554   2.081   7.170
 4129SOL     OW13129   1.939   2.195   5.621
 4129SOL    HW113130   1.854   2.175   5.582
 4129SOL    HW213131   1.973   2.268   5.570
 4130SOL     OW13132   3.291   2.721   6.988
 4130SOL    HW113133   3.242   2.782   6.933
 4130SOL    HW213134   3.380   2.723   6.952
 4131SOL     OW13135   1.928   2.018   5.894
 4131SOL    HW113136   1.914   2.097   5.843
 4131SOL    HW213137   2.013   1.985   5.864
 4132SOL     OW13138   3.037   3.193   5.701
 4132SOL    HW113139   2.942   3.189   5.701
 4132SOL    HW213140   3.061   3.196   5.794
 4133SOL     OW13141   3.346   3.640   6.566
 4133SOL    HW113142   3.368   3.702   6.497
 4133SOL    HW213143   3.429   3.620   6.608
 4134SOL     OW13144   3.335   3.057   7.219
 4134SOL    HW113145   3.323   3.074   7.313
 4134SOL    HW213146   3.428   3.075   7.204
 4135SOL     OW13147   2.238   3.602   7.151
 4135SOL    HW113148   2.154   3.645   7.137
 4135SOL    HW213149   2.216   3.518   7.192
 4136SOL     OW13150   3.529   2.742   6.842
 4136SOL    HW113151   3.524   2.656   6.800
 4136SOL    HW213152   3.519   2.805   6.770
 4137SOL     OW13153   3.076   2.173   6.045
 4137SOL    HW113154   3.139   2.102   6.035
 4137SOL    HW213155   3.106   2.221   6.123
 4138SOL     OW13156   3.621   2.225   7.239
 4138SOL    HW113157   3.607   2.241   7.146
 4138SOL    HW213158   3.549   2.168   7.266
 4139SOL     OW13159   3.608   2.795   7.098
 4139SOL    HW113160   3.602   2.890   7.111
 4139SOL    HW213161   3.592   2.782   7.005
 4140SOL     OW13162   2.758   3.231   5.635
 4140SOL    HW113163   2.694   3.257   5.702
 4140SOL    HW213164   2.759   3.304   5.573
 4141SOL     OW13165   2.522   3.651   6.527
 4141SOL    HW113166   2.505   3.743   6.506
 4141SOL    HW213167   2.618   3.643   6.522
 4142SOL     OW13168   3.714   3.415   6.430
 4142SOL    HW113169   3.635   3.404   6.377
 4142SOL    HW213170   3.706   3.350   6.499
 4143SOL     OW13171   2.081   3.165   7.443
 4143SOL    HW113172   2.014   3.103   7.413
 4143SOL    HW213173   2.062   3.177   7.536
 4144SOL     OW13174   1.947   3.094   6.253
 4144SOL    HW113175   1.956   3.048   6.336
 4144SOL    HW213176   2.014   3.056   6.197
 4145SOL     OW13177   2.536   3.271   7.217
 4145SOL    HW113178   2.453   3.232   7.245
 4145SOL    HW213179   2.535   3.359   7.256
 4146SOL     OW13180   3.676   2.045   6.823
 4146SOL    HW113181   3.683   1.950   6.836
 4146SOL    HW213182   3.685   2.057   6.729
 4147SOL     OW13183   2.235   2.282   6.085
 4147SOL    HW113184   2.276   2.207   6.042
 4147SOL    HW213185   2.202   2.247   6.168
 4148SOL     OW13186   3.561   3.350   6.680
 4148SOL    HW113187   3.481   3.328   6.633
 4148SOL    HW213188   3.571   3.281   6.746
 4149SOL     OW13189   2.176   2.404   6.874
 4149SOL    HW113190   2.224   2.339   6.926
 4149SOL    HW213191   2.188   2.376   6.784
 4150SOL     OW13192   2.692   3.441   6.259
 4150SOL    HW113193   2.672   3.499   6.186
 4150SOL    HW213194   2.617   3.382   6.265
 4151SOL     OW13195   3.296   2.083   6.706
 4151SOL    HW113196   3.319   2.003   6.752
 4151SOL    HW213197   3.244   2.133   6.768
 4152SOL     OW13198   2.870   1.877   6.727
 4152SOL    HW113199   2.817   1.809   6.684
 4152SOL    HW213200   2.958   1.840   6.729
 4153SOL     OW13201   2.633   3.207   5.903
 4153SOL    HW113202   2.608   3.116   5.886
 4153SOL    HW213203   2.718   3.201   5.947
 4154SOL     OW13204   2.480   3.422   6.870
 4154SOL    HW113205   2.484   3.504   6.919
 4154SOL    HW213206   2.569   3.411   6.836
 4155SOL     OW13207   3.215   1.915   5.752
 4155SOL    HW113208   3.246   1.848   5.691
 4155SOL    HW213209   3.127   1.886   5.778
 4156SOL     OW13210   3.180   2.301   6.265
 4156SOL    HW113211   3.142   2.388   6.279
 4156SOL    HW213212   3.170   2.258   6.350
 4157SOL     OW13213   3.448   2.061   6.465
 4157SOL    HW113214   3.389   2.083   6.538
 4157SOL    HW213215   3.448   2.139   6.410
 4158SOL     OW13216   1.907   2.930   5.892
 4158SOL    HW113217   1.999   2.918   5.869
 4158SOL    HW213218   1.876   2.843   5.915
 4159SOL     OW13219   2.750   3.516   5.926
 4159SOL    HW113220   2.676   3.499   5.868
 4159SOL    HW213221   2.721   3.590   5.980
 4160SOL     OW13222   2.089   2.505   7.564
 4160SOL    HW113223   2.003   2.492   7.605
 4160SOL    HW213224   2.082   2.464   7.478
 4161SOL     OW13225   3.629   2.459   7.679
 4161SOL    HW113226   3.609   2.455   7.585
 4161SOL    HW213227   3.590   2.380   7.715
 4162SOL     OW13228   2.082   3.582   7.919
 4162SOL    HW113229   2.110   3.618   8.002
 4162SOL    HW213230   2.161   3.579   7.866
 4163SOL     OW13231   2.078   3.302   7.990
 4163SOL    HW113232   2.058   3.396   7.990
 4163SOL    HW213233   2.026   3.267   8.063
 4164SOL     OW13234   2.410   2.859   7.563
 4164SOL    HW113235   2.451   2.927   7.508
 4164SOL    HW213236   2.483   2.813   7.604
 4165SOL     OW13237   3.700   3.620   7.797
 4165SOL    HW113238   3.772   3.590   7.852
 4165SOL    HW213239   3.724   3.708   7.771
 4166SOL     OW13240   1.893   3.460   7.578
 4166SOL    HW113241   1.877   3.367   7.593
 4166SOL    HW213242   1.866   3.503   7.659
 4167SOL     OW13243   3.542   2.725   8.034
 4167SOL    HW113244   3.622   2.736   0.006
 4167SOL    HW213245   3.530   2.809   7.989
 4168SOL     OW13246   3.518   2.958   7.879
 4168SOL    HW113247   3.605   2.986   7.851
 4168SOL    HW213248   3.486   3.032   7.931
 4169SOL     OW13249   2.666   1.859   7.942
 4169SOL    HW113250   2.713   1.940   7.920
 4169SOL    HW213251   2.574   1.886   7.947
 4170SOL     OW13252   3.400   2.857   7.650
 4170SOL    HW113253   3.336   2.794   7.684
 4170SOL    HW213254   3.442   2.892   7.728
 4171SOL     OW13255   3.436   3.534   7.757
 4171SOL    HW113256   3.527   3.561   7.766
 4171SOL    HW213257   3.423   3.521   7.663
 4172SOL     OW13258   1.916   2.723   0.084
 4172SOL    HW113259   1.985   2.659   0.101
 4172SOL    HW213260   1.922   2.785   0.157
 4173SOL     OW13261   2.739   2.188   7.644
 4173SOL    HW113262   2.758   2.271   7.600
 4173SOL    HW213263   2.799   2.125   7.604
 4174SOL     OW13264   2.169   2.817   7.691
 4174SOL    HW113265   2.254   2.834   7.648
 4174SOL    HW213266   2.148   2.727   7.667
 4175SOL     OW13267   2.986   3.640   7.685
 4175SOL    HW113268   2.909   3.599   7.723
 4175SOL    HW213269   3.012   3.581   7.614
 4176SOL     OW13270   3.489   3.243   7.535
 4176SOL    HW113271   3.448   3.328   7.521
 4176SOL    HW213272   3.419   3.179   7.519
 4177SOL     OW13273   2.328   3.601   7.770
 4177SOL    HW113274   2.378   3.653   7.832
 4177SOL    HW213275   2.394   3.563   7.712
 4178SOL     OW13276   3.280   1.996   7.864
 4178SOL    HW113277   3.267   1.961   7.776
 4178SOL    HW213278   3.374   1.995   7.877
 4179SOL     OW13279   2.478   1.973   7.570
 4179SOL    HW113280   2.567   1.937   7.571
 4179SOL    HW213281   2.445   1.951   7.482
 4180SOL     OW13282   2.393   1.933   7.964
 4180SOL    HW113283   2.305   1.932   8.000
 4180SOL    HW213284   2.391   2.001   7.897
 4181SOL     OW13285   3.291   3.058   7.493
 4181SOL    HW113286   3.328   2.985   7.542
 4181SOL    HW213287   3.201   3.066   7.525
 4182SOL     OW13288   2.155   1.911   7.632
 4182SOL    HW113289   2.213   1.968   7.582
 4182SOL    HW213290   2.213   1.846   7.672
 4183SOL     OW13291   2.801   2.092   7.907
 4183SOL    HW113292   2.766   2.141   7.832
 4183SOL    HW213293   2.892   2.123   7.915
 4184SOL     OW13294   2.299   3.041   0.084
 4184SOL    HW113295   2.221   3.031   0.139
 4184SOL    HW213296   2.271   3.014   8.077
 4185SOL     OW13297   3.153   3.675   8.014
 4185SOL    HW113298   3.190   3.743   7.958
 4185SOL    HW213299   3.066   3.707   8.036
 4186SOL     OW13300   2.899   2.373   7.480
 4186SOL    HW113301   2.853   2.453   7.457
 4186SOL    HW213302   2.955   2.397   7.553
 4187SOL     OW13303   3.737   2.676   7.803
 4187SOL    HW113304   3.719   2.655   7.894
 4187SOL    HW213305   3.697   2.604   7.753
 4188SOL     OW13306   2.352   3.275   7.605
 4188SOL    HW113307   2.275   3.250   7.657
 4188SOL    HW213308   2.338   3.234   7.520
 4189SOL     OW13309   3.256   2.434   7.520
 4189SOL    HW113310   3.195   2.411   7.590
 4189SOL    HW213311   3.340   2.401   7.549
 4190SOL     OW13312   2.384   2.119   7.774
 4190SOL    HW113313   2.416   2.063   7.703
 4190SOL    HW213314   2.407   2.208   7.748
 4191SOL     OW13315   2.231   2.966   7.916
 4191SOL    HW113316   2.201   3.042   7.867
 4191SOL    HW213317   2.212   2.892   7.859
 4192SOL     OW13318   3.086   3.215   7.826
 4192SOL    HW113319   3.144   3.287   7.849
 4192SOL    HW213320   3.056   3.180   7.910
 4193SOL     OW13321   3.450   2.488   7.921
 4193SOL    HW113322   3.443   2.549   7.994
 4193SOL    HW213323   3.483   2.540   7.848
 4194SOL     OW13324   3.064   2.390   7.715
 4194SOL    HW113325   3.062   2.308   7.764
 4194SOL    HW213326   3.055   2.458   7.782
 4195SOL     OW13327   3.482   2.242   7.812
 4195SOL    HW113328   3.504   2.175   7.877
 4195SOL    HW213329   3.458   2.319   7.864
 4196SOL     OW13330   3.390   2.137   7.575
 4196SOL    HW113331   3.325   2.072   7.600
 4196SOL    HW213332   3.423   2.172   7.658
 4197SOL     OW13333   3.155   2.689   7.482
 4197SOL    HW113334   3.191   2.601   7.484
 4197SOL    HW213335   3.182   2.724   7.397
 4198SOL     OW13336   1.868   3.186   7.640
 4198SOL    HW113337   1.781   3.198   7.603
 4198SOL    HW213338   1.867   3.096   7.674
 4199SOL     OW13339   3.193   2.700   7.753
 4199SOL    HW113340   3.110   2.724   7.795
 4199SOL    HW213341   3.170   2.692   7.660
 4200SOL     OW13342   3.575   2.011   7.945
 4200SOL    HW113343   3.651   2.005   7.887
 4200SOL    HW213344   3.579   1.932   7.999
 4201SOL     OW13345   3.223   3.440   7.895
 4201SOL    HW113346   3.299   3.459   7.839
 4201SOL    HW213347   3.193   3.525   7.925
 4202SOL     OW13348   2.526   3.484   7.603
 4202SOL    HW113349   2.540   3.496   7.509
 4202SOL    HW213350   2.475   3.403   7.610
 4203SOL     OW13351   3.074   3.481   7.479
 4203SOL    HW113352   3.059   3.392   7.511
 4203SOL    HW213353   3.009   3.493   7.410
 4204SOL     OW13354   3.355   3.490   7.489
 4204SOL    HW113355   3.260   3.483   7.476
 4204SOL    HW213356   3.391   3.495   7.400
 4205SOL     OW13357   2.475   3.379   7.936
 4205SOL    HW113358   2.519   3.320   7.874
 4205SOL    HW213359   2.392   3.401   7.893
 4206SOL     OW13360   2.121   3.208   7.743
 4206SOL    HW113361   2.029   3.204   7.717
 4206SOL    HW213362   2.119   3.244   7.832
 4207SOL     OW13363   1.941   2.193   7.482
 4207SOL    HW113364   1.853   2.175   7.450
 4207SOL    HW213365   1.970   2.269   7.431
 4208SOL     OW13366   1.929   2.016   7.756
 4208SOL    HW113367   1.915   2.095   7.703
 4208SOL    HW213368   2.013   1.982   7.724
 4209SOL     OW13369   3.038   3.225   7.561
 4209SOL    HW113370   2.961   3.168   7.556
 4209SOL    HW213371   3.065   3.222   7.653
 4210SOL     OW13372   3.074   2.181   7.901
 4210SOL    HW113373   3.149   2.122   7.893
 4210SOL    HW213374   3.088   2.228   7.983
 4211SOL     OW13375   2.728   3.230   7.477
 4211SOL    HW113376   2.698   3.256   7.563
 4211SOL    HW213377   2.749   3.312   7.432
 4212SOL     OW13378   3.027   2.936   7.526
 4212SOL    HW113379   2.995   2.962   7.440
 4212SOL    HW213380   3.076   2.856   7.510
 4213SOL     OW13381   2.211   2.244   7.987
 4213SOL    HW113382   2.263   2.211   7.914
 4213SOL    HW213383   2.265   2.227   8.064
 4214SOL     OW13384   2.636   3.207   7.761
 4214SOL    HW113385   2.591   3.122   7.764
 4214SOL    HW213386   2.711   3.196   7.820
 4215SOL     OW13387   3.216   1.914   7.611
 4215SOL    HW113388   3.246   1.846   7.551
 4215SOL    HW213389   3.129   1.886   7.638
 4216SOL     OW13390   1.915   2.940   7.748
 4216SOL    HW113391   2.008   2.925   7.729
 4216SOL    HW213392   1.879   2.852   7.765
 4217SOL     OW13393   2.756   3.517   7.779
 4217SOL    HW113394   2.679   3.490   7.727
 4217SOL    HW213395   2.721   3.578   7.844
 4218SOL     OW13396   2.077   4.346   0.123
 4218SOL    HW113397   1.998   4.311   0.163
 4218SOL    HW213398   2.099   4.284   0.054
 4219SOL     OW13399   2.087   4.006   0.992
 4219SOL    HW113400   2.115   3.971   1.077
 4219SOL    HW213401   1.997   3.974   0.982
 4220SOL     OW13402   1.864   4.108   0.638
 4220SOL    HW113403   1.782   4.134   0.680
 4220SOL    HW213404   1.842   4.028   0.590
 4221SOL     OW13405   2.429   5.009   1.182
 4221SOL    HW113406   2.345   5.006   1.138
 4221SOL    HW213407   2.441   5.100   1.206
 4222SOL     OW13408   3.420   5.233   0.687
 4222SOL    HW113409   3.398   5.230   0.781
 4222SOL    HW213410   3.341   5.269   0.646
 4223SOL     OW13411   2.993   4.422   0.700
 4223SOL    HW113412   3.042   4.503   0.686
 4223SOL    HW213413   2.946   4.436   0.782
 4224SOL     OW13414   3.633   4.323   0.232
 4224SOL    HW113415   3.592   4.327   0.146
 4224SOL    HW213416   3.593   4.247   0.274
 4225SOL     OW13417   2.615   4.866   1.040
 4225SOL    HW113418   2.549   4.899   1.101
 4225SOL    HW213419   2.646   4.944   0.994
 4226SOL     OW13420   2.732   4.494   1.823
 4226SOL    HW113421   2.718   4.565   1.885
 4226SOL    HW213422   2.755   4.538   1.741
 4227SOL     OW13423   2.545   4.722   0.651
 4227SOL    HW113424   2.612   4.714   0.719
 4227SOL    HW213425   2.478   4.778   0.689
 4228SOL     OW13426   2.571   4.871   1.814
 4228SOL    HW113427   2.619   4.950   1.838
 4228SOL    HW213428   2.489   4.902   1.777
 4229SOL     OW13429   2.199   5.147   1.059
 4229SOL    HW113430   2.121   5.102   1.027
 4229SOL    HW213431   2.235   5.189   0.981
 4230SOL     OW13432   3.316   5.222   1.348
 4230SOL    HW113433   3.371   5.293   1.379
 4230SOL    HW213434   3.249   5.213   1.415
 4231SOL     OW13435   2.312   4.121   1.484
 4231SOL    HW113436   2.387   4.062   1.491
 4231SOL    HW213437   2.236   4.065   1.499
 4232SOL     OW13438   3.472   4.170   0.742
 4232SOL    HW113439   3.398   4.191   0.686
 4232SOL    HW213440   3.484   4.247   0.797
 4233SOL     OW13441   2.995   5.073   1.703
 4233SOL    HW113442   3.024   5.075   1.794
 4233SOL    HW213443   2.942   4.994   1.696
 4234SOL     OW13444   2.069   5.156   0.515
 4234SOL    HW113445   2.099   5.236   0.558
 4234SOL    HW213446   2.019   5.110   0.582
 4235SOL     OW13447   2.123   4.811   0.892
 4235SOL    HW113448   2.120   4.723   0.931
 4235SOL    HW213449   2.065   4.864   0.948
 4236SOL     OW13450   2.488   4.683   0.135
 4236SOL    HW113451   2.435   4.758   0.111
 4236SOL    HW213452   2.540   4.714   0.210
 4237SOL     OW13453   3.457   3.849   1.467
 4237SOL    HW113454   3.472   3.930   1.417
 4237SOL    HW213455   3.441   3.878   1.556
 4238SOL     OW13456   1.978   4.375   0.563
 4238SOL    HW113457   1.947   4.287   0.584
 4238SOL    HW213458   1.969   4.424   0.645
 4239SOL     OW13459   1.836   0.022   0.093
 4239SOL    HW113460   1.851   5.231   0.119
 4239SOL    HW213461   1.867   0.074   0.168
 4240SOL     OW13462   3.548   4.641   0.645
 4240SOL    HW113463   3.631   4.598   0.622
 4240SOL    HW213464   3.527   4.694   0.567
 4241SOL     OW13465   3.509   4.828   0.434
 4241SOL    HW113466   3.591   4.838   0.386
 4241SOL    HW213467   3.516   4.890   0.507
 4242SOL     OW13468   1.986   4.467   1.585
 4242SOL    HW113469   2.077   4.495   1.590
 4242SOL    HW213470   1.936   4.548   1.592
 4243SOL     OW13471   2.485   5.100   0.740
 4243SOL    HW113472   2.431   5.021   0.736
 4243SOL    HW213473   2.468   5.145   0.657
 4244SOL     OW13474   3.150   4.952   1.426
 4244SOL    HW113475   3.184   4.887   1.364
 4244SOL    HW213476   3.211   4.950   1.499
 4245SOL     OW13477   2.679   3.728   0.511
 4245SOL    HW113478   2.719   3.812   0.488
 4245SOL    HW213479   2.586   3.746   0.518
 4246SOL     OW13480   2.051   4.688   1.272
 4246SOL    HW113481   2.136   4.646   1.258
 4246SOL    HW213482   1.990   4.635   1.221
 4247SOL     OW13483   3.368   4.737   0.212
 4247SOL    HW113484   3.307   4.671   0.246
 4247SOL    HW213485   3.422   4.760   0.287
 4248SOL     OW13486   2.198   3.973   1.817
 4248SOL    HW113487   2.240   4.058   1.834
 4248SOL    HW213488   2.107   3.986   1.845
 4249SOL     OW13489   3.341   5.148   0.962
 4249SOL    HW113490   3.267   5.160   1.022
 4249SOL    HW213491   3.328   5.059   0.927
 4250SOL     OW13492   2.461   4.436   0.283
 4250SOL    HW113493   2.478   4.516   0.233
 4250SOL    HW213494   2.396   4.463   0.349
 4251SOL     OW13495   3.141   4.080   0.933
 4251SOL    HW113496   3.051   4.047   0.942
 4251SOL    HW213497   3.192   4.026   0.993
 4252SOL     OW13498   2.653   4.342   1.449
 4252SOL    HW113499   2.628   4.317   1.538
 4252SOL    HW213500   2.615   4.274   1.394
 4253SOL     OW13501   3.255   4.198   1.678
 4253SOL    HW113502   3.258   4.243   1.762
 4253SOL    HW213503   3.315   4.124   1.687
 4254SOL     OW13504   2.815   4.611   1.584
 4254SOL    HW113505   2.870   4.542   1.548
 4254SOL    HW213506   2.767   4.645   1.509
 4255SOL     OW13507   2.855   4.136   1.237
 4255SOL    HW113508   2.767   4.156   1.272
 4255SOL    HW213509   2.838   4.091   1.155
 4256SOL     OW13510   2.916   4.423   0.427
 4256SOL    HW113511   2.932   4.416   0.522
 4256SOL    HW213512   2.833   4.377   0.414
 4257SOL     OW13513   1.950   4.546   0.776
 4257SOL    HW113514   2.031   4.539   0.828
 4257SOL    HW213515   1.906   4.623   0.812
 4258SOL     OW13516   2.748   4.081   0.203
 4258SOL    HW113517   2.792   4.132   0.135
 4258SOL    HW213518   2.749   3.992   0.170
 4259SOL     OW13519   3.569   4.297   1.828
 4259SOL    HW113520   3.532   4.370   1.780
 4259SOL    HW213521   3.598   4.235   1.761
 4260SOL     OW13522   3.239   4.863   0.538
 4260SOL    HW113523   3.320   4.851   0.489
 4260SOL    HW213524   3.189   4.926   0.486
 4261SOL     OW13525   2.412   3.905   0.894
 4261SOL    HW113526   2.414   3.934   0.985
 4261SOL    HW213527   2.414   3.986   0.843
 4262SOL     OW13528   2.876   5.162   0.471
 4262SOL    HW113529   2.803   5.224   0.473
 4262SOL    HW213530   2.899   5.149   0.563
 4263SOL     OW13531   3.663   4.779   0.867
 4263SOL    HW113532   3.606   4.760   0.793
 4263SOL    HW213533   3.603   4.786   0.942
 4264SOL     OW13534   3.114   5.240   1.526
 4264SOL    HW113535   3.077   5.173   1.584
 4264SOL    HW213536   3.040   5.265   1.470
 4265SOL     OW13537   2.185   4.665   0.258
 4265SOL    HW113538   2.251   4.709   0.204
 4265SOL    HW213539   2.191   4.573   0.232
 4266SOL     OW13540   3.341   4.467   0.725
 4266SOL    HW113541   3.335   4.427   0.812
 4266SOL    HW213542   3.418   4.524   0.731
 4267SOL     OW13543   2.327   4.988   1.741
 4267SOL    HW113544   2.300   4.991   1.649
 4267SOL    HW213545   2.244   4.987   1.790
 4268SOL     OW13546   3.022   0.155   0.236
 4268SOL    HW113547   2.940   0.178   0.280
 4268SOL    HW213548   2.996   0.133   0.147
 4269SOL     OW13549   2.064   4.003   1.503
 4269SOL    HW113550   1.982   4.052   1.500
 4269SOL    HW213551   2.044   3.926   1.556
 4270SOL     OW13552   3.492   5.094   0.077
 4270SOL    HW113553   3.453   5.179   0.095
 4270SOL    HW213554   3.418   5.036   0.061
 4271SOL     OW13555   3.270   3.835   0.447
 4271SOL    HW113556   3.262   3.814   0.354
 4271SOL    HW213557   3.364   3.843   0.462
 4272SOL     OW13558   2.249   4.421   0.476
 4272SOL    HW113559   2.272   4.329   0.488
 4272SOL    HW213560   2.156   4.427   0.499
 4273SOL     OW13561   3.395   3.949   1.725
 4273SOL    HW113562   3.405   3.969   1.818
 4273SOL    HW213563   3.326   3.883   1.722
 4274SOL     OW13564   2.493   3.832   0.138
 4274SOL    HW113565   2.588   3.822   0.144
 4274SOL    HW213566   2.472   3.814   0.047
 4275SOL     OW13567   2.627   4.002   1.755
 4275SOL    HW113568   2.705   3.946   1.754
 4275SOL    HW213569   2.580   3.977   1.834
 4276SOL     OW13570   3.201   4.313   1.432
 4276SOL    HW113571   3.233   4.282   1.517
 4276SOL    HW213572   3.238   4.401   1.424
 4277SOL     OW13573   2.676   5.117   0.938
 4277SOL    HW113574   2.757   5.105   0.888
 4277SOL    HW213575   2.607   5.125   0.872
 4278SOL     OW13576   2.790   4.233   0.902
 4278SOL    HW113577   2.766   4.225   0.809
 4278SOL    HW213578   2.821   4.146   0.926
 4279SOL     OW13579   2.412   3.787   0.504
 4279SOL    HW113580   2.332   3.786   0.556
 4279SOL    HW213581   2.405   3.866   0.450
 4280SOL     OW13582   3.286   4.926   0.034
 4280SOL    HW113583   3.314   4.853   0.089
 4280SOL    HW213584   3.200   4.951   0.067
 4281SOL     OW13585   2.175   3.782   0.171
 4281SOL    HW113586   2.240   3.849   0.189
 4281SOL    HW213587   2.209   3.703   0.212
 4282SOL     OW13588   2.803   3.972   0.458
 4282SOL    HW113589   2.776   4.013   0.376
 4282SOL    HW213590   2.897   3.988   0.463
 4283SOL     OW13591   2.942   4.406   1.459
 4283SOL    HW113592   2.875   4.338   1.463
 4283SOL    HW213593   3.025   4.358   1.453
 4284SOL     OW13594   3.124   5.265   0.780
 4284SOL    HW113595   3.083   0.046   0.750
 4284SOL    HW213596   3.171   5.290   0.859
 4285SOL     OW13597   2.328   4.874   0.728
 4285SOL    HW113598   2.261   4.853   0.793
 4285SOL    HW213599   2.285   4.857   0.644
 4286SOL     OW13600   2.892   4.249   0.034
 4286SOL    HW113601   2.853   4.330   0.004
 4286SOL    HW213602   2.956   4.276   0.100
 4287SOL     OW13603   1.943   4.278   1.392
 4287SOL    HW113604   2.035   4.277   1.366
 4287SOL    HW213605   1.937   4.348   1.457
 4288SOL     OW13606   2.420   3.951   1.167
 4288SOL    HW113607   2.462   3.876   1.208
 4288SOL    HW213608   2.329   3.947   1.197
 4289SOL     OW13609   2.728   4.181   0.639
 4289SOL    HW113610   2.688   4.238   0.573
 4289SOL    HW213611   2.751   4.102   0.591
 4290SOL     OW13612   2.880   3.777   0.748
 4290SOL    HW113613   2.819   3.772   0.674
 4290SOL    HW213614   2.856   3.703   0.804
 4291SOL     OW13615   3.301   4.890   0.859
 4291SOL    HW113616   3.233   4.823   0.856
 4291SOL    HW213617   3.326   4.903   0.767
 4292SOL     OW13618   3.328   4.331   0.974
 4292SOL    HW113619   3.275   4.251   0.977
 4292SOL    HW213620   3.387   4.324   1.049
 4293SOL     OW13621   3.710   4.537   0.388
 4293SOL    HW113622   3.763   4.485   0.448
 4293SOL    HW213623   3.680   4.475   0.322
 4294SOL     OW13624   2.325   5.161   0.152
 4294SOL    HW113625   2.279   5.107   0.216
 4294SOL    HW213626   2.371   5.098   0.096
 4295SOL     OW13627   3.533   4.988   0.647
 4295SOL    HW113628   3.627   4.994   0.665
 4295SOL    HW213629   3.499   5.076   0.662
 4296SOL     OW13630   3.260   4.300   0.088
 4296SOL    HW113631   3.198   4.283   0.158
 4296SOL    HW213632   3.313   4.220   0.082
 4297SOL     OW13633   2.377   3.988   0.322
 4297SOL    HW113634   2.429   3.936   0.261
 4297SOL    HW213635   2.364   4.072   0.278
 4298SOL     OW13636   3.612   4.960   1.572
 4298SOL    HW113637   3.698   4.918   1.573
 4298SOL    HW213638   3.632   5.053   1.583
 4299SOL     OW13639   2.926   5.073   1.329
 4299SOL    HW113640   2.847   5.048   1.377
 4299SOL    HW213641   2.998   5.034   1.379
 4300SOL     OW13642   2.990   4.925   1.106
 4300SOL    HW113643   2.941   4.968   1.177
 4300SOL    HW213644   2.944   4.952   1.027
 4301SOL     OW13645   3.489   4.821   1.076
 4301SOL    HW113646   3.484   4.883   1.149
 4301SOL    HW213647   3.413   4.841   1.022
 4302SOL     OW13648   2.780   3.820   1.394
 4302SOL    HW113649   2.803   3.801   1.303
 4302SOL    HW213650   2.859   3.859   1.431
 4303SOL     OW13651   2.846   4.839   1.726
 4303SOL    HW113652   2.754   4.855   1.745
 4303SOL    HW213653   2.846   4.762   1.669
 4304SOL     OW13654   2.575   4.785   0.381
 4304SOL    HW113655   2.557   4.767   0.474
 4304SOL    HW213656   2.654   4.735   0.362
 4305SOL     OW13657   2.282   4.540   1.251
 4305SOL    HW113658   2.350   4.549   1.318
 4305SOL    HW213659   2.247   4.452   1.265
 4306SOL     OW13660   3.126   4.100   1.277
 4306SOL    HW113661   3.159   4.177   1.323
 4306SOL    HW213662   3.036   4.122   1.255
 4307SOL     OW13663   2.201   4.832   0.490
 4307SOL    HW113664   2.202   4.904   0.426
 4307SOL    HW213665   2.210   4.753   0.436
 4308SOL     OW13666   2.412   4.259   0.859
 4308SOL    HW113667   2.427   4.317   0.785
 4308SOL    HW213668   2.478   4.284   0.924
 4309SOL     OW13669   3.119   5.074   0.385
 4309SOL    HW113670   3.173   5.149   0.409
 4309SOL    HW213671   3.030   5.098   0.411
 4310SOL     OW13672   3.133   5.183   1.142
 4310SOL    HW113673   3.193   5.198   1.216
 4310SOL    HW213674   3.089   5.101   1.163
 4311SOL     OW13675   3.443   4.346   0.484
 4311SOL    HW113676   3.392   4.394   0.550
 4311SOL    HW213677   3.477   4.413   0.425
 4312SOL     OW13678   2.211   5.236   1.312
 4312SOL    HW113679   2.199   5.200   1.224
 4312SOL    HW213680   2.304   5.256   1.318
 4313SOL     OW13681   2.277   4.469   1.602
 4313SOL    HW113682   2.340   4.513   1.545
 4313SOL    HW213683   2.316   4.383   1.619
 4314SOL     OW13684   3.466   4.503   1.684
 4314SOL    HW113685   3.380   4.545   1.677
 4314SOL    HW213686   3.518   4.545   1.615
 4315SOL     OW13687   2.858   3.851   1.755
 4315SOL    HW113688   2.915   3.923   1.729
 4315SOL    HW213689   2.906   3.772   1.729
 4316SOL     OW13690   2.359   3.763   1.749
 4316SOL    HW113691   2.314   3.709   1.683
 4316SOL    HW213692   2.301   3.838   1.762
 4317SOL     OW13693   2.445   4.597   1.031
 4317SOL    HW113694   2.477   4.687   1.031
 4317SOL    HW213695   2.389   4.591   1.109
 4318SOL     OW13696   3.217   4.582   1.025
 4318SOL    HW113697   3.132   4.570   0.982
 4318SOL    HW213698   3.259   4.496   1.019
 4319SOL     OW13699   3.064   4.251   0.270
 4319SOL    HW113700   3.071   4.172   0.324
 4319SOL    HW213701   3.021   4.315   0.327
 4320SOL     OW13702   2.160   3.922   1.247
 4320SOL    HW113703   2.123   3.954   1.329
 4320SOL    HW213704   2.141   3.828   1.247
 4321SOL     OW13705   1.918   5.048   1.285
 4321SOL    HW113706   1.940   4.982   1.350
 4321SOL    HW213707   1.951   5.130   1.322
 4322SOL     OW13708   2.584   4.354   1.055
 4322SOL    HW113709   2.660   4.339   0.999
 4322SOL    HW213710   2.556   4.443   1.036
 4323SOL     OW13711   3.598   4.684   1.854
 4323SOL    HW113712   3.553   4.619   1.799
 4323SOL    HW213713   3.538   4.699   1.927
 4324SOL     OW13714   2.166   3.788   0.624
 4324SOL    HW113715   2.146   3.878   0.647
 4324SOL    HW213716   2.174   3.743   0.709
 4325SOL     OW13717   3.486   4.101   0.368
 4325SOL    HW113718   3.510   4.035   0.433
 4325SOL    HW213719   3.460   4.177   0.419
 4326SOL     OW13720   2.890   4.482   0.960
 4326SOL    HW113721   2.885   4.500   1.054
 4326SOL    HW213722   2.864   4.391   0.951
 4327SOL     OW13723   3.715   5.213   1.582
 4327SOL    HW113724   3.705   5.292   1.528
 4327SOL    HW213725   3.785   5.235   1.643
 4328SOL     OW13726   2.215   4.641   1.809
 4328SOL    HW113727   2.296   4.659   1.855
 4328SOL    HW213728   2.240   4.578   1.741
 4329SOL     OW13729   3.375   4.029   0.127
 4329SOL    HW113730   3.328   3.947   0.143
 4329SOL    HW213731   3.417   4.049   0.210
 4330SOL     OW13732   3.158   4.546   0.018
 4330SOL    HW113733   3.195   4.460   0.037
 4330SOL    HW213734   3.220   4.587   8.038
 4331SOL     OW13735   2.918   5.082   0.823
 4331SOL    HW113736   2.925   4.996   0.781
 4331SOL    HW213737   3.005   5.121   0.811
 4332SOL     OW13738   2.170   4.532   0.946
 4332SOL    HW113739   2.264   4.553   0.941
 4332SOL    HW213740   2.168   4.442   0.979
 4333SOL     OW13741   2.192   4.252   1.012
 4333SOL    HW113742   2.157   4.164   0.999
 4333SOL    HW213743   2.268   4.257   0.956
 4334SOL     OW13744   2.996   4.098   1.684
 4334SOL    HW113745   2.948   4.153   1.746
 4334SOL    HW213746   3.083   4.137   1.680
 4335SOL     OW13747   3.023   3.925   1.471
 4335SOL    HW113748   3.012   3.988   1.542
 4335SOL    HW213749   3.064   3.975   1.400
 4336SOL     OW13750   1.875   5.042   0.174
 4336SOL    HW113751   1.787   5.055   0.140
 4336SOL    HW213752   1.873   4.957   0.217
 4337SOL     OW13753   2.841   4.514   1.226
 4337SOL    HW113754   2.900   4.493   1.298
 4337SOL    HW213755   2.757   4.476   1.251
 4338SOL     OW13756   1.898   4.270   1.117
 4338SOL    HW113757   1.979   4.259   1.067
 4338SOL    HW213758   1.926   4.272   1.208
 4339SOL     OW13759   2.054   4.245   1.729
 4339SOL    HW113760   2.109   4.203   1.662
 4339SOL    HW213761   2.014   4.319   1.684
 4340SOL     OW13762   3.240   4.660   1.657
 4340SOL    HW113763   3.261   4.754   1.654
 4340SOL    HW213764   3.236   4.633   1.566
 4341SOL     OW13765   2.682   4.293   0.371
 4341SOL    HW113766   2.691   4.222   0.307
 4341SOL    HW213767   2.606   4.343   0.341
 4342SOL     OW13768   3.503   4.325   1.183
 4342SOL    HW113769   3.494   4.267   1.259
 4342SOL    HW213770   3.591   4.306   1.149
 4343SOL     OW13771   2.067   5.276   1.746
 4343SOL    HW113772   2.048   0.027   1.825
 4343SOL    HW213773   2.079   5.186   1.778
 4344SOL     OW13774   2.568   4.172   1.257
 4344SOL    HW113775   2.513   4.099   1.229
 4344SOL    HW213776   2.562   4.236   1.185
 4345SOL     OW13777   2.330   4.215   0.177
 4345SOL    HW113778   2.397   4.280   0.197
 4345SOL    HW213779   2.247   4.261   0.190
 4346SOL     OW13780   2.006   4.863   1.472
 4346SOL    HW113781   2.007   4.813   1.553
 4346SOL    HW213782   2.023   4.798   1.403
 4347SOL     OW13783   3.187   4.767   1.221
 4347SOL    HW113784   3.209   4.705   1.152
 4347SOL    HW213785   3.117   4.821   1.183
 4348SOL     OW13786   3.169   4.572   0.307
 4348SOL    HW113787   3.093   4.543   0.357
 4348SOL    HW213788   3.144   4.560   0.216
 4349SOL     OW13789   1.958   4.987   1.022
 4349SOL    HW113790   1.937   5.006   1.113
 4349SOL    HW213791   1.877   4.949   0.986
 4350SOL     OW13792   2.616   0.035   1.709
 4350SOL    HW113793   2.524   0.057   1.721
 4350SOL    HW213794   2.636   0.062   1.619
 4351SOL     OW13795   2.768   3.816   0.131
 4351SOL    HW113796   2.780   3.797   0.038
 4351SOL    HW213797   2.835   3.764   0.175
 4352SOL     OW13798   3.582   3.871   0.508
 4352SOL    HW113799   3.653   3.854   0.447
 4352SOL    HW213800   3.566   3.787   0.550
 4353SOL     OW13801   3.139   4.650   0.672
 4353SOL    HW113802   3.213   4.589   0.680
 4353SOL    HW213803   3.173   4.722   0.618
 4354SOL     OW13804   2.678   4.993   1.415
 4354SOL    HW113805   2.646   5.028   1.499
 4354SOL    HW213806   2.604   5.001   1.356
 4355SOL     OW13807   3.703   3.896   0.966
 4355SOL    HW113808   3.732   3.809   0.940
 4355SOL    HW213809   3.617   3.906   0.926
 4356SOL     OW13810   2.122   4.039   0.717
 4356SOL    HW113811   2.036   4.074   0.694
 4356SOL    HW213812   2.121   4.032   0.812
 4357SOL     OW13813   3.001   0.017   0.000
 4357SOL    HW113814   3.015   5.228   0.031
 4357SOL    HW213815   3.009   0.012   7.985
 4358SOL     OW13816   2.687   4.726   1.371
 4358SOL    HW113817   2.734   4.719   1.288
 4358SOL    HW213818   2.690   4.820   1.391
 4359SOL     OW13819   2.783   4.639   0.301
 4359SOL    HW113820   2.836   4.665   0.226
 4359SOL    HW213821   2.830   4.567   0.341
 4360SOL     OW13822   2.226   5.027   1.497
 4360SOL    HW113823   2.216   5.100   1.436
 4360SOL    HW213824   2.150   4.971   1.480
 4361SOL     OW13825   3.474   5.004   1.282
 4361SOL    HW113826   3.530   4.996   1.359
 4361SOL    HW213827   3.411   5.072   1.305
 4362SOL     OW13828   2.920   4.835   0.715
 4362SOL    HW113829   2.847   4.783   0.749
 4362SOL    HW213830   2.981   4.770   0.681
 4363SOL     OW13831   2.884   3.964   0.966
 4363SOL    HW113832   2.881   3.917   0.883
 4363SOL    HW213833   2.879   3.896   1.033
 4364SOL     OW13834   3.585   4.116   1.381
 4364SOL    HW113835   3.657   4.179   1.380
 4364SOL    HW213836   3.615   4.045   1.324
 4365SOL     OW13837   2.127   5.025   0.289
 4365SOL    HW113838   2.046   5.040   0.239
 4365SOL    HW213839   2.116   5.077   0.368
 4366SOL     OW13840   1.975   4.749   1.720
 4366SOL    HW113841   1.899   4.724   1.773
 4366SOL    HW213842   2.049   4.710   1.765
 4367SOL     OW13843   2.537   3.920   1.500
 4367SOL    HW113844   2.621   3.899   1.459
 4367SOL    HW213845   2.560   3.952   1.587
 4368SOL     OW13846   1.920   4.085   0.039
 4368SOL    HW113847   1.842   4.035   0.015
 4368SOL    HW213848   1.970   4.092   8.038
 4369SOL     OW13849   3.290   4.581   1.399
 4369SOL    HW113850   3.241   4.642   1.344
 4369SOL    HW213851   3.380   4.584   1.365
 4370SOL     OW13852   1.933   3.877   0.301
 4370SOL    HW113853   1.917   3.963   0.261
 4370SOL    HW213854   2.017   3.848   0.265
 4371SOL     OW13855   3.045   5.062   0.110
 4371SOL    HW113856   2.950   5.050   0.106
 4371SOL    HW213857   3.066   5.058   0.203
 4372SOL     OW13858   2.482   4.555   1.434
 4372SOL    HW113859   2.539   4.630   1.418
 4372SOL    HW213860   2.541   4.480   1.442
 4373SOL     OW13861   2.580   4.287   1.703
 4373SOL    HW113862   2.622   4.348   1.762
 4373SOL    HW213863   2.604   4.200   1.736
 4374SOL     OW13864   3.337   4.920   1.630
 4374SOL    HW113865   3.324   4.934   1.723
 4374SOL    HW213866   3.431   4.935   1.617
 4375SOL     OW13867   3.530   4.605   1.255
 4375SOL    HW113868   3.524   4.520   1.211
 4375SOL    HW213869   3.520   4.668   1.184
 4376SOL     OW13870   3.078   4.041   0.460
 4376SOL    HW113871   3.143   3.971   0.454
 4376SOL    HW213872   3.106   4.093   0.536
 4377SOL     OW13873   2.449   4.459   0.671
 4377SOL    HW113874   2.489   4.545   0.658
 4377SOL    HW213875   2.381   4.454   0.603
 4378SOL     OW13876   3.622   4.087   1.652
 4378SOL    HW113877   3.606   4.102   1.558
 4378SOL    HW213878   3.550   4.030   1.679
 4379SOL     OW13879   3.607   4.657   1.511
 4379SOL    HW113880   3.601   4.752   1.524
 4379SOL    HW213881   3.592   4.645   1.418
 4380SOL     OW13882   2.775   5.095   0.039
 4380SOL    HW113883   2.715   5.075   0.111
 4380SOL    HW213884   2.727   5.156   8.064
 4381SOL     OW13885   2.731   4.692   0.855
 4381SOL    HW113886   2.780   4.621   0.895
 4381SOL    HW213887   2.695   4.740   0.930
 4382SOL     OW13888   2.942   4.700   0.088
 4382SOL    HW113889   2.921   4.756   0.013
 4382SOL    HW213890   3.018   4.649   0.060
 4383SOL     OW13891   2.084   5.021   1.852
 4383SOL    HW113892   2.017   4.958   1.826
 4383SOL    HW213893   2.072   5.031   1.946
 4384SOL     OW13894   1.951   4.953   0.670
 4384SOL    HW113895   1.948   4.902   0.751
 4384SOL    HW213896   2.019   4.910   0.617
 4385SOL     OW13897   2.535   5.103   1.608
 4385SOL    HW113898   2.458   5.072   1.656
 4385SOL    HW213899   2.568   5.176   1.661
 4386SOL     OW13900   3.674   3.908   1.237
 4386SOL    HW113901   3.684   3.813   1.251
 4386SOL    HW213902   3.684   3.919   1.143
 4387SOL     OW13903   2.286   4.160   0.524
 4387SOL    HW113904   2.320   4.089   0.470
 4387SOL    HW213905   2.240   4.116   0.596
 4388SOL     OW13906   3.568   5.225   1.118
 4388SOL    HW113907   3.495   5.208   1.059
 4388SOL    HW213908   3.575   5.146   1.172
 4389SOL     OW13909   2.194   4.281   1.292
 4389SOL    HW113910   2.249   4.225   1.347
 4389SOL    HW213911   2.212   4.252   1.203
 4390SOL     OW13912   3.293   3.950   1.118
 4390SOL    HW113913   3.316   3.870   1.163
 4390SOL    HW213914   3.242   4.000   1.181
 4391SOL     OW13915   2.871   3.742   1.140
 4391SOL    HW113916   2.816   3.674   1.101
 4391SOL    HW213917   2.958   3.704   1.142
 4392SOL     OW13918   2.658   5.038   0.281
 4392SOL    HW113919   2.608   4.961   0.309
 4392SOL    HW213920   2.717   5.056   0.354
 4393SOL     OW13921   2.484   5.300   1.294
 4393SOL    HW113922   2.490   0.054   1.372
 4393SOL    HW213923   2.575   5.280   1.271
 4394SOL     OW13924   3.219   3.778   0.186
 4394SOL    HW113925   3.238   3.732   0.104
 4394SOL    HW213926   3.132   3.747   0.212
 4395SOL     OW13927   3.158   4.186   0.680
 4395SOL    HW113928   3.106   4.266   0.686
 4395SOL    HW213929   3.153   4.147   0.767
 4396SOL     OW13930   3.447   3.923   0.879
 4396SOL    HW113931   3.389   3.945   0.952
 4396SOL    HW213932   3.447   4.001   0.824
 4397SOL     OW13933   1.904   4.790   0.305
 4397SOL    HW113934   1.999   4.793   0.310
 4397SOL    HW213935   1.880   4.705   0.343
 4398SOL     OW13936   2.090   4.348   1.987
 4398SOL    HW113937   2.001   4.345   2.022
 4398SOL    HW213938   2.080   4.323   1.895
 4399SOL     OW13939   2.086   4.007   2.855
 4399SOL    HW113940   2.115   3.971   2.939
 4399SOL    HW213941   1.997   3.975   2.844
 4400SOL     OW13942   1.864   4.107   2.500
 4400SOL    HW113943   1.782   4.133   2.542
 4400SOL    HW213944   1.843   4.028   2.451
 4401SOL     OW13945   2.429   5.009   3.044
 4401SOL    HW113946   2.345   5.006   3.000
 4401SOL    HW213947   2.441   5.100   3.068
 4402SOL     OW13948   3.419   5.232   2.551
 4402SOL    HW113949   3.402   5.229   2.645
 4402SOL    HW213950   3.338   5.269   2.513
 4403SOL     OW13951   2.993   4.422   2.561
 4403SOL    HW113952   3.041   4.503   2.547
 4403SOL    HW213953   2.946   4.436   2.643
 4404SOL     OW13954   3.631   4.328   2.090
 4404SOL    HW113955   3.609   4.321   1.997
 4404SOL    HW213956   3.595   4.248   2.129
 4405SOL     OW13957   2.615   4.866   2.902
 4405SOL    HW113958   2.549   4.899   2.963
 4405SOL    HW213959   2.646   4.945   2.857
 4406SOL     OW13960   2.732   4.494   3.685
 4406SOL    HW113961   2.718   4.565   3.747
 4406SOL    HW213962   2.755   4.538   3.603
 4407SOL     OW13963   2.548   4.724   2.508
 4407SOL    HW113964   2.613   4.715   2.578
 4407SOL    HW213965   2.479   4.778   2.547
 4408SOL     OW13966   2.571   4.871   3.676
 4408SOL    HW113967   2.619   4.950   3.700
 4408SOL    HW213968   2.489   4.903   3.639
 4409SOL     OW13969   2.199   5.146   2.921
 4409SOL    HW113970   2.121   5.101   2.889
 4409SOL    HW213971   2.235   5.189   2.843
 4410SOL     OW13972   3.316   5.222   3.210
 4410SOL    HW113973   3.371   5.294   3.241
 4410SOL    HW213974   3.249   5.213   3.277
 4411SOL     OW13975   2.312   4.121   3.346
 4411SOL    HW113976   2.387   4.061   3.353
 4411SOL    HW213977   2.235   4.065   3.362
 4412SOL     OW13978   3.472   4.170   2.603
 4412SOL    HW113979   3.398   4.191   2.547
 4412SOL    HW213980   3.485   4.248   2.657
 4413SOL     OW13981   2.995   5.073   3.565
 4413SOL    HW113982   3.024   5.075   3.656
 4413SOL    HW213983   2.942   4.994   3.558
 4414SOL     OW13984   2.071   5.158   2.383
 4414SOL    HW113985   2.100   5.237   2.428
 4414SOL    HW213986   2.021   5.110   2.449
 4415SOL     OW13987   2.123   4.811   2.755
 4415SOL    HW113988   2.120   4.723   2.793
 4415SOL    HW213989   2.066   4.864   2.810
 4416SOL     OW13990   2.444   4.706   1.998
 4416SOL    HW113991   2.492   4.753   1.930
 4416SOL    HW213992   2.483   4.737   2.080
 4417SOL     OW13993   3.455   3.851   3.329
 4417SOL    HW113994   3.474   3.931   3.279
 4417SOL    HW213995   3.441   3.881   3.419
 4418SOL     OW13996   1.978   4.378   2.422
 4418SOL    HW113997   1.949   4.289   2.443
 4418SOL    HW213998   1.970   4.426   2.504
 4419SOL     OW13999   1.849   0.012   1.958
 4419SOL    HW114000   1.863   5.223   1.990
 4419SOL    HW214001   1.869   0.068   2.033
 4420SOL     OW14002   3.550   4.641   2.504
 4420SOL    HW114003   3.633   4.598   2.482
 4420SOL    HW214004   3.529   4.692   2.426
 4421SOL     OW14005   3.509   4.829   2.292
 4421SOL    HW114006   3.594   4.832   2.249
 4421SOL    HW214007   3.515   4.891   2.364
 4422SOL     OW14008   1.986   4.467   3.447
 4422SOL    HW114009   2.077   4.495   3.452
 4422SOL    HW214010   1.936   4.549   3.454
 4423SOL     OW14011   2.485   5.099   2.601
 4423SOL    HW114012   2.431   5.020   2.598
 4423SOL    HW214013   2.467   5.144   2.519
 4424SOL     OW14014   3.150   4.952   3.288
 4424SOL    HW114015   3.184   4.887   3.227
 4424SOL    HW214016   3.211   4.950   3.361
 4425SOL     OW14017   2.678   3.724   2.369
 4425SOL    HW114018   2.718   3.809   2.349
 4425SOL    HW214019   2.585   3.744   2.379
 4426SOL     OW14020   2.051   4.688   3.134
 4426SOL    HW114021   2.136   4.646   3.120
 4426SOL    HW214022   1.990   4.636   3.082
 4427SOL     OW14023   3.392   4.721   2.060
 4427SOL    HW114024   3.323   4.663   2.093
 4427SOL    HW214025   3.434   4.755   2.139
 4428SOL     OW14026   2.196   3.978   3.680
 4428SOL    HW114027   2.238   4.062   3.698
 4428SOL    HW214028   2.106   3.989   3.708
 4429SOL     OW14029   3.340   5.148   2.823
 4429SOL    HW114030   3.268   5.160   2.885
 4429SOL    HW214031   3.328   5.059   2.789
 4430SOL     OW14032   2.458   4.444   2.130
 4430SOL    HW114033   2.462   4.526   2.081
 4430SOL    HW214034   2.393   4.460   2.198
 4431SOL     OW14035   3.140   4.081   2.795
 4431SOL    HW114036   3.051   4.046   2.803
 4431SOL    HW214037   3.192   4.027   2.855
 4432SOL     OW14038   2.654   4.341   3.312
 4432SOL    HW114039   2.628   4.317   3.400
 4432SOL    HW214040   2.615   4.274   3.256
 4433SOL     OW14041   3.254   4.198   3.540
 4433SOL    HW114042   3.258   4.243   3.624
 4433SOL    HW214043   3.316   4.125   3.549
 4434SOL     OW14044   2.815   4.611   3.446
 4434SOL    HW114045   2.870   4.542   3.410
 4434SOL    HW214046   2.767   4.646   3.371
 4435SOL     OW14047   2.855   4.136   3.099
 4435SOL    HW114048   2.768   4.155   3.134
 4435SOL    HW214049   2.839   4.092   3.016
 4436SOL     OW14050   2.914   4.422   2.287
 4436SOL    HW114051   2.930   4.415   2.381
 4436SOL    HW214052   2.831   4.376   2.274
 4437SOL     OW14053   1.950   4.545   2.639
 4437SOL    HW114054   2.030   4.538   2.690
 4437SOL    HW214055   1.906   4.623   2.674
 4438SOL     OW14056   2.758   4.073   2.057
 4438SOL    HW114057   2.797   4.137   1.996
 4438SOL    HW214058   2.773   3.988   2.015
 4439SOL     OW14059   3.568   4.297   3.691
 4439SOL    HW114060   3.531   4.370   3.642
 4439SOL    HW214061   3.598   4.236   3.623
 4440SOL     OW14062   3.240   4.863   2.400
 4440SOL    HW114063   3.322   4.850   2.352
 4440SOL    HW214064   3.190   4.925   2.346
 4441SOL     OW14065   2.412   3.906   2.756
 4441SOL    HW114066   2.415   3.936   2.847
 4441SOL    HW214067   2.413   3.986   2.704
 4442SOL     OW14068   2.882   5.168   2.334
 4442SOL    HW114069   2.806   5.226   2.333
 4442SOL    HW214070   2.899   5.153   2.428
 4443SOL     OW14071   3.663   4.779   2.729
 4443SOL    HW114072   3.607   4.761   2.654
 4443SOL    HW214073   3.602   4.786   2.803
 4444SOL     OW14074   3.114   5.240   3.388
 4444SOL    HW114075   3.077   5.173   3.446
 4444SOL    HW214076   3.040   5.266   3.333
 4445SOL     OW14077   2.180   4.681   2.113
 4445SOL    HW114078   2.263   4.700   2.069
 4445SOL    HW214079   2.150   4.599   2.074
 4446SOL     OW14080   3.341   4.469   2.588
 4446SOL    HW114081   3.336   4.427   2.674
 4446SOL    HW214082   3.419   4.524   2.593
 4447SOL     OW14083   2.327   4.988   3.603
 4447SOL    HW114084   2.300   4.990   3.511
 4447SOL    HW214085   2.244   4.987   3.652
 4448SOL     OW14086   2.927   0.177   2.064
 4448SOL    HW114087   2.943   0.102   2.122
 4448SOL    HW214088   2.950   0.146   1.977
 4449SOL     OW14089   2.063   4.002   3.365
 4449SOL    HW114090   1.982   4.053   3.360
 4449SOL    HW214091   2.041   3.927   3.419
 4450SOL     OW14092   3.483   5.102   1.972
 4450SOL    HW114093   3.487   5.174   1.909
 4450SOL    HW214094   3.416   5.043   1.937
 4451SOL     OW14095   3.263   3.831   2.298
 4451SOL    HW114096   3.253   3.806   2.206
 4451SOL    HW214097   3.357   3.838   2.311
 4452SOL     OW14098   2.256   4.419   2.337
 4452SOL    HW114099   2.276   4.326   2.349
 4452SOL    HW214100   2.162   4.427   2.354
 4453SOL     OW14101   3.396   3.949   3.587
 4453SOL    HW114102   3.406   3.970   3.680
 4453SOL    HW214103   3.325   3.884   3.585
 4454SOL     OW14104   2.500   3.845   1.966
 4454SOL    HW114105   2.566   3.777   1.980
 4454SOL    HW214106   2.449   3.814   1.891
 4455SOL     OW14107   2.626   4.001   3.617
 4455SOL    HW114108   2.704   3.947   3.616
 4455SOL    HW214109   2.578   3.974   3.696
 4456SOL     OW14110   3.201   4.313   3.294
 4456SOL    HW114111   3.233   4.282   3.379
 4456SOL    HW214112   3.238   4.401   3.285
 4457SOL     OW14113   2.676   5.117   2.800
 4457SOL    HW114114   2.757   5.105   2.749
 4457SOL    HW214115   2.607   5.124   2.734
 4458SOL     OW14116   2.790   4.233   2.764
 4458SOL    HW114117   2.766   4.225   2.672
 4458SOL    HW214118   2.821   4.145   2.788
 4459SOL     OW14119   2.412   3.787   2.362
 4459SOL    HW114120   2.332   3.787   2.414
 4459SOL    HW214121   2.405   3.865   2.307
 4460SOL     OW14122   3.290   4.925   1.899
 4460SOL    HW114123   3.319   4.849   1.950
 4460SOL    HW214124   3.202   4.943   1.932
 4461SOL     OW14125   2.153   3.772   2.047
 4461SOL    HW114126   2.212   3.836   2.007
 4461SOL    HW214127   2.212   3.709   2.089
 4462SOL     OW14128   2.802   3.972   2.320
 4462SOL    HW114129   2.776   4.012   2.237
 4462SOL    HW214130   2.896   3.986   2.326
 4463SOL     OW14131   2.942   4.406   3.321
 4463SOL    HW114132   2.874   4.339   3.325
 4463SOL    HW214133   3.024   4.358   3.314
 4464SOL     OW14134   3.126   5.266   2.639
 4464SOL    HW114135   3.079   0.047   2.616
 4464SOL    HW214136   3.172   5.288   2.720
 4465SOL     OW14137   2.329   4.873   2.590
 4465SOL    HW114138   2.261   4.852   2.654
 4465SOL    HW214139   2.287   4.856   2.505
 4466SOL     OW14140   2.884   4.263   1.887
 4466SOL    HW114141   2.842   4.347   1.867
 4466SOL    HW214142   2.950   4.285   1.952
 4467SOL     OW14143   1.943   4.278   3.255
 4467SOL    HW114144   2.035   4.277   3.228
 4467SOL    HW214145   1.937   4.348   3.320
 4468SOL     OW14146   2.420   3.952   3.030
 4468SOL    HW114147   2.463   3.877   3.069
 4468SOL    HW214148   2.329   3.947   3.059
 4469SOL     OW14149   2.728   4.182   2.501
 4469SOL    HW114150   2.684   4.238   2.437
 4469SOL    HW214151   2.751   4.103   2.453
 4470SOL     OW14152   2.884   3.785   2.607
 4470SOL    HW114153   2.824   3.780   2.532
 4470SOL    HW214154   2.860   3.709   2.661
 4471SOL     OW14155   3.301   4.890   2.721
 4471SOL    HW114156   3.234   4.823   2.717
 4471SOL    HW214157   3.328   4.902   2.630
 4472SOL     OW14158   3.328   4.331   2.836
 4472SOL    HW114159   3.275   4.251   2.838
 4472SOL    HW214160   3.387   4.324   2.911
 4473SOL     OW14161   3.706   4.538   2.246
 4473SOL    HW114162   3.763   4.487   2.303
 4473SOL    HW214163   3.679   4.475   2.178
 4474SOL     OW14164   2.339   5.150   2.010
 4474SOL    HW114165   2.280   5.097   2.065
 4474SOL    HW214166   2.349   5.100   1.930
 4475SOL     OW14167   3.532   4.986   2.508
 4475SOL    HW114168   3.626   4.992   2.525
 4475SOL    HW214169   3.499   5.075   2.523
 4476SOL     OW14170   3.256   4.296   1.933
 4476SOL    HW114171   3.195   4.276   2.004
 4476SOL    HW214172   3.341   4.265   1.965
 4477SOL     OW14173   2.387   3.987   2.178
 4477SOL    HW114174   2.434   3.940   2.109
 4477SOL    HW214175   2.363   4.071   2.139
 4478SOL     OW14176   3.612   4.960   3.434
 4478SOL    HW114177   3.698   4.918   3.435
 4478SOL    HW214178   3.631   5.053   3.445
 4479SOL     OW14179   2.926   5.072   3.190
 4479SOL    HW114180   2.847   5.048   3.239
 4479SOL    HW214181   2.998   5.034   3.241
 4480SOL     OW14182   2.990   4.925   2.969
 4480SOL    HW114183   2.941   4.968   3.040
 4480SOL    HW214184   2.943   4.951   2.889
 4481SOL     OW14185   3.489   4.821   2.938
 4481SOL    HW114186   3.484   4.883   3.011
 4481SOL    HW214187   3.412   4.841   2.884
 4482SOL     OW14188   2.778   3.850   3.245
 4482SOL    HW114189   2.802   3.821   3.157
 4482SOL    HW214190   2.860   3.884   3.282
 4483SOL     OW14191   2.846   4.839   3.588
 4483SOL    HW114192   2.754   4.855   3.607
 4483SOL    HW214193   2.846   4.762   3.531
 4484SOL     OW14194   2.567   4.784   2.233
 4484SOL    HW114195   2.554   4.767   2.326
 4484SOL    HW214196   2.645   4.732   2.210
 4485SOL     OW14197   2.282   4.540   3.114
 4485SOL    HW114198   2.350   4.549   3.180
 4485SOL    HW214199   2.247   4.452   3.127
 4486SOL     OW14200   3.126   4.098   3.142
 4486SOL    HW114201   3.160   4.176   3.185
 4486SOL    HW214202   3.036   4.120   3.118
 4487SOL     OW14203   2.204   4.835   2.350
 4487SOL    HW114204   2.206   4.908   2.288
 4487SOL    HW214205   2.204   4.757   2.295
 4488SOL     OW14206   2.413   4.259   2.722
 4488SOL    HW114207   2.427   4.317   2.647
 4488SOL    HW214208   2.479   4.285   2.786
 4489SOL     OW14209   3.122   5.079   2.248
 4489SOL    HW114210   3.179   5.145   2.286
 4489SOL    HW214211   3.034   5.102   2.277
 4490SOL     OW14212   3.134   5.183   3.004
 4490SOL    HW114213   3.193   5.198   3.077
 4490SOL    HW214214   3.089   5.100   3.025
 4491SOL     OW14215   3.443   4.345   2.343
 4491SOL    HW114216   3.394   4.397   2.407
 4491SOL    HW214217   3.488   4.409   2.289
 4492SOL     OW14218   2.211   5.236   3.174
 4492SOL    HW114219   2.199   5.200   3.086
 4492SOL    HW214220   2.304   5.256   3.180
 4493SOL     OW14221   2.277   4.469   3.464
 4493SOL    HW114222   2.340   4.513   3.407
 4493SOL    HW214223   2.316   4.383   3.481
 4494SOL     OW14224   3.466   4.503   3.545
 4494SOL    HW114225   3.380   4.545   3.539
 4494SOL    HW214226   3.518   4.545   3.477
 4495SOL     OW14227   2.857   3.855   3.616
 4495SOL    HW114228   2.915   3.927   3.593
 4495SOL    HW214229   2.906   3.776   3.592
 4496SOL     OW14230   2.354   3.770   3.608
 4496SOL    HW114231   2.308   3.718   3.542
 4496SOL    HW214232   2.297   3.845   3.624
 4497SOL     OW14233   2.446   4.596   2.894
 4497SOL    HW114234   2.476   4.687   2.893
 4497SOL    HW214235   2.389   4.591   2.971
 4498SOL     OW14236   3.216   4.582   2.887
 4498SOL    HW114237   3.132   4.570   2.844
 4498SOL    HW214238   3.259   4.497   2.881
 4499SOL     OW14239   3.065   4.252   2.127
 4499SOL    HW114240   3.073   4.174   2.182
 4499SOL    HW214241   3.022   4.316   2.183
 4500SOL     OW14242   2.159   3.918   3.109
 4500SOL    HW114243   2.122   3.953   3.191
 4500SOL    HW214244   2.137   3.825   3.112
 4501SOL     OW14245   1.917   5.048   3.147
 4501SOL    HW114246   1.940   4.982   3.212
 4501SOL    HW214247   1.951   5.130   3.183
 4502SOL     OW14248   2.585   4.354   2.918
 4502SOL    HW114249   2.660   4.340   2.861
 4502SOL    HW214250   2.556   4.443   2.898
 4503SOL     OW14251   3.598   4.683   3.716
 4503SOL    HW114252   3.553   4.619   3.661
 4503SOL    HW214253   3.538   4.699   3.789
 4504SOL     OW14254   2.167   3.787   2.486
 4504SOL    HW114255   2.146   3.878   2.508
 4504SOL    HW214256   2.175   3.743   2.571
 4505SOL     OW14257   3.480   4.099   2.227
 4505SOL    HW114258   3.508   4.035   2.292
 4505SOL    HW214259   3.457   4.177   2.278
 4506SOL     OW14260   2.890   4.483   2.822
 4506SOL    HW114261   2.885   4.500   2.916
 4506SOL    HW214262   2.864   4.391   2.813
 4507SOL     OW14263   3.715   5.213   3.444
 4507SOL    HW114264   3.705   5.292   3.390
 4507SOL    HW214265   3.785   5.235   3.505
 4508SOL     OW14266   2.215   4.640   3.671
 4508SOL    HW114267   2.296   4.659   3.717
 4508SOL    HW214268   2.240   4.578   3.603
 4509SOL     OW14269   3.390   3.996   1.989
 4509SOL    HW114270   3.325   3.931   2.016
 4509SOL    HW214271   3.423   4.032   2.071
 4510SOL     OW14272   3.152   4.549   1.892
 4510SOL    HW114273   3.195   4.464   1.896
 4510SOL    HW214274   3.183   4.589   1.810
 4511SOL     OW14275   2.918   5.083   2.682
 4511SOL    HW114276   2.925   4.996   2.642
 4511SOL    HW214277   3.006   5.120   2.672
 4512SOL     OW14278   2.170   4.532   2.809
 4512SOL    HW114279   2.263   4.553   2.802
 4512SOL    HW214280   2.168   4.442   2.841
 4513SOL     OW14281   2.192   4.252   2.875
 4513SOL    HW114282   2.157   4.164   2.860
 4513SOL    HW214283   2.269   4.257   2.818
 4514SOL     OW14284   2.996   4.097   3.547
 4514SOL    HW114285   2.948   4.153   3.608
 4514SOL    HW214286   3.083   4.137   3.542
 4515SOL     OW14287   3.028   3.922   3.338
 4515SOL    HW114288   3.015   3.987   3.407
 4515SOL    HW214289   3.069   3.971   3.266
 4516SOL     OW14290   1.868   5.038   2.053
 4516SOL    HW114291   1.777   5.056   2.028
 4516SOL    HW214292   1.866   4.950   2.090
 4517SOL     OW14293   2.841   4.514   3.087
 4517SOL    HW114294   2.899   4.493   3.161
 4517SOL    HW214295   2.757   4.476   3.113
 4518SOL     OW14296   1.898   4.270   2.979
 4518SOL    HW114297   1.978   4.259   2.928
 4518SOL    HW214298   1.927   4.272   3.070
 4519SOL     OW14299   2.053   4.245   3.591
 4519SOL    HW114300   2.108   4.203   3.524
 4519SOL    HW214301   2.014   4.320   3.546
 4520SOL     OW14302   3.240   4.660   3.519
 4520SOL    HW114303   3.261   4.754   3.516
 4520SOL    HW214304   3.236   4.633   3.428
 4521SOL     OW14305   2.678   4.293   2.225
 4521SOL    HW114306   2.683   4.219   2.164
 4521SOL    HW214307   2.605   4.345   2.194
 4522SOL     OW14308   3.503   4.325   3.045
 4522SOL    HW114309   3.494   4.267   3.121
 4522SOL    HW214310   3.591   4.306   3.011
 4523SOL     OW14311   2.067   5.276   3.608
 4523SOL    HW114312   2.048   0.027   3.686
 4523SOL    HW214313   2.079   5.186   3.640
 4524SOL     OW14314   2.567   4.172   3.119
 4524SOL    HW114315   2.512   4.100   3.090
 4524SOL    HW214316   2.562   4.236   3.048
 4525SOL     OW14317   2.325   4.216   2.047
 4525SOL    HW114318   2.383   4.288   2.070
 4525SOL    HW214319   2.239   4.258   2.035
 4526SOL     OW14320   2.006   4.863   3.333
 4526SOL    HW114321   2.007   4.813   3.415
 4526SOL    HW214322   2.023   4.798   3.265
 4527SOL     OW14323   3.187   4.767   3.083
 4527SOL    HW114324   3.209   4.705   3.014
 4527SOL    HW214325   3.117   4.821   3.045
 4528SOL     OW14326   3.174   4.582   2.167
 4528SOL    HW114327   3.100   4.550   2.218
 4528SOL    HW214328   3.149   4.567   2.076
 4529SOL     OW14329   1.958   4.987   2.884
 4529SOL    HW114330   1.936   5.006   2.975
 4529SOL    HW214331   1.878   4.949   2.848
 4530SOL     OW14332   2.616   0.035   3.571
 4530SOL    HW114333   2.524   0.057   3.583
 4530SOL    HW214334   2.636   0.062   3.482
 4531SOL     OW14335   3.582   3.873   2.370
 4531SOL    HW114336   3.654   3.858   2.309
 4531SOL    HW214337   3.566   3.788   2.410
 4532SOL     OW14338   3.139   4.650   2.534
 4532SOL    HW114339   3.213   4.590   2.543
 4532SOL    HW214340   3.174   4.722   2.480
 4533SOL     OW14341   2.678   4.993   3.277
 4533SOL    HW114342   2.646   5.028   3.361
 4533SOL    HW214343   2.604   5.002   3.218
 4534SOL     OW14344   3.703   3.896   2.829
 4534SOL    HW114345   3.732   3.809   2.802
 4534SOL    HW214346   3.617   3.906   2.788
 4535SOL     OW14347   2.122   4.038   2.578
 4535SOL    HW114348   2.036   4.074   2.555
 4535SOL    HW214349   2.120   4.032   2.674
 4536SOL     OW14350   2.687   4.726   3.233
 4536SOL    HW114351   2.734   4.719   3.150
 4536SOL    HW214352   2.690   4.820   3.253
 4537SOL     OW14353   2.778   4.636   2.153
 4537SOL    HW114354   2.839   4.668   2.087
 4537SOL    HW214355   2.827   4.566   2.198
 4538SOL     OW14356   2.226   5.027   3.359
 4538SOL    HW114357   2.216   5.100   3.298
 4538SOL    HW214358   2.150   4.971   3.342
 4539SOL     OW14359   3.474   5.004   3.144
 4539SOL    HW114360   3.531   4.996   3.220
 4539SOL    HW214361   3.411   5.072   3.167
 4540SOL     OW14362   2.920   4.835   2.576
 4540SOL    HW114363   2.847   4.784   2.611
 4540SOL    HW214364   2.982   4.769   2.544
 4541SOL     OW14365   2.884   3.964   2.829
 4541SOL    HW114366   2.881   3.918   2.744
 4541SOL    HW214367   2.877   3.894   2.894
 4542SOL     OW14368   3.586   4.116   3.243
 4542SOL    HW114369   3.657   4.179   3.242
 4542SOL    HW214370   3.615   4.045   3.186
 4543SOL     OW14371   2.121   5.050   2.147
 4543SOL    HW114372   2.029   5.051   2.119
 4543SOL    HW214373   2.121   5.095   2.231
 4544SOL     OW14374   1.975   4.749   3.582
 4544SOL    HW114375   1.899   4.724   3.634
 4544SOL    HW214376   2.049   4.710   3.628
 4545SOL     OW14377   2.534   3.919   3.362
 4545SOL    HW114378   2.618   3.909   3.317
 4545SOL    HW214379   2.557   3.951   3.449
 4546SOL     OW14380   1.941   4.056   1.896
 4546SOL    HW114381   1.854   4.037   1.861
 4546SOL    HW214382   1.971   4.131   1.846
 4547SOL     OW14383   3.290   4.581   3.261
 4547SOL    HW114384   3.241   4.642   3.206
 4547SOL    HW214385   3.379   4.584   3.227
 4548SOL     OW14386   1.928   3.879   2.169
 4548SOL    HW114387   1.915   3.959   2.118
 4548SOL    HW214388   2.013   3.846   2.140
 4549SOL     OW14389   3.044   5.061   1.983
 4549SOL    HW114390   2.953   5.032   1.984
 4549SOL    HW214391   3.072   5.055   2.074
 4550SOL     OW14392   2.482   4.554   3.296
 4550SOL    HW114393   2.538   4.630   3.280
 4550SOL    HW214394   2.542   4.480   3.304
 4551SOL     OW14395   2.580   4.286   3.564
 4551SOL    HW114396   2.622   4.348   3.624
 4551SOL    HW214397   2.603   4.200   3.599
 4552SOL     OW14398   3.337   4.920   3.492
 4552SOL    HW114399   3.324   4.934   3.585
 4552SOL    HW214400   3.431   4.935   3.479
 4553SOL     OW14401   3.530   4.605   3.117
 4553SOL    HW114402   3.524   4.520   3.073
 4553SOL    HW214403   3.520   4.668   3.046
 4554SOL     OW14404   3.078   4.043   2.320
 4554SOL    HW114405   3.141   3.971   2.312
 4554SOL    HW214406   3.107   4.092   2.396
 4555SOL     OW14407   2.451   4.460   2.533
 4555SOL    HW114408   2.490   4.546   2.519
 4555SOL    HW214409   2.384   4.452   2.465
 4556SOL     OW14410   3.623   4.087   3.514
 4556SOL    HW114411   3.607   4.102   3.421
 4556SOL    HW214412   3.551   4.030   3.541
 4557SOL     OW14413   3.607   4.657   3.373
 4557SOL    HW114414   3.601   4.752   3.386
 4557SOL    HW214415   3.592   4.644   3.280
 4558SOL     OW14416   2.710   5.094   1.882
 4558SOL    HW114417   2.693   5.094   1.976
 4558SOL    HW214418   2.722   5.186   1.860
 4559SOL     OW14419   2.731   4.693   2.717
 4559SOL    HW114420   2.780   4.621   2.756
 4559SOL    HW214421   2.694   4.741   2.791
 4560SOL     OW14422   2.942   4.714   1.952
 4560SOL    HW114423   2.919   4.764   1.874
 4560SOL    HW214424   3.015   4.659   1.925
 4561SOL     OW14425   2.084   5.021   3.714
 4561SOL    HW114426   2.017   4.958   3.688
 4561SOL    HW214427   2.072   5.032   3.808
 4562SOL     OW14428   1.949   4.954   2.532
 4562SOL    HW114429   1.949   4.902   2.613
 4562SOL    HW214430   2.013   4.909   2.476
 4563SOL     OW14431   2.535   5.103   3.470
 4563SOL    HW114432   2.458   5.072   3.518
 4563SOL    HW214433   2.568   5.176   3.522
 4564SOL     OW14434   3.672   3.906   3.099
 4564SOL    HW114435   3.686   3.813   3.112
 4564SOL    HW214436   3.682   3.919   3.005
 4565SOL     OW14437   2.291   4.158   2.388
 4565SOL    HW114438   2.321   4.087   2.331
 4565SOL    HW214439   2.242   4.113   2.457
 4566SOL     OW14440   3.568   5.225   2.980
 4566SOL    HW114441   3.495   5.208   2.922
 4566SOL    HW214442   3.575   5.146   3.034
 4567SOL     OW14443   2.194   4.281   3.154
 4567SOL    HW114444   2.249   4.225   3.209
 4567SOL    HW214445   2.212   4.253   3.065
 4568SOL     OW14446   3.293   3.951   2.979
 4568SOL    HW114447   3.320   3.871   3.025
 4568SOL    HW214448   3.241   3.999   3.044
 4569SOL     OW14449   2.867   3.740   3.004
 4569SOL    HW114450   2.811   3.668   2.976
 4569SOL    HW214451   2.956   3.703   3.002
 4570SOL     OW14452   2.667   5.046   2.147
 4570SOL    HW114453   2.610   4.972   2.167
 4570SOL    HW214454   2.722   5.056   2.224
 4571SOL     OW14455   2.484   5.300   3.156
 4571SOL    HW114456   2.490   0.054   3.234
 4571SOL    HW214457   2.575   5.280   3.134
 4572SOL     OW14458   3.215   3.777   2.029
 4572SOL    HW114459   3.245   3.712   1.967
 4572SOL    HW214460   3.127   3.749   2.054
 4573SOL     OW14461   3.158   4.185   2.542
 4573SOL    HW114462   3.105   4.265   2.548
 4573SOL    HW214463   3.153   4.147   2.629
 4574SOL     OW14464   3.448   3.924   2.741
 4574SOL    HW114465   3.389   3.946   2.813
 4574SOL    HW214466   3.448   4.001   2.685
 4575SOL     OW14467   1.904   4.792   2.170
 4575SOL    HW114468   1.998   4.786   2.153
 4575SOL    HW214469   1.878   4.703   2.192
 4576SOL     OW14470   2.090   4.347   3.849
 4576SOL    HW114471   2.000   4.345   3.884
 4576SOL    HW214472   2.080   4.323   3.757
 4577SOL     OW14473   2.087   4.005   4.717
 4577SOL    HW114474   2.114   3.972   4.803
 4577SOL    HW214475   1.997   3.974   4.706
 4578SOL     OW14476   1.864   4.106   4.363
 4578SOL    HW114477   1.782   4.133   4.404
 4578SOL    HW214478   1.842   4.028   4.312
 4579SOL     OW14479   2.429   5.008   4.906
 4579SOL    HW114480   2.344   5.006   4.861
 4579SOL    HW214481   2.441   5.100   4.931
 4580SOL     OW14482   3.419   5.232   4.413
 4580SOL    HW114483   3.402   5.229   4.507
 4580SOL    HW214484   3.339   5.269   4.375
 4581SOL     OW14485   2.993   4.422   4.423
 4581SOL    HW114486   3.042   4.503   4.409
 4581SOL    HW214487   2.946   4.436   4.505
 4582SOL     OW14488   3.631   4.327   3.952
 4582SOL    HW114489   3.609   4.321   3.859
 4582SOL    HW214490   3.595   4.248   3.991
 4583SOL     OW14491   2.615   4.866   4.764
 4583SOL    HW114492   2.549   4.899   4.825
 4583SOL    HW214493   2.646   4.944   4.719
 4584SOL     OW14494   2.731   4.494   5.546
 4584SOL    HW114495   2.718   4.565   5.609
 4584SOL    HW214496   2.755   4.539   5.465
 4585SOL     OW14497   2.548   4.724   4.371
 4585SOL    HW114498   2.613   4.715   4.440
 4585SOL    HW214499   2.479   4.778   4.409
 4586SOL     OW14500   2.571   4.871   5.538
 4586SOL    HW114501   2.619   4.950   5.562
 4586SOL    HW214502   2.489   4.903   5.501
 4587SOL     OW14503   2.199   5.146   4.783
 4587SOL    HW114504   2.121   5.101   4.751
 4587SOL    HW214505   2.235   5.189   4.705
 4588SOL     OW14506   3.316   5.222   5.072
 4588SOL    HW114507   3.372   5.294   5.103
 4588SOL    HW214508   3.249   5.213   5.139
 4589SOL     OW14509   2.313   4.121   5.206
 4589SOL    HW114510   2.388   4.064   5.216
 4589SOL    HW214511   2.237   4.065   5.224
 4590SOL     OW14512   3.472   4.170   4.466
 4590SOL    HW114513   3.399   4.192   4.408
 4590SOL    HW214514   3.485   4.248   4.519
 4591SOL     OW14515   2.995   5.073   5.427
 4591SOL    HW114516   3.024   5.075   5.518
 4591SOL    HW214517   2.942   4.994   5.420
 4592SOL     OW14518   2.072   5.158   4.245
 4592SOL    HW114519   2.100   5.237   4.290
 4592SOL    HW214520   2.021   5.110   4.311
 4593SOL     OW14521   2.123   4.811   4.616
 4593SOL    HW114522   2.120   4.724   4.655
 4593SOL    HW214523   2.066   4.864   4.672
 4594SOL     OW14524   2.444   4.706   3.860
 4594SOL    HW114525   2.492   4.753   3.792
 4594SOL    HW214526   2.483   4.737   3.942
 4595SOL     OW14527   3.457   3.852   5.190
 4595SOL    HW114528   3.472   3.933   5.142
 4595SOL    HW214529   3.441   3.880   5.280
 4596SOL     OW14530   1.978   4.378   4.284
 4596SOL    HW114531   1.948   4.289   4.305
 4596SOL    HW214532   1.970   4.426   4.366
 4597SOL     OW14533   1.848   0.012   3.820
 4597SOL    HW114534   1.863   5.223   3.852
 4597SOL    HW214535   1.869   0.069   3.895
 4598SOL     OW14536   3.550   4.641   4.366
 4598SOL    HW114537   3.633   4.599   4.344
 4598SOL    HW214538   3.529   4.692   4.288
 4599SOL     OW14539   3.509   4.829   4.154
 4599SOL    HW114540   3.594   4.832   4.111
 4599SOL    HW214541   3.515   4.891   4.226
 4600SOL     OW14542   1.985   4.468   5.309
 4600SOL    HW114543   2.077   4.495   5.314
 4600SOL    HW214544   1.935   4.549   5.316
 4601SOL     OW14545   2.485   5.099   4.463
 4601SOL    HW114546   2.431   5.020   4.460
 4601SOL    HW214547   2.467   5.144   4.381
 4602SOL     OW14548   3.150   4.952   5.150
 4602SOL    HW114549   3.184   4.887   5.089
 4602SOL    HW214550   3.211   4.950   5.223
 4603SOL     OW14551   2.684   3.731   4.244
 4603SOL    HW114552   2.720   3.815   4.216
 4603SOL    HW214553   2.589   3.746   4.247
 4604SOL     OW14554   2.051   4.688   4.997
 4604SOL    HW114555   2.136   4.646   4.982
 4604SOL    HW214556   1.990   4.636   4.944
 4605SOL     OW14557   3.392   4.721   3.922
 4605SOL    HW114558   3.323   4.663   3.955
 4605SOL    HW214559   3.435   4.755   4.001
 4606SOL     OW14560   2.198   3.974   5.536
 4606SOL    HW114561   2.241   4.056   5.558
 4606SOL    HW214562   2.108   3.986   5.567
 4607SOL     OW14563   3.340   5.148   4.685
 4607SOL    HW114564   3.268   5.160   4.747
 4607SOL    HW214565   3.328   5.059   4.651
 4608SOL     OW14566   2.458   4.444   3.992
 4608SOL    HW114567   2.462   4.526   3.943
 4608SOL    HW214568   2.393   4.460   4.060
 4609SOL     OW14569   3.140   4.080   4.657
 4609SOL    HW114570   3.051   4.047   4.666
 4609SOL    HW214571   3.192   4.027   4.717
 4610SOL     OW14572   2.653   4.342   5.174
 4610SOL    HW114573   2.628   4.317   5.263
 4610SOL    HW214574   2.615   4.274   5.118
 4611SOL     OW14575   3.255   4.198   5.402
 4611SOL    HW114576   3.258   4.243   5.486
 4611SOL    HW214577   3.315   4.124   5.411
 4612SOL     OW14578   2.815   4.611   5.308
 4612SOL    HW114579   2.870   4.542   5.272
 4612SOL    HW214580   2.767   4.646   5.233
 4613SOL     OW14581   2.854   4.136   4.961
 4613SOL    HW114582   2.768   4.156   4.996
 4613SOL    HW214583   2.837   4.095   4.876
 4614SOL     OW14584   2.914   4.422   4.149
 4614SOL    HW114585   2.930   4.416   4.243
 4614SOL    HW214586   2.831   4.376   4.136
 4615SOL     OW14587   1.950   4.545   4.501
 4615SOL    HW114588   2.030   4.538   4.552
 4615SOL    HW214589   1.905   4.622   4.535
 4616SOL     OW14590   2.757   4.074   3.920
 4616SOL    HW114591   2.798   4.136   3.859
 4616SOL    HW214592   2.765   3.989   3.877
 4617SOL     OW14593   3.568   4.297   5.552
 4617SOL    HW114594   3.531   4.370   5.504
 4617SOL    HW214595   3.598   4.235   5.485
 4618SOL     OW14596   3.240   4.863   4.262
 4618SOL    HW114597   3.322   4.850   4.214
 4618SOL    HW214598   3.190   4.925   4.208
 4619SOL     OW14599   2.401   3.906   4.620
 4619SOL    HW114600   2.409   3.938   4.709
 4619SOL    HW214601   2.408   3.984   4.565
 4620SOL     OW14602   2.882   5.168   4.196
 4620SOL    HW114603   2.806   5.226   4.195
 4620SOL    HW214604   2.899   5.153   4.289
 4621SOL     OW14605   3.663   4.779   4.591
 4621SOL    HW114606   3.607   4.761   4.516
 4621SOL    HW214607   3.602   4.786   4.665
 4622SOL     OW14608   3.114   5.240   5.250
 4622SOL    HW114609   3.077   5.173   5.308
 4622SOL    HW214610   3.040   5.267   5.195
 4623SOL     OW14611   2.181   4.681   3.976
 4623SOL    HW114612   2.263   4.700   3.931
 4623SOL    HW214613   2.150   4.599   3.936
 4624SOL     OW14614   3.341   4.469   4.450
 4624SOL    HW114615   3.336   4.428   4.536
 4624SOL    HW214616   3.419   4.524   4.455
 4625SOL     OW14617   2.327   4.988   5.465
 4625SOL    HW114618   2.300   4.990   5.373
 4625SOL    HW214619   2.244   4.987   5.514
 4626SOL     OW14620   2.927   0.177   3.926
 4626SOL    HW114621   2.942   0.102   3.983
 4626SOL    HW214622   2.950   0.146   3.839
 4627SOL     OW14623   2.063   4.004   5.225
 4627SOL    HW114624   1.983   4.057   5.222
 4627SOL    HW214625   2.044   3.935   5.288
 4628SOL     OW14626   3.483   5.102   3.834
 4628SOL    HW114627   3.487   5.174   3.771
 4628SOL    HW214628   3.416   5.043   3.799
 4629SOL     OW14629   3.267   3.839   4.155
 4629SOL    HW114630   3.258   3.812   4.064
 4629SOL    HW214631   3.362   3.842   4.169
 4630SOL     OW14632   2.257   4.419   4.199
 4630SOL    HW114633   2.276   4.326   4.211
 4630SOL    HW214634   2.163   4.427   4.216
 4631SOL     OW14635   3.395   3.949   5.449
 4631SOL    HW114636   3.405   3.970   5.542
 4631SOL    HW214637   3.327   3.882   5.447
 4632SOL     OW14638   2.501   3.844   3.827
 4632SOL    HW114639   2.561   3.771   3.842
 4632SOL    HW214640   2.448   3.816   3.752
 4633SOL     OW14641   2.628   4.002   5.480
 4633SOL    HW114642   2.706   3.947   5.479
 4633SOL    HW214643   2.582   3.978   5.560
 4634SOL     OW14644   3.201   4.313   5.156
 4634SOL    HW114645   3.233   4.282   5.241
 4634SOL    HW214646   3.238   4.401   5.148
 4635SOL     OW14647   2.676   5.116   4.662
 4635SOL    HW114648   2.757   5.105   4.611
 4635SOL    HW214649   2.607   5.124   4.596
 4636SOL     OW14650   2.790   4.233   4.626
 4636SOL    HW114651   2.766   4.225   4.534
 4636SOL    HW214652   2.822   4.146   4.650
 4637SOL     OW14653   2.415   3.789   4.223
 4637SOL    HW114654   2.335   3.791   4.276
 4637SOL    HW214655   2.409   3.866   4.167
 4638SOL     OW14656   3.290   4.925   3.761
 4638SOL    HW114657   3.319   4.849   3.812
 4638SOL    HW214658   3.202   4.943   3.794
 4639SOL     OW14659   2.153   3.774   3.910
 4639SOL    HW114660   2.213   3.838   3.870
 4639SOL    HW214661   2.211   3.710   3.951
 4640SOL     OW14662   2.803   3.975   4.182
 4640SOL    HW114663   2.777   4.013   4.098
 4640SOL    HW214664   2.898   3.988   4.186
 4641SOL     OW14665   2.942   4.406   5.183
 4641SOL    HW114666   2.876   4.338   5.188
 4641SOL    HW214667   3.025   4.359   5.177
 4642SOL     OW14668   3.125   5.266   4.501
 4642SOL    HW114669   3.079   0.046   4.477
 4642SOL    HW214670   3.172   5.288   4.582
 4643SOL     OW14671   2.329   4.872   4.452
 4643SOL    HW114672   2.261   4.852   4.516
 4643SOL    HW214673   2.287   4.856   4.367
 4644SOL     OW14674   2.885   4.263   3.748
 4644SOL    HW114675   2.842   4.346   3.728
 4644SOL    HW214676   2.950   4.285   3.814
 4645SOL     OW14677   1.943   4.278   5.117
 4645SOL    HW114678   2.035   4.278   5.090
 4645SOL    HW214679   1.937   4.348   5.182
 4646SOL     OW14680   2.419   3.950   4.893
 4646SOL    HW114681   2.463   3.879   4.940
 4646SOL    HW214682   2.329   3.947   4.923
 4647SOL     OW14683   2.728   4.182   4.364
 4647SOL    HW114684   2.684   4.238   4.300
 4647SOL    HW214685   2.751   4.103   4.314
 4648SOL     OW14686   2.850   3.768   4.488
 4648SOL    HW114687   2.804   3.772   4.404
 4648SOL    HW214688   2.869   3.675   4.500
 4649SOL     OW14689   3.301   4.890   4.583
 4649SOL    HW114690   3.234   4.823   4.579
 4649SOL    HW214691   3.328   4.902   4.492
 4650SOL     OW14692   3.328   4.331   4.698
 4650SOL    HW114693   3.276   4.251   4.701
 4650SOL    HW214694   3.387   4.324   4.773
 4651SOL     OW14695   3.706   4.538   4.107
 4651SOL    HW114696   3.763   4.487   4.165
 4651SOL    HW214697   3.679   4.475   4.040
 4652SOL     OW14698   2.339   5.150   3.873
 4652SOL    HW114699   2.280   5.097   3.927
 4652SOL    HW214700   2.349   5.100   3.792
 4653SOL     OW14701   3.532   4.986   4.370
 4653SOL    HW114702   3.626   4.992   4.387
 4653SOL    HW214703   3.499   5.075   4.385
 4654SOL     OW14704   3.256   4.296   3.795
 4654SOL    HW114705   3.195   4.276   3.866
 4654SOL    HW214706   3.341   4.266   3.827
 4655SOL     OW14707   2.388   3.986   4.039
 4655SOL    HW114708   2.436   3.941   3.969
 4655SOL    HW214709   2.364   4.071   4.000
 4656SOL     OW14710   3.612   4.960   5.296
 4656SOL    HW114711   3.698   4.918   5.297
 4656SOL    HW214712   3.631   5.053   5.307
 4657SOL     OW14713   2.926   5.072   5.052
 4657SOL    HW114714   2.847   5.048   5.101
 4657SOL    HW214715   2.998   5.034   5.103
 4658SOL     OW14716   2.989   4.925   4.831
 4658SOL    HW114717   2.942   4.967   4.902
 4658SOL    HW214718   2.943   4.952   4.751
 4659SOL     OW14719   3.489   4.821   4.800
 4659SOL    HW114720   3.484   4.883   4.873
 4659SOL    HW214721   3.412   4.841   4.746
 4660SOL     OW14722   2.779   3.823   5.117
 4660SOL    HW114723   2.805   3.809   5.026
 4660SOL    HW214724   2.857   3.861   5.158
 4661SOL     OW14725   2.846   4.839   5.450
 4661SOL    HW114726   2.754   4.855   5.469
 4661SOL    HW214727   2.846   4.762   5.393
 4662SOL     OW14728   2.567   4.784   4.095
 4662SOL    HW114729   2.554   4.766   4.188
 4662SOL    HW214730   2.645   4.732   4.072
 4663SOL     OW14731   2.282   4.540   4.976
 4663SOL    HW114732   2.350   4.550   5.042
 4663SOL    HW214733   2.246   4.452   4.990
 4664SOL     OW14734   3.126   4.100   5.001
 4664SOL    HW114735   3.159   4.177   5.047
 4664SOL    HW214736   3.036   4.122   4.980
 4665SOL     OW14737   2.204   4.835   4.212
 4665SOL    HW114738   2.206   4.908   4.150
 4665SOL    HW214739   2.204   4.757   4.156
 4666SOL     OW14740   2.413   4.259   4.584
 4666SOL    HW114741   2.426   4.317   4.509
 4666SOL    HW214742   2.479   4.285   4.648
 4667SOL     OW14743   3.122   5.079   4.110
 4667SOL    HW114744   3.179   5.145   4.148
 4667SOL    HW214745   3.034   5.102   4.139
 4668SOL     OW14746   3.134   5.182   4.866
 4668SOL    HW114747   3.193   5.198   4.939
 4668SOL    HW214748   3.089   5.100   4.888
 4669SOL     OW14749   3.442   4.345   4.205
 4669SOL    HW114750   3.394   4.397   4.269
 4669SOL    HW214751   3.488   4.409   4.151
 4670SOL     OW14752   2.211   5.236   5.036
 4670SOL    HW114753   2.199   5.200   4.948
 4670SOL    HW214754   2.304   5.256   5.042
 4671SOL     OW14755   2.278   4.469   5.326
 4671SOL    HW114756   2.340   4.513   5.269
 4671SOL    HW214757   2.318   4.384   5.344
 4672SOL     OW14758   3.466   4.503   5.408
 4672SOL    HW114759   3.380   4.545   5.401
 4672SOL    HW214760   3.518   4.545   5.339
 4673SOL     OW14761   2.858   3.850   5.477
 4673SOL    HW114762   2.916   3.923   5.453
 4673SOL    HW214763   2.906   3.772   5.452
 4674SOL     OW14764   2.360   3.763   5.470
 4674SOL    HW114765   2.313   3.708   5.407
 4674SOL    HW214766   2.302   3.838   5.484
 4675SOL     OW14767   2.446   4.596   4.756
 4675SOL    HW114768   2.477   4.687   4.754
 4675SOL    HW214769   2.389   4.591   4.833
 4676SOL     OW14770   3.216   4.582   4.749
 4676SOL    HW114771   3.132   4.570   4.705
 4676SOL    HW214772   3.259   4.497   4.743
 4677SOL     OW14773   3.065   4.252   3.989
 4677SOL    HW114774   3.073   4.174   4.044
 4677SOL    HW214775   3.022   4.316   4.045
 4678SOL     OW14776   2.157   3.918   4.973
 4678SOL    HW114777   2.122   3.957   5.053
 4678SOL    HW214778   2.133   3.826   4.978
 4679SOL     OW14779   1.917   5.048   5.009
 4679SOL    HW114780   1.940   4.982   5.075
 4679SOL    HW214781   1.951   5.130   5.045
 4680SOL     OW14782   2.584   4.354   4.780
 4680SOL    HW114783   2.660   4.340   4.724
 4680SOL    HW214784   2.556   4.443   4.761
 4681SOL     OW14785   3.598   4.684   5.578
 4681SOL    HW114786   3.553   4.619   5.523
 4681SOL    HW214787   3.538   4.699   5.651
 4682SOL     OW14788   2.174   3.795   4.351
 4682SOL    HW114789   2.151   3.885   4.373
 4682SOL    HW214790   2.175   3.749   4.435
 4683SOL     OW14791   3.481   4.100   4.088
 4683SOL    HW114792   3.508   4.035   4.153
 4683SOL    HW214793   3.458   4.178   4.140
 4684SOL     OW14794   2.890   4.483   4.683
 4684SOL    HW114795   2.885   4.500   4.778
 4684SOL    HW214796   2.864   4.391   4.675
 4685SOL     OW14797   3.715   5.213   5.306
 4685SOL    HW114798   3.705   5.292   5.252
 4685SOL    HW214799   3.785   5.235   5.367
 4686SOL     OW14800   2.215   4.640   5.533
 4686SOL    HW114801   2.296   4.660   5.580
 4686SOL    HW214802   2.240   4.578   5.465
 4687SOL     OW14803   3.390   3.997   3.851
 4687SOL    HW114804   3.325   3.932   3.878
 4687SOL    HW214805   3.424   4.033   3.933
 4688SOL     OW14806   3.152   4.550   3.754
 4688SOL    HW114807   3.195   4.464   3.758
 4688SOL    HW214808   3.183   4.589   3.672
 4689SOL     OW14809   2.919   5.082   4.545
 4689SOL    HW114810   2.925   4.996   4.504
 4689SOL    HW214811   3.006   5.121   4.534
 4690SOL     OW14812   2.170   4.532   4.671
 4690SOL    HW114813   2.263   4.553   4.663
 4690SOL    HW214814   2.169   4.442   4.703
 4691SOL     OW14815   2.192   4.251   4.737
 4691SOL    HW114816   2.157   4.163   4.722
 4691SOL    HW214817   2.268   4.257   4.680
 4692SOL     OW14818   2.996   4.098   5.408
 4692SOL    HW114819   2.948   4.154   5.470
 4692SOL    HW214820   3.083   4.137   5.404
 4693SOL     OW14821   3.022   3.926   5.195
 4693SOL    HW114822   3.012   3.989   5.267
 4693SOL    HW214823   3.064   3.975   5.125
 4694SOL     OW14824   1.868   5.038   3.915
 4694SOL    HW114825   1.777   5.056   3.890
 4694SOL    HW214826   1.866   4.950   3.952
 4695SOL     OW14827   2.841   4.513   4.949
 4695SOL    HW114828   2.900   4.493   5.022
 4695SOL    HW214829   2.757   4.477   4.976
 4696SOL     OW14830   1.898   4.268   4.841
 4696SOL    HW114831   1.979   4.261   4.791
 4696SOL    HW214832   1.927   4.272   4.932
 4697SOL     OW14833   2.053   4.245   5.453
 4697SOL    HW114834   2.111   4.207   5.387
 4697SOL    HW214835   2.013   4.320   5.409
 4698SOL     OW14836   3.240   4.660   5.381
 4698SOL    HW114837   3.261   4.754   5.378
 4698SOL    HW214838   3.236   4.633   5.290
 4699SOL     OW14839   2.678   4.294   4.088
 4699SOL    HW114840   2.684   4.220   4.027
 4699SOL    HW214841   2.605   4.346   4.056
 4700SOL     OW14842   3.503   4.325   4.907
 4700SOL    HW114843   3.494   4.267   4.983
 4700SOL    HW214844   3.591   4.306   4.873
 4701SOL     OW14845   2.067   5.276   5.470
 4701SOL    HW114846   2.048   0.027   5.548
 4701SOL    HW214847   2.079   5.186   5.502
 4702SOL     OW14848   2.567   4.172   4.981
 4702SOL    HW114849   2.512   4.100   4.951
 4702SOL    HW214850   2.562   4.236   4.910
 4703SOL     OW14851   2.324   4.216   3.909
 4703SOL    HW114852   2.383   4.288   3.932
 4703SOL    HW214853   2.239   4.258   3.897
 4704SOL     OW14854   2.005   4.863   5.196
 4704SOL    HW114855   2.007   4.813   5.277
 4704SOL    HW214856   2.023   4.798   5.128
 4705SOL     OW14857   3.187   4.767   4.945
 4705SOL    HW114858   3.209   4.705   4.876
 4705SOL    HW214859   3.117   4.821   4.907
 4706SOL     OW14860   3.175   4.581   4.029
 4706SOL    HW114861   3.100   4.550   4.080
 4706SOL    HW214862   3.149   4.568   3.938
 4707SOL     OW14863   1.958   4.987   4.746
 4707SOL    HW114864   1.936   5.006   4.837
 4707SOL    HW214865   1.877   4.949   4.710
 4708SOL     OW14866   2.616   0.035   5.433
 4708SOL    HW114867   2.524   0.057   5.445
 4708SOL    HW214868   2.636   0.063   5.344
 4709SOL     OW14869   3.581   3.873   4.231
 4709SOL    HW114870   3.654   3.858   4.170
 4709SOL    HW214871   3.566   3.788   4.272
 4710SOL     OW14872   3.139   4.650   4.395
 4710SOL    HW114873   3.213   4.590   4.405
 4710SOL    HW214874   3.174   4.722   4.342
 4711SOL     OW14875   2.678   4.993   5.140
 4711SOL    HW114876   2.646   5.028   5.223
 4711SOL    HW214877   2.604   5.002   5.080
 4712SOL     OW14878   3.703   3.896   4.691
 4712SOL    HW114879   3.732   3.809   4.665
 4712SOL    HW214880   3.617   3.906   4.650
 4713SOL     OW14881   2.121   4.042   4.442
 4713SOL    HW114882   2.035   4.076   4.417
 4713SOL    HW214883   2.118   4.036   4.537
 4714SOL     OW14884   2.687   4.726   5.094
 4714SOL    HW114885   2.734   4.719   5.011
 4714SOL    HW214886   2.690   4.820   5.115
 4715SOL     OW14887   2.778   4.636   4.015
 4715SOL    HW114888   2.839   4.668   3.949
 4715SOL    HW214889   2.827   4.566   4.060
 4716SOL     OW14890   2.226   5.026   5.221
 4716SOL    HW114891   2.216   5.100   5.160
 4716SOL    HW214892   2.150   4.971   5.204
 4717SOL     OW14893   3.474   5.004   5.006
 4717SOL    HW114894   3.531   4.996   5.083
 4717SOL    HW214895   3.411   5.072   5.029
 4718SOL     OW14896   2.920   4.835   4.438
 4718SOL    HW114897   2.847   4.784   4.473
 4718SOL    HW214898   2.982   4.769   4.406
 4719SOL     OW14899   2.882   3.965   4.691
 4719SOL    HW114900   2.870   3.916   4.610
 4719SOL    HW214901   2.880   3.899   4.760
 4720SOL     OW14902   3.585   4.116   5.105
 4720SOL    HW114903   3.657   4.180   5.104
 4720SOL    HW214904   3.615   4.045   5.048
 4721SOL     OW14905   2.121   5.050   4.009
 4721SOL    HW114906   2.029   5.051   3.981
 4721SOL    HW214907   2.121   5.095   4.093
 4722SOL     OW14908   1.974   4.748   5.444
 4722SOL    HW114909   1.899   4.724   5.497
 4722SOL    HW214910   2.049   4.710   5.490
 4723SOL     OW14911   2.538   3.926   5.226
 4723SOL    HW114912   2.622   3.905   5.184
 4723SOL    HW214913   2.561   3.957   5.313
 4724SOL     OW14914   1.940   4.057   3.759
 4724SOL    HW114915   1.854   4.036   3.724
 4724SOL    HW214916   1.970   4.132   3.708
 4725SOL     OW14917   3.290   4.581   5.123
 4725SOL    HW114918   3.242   4.642   5.068
 4725SOL    HW214919   3.380   4.584   5.089
 4726SOL     OW14920   1.929   3.880   4.032
 4726SOL    HW114921   1.915   3.959   3.979
 4726SOL    HW214922   2.013   3.847   4.003
 4727SOL     OW14923   3.044   5.061   3.845
 4727SOL    HW114924   2.953   5.033   3.846
 4727SOL    HW214925   3.072   5.055   3.936
 4728SOL     OW14926   2.482   4.554   5.158
 4728SOL    HW114927   2.538   4.630   5.142
 4728SOL    HW214928   2.542   4.481   5.166
 4729SOL     OW14929   2.579   4.287   5.427
 4729SOL    HW114930   2.621   4.349   5.486
 4729SOL    HW214931   2.604   4.201   5.461
 4730SOL     OW14932   3.337   4.920   5.354
 4730SOL    HW114933   3.324   4.934   5.447
 4730SOL    HW214934   3.431   4.935   5.341
 4731SOL     OW14935   3.530   4.605   4.979
 4731SOL    HW114936   3.524   4.520   4.935
 4731SOL    HW214937   3.520   4.668   4.908
 4732SOL     OW14938   3.078   4.043   4.182
 4732SOL    HW114939   3.143   3.974   4.172
 4732SOL    HW214940   3.107   4.093   4.258
 4733SOL     OW14941   2.450   4.460   4.396
 4733SOL    HW114942   2.490   4.546   4.381
 4733SOL    HW214943   2.384   4.452   4.327
 4734SOL     OW14944   3.622   4.087   5.376
 4734SOL    HW114945   3.606   4.102   5.283
 4734SOL    HW214946   3.550   4.030   5.403
 4735SOL     OW14947   3.607   4.657   5.235
 4735SOL    HW114948   3.600   4.752   5.248
 4735SOL    HW214949   3.592   4.645   5.142
 4736SOL     OW14950   2.710   5.094   3.744
 4736SOL    HW114951   2.693   5.094   3.838
 4736SOL    HW214952   2.721   5.186   3.722
 4737SOL     OW14953   2.731   4.693   4.579
 4737SOL    HW114954   2.780   4.621   4.618
 4737SOL    HW214955   2.694   4.741   4.653
 4738SOL     OW14956   2.942   4.714   3.814
 4738SOL    HW114957   2.919   4.764   3.736
 4738SOL    HW214958   3.015   4.659   3.787
 4739SOL     OW14959   2.084   5.021   5.576
 4739SOL    HW114960   2.017   4.958   5.550
 4739SOL    HW214961   2.073   5.032   5.671
 4740SOL     OW14962   1.949   4.954   4.394
 4740SOL    HW114963   1.949   4.902   4.475
 4740SOL    HW214964   2.013   4.910   4.337
 4741SOL     OW14965   2.535   5.103   5.332
 4741SOL    HW114966   2.458   5.072   5.380
 4741SOL    HW214967   2.568   5.176   5.384
 4742SOL     OW14968   3.674   3.908   4.961
 4742SOL    HW114969   3.685   3.814   4.976
 4742SOL    HW214970   3.683   3.919   4.867
 4743SOL     OW14971   2.292   4.158   4.250
 4743SOL    HW114972   2.321   4.087   4.192
 4743SOL    HW214973   2.242   4.114   4.319
 4744SOL     OW14974   3.568   5.225   4.842
 4744SOL    HW114975   3.495   5.208   4.784
 4744SOL    HW214976   3.575   5.146   4.896
 4745SOL     OW14977   2.193   4.281   5.016
 4745SOL    HW114978   2.249   4.226   5.071
 4745SOL    HW214979   2.213   4.253   4.926
 4746SOL     OW14980   3.293   3.950   4.842
 4746SOL    HW114981   3.316   3.869   4.887
 4746SOL    HW214982   3.241   3.999   4.906
 4747SOL     OW14983   2.871   3.744   4.865
 4747SOL    HW114984   2.818   3.666   4.855
 4747SOL    HW214985   2.962   3.713   4.865
 4748SOL     OW14986   2.667   5.046   4.008
 4748SOL    HW114987   2.610   4.972   4.029
 4748SOL    HW214988   2.722   5.056   4.086
 4749SOL     OW14989   2.484   5.300   5.018
 4749SOL    HW114990   2.490   0.054   5.096
 4749SOL    HW214991   2.575   5.280   4.996
 4750SOL     OW14992   3.215   3.778   3.891
 4750SOL    HW114993   3.246   3.710   3.831
 4750SOL    HW214994   3.127   3.750   3.916
 4751SOL     OW14995   3.157   4.185   4.404
 4751SOL    HW114996   3.105   4.266   4.410
 4751SOL    HW214997   3.154   4.148   4.492
 4752SOL     OW14998   3.448   3.924   4.603
 4752SOL    HW114999   3.389   3.946   4.676
 4752SOL    HW215000   3.447   4.002   4.548
 4753SOL     OW15001   1.904   4.792   4.032
 4753SOL    HW115002   1.998   4.786   4.015
 4753SOL    HW215003   1.878   4.703   4.054
 4754SOL     OW15004   2.089   4.347   5.711
 4754SOL    HW115005   2.000   4.346   5.746
 4754SOL    HW215006   2.079   4.323   5.619
 4755SOL     OW15007   2.087   4.007   6.578
 4755SOL    HW115008   2.115   3.971   6.663
 4755SOL    HW215009   1.997   3.974   6.568
 4756SOL     OW15010   1.864   4.107   6.224
 4756SOL    HW115011   1.782   4.133   6.266
 4756SOL    HW215012   1.842   4.028   6.175
 4757SOL     OW15013   2.429   5.009   6.768
 4757SOL    HW115014   2.345   5.006   6.724
 4757SOL    HW215015   2.441   5.101   6.792
 4758SOL     OW15016   3.419   5.232   6.275
 4758SOL    HW115017   3.402   5.229   6.369
 4758SOL    HW215018   3.338   5.269   6.237
 4759SOL     OW15019   2.993   4.422   6.285
 4759SOL    HW115020   3.041   4.503   6.271
 4759SOL    HW215021   2.946   4.435   6.367
 4760SOL     OW15022   3.631   4.327   5.813
 4760SOL    HW115023   3.609   4.321   5.721
 4760SOL    HW215024   3.595   4.248   5.853
 4761SOL     OW15025   2.615   4.866   6.626
 4761SOL    HW115026   2.549   4.899   6.687
 4761SOL    HW215027   2.646   4.945   6.580
 4762SOL     OW15028   2.731   4.496   7.406
 4762SOL    HW115029   2.715   4.570   7.464
 4762SOL    HW215030   2.756   4.536   7.323
 4763SOL     OW15031   2.548   4.724   6.232
 4763SOL    HW115032   2.613   4.715   6.302
 4763SOL    HW215033   2.479   4.778   6.271
 4764SOL     OW15034   2.571   4.871   7.399
 4764SOL    HW115035   2.619   4.950   7.423
 4764SOL    HW215036   2.489   4.903   7.362
 4765SOL     OW15037   2.199   5.147   6.645
 4765SOL    HW115038   2.121   5.101   6.613
 4765SOL    HW215039   2.235   5.189   6.567
 4766SOL     OW15040   3.316   5.222   6.934
 4766SOL    HW115041   3.372   5.294   6.965
 4766SOL    HW215042   3.249   5.213   7.001
 4767SOL     OW15043   2.312   4.122   7.071
 4767SOL    HW115044   2.387   4.063   7.077
 4767SOL    HW215045   2.236   4.065   7.086
 4768SOL     OW15046   3.472   4.170   6.328
 4768SOL    HW115047   3.398   4.192   6.271
 4768SOL    HW215048   3.484   4.248   6.382
 4769SOL     OW15049   2.995   5.072   7.287
 4769SOL    HW115050   3.026   5.072   7.378
 4769SOL    HW215051   2.941   4.994   7.280
 4770SOL     OW15052   2.071   5.158   6.107
 4770SOL    HW115053   2.100   5.237   6.152
 4770SOL    HW215054   2.021   5.110   6.173
 4771SOL     OW15055   2.123   4.811   6.479
 4771SOL    HW115056   2.120   4.723   6.517
 4771SOL    HW215057   2.066   4.863   6.534
 4772SOL     OW15058   2.444   4.706   5.722
 4772SOL    HW115059   2.492   4.753   5.654
 4772SOL    HW215060   2.483   4.737   5.804
 4773SOL     OW15061   3.458   3.849   7.053
 4773SOL    HW115062   3.471   3.930   7.004
 4773SOL    HW215063   3.441   3.878   7.142
 4774SOL     OW15064   1.978   4.378   6.146
 4774SOL    HW115065   1.949   4.289   6.167
 4774SOL    HW215066   1.970   4.426   6.228
 4775SOL     OW15067   1.848   0.012   5.682
 4775SOL    HW115068   1.863   5.223   5.715
 4775SOL    HW215069   1.869   0.069   5.757
 4776SOL     OW15070   3.550   4.641   6.228
 4776SOL    HW115071   3.633   4.598   6.206
 4776SOL    HW215072   3.529   4.693   6.150
 4777SOL     OW15073   3.509   4.829   6.016
 4777SOL    HW115074   3.594   4.832   5.973
 4777SOL    HW215075   3.515   4.891   6.088
 4778SOL     OW15076   1.986   4.467   7.172
 4778SOL    HW115077   2.077   4.495   7.176
 4778SOL    HW215078   1.936   4.548   7.178
 4779SOL     OW15079   2.485   5.099   6.325
 4779SOL    HW115080   2.431   5.020   6.322
 4779SOL    HW215081   2.466   5.144   6.243
 4780SOL     OW15082   3.150   4.952   7.012
 4780SOL    HW115083   3.184   4.887   6.951
 4780SOL    HW215084   3.211   4.950   7.086
 4781SOL     OW15085   2.678   3.725   6.093
 4781SOL    HW115086   2.719   3.809   6.074
 4781SOL    HW215087   2.585   3.744   6.103
 4782SOL     OW15088   2.051   4.688   6.858
 4782SOL    HW115089   2.136   4.646   6.844
 4782SOL    HW215090   1.990   4.635   6.807
 4783SOL     OW15091   3.392   4.721   5.784
 4783SOL    HW115092   3.323   4.663   5.817
 4783SOL    HW215093   3.435   4.755   5.863
 4784SOL     OW15094   2.197   3.972   7.404
 4784SOL    HW115095   2.240   4.057   7.418
 4784SOL    HW215096   2.107   3.986   7.431
 4785SOL     OW15097   3.340   5.148   6.547
 4785SOL    HW115098   3.268   5.160   6.609
 4785SOL    HW215099   3.328   5.059   6.513
 4786SOL     OW15100   2.457   4.443   5.854
 4786SOL    HW115101   2.462   4.526   5.805
 4786SOL    HW215102   2.393   4.460   5.922
 4787SOL     OW15103   3.141   4.080   6.519
 4787SOL    HW115104   3.051   4.047   6.528
 4787SOL    HW215105   3.192   4.027   6.579
 4788SOL     OW15106   2.653   4.342   7.036
 4788SOL    HW115107   2.627   4.317   7.125
 4788SOL    HW215108   2.615   4.274   6.980
 4789SOL     OW15109   3.255   4.198   7.263
 4789SOL    HW115110   3.259   4.243   7.348
 4789SOL    HW215111   3.315   4.123   7.273
 4790SOL     OW15112   2.816   4.611   7.169
 4790SOL    HW115113   2.870   4.542   7.133
 4790SOL    HW215114   2.767   4.645   7.094
 4791SOL     OW15115   2.855   4.137   6.823
 4791SOL    HW115116   2.767   4.156   6.858
 4791SOL    HW215117   2.838   4.090   6.741
 4792SOL     OW15118   2.914   4.422   6.011
 4792SOL    HW115119   2.931   4.416   6.105
 4792SOL    HW215120   2.831   4.376   5.998
 4793SOL     OW15121   1.950   4.545   6.362
 4793SOL    HW115122   2.030   4.538   6.414
 4793SOL    HW215123   1.906   4.623   6.398
 4794SOL     OW15124   2.758   4.073   5.780
 4794SOL    HW115125   2.797   4.137   5.720
 4794SOL    HW215126   2.776   3.988   5.740
 4795SOL     OW15127   3.570   4.298   7.416
 4795SOL    HW115128   3.532   4.371   7.367
 4795SOL    HW215129   3.597   4.236   7.348
 4796SOL     OW15130   3.240   4.863   6.124
 4796SOL    HW115131   3.322   4.850   6.076
 4796SOL    HW215132   3.190   4.925   6.070
 4797SOL     OW15133   2.413   3.905   6.480
 4797SOL    HW115134   2.415   3.934   6.571
 4797SOL    HW215135   2.413   3.986   6.429
 4798SOL     OW15136   2.882   5.168   6.058
 4798SOL    HW115137   2.806   5.226   6.057
 4798SOL    HW215138   2.899   5.153   6.151
 4799SOL     OW15139   3.663   4.779   6.453
 4799SOL    HW115140   3.607   4.761   6.378
 4799SOL    HW215141   3.603   4.786   6.527
 4800SOL     OW15142   3.114   5.240   7.112
 4800SOL    HW115143   3.077   5.173   7.170
 4800SOL    HW215144   3.040   5.266   7.056
 4801SOL     OW15145   2.181   4.681   5.838
 4801SOL    HW115146   2.263   4.700   5.793
 4801SOL    HW215147   2.151   4.599   5.798
 4802SOL     OW15148   3.341   4.469   6.312
 4802SOL    HW115149   3.335   4.427   6.398
 4802SOL    HW215150   3.419   4.524   6.317
 4803SOL     OW15151   2.325   4.988   7.329
 4803SOL    HW115152   2.298   4.991   7.237
 4803SOL    HW215153   2.243   4.987   7.378
 4804SOL     OW15154   2.927   0.177   5.788
 4804SOL    HW115155   2.942   0.101   5.845
 4804SOL    HW215156   2.949   0.146   5.701
 4805SOL     OW15157   2.064   4.002   7.089
 4805SOL    HW115158   1.981   4.051   7.085
 4805SOL    HW215159   2.043   3.925   7.141
 4806SOL     OW15160   3.483   5.102   5.696
 4806SOL    HW115161   3.487   5.174   5.633
 4806SOL    HW215162   3.416   5.043   5.661
 4807SOL     OW15163   3.263   3.831   6.021
 4807SOL    HW115164   3.254   3.806   5.929
 4807SOL    HW215165   3.357   3.838   6.035
 4808SOL     OW15166   2.256   4.419   6.061
 4808SOL    HW115167   2.275   4.326   6.073
 4808SOL    HW215168   2.162   4.427   6.078
 4809SOL     OW15169   3.394   3.948   7.311
 4809SOL    HW115170   3.404   3.970   7.404
 4809SOL    HW215171   3.326   3.881   7.309
 4810SOL     OW15172   2.499   3.845   5.690
 4810SOL    HW115173   2.565   3.778   5.706
 4810SOL    HW215174   2.449   3.813   5.614
 4811SOL     OW15175   2.626   4.001   7.341
 4811SOL    HW115176   2.705   3.946   7.340
 4811SOL    HW215177   2.585   3.983   7.425
 4812SOL     OW15178   3.202   4.313   7.018
 4812SOL    HW115179   3.233   4.282   7.103
 4812SOL    HW215180   3.238   4.401   7.010
 4813SOL     OW15181   2.676   5.117   6.524
 4813SOL    HW115182   2.757   5.105   6.473
 4813SOL    HW215183   2.607   5.124   6.458
 4814SOL     OW15184   2.790   4.233   6.488
 4814SOL    HW115185   2.766   4.225   6.396
 4814SOL    HW215186   2.821   4.146   6.513
 4815SOL     OW15187   2.412   3.787   6.086
 4815SOL    HW115188   2.332   3.787   6.139
 4815SOL    HW215189   2.405   3.865   6.031
 4816SOL     OW15190   3.290   4.925   5.623
 4816SOL    HW115191   3.319   4.849   5.674
 4816SOL    HW215192   3.202   4.943   5.656
 4817SOL     OW15193   2.154   3.772   5.770
 4817SOL    HW115194   2.214   3.838   5.735
 4817SOL    HW215195   2.211   3.708   5.814
 4818SOL     OW15196   2.802   3.972   6.044
 4818SOL    HW115197   2.776   4.013   5.962
 4818SOL    HW215198   2.896   3.986   6.050
 4819SOL     OW15199   2.942   4.406   7.045
 4819SOL    HW115200   2.875   4.338   7.050
 4819SOL    HW215201   3.025   4.358   7.038
 4820SOL     OW15202   3.126   5.266   6.363
 4820SOL    HW115203   3.079   0.047   6.339
 4820SOL    HW215204   3.172   5.288   6.444
 4821SOL     OW15205   2.329   4.873   6.314
 4821SOL    HW115206   2.261   4.852   6.378
 4821SOL    HW215207   2.287   4.856   6.229
 4822SOL     OW15208   2.884   4.263   5.611
 4822SOL    HW115209   2.842   4.347   5.591
 4822SOL    HW215210   2.950   4.285   5.676
 4823SOL     OW15211   1.943   4.278   6.978
 4823SOL    HW115212   2.035   4.277   6.952
 4823SOL    HW215213   1.938   4.348   7.044
 4824SOL     OW15214   2.420   3.951   6.753
 4824SOL    HW115215   2.463   3.876   6.795
 4824SOL    HW215216   2.329   3.947   6.783
 4825SOL     OW15217   2.728   4.182   6.225
 4825SOL    HW115218   2.684   4.238   6.161
 4825SOL    HW215219   2.751   4.103   6.177
 4826SOL     OW15220   2.879   3.778   6.335
 4826SOL    HW115221   2.821   3.772   6.260
 4826SOL    HW215222   2.856   3.704   6.391
 4827SOL     OW15223   3.301   4.890   6.445
 4827SOL    HW115224   3.234   4.822   6.442
 4827SOL    HW215225   3.328   4.902   6.354
 4828SOL     OW15226   3.328   4.331   6.560
 4828SOL    HW115227   3.275   4.251   6.563
 4828SOL    HW215228   3.387   4.324   6.635
 4829SOL     OW15229   3.706   4.538   5.970
 4829SOL    HW115230   3.763   4.487   6.028
 4829SOL    HW215231   3.679   4.475   5.902
 4830SOL     OW15232   2.339   5.150   5.735
 4830SOL    HW115233   2.280   5.097   5.789
 4830SOL    HW215234   2.349   5.100   5.654
 4831SOL     OW15235   3.532   4.986   6.231
 4831SOL    HW115236   3.626   4.992   6.249
 4831SOL    HW215237   3.499   5.075   6.247
 4832SOL     OW15238   3.256   4.296   5.657
 4832SOL    HW115239   3.195   4.276   5.728
 4832SOL    HW215240   3.341   4.265   5.689
 4833SOL     OW15241   2.386   3.986   5.902
 4833SOL    HW115242   2.434   3.941   5.832
 4833SOL    HW215243   2.363   4.071   5.863
 4834SOL     OW15244   3.612   4.960   7.157
 4834SOL    HW115245   3.697   4.917   7.158
 4834SOL    HW215246   3.631   5.053   7.169
 4835SOL     OW15247   2.926   5.073   6.915
 4835SOL    HW115248   2.847   5.048   6.963
 4835SOL    HW215249   2.998   5.034   6.965
 4836SOL     OW15250   2.990   4.925   6.693
 4836SOL    HW115251   2.942   4.968   6.764
 4836SOL    HW215252   2.943   4.951   6.613
 4837SOL     OW15253   3.489   4.821   6.662
 4837SOL    HW115254   3.484   4.883   6.735
 4837SOL    HW215255   3.412   4.841   6.608
 4838SOL     OW15256   2.780   3.821   6.980
 4838SOL    HW115257   2.803   3.802   6.889
 4838SOL    HW215258   2.859   3.860   7.017
 4839SOL     OW15259   2.847   4.838   7.314
 4839SOL    HW115260   2.754   4.855   7.331
 4839SOL    HW215261   2.847   4.762   7.256
 4840SOL     OW15262   2.567   4.784   5.957
 4840SOL    HW115263   2.554   4.766   6.050
 4840SOL    HW215264   2.644   4.732   5.934
 4841SOL     OW15265   2.282   4.540   6.837
 4841SOL    HW115266   2.350   4.549   6.904
 4841SOL    HW215267   2.247   4.452   6.851
 4842SOL     OW15268   3.126   4.100   6.863
 4842SOL    HW115269   3.159   4.178   6.908
 4842SOL    HW215270   3.036   4.122   6.841
 4843SOL     OW15271   2.204   4.835   6.074
 4843SOL    HW115272   2.206   4.908   6.012
 4843SOL    HW215273   2.204   4.757   6.019
 4844SOL     OW15274   2.413   4.259   6.446
 4844SOL    HW115275   2.427   4.317   6.371
 4844SOL    HW215276   2.479   4.285   6.510
 4845SOL     OW15277   3.122   5.079   5.972
 4845SOL    HW115278   3.179   5.145   6.010
 4845SOL    HW215279   3.034   5.102   6.001
 4846SOL     OW15280   3.134   5.183   6.728
 4846SOL    HW115281   3.193   5.198   6.801
 4846SOL    HW215282   3.089   5.100   6.749
 4847SOL     OW15283   3.442   4.345   6.067
 4847SOL    HW115284   3.394   4.397   6.131
 4847SOL    HW215285   3.488   4.410   6.013
 4848SOL     OW15286   2.211   5.236   6.899
 4848SOL    HW115287   2.199   5.200   6.810
 4848SOL    HW215288   2.304   5.256   6.904
 4849SOL     OW15289   2.277   4.469   7.188
 4849SOL    HW115290   2.340   4.513   7.131
 4849SOL    HW215291   2.315   4.383   7.204
 4850SOL     OW15292   3.466   4.504   7.270
 4850SOL    HW115293   3.380   4.545   7.263
 4850SOL    HW215294   3.518   4.545   7.202
 4851SOL     OW15295   2.858   3.851   7.339
 4851SOL    HW115296   2.916   3.923   7.314
 4851SOL    HW215297   2.905   3.772   7.314
 4852SOL     OW15298   2.360   3.763   7.334
 4852SOL    HW115299   2.315   3.709   7.269
 4852SOL    HW215300   2.302   3.838   7.347
 4853SOL     OW15301   2.446   4.597   6.617
 4853SOL    HW115302   2.476   4.687   6.617
 4853SOL    HW215303   2.389   4.591   6.695
 4854SOL     OW15304   3.216   4.582   6.611
 4854SOL    HW115305   3.132   4.570   6.568
 4854SOL    HW215306   3.259   4.497   6.605
 4855SOL     OW15307   3.065   4.252   5.851
 4855SOL    HW115308   3.073   4.174   5.906
 4855SOL    HW215309   3.022   4.316   5.907
 4856SOL     OW15310   2.160   3.922   6.833
 4856SOL    HW115311   2.123   3.954   6.915
 4856SOL    HW215312   2.141   3.828   6.833
 4857SOL     OW15313   1.917   5.048   6.871
 4857SOL    HW115314   1.940   4.982   6.936
 4857SOL    HW215315   1.951   5.130   6.907
 4858SOL     OW15316   2.584   4.354   6.642
 4858SOL    HW115317   2.660   4.339   6.585
 4858SOL    HW215318   2.556   4.443   6.622
 4859SOL     OW15319   3.599   4.684   7.439
 4859SOL    HW115320   3.552   4.620   7.386
 4859SOL    HW215321   3.541   4.700   7.514
 4860SOL     OW15322   2.167   3.787   6.210
 4860SOL    HW115323   2.146   3.878   6.232
 4860SOL    HW215324   2.175   3.743   6.294
 4861SOL     OW15325   3.480   4.099   5.951
 4861SOL    HW115326   3.508   4.035   6.016
 4861SOL    HW215327   3.457   4.177   6.002
 4862SOL     OW15328   2.890   4.483   6.546
 4862SOL    HW115329   2.885   4.500   6.640
 4862SOL    HW215330   2.864   4.391   6.537
 4863SOL     OW15331   3.715   5.212   7.166
 4863SOL    HW115332   3.704   5.291   7.113
 4863SOL    HW215333   3.786   5.234   7.227
 4864SOL     OW15334   2.215   4.639   7.395
 4864SOL    HW115335   2.297   4.659   7.440
 4864SOL    HW215336   2.239   4.577   7.327
 4865SOL     OW15337   3.390   3.997   5.713
 4865SOL    HW115338   3.325   3.931   5.740
 4865SOL    HW215339   3.423   4.032   5.795
 4866SOL     OW15340   3.152   4.549   5.616
 4866SOL    HW115341   3.195   4.464   5.620
 4866SOL    HW215342   3.183   4.589   5.534
 4867SOL     OW15343   2.918   5.083   6.406
 4867SOL    HW115344   2.925   4.996   6.366
 4867SOL    HW215345   3.006   5.120   6.396
 4868SOL     OW15346   2.170   4.532   6.533
 4868SOL    HW115347   2.263   4.553   6.526
 4868SOL    HW215348   2.168   4.442   6.565
 4869SOL     OW15349   2.192   4.252   6.599
 4869SOL    HW115350   2.157   4.164   6.585
 4869SOL    HW215351   2.268   4.257   6.542
 4870SOL     OW15352   2.996   4.099   7.268
 4870SOL    HW115353   2.948   4.153   7.330
 4870SOL    HW215354   3.084   4.138   7.264
 4871SOL     OW15355   3.023   3.925   7.056
 4871SOL    HW115356   3.012   3.988   7.128
 4871SOL    HW215357   3.064   3.975   6.986
 4872SOL     OW15358   1.868   5.038   5.777
 4872SOL    HW115359   1.777   5.056   5.752
 4872SOL    HW215360   1.866   4.950   5.814
 4873SOL     OW15361   2.841   4.514   6.812
 4873SOL    HW115362   2.899   4.493   6.884
 4873SOL    HW215363   2.757   4.475   6.836
 4874SOL     OW15364   1.898   4.270   6.703
 4874SOL    HW115365   1.978   4.258   6.652
 4874SOL    HW215366   1.927   4.272   6.794
 4875SOL     OW15367   2.055   4.244   7.315
 4875SOL    HW115368   2.108   4.202   7.247
 4875SOL    HW215369   2.015   4.319   7.270
 4876SOL     OW15370   3.240   4.661   7.244
 4876SOL    HW115371   3.260   4.754   7.241
 4876SOL    HW215372   3.236   4.634   7.152
 4877SOL     OW15373   2.678   4.293   5.949
 4877SOL    HW115374   2.683   4.219   5.888
 4877SOL    HW215375   2.605   4.346   5.918
 4878SOL     OW15376   3.503   4.325   6.770
 4878SOL    HW115377   3.493   4.267   6.845
 4878SOL    HW215378   3.591   4.306   6.736
 4879SOL     OW15379   2.066   5.274   7.330
 4879SOL    HW115380   2.028   0.021   7.405
 4879SOL    HW215381   2.081   5.185   7.363
 4880SOL     OW15382   2.567   4.172   6.843
 4880SOL    HW115383   2.513   4.099   6.815
 4880SOL    HW215384   2.562   4.236   6.772
 4881SOL     OW15385   2.325   4.216   5.770
 4881SOL    HW115386   2.383   4.288   5.793
 4881SOL    HW215387   2.239   4.258   5.759
 4882SOL     OW15388   2.006   4.863   7.058
 4882SOL    HW115389   2.007   4.813   7.139
 4882SOL    HW215390   2.023   4.798   6.989
 4883SOL     OW15391   3.187   4.767   6.807
 4883SOL    HW115392   3.209   4.705   6.738
 4883SOL    HW215393   3.117   4.821   6.769
 4884SOL     OW15394   3.174   4.582   5.891
 4884SOL    HW115395   3.100   4.550   5.942
 4884SOL    HW215396   3.149   4.567   5.800
 4885SOL     OW15397   1.958   4.987   6.608
 4885SOL    HW115398   1.936   5.006   6.699
 4885SOL    HW215399   1.878   4.949   6.572
 4886SOL     OW15400   2.616   0.033   7.297
 4886SOL    HW115401   2.523   0.057   7.308
 4886SOL    HW215402   2.638   0.062   7.209
 4887SOL     OW15403   3.582   3.873   6.094
 4887SOL    HW115404   3.654   3.858   6.032
 4887SOL    HW215405   3.566   3.788   6.134
 4888SOL     OW15406   3.139   4.650   6.258
 4888SOL    HW115407   3.213   4.590   6.267
 4888SOL    HW215408   3.174   4.722   6.204
 4889SOL     OW15409   2.678   4.993   7.001
 4889SOL    HW115410   2.646   5.028   7.085
 4889SOL    HW215411   2.604   5.001   6.941
 4890SOL     OW15412   3.703   3.896   6.552
 4890SOL    HW115413   3.732   3.809   6.526
 4890SOL    HW215414   3.617   3.906   6.512
 4891SOL     OW15415   2.122   4.039   6.302
 4891SOL    HW115416   2.036   4.074   6.279
 4891SOL    HW215417   2.120   4.032   6.398
 4892SOL     OW15418   2.687   4.727   6.957
 4892SOL    HW115419   2.734   4.718   6.874
 4892SOL    HW215420   2.690   4.820   6.977
 4893SOL     OW15421   2.778   4.635   5.877
 4893SOL    HW115422   2.839   4.668   5.810
 4893SOL    HW215423   2.827   4.566   5.922
 4894SOL     OW15424   2.225   5.027   7.084
 4894SOL    HW115425   2.216   5.100   7.023
 4894SOL    HW215426   2.150   4.971   7.066
 4895SOL     OW15427   3.474   5.004   6.868
 4895SOL    HW115428   3.530   4.995   6.945
 4895SOL    HW215429   3.411   5.072   6.891
 4896SOL     OW15430   2.920   4.835   6.299
 4896SOL    HW115431   2.847   4.784   6.335
 4896SOL    HW215432   2.982   4.769   6.269
 4897SOL     OW15433   2.884   3.965   6.552
 4897SOL    HW115434   2.880   3.917   6.469
 4897SOL    HW215435   2.879   3.896   6.619
 4898SOL     OW15436   3.586   4.116   6.967
 4898SOL    HW115437   3.658   4.179   6.966
 4898SOL    HW215438   3.615   4.045   6.910
 4899SOL     OW15439   2.121   5.050   5.871
 4899SOL    HW115440   2.029   5.051   5.843
 4899SOL    HW215441   2.121   5.095   5.955
 4900SOL     OW15442   1.975   4.750   7.307
 4900SOL    HW115443   1.899   4.725   7.358
 4900SOL    HW215444   2.049   4.710   7.352
 4901SOL     OW15445   2.537   3.920   7.086
 4901SOL    HW115446   2.621   3.900   7.045
 4901SOL    HW215447   2.559   3.951   7.173
 4902SOL     OW15448   1.942   4.054   5.619
 4902SOL    HW115449   1.853   4.038   5.587
 4902SOL    HW215450   1.971   4.131   5.569
 4903SOL     OW15451   3.290   4.581   6.985
 4903SOL    HW115452   3.242   4.642   6.930
 4903SOL    HW215453   3.380   4.584   6.951
 4904SOL     OW15454   1.928   3.879   5.893
 4904SOL    HW115455   1.915   3.959   5.843
 4904SOL    HW215456   2.013   3.846   5.864
 4905SOL     OW15457   3.044   5.061   5.707
 4905SOL    HW115458   2.953   5.033   5.708
 4905SOL    HW215459   3.072   5.055   5.798
 4906SOL     OW15460   2.481   4.555   7.020
 4906SOL    HW115461   2.539   4.630   7.004
 4906SOL    HW215462   2.541   4.480   7.028
 4907SOL     OW15463   2.580   4.286   7.289
 4907SOL    HW115464   2.622   4.347   7.349
 4907SOL    HW215465   2.604   4.199   7.322
 4908SOL     OW15466   3.337   4.920   7.217
 4908SOL    HW115467   3.324   4.934   7.311
 4908SOL    HW215468   3.430   4.935   7.203
 4909SOL     OW15469   3.530   4.605   6.841
 4909SOL    HW115470   3.524   4.519   6.798
 4909SOL    HW215471   3.520   4.668   6.770
 4910SOL     OW15472   3.078   4.043   6.044
 4910SOL    HW115473   3.141   3.971   6.036
 4910SOL    HW215474   3.107   4.092   6.120
 4911SOL     OW15475   2.451   4.460   6.257
 4911SOL    HW115476   2.490   4.546   6.243
 4911SOL    HW215477   2.384   4.452   6.189
 4912SOL     OW15478   3.621   4.087   7.239
 4912SOL    HW115479   3.606   4.103   7.145
 4912SOL    HW215480   3.549   4.030   7.265
 4913SOL     OW15481   3.608   4.657   7.097
 4913SOL    HW115482   3.600   4.752   7.111
 4913SOL    HW215483   3.592   4.644   7.004
 4914SOL     OW15484   2.710   5.094   5.606
 4914SOL    HW115485   2.693   5.094   5.700
 4914SOL    HW215486   2.721   5.186   5.584
 4915SOL     OW15487   2.731   4.693   6.441
 4915SOL    HW115488   2.780   4.621   6.480
 4915SOL    HW215489   2.694   4.741   6.515
 4916SOL     OW15490   2.941   4.713   5.676
 4916SOL    HW115491   2.919   4.764   5.598
 4916SOL    HW215492   3.015   4.659   5.649
 4917SOL     OW15493   2.082   5.020   7.441
 4917SOL    HW115494   2.020   4.955   7.409
 4917SOL    HW215495   2.058   5.034   7.532
 4918SOL     OW15496   1.949   4.954   6.256
 4918SOL    HW115497   1.949   4.902   6.337
 4918SOL    HW215498   2.013   4.909   6.200
 4919SOL     OW15499   2.534   5.102   7.195
 4919SOL    HW115500   2.457   5.073   7.242
 4919SOL    HW215501   2.567   5.176   7.246
 4920SOL     OW15502   3.674   3.908   6.823
 4920SOL    HW115503   3.683   3.814   6.837
 4920SOL    HW215504   3.684   3.919   6.729
 4921SOL     OW15505   2.291   4.158   6.112
 4921SOL    HW115506   2.321   4.087   6.055
 4921SOL    HW215507   2.242   4.114   6.181
 4922SOL     OW15508   3.568   5.225   6.704
 4922SOL    HW115509   3.495   5.208   6.646
 4922SOL    HW215510   3.575   5.146   6.758
 4923SOL     OW15511   2.194   4.281   6.878
 4923SOL    HW115512   2.249   4.225   6.933
 4923SOL    HW215513   2.212   4.252   6.789
 4924SOL     OW15514   3.293   3.951   6.703
 4924SOL    HW115515   3.316   3.869   6.749
 4924SOL    HW215516   3.242   4.000   6.767
 4925SOL     OW15517   2.871   3.742   6.726
 4925SOL    HW115518   2.815   3.674   6.688
 4925SOL    HW215519   2.959   3.704   6.728
 4926SOL     OW15520   2.667   5.046   5.870
 4926SOL    HW115521   2.610   4.972   5.891
 4926SOL    HW215522   2.722   5.056   5.948
 4927SOL     OW15523   2.484   5.300   6.880
 4927SOL    HW115524   2.490   0.054   6.959
 4927SOL    HW215525   2.575   5.280   6.858
 4928SOL     OW15526   3.215   3.777   5.753
 4928SOL    HW115527   3.246   3.711   5.691
 4928SOL    HW215528   3.127   3.748   5.778
 4929SOL     OW15529   3.157   4.185   6.266
 4929SOL    HW115530   3.105   4.265   6.272
 4929SOL    HW215531   3.153   4.147   6.353
 4930SOL     OW15532   3.448   3.923   6.465
 4930SOL    HW115533   3.389   3.946   6.538
 4930SOL    HW215534   3.447   4.001   6.409
 4931SOL     OW15535   1.904   4.792   5.894
 4931SOL    HW115536   1.998   4.786   5.877
 4931SOL    HW215537   1.878   4.703   5.916
 4932SOL     OW15538   2.089   4.344   7.573
 4932SOL    HW115539   1.999   4.350   7.605
 4932SOL    HW215540   2.081   4.321   7.481
 4933SOL     OW15541   3.630   4.320   7.679
 4933SOL    HW115542   3.609   4.316   7.585
 4933SOL    HW215543   3.589   4.242   7.716
 4934SOL     OW15544   2.140   0.124   7.958
 4934SOL    HW115545   2.116   0.210   7.993
 4934SOL    HW215546   2.145   0.137   7.863
 4935SOL     OW15547   2.078   5.157   7.992
 4935SOL    HW115548   2.094   5.251   7.997
 4935SOL    HW215549   2.021   5.138   8.067
 4936SOL     OW15550   2.445   4.706   7.581
 4936SOL    HW115551   2.491   4.754   7.512
 4936SOL    HW215552   2.484   4.738   7.662
 4937SOL     OW15553   1.863   0.009   7.535
 4937SOL    HW115554   1.865   5.220   7.572
 4937SOL    HW215555   1.862   0.067   7.611
 4938SOL     OW15556   3.544   4.587   8.031
 4938SOL    HW115557   3.621   4.598   0.006
 4938SOL    HW215558   3.531   4.672   7.989
 4939SOL     OW15559   3.520   4.824   7.877
 4939SOL    HW115560   3.608   4.843   7.847
 4939SOL    HW215561   3.498   4.896   7.936
 4940SOL     OW15562   2.664   3.720   7.940
 4940SOL    HW115563   2.713   3.800   7.921
 4940SOL    HW215564   2.573   3.748   7.946
 4941SOL     OW15565   3.394   4.723   7.650
 4941SOL    HW115566   3.328   4.663   7.684
 4941SOL    HW215567   3.439   4.756   7.727
 4942SOL     OW15568   2.452   4.448   7.709
 4942SOL    HW115569   2.454   4.531   7.661
 4942SOL    HW215570   2.393   4.464   7.782
 4943SOL     OW15571   1.920   4.588   0.086
 4943SOL    HW115572   1.983   4.521   0.111
 4943SOL    HW215573   1.922   4.651   0.158
 4944SOL     OW15574   2.748   4.073   7.638
 4944SOL    HW115575   2.789   4.133   7.576
 4944SOL    HW215576   2.781   3.986   7.614
 4945SOL     OW15577   2.183   4.680   7.698
 4945SOL    HW115578   2.264   4.697   7.648
 4945SOL    HW215579   2.146   4.602   7.658
 4946SOL     OW15580   2.951   0.187   7.642
 4946SOL    HW115581   2.920   0.121   7.705
 4946SOL    HW215582   2.942   0.144   7.557
 4947SOL     OW15583   3.489   5.100   7.551
 4947SOL    HW115584   3.476   5.179   7.499
 4947SOL    HW215585   3.419   5.041   7.523
 4948SOL     OW15586   3.279   3.857   7.864
 4948SOL    HW115587   3.268   3.822   7.775
 4948SOL    HW215588   3.374   3.856   7.878
 4949SOL     OW15589   2.255   4.423   7.917
 4949SOL    HW115590   2.253   4.328   7.927
 4949SOL    HW215591   2.164   4.450   7.931
 4950SOL     OW15592   2.494   3.842   7.559
 4950SOL    HW115593   2.565   3.780   7.570
 4950SOL    HW215594   2.448   3.812   7.481
 4951SOL     OW15595   2.395   3.800   7.959
 4951SOL    HW115596   2.309   3.804   8.002
 4951SOL    HW215597   2.393   3.870   7.895
 4952SOL     OW15598   3.290   4.926   7.487
 4952SOL    HW115599   3.319   4.851   7.539
 4952SOL    HW215600   3.202   4.945   7.520
 4953SOL     OW15601   2.154   3.773   7.633
 4953SOL    HW115602   2.212   3.834   7.587
 4953SOL    HW215603   2.212   3.709   7.673
 4954SOL     OW15604   2.806   3.950   7.908
 4954SOL    HW115605   2.764   4.015   7.852
 4954SOL    HW215606   2.897   3.979   7.914
 4955SOL     OW15607   2.300   4.872   0.099
 4955SOL    HW115608   2.227   4.915   0.144
 4955SOL    HW215609   2.269   4.861   0.009
 4956SOL     OW15610   2.886   4.263   7.469
 4956SOL    HW115611   2.841   4.346   7.452
 4956SOL    HW215612   2.946   4.283   7.541
 4957SOL     OW15613   3.737   4.537   7.802
 4957SOL    HW115614   3.720   4.517   7.894
 4957SOL    HW215615   3.697   4.465   7.753
 4958SOL     OW15616   2.330   5.154   7.598
 4958SOL    HW115617   2.275   5.100   7.655
 4958SOL    HW215618   2.344   5.099   7.520
 4959SOL     OW15619   3.256   4.296   7.519
 4959SOL    HW115620   3.194   4.275   7.589
 4959SOL    HW215621   3.340   4.263   7.550
 4960SOL     OW15622   2.387   3.990   7.769
 4960SOL    HW115623   2.433   3.941   7.701
 4960SOL    HW215624   2.363   4.073   7.728
 4961SOL     OW15625   2.572   4.786   7.811
 4961SOL    HW115626   2.545   4.770   7.901
 4961SOL    HW215627   2.652   4.734   7.800
 4962SOL     OW15628   2.226   4.830   7.925
 4962SOL    HW115629   2.202   4.909   7.875
 4962SOL    HW215630   2.213   4.758   7.862
 4963SOL     OW15631   3.086   5.115   7.833
 4963SOL    HW115632   3.173   5.123   7.871
 4963SOL    HW215633   3.037   5.061   7.894
 4964SOL     OW15634   3.450   4.349   7.920
 4964SOL    HW115635   3.440   4.408   7.995
 4964SOL    HW215636   3.486   4.404   7.851
 4965SOL     OW15637   3.064   4.249   7.713
 4965SOL    HW115638   3.066   4.167   7.761
 4965SOL    HW215639   3.040   4.315   7.778
 4966SOL     OW15640   3.482   4.104   7.812
 4966SOL    HW115641   3.504   4.037   7.877
 4966SOL    HW215642   3.457   4.181   7.863
 4967SOL     OW15643   3.390   3.999   7.574
 4967SOL    HW115644   3.325   3.933   7.600
 4967SOL    HW215645   3.423   4.034   7.657
 4968SOL     OW15646   3.155   4.551   7.480
 4968SOL    HW115647   3.196   4.464   7.482
 4968SOL    HW215648   3.185   4.590   7.398
 4969SOL     OW15649   1.871   5.044   7.640
 4969SOL    HW115650   1.781   5.057   7.612
 4969SOL    HW215651   1.872   4.955   7.675
 4970SOL     OW15652   2.705   4.331   7.756
 4970SOL    HW115653   2.699   4.239   7.732
 4970SOL    HW215654   2.615   4.362   7.758
 4971SOL     OW15655   2.322   4.217   7.641
 4971SOL    HW115656   2.381   4.290   7.656
 4971SOL    HW215657   2.237   4.258   7.623
 4972SOL     OW15658   3.173   4.579   7.753
 4972SOL    HW115659   3.086   4.585   7.792
 4972SOL    HW215660   3.156   4.566   7.660
 4973SOL     OW15661   3.574   3.873   7.944
 4973SOL    HW115662   3.650   3.866   7.887
 4973SOL    HW215663   3.579   3.795   8.000
 4974SOL     OW15664   2.790   4.631   7.759
 4974SOL    HW115665   2.842   4.656   7.683
 4974SOL    HW215666   2.780   4.536   7.752
 4975SOL     OW15667   2.121   5.055   7.750
 4975SOL    HW115668   2.030   5.058   7.719
 4975SOL    HW215669   2.119   5.095   7.836
 4976SOL     OW15670   1.940   4.055   7.482
 4976SOL    HW115671   1.854   4.036   7.445
 4976SOL    HW215672   1.971   4.131   7.434
 4977SOL     OW15673   1.929   3.880   7.755
 4977SOL    HW115674   1.914   3.956   7.699
 4977SOL    HW215675   2.013   3.844   7.725
 4978SOL     OW15676   3.042   5.056   7.566
 4978SOL    HW115677   2.950   5.031   7.563
 4978SOL    HW215678   3.060   5.074   7.658
 4979SOL     OW15679   3.076   4.042   7.904
 4979SOL    HW115680   3.150   3.982   7.892
 4979SOL    HW215681   3.096   4.089   7.984
 4980SOL     OW15682   2.492   4.460   8.052
 4980SOL    HW115683   2.494   4.540   0.024
 4980SOL    HW215684   2.404   4.458   8.014
 4981SOL     OW15685   2.712   5.093   7.467
 4981SOL    HW115686   2.696   5.093   7.561
 4981SOL    HW215687   2.720   5.185   7.444
 4982SOL     OW15688   2.934   4.702   7.539
 4982SOL    HW115689   2.914   4.758   7.465
 4982SOL    HW215690   3.011   4.653   7.512
 4983SOL     OW15691   2.248   4.153   7.985
 4983SOL    HW115692   2.298   4.101   7.922
 4983SOL    HW215693   2.300   4.151   8.065
 4984SOL     OW15694   2.669   5.050   7.731
 4984SOL    HW115695   2.620   4.970   7.752
 4984SOL    HW215696   2.680   5.094   7.815
 4985SOL     OW15697   3.216   3.776   7.610
 4985SOL    HW115698   3.246   3.706   7.552
 4985SOL    HW215699   3.129   3.748   7.638
 4986SOL     OW15700   1.914   4.800   7.750
 4986SOL    HW115701   2.009   4.793   7.739
 4986SOL    HW215702   1.885   4.710   7.764
 4987SOL     OW15703   3.937   0.623   0.122
 4987SOL    HW115704   3.858   0.588   0.164
 4987SOL    HW215705   3.963   0.556   0.059
 4988SOL     OW15706   3.940   0.286   0.994
 4988SOL    HW115707   3.970   0.249   1.077
 4988SOL    HW215708   3.857   0.242   0.976
 4989SOL     OW15709   3.726   0.388   0.637
 4989SOL    HW115710   3.642   0.410   0.678
 4989SOL    HW215711   3.708   0.310   0.585
 4990SOL     OW15712   4.291   1.291   1.178
 4990SOL    HW115713   4.204   1.295   1.139
 4990SOL    HW215714   4.307   1.380   1.210
 4991SOL     OW15715   5.285   1.551   0.707
 4991SOL    HW115716   5.250   1.497   0.778
 4991SOL    HW215717   5.227   1.535   0.633
 4992SOL     OW15718   4.861   0.699   0.700
 4992SOL    HW115719   4.911   0.780   0.690
 4992SOL    HW215720   4.811   0.711   0.780
 4993SOL     OW15721   4.476   1.141   1.043
 4993SOL    HW115722   4.408   1.176   1.100
 4993SOL    HW215723   4.512   1.217   0.998
 4994SOL     OW15724   4.595   0.773   1.824
 4994SOL    HW115725   4.576   0.845   1.885
 4994SOL    HW215726   4.617   0.817   1.742
 4995SOL     OW15727   4.408   0.999   0.649
 4995SOL    HW115728   4.474   0.990   0.718
 4995SOL    HW215729   4.340   1.053   0.689
 4996SOL     OW15730   4.436   1.150   1.815
 4996SOL    HW115731   4.484   1.229   1.843
 4996SOL    HW215732   4.355   1.184   1.778
 4997SOL     OW15733   4.054   1.423   1.068
 4997SOL    HW115734   3.981   1.384   1.019
 4997SOL    HW215735   4.103   1.473   1.002
 4998SOL     OW15736   5.160   1.479   1.356
 4998SOL    HW115737   5.210   1.558   1.379
 4998SOL    HW215738   5.098   1.468   1.427
 4999SOL     OW15739   4.170   0.398   1.482
 4999SOL    HW115740   4.245   0.339   1.484
 4999SOL    HW215741   4.094   0.341   1.500
 5000SOL     OW15742   3.945   1.715   0.470
 5000SOL    HW115743   3.965   1.790   0.525
 5000SOL    HW215744   4.021   1.706   0.412
 5001SOL     OW15745   4.859   1.340   1.695
 5001SOL    HW115746   4.898   1.336   1.782
 5001SOL    HW215747   4.807   1.260   1.687
 5002SOL     OW15748   3.950   1.441   0.527
 5002SOL    HW115749   3.937   1.535   0.531
 5002SOL    HW215750   3.893   1.406   0.596
 5003SOL     OW15751   3.984   1.090   0.891
 5003SOL    HW115752   3.981   1.003   0.931
 5003SOL    HW215753   3.926   1.144   0.946
 5004SOL     OW15754   4.330   1.793   1.425
 5004SOL    HW115755   4.250   1.775   1.474
 5004SOL    HW215756   4.355   1.881   1.453
 5005SOL     OW15757   4.350   0.959   0.137
 5005SOL    HW115758   4.296   1.034   0.112
 5005SOL    HW215759   4.403   0.990   0.210
 5006SOL     OW15760   5.251   0.142   1.480
 5006SOL    HW115761   0.001   0.222   1.464
 5006SOL    HW215762   5.271   0.119   1.571
 5007SOL     OW15763   3.840   0.652   0.563
 5007SOL    HW115764   3.810   0.563   0.584
 5007SOL    HW215765   3.831   0.700   0.645
 5008SOL     OW15766   3.757   1.594   0.110
 5008SOL    HW115767   3.742   1.507   0.145
 5008SOL    HW215768   3.739   1.653   0.183
 5009SOL     OW15769   0.116   0.947   0.596
 5009SOL    HW115770   0.204   0.910   0.588
 5009SOL    HW215771   0.111   1.013   0.527
 5010SOL     OW15772   3.847   0.745   1.583
 5010SOL    HW115773   3.939   0.773   1.589
 5010SOL    HW215774   3.797   0.826   1.591
 5011SOL     OW15775   4.338   1.388   0.734
 5011SOL    HW115776   4.293   1.304   0.744
 5011SOL    HW215777   4.322   1.414   0.644
 5012SOL     OW15778   5.003   1.234   1.424
 5012SOL    HW115779   5.037   1.168   1.364
 5012SOL    HW215780   5.060   1.228   1.501
 5013SOL     OW15781   4.537   0.030   0.531
 5013SOL    HW115782   4.567   0.116   0.499
 5013SOL    HW215783   4.442   0.034   0.524
 5014SOL     OW15784   3.913   0.965   1.273
 5014SOL    HW115785   3.999   0.924   1.259
 5014SOL    HW215786   3.852   0.911   1.223
 5015SOL     OW15787   4.895   1.808   1.625
 5015SOL    HW115788   4.915   1.869   1.553
 5015SOL    HW215789   4.919   1.722   1.591
 5016SOL     OW15790   4.053   0.269   1.814
 5016SOL    HW115791   4.104   0.342   1.847
 5016SOL    HW215792   3.966   0.281   1.853
 5017SOL     OW15793   5.167   1.436   0.933
 5017SOL    HW115794   5.106   1.442   1.006
 5017SOL    HW215795   5.161   1.345   0.904
 5018SOL     OW15796   4.322   0.713   0.283
 5018SOL    HW115797   4.338   0.794   0.234
 5018SOL    HW215798   4.257   0.738   0.349
 5019SOL     OW15799   4.995   0.328   0.919
 5019SOL    HW115800   4.905   0.305   0.942
 5019SOL    HW215801   5.047   0.299   0.993
 5020SOL     OW15802   4.517   0.619   1.448
 5020SOL    HW115803   4.490   0.596   1.537
 5020SOL    HW215804   4.477   0.551   1.393
 5021SOL     OW15805   5.116   0.489   1.680
 5021SOL    HW115806   5.120   0.522   1.770
 5021SOL    HW215807   5.182   0.420   1.677
 5022SOL     OW15808   4.677   0.887   1.584
 5022SOL    HW115809   4.729   0.816   1.547
 5022SOL    HW215810   4.628   0.922   1.509
 5023SOL     OW15811   4.718   0.423   1.229
 5023SOL    HW115812   4.631   0.435   1.268
 5023SOL    HW215813   4.702   0.368   1.152
 5024SOL     OW15814   4.778   0.698   0.427
 5024SOL    HW115815   4.795   0.692   0.521
 5024SOL    HW215816   4.695   0.653   0.414
 5025SOL     OW15817   3.813   0.822   0.777
 5025SOL    HW115818   3.893   0.814   0.828
 5025SOL    HW215819   3.769   0.900   0.812
 5026SOL     OW15820   3.850   1.856   1.580
 5026SOL    HW115821   3.852   1.833   1.673
 5026SOL    HW215822   3.760   1.838   1.553
 5027SOL     OW15823   4.608   0.361   0.200
 5027SOL    HW115824   4.654   0.402   0.127
 5027SOL    HW215825   4.589   0.272   0.169
 5028SOL     OW15826   5.097   1.150   0.551
 5028SOL    HW115827   5.180   1.145   0.503
 5028SOL    HW215828   5.042   1.207   0.497
 5029SOL     OW15829   4.244   0.203   0.881
 5029SOL    HW115830   4.268   0.217   0.973
 5029SOL    HW215831   4.269   0.283   0.837
 5030SOL     OW15832   4.727   1.444   0.472
 5030SOL    HW115833   4.690   1.516   0.422
 5030SOL    HW215834   4.706   1.463   0.563
 5031SOL     OW15835   4.078   1.811   0.865
 5031SOL    HW115836   4.122   1.726   0.872
 5031SOL    HW215837   4.147   1.875   0.884
 5032SOL     OW15838   4.939   1.540   1.518
 5032SOL    HW115839   4.926   1.468   1.580
 5032SOL    HW215840   4.877   1.522   1.447
 5033SOL     OW15841   4.046   0.943   0.259
 5033SOL    HW115842   4.111   0.986   0.204
 5033SOL    HW215843   4.050   0.851   0.234
 5034SOL     OW15844   4.191   1.265   1.738
 5034SOL    HW115845   4.165   1.270   1.646
 5034SOL    HW215846   4.109   1.263   1.787
 5035SOL     OW15847   4.822   1.773   0.224
 5035SOL    HW115848   4.766   1.734   0.291
 5035SOL    HW215849   4.838   1.703   0.161
 5036SOL     OW15850   3.921   0.277   1.505
 5036SOL    HW115851   3.842   0.331   1.504
 5036SOL    HW215852   3.915   0.227   1.586
 5037SOL     OW15853   4.188   1.736   0.323
 5037SOL    HW115854   4.231   1.795   0.385
 5037SOL    HW215855   4.258   1.709   0.264
 5038SOL     OW15856   5.097   0.116   0.446
 5038SOL    HW115857   5.092   0.074   0.360
 5038SOL    HW215858   5.191   0.129   0.461
 5039SOL     OW15859   3.979   1.791   1.231
 5039SOL    HW115860   4.031   1.724   1.276
 5039SOL    HW215861   3.972   1.758   1.141
 5040SOL     OW15862   4.663   1.698   0.898
 5040SOL    HW115863   4.743   1.650   0.915
 5040SOL    HW215864   4.619   1.649   0.828
 5041SOL     OW15865   4.111   0.698   0.475
 5041SOL    HW115866   4.134   0.606   0.487
 5041SOL    HW215867   4.018   0.703   0.498
 5042SOL     OW15868   4.348   0.138   0.123
 5042SOL    HW115869   4.439   0.111   0.133
 5042SOL    HW215870   4.320   0.100   0.040
 5043SOL     OW15871   4.507   0.309   1.767
 5043SOL    HW115872   4.574   0.241   1.766
 5043SOL    HW215873   4.458   0.294   1.848
 5044SOL     OW15874   4.599   1.522   1.194
 5044SOL    HW115875   4.584   1.486   1.107
 5044SOL    HW215876   4.669   1.469   1.230
 5045SOL     OW15877   5.060   0.593   1.431
 5045SOL    HW115878   5.089   0.564   1.517
 5045SOL    HW215879   5.100   0.679   1.420
 5046SOL     OW15880   4.539   1.393   0.942
 5046SOL    HW115881   4.624   1.381   0.899
 5046SOL    HW215882   4.476   1.397   0.870
 5047SOL     OW15883   4.651   0.511   0.901
 5047SOL    HW115884   4.627   0.501   0.809
 5047SOL    HW215885   4.680   0.424   0.928
 5048SOL     OW15886   4.267   0.061   0.510
 5048SOL    HW115887   4.181   0.057   0.552
 5048SOL    HW215888   4.259   0.130   0.444
 5049SOL     OW15889   5.138   1.171   0.047
 5049SOL    HW115890   5.130   1.097   0.107
 5049SOL    HW215891   5.055   1.218   0.056
 5050SOL     OW15892   4.025   0.072   0.207
 5050SOL    HW115893   4.082   0.143   0.179
 5050SOL    HW215894   4.077   5.293   0.194
 5051SOL     OW15895   4.668   0.260   0.452
 5051SOL    HW115896   4.642   0.305   0.371
 5051SOL    HW215897   4.760   0.284   0.464
 5052SOL     OW15898   4.802   0.682   1.460
 5052SOL    HW115899   4.734   0.615   1.461
 5052SOL    HW215900   4.884   0.633   1.449
 5053SOL     OW15901   4.939   1.572   0.796
 5053SOL    HW115902   4.960   1.638   0.730
 5053SOL    HW215903   5.022   1.555   0.841
 5054SOL     OW15904   4.193   1.152   0.731
 5054SOL    HW115905   4.125   1.131   0.796
 5054SOL    HW215906   4.151   1.137   0.647
 5055SOL     OW15907   4.990   1.794   0.607
 5055SOL    HW115908   5.035   1.857   0.551
 5055SOL    HW215909   4.923   1.845   0.652
 5056SOL     OW15910   4.764   0.528   0.025
 5056SOL    HW115911   4.710   0.605   0.007
 5056SOL    HW215912   4.813   0.552   0.104
 5057SOL     OW15913   3.804   0.553   1.393
 5057SOL    HW115914   3.896   0.553   1.366
 5057SOL    HW215915   3.798   0.623   1.458
 5058SOL     OW15916   4.278   0.238   1.158
 5058SOL    HW115917   4.311   0.154   1.189
 5058SOL    HW215918   4.186   0.239   1.186
 5059SOL     OW15919   4.592   0.461   0.639
 5059SOL    HW115920   4.548   0.515   0.573
 5059SOL    HW215921   4.612   0.379   0.594
 5060SOL     OW15922   4.695   0.064   0.766
 5060SOL    HW115923   4.633   0.056   0.693
 5060SOL    HW215924   4.716   5.274   0.790
 5061SOL     OW15925   5.156   1.176   0.848
 5061SOL    HW115926   5.103   1.098   0.864
 5061SOL    HW215927   5.164   1.181   0.753
 5062SOL     OW15928   4.207   1.440   0.172
 5062SOL    HW115929   4.134   1.399   0.219
 5062SOL    HW215930   4.215   1.389   0.092
 5063SOL     OW15931   5.127   0.574   0.086
 5063SOL    HW115932   5.049   0.556   0.138
 5063SOL    HW215933   5.200   0.553   0.145
 5064SOL     OW15934   4.246   0.269   0.328
 5064SOL    HW115935   4.288   0.214   0.262
 5064SOL    HW215936   4.228   0.352   0.283
 5065SOL     OW15937   4.778   1.355   1.334
 5065SOL    HW115938   4.703   1.323   1.383
 5065SOL    HW215939   4.854   1.312   1.374
 5066SOL     OW15940   0.007   1.606   1.614
 5066SOL    HW115941   0.041   1.608   1.525
 5066SOL    HW215942   0.083   1.584   1.669
 5067SOL     OW15943   4.856   1.206   1.106
 5067SOL    HW115944   4.792   1.240   1.168
 5067SOL    HW215945   4.823   1.235   1.020
 5068SOL     OW15946   4.622   0.106   1.383
 5068SOL    HW115947   4.656   0.070   1.301
 5068SOL    HW215948   4.698   0.149   1.423
 5069SOL     OW15949   4.709   1.112   1.726
 5069SOL    HW115950   4.617   1.131   1.747
 5069SOL    HW215951   4.705   1.036   1.669
 5070SOL     OW15952   4.441   1.065   0.381
 5070SOL    HW115953   4.422   1.045   0.473
 5070SOL    HW215954   4.518   1.012   0.361
 5071SOL     OW15955   4.144   0.817   1.251
 5071SOL    HW115956   4.212   0.825   1.318
 5071SOL    HW215957   4.109   0.729   1.264
 5072SOL     OW15958   4.990   0.381   1.271
 5072SOL    HW115959   5.024   0.459   1.315
 5072SOL    HW215960   4.900   0.402   1.249
 5073SOL     OW15961   3.796   1.574   1.355
 5073SOL    HW115962   3.768   1.647   1.300
 5073SOL    HW215963   3.892   1.575   1.348
 5074SOL     OW15964   4.066   1.111   0.491
 5074SOL    HW115965   4.071   1.184   0.428
 5074SOL    HW215966   4.073   1.032   0.437
 5075SOL     OW15967   4.276   0.536   0.860
 5075SOL    HW115968   4.291   0.595   0.786
 5075SOL    HW215969   4.342   0.561   0.924
 5076SOL     OW15970   4.970   1.347   0.392
 5076SOL    HW115971   5.026   1.420   0.419
 5076SOL    HW215972   4.883   1.370   0.424
 5077SOL     OW15973   4.997   1.457   1.140
 5077SOL    HW115974   5.051   1.458   1.219
 5077SOL    HW215975   4.943   1.379   1.149
 5078SOL     OW15976   4.070   1.529   1.313
 5078SOL    HW115977   4.058   1.485   1.229
 5078SOL    HW215978   4.165   1.540   1.321
 5079SOL     OW15979   4.140   0.744   1.603
 5079SOL    HW115980   4.202   0.789   1.545
 5079SOL    HW215981   4.180   0.659   1.620
 5080SOL     OW15982   4.756   0.122   1.751
 5080SOL    HW115983   4.800   0.204   1.730
 5080SOL    HW215984   4.800   0.056   1.698
 5081SOL     OW15985   4.203   0.059   1.735
 5081SOL    HW115986   4.140   5.295   1.701
 5081SOL    HW215987   4.148   0.135   1.758
 5082SOL     OW15988   4.307   0.874   1.031
 5082SOL    HW115989   4.339   0.964   1.033
 5082SOL    HW215990   4.251   0.867   1.108
 5083SOL     OW15991   5.086   0.856   1.037
 5083SOL    HW115992   5.010   0.835   0.982
 5083SOL    HW215993   5.144   0.780   1.027
 5084SOL     OW15994   4.926   0.531   0.265
 5084SOL    HW115995   4.930   0.448   0.313
 5084SOL    HW215996   4.882   0.592   0.325
 5085SOL     OW15997   4.019   0.202   1.249
 5085SOL    HW115998   3.979   0.241   1.326
 5085SOL    HW215999   4.021   0.108   1.268
 5086SOL     OW16000   3.770   1.311   1.275
 5086SOL    HW116001   3.803   1.256   1.346
 5086SOL    HW216002   3.776   1.400   1.310
 5087SOL     OW16003   4.448   0.631   1.058
 5087SOL    HW116004   4.523   0.615   1.000
 5087SOL    HW216005   4.420   0.720   1.035
 5088SOL     OW16006   4.030   0.069   0.657
 5088SOL    HW116007   4.008   0.162   0.660
 5088SOL    HW216008   4.081   0.055   0.737
 5089SOL     OW16009   0.041   0.412   0.359
 5089SOL    HW116010   0.060   0.351   0.430
 5089SOL    HW216011   0.008   0.490   0.402
 5090SOL     OW16012   4.751   0.759   0.959
 5090SOL    HW116013   4.748   0.776   1.053
 5090SOL    HW216014   4.725   0.667   0.950
 5091SOL     OW16015   4.697   1.562   1.715
 5091SOL    HW116016   4.685   1.609   1.632
 5091SOL    HW216017   4.744   1.482   1.691
 5092SOL     OW16018   4.077   0.917   1.809
 5092SOL    HW116019   4.159   0.935   1.855
 5092SOL    HW216020   4.102   0.853   1.741
 5093SOL     OW16021   5.032   0.831   0.025
 5093SOL    HW116022   5.061   0.742   0.042
 5093SOL    HW216023   5.056   0.847   8.014
 5094SOL     OW16024   4.789   1.335   0.857
 5094SOL    HW116025   4.794   1.263   0.793
 5094SOL    HW216026   4.846   1.403   0.820
 5095SOL     OW16027   4.032   0.808   0.946
 5095SOL    HW116028   4.126   0.829   0.941
 5095SOL    HW216029   4.030   0.718   0.978
 5096SOL     OW16030   4.055   0.528   1.012
 5096SOL    HW116031   4.018   0.440   0.998
 5096SOL    HW216032   4.131   0.531   0.956
 5097SOL     OW16033   4.862   0.377   1.692
 5097SOL    HW116034   4.811   0.431   1.753
 5097SOL    HW216035   4.946   0.423   1.683
 5098SOL     OW16036   4.844   0.235   1.458
 5098SOL    HW116037   4.855   0.284   1.539
 5098SOL    HW216038   4.909   0.271   1.398
 5099SOL     OW16039   3.737   1.322   0.188
 5099SOL    HW116040   3.650   1.336   0.150
 5099SOL    HW216041   3.734   1.232   0.222
 5100SOL     OW16042   3.814   1.786   0.939
 5100SOL    HW116043   3.784   1.706   0.894
 5100SOL    HW216044   3.904   1.798   0.908
 5101SOL     OW16045   4.219   1.574   0.905
 5101SOL    HW116046   4.287   1.636   0.929
 5101SOL    HW216047   4.263   1.511   0.848
 5102SOL     OW16048   4.703   0.792   1.226
 5102SOL    HW116049   4.760   0.770   1.299
 5102SOL    HW216050   4.620   0.750   1.247
 5103SOL     OW16051   3.759   0.546   1.117
 5103SOL    HW116052   3.839   0.531   1.065
 5103SOL    HW216053   3.790   0.548   1.207
 5104SOL     OW16054   3.910   0.524   1.729
 5104SOL    HW116055   3.973   0.487   1.668
 5104SOL    HW216056   3.873   0.599   1.682
 5105SOL     OW16057   5.116   0.935   1.666
 5105SOL    HW116058   5.122   1.030   1.653
 5105SOL    HW216059   5.119   0.899   1.578
 5106SOL     OW16060   4.543   0.571   0.369
 5106SOL    HW116061   4.550   0.499   0.306
 5106SOL    HW216062   4.466   0.620   0.340
 5107SOL     OW16063   3.965   1.550   1.726
 5107SOL    HW116064   3.943   1.615   1.793
 5107SOL    HW216065   3.969   1.467   1.773
 5108SOL     OW16066   4.427   0.450   1.258
 5108SOL    HW116067   4.374   0.377   1.227
 5108SOL    HW216068   4.424   0.514   1.187
 5109SOL     OW16069   4.643   1.680   1.469
 5109SOL    HW116070   4.621   1.645   1.383
 5109SOL    HW216071   4.642   1.775   1.458
 5110SOL     OW16072   4.191   0.493   0.176
 5110SOL    HW116073   4.259   0.557   0.196
 5110SOL    HW216074   4.109   0.539   0.193
 5111SOL     OW16075   3.868   1.141   1.473
 5111SOL    HW116076   3.870   1.091   1.554
 5111SOL    HW216077   3.885   1.077   1.404
 5112SOL     OW16078   5.052   1.048   1.224
 5112SOL    HW116079   5.072   0.982   1.157
 5112SOL    HW216080   4.982   1.101   1.184
 5113SOL     OW16081   5.025   0.870   0.319
 5113SOL    HW116082   4.947   0.827   0.354
 5113SOL    HW216083   5.022   0.852   0.225
 5114SOL     OW16084   4.959   1.731   1.120
 5114SOL    HW116085   5.044   1.753   1.083
 5114SOL    HW216086   4.961   1.636   1.130
 5115SOL     OW16087   3.809   1.267   1.011
 5115SOL    HW116088   3.793   1.280   1.105
 5115SOL    HW216089   3.736   1.212   0.982
 5116SOL     OW16090   4.401   1.667   1.732
 5116SOL    HW116091   4.348   1.745   1.724
 5116SOL    HW216092   4.472   1.679   1.668
 5117SOL     OW16093   4.614   0.083   0.142
 5117SOL    HW116094   4.663   0.070   0.061
 5117SOL    HW216095   4.624   0.001   0.190
 5118SOL     OW16096   5.108   1.573   0.478
 5118SOL    HW116097   5.163   1.617   0.413
 5118SOL    HW216098   5.059   1.643   0.520
 5119SOL     OW16099   3.861   1.796   1.843
 5119SOL    HW116100   3.811   1.730   1.891
 5119SOL    HW216101   3.909   1.844   1.911
 5120SOL     OW16102   5.018   0.920   0.671
 5120SOL    HW116103   5.096   0.866   0.659
 5120SOL    HW216104   5.037   1.001   0.623
 5121SOL     OW16105   4.534   1.274   1.428
 5121SOL    HW116106   4.506   1.314   1.511
 5121SOL    HW216107   4.465   1.296   1.366
 5122SOL     OW16108   4.400   1.623   0.157
 5122SOL    HW116109   4.408   1.629   0.062
 5122SOL    HW216110   4.339   1.550   0.170
 5123SOL     OW16111   3.983   0.329   0.718
 5123SOL    HW116112   3.895   0.360   0.698
 5123SOL    HW216113   3.984   0.318   0.813
 5124SOL     OW16114   4.860   1.579   0.044
 5124SOL    HW116115   4.896   1.492   0.061
 5124SOL    HW216116   4.903   1.609   8.044
 5125SOL     OW16117   4.547   1.006   1.374
 5125SOL    HW116118   4.591   0.999   1.289
 5125SOL    HW216119   4.546   1.100   1.393
 5126SOL     OW16120   4.645   0.914   0.301
 5126SOL    HW116121   4.697   0.937   0.224
 5126SOL    HW216122   4.692   0.842   0.342
 5127SOL     OW16123   4.092   1.304   1.492
 5127SOL    HW116124   4.079   1.380   1.436
 5127SOL    HW216125   4.016   1.249   1.476
 5128SOL     OW16126   4.778   1.108   0.708
 5128SOL    HW116127   4.708   1.058   0.748
 5128SOL    HW216128   4.836   1.042   0.670
 5129SOL     OW16129   4.735   0.243   0.973
 5129SOL    HW116130   4.716   0.198   0.891
 5129SOL    HW216131   4.731   0.174   1.040
 5130SOL     OW16132   4.328   1.486   0.479
 5130SOL    HW116133   4.373   1.436   0.410
 5130SOL    HW216134   4.258   1.531   0.432
 5131SOL     OW16135   3.992   1.318   0.292
 5131SOL    HW116136   3.906   1.327   0.252
 5131SOL    HW216137   3.984   1.363   0.376
 5132SOL     OW16138   3.837   1.025   1.720
 5132SOL    HW116139   3.761   1.001   1.773
 5132SOL    HW216140   3.911   0.986   1.766
 5133SOL     OW16141   4.397   0.215   1.492
 5133SOL    HW116142   4.478   0.194   1.447
 5133SOL    HW216143   4.424   0.263   1.571
 5134SOL     OW16144   3.794   0.361   0.032
 5134SOL    HW116145   3.721   0.298   0.026
 5134SOL    HW216146   3.803   0.395   8.023
 5135SOL     OW16147   5.164   0.860   1.403
 5135SOL    HW116148   5.111   0.916   1.347
 5135SOL    HW216149   5.253   0.868   1.368
 5136SOL     OW16150   3.791   0.165   0.313
 5136SOL    HW116151   3.800   0.253   0.278
 5136SOL    HW216152   3.876   0.124   0.296
 5137SOL     OW16153   4.911   1.314   0.118
 5137SOL    HW116154   4.816   1.312   0.113
 5137SOL    HW216155   4.930   1.319   0.212
 5138SOL     OW16156   4.343   0.831   1.434
 5138SOL    HW116157   4.400   0.907   1.419
 5138SOL    HW216158   4.404   0.757   1.441
 5139SOL     OW16159   4.439   0.571   1.701
 5139SOL    HW116160   4.482   0.632   1.761
 5139SOL    HW216161   4.466   0.484   1.733
 5140SOL     OW16162   5.180   1.202   1.632
 5140SOL    HW116163   5.171   1.216   1.726
 5140SOL    HW216164   5.274   1.213   1.615
 5141SOL     OW16165   4.101   1.739   1.565
 5141SOL    HW116166   4.016   1.782   1.551
 5141SOL    HW216167   4.078   1.656   1.607
 5142SOL     OW16168   4.933   0.333   0.471
 5142SOL    HW116169   4.986   0.255   0.458
 5142SOL    HW216170   4.971   0.375   0.549
 5143SOL     OW16171   4.311   0.736   0.670
 5143SOL    HW116172   4.351   0.822   0.656
 5143SOL    HW216173   4.243   0.730   0.603
 5144SOL     OW16174   4.625   1.367   0.038
 5144SOL    HW116175   4.560   1.360   0.108
 5144SOL    HW216176   4.619   1.458   0.009
 5145SOL     OW16177   4.385   1.789   0.942
 5145SOL    HW116178   4.366   1.880   0.920
 5145SOL    HW216179   4.480   1.782   0.936
 5146SOL     OW16180   4.593   0.968   0.855
 5146SOL    HW116181   4.642   0.896   0.893
 5146SOL    HW216182   4.556   1.015   0.931
 5147SOL     OW16183   4.802   0.972   0.087
 5147SOL    HW116184   4.789   1.036   0.016
 5147SOL    HW216185   4.883   0.927   0.064
 5148SOL     OW16186   3.949   1.302   1.855
 5148SOL    HW116187   3.883   1.240   1.825
 5148SOL    HW216188   3.930   1.314   1.948
 5149SOL     OW16189   3.811   1.231   0.665
 5149SOL    HW116190   3.815   1.183   0.748
 5149SOL    HW216191   3.882   1.194   0.613
 5150SOL     OW16192   4.406   1.403   1.630
 5150SOL    HW116193   4.326   1.362   1.661
 5150SOL    HW216194   4.403   1.492   1.666
 5151SOL     OW16195   4.149   0.439   0.524
 5151SOL    HW116196   4.187   0.367   0.473
 5151SOL    HW216197   4.104   0.397   0.597
 5152SOL     OW16198   0.091   1.521   1.101
 5152SOL    HW116199   0.026   1.499   1.035
 5152SOL    HW216200   0.095   1.444   1.158
 5153SOL     OW16201   4.054   0.558   1.291
 5153SOL    HW116202   4.109   0.502   1.346
 5153SOL    HW216203   4.074   0.530   1.201
 5154SOL     OW16204   4.553   1.578   0.676
 5154SOL    HW116205   4.538   1.635   0.601
 5154SOL    HW216206   4.477   1.520   0.678
 5155SOL     OW16207   5.147   0.214   1.121
 5155SOL    HW116208   5.155   0.132   1.170
 5155SOL    HW216209   5.102   0.273   1.182
 5156SOL     OW16210   4.723   0.019   1.137
 5156SOL    HW116211   4.672   5.251   1.092
 5156SOL    HW216212   4.810   5.280   1.148
 5157SOL     OW16213   4.495   1.327   0.309
 5157SOL    HW116214   4.465   1.238   0.325
 5157SOL    HW216215   4.577   1.334   0.359
 5158SOL     OW16216   4.344   1.556   1.286
 5158SOL    HW116217   4.345   1.638   1.334
 5158SOL    HW216218   4.431   1.548   1.248
 5159SOL     OW16219   5.074   5.293   0.206
 5159SOL    HW116220   5.139   0.005   0.137
 5159SOL    HW216221   5.006   0.058   0.186
 5160SOL     OW16222   5.033   0.466   0.690
 5160SOL    HW116223   4.975   0.542   0.693
 5160SOL    HW216224   5.017   0.421   0.774
 5161SOL     OW16225   5.294   0.215   0.886
 5161SOL    HW116226   5.237   0.212   0.962
 5161SOL    HW216227   5.269   0.295   0.839
 5162SOL     OW16228   3.768   1.066   0.306
 5162SOL    HW116229   3.864   1.064   0.309
 5162SOL    HW216230   3.741   0.982   0.344
 5163SOL     OW16231   4.604   1.654   0.350
 5163SOL    HW116232   4.536   1.639   0.284
 5163SOL    HW216233   4.573   1.730   0.399
 5164SOL     OW16234   3.950   0.626   1.986
 5164SOL    HW116235   3.862   0.621   2.023
 5164SOL    HW216236   3.940   0.600   1.895
 5165SOL     OW16237   3.941   0.286   2.855
 5165SOL    HW116238   3.970   0.249   2.939
 5165SOL    HW216239   3.857   0.242   2.838
 5166SOL     OW16240   3.726   0.388   2.500
 5166SOL    HW116241   3.642   0.409   2.540
 5166SOL    HW216242   3.708   0.311   2.446
 5167SOL     OW16243   4.292   1.291   3.040
 5167SOL    HW116244   4.204   1.295   3.001
 5167SOL    HW216245   4.307   1.380   3.073
 5168SOL     OW16246   5.288   1.536   2.568
 5168SOL    HW116247   5.248   1.494   2.644
 5168SOL    HW216248   5.222   1.529   2.499
 5169SOL     OW16249   4.862   0.698   2.561
 5169SOL    HW116250   4.911   0.780   2.551
 5169SOL    HW216251   4.811   0.710   2.641
 5170SOL     OW16252   4.477   1.141   2.905
 5170SOL    HW116253   4.408   1.176   2.962
 5170SOL    HW216254   4.513   1.218   2.861
 5171SOL     OW16255   4.595   0.773   3.686
 5171SOL    HW116256   4.576   0.845   3.747
 5171SOL    HW216257   4.617   0.817   3.604
 5172SOL     OW16258   4.410   1.001   2.507
 5172SOL    HW116259   4.475   0.991   2.577
 5172SOL    HW216260   4.341   1.053   2.547
 5173SOL     OW16261   4.436   1.151   3.677
 5173SOL    HW116262   4.484   1.229   3.705
 5173SOL    HW216263   4.355   1.184   3.640
 5174SOL     OW16264   4.055   1.422   2.930
 5174SOL    HW116265   3.981   1.384   2.881
 5174SOL    HW216266   4.103   1.473   2.864
 5175SOL     OW16267   5.160   1.479   3.218
 5175SOL    HW116268   5.211   1.557   3.241
 5175SOL    HW216269   5.097   1.469   3.289
 5176SOL     OW16270   4.170   0.397   3.344
 5176SOL    HW116271   4.245   0.338   3.345
 5176SOL    HW216272   4.094   0.341   3.362
 5177SOL     OW16273   3.943   1.715   2.333
 5177SOL    HW116274   3.964   1.791   2.387
 5177SOL    HW216275   4.017   1.707   2.273
 5178SOL     OW16276   4.859   1.340   3.556
 5178SOL    HW116277   4.898   1.336   3.644
 5178SOL    HW216278   4.807   1.260   3.549
 5179SOL     OW16279   3.955   1.442   2.398
 5179SOL    HW116280   3.937   1.536   2.400
 5179SOL    HW216281   3.896   1.405   2.462
 5180SOL     OW16282   3.985   1.090   2.754
 5180SOL    HW116283   3.980   1.003   2.793
 5180SOL    HW216284   3.927   1.144   2.807
 5181SOL     OW16285   4.331   1.793   3.288
 5181SOL    HW116286   4.250   1.774   3.336
 5181SOL    HW216287   4.355   1.881   3.315
 5182SOL     OW16288   4.307   0.983   1.998
 5182SOL    HW116289   4.354   1.031   1.929
 5182SOL    HW216290   4.346   1.014   2.080
 5183SOL     OW16291   5.251   0.141   3.342
 5183SOL    HW116292   0.001   0.221   3.325
 5183SOL    HW216293   5.270   0.120   3.433
 5184SOL     OW16294   3.840   0.655   2.422
 5184SOL    HW116295   3.811   0.566   2.443
 5184SOL    HW216296   3.832   0.703   2.504
 5185SOL     OW16297   3.758   1.593   1.985
 5185SOL    HW116298   3.740   1.502   2.005
 5185SOL    HW216299   3.734   1.641   2.064
 5186SOL     OW16300   0.113   0.939   2.437
 5186SOL    HW116301   0.202   0.904   2.446
 5186SOL    HW216302   0.125   1.028   2.406
 5187SOL     OW16303   3.847   0.745   3.445
 5187SOL    HW116304   3.938   0.773   3.451
 5187SOL    HW216305   3.797   0.826   3.453
 5188SOL     OW16306   4.338   1.387   2.598
 5188SOL    HW116307   4.293   1.304   2.607
 5188SOL    HW216308   4.322   1.414   2.507
 5189SOL     OW16309   5.003   1.234   3.286
 5189SOL    HW116310   5.037   1.168   3.226
 5189SOL    HW216311   5.060   1.228   3.363
 5190SOL     OW16312   4.537   0.030   2.394
 5190SOL    HW116313   4.565   0.118   2.367
 5190SOL    HW216314   4.441   0.033   2.386
 5191SOL     OW16315   3.913   0.964   3.136
 5191SOL    HW116316   3.998   0.923   3.121
 5191SOL    HW216317   3.852   0.913   3.084
 5192SOL     OW16318   4.896   1.809   3.487
 5192SOL    HW116319   4.914   1.869   3.415
 5192SOL    HW216320   4.919   1.722   3.453
 5193SOL     OW16321   4.053   0.269   3.676
 5193SOL    HW116322   4.104   0.343   3.709
 5193SOL    HW216323   3.966   0.281   3.715
 5194SOL     OW16324   5.167   1.436   2.795
 5194SOL    HW116325   5.106   1.443   2.869
 5194SOL    HW216326   5.161   1.345   2.767
 5195SOL     OW16327   4.318   0.720   2.130
 5195SOL    HW116328   4.321   0.803   2.081
 5195SOL    HW216329   4.252   0.735   2.198
 5196SOL     OW16330   4.995   0.328   2.779
 5196SOL    HW116331   4.905   0.306   2.803
 5196SOL    HW216332   5.048   0.300   2.854
 5197SOL     OW16333   4.517   0.619   3.310
 5197SOL    HW116334   4.490   0.596   3.399
 5197SOL    HW216335   4.477   0.551   3.255
 5198SOL     OW16336   5.116   0.489   3.542
 5198SOL    HW116337   5.119   0.522   3.632
 5198SOL    HW216338   5.183   0.421   3.539
 5199SOL     OW16339   4.677   0.887   3.446
 5199SOL    HW116340   4.729   0.816   3.409
 5199SOL    HW216341   4.628   0.922   3.371
 5200SOL     OW16342   4.718   0.422   3.091
 5200SOL    HW116343   4.632   0.436   3.130
 5200SOL    HW216344   4.701   0.368   3.014
 5201SOL     OW16345   4.776   0.698   2.287
 5201SOL    HW116346   4.792   0.691   2.381
 5201SOL    HW216347   4.692   0.653   2.274
 5202SOL     OW16348   3.812   0.822   2.639
 5202SOL    HW116349   3.892   0.814   2.690
 5202SOL    HW216350   3.768   0.899   2.674
 5203SOL     OW16351   3.849   1.855   3.441
 5203SOL    HW116352   3.851   1.833   3.535
 5203SOL    HW216353   3.759   1.838   3.415
 5204SOL     OW16354   4.603   0.365   2.053
 5204SOL    HW116355   4.636   0.420   1.982
 5204SOL    HW216356   4.658   0.286   2.049
 5205SOL     OW16357   5.094   1.149   2.412
 5205SOL    HW116358   5.183   1.154   2.375
 5205SOL    HW216359   5.042   1.207   2.355
 5206SOL     OW16360   4.246   0.203   2.743
 5206SOL    HW116361   4.269   0.218   2.835
 5206SOL    HW216362   4.269   0.285   2.699
 5207SOL     OW16363   4.728   1.443   2.333
 5207SOL    HW116364   4.692   1.516   2.283
 5207SOL    HW216365   4.707   1.463   2.424
 5208SOL     OW16366   4.078   1.811   2.727
 5208SOL    HW116367   4.122   1.726   2.734
 5208SOL    HW216368   4.147   1.875   2.746
 5209SOL     OW16369   4.940   1.540   3.379
 5209SOL    HW116370   4.926   1.468   3.442
 5209SOL    HW216371   4.876   1.523   3.310
 5210SOL     OW16372   4.042   0.958   2.114
 5210SOL    HW116373   4.124   0.977   2.068
 5210SOL    HW216374   4.012   0.876   2.076
 5211SOL     OW16375   4.191   1.265   3.600
 5211SOL    HW116376   4.164   1.270   3.508
 5211SOL    HW216377   4.109   1.263   3.649
 5212SOL     OW16378   4.831   1.774   2.099
 5212SOL    HW116379   4.758   1.731   2.143
 5212SOL    HW216380   4.856   1.714   2.029
 5213SOL     OW16381   3.921   0.278   3.367
 5213SOL    HW116382   3.842   0.331   3.365
 5213SOL    HW216383   3.915   0.228   3.448
 5214SOL     OW16384   4.189   1.736   2.182
 5214SOL    HW116385   4.232   1.794   2.246
 5214SOL    HW216386   4.260   1.704   2.127
 5215SOL     OW16387   5.094   0.097   2.280
 5215SOL    HW116388   5.081   0.080   2.187
 5215SOL    HW216389   5.188   0.117   2.288
 5216SOL     OW16390   3.980   1.791   3.093
 5216SOL    HW116391   4.031   1.723   3.137
 5216SOL    HW216392   3.970   1.759   3.003
 5217SOL     OW16393   4.662   1.698   2.760
 5217SOL    HW116394   4.742   1.649   2.778
 5217SOL    HW216395   4.619   1.649   2.690
 5218SOL     OW16396   4.118   0.696   2.336
 5218SOL    HW116397   4.138   0.603   2.348
 5218SOL    HW216398   4.024   0.703   2.354
 5219SOL     OW16399   4.347   0.133   1.969
 5219SOL    HW116400   4.416   0.071   1.990
 5219SOL    HW216401   4.297   0.092   1.899
 5220SOL     OW16402   4.507   0.309   3.629
 5220SOL    HW116403   4.574   0.241   3.628
 5220SOL    HW216404   4.458   0.294   3.710
 5221SOL     OW16405   4.599   1.523   3.056
 5221SOL    HW116406   4.583   1.486   2.968
 5221SOL    HW216407   4.669   1.469   3.092
 5222SOL     OW16408   5.060   0.592   3.293
 5222SOL    HW116409   5.089   0.563   3.379
 5222SOL    HW216410   5.099   0.679   3.282
 5223SOL     OW16411   4.540   1.393   2.804
 5223SOL    HW116412   4.624   1.381   2.760
 5223SOL    HW216413   4.476   1.396   2.732
 5224SOL     OW16414   4.652   0.511   2.764
 5224SOL    HW116415   4.628   0.502   2.672
 5224SOL    HW216416   4.680   0.424   2.791
 5225SOL     OW16417   4.267   0.062   2.369
 5225SOL    HW116418   4.182   0.059   2.413
 5225SOL    HW216419   4.259   0.130   2.303
 5226SOL     OW16420   5.134   1.181   1.906
 5226SOL    HW116421   5.139   1.102   1.959
 5226SOL    HW216422   5.047   1.217   1.926
 5227SOL     OW16423   4.026   0.064   2.055
 5227SOL    HW116424   4.084   0.135   2.026
 5227SOL    HW216425   4.082   5.287   2.058
 5228SOL     OW16426   4.661   0.266   2.324
 5228SOL    HW116427   4.633   0.298   2.239
 5228SOL    HW216428   4.756   0.280   2.325
 5229SOL     OW16429   4.802   0.682   3.322
 5229SOL    HW116430   4.733   0.616   3.323
 5229SOL    HW216431   4.883   0.633   3.311
 5230SOL     OW16432   4.939   1.571   2.656
 5230SOL    HW116433   4.960   1.638   2.591
 5230SOL    HW216434   5.021   1.557   2.703
 5231SOL     OW16435   4.194   1.151   2.593
 5231SOL    HW116436   4.126   1.131   2.657
 5231SOL    HW216437   4.153   1.135   2.508
 5232SOL     OW16438   4.994   1.794   2.469
 5232SOL    HW116439   5.036   1.855   2.408
 5232SOL    HW216440   4.926   1.846   2.512
 5233SOL     OW16441   4.751   0.548   1.883
 5233SOL    HW116442   4.704   0.630   1.865
 5233SOL    HW216443   4.805   0.567   1.960
 5234SOL     OW16444   3.804   0.553   3.255
 5234SOL    HW116445   3.896   0.553   3.228
 5234SOL    HW216446   3.798   0.623   3.320
 5235SOL     OW16447   4.278   0.238   3.020
 5235SOL    HW116448   4.311   0.154   3.051
 5235SOL    HW216449   4.186   0.239   3.047
 5236SOL     OW16450   4.591   0.466   2.503
 5236SOL    HW116451   4.542   0.518   2.440
 5236SOL    HW216452   4.613   0.385   2.456
 5237SOL     OW16453   4.699   0.063   2.627
 5237SOL    HW116454   4.635   0.057   2.556
 5237SOL    HW216455   4.713   5.272   2.653
 5238SOL     OW16456   5.156   1.177   2.712
 5238SOL    HW116457   5.101   1.100   2.727
 5238SOL    HW216458   5.166   1.180   2.617
 5239SOL     OW16459   4.214   1.420   2.016
 5239SOL    HW116460   4.139   1.391   2.068
 5239SOL    HW216461   4.203   1.375   1.932
 5240SOL     OW16462   5.129   0.557   1.946
 5240SOL    HW116463   5.051   0.549   2.001
 5240SOL    HW216464   5.201   0.532   2.003
 5241SOL     OW16465   4.247   0.266   2.183
 5241SOL    HW116466   4.292   0.217   2.114
 5241SOL    HW216467   4.224   0.349   2.142
 5242SOL     OW16468   4.778   1.355   3.195
 5242SOL    HW116469   4.703   1.323   3.245
 5242SOL    HW216470   4.853   1.312   3.236
 5243SOL     OW16471   0.007   1.606   3.477
 5243SOL    HW116472   0.041   1.608   3.387
 5243SOL    HW216473   0.083   1.584   3.531
 5244SOL     OW16474   4.856   1.206   2.967
 5244SOL    HW116475   4.792   1.239   3.031
 5244SOL    HW216476   4.823   1.235   2.882
 5245SOL     OW16477   4.623   0.105   3.245
 5245SOL    HW116478   4.656   0.071   3.163
 5245SOL    HW216479   4.698   0.149   3.285
 5246SOL     OW16480   4.709   1.112   3.588
 5246SOL    HW116481   4.617   1.131   3.609
 5246SOL    HW216482   4.705   1.036   3.531
 5247SOL     OW16483   4.433   1.062   2.233
 5247SOL    HW116484   4.418   1.044   2.326
 5247SOL    HW216485   4.509   1.009   2.209
 5248SOL     OW16486   4.144   0.816   3.113
 5248SOL    HW116487   4.212   0.825   3.180
 5248SOL    HW216488   4.108   0.729   3.126
 5249SOL     OW16489   4.990   0.381   3.133
 5249SOL    HW116490   5.023   0.459   3.177
 5249SOL    HW216491   4.900   0.402   3.111
 5250SOL     OW16492   3.796   1.573   3.216
 5250SOL    HW116493   3.767   1.647   3.163
 5250SOL    HW216494   3.892   1.575   3.210
 5251SOL     OW16495   4.070   1.112   2.352
 5251SOL    HW116496   4.074   1.185   2.290
 5251SOL    HW216497   4.067   1.034   2.296
 5252SOL     OW16498   4.276   0.536   2.722
 5252SOL    HW116499   4.291   0.594   2.648
 5252SOL    HW216500   4.342   0.561   2.786
 5253SOL     OW16501   4.971   1.350   2.249
 5253SOL    HW116502   5.026   1.422   2.279
 5253SOL    HW216503   4.884   1.370   2.282
 5254SOL     OW16504   4.997   1.457   3.002
 5254SOL    HW116505   5.051   1.458   3.082
 5254SOL    HW216506   4.942   1.379   3.011
 5255SOL     OW16507   4.070   1.529   3.175
 5255SOL    HW116508   4.058   1.485   3.091
 5255SOL    HW216509   4.165   1.540   3.183
 5256SOL     OW16510   4.140   0.745   3.465
 5256SOL    HW116511   4.201   0.789   3.407
 5256SOL    HW216512   4.180   0.660   3.482
 5257SOL     OW16513   4.755   0.122   3.614
 5257SOL    HW116514   4.800   0.204   3.592
 5257SOL    HW216515   4.799   0.056   3.560
 5258SOL     OW16516   4.203   0.059   3.597
 5258SOL    HW116517   4.140   5.295   3.564
 5258SOL    HW216518   4.149   0.135   3.620
 5259SOL     OW16519   4.308   0.873   2.894
 5259SOL    HW116520   4.338   0.964   2.894
 5259SOL    HW216521   4.251   0.866   2.970
 5260SOL     OW16522   5.086   0.856   2.898
 5260SOL    HW116523   5.008   0.835   2.846
 5260SOL    HW216524   5.142   0.779   2.890
 5261SOL     OW16525   4.926   0.531   2.126
 5261SOL    HW116526   4.931   0.451   2.178
 5261SOL    HW216527   4.882   0.594   2.183
 5262SOL     OW16528   4.019   0.202   3.111
 5262SOL    HW116529   3.979   0.242   3.188
 5262SOL    HW216530   4.021   0.109   3.130
 5263SOL     OW16531   3.771   1.311   3.137
 5263SOL    HW116532   3.803   1.256   3.209
 5263SOL    HW216533   3.776   1.400   3.171
 5264SOL     OW16534   4.448   0.631   2.920
 5264SOL    HW116535   4.523   0.616   2.862
 5264SOL    HW216536   4.419   0.720   2.898
 5265SOL     OW16537   4.032   0.071   2.520
 5265SOL    HW116538   4.009   0.163   2.522
 5265SOL    HW216539   4.082   0.056   2.601
 5266SOL     OW16540   0.029   0.412   2.226
 5266SOL    HW116541   0.055   0.348   2.292
 5266SOL    HW216542   0.011   0.492   2.275
 5267SOL     OW16543   4.752   0.759   2.821
 5267SOL    HW116544   4.748   0.776   2.915
 5267SOL    HW216545   4.725   0.667   2.812
 5268SOL     OW16546   4.697   1.562   3.577
 5268SOL    HW116547   4.686   1.609   3.494
 5268SOL    HW216548   4.744   1.482   3.553
 5269SOL     OW16549   4.077   0.916   3.671
 5269SOL    HW116550   4.159   0.935   3.717
 5269SOL    HW216551   4.101   0.853   3.603
 5270SOL     OW16552   5.029   0.829   1.899
 5270SOL    HW116553   5.063   0.740   1.900
 5270SOL    HW216554   5.056   0.864   1.814
 5271SOL     OW16555   4.790   1.335   2.719
 5271SOL    HW116556   4.794   1.263   2.655
 5271SOL    HW216557   4.846   1.403   2.682
 5272SOL     OW16558   4.032   0.808   2.809
 5272SOL    HW116559   4.125   0.829   2.801
 5272SOL    HW216560   4.030   0.718   2.840
 5273SOL     OW16561   4.055   0.528   2.875
 5273SOL    HW116562   4.018   0.440   2.860
 5273SOL    HW216563   4.132   0.531   2.818
 5274SOL     OW16564   4.862   0.377   3.553
 5274SOL    HW116565   4.811   0.431   3.614
 5274SOL    HW216566   4.946   0.423   3.545
 5275SOL     OW16567   4.845   0.234   3.321
 5275SOL    HW116568   4.855   0.284   3.401
 5275SOL    HW216569   4.909   0.271   3.260
 5276SOL     OW16570   3.730   1.320   2.057
 5276SOL    HW116571   3.643   1.335   2.019
 5276SOL    HW216572   3.726   1.231   2.091
 5277SOL     OW16573   3.814   1.785   2.801
 5277SOL    HW116574   3.785   1.706   2.756
 5277SOL    HW216575   3.903   1.798   2.770
 5278SOL     OW16576   4.219   1.574   2.767
 5278SOL    HW116577   4.287   1.637   2.791
 5278SOL    HW216578   4.263   1.511   2.710
 5279SOL     OW16579   4.704   0.792   3.088
 5279SOL    HW116580   4.760   0.769   3.161
 5279SOL    HW216581   4.619   0.751   3.108
 5280SOL     OW16582   3.759   0.545   2.979
 5280SOL    HW116583   3.839   0.532   2.927
 5280SOL    HW216584   3.790   0.548   3.070
 5281SOL     OW16585   3.910   0.524   3.591
 5281SOL    HW116586   3.973   0.487   3.530
 5281SOL    HW216587   3.873   0.599   3.544
 5282SOL     OW16588   5.115   0.935   3.528
 5282SOL    HW116589   5.122   1.030   3.515
 5282SOL    HW216590   5.118   0.899   3.440
 5283SOL     OW16591   4.539   0.574   2.225
 5283SOL    HW116592   4.543   0.499   2.166
 5283SOL    HW216593   4.464   0.625   2.194
 5284SOL     OW16594   3.966   1.550   3.587
 5284SOL    HW116595   3.943   1.616   3.653
 5284SOL    HW216596   3.969   1.468   3.636
 5285SOL     OW16597   4.427   0.450   3.120
 5285SOL    HW116598   4.374   0.377   3.089
 5285SOL    HW216599   4.424   0.514   3.049
 5286SOL     OW16600   4.644   1.680   3.331
 5286SOL    HW116601   4.621   1.645   3.244
 5286SOL    HW216602   4.642   1.775   3.320
 5287SOL     OW16603   4.185   0.493   2.043
 5287SOL    HW116604   4.245   0.563   2.067
 5287SOL    HW216605   4.100   0.536   2.034
 5288SOL     OW16606   3.869   1.141   3.335
 5288SOL    HW116607   3.870   1.091   3.417
 5288SOL    HW216608   3.885   1.077   3.267
 5289SOL     OW16609   5.052   1.048   3.085
 5289SOL    HW116610   5.073   0.982   3.018
 5289SOL    HW216611   4.982   1.101   3.047
 5290SOL     OW16612   5.038   0.859   2.178
 5290SOL    HW116613   4.956   0.827   2.217
 5290SOL    HW216614   5.024   0.852   2.084
 5291SOL     OW16615   4.959   1.731   2.982
 5291SOL    HW116616   5.045   1.754   2.946
 5291SOL    HW216617   4.961   1.636   2.992
 5292SOL     OW16618   3.809   1.266   2.873
 5292SOL    HW116619   3.794   1.280   2.967
 5292SOL    HW216620   3.736   1.212   2.845
 5293SOL     OW16621   4.401   1.667   3.594
 5293SOL    HW116622   4.347   1.745   3.586
 5293SOL    HW216623   4.471   1.679   3.530
 5294SOL     OW16624   5.111   1.571   2.345
 5294SOL    HW116625   5.181   1.613   2.295
 5294SOL    HW216626   5.059   1.643   2.380
 5295SOL     OW16627   3.864   1.794   3.705
 5295SOL    HW116628   3.812   1.730   3.752
 5295SOL    HW216629   3.909   1.844   3.773
 5296SOL     OW16630   5.017   0.920   2.533
 5296SOL    HW116631   5.096   0.866   2.520
 5296SOL    HW216632   5.036   1.001   2.485
 5297SOL     OW16633   4.534   1.275   3.290
 5297SOL    HW116634   4.506   1.314   3.373
 5297SOL    HW216635   4.465   1.297   3.228
 5298SOL     OW16636   4.394   1.622   2.017
 5298SOL    HW116637   4.406   1.635   1.923
 5298SOL    HW216638   4.338   1.544   2.024
 5299SOL     OW16639   3.984   0.329   2.580
 5299SOL    HW116640   3.896   0.361   2.559
 5299SOL    HW216641   3.983   0.319   2.675
 5300SOL     OW16642   4.907   1.608   1.905
 5300SOL    HW116643   4.919   1.514   1.915
 5300SOL    HW216644   4.851   1.617   1.827
 5301SOL     OW16645   4.547   1.006   3.236
 5301SOL    HW116646   4.590   1.000   3.150
 5301SOL    HW216647   4.546   1.100   3.255
 5302SOL     OW16648   4.641   0.912   2.153
 5302SOL    HW116649   4.703   0.943   2.087
 5302SOL    HW216650   4.687   0.841   2.197
 5303SOL     OW16651   4.093   1.304   3.354
 5303SOL    HW116652   4.079   1.380   3.298
 5303SOL    HW216653   4.016   1.249   3.338
 5304SOL     OW16654   4.779   1.108   2.570
 5304SOL    HW116655   4.707   1.059   2.610
 5304SOL    HW216656   4.837   1.041   2.533
 5305SOL     OW16657   4.736   0.243   2.834
 5305SOL    HW116658   4.717   0.198   2.752
 5305SOL    HW216659   4.731   0.175   2.901
 5306SOL     OW16660   4.328   1.488   2.343
 5306SOL    HW116661   4.374   1.438   2.276
 5306SOL    HW216662   4.256   1.531   2.296
 5307SOL     OW16663   3.984   1.344   2.152
 5307SOL    HW116664   3.891   1.341   2.129
 5307SOL    HW216665   3.986   1.381   2.240
 5308SOL     OW16666   3.837   1.025   3.583
 5308SOL    HW116667   3.761   1.001   3.635
 5308SOL    HW216668   3.911   0.986   3.629
 5309SOL     OW16669   4.397   0.215   3.354
 5309SOL    HW116670   4.478   0.194   3.309
 5309SOL    HW216671   4.424   0.263   3.432
 5310SOL     OW16672   3.802   0.338   1.904
 5310SOL    HW116673   3.718   0.304   1.872
 5310SOL    HW216674   3.821   0.412   1.847
 5311SOL     OW16675   5.164   0.860   3.265
 5311SOL    HW116676   5.111   0.917   3.209
 5311SOL    HW216677   5.253   0.868   3.230
 5312SOL     OW16678   3.795   0.167   2.175
 5312SOL    HW116679   3.798   0.249   2.128
 5312SOL    HW216680   3.880   0.125   2.157
 5313SOL     OW16681   4.905   1.328   1.976
 5313SOL    HW116682   4.811   1.309   1.977
 5313SOL    HW216683   4.929   1.335   2.068
 5314SOL     OW16684   4.344   0.831   3.296
 5314SOL    HW116685   4.400   0.907   3.281
 5314SOL    HW216686   4.404   0.757   3.303
 5315SOL     OW16687   4.440   0.571   3.563
 5315SOL    HW116688   4.482   0.632   3.623
 5315SOL    HW216689   4.466   0.484   3.595
 5316SOL     OW16690   5.180   1.202   3.494
 5316SOL    HW116691   5.171   1.216   3.588
 5316SOL    HW216692   5.274   1.213   3.477
 5317SOL     OW16693   4.100   1.740   3.427
 5317SOL    HW116694   4.016   1.783   3.412
 5317SOL    HW216695   4.078   1.657   3.469
 5318SOL     OW16696   4.939   0.324   2.322
 5318SOL    HW116697   4.993   0.245   2.316
 5318SOL    HW216698   4.970   0.369   2.401
 5319SOL     OW16699   4.313   0.737   2.533
 5319SOL    HW116700   4.352   0.823   2.517
 5319SOL    HW216701   4.246   0.728   2.465
 5320SOL     OW16702   4.592   1.366   1.900
 5320SOL    HW116703   4.550   1.395   1.981
 5320SOL    HW216704   4.606   1.445   1.849
 5321SOL     OW16705   4.385   1.789   2.804
 5321SOL    HW116706   4.366   1.880   2.782
 5321SOL    HW216707   4.480   1.783   2.798
 5322SOL     OW16708   4.593   0.969   2.717
 5322SOL    HW116709   4.642   0.896   2.755
 5322SOL    HW216710   4.556   1.015   2.792
 5323SOL     OW16711   4.808   0.988   1.953
 5323SOL    HW116712   4.782   1.037   1.875
 5323SOL    HW216713   4.881   0.934   1.924
 5324SOL     OW16714   3.949   1.302   3.717
 5324SOL    HW116715   3.883   1.240   3.686
 5324SOL    HW216716   3.929   1.314   3.810
 5325SOL     OW16717   3.809   1.232   2.527
 5325SOL    HW116718   3.816   1.185   2.610
 5325SOL    HW216719   3.877   1.193   2.472
 5326SOL     OW16720   4.407   1.403   3.493
 5326SOL    HW116721   4.326   1.362   3.523
 5326SOL    HW216722   4.403   1.492   3.528
 5327SOL     OW16723   4.155   0.436   2.387
 5327SOL    HW116724   4.187   0.364   2.334
 5327SOL    HW216725   4.106   0.394   2.458
 5328SOL     OW16726   0.094   1.519   2.962
 5328SOL    HW116727   0.026   1.498   2.897
 5328SOL    HW216728   0.094   1.443   3.021
 5329SOL     OW16729   4.054   0.558   3.153
 5329SOL    HW116730   4.110   0.502   3.208
 5329SOL    HW216731   4.074   0.530   3.063
 5330SOL     OW16732   4.553   1.577   2.538
 5330SOL    HW116733   4.538   1.636   2.464
 5330SOL    HW216734   4.477   1.520   2.540
 5331SOL     OW16735   5.147   0.214   2.983
 5331SOL    HW116736   5.157   0.133   3.032
 5331SOL    HW216737   5.102   0.273   3.043
 5332SOL     OW16738   4.723   0.019   2.999
 5332SOL    HW116739   4.672   5.251   2.955
 5332SOL    HW216740   4.810   5.280   3.010
 5333SOL     OW16741   4.495   1.333   2.179
 5333SOL    HW116742   4.466   1.242   2.186
 5333SOL    HW216743   4.578   1.335   2.228
 5334SOL     OW16744   4.344   1.555   3.148
 5334SOL    HW116745   4.345   1.638   3.197
 5334SOL    HW216746   4.432   1.548   3.110
 5335SOL     OW16747   5.034   0.031   2.018
 5335SOL    HW116748   5.118   0.025   1.972
 5335SOL    HW216749   4.985   5.254   1.989
 5336SOL     OW16750   5.027   0.461   2.546
 5336SOL    HW116751   4.972   0.539   2.550
 5336SOL    HW216752   5.014   0.418   2.630
 5337SOL     OW16753   5.295   0.214   2.748
 5337SOL    HW116754   5.237   0.213   2.825
 5337SOL    HW216755   5.270   0.294   2.701
 5338SOL     OW16756   3.767   1.069   2.169
 5338SOL    HW116757   3.861   1.061   2.151
 5338SOL    HW216758   3.739   0.980   2.191
 5339SOL     OW16759   4.605   1.652   2.207
 5339SOL    HW116760   4.533   1.637   2.145
 5339SOL    HW216761   4.577   1.728   2.258
 5340SOL     OW16762   3.950   0.626   3.849
 5340SOL    HW116763   3.862   0.621   3.885
 5340SOL    HW216764   3.940   0.600   3.757
 5341SOL     OW16765   3.941   0.286   4.717
 5341SOL    HW116766   3.970   0.249   4.801
 5341SOL    HW216767   3.857   0.242   4.700
 5342SOL     OW16768   3.726   0.388   4.362
 5342SOL    HW116769   3.642   0.409   4.402
 5342SOL    HW216770   3.708   0.311   4.308
 5343SOL     OW16771   4.292   1.291   4.902
 5343SOL    HW116772   4.204   1.295   4.863
 5343SOL    HW216773   4.307   1.380   4.934
 5344SOL     OW16774   5.288   1.535   4.430
 5344SOL    HW116775   5.248   1.494   4.506
 5344SOL    HW216776   5.222   1.529   4.361
 5345SOL     OW16777   4.862   0.698   4.423
 5345SOL    HW116778   4.911   0.780   4.413
 5345SOL    HW216779   4.811   0.710   4.503
 5346SOL     OW16780   4.477   1.141   4.767
 5346SOL    HW116781   4.408   1.176   4.824
 5346SOL    HW216782   4.512   1.218   4.723
 5347SOL     OW16783   4.595   0.773   5.548
 5347SOL    HW116784   4.576   0.845   5.609
 5347SOL    HW216785   4.617   0.817   5.466
 5348SOL     OW16786   4.410   1.001   4.369
 5348SOL    HW116787   4.475   0.991   4.439
 5348SOL    HW216788   4.341   1.053   4.409
 5349SOL     OW16789   4.436   1.150   5.539
 5349SOL    HW116790   4.484   1.229   5.567
 5349SOL    HW216791   4.355   1.184   5.502
 5350SOL     OW16792   4.054   1.423   4.792
 5350SOL    HW116793   3.981   1.384   4.743
 5350SOL    HW216794   4.103   1.473   4.726
 5351SOL     OW16795   5.160   1.480   5.080
 5351SOL    HW116796   5.211   1.557   5.103
 5351SOL    HW216797   5.098   1.469   5.151
 5352SOL     OW16798   4.170   0.397   5.206
 5352SOL    HW116799   4.245   0.338   5.207
 5352SOL    HW216800   4.094   0.341   5.224
 5353SOL     OW16801   3.943   1.715   4.194
 5353SOL    HW116802   3.964   1.791   4.249
 5353SOL    HW216803   4.017   1.707   4.134
 5354SOL     OW16804   4.859   1.340   5.418
 5354SOL    HW116805   4.898   1.336   5.506
 5354SOL    HW216806   4.807   1.260   5.411
 5355SOL     OW16807   3.955   1.443   4.260
 5355SOL    HW116808   3.937   1.536   4.262
 5355SOL    HW216809   3.896   1.405   4.324
 5356SOL     OW16810   3.985   1.091   4.616
 5356SOL    HW116811   3.981   1.003   4.655
 5356SOL    HW216812   3.926   1.144   4.669
 5357SOL     OW16813   4.330   1.793   5.150
 5357SOL    HW116814   4.250   1.774   5.198
 5357SOL    HW216815   4.355   1.881   5.177
 5358SOL     OW16816   4.308   0.983   3.860
 5358SOL    HW116817   4.354   1.031   3.791
 5358SOL    HW216818   4.346   1.014   3.942
 5359SOL     OW16819   5.251   0.141   5.204
 5359SOL    HW116820   0.001   0.221   5.187
 5359SOL    HW216821   5.270   0.120   5.295
 5360SOL     OW16822   3.840   0.655   4.284
 5360SOL    HW116823   3.811   0.566   4.305
 5360SOL    HW216824   3.832   0.703   4.366
 5361SOL     OW16825   3.758   1.593   3.848
 5361SOL    HW116826   3.740   1.502   3.868
 5361SOL    HW216827   3.733   1.641   3.927
 5362SOL     OW16828   0.113   0.938   4.299
 5362SOL    HW116829   0.202   0.904   4.308
 5362SOL    HW216830   0.125   1.029   4.269
 5363SOL     OW16831   3.847   0.745   5.307
 5363SOL    HW116832   3.938   0.773   5.313
 5363SOL    HW216833   3.797   0.826   5.315
 5364SOL     OW16834   4.338   1.387   4.459
 5364SOL    HW116835   4.293   1.304   4.468
 5364SOL    HW216836   4.322   1.414   4.369
 5365SOL     OW16837   5.003   1.234   5.148
 5365SOL    HW116838   5.037   1.168   5.088
 5365SOL    HW216839   5.060   1.228   5.225
 5366SOL     OW16840   4.537   0.030   4.256
 5366SOL    HW116841   4.565   0.118   4.229
 5366SOL    HW216842   4.441   0.033   4.248
 5367SOL     OW16843   3.913   0.964   4.998
 5367SOL    HW116844   3.998   0.923   4.983
 5367SOL    HW216845   3.852   0.913   4.946
 5368SOL     OW16846   4.895   1.809   5.349
 5368SOL    HW116847   4.914   1.869   5.277
 5368SOL    HW216848   4.919   1.722   5.315
 5369SOL     OW16849   4.053   0.269   5.538
 5369SOL    HW116850   4.104   0.343   5.571
 5369SOL    HW216851   3.966   0.281   5.577
 5370SOL     OW16852   5.167   1.437   4.657
 5370SOL    HW116853   5.106   1.443   4.731
 5370SOL    HW216854   5.161   1.345   4.629
 5371SOL     OW16855   4.318   0.720   3.992
 5371SOL    HW116856   4.321   0.803   3.943
 5371SOL    HW216857   4.252   0.735   4.060
 5372SOL     OW16858   4.995   0.328   4.641
 5372SOL    HW116859   4.905   0.306   4.665
 5372SOL    HW216860   5.048   0.300   4.715
 5373SOL     OW16861   4.517   0.619   5.172
 5373SOL    HW116862   4.490   0.596   5.261
 5373SOL    HW216863   4.477   0.551   5.117
 5374SOL     OW16864   5.116   0.489   5.404
 5374SOL    HW116865   5.119   0.522   5.494
 5374SOL    HW216866   5.184   0.421   5.401
 5375SOL     OW16867   4.677   0.887   5.308
 5375SOL    HW116868   4.729   0.816   5.271
 5375SOL    HW216869   4.628   0.922   5.233
 5376SOL     OW16870   4.718   0.422   4.953
 5376SOL    HW116871   4.632   0.436   4.992
 5376SOL    HW216872   4.701   0.368   4.876
 5377SOL     OW16873   4.776   0.698   4.149
 5377SOL    HW116874   4.792   0.691   4.243
 5377SOL    HW216875   4.692   0.653   4.136
 5378SOL     OW16876   3.812   0.821   4.501
 5378SOL    HW116877   3.892   0.814   4.552
 5378SOL    HW216878   3.768   0.899   4.536
 5379SOL     OW16879   3.850   1.856   5.304
 5379SOL    HW116880   3.852   1.833   5.397
 5379SOL    HW216881   3.760   1.836   5.276
 5380SOL     OW16882   4.603   0.364   3.915
 5380SOL    HW116883   4.636   0.420   3.844
 5380SOL    HW216884   4.658   0.286   3.911
 5381SOL     OW16885   5.094   1.149   4.274
 5381SOL    HW116886   5.183   1.154   4.238
 5381SOL    HW216887   5.042   1.206   4.217
 5382SOL     OW16888   4.246   0.203   4.605
 5382SOL    HW116889   4.269   0.218   4.697
 5382SOL    HW216890   4.269   0.285   4.561
 5383SOL     OW16891   4.728   1.443   4.195
 5383SOL    HW116892   4.692   1.516   4.145
 5383SOL    HW216893   4.707   1.463   4.286
 5384SOL     OW16894   4.079   1.811   4.589
 5384SOL    HW116895   4.123   1.726   4.596
 5384SOL    HW216896   4.148   1.875   4.608
 5385SOL     OW16897   4.939   1.540   5.242
 5385SOL    HW116898   4.926   1.468   5.304
 5385SOL    HW216899   4.876   1.523   5.172
 5386SOL     OW16900   4.042   0.958   3.976
 5386SOL    HW116901   4.124   0.977   3.930
 5386SOL    HW216902   4.012   0.876   3.937
 5387SOL     OW16903   4.191   1.265   5.462
 5387SOL    HW116904   4.164   1.270   5.370
 5387SOL    HW216905   4.109   1.263   5.511
 5388SOL     OW16906   4.831   1.774   3.962
 5388SOL    HW116907   4.758   1.731   4.005
 5388SOL    HW216908   4.856   1.714   3.891
 5389SOL     OW16909   3.921   0.278   5.229
 5389SOL    HW116910   3.842   0.331   5.227
 5389SOL    HW216911   3.915   0.228   5.310
 5390SOL     OW16912   4.189   1.736   4.044
 5390SOL    HW116913   4.233   1.794   4.108
 5390SOL    HW216914   4.260   1.704   3.988
 5391SOL     OW16915   5.094   0.097   4.142
 5391SOL    HW116916   5.081   0.081   4.049
 5391SOL    HW216917   5.188   0.117   4.151
 5392SOL     OW16918   3.980   1.791   4.954
 5392SOL    HW116919   4.031   1.724   5.000
 5392SOL    HW216920   3.971   1.758   4.865
 5393SOL     OW16921   4.662   1.698   4.622
 5393SOL    HW116922   4.742   1.649   4.640
 5393SOL    HW216923   4.619   1.649   4.552
 5394SOL     OW16924   4.118   0.696   4.198
 5394SOL    HW116925   4.138   0.603   4.211
 5394SOL    HW216926   4.024   0.703   4.216
 5395SOL     OW16927   4.347   0.133   3.831
 5395SOL    HW116928   4.416   0.070   3.852
 5395SOL    HW216929   4.297   0.092   3.761
 5396SOL     OW16930   4.507   0.309   5.491
 5396SOL    HW116931   4.574   0.241   5.490
 5396SOL    HW216932   4.458   0.294   5.572
 5397SOL     OW16933   4.599   1.522   4.918
 5397SOL    HW116934   4.583   1.486   4.830
 5397SOL    HW216935   4.669   1.469   4.954
 5398SOL     OW16936   5.060   0.593   5.155
 5398SOL    HW116937   5.089   0.563   5.241
 5398SOL    HW216938   5.099   0.679   5.144
 5399SOL     OW16939   4.540   1.393   4.666
 5399SOL    HW116940   4.624   1.381   4.623
 5399SOL    HW216941   4.476   1.396   4.594
 5400SOL     OW16942   4.652   0.511   4.626
 5400SOL    HW116943   4.628   0.502   4.534
 5400SOL    HW216944   4.680   0.424   4.653
 5401SOL     OW16945   4.267   0.062   4.231
 5401SOL    HW116946   4.182   0.059   4.275
 5401SOL    HW216947   4.259   0.130   4.165
 5402SOL     OW16948   5.134   1.181   3.768
 5402SOL    HW116949   5.139   1.102   3.821
 5402SOL    HW216950   5.047   1.217   3.787
 5403SOL     OW16951   4.026   0.064   3.917
 5403SOL    HW116952   4.083   0.135   3.888
 5403SOL    HW216953   4.082   5.287   3.920
 5404SOL     OW16954   4.661   0.266   4.186
 5404SOL    HW116955   4.633   0.298   4.101
 5404SOL    HW216956   4.756   0.280   4.187
 5405SOL     OW16957   4.802   0.682   5.184
 5405SOL    HW116958   4.733   0.616   5.185
 5405SOL    HW216959   4.883   0.633   5.173
 5406SOL     OW16960   4.939   1.571   4.518
 5406SOL    HW116961   4.960   1.638   4.453
 5406SOL    HW216962   5.021   1.557   4.565
 5407SOL     OW16963   4.194   1.151   4.455
 5407SOL    HW116964   4.126   1.131   4.519
 5407SOL    HW216965   4.153   1.135   4.370
 5408SOL     OW16966   4.994   1.794   4.331
 5408SOL    HW116967   5.036   1.855   4.270
 5408SOL    HW216968   4.926   1.846   4.374
 5409SOL     OW16969   4.751   0.548   3.745
 5409SOL    HW116970   4.704   0.630   3.727
 5409SOL    HW216971   4.805   0.567   3.822
 5410SOL     OW16972   3.804   0.552   5.117
 5410SOL    HW116973   3.896   0.553   5.090
 5410SOL    HW216974   3.798   0.623   5.182
 5411SOL     OW16975   4.278   0.238   4.882
 5411SOL    HW116976   4.311   0.154   4.913
 5411SOL    HW216977   4.186   0.239   4.909
 5412SOL     OW16978   4.591   0.466   4.365
 5412SOL    HW116979   4.542   0.518   4.302
 5412SOL    HW216980   4.613   0.385   4.317
 5413SOL     OW16981   4.699   0.063   4.489
 5413SOL    HW116982   4.635   0.057   4.418
 5413SOL    HW216983   4.713   5.272   4.515
 5414SOL     OW16984   5.156   1.177   4.574
 5414SOL    HW116985   5.101   1.100   4.589
 5414SOL    HW216986   5.166   1.180   4.479
 5415SOL     OW16987   4.214   1.419   3.878
 5415SOL    HW116988   4.139   1.391   3.930
 5415SOL    HW216989   4.202   1.376   3.794
 5416SOL     OW16990   5.129   0.557   3.808
 5416SOL    HW116991   5.051   0.549   3.863
 5416SOL    HW216992   5.201   0.532   3.866
 5417SOL     OW16993   4.247   0.266   4.045
 5417SOL    HW116994   4.292   0.217   3.976
 5417SOL    HW216995   4.224   0.349   4.004
 5418SOL     OW16996   4.778   1.355   5.057
 5418SOL    HW116997   4.703   1.323   5.107
 5418SOL    HW216998   4.853   1.312   5.097
 5419SOL     OW16999   0.007   1.606   5.339
 5419SOL    HW117000   0.041   1.608   5.249
 5419SOL    HW217001   0.083   1.584   5.393
 5420SOL     OW17002   4.856   1.206   4.829
 5420SOL    HW117003   4.792   1.239   4.893
 5420SOL    HW217004   4.823   1.235   4.744
 5421SOL     OW17005   4.623   0.106   5.107
 5421SOL    HW117006   4.656   0.071   5.025
 5421SOL    HW217007   4.698   0.149   5.147
 5422SOL     OW17008   4.709   1.112   5.450
 5422SOL    HW117009   4.617   1.131   5.471
 5422SOL    HW217010   4.705   1.036   5.393
 5423SOL     OW17011   4.433   1.062   4.095
 5423SOL    HW117012   4.418   1.044   4.188
 5423SOL    HW217013   4.509   1.009   4.071
 5424SOL     OW17014   4.144   0.817   4.975
 5424SOL    HW117015   4.212   0.825   5.042
 5424SOL    HW217016   4.108   0.729   4.988
 5425SOL     OW17017   4.990   0.381   4.995
 5425SOL    HW117018   5.023   0.459   5.039
 5425SOL    HW217019   4.900   0.402   4.973
 5426SOL     OW17020   3.796   1.574   5.079
 5426SOL    HW117021   3.767   1.646   5.023
 5426SOL    HW217022   3.892   1.575   5.072
 5427SOL     OW17023   4.070   1.112   4.214
 5427SOL    HW117024   4.074   1.185   4.152
 5427SOL    HW217025   4.067   1.034   4.158
 5428SOL     OW17026   4.276   0.536   4.584
 5428SOL    HW117027   4.290   0.594   4.510
 5428SOL    HW217028   4.342   0.562   4.648
 5429SOL     OW17029   4.972   1.350   4.111
 5429SOL    HW117030   5.026   1.422   4.141
 5429SOL    HW217031   4.884   1.370   4.144
 5430SOL     OW17032   4.997   1.457   4.864
 5430SOL    HW117033   5.051   1.458   4.944
 5430SOL    HW217034   4.942   1.379   4.873
 5431SOL     OW17035   4.070   1.529   5.037
 5431SOL    HW117036   4.058   1.485   4.953
 5431SOL    HW217037   4.165   1.540   5.045
 5432SOL     OW17038   4.140   0.745   5.327
 5432SOL    HW117039   4.202   0.789   5.269
 5432SOL    HW217040   4.180   0.660   5.344
 5433SOL     OW17041   4.755   0.122   5.476
 5433SOL    HW117042   4.800   0.204   5.454
 5433SOL    HW217043   4.799   0.056   5.422
 5434SOL     OW17044   4.203   0.059   5.459
 5434SOL    HW117045   4.140   5.295   5.426
 5434SOL    HW217046   4.149   0.135   5.482
 5435SOL     OW17047   4.309   0.873   4.756
 5435SOL    HW117048   4.338   0.964   4.756
 5435SOL    HW217049   4.251   0.866   4.832
 5436SOL     OW17050   5.086   0.856   4.760
 5436SOL    HW117051   5.008   0.835   4.708
 5436SOL    HW217052   5.142   0.779   4.752
 5437SOL     OW17053   4.926   0.531   3.988
 5437SOL    HW117054   4.931   0.451   4.040
 5437SOL    HW217055   4.882   0.594   4.045
 5438SOL     OW17056   4.019   0.202   4.973
 5438SOL    HW117057   3.979   0.242   5.050
 5438SOL    HW217058   4.021   0.109   4.992
 5439SOL     OW17059   3.771   1.311   4.999
 5439SOL    HW117060   3.803   1.256   5.071
 5439SOL    HW217061   3.776   1.400   5.034
 5440SOL     OW17062   4.448   0.631   4.782
 5440SOL    HW117063   4.523   0.616   4.724
 5440SOL    HW217064   4.419   0.720   4.760
 5441SOL     OW17065   4.032   0.071   4.382
 5441SOL    HW117066   4.009   0.163   4.384
 5441SOL    HW217067   4.082   0.056   4.463
 5442SOL     OW17068   0.029   0.412   4.088
 5442SOL    HW117069   0.055   0.348   4.155
 5442SOL    HW217070   0.012   0.492   4.136
 5443SOL     OW17071   4.752   0.759   4.683
 5443SOL    HW117072   4.748   0.776   4.777
 5443SOL    HW217073   4.725   0.667   4.674
 5444SOL     OW17074   4.697   1.562   5.439
 5444SOL    HW117075   4.686   1.609   5.356
 5444SOL    HW217076   4.744   1.482   5.415
 5445SOL     OW17077   4.077   0.916   5.533
 5445SOL    HW117078   4.159   0.935   5.579
 5445SOL    HW217079   4.102   0.853   5.465
 5446SOL     OW17080   5.028   0.829   3.761
 5446SOL    HW117081   5.063   0.740   3.762
 5446SOL    HW217082   5.056   0.864   3.676
 5447SOL     OW17083   4.790   1.335   4.581
 5447SOL    HW117084   4.794   1.263   4.517
 5447SOL    HW217085   4.846   1.403   4.544
 5448SOL     OW17086   4.032   0.808   4.671
 5448SOL    HW117087   4.125   0.829   4.663
 5448SOL    HW217088   4.030   0.718   4.702
 5449SOL     OW17089   4.055   0.528   4.737
 5449SOL    HW117090   4.018   0.440   4.722
 5449SOL    HW217091   4.132   0.531   4.680
 5450SOL     OW17092   4.862   0.377   5.415
 5450SOL    HW117093   4.811   0.431   5.476
 5450SOL    HW217094   4.946   0.423   5.407
 5451SOL     OW17095   4.845   0.234   5.183
 5451SOL    HW117096   4.855   0.284   5.263
 5451SOL    HW217097   4.909   0.271   5.122
 5452SOL     OW17098   3.730   1.320   3.919
 5452SOL    HW117099   3.643   1.335   3.882
 5452SOL    HW217100   3.726   1.230   3.953
 5453SOL     OW17101   3.816   1.785   4.664
 5453SOL    HW117102   3.785   1.706   4.619
 5453SOL    HW217103   3.905   1.797   4.632
 5454SOL     OW17104   4.219   1.574   4.629
 5454SOL    HW117105   4.288   1.636   4.653
 5454SOL    HW217106   4.263   1.511   4.572
 5455SOL     OW17107   4.704   0.792   4.950
 5455SOL    HW117108   4.760   0.769   5.023
 5455SOL    HW217109   4.619   0.751   4.970
 5456SOL     OW17110   3.759   0.545   4.841
 5456SOL    HW117111   3.839   0.532   4.789
 5456SOL    HW217112   3.790   0.548   4.932
 5457SOL     OW17113   3.910   0.524   5.453
 5457SOL    HW117114   3.973   0.487   5.392
 5457SOL    HW217115   3.873   0.599   5.406
 5458SOL     OW17116   5.115   0.935   5.390
 5458SOL    HW117117   5.122   1.030   5.377
 5458SOL    HW217118   5.118   0.899   5.301
 5459SOL     OW17119   4.539   0.574   4.087
 5459SOL    HW117120   4.543   0.499   4.028
 5459SOL    HW217121   4.464   0.625   4.057
 5460SOL     OW17122   3.965   1.550   5.450
 5460SOL    HW117123   3.943   1.615   5.517
 5460SOL    HW217124   3.969   1.467   5.497
 5461SOL     OW17125   4.427   0.450   4.982
 5461SOL    HW117126   4.374   0.377   4.951
 5461SOL    HW217127   4.424   0.514   4.911
 5462SOL     OW17128   4.643   1.680   5.193
 5462SOL    HW117129   4.621   1.645   5.106
 5462SOL    HW217130   4.642   1.775   5.182
 5463SOL     OW17131   4.185   0.493   3.905
 5463SOL    HW117132   4.245   0.563   3.929
 5463SOL    HW217133   4.100   0.536   3.896
 5464SOL     OW17134   3.868   1.141   5.197
 5464SOL    HW117135   3.870   1.091   5.279
 5464SOL    HW217136   3.885   1.077   5.129
 5465SOL     OW17137   5.052   1.048   4.947
 5465SOL    HW117138   5.073   0.982   4.880
 5465SOL    HW217139   4.982   1.101   4.909
 5466SOL     OW17140   5.038   0.859   4.040
 5466SOL    HW117141   4.956   0.827   4.079
 5466SOL    HW217142   5.024   0.852   3.946
 5467SOL     OW17143   4.959   1.731   4.844
 5467SOL    HW117144   5.045   1.754   4.808
 5467SOL    HW217145   4.961   1.636   4.854
 5468SOL     OW17146   3.809   1.267   4.735
 5468SOL    HW117147   3.794   1.280   4.829
 5468SOL    HW217148   3.736   1.212   4.706
 5469SOL     OW17149   4.401   1.667   5.456
 5469SOL    HW117150   4.347   1.745   5.448
 5469SOL    HW217151   4.471   1.679   5.392
 5470SOL     OW17152   5.111   1.571   4.207
 5470SOL    HW117153   5.181   1.613   4.157
 5470SOL    HW217154   5.059   1.643   4.242
 5471SOL     OW17155   3.861   1.796   5.567
 5471SOL    HW117156   3.811   1.730   5.615
 5471SOL    HW217157   3.909   1.844   5.635
 5472SOL     OW17158   5.018   0.920   4.395
 5472SOL    HW117159   5.096   0.866   4.382
 5472SOL    HW217160   5.036   1.001   4.347
 5473SOL     OW17161   4.534   1.274   5.152
 5473SOL    HW117162   4.506   1.314   5.235
 5473SOL    HW217163   4.465   1.296   5.090
 5474SOL     OW17164   4.394   1.622   3.879
 5474SOL    HW117165   4.406   1.635   3.785
 5474SOL    HW217166   4.338   1.544   3.886
 5475SOL     OW17167   3.984   0.329   4.442
 5475SOL    HW117168   3.896   0.361   4.421
 5475SOL    HW217169   3.983   0.319   4.537
 5476SOL     OW17170   4.907   1.608   3.767
 5476SOL    HW117171   4.918   1.514   3.777
 5476SOL    HW217172   4.851   1.617   3.689
 5477SOL     OW17173   4.547   1.006   5.098
 5477SOL    HW117174   4.590   1.000   5.013
 5477SOL    HW217175   4.546   1.100   5.117
 5478SOL     OW17176   4.641   0.912   4.015
 5478SOL    HW117177   4.703   0.943   3.949
 5478SOL    HW217178   4.688   0.841   4.059
 5479SOL     OW17179   4.092   1.304   5.216
 5479SOL    HW117180   4.079   1.380   5.160
 5479SOL    HW217181   4.016   1.249   5.200
 5480SOL     OW17182   4.779   1.108   4.432
 5480SOL    HW117183   4.707   1.059   4.472
 5480SOL    HW217184   4.837   1.041   4.395
 5481SOL     OW17185   4.736   0.243   4.696
 5481SOL    HW117186   4.717   0.198   4.614
 5481SOL    HW217187   4.731   0.175   4.763
 5482SOL     OW17188   4.328   1.488   4.205
 5482SOL    HW117189   4.374   1.438   4.138
 5482SOL    HW217190   4.256   1.531   4.158
 5483SOL     OW17191   3.984   1.344   4.014
 5483SOL    HW117192   3.892   1.341   3.991
 5483SOL    HW217193   3.986   1.381   4.102
 5484SOL     OW17194   3.837   1.025   5.445
 5484SOL    HW117195   3.761   1.001   5.497
 5484SOL    HW217196   3.911   0.986   5.491
 5485SOL     OW17197   4.397   0.215   5.216
 5485SOL    HW117198   4.478   0.194   5.171
 5485SOL    HW217199   4.424   0.263   5.294
 5486SOL     OW17200   3.802   0.338   3.766
 5486SOL    HW117201   3.718   0.304   3.733
 5486SOL    HW217202   3.822   0.412   3.709
 5487SOL     OW17203   5.164   0.860   5.127
 5487SOL    HW117204   5.111   0.917   5.071
 5487SOL    HW217205   5.253   0.868   5.093
 5488SOL     OW17206   3.795   0.167   4.037
 5488SOL    HW117207   3.798   0.249   3.990
 5488SOL    HW217208   3.880   0.125   4.019
 5489SOL     OW17209   4.905   1.328   3.837
 5489SOL    HW117210   4.811   1.309   3.838
 5489SOL    HW217211   4.929   1.335   3.930
 5490SOL     OW17212   4.344   0.831   5.158
 5490SOL    HW117213   4.400   0.907   5.143
 5490SOL    HW217214   4.404   0.757   5.165
 5491SOL     OW17215   4.440   0.571   5.425
 5491SOL    HW117216   4.482   0.632   5.485
 5491SOL    HW217217   4.466   0.484   5.457
 5492SOL     OW17218   5.180   1.202   5.356
 5492SOL    HW117219   5.171   1.216   5.450
 5492SOL    HW217220   5.274   1.213   5.339
 5493SOL     OW17221   4.101   1.740   5.289
 5493SOL    HW117222   4.016   1.783   5.274
 5493SOL    HW217223   4.078   1.656   5.331
 5494SOL     OW17224   4.939   0.324   4.184
 5494SOL    HW117225   4.993   0.245   4.178
 5494SOL    HW217226   4.970   0.369   4.263
 5495SOL     OW17227   4.313   0.737   4.395
 5495SOL    HW117228   4.352   0.823   4.379
 5495SOL    HW217229   4.246   0.728   4.327
 5496SOL     OW17230   4.593   1.366   3.763
 5496SOL    HW117231   4.550   1.396   3.843
 5496SOL    HW217232   4.606   1.445   3.711
 5497SOL     OW17233   4.385   1.789   4.666
 5497SOL    HW117234   4.366   1.880   4.644
 5497SOL    HW217235   4.481   1.782   4.660
 5498SOL     OW17236   4.593   0.969   4.579
 5498SOL    HW117237   4.642   0.896   4.617
 5498SOL    HW217238   4.556   1.015   4.654
 5499SOL     OW17239   4.808   0.988   3.815
 5499SOL    HW117240   4.782   1.037   3.737
 5499SOL    HW217241   4.881   0.934   3.786
 5500SOL     OW17242   3.949   1.302   5.579
 5500SOL    HW117243   3.883   1.240   5.548
 5500SOL    HW217244   3.929   1.314   5.672
 5501SOL     OW17245   3.809   1.233   4.389
 5501SOL    HW117246   3.816   1.185   4.472
 5501SOL    HW217247   3.877   1.193   4.334
 5502SOL     OW17248   4.407   1.403   5.354
 5502SOL    HW117249   4.326   1.362   5.385
 5502SOL    HW217250   4.403   1.492   5.390
 5503SOL     OW17251   4.155   0.436   4.249
 5503SOL    HW117252   4.187   0.364   4.196
 5503SOL    HW217253   4.106   0.394   4.320
 5504SOL     OW17254   0.094   1.519   4.824
 5504SOL    HW117255   0.026   1.498   4.759
 5504SOL    HW217256   0.095   1.443   4.883
 5505SOL     OW17257   4.054   0.558   5.015
 5505SOL    HW117258   4.110   0.502   5.070
 5505SOL    HW217259   4.074   0.530   4.925
 5506SOL     OW17260   4.553   1.577   4.400
 5506SOL    HW117261   4.538   1.636   4.326
 5506SOL    HW217262   4.477   1.520   4.401
 5507SOL     OW17263   5.147   0.214   4.845
 5507SOL    HW117264   5.157   0.133   4.894
 5507SOL    HW217265   5.102   0.273   4.905
 5508SOL     OW17266   4.723   0.019   4.861
 5508SOL    HW117267   4.672   5.251   4.817
 5508SOL    HW217268   4.810   5.280   4.872
 5509SOL     OW17269   4.495   1.333   4.042
 5509SOL    HW117270   4.466   1.242   4.048
 5509SOL    HW217271   4.578   1.335   4.090
 5510SOL     OW17272   4.344   1.556   5.010
 5510SOL    HW117273   4.345   1.638   5.058
 5510SOL    HW217274   4.431   1.548   4.972
 5511SOL     OW17275   5.034   0.031   3.880
 5511SOL    HW117276   5.118   0.025   3.834
 5511SOL    HW217277   4.985   5.254   3.852
 5512SOL     OW17278   5.027   0.461   4.408
 5512SOL    HW117279   4.972   0.539   4.412
 5512SOL    HW217280   5.014   0.418   4.492
 5513SOL     OW17281   5.295   0.214   4.610
 5513SOL    HW117282   5.237   0.213   4.687
 5513SOL    HW217283   5.270   0.294   4.563
 5514SOL     OW17284   3.767   1.069   4.031
 5514SOL    HW117285   3.861   1.061   4.013
 5514SOL    HW217286   3.739   0.980   4.053
 5515SOL     OW17287   4.605   1.652   4.069
 5515SOL    HW117288   4.533   1.637   4.007
 5515SOL    HW217289   4.577   1.728   4.120
 5516SOL     OW17290   3.950   0.626   5.711
 5516SOL    HW117291   3.862   0.621   5.747
 5516SOL    HW217292   3.940   0.600   5.619
 5517SOL     OW17293   3.941   0.286   6.579
 5517SOL    HW117294   3.970   0.249   6.663
 5517SOL    HW217295   3.857   0.243   6.562
 5518SOL     OW17296   3.726   0.388   6.224
 5518SOL    HW117297   3.642   0.409   6.264
 5518SOL    HW217298   3.708   0.311   6.170
 5519SOL     OW17299   4.291   1.291   6.764
 5519SOL    HW117300   4.204   1.295   6.724
 5519SOL    HW217301   4.307   1.380   6.796
 5520SOL     OW17302   5.288   1.534   6.291
 5520SOL    HW117303   5.248   1.494   6.368
 5520SOL    HW217304   5.222   1.529   6.223
 5521SOL     OW17305   4.862   0.698   6.285
 5521SOL    HW117306   4.911   0.779   6.275
 5521SOL    HW217307   4.811   0.710   6.365
 5522SOL     OW17308   4.477   1.141   6.629
 5522SOL    HW117309   4.408   1.176   6.686
 5522SOL    HW217310   4.512   1.217   6.585
 5523SOL     OW17311   4.594   0.775   7.408
 5523SOL    HW117312   4.570   0.849   7.463
 5523SOL    HW217313   4.618   0.814   7.324
 5524SOL     OW17314   4.410   1.001   6.231
 5524SOL    HW117315   4.475   0.991   6.301
 5524SOL    HW217316   4.341   1.053   6.271
 5525SOL     OW17317   4.436   1.151   7.400
 5525SOL    HW117318   4.484   1.229   7.429
 5525SOL    HW217319   4.355   1.185   7.363
 5526SOL     OW17320   4.055   1.423   6.654
 5526SOL    HW117321   3.981   1.384   6.605
 5526SOL    HW217322   4.103   1.473   6.588
 5527SOL     OW17323   5.160   1.479   6.942
 5527SOL    HW117324   5.211   1.557   6.965
 5527SOL    HW217325   5.097   1.469   7.013
 5528SOL     OW17326   4.170   0.398   7.070
 5528SOL    HW117327   4.245   0.339   7.071
 5528SOL    HW217328   4.094   0.340   7.085
 5529SOL     OW17329   3.943   1.715   6.057
 5529SOL    HW117330   3.964   1.791   6.111
 5529SOL    HW217331   4.017   1.707   5.997
 5530SOL     OW17332   4.859   1.340   7.278
 5530SOL    HW117333   4.898   1.337   7.365
 5530SOL    HW217334   4.807   1.259   7.272
 5531SOL     OW17335   3.955   1.443   6.122
 5531SOL    HW117336   3.937   1.537   6.124
 5531SOL    HW217337   3.895   1.405   6.186
 5532SOL     OW17338   3.985   1.091   6.478
 5532SOL    HW117339   3.980   1.003   6.517
 5532SOL    HW217340   3.927   1.144   6.531
 5533SOL     OW17341   4.330   1.793   7.011
 5533SOL    HW117342   4.250   1.774   7.060
 5533SOL    HW217343   4.355   1.881   7.038
 5534SOL     OW17344   4.308   0.983   5.722
 5534SOL    HW117345   4.354   1.031   5.653
 5534SOL    HW217346   4.346   1.014   5.804
 5535SOL     OW17347   5.251   0.142   7.065
 5535SOL    HW117348   5.299   0.223   7.047
 5535SOL    HW217349   5.270   0.121   7.156
 5536SOL     OW17350   3.840   0.655   6.146
 5536SOL    HW117351   3.811   0.566   6.167
 5536SOL    HW217352   3.832   0.703   6.228
 5537SOL     OW17353   3.758   1.593   5.709
 5537SOL    HW117354   3.740   1.502   5.729
 5537SOL    HW217355   3.734   1.641   5.788
 5538SOL     OW17356   0.113   0.938   6.161
 5538SOL    HW117357   0.202   0.905   6.170
 5538SOL    HW217358   0.124   1.029   6.132
 5539SOL     OW17359   3.847   0.744   7.170
 5539SOL    HW117360   3.938   0.773   7.175
 5539SOL    HW217361   3.796   0.825   7.177
 5540SOL     OW17362   4.338   1.387   6.322
 5540SOL    HW117363   4.293   1.304   6.330
 5540SOL    HW217364   4.322   1.414   6.231
 5541SOL     OW17365   5.003   1.234   7.010
 5541SOL    HW117366   5.037   1.168   6.950
 5541SOL    HW217367   5.059   1.228   7.087
 5542SOL     OW17368   4.537   0.030   6.118
 5542SOL    HW117369   4.565   0.118   6.091
 5542SOL    HW217370   4.441   0.033   6.110
 5543SOL     OW17371   3.913   0.964   6.860
 5543SOL    HW117372   3.998   0.923   6.845
 5543SOL    HW217373   3.852   0.913   6.808
 5544SOL     OW17374   4.896   1.809   7.210
 5544SOL    HW117375   4.915   1.869   7.138
 5544SOL    HW217376   4.920   1.723   7.177
 5545SOL     OW17377   4.052   0.265   7.407
 5545SOL    HW117378   4.103   0.342   7.433
 5545SOL    HW217379   3.964   0.282   7.441
 5546SOL     OW17380   5.167   1.437   6.519
 5546SOL    HW117381   5.106   1.443   6.593
 5546SOL    HW217382   5.161   1.345   6.491
 5547SOL     OW17383   4.318   0.720   5.854
 5547SOL    HW117384   4.321   0.803   5.805
 5547SOL    HW217385   4.252   0.735   5.922
 5548SOL     OW17386   4.995   0.328   6.503
 5548SOL    HW117387   4.905   0.305   6.527
 5548SOL    HW217388   5.048   0.300   6.578
 5549SOL     OW17389   4.517   0.619   7.035
 5549SOL    HW117390   4.490   0.596   7.123
 5549SOL    HW217391   4.477   0.551   6.979
 5550SOL     OW17392   5.116   0.490   7.266
 5550SOL    HW117393   5.119   0.523   7.356
 5550SOL    HW217394   5.181   0.420   7.264
 5551SOL     OW17395   4.677   0.887   7.169
 5551SOL    HW117396   4.730   0.817   7.132
 5551SOL    HW217397   4.628   0.922   7.095
 5552SOL     OW17398   4.718   0.422   6.815
 5552SOL    HW117399   4.632   0.436   6.854
 5552SOL    HW217400   4.701   0.368   6.738
 5553SOL     OW17401   4.776   0.698   6.011
 5553SOL    HW117402   4.792   0.691   6.105
 5553SOL    HW217403   4.692   0.653   5.998
 5554SOL     OW17404   3.812   0.821   6.363
 5554SOL    HW117405   3.892   0.814   6.414
 5554SOL    HW217406   3.768   0.899   6.398
 5555SOL     OW17407   3.850   1.857   7.167
 5555SOL    HW117408   3.851   1.834   7.259
 5555SOL    HW217409   3.760   1.837   7.138
 5556SOL     OW17410   4.603   0.365   5.777
 5556SOL    HW117411   4.636   0.420   5.706
 5556SOL    HW217412   4.658   0.286   5.773
 5557SOL     OW17413   5.094   1.149   6.135
 5557SOL    HW117414   5.183   1.154   6.100
 5557SOL    HW217415   5.042   1.206   6.079
 5558SOL     OW17416   4.246   0.203   6.467
 5558SOL    HW117417   4.269   0.218   6.559
 5558SOL    HW217418   4.269   0.285   6.423
 5559SOL     OW17419   4.728   1.443   6.057
 5559SOL    HW117420   4.692   1.516   6.007
 5559SOL    HW217421   4.707   1.463   6.148
 5560SOL     OW17422   4.078   1.811   6.451
 5560SOL    HW117423   4.122   1.726   6.458
 5560SOL    HW217424   4.147   1.875   6.470
 5561SOL     OW17425   4.940   1.540   7.103
 5561SOL    HW117426   4.927   1.468   7.165
 5561SOL    HW217427   4.875   1.523   7.034
 5562SOL     OW17428   4.042   0.958   5.838
 5562SOL    HW117429   4.124   0.977   5.792
 5562SOL    HW217430   4.012   0.876   5.800
 5563SOL     OW17431   4.191   1.264   7.323
 5563SOL    HW117432   4.164   1.269   7.232
 5563SOL    HW217433   4.108   1.262   7.372
 5564SOL     OW17434   4.831   1.774   5.824
 5564SOL    HW117435   4.758   1.731   5.867
 5564SOL    HW217436   4.856   1.714   5.753
 5565SOL     OW17437   3.921   0.278   7.090
 5565SOL    HW117438   3.842   0.332   7.088
 5565SOL    HW217439   3.913   0.227   7.170
 5566SOL     OW17440   4.189   1.736   5.906
 5566SOL    HW117441   4.232   1.794   5.970
 5566SOL    HW217442   4.260   1.704   5.851
 5567SOL     OW17443   5.094   0.097   6.004
 5567SOL    HW117444   5.081   0.081   5.911
 5567SOL    HW217445   5.188   0.117   6.012
 5568SOL     OW17446   3.980   1.791   6.817
 5568SOL    HW117447   4.031   1.723   6.861
 5568SOL    HW217448   3.970   1.759   6.727
 5569SOL     OW17449   4.662   1.698   6.484
 5569SOL    HW117450   4.742   1.649   6.502
 5569SOL    HW217451   4.619   1.649   6.414
 5570SOL     OW17452   4.118   0.696   6.060
 5570SOL    HW117453   4.138   0.603   6.073
 5570SOL    HW217454   4.024   0.703   6.078
 5571SOL     OW17455   4.347   0.133   5.693
 5571SOL    HW117456   4.416   0.070   5.714
 5571SOL    HW217457   4.297   0.092   5.623
 5572SOL     OW17458   4.507   0.309   7.350
 5572SOL    HW117459   4.576   0.242   7.350
 5572SOL    HW217460   4.465   0.300   7.435
 5573SOL     OW17461   4.599   1.522   6.780
 5573SOL    HW117462   4.583   1.486   6.692
 5573SOL    HW217463   4.669   1.469   6.816
 5574SOL     OW17464   5.060   0.593   7.016
 5574SOL    HW117465   5.089   0.564   7.103
 5574SOL    HW217466   5.099   0.680   7.006
 5575SOL     OW17467   4.540   1.393   6.528
 5575SOL    HW117468   4.624   1.381   6.485
 5575SOL    HW217469   4.476   1.396   6.456
 5576SOL     OW17470   4.652   0.511   6.488
 5576SOL    HW117471   4.628   0.502   6.396
 5576SOL    HW217472   4.680   0.424   6.515
 5577SOL     OW17473   4.267   0.062   6.093
 5577SOL    HW117474   4.182   0.059   6.137
 5577SOL    HW217475   4.259   0.131   6.027
 5578SOL     OW17476   5.134   1.181   5.630
 5578SOL    HW117477   5.139   1.102   5.683
 5578SOL    HW217478   5.047   1.217   5.649
 5579SOL     OW17479   4.026   0.064   5.779
 5579SOL    HW117480   4.084   0.135   5.750
 5579SOL    HW217481   4.082   5.287   5.782
 5580SOL     OW17482   4.661   0.266   6.048
 5580SOL    HW117483   4.633   0.298   5.963
 5580SOL    HW217484   4.756   0.280   6.049
 5581SOL     OW17485   4.802   0.682   7.046
 5581SOL    HW117486   4.733   0.615   7.047
 5581SOL    HW217487   4.883   0.633   7.035
 5582SOL     OW17488   4.939   1.571   6.380
 5582SOL    HW117489   4.960   1.638   6.315
 5582SOL    HW217490   5.021   1.557   6.428
 5583SOL     OW17491   4.194   1.151   6.317
 5583SOL    HW117492   4.126   1.131   6.381
 5583SOL    HW217493   4.153   1.135   6.232
 5584SOL     OW17494   4.994   1.794   6.193
 5584SOL    HW117495   5.036   1.855   6.132
 5584SOL    HW217496   4.926   1.846   6.236
 5585SOL     OW17497   4.751   0.548   5.607
 5585SOL    HW117498   4.704   0.630   5.589
 5585SOL    HW217499   4.805   0.567   5.684
 5586SOL     OW17500   3.805   0.552   6.980
 5586SOL    HW117501   3.896   0.553   6.952
 5586SOL    HW217502   3.799   0.623   7.044
 5587SOL     OW17503   4.278   0.238   6.744
 5587SOL    HW117504   4.311   0.154   6.775
 5587SOL    HW217505   4.186   0.239   6.771
 5588SOL     OW17506   4.591   0.465   6.227
 5588SOL    HW117507   4.542   0.518   6.164
 5588SOL    HW217508   4.613   0.385   6.179
 5589SOL     OW17509   4.699   0.063   6.351
 5589SOL    HW117510   4.635   0.057   6.280
 5589SOL    HW217511   4.713   5.272   6.377
 5590SOL     OW17512   5.156   1.177   6.436
 5590SOL    HW117513   5.100   1.100   6.451
 5590SOL    HW217514   5.167   1.180   6.341
 5591SOL     OW17515   4.214   1.420   5.740
 5591SOL    HW117516   4.139   1.391   5.792
 5591SOL    HW217517   4.202   1.375   5.656
 5592SOL     OW17518   5.129   0.557   5.670
 5592SOL    HW117519   5.051   0.549   5.725
 5592SOL    HW217520   5.201   0.532   5.727
 5593SOL     OW17521   4.247   0.266   5.907
 5593SOL    HW117522   4.292   0.217   5.838
 5593SOL    HW217523   4.224   0.349   5.866
 5594SOL     OW17524   4.778   1.355   6.919
 5594SOL    HW117525   4.703   1.323   6.969
 5594SOL    HW217526   4.853   1.312   6.959
 5595SOL     OW17527   0.007   1.606   7.200
 5595SOL    HW117528   0.042   1.608   7.111
 5595SOL    HW217529   0.083   1.585   7.254
 5596SOL     OW17530   4.856   1.206   6.691
 5596SOL    HW117531   4.792   1.239   6.755
 5596SOL    HW217532   4.823   1.235   6.606
 5597SOL     OW17533   4.622   0.106   6.969
 5597SOL    HW117534   4.656   0.071   6.887
 5597SOL    HW217535   4.698   0.149   7.010
 5598SOL     OW17536   4.709   1.111   7.315
 5598SOL    HW117537   4.618   1.131   7.334
 5598SOL    HW217538   4.706   1.035   7.257
 5599SOL     OW17539   4.433   1.062   5.957
 5599SOL    HW117540   4.418   1.044   6.050
 5599SOL    HW217541   4.509   1.009   5.933
 5600SOL     OW17542   4.144   0.817   6.837
 5600SOL    HW117543   4.212   0.825   6.904
 5600SOL    HW217544   4.109   0.729   6.850
 5601SOL     OW17545   4.990   0.381   6.857
 5601SOL    HW117546   5.023   0.459   6.900
 5601SOL    HW217547   4.900   0.402   6.835
 5602SOL     OW17548   3.796   1.574   6.941
 5602SOL    HW117549   3.767   1.646   6.885
 5602SOL    HW217550   3.891   1.575   6.934
 5603SOL     OW17551   4.070   1.112   6.076
 5603SOL    HW117552   4.074   1.185   6.014
 5603SOL    HW217553   4.067   1.034   6.020
 5604SOL     OW17554   4.276   0.536   6.446
 5604SOL    HW117555   4.290   0.594   6.372
 5604SOL    HW217556   4.342   0.562   6.510
 5605SOL     OW17557   4.972   1.350   5.973
 5605SOL    HW117558   5.026   1.422   6.003
 5605SOL    HW217559   4.884   1.370   6.006
 5606SOL     OW17560   4.997   1.457   6.726
 5606SOL    HW117561   5.051   1.458   6.806
 5606SOL    HW217562   4.942   1.379   6.736
 5607SOL     OW17563   4.070   1.529   6.899
 5607SOL    HW117564   4.058   1.485   6.815
 5607SOL    HW217565   4.165   1.540   6.907
 5608SOL     OW17566   4.140   0.745   7.189
 5608SOL    HW117567   4.201   0.789   7.131
 5608SOL    HW217568   4.180   0.660   7.206
 5609SOL     OW17569   4.750   0.122   7.330
 5609SOL    HW117570   4.799   0.203   7.317
 5609SOL    HW217571   4.800   0.056   7.281
 5610SOL     OW17572   4.202   0.059   7.320
 5610SOL    HW117573   4.139   5.295   7.288
 5610SOL    HW217574   4.148   0.134   7.346
 5611SOL     OW17575   4.309   0.873   6.618
 5611SOL    HW117576   4.338   0.964   6.618
 5611SOL    HW217577   4.251   0.867   6.694
 5612SOL     OW17578   5.086   0.856   6.621
 5612SOL    HW117579   5.008   0.835   6.570
 5612SOL    HW217580   5.142   0.779   6.614
 5613SOL     OW17581   4.926   0.531   5.850
 5613SOL    HW117582   4.931   0.451   5.902
 5613SOL    HW217583   4.883   0.594   5.907
 5614SOL     OW17584   4.019   0.202   6.835
 5614SOL    HW117585   3.979   0.242   6.912
 5614SOL    HW217586   4.021   0.108   6.854
 5615SOL     OW17587   3.771   1.311   6.862
 5615SOL    HW117588   3.803   1.256   6.933
 5615SOL    HW217589   3.776   1.400   6.896
 5616SOL     OW17590   4.448   0.631   6.644
 5616SOL    HW117591   4.523   0.616   6.586
 5616SOL    HW217592   4.419   0.720   6.622
 5617SOL     OW17593   4.032   0.071   6.244
 5617SOL    HW117594   4.009   0.163   6.246
 5617SOL    HW217595   4.081   0.056   6.325
 5618SOL     OW17596   0.029   0.412   5.950
 5618SOL    HW117597   0.055   0.348   6.017
 5618SOL    HW217598   0.012   0.493   5.998
 5619SOL     OW17599   4.752   0.759   6.545
 5619SOL    HW117600   4.748   0.776   6.639
 5619SOL    HW217601   4.725   0.667   6.536
 5620SOL     OW17602   4.698   1.562   7.301
 5620SOL    HW117603   4.686   1.609   7.219
 5620SOL    HW217604   4.745   1.482   7.277
 5621SOL     OW17605   4.077   0.914   7.396
 5621SOL    HW117606   4.160   0.935   7.439
 5621SOL    HW217607   4.101   0.852   7.328
 5622SOL     OW17608   5.028   0.829   5.623
 5622SOL    HW117609   5.063   0.740   5.624
 5622SOL    HW217610   5.055   0.864   5.538
 5623SOL     OW17611   4.790   1.335   6.443
 5623SOL    HW117612   4.794   1.263   6.379
 5623SOL    HW217613   4.846   1.403   6.406
 5624SOL     OW17614   4.032   0.808   6.533
 5624SOL    HW117615   4.125   0.829   6.525
 5624SOL    HW217616   4.030   0.718   6.564
 5625SOL     OW17617   4.055   0.528   6.599
 5625SOL    HW117618   4.018   0.440   6.584
 5625SOL    HW217619   4.132   0.531   6.542
 5626SOL     OW17620   4.863   0.377   7.277
 5626SOL    HW117621   4.812   0.431   7.338
 5626SOL    HW217622   4.946   0.423   7.268
 5627SOL     OW17623   4.845   0.233   7.044
 5627SOL    HW117624   4.855   0.283   7.125
 5627SOL    HW217625   4.909   0.272   6.984
 5628SOL     OW17626   3.730   1.320   5.781
 5628SOL    HW117627   3.643   1.335   5.743
 5628SOL    HW217628   3.726   1.230   5.815
 5629SOL     OW17629   3.814   1.785   6.525
 5629SOL    HW117630   3.784   1.706   6.480
 5629SOL    HW217631   3.904   1.798   6.494
 5630SOL     OW17632   4.219   1.574   6.491
 5630SOL    HW117633   4.287   1.636   6.515
 5630SOL    HW217634   4.263   1.511   6.434
 5631SOL     OW17635   4.704   0.792   6.812
 5631SOL    HW117636   4.760   0.769   6.885
 5631SOL    HW217637   4.619   0.751   6.832
 5632SOL     OW17638   3.759   0.544   6.703
 5632SOL    HW117639   3.838   0.532   6.651
 5632SOL    HW217640   3.790   0.548   6.794
 5633SOL     OW17641   3.911   0.523   7.315
 5633SOL    HW117642   3.974   0.486   7.253
 5633SOL    HW217643   3.873   0.598   7.269
 5634SOL     OW17644   5.113   0.935   7.253
 5634SOL    HW117645   5.121   1.029   7.240
 5634SOL    HW217646   5.117   0.899   7.164
 5635SOL     OW17647   4.539   0.574   5.949
 5635SOL    HW117648   4.543   0.499   5.890
 5635SOL    HW217649   4.464   0.625   5.919
 5636SOL     OW17650   3.965   1.550   7.312
 5636SOL    HW117651   3.943   1.615   7.379
 5636SOL    HW217652   3.970   1.468   7.360
 5637SOL     OW17653   4.426   0.450   6.844
 5637SOL    HW117654   4.374   0.377   6.813
 5637SOL    HW217655   4.424   0.514   6.773
 5638SOL     OW17656   4.644   1.679   7.055
 5638SOL    HW117657   4.621   1.646   6.968
 5638SOL    HW217658   4.643   1.775   7.044
 5639SOL     OW17659   4.185   0.493   5.767
 5639SOL    HW117660   4.245   0.563   5.792
 5639SOL    HW217661   4.100   0.536   5.758
 5640SOL     OW17662   3.868   1.141   7.059
 5640SOL    HW117663   3.870   1.091   7.141
 5640SOL    HW217664   3.885   1.077   6.991
 5641SOL     OW17665   5.052   1.047   6.809
 5641SOL    HW117666   5.073   0.982   6.742
 5641SOL    HW217667   4.982   1.100   6.771
 5642SOL     OW17668   5.038   0.859   5.902
 5642SOL    HW117669   4.956   0.827   5.941
 5642SOL    HW217670   5.024   0.852   5.808
 5643SOL     OW17671   4.959   1.731   6.706
 5643SOL    HW117672   5.045   1.754   6.670
 5643SOL    HW217673   4.961   1.636   6.716
 5644SOL     OW17674   3.809   1.266   6.597
 5644SOL    HW117675   3.794   1.280   6.691
 5644SOL    HW217676   3.736   1.212   6.569
 5645SOL     OW17677   4.401   1.666   7.317
 5645SOL    HW117678   4.348   1.745   7.311
 5645SOL    HW217679   4.472   1.679   7.254
 5646SOL     OW17680   5.111   1.571   6.069
 5646SOL    HW117681   5.181   1.613   6.019
 5646SOL    HW217682   5.059   1.643   6.104
 5647SOL     OW17683   3.861   1.795   7.430
 5647SOL    HW117684   3.810   1.730   7.479
 5647SOL    HW217685   3.909   1.844   7.497
 5648SOL     OW17686   5.017   0.920   6.257
 5648SOL    HW117687   5.096   0.866   6.244
 5648SOL    HW217688   5.036   1.001   6.209
 5649SOL     OW17689   4.534   1.274   7.014
 5649SOL    HW117690   4.506   1.314   7.097
 5649SOL    HW217691   4.465   1.297   6.952
 5650SOL     OW17692   4.394   1.622   5.741
 5650SOL    HW117693   4.406   1.635   5.647
 5650SOL    HW217694   4.338   1.544   5.748
 5651SOL     OW17695   3.984   0.329   6.304
 5651SOL    HW117696   3.896   0.361   6.283
 5651SOL    HW217697   3.983   0.319   6.399
 5652SOL     OW17698   4.907   1.608   5.629
 5652SOL    HW117699   4.919   1.514   5.639
 5652SOL    HW217700   4.851   1.617   5.551
 5653SOL     OW17701   4.547   1.006   6.960
 5653SOL    HW117702   4.590   1.000   6.874
 5653SOL    HW217703   4.546   1.100   6.979
 5654SOL     OW17704   4.641   0.912   5.877
 5654SOL    HW117705   4.703   0.943   5.811
 5654SOL    HW217706   4.688   0.841   5.921
 5655SOL     OW17707   4.092   1.304   7.078
 5655SOL    HW117708   4.079   1.380   7.022
 5655SOL    HW217709   4.015   1.249   7.062
 5656SOL     OW17710   4.779   1.108   6.294
 5656SOL    HW117711   4.707   1.059   6.334
 5656SOL    HW217712   4.837   1.041   6.257
 5657SOL     OW17713   4.736   0.243   6.558
 5657SOL    HW117714   4.717   0.198   6.476
 5657SOL    HW217715   4.731   0.175   6.625
 5658SOL     OW17716   4.328   1.488   6.067
 5658SOL    HW117717   4.374   1.438   6.000
 5658SOL    HW217718   4.256   1.531   6.020
 5659SOL     OW17719   3.984   1.344   5.876
 5659SOL    HW117720   3.892   1.341   5.853
 5659SOL    HW217721   3.986   1.381   5.964
 5660SOL     OW17722   3.838   1.024   7.307
 5660SOL    HW117723   3.761   1.001   7.358
 5660SOL    HW217724   3.911   0.985   7.353
 5661SOL     OW17725   4.397   0.216   7.079
 5661SOL    HW117726   4.478   0.194   7.034
 5661SOL    HW217727   4.424   0.262   7.158
 5662SOL     OW17728   3.802   0.338   5.628
 5662SOL    HW117729   3.718   0.304   5.595
 5662SOL    HW217730   3.822   0.412   5.571
 5663SOL     OW17731   5.164   0.860   6.989
 5663SOL    HW117732   5.111   0.917   6.933
 5663SOL    HW217733   5.253   0.869   6.955
 5664SOL     OW17734   3.795   0.167   5.899
 5664SOL    HW117735   3.798   0.249   5.852
 5664SOL    HW217736   3.880   0.125   5.881
 5665SOL     OW17737   4.905   1.328   5.699
 5665SOL    HW117738   4.811   1.309   5.700
 5665SOL    HW217739   4.929   1.335   5.792
 5666SOL     OW17740   4.344   0.831   7.020
 5666SOL    HW117741   4.400   0.907   7.005
 5666SOL    HW217742   4.404   0.757   7.027
 5667SOL     OW17743   4.438   0.571   7.287
 5667SOL    HW117744   4.481   0.632   7.348
 5667SOL    HW217745   4.465   0.484   7.317
 5668SOL     OW17746   5.180   1.201   7.216
 5668SOL    HW117747   5.170   1.214   7.311
 5668SOL    HW217748   5.273   1.214   7.200
 5669SOL     OW17749   4.100   1.740   7.151
 5669SOL    HW117750   4.016   1.783   7.136
 5669SOL    HW217751   4.078   1.656   7.192
 5670SOL     OW17752   4.939   0.324   6.046
 5670SOL    HW117753   4.993   0.245   6.040
 5670SOL    HW217754   4.970   0.369   6.125
 5671SOL     OW17755   4.313   0.737   6.257
 5671SOL    HW117756   4.352   0.823   6.241
 5671SOL    HW217757   4.246   0.728   6.189
 5672SOL     OW17758   4.592   1.366   5.624
 5672SOL    HW117759   4.550   1.395   5.705
 5672SOL    HW217760   4.606   1.445   5.573
 5673SOL     OW17761   4.385   1.789   6.528
 5673SOL    HW117762   4.366   1.880   6.506
 5673SOL    HW217763   4.480   1.782   6.522
 5674SOL     OW17764   4.593   0.969   6.441
 5674SOL    HW117765   4.642   0.896   6.479
 5674SOL    HW217766   4.556   1.015   6.516
 5675SOL     OW17767   4.808   0.988   5.677
 5675SOL    HW117768   4.782   1.037   5.599
 5675SOL    HW217769   4.881   0.934   5.648
 5676SOL     OW17770   3.950   1.302   7.442
 5676SOL    HW117771   3.884   1.240   7.410
 5676SOL    HW217772   3.926   1.316   7.534
 5677SOL     OW17773   3.809   1.232   6.251
 5677SOL    HW117774   3.816   1.185   6.334
 5677SOL    HW217775   3.877   1.193   6.196
 5678SOL     OW17776   4.406   1.403   7.216
 5678SOL    HW117777   4.325   1.362   7.247
 5678SOL    HW217778   4.403   1.492   7.251
 5679SOL     OW17779   4.155   0.436   6.111
 5679SOL    HW117780   4.187   0.364   6.058
 5679SOL    HW217781   4.106   0.394   6.182
 5680SOL     OW17782   0.094   1.519   6.686
 5680SOL    HW117783   0.026   1.498   6.621
 5680SOL    HW217784   0.094   1.443   6.745
 5681SOL     OW17785   4.054   0.558   6.877
 5681SOL    HW117786   4.110   0.502   6.932
 5681SOL    HW217787   4.074   0.530   6.787
 5682SOL     OW17788   4.553   1.577   6.262
 5682SOL    HW117789   4.538   1.636   6.188
 5682SOL    HW217790   4.477   1.520   6.264
 5683SOL     OW17791   5.147   0.214   6.707
 5683SOL    HW117792   5.156   0.133   6.756
 5683SOL    HW217793   5.102   0.273   6.767
 5684SOL     OW17794   4.723   0.019   6.723
 5684SOL    HW117795   4.672   5.251   6.679
 5684SOL    HW217796   4.810   5.280   6.734
 5685SOL     OW17797   4.495   1.333   5.903
 5685SOL    HW117798   4.466   1.242   5.910
 5685SOL    HW217799   4.578   1.335   5.952
 5686SOL     OW17800   4.344   1.555   6.872
 5686SOL    HW117801   4.345   1.638   6.920
 5686SOL    HW217802   4.431   1.548   6.834
 5687SOL     OW17803   5.034   0.031   5.742
 5687SOL    HW117804   5.118   0.025   5.696
 5687SOL    HW217805   4.985   5.254   5.714
 5688SOL     OW17806   5.027   0.461   6.270
 5688SOL    HW117807   4.972   0.539   6.274
 5688SOL    HW217808   5.014   0.418   6.354
 5689SOL     OW17809   5.295   0.214   6.472
 5689SOL    HW117810   5.237   0.213   6.549
 5689SOL    HW217811   5.270   0.294   6.425
 5690SOL     OW17812   3.767   1.069   5.893
 5690SOL    HW117813   3.861   1.061   5.875
 5690SOL    HW217814   3.739   0.980   5.915
 5691SOL     OW17815   4.605   1.652   5.931
 5691SOL    HW117816   4.533   1.637   5.869
 5691SOL    HW217817   4.577   1.728   5.982
 5692SOL     OW17818   3.949   0.621   7.573
 5692SOL    HW117819   3.860   0.628   7.606
 5692SOL    HW217820   3.939   0.598   7.481
 5693SOL     OW17821   3.945   1.716   7.919
 5693SOL    HW117822   3.972   1.756   8.002
 5693SOL    HW217823   4.024   1.716   7.865
 5694SOL     OW17824   3.939   1.439   7.993
 5694SOL    HW117825   3.925   1.533   7.988
 5694SOL    HW217826   3.880   1.409   8.061
 5695SOL     OW17827   4.309   0.983   7.580
 5695SOL    HW117828   4.353   1.032   7.511
 5695SOL    HW217829   4.347   1.015   7.661
 5696SOL     OW17830   3.755   1.598   7.578
 5696SOL    HW117831   3.739   1.505   7.593
 5696SOL    HW217832   3.728   1.641   7.659
 5697SOL     OW17833   0.117   0.926   8.014
 5697SOL    HW117834   0.211   0.921   8.029
 5697SOL    HW217835   0.099   1.020   8.002
 5698SOL     OW17836   4.535   5.285   7.945
 5698SOL    HW117837   4.578   0.069   7.930
 5698SOL    HW217838   4.441   0.006   7.942
 5699SOL     OW17839   4.314   0.725   7.709
 5699SOL    HW117840   4.313   0.808   7.661
 5699SOL    HW217841   4.254   0.739   7.782
 5700SOL     OW17842   3.782   0.865   0.086
 5700SOL    HW117843   3.844   0.796   0.110
 5700SOL    HW217844   3.784   0.926   0.159
 5701SOL     OW17845   4.595   0.361   7.634
 5701SOL    HW117846   4.631   0.419   7.567
 5701SOL    HW217847   4.654   0.286   7.637
 5702SOL     OW17848   4.046   0.957   7.698
 5702SOL    HW117849   4.125   0.973   7.647
 5702SOL    HW217850   4.007   0.878   7.659
 5703SOL     OW17851   4.836   1.776   7.685
 5703SOL    HW117852   4.761   1.733   7.728
 5703SOL    HW217853   4.861   1.716   7.615
 5704SOL     OW17854   4.190   1.739   7.770
 5704SOL    HW117855   4.240   1.791   7.833
 5704SOL    HW217856   4.256   1.701   7.712
 5705SOL     OW17857   5.112   0.113   7.870
 5705SOL    HW117858   5.084   0.088   7.782
 5705SOL    HW217859   5.207   0.101   7.869
 5706SOL     OW17860   4.117   0.695   7.918
 5706SOL    HW117861   4.117   0.600   7.929
 5706SOL    HW217862   4.026   0.721   7.934
 5707SOL     OW17863   4.341   0.132   7.560
 5707SOL    HW117864   4.419   0.078   7.575
 5707SOL    HW217865   4.295   0.089   7.488
 5708SOL     OW17866   4.273   0.064   7.950
 5708SOL    HW117867   4.181   0.046   7.971
 5708SOL    HW217868   4.270   0.137   7.889
 5709SOL     OW17869   5.134   1.181   7.489
 5709SOL    HW117870   5.147   1.108   7.550
 5709SOL    HW217871   5.047   1.215   7.510
 5710SOL     OW17872   4.030   0.076   7.663
 5710SOL    HW117873   4.078   0.134   7.605
 5710SOL    HW217874   4.078   5.293   7.659
 5711SOL     OW17875   4.672   0.228   7.910
 5711SOL    HW117876   4.619   0.292   7.862
 5711SOL    HW217877   4.757   0.271   7.921
 5712SOL     OW17878   4.161   1.147   0.099
 5712SOL    HW117879   4.089   1.193   0.143
 5712SOL    HW217880   4.131   1.137   0.009
 5713SOL     OW17881   5.011   1.805   8.012
 5713SOL    HW117882   5.050   1.871   7.954
 5713SOL    HW217883   4.934   1.849   8.049
 5714SOL     OW17884   4.753   0.550   7.466
 5714SOL    HW117885   4.704   0.630   7.451
 5714SOL    HW217886   4.800   0.565   7.548
 5715SOL     OW17887   4.210   1.418   7.602
 5715SOL    HW117888   4.137   1.389   7.656
 5715SOL    HW217889   4.197   1.373   7.518
 5716SOL     OW17890   5.128   0.556   7.533
 5716SOL    HW117891   5.050   0.549   7.587
 5716SOL    HW217892   5.199   0.522   7.588
 5717SOL     OW17893   4.249   0.274   7.774
 5717SOL    HW117894   4.289   0.220   7.705
 5717SOL    HW217895   4.226   0.355   7.730
 5718SOL     OW17896   4.438   1.063   7.810
 5718SOL    HW117897   4.408   1.047   7.900
 5718SOL    HW217898   4.517   1.009   7.801
 5719SOL     OW17899   4.089   1.107   7.924
 5719SOL    HW117900   4.067   1.186   7.874
 5719SOL    HW217901   4.075   1.035   7.863
 5720SOL     OW17902   4.957   1.360   7.817
 5720SOL    HW117903   5.015   1.431   7.844
 5720SOL    HW217904   4.907   1.338   7.896
 5721SOL     OW17905   0.029   0.639   7.937
 5721SOL    HW117906   5.273   0.669   8.009
 5721SOL    HW217907   0.048   0.718   7.887
 5722SOL     OW17908   4.925   0.529   7.713
 5722SOL    HW117909   4.928   0.444   7.757
 5722SOL    HW217910   4.892   0.590   7.779
 5723SOL     OW17911   0.025   0.408   7.798
 5723SOL    HW117912   0.033   0.344   7.869
 5723SOL    HW217913   0.024   0.493   7.842
 5724SOL     OW17914   5.037   0.832   7.492
 5724SOL    HW117915   5.064   0.741   7.488
 5724SOL    HW217916   5.060   0.868   7.406
 5725SOL     OW17917   3.731   1.324   7.639
 5725SOL    HW117918   3.643   1.337   7.602
 5725SOL    HW217919   3.729   1.234   7.673
 5726SOL     OW17920   4.567   0.612   7.757
 5726SOL    HW117921   4.560   0.520   7.732
 5726SOL    HW217922   4.477   0.643   7.761
 5727SOL     OW17923   4.183   0.495   7.635
 5727SOL    HW117924   4.243   0.567   7.653
 5727SOL    HW217925   4.098   0.538   7.620
 5728SOL     OW17926   5.031   0.848   7.776
 5728SOL    HW117927   4.938   0.867   7.791
 5728SOL    HW217928   5.040   0.845   7.681
 5729SOL     OW17929   5.105   1.573   7.906
 5729SOL    HW117930   5.200   1.579   7.919
 5729SOL    HW217931   5.071   1.655   7.941
 5730SOL     OW17932   4.388   1.622   7.603
 5730SOL    HW117933   4.402   1.633   7.509
 5730SOL    HW217934   4.336   1.542   7.610
 5731SOL     OW17935   4.910   1.610   7.487
 5731SOL    HW117936   4.919   1.516   7.501
 5731SOL    HW217937   4.850   1.618   7.413
 5732SOL     OW17938   4.655   0.905   7.760
 5732SOL    HW117939   4.705   0.929   7.682
 5732SOL    HW217940   4.640   0.811   7.751
 5733SOL     OW17941   4.332   1.509   7.935
 5733SOL    HW117942   4.378   1.449   7.877
 5733SOL    HW217943   4.255   1.537   7.885
 5734SOL     OW17944   3.983   1.345   7.745
 5734SOL    HW117945   3.891   1.343   7.717
 5734SOL    HW217946   3.981   1.381   7.833
 5735SOL     OW17947   3.798   0.337   7.490
 5735SOL    HW117948   3.716   0.306   7.452
 5735SOL    HW217949   3.822   0.413   7.436
 5736SOL     OW17950   3.787   0.183   7.742
 5736SOL    HW117951   3.785   0.258   7.683
 5736SOL    HW217952   3.868   0.138   7.721
 5737SOL     OW17953   4.903   1.328   7.554
 5737SOL    HW117954   4.808   1.314   7.553
 5737SOL    HW217955   4.924   1.341   7.646
 5738SOL     OW17956   5.273   1.742   0.322
 5738SOL    HW117957   5.276   1.829   0.283
 5738SOL    HW217958   0.050   1.740   0.379
 5739SOL     OW17959   4.940   0.325   7.909
 5739SOL    HW117960   5.004   0.253   7.906
 5739SOL    HW217961   4.950   0.362   7.996
 5740SOL     OW17962   4.357   0.739   8.049
 5740SOL    HW117963   4.356   0.818   0.024
 5740SOL    HW217964   4.268   0.733   8.014
 5741SOL     OW17965   4.593   1.365   7.487
 5741SOL    HW117966   4.552   1.395   7.569
 5741SOL    HW217967   4.606   1.446   7.437
 5742SOL     OW17968   4.802   0.976   7.541
 5742SOL    HW117969   4.778   1.031   7.467
 5742SOL    HW217970   4.880   0.929   7.512
 5743SOL     OW17971   4.113   0.423   7.985
 5743SOL    HW117972   4.165   0.369   7.926
 5743SOL    HW217973   4.161   0.422   8.068
 5744SOL     OW17974   4.488   1.336   7.763
 5744SOL    HW117975   4.460   1.245   7.765
 5744SOL    HW217976   4.567   1.339   7.817
 5745SOL     OW17977   5.035   0.036   7.610
 5745SOL    HW117978   5.115   0.028   7.558
 5745SOL    HW217979   4.986   5.256   7.591
 5746SOL     OW17980   3.777   1.077   7.749
 5746SOL    HW117981   3.871   1.068   7.736
 5746SOL    HW217982   3.746   0.988   7.764
 5747SOL     OW17983   4.613   1.648   7.782
 5747SOL    HW117984   4.536   1.628   7.728
 5747SOL    HW217985   4.581   1.711   7.846
 5748SOL     OW17986   3.940   2.484   0.124
 5748SOL    HW117987   3.860   2.448   0.162
 5748SOL    HW217988   3.963   2.424   0.053
 5749SOL     OW17989   3.949   2.144   0.992
 5749SOL    HW117990   3.977   2.109   1.077
 5749SOL    HW217991   3.859   2.112   0.982
 5750SOL     OW17992   3.727   2.246   0.637
 5750SOL    HW117993   3.645   2.271   0.680
 5750SOL    HW217994   3.705   2.166   0.590
 5751SOL     OW17995   4.291   3.153   1.178
 5751SOL    HW117996   4.204   3.158   1.139
 5751SOL    HW217997   4.307   3.242   1.211
 5752SOL     OW17998   5.285   3.413   0.707
 5752SOL    HW117999   5.250   3.359   0.778
 5752SOL    HW218000   5.227   3.396   0.633
 5753SOL     OW18001   4.861   2.561   0.699
 5753SOL    HW118002   4.911   2.642   0.688
 5753SOL    HW218003   4.812   2.573   0.780
 5754SOL     OW18004   4.476   3.002   1.043
 5754SOL    HW118005   4.408   3.038   1.100
 5754SOL    HW218006   4.512   3.079   0.998
 5755SOL     OW18007   4.595   2.632   1.823
 5755SOL    HW118008   4.578   2.703   1.885
 5755SOL    HW218009   4.617   2.676   1.741
 5756SOL     OW18010   4.408   2.860   0.650
 5756SOL    HW118011   4.474   2.851   0.718
 5756SOL    HW218012   4.340   2.915   0.689
 5757SOL     OW18013   4.436   3.012   1.815
 5757SOL    HW118014   4.484   3.090   1.843
 5757SOL    HW218015   4.355   3.046   1.778
 5758SOL     OW18016   4.055   3.285   1.067
 5758SOL    HW118017   3.982   3.247   1.019
 5758SOL    HW218018   4.103   3.336   1.003
 5759SOL     OW18019   5.160   3.341   1.356
 5759SOL    HW118020   5.211   3.419   1.379
 5759SOL    HW218021   5.099   3.331   1.428
 5760SOL     OW18022   4.174   2.259   1.484
 5760SOL    HW118023   4.249   2.200   1.491
 5760SOL    HW218024   4.098   2.204   1.499
 5761SOL     OW18025   3.945   3.576   0.470
 5761SOL    HW118026   3.965   3.652   0.525
 5761SOL    HW218027   4.021   3.568   0.412
 5762SOL     OW18028   4.859   3.203   1.695
 5762SOL    HW118029   4.898   3.198   1.782
 5762SOL    HW218030   4.807   3.122   1.687
 5763SOL     OW18031   3.949   3.302   0.527
 5763SOL    HW118032   3.938   3.397   0.530
 5763SOL    HW218033   3.893   3.269   0.597
 5764SOL     OW18034   3.983   2.952   0.890
 5764SOL    HW118035   3.981   2.865   0.931
 5764SOL    HW218036   3.926   3.006   0.946
 5765SOL     OW18037   4.329   3.655   1.424
 5765SOL    HW118038   4.250   3.637   1.474
 5765SOL    HW218039   4.355   3.743   1.452
 5766SOL     OW18040   4.351   2.820   0.136
 5766SOL    HW118041   4.297   2.895   0.112
 5766SOL    HW218042   4.404   2.852   0.209
 5767SOL     OW18043   3.839   2.513   0.563
 5767SOL    HW118044   3.810   2.425   0.584
 5767SOL    HW218045   3.831   2.562   0.645
 5768SOL     OW18046   3.756   3.456   0.110
 5768SOL    HW118047   3.742   3.369   0.145
 5768SOL    HW218048   3.739   3.515   0.183
 5769SOL     OW18049   0.116   2.808   0.596
 5769SOL    HW118050   0.206   2.776   0.587
 5769SOL    HW218051   0.105   2.870   0.524
 5770SOL     OW18052   3.848   2.605   1.585
 5770SOL    HW118053   3.939   2.633   1.590
 5770SOL    HW218054   3.798   2.687   1.593
 5771SOL     OW18055   4.338   3.250   0.734
 5771SOL    HW118056   4.292   3.166   0.744
 5771SOL    HW218057   4.322   3.276   0.644
 5772SOL     OW18058   5.003   3.096   1.425
 5772SOL    HW118059   5.037   3.030   1.364
 5772SOL    HW218060   5.060   3.090   1.501
 5773SOL     OW18061   4.541   1.866   0.514
 5773SOL    HW118062   4.580   1.950   0.490
 5773SOL    HW218063   4.448   1.884   0.520
 5774SOL     OW18064   3.913   2.827   1.273
 5774SOL    HW118065   3.999   2.785   1.259
 5774SOL    HW218066   3.852   2.772   1.224
 5775SOL     OW18067   4.895   3.670   1.625
 5775SOL    HW118068   4.915   3.731   1.553
 5775SOL    HW218069   4.919   3.584   1.591
 5776SOL     OW18070   4.060   2.112   1.817
 5776SOL    HW118071   4.102   2.196   1.834
 5776SOL    HW218072   3.969   2.124   1.844
 5777SOL     OW18073   5.167   3.298   0.933
 5777SOL    HW118074   5.106   3.305   1.006
 5777SOL    HW218075   5.161   3.207   0.904
 5778SOL     OW18076   4.323   2.574   0.283
 5778SOL    HW118077   4.340   2.654   0.233
 5778SOL    HW218078   4.258   2.601   0.349
 5779SOL     OW18079   4.995   2.199   0.918
 5779SOL    HW118080   4.906   2.170   0.940
 5779SOL    HW218081   5.050   2.164   0.988
 5780SOL     OW18082   4.514   2.480   1.449
 5780SOL    HW118083   4.489   2.455   1.538
 5780SOL    HW218084   4.476   2.412   1.394
 5781SOL     OW18085   5.114   2.344   1.681
 5781SOL    HW118086   5.116   2.380   1.769
 5781SOL    HW218087   5.191   2.287   1.676
 5782SOL     OW18088   4.676   2.749   1.584
 5782SOL    HW118089   4.729   2.678   1.547
 5782SOL    HW218090   4.628   2.784   1.509
 5783SOL     OW18091   4.715   2.274   1.237
 5783SOL    HW118092   4.628   2.293   1.270
 5783SOL    HW218093   4.700   2.228   1.154
 5784SOL     OW18094   4.778   2.560   0.426
 5784SOL    HW118095   4.795   2.555   0.520
 5784SOL    HW218096   4.695   2.514   0.414
 5785SOL     OW18097   3.811   2.685   0.776
 5785SOL    HW118098   3.892   2.677   0.827
 5785SOL    HW218099   3.768   2.762   0.812
 5786SOL     OW18100   3.850   3.717   1.580
 5786SOL    HW118101   3.852   3.695   1.673
 5786SOL    HW218102   3.759   3.699   1.553
 5787SOL     OW18103   4.610   2.219   0.201
 5787SOL    HW118104   4.655   2.269   0.133
 5787SOL    HW218105   4.611   2.129   0.170
 5788SOL     OW18106   5.097   3.012   0.550
 5788SOL    HW118107   5.180   3.005   0.502
 5788SOL    HW218108   5.043   3.069   0.496
 5789SOL     OW18109   4.274   2.042   0.894
 5789SOL    HW118110   4.276   2.071   0.985
 5789SOL    HW218111   4.276   2.123   0.843
 5790SOL     OW18112   4.727   3.305   0.472
 5790SOL    HW118113   4.689   3.378   0.422
 5790SOL    HW218114   4.707   3.325   0.563
 5791SOL     OW18115   4.078   3.673   0.865
 5791SOL    HW118116   4.122   3.588   0.872
 5791SOL    HW218117   4.147   3.737   0.884
 5792SOL     OW18118   4.939   3.402   1.518
 5792SOL    HW118119   4.926   3.330   1.580
 5792SOL    HW218120   4.877   3.384   1.447
 5793SOL     OW18121   4.046   2.804   0.259
 5793SOL    HW118122   4.110   2.850   0.204
 5793SOL    HW218123   4.053   2.712   0.233
 5794SOL     OW18124   4.191   3.127   1.738
 5794SOL    HW118125   4.165   3.132   1.646
 5794SOL    HW218126   4.109   3.125   1.787
 5795SOL     OW18127   4.822   3.635   0.223
 5795SOL    HW118128   4.767   3.596   0.291
 5795SOL    HW218129   4.838   3.565   0.161
 5796SOL     OW18130   3.925   2.141   1.503
 5796SOL    HW118131   3.843   2.190   1.500
 5796SOL    HW218132   3.906   2.065   1.557
 5797SOL     OW18133   4.188   3.598   0.323
 5797SOL    HW118134   4.231   3.658   0.385
 5797SOL    HW218135   4.258   3.571   0.264
 5798SOL     OW18136   5.114   1.987   0.441
 5798SOL    HW118137   5.099   1.968   0.349
 5798SOL    HW218138   5.209   1.994   0.449
 5799SOL     OW18139   3.979   3.653   1.231
 5799SOL    HW118140   4.031   3.586   1.276
 5799SOL    HW218141   3.972   3.620   1.141
 5800SOL     OW18142   4.663   3.560   0.898
 5800SOL    HW118143   4.744   3.512   0.914
 5800SOL    HW218144   4.619   3.510   0.829
 5801SOL     OW18145   4.111   2.559   0.476
 5801SOL    HW118146   4.133   2.467   0.488
 5801SOL    HW218147   4.018   2.565   0.498
 5802SOL     OW18148   4.355   1.972   0.138
 5802SOL    HW118149   4.450   1.960   0.144
 5802SOL    HW218150   4.334   1.952   0.046
 5803SOL     OW18151   4.488   2.141   1.756
 5803SOL    HW118152   4.566   2.086   1.754
 5803SOL    HW218153   4.441   2.114   1.834
 5804SOL     OW18154   4.598   3.384   1.194
 5804SOL    HW118155   4.584   3.348   1.106
 5804SOL    HW218156   4.669   3.331   1.230
 5805SOL     OW18157   5.057   2.454   1.432
 5805SOL    HW118158   5.089   2.423   1.517
 5805SOL    HW218159   5.100   2.538   1.420
 5806SOL     OW18160   4.539   3.254   0.942
 5806SOL    HW118161   4.624   3.243   0.899
 5806SOL    HW218162   4.477   3.259   0.870
 5807SOL     OW18163   4.651   2.371   0.902
 5807SOL    HW118164   4.627   2.362   0.809
 5807SOL    HW218165   4.682   2.284   0.927
 5808SOL     OW18166   4.274   1.925   0.504
 5808SOL    HW118167   4.194   1.924   0.556
 5808SOL    HW218168   4.266   2.004   0.449
 5809SOL     OW18169   5.138   3.035   0.048
 5809SOL    HW118170   5.130   2.958   0.104
 5809SOL    HW218171   5.055   3.081   0.057
 5810SOL     OW18172   4.036   1.920   0.172
 5810SOL    HW118173   4.102   1.988   0.189
 5810SOL    HW218174   4.071   1.841   0.212
 5811SOL     OW18175   4.662   2.110   0.457
 5811SOL    HW118176   4.635   2.150   0.375
 5811SOL    HW218177   4.756   2.128   0.463
 5812SOL     OW18178   4.801   2.544   1.460
 5812SOL    HW118179   4.735   2.475   1.462
 5812SOL    HW218180   4.884   2.498   1.451
 5813SOL     OW18181   4.939   3.434   0.796
 5813SOL    HW118182   4.960   3.500   0.730
 5813SOL    HW218183   5.022   3.417   0.841
 5814SOL     OW18184   4.193   3.014   0.731
 5814SOL    HW118185   4.125   2.993   0.796
 5814SOL    HW218186   4.151   2.998   0.647
 5815SOL     OW18187   4.990   3.656   0.607
 5815SOL    HW118188   5.035   3.719   0.551
 5815SOL    HW218189   4.924   3.708   0.653
 5816SOL     OW18190   4.758   2.389   0.032
 5816SOL    HW118191   4.712   2.469   0.006
 5816SOL    HW218192   4.818   2.417   0.101
 5817SOL     OW18193   3.805   2.417   1.392
 5817SOL    HW118194   3.897   2.416   1.365
 5817SOL    HW218195   3.799   2.486   1.457
 5818SOL     OW18196   4.282   2.089   1.167
 5818SOL    HW118197   4.325   2.014   1.209
 5818SOL    HW218198   4.191   2.085   1.197
 5819SOL     OW18199   4.591   2.320   0.638
 5819SOL    HW118200   4.550   2.376   0.573
 5819SOL    HW218201   4.613   2.240   0.591
 5820SOL     OW18202   4.739   1.915   0.749
 5820SOL    HW118203   4.680   1.909   0.674
 5820SOL    HW218204   4.717   1.840   0.804
 5821SOL     OW18205   5.156   3.039   0.849
 5821SOL    HW118206   5.103   2.960   0.863
 5821SOL    HW218207   5.166   3.044   0.754
 5822SOL     OW18208   4.207   3.302   0.172
 5822SOL    HW118209   4.134   3.261   0.219
 5822SOL    HW218210   4.214   3.253   0.090
 5823SOL     OW18211   5.130   2.446   0.074
 5823SOL    HW118212   5.070   2.422   0.145
 5823SOL    HW218213   5.195   2.375   0.073
 5824SOL     OW18214   4.239   2.126   0.322
 5824SOL    HW118215   4.291   2.074   0.261
 5824SOL    HW218216   4.226   2.210   0.278
 5825SOL     OW18217   4.778   3.217   1.333
 5825SOL    HW118218   4.703   3.185   1.383
 5825SOL    HW218219   4.854   3.173   1.373
 5826SOL     OW18220   0.007   3.468   1.614
 5826SOL    HW118221   0.041   3.470   1.525
 5826SOL    HW218222   0.083   3.446   1.669
 5827SOL     OW18223   4.855   3.068   1.106
 5827SOL    HW118224   4.792   3.102   1.169
 5827SOL    HW218225   4.823   3.097   1.020
 5828SOL     OW18226   4.642   1.959   1.395
 5828SOL    HW118227   4.664   1.940   1.304
 5828SOL    HW218228   4.721   1.997   1.431
 5829SOL     OW18229   4.709   2.975   1.726
 5829SOL    HW118230   4.617   2.993   1.747
 5829SOL    HW218231   4.705   2.898   1.669
 5830SOL     OW18232   4.441   2.926   0.382
 5830SOL    HW118233   4.422   2.906   0.473
 5830SOL    HW218234   4.518   2.874   0.361
 5831SOL     OW18235   4.144   2.678   1.251
 5831SOL    HW118236   4.212   2.688   1.318
 5831SOL    HW218237   4.109   2.590   1.265
 5832SOL     OW18238   4.987   2.237   1.278
 5832SOL    HW118239   5.022   2.316   1.318
 5832SOL    HW218240   4.897   2.259   1.254
 5833SOL     OW18241   3.796   3.435   1.354
 5833SOL    HW118242   3.768   3.509   1.300
 5833SOL    HW218243   3.892   3.437   1.348
 5834SOL     OW18244   4.065   2.973   0.491
 5834SOL    HW118245   4.072   3.046   0.428
 5834SOL    HW218246   4.073   2.894   0.437
 5835SOL     OW18247   4.274   2.397   0.859
 5835SOL    HW118248   4.289   2.455   0.785
 5835SOL    HW218249   4.340   2.422   0.924
 5836SOL     OW18250   4.970   3.209   0.392
 5836SOL    HW118251   5.026   3.282   0.418
 5836SOL    HW218252   4.883   3.232   0.424
 5837SOL     OW18253   4.997   3.319   1.140
 5837SOL    HW118254   5.051   3.320   1.219
 5837SOL    HW218255   4.943   3.240   1.150
 5838SOL     OW18256   4.070   3.390   1.313
 5838SOL    HW118257   4.058   3.347   1.229
 5838SOL    HW218258   4.165   3.402   1.321
 5839SOL     OW18259   4.139   2.607   1.602
 5839SOL    HW118260   4.202   2.651   1.545
 5839SOL    HW218261   4.178   2.521   1.618
 5840SOL     OW18262   4.718   1.991   1.755
 5840SOL    HW118263   4.776   2.062   1.731
 5840SOL    HW218264   4.764   1.911   1.729
 5841SOL     OW18265   4.221   1.901   1.749
 5841SOL    HW118266   4.177   1.847   1.683
 5841SOL    HW218267   4.163   1.976   1.761
 5842SOL     OW18268   4.307   2.736   1.031
 5842SOL    HW118269   4.340   2.826   1.033
 5842SOL    HW218270   4.251   2.729   1.109
 5843SOL     OW18271   5.086   2.717   1.037
 5843SOL    HW118272   5.010   2.697   0.982
 5843SOL    HW218273   5.144   2.641   1.027
 5844SOL     OW18274   4.932   2.394   0.267
 5844SOL    HW118275   4.934   2.313   0.319
 5844SOL    HW218276   4.886   2.457   0.322
 5845SOL     OW18277   4.022   2.060   1.247
 5845SOL    HW118278   3.984   2.092   1.329
 5845SOL    HW218279   4.003   1.966   1.248
 5846SOL     OW18280   3.770   3.173   1.275
 5846SOL    HW118281   3.802   3.118   1.346
 5846SOL    HW218282   3.776   3.262   1.309
 5847SOL     OW18283   4.446   2.492   1.055
 5847SOL    HW118284   4.522   2.477   1.000
 5847SOL    HW218285   4.418   2.581   1.035
 5848SOL     OW18286   4.028   1.925   0.624
 5848SOL    HW118287   4.008   2.016   0.646
 5848SOL    HW218288   4.036   1.881   0.708
 5849SOL     OW18289   0.049   2.238   0.354
 5849SOL    HW118290   0.061   2.182   0.431
 5849SOL    HW218291   0.021   2.322   0.390
 5850SOL     OW18292   4.751   2.620   0.958
 5850SOL    HW118293   4.748   2.638   1.052
 5850SOL    HW218294   4.725   2.528   0.950
 5851SOL     OW18295   4.696   3.423   1.715
 5851SOL    HW118296   4.685   3.470   1.632
 5851SOL    HW218297   4.744   3.344   1.691
 5852SOL     OW18298   4.077   2.778   1.809
 5852SOL    HW118299   4.159   2.797   1.855
 5852SOL    HW218300   4.102   2.715   1.741
 5853SOL     OW18301   5.032   2.697   0.025
 5853SOL    HW118302   5.064   2.608   0.044
 5853SOL    HW218303   5.057   2.713   8.015
 5854SOL     OW18304   4.790   3.197   0.857
 5854SOL    HW118305   4.794   3.125   0.793
 5854SOL    HW218306   4.846   3.265   0.821
 5855SOL     OW18307   4.032   2.670   0.946
 5855SOL    HW118308   4.125   2.692   0.941
 5855SOL    HW218309   4.030   2.581   0.979
 5856SOL     OW18310   4.053   2.390   1.012
 5856SOL    HW118311   4.019   2.302   0.999
 5856SOL    HW218312   4.130   2.395   0.956
 5857SOL     OW18313   4.856   2.237   1.682
 5857SOL    HW118314   4.808   2.292   1.744
 5857SOL    HW218315   4.943   2.277   1.678
 5858SOL     OW18316   4.885   2.063   1.470
 5858SOL    HW118317   4.873   2.125   1.541
 5858SOL    HW218318   4.925   2.114   1.399
 5859SOL     OW18319   3.738   3.184   0.188
 5859SOL    HW118320   3.651   3.199   0.151
 5859SOL    HW218321   3.734   3.094   0.221
 5860SOL     OW18322   3.814   3.647   0.939
 5860SOL    HW118323   3.785   3.568   0.894
 5860SOL    HW218324   3.904   3.661   0.908
 5861SOL     OW18325   4.219   3.436   0.905
 5861SOL    HW118326   4.287   3.498   0.929
 5861SOL    HW218327   4.263   3.373   0.848
 5862SOL     OW18328   4.703   2.653   1.225
 5862SOL    HW118329   4.761   2.631   1.298
 5862SOL    HW218330   4.618   2.614   1.249
 5863SOL     OW18331   3.760   2.407   1.117
 5863SOL    HW118332   3.841   2.396   1.067
 5863SOL    HW218333   3.788   2.410   1.208
 5864SOL     OW18334   3.916   2.383   1.729
 5864SOL    HW118335   3.970   2.341   1.662
 5864SOL    HW218336   3.876   2.457   1.684
 5865SOL     OW18337   5.115   2.798   1.666
 5865SOL    HW118338   5.122   2.892   1.653
 5865SOL    HW218339   5.118   2.761   1.578
 5866SOL     OW18340   4.544   2.431   0.370
 5866SOL    HW118341   4.552   2.360   0.307
 5866SOL    HW218342   4.467   2.481   0.340
 5867SOL     OW18343   3.965   3.412   1.726
 5867SOL    HW118344   3.943   3.477   1.793
 5867SOL    HW218345   3.969   3.329   1.773
 5868SOL     OW18346   4.429   2.310   1.257
 5868SOL    HW118347   4.374   2.237   1.228
 5868SOL    HW218348   4.424   2.374   1.185
 5869SOL     OW18349   4.642   3.542   1.469
 5869SOL    HW118350   4.621   3.508   1.382
 5869SOL    HW218351   4.643   3.637   1.458
 5870SOL     OW18352   4.192   2.353   0.177
 5870SOL    HW118353   4.259   2.418   0.197
 5870SOL    HW218354   4.109   2.399   0.190
 5871SOL     OW18355   3.868   3.003   1.473
 5871SOL    HW118356   3.870   2.953   1.554
 5871SOL    HW218357   3.886   2.938   1.404
 5872SOL     OW18358   5.052   2.910   1.224
 5872SOL    HW118359   5.072   2.844   1.157
 5872SOL    HW218360   4.982   2.963   1.184
 5873SOL     OW18361   5.023   2.734   0.319
 5873SOL    HW118362   4.947   2.688   0.353
 5873SOL    HW218363   5.024   2.713   0.226
 5874SOL     OW18364   4.959   3.593   1.120
 5874SOL    HW118365   5.044   3.616   1.084
 5874SOL    HW218366   4.961   3.498   1.130
 5875SOL     OW18367   3.809   3.128   1.011
 5875SOL    HW118368   3.794   3.142   1.105
 5875SOL    HW218369   3.735   3.074   0.983
 5876SOL     OW18370   4.401   3.529   1.732
 5876SOL    HW118371   4.348   3.608   1.724
 5876SOL    HW218372   4.472   3.541   1.669
 5877SOL     OW18373   4.630   1.953   0.131
 5877SOL    HW118374   4.643   1.934   0.039
 5877SOL    HW218375   4.694   1.899   0.177
 5878SOL     OW18376   0.078   2.012   0.524
 5878SOL    HW118377   0.169   2.003   0.498
 5878SOL    HW218378   0.065   1.946   0.592
 5879SOL     OW18379   5.108   3.435   0.478
 5879SOL    HW118380   5.163   3.479   0.413
 5879SOL    HW218381   5.059   3.505   0.520
 5880SOL     OW18382   3.861   3.658   1.843
 5880SOL    HW118383   3.811   3.592   1.891
 5880SOL    HW218384   3.909   3.706   1.911
 5881SOL     OW18385   5.018   2.782   0.671
 5881SOL    HW118386   5.096   2.729   0.658
 5881SOL    HW218387   5.036   2.863   0.623
 5882SOL     OW18388   4.534   3.136   1.429
 5882SOL    HW118389   4.506   3.176   1.511
 5882SOL    HW218390   4.466   3.159   1.366
 5883SOL     OW18391   4.400   3.485   0.157
 5883SOL    HW118392   4.409   3.492   0.062
 5883SOL    HW218393   4.339   3.412   0.170
 5884SOL     OW18394   3.985   2.177   0.717
 5884SOL    HW118395   3.899   2.212   0.694
 5884SOL    HW218396   3.983   2.170   0.812
 5885SOL     OW18397   4.859   3.441   0.043
 5885SOL    HW118398   4.897   3.354   0.060
 5885SOL    HW218399   4.903   3.471   8.044
 5886SOL     OW18400   4.547   2.868   1.373
 5886SOL    HW118401   4.592   2.863   1.289
 5886SOL    HW218402   4.546   2.962   1.394
 5887SOL     OW18403   4.644   2.776   0.301
 5887SOL    HW118404   4.696   2.799   0.224
 5887SOL    HW218405   4.693   2.704   0.341
 5888SOL     OW18406   4.092   3.166   1.492
 5888SOL    HW118407   4.079   3.242   1.436
 5888SOL    HW218408   4.015   3.111   1.476
 5889SOL     OW18409   4.778   2.970   0.708
 5889SOL    HW118410   4.708   2.919   0.748
 5889SOL    HW218411   4.836   2.905   0.669
 5890SOL     OW18412   4.739   2.101   0.968
 5890SOL    HW118413   4.737   2.054   0.885
 5890SOL    HW218414   4.735   2.032   1.035
 5891SOL     OW18415   4.327   3.347   0.479
 5891SOL    HW118416   4.373   3.298   0.411
 5891SOL    HW218417   4.258   3.394   0.432
 5892SOL     OW18418   3.992   3.179   0.292
 5892SOL    HW118419   3.906   3.190   0.251
 5892SOL    HW218420   3.985   3.225   0.376
 5893SOL     OW18421   3.837   2.887   1.720
 5893SOL    HW118422   3.761   2.863   1.772
 5893SOL    HW218423   3.911   2.848   1.766
 5894SOL     OW18424   4.399   2.058   1.500
 5894SOL    HW118425   4.483   2.037   1.459
 5894SOL    HW218426   4.422   2.090   1.587
 5895SOL     OW18427   3.780   2.224   0.039
 5895SOL    HW118428   3.703   2.173   0.014
 5895SOL    HW218429   3.832   2.230   8.039
 5896SOL     OW18430   5.163   2.721   1.403
 5896SOL    HW118431   5.111   2.779   1.347
 5896SOL    HW218432   5.252   2.728   1.368
 5897SOL     OW18433   3.795   2.015   0.301
 5897SOL    HW118434   3.780   2.100   0.260
 5897SOL    HW218435   3.879   1.986   0.266
 5898SOL     OW18436   4.911   3.175   0.118
 5898SOL    HW118437   4.816   3.175   0.113
 5898SOL    HW218438   4.930   3.181   0.212
 5899SOL     OW18439   4.343   2.693   1.434
 5899SOL    HW118440   4.400   2.768   1.419
 5899SOL    HW218441   4.403   2.619   1.442
 5900SOL     OW18442   4.442   2.424   1.702
 5900SOL    HW118443   4.484   2.484   1.763
 5900SOL    HW218444   4.464   2.337   1.736
 5901SOL     OW18445   5.180   3.064   1.632
 5901SOL    HW118446   5.172   3.078   1.726
 5901SOL    HW218447   5.274   3.074   1.615
 5902SOL     OW18448   4.100   3.601   1.565
 5902SOL    HW118449   4.016   3.644   1.551
 5902SOL    HW218450   4.078   3.518   1.607
 5903SOL     OW18451   4.931   2.188   0.460
 5903SOL    HW118452   4.993   2.116   0.451
 5903SOL    HW218453   4.961   2.235   0.539
 5904SOL     OW18454   4.311   2.597   0.670
 5904SOL    HW118455   4.351   2.683   0.658
 5904SOL    HW218456   4.243   2.592   0.603
 5905SOL     OW18457   4.624   3.228   0.038
 5905SOL    HW118458   4.559   3.222   0.108
 5905SOL    HW218459   4.620   3.319   0.009
 5906SOL     OW18460   4.385   3.651   0.942
 5906SOL    HW118461   4.366   3.742   0.920
 5906SOL    HW218462   4.480   3.644   0.936
 5907SOL     OW18463   4.592   2.830   0.855
 5907SOL    HW118464   4.642   2.758   0.893
 5907SOL    HW218465   4.557   2.877   0.930
 5908SOL     OW18466   4.800   2.833   0.085
 5908SOL    HW118467   4.790   2.899   0.017
 5908SOL    HW218468   4.882   2.789   0.065
 5909SOL     OW18469   3.949   3.164   1.855
 5909SOL    HW118470   3.883   3.102   1.825
 5909SOL    HW218471   3.930   3.176   1.948
 5910SOL     OW18472   3.809   3.091   0.665
 5910SOL    HW118473   3.817   3.045   0.749
 5910SOL    HW218474   3.882   3.057   0.612
 5911SOL     OW18475   4.406   3.265   1.630
 5911SOL    HW118476   4.326   3.224   1.662
 5911SOL    HW218477   4.403   3.354   1.665
 5912SOL     OW18478   4.148   2.298   0.524
 5912SOL    HW118479   4.182   2.227   0.470
 5912SOL    HW218480   4.103   2.254   0.596
 5913SOL     OW18481   0.092   3.383   1.101
 5913SOL    HW118482   0.026   3.361   1.035
 5913SOL    HW218483   0.095   3.306   1.158
 5914SOL     OW18484   4.056   2.419   1.292
 5914SOL    HW118485   4.111   2.363   1.348
 5914SOL    HW218486   4.075   2.390   1.203
 5915SOL     OW18487   4.553   3.440   0.677
 5915SOL    HW118488   4.539   3.497   0.601
 5915SOL    HW218489   4.476   3.382   0.678
 5916SOL     OW18490   5.147   2.081   1.115
 5916SOL    HW118491   5.190   2.016   1.170
 5916SOL    HW218492   5.100   2.137   1.177
 5917SOL     OW18493   4.729   1.879   1.140
 5917SOL    HW118494   4.676   1.811   1.098
 5917SOL    HW218495   4.817   1.841   1.146
 5918SOL     OW18496   4.495   3.189   0.309
 5918SOL    HW118497   4.465   3.100   0.325
 5918SOL    HW218498   4.577   3.197   0.359
 5919SOL     OW18499   4.344   3.418   1.286
 5919SOL    HW118500   4.345   3.500   1.334
 5919SOL    HW218501   4.431   3.410   1.249
 5920SOL     OW18502   5.049   1.921   0.189
 5920SOL    HW118503   5.089   1.874   0.116
 5920SOL    HW218504   4.969   1.872   0.209
 5921SOL     OW18505   5.027   2.324   0.682
 5921SOL    HW118506   4.973   2.403   0.686
 5921SOL    HW218507   5.015   2.282   0.767
 5922SOL     OW18508   5.299   2.090   0.879
 5922SOL    HW118509   5.239   2.071   0.951
 5922SOL    HW218510   5.269   2.173   0.843
 5923SOL     OW18511   3.768   2.927   0.305
 5923SOL    HW118512   3.863   2.927   0.310
 5923SOL    HW218513   3.742   2.843   0.343
 5924SOL     OW18514   4.604   3.516   0.351
 5924SOL    HW118515   4.536   3.501   0.284
 5924SOL    HW218516   4.574   3.593   0.399
 5925SOL     OW18517   3.951   2.485   1.987
 5925SOL    HW118518   3.862   2.483   2.022
 5925SOL    HW218519   3.942   2.461   1.895
 5926SOL     OW18520   3.951   2.141   2.853
 5926SOL    HW118521   3.977   2.108   2.939
 5926SOL    HW218522   3.860   2.113   2.843
 5927SOL     OW18523   3.727   2.246   2.499
 5927SOL    HW118524   3.646   2.272   2.542
 5927SOL    HW218525   3.704   2.166   2.451
 5928SOL     OW18526   4.292   3.153   3.040
 5928SOL    HW118527   4.204   3.155   3.002
 5928SOL    HW218528   4.306   3.242   3.072
 5929SOL     OW18529   5.288   3.398   2.568
 5929SOL    HW118530   5.248   3.356   2.644
 5929SOL    HW218531   5.222   3.391   2.499
 5930SOL     OW18532   4.860   2.561   2.560
 5930SOL    HW118533   4.911   2.641   2.550
 5930SOL    HW218534   4.811   2.572   2.641
 5931SOL     OW18535   4.477   3.003   2.905
 5931SOL    HW118536   4.409   3.038   2.962
 5931SOL    HW218537   4.513   3.080   2.861
 5932SOL     OW18538   4.596   2.632   3.686
 5932SOL    HW118539   4.576   2.703   3.747
 5932SOL    HW218540   4.617   2.676   3.603
 5933SOL     OW18541   4.410   2.862   2.508
 5933SOL    HW118542   4.475   2.853   2.577
 5933SOL    HW218543   4.341   2.915   2.547
 5934SOL     OW18544   4.436   3.013   3.677
 5934SOL    HW118545   4.484   3.091   3.705
 5934SOL    HW218546   4.355   3.046   3.640
 5935SOL     OW18547   4.055   3.285   2.929
 5935SOL    HW118548   3.981   3.247   2.881
 5935SOL    HW218549   4.103   3.336   2.864
 5936SOL     OW18550   5.160   3.341   3.218
 5936SOL    HW118551   5.211   3.419   3.241
 5936SOL    HW218552   5.098   3.331   3.289
 5937SOL     OW18553   4.175   2.259   3.346
 5937SOL    HW118554   4.249   2.199   3.353
 5937SOL    HW218555   4.098   2.204   3.361
 5938SOL     OW18556   3.943   3.577   2.332
 5938SOL    HW118557   3.964   3.653   2.387
 5938SOL    HW218558   4.017   3.569   2.273
 5939SOL     OW18559   4.859   3.202   3.556
 5939SOL    HW118560   4.898   3.198   3.644
 5939SOL    HW218561   4.807   3.122   3.549
 5940SOL     OW18562   3.955   3.304   2.397
 5940SOL    HW118563   3.937   3.398   2.400
 5940SOL    HW218564   3.896   3.266   2.462
 5941SOL     OW18565   3.986   2.953   2.755
 5941SOL    HW118566   3.980   2.866   2.794
 5941SOL    HW218567   3.926   3.007   2.807
 5942SOL     OW18568   4.330   3.655   3.287
 5942SOL    HW118569   4.250   3.637   3.336
 5942SOL    HW218570   4.355   3.743   3.315
 5943SOL     OW18571   4.308   2.845   1.998
 5943SOL    HW118572   4.354   2.892   1.929
 5943SOL    HW218573   4.346   2.876   2.080
 5944SOL     OW18574   3.840   2.516   2.422
 5944SOL    HW118575   3.811   2.427   2.443
 5944SOL    HW218576   3.832   2.564   2.504
 5945SOL     OW18577   3.758   3.456   1.985
 5945SOL    HW118578   3.740   3.364   2.005
 5945SOL    HW218579   3.734   3.503   2.065
 5946SOL     OW18580   0.112   2.801   2.438
 5946SOL    HW118581   0.200   2.764   2.446
 5946SOL    HW218582   0.127   2.890   2.404
 5947SOL     OW18583   3.841   2.603   3.452
 5947SOL    HW118584   3.930   2.640   3.456
 5947SOL    HW218585   3.784   2.679   3.443
 5948SOL     OW18586   4.338   3.249   2.597
 5948SOL    HW118587   4.293   3.166   2.607
 5948SOL    HW218588   4.322   3.276   2.507
 5949SOL     OW18589   5.003   3.096   3.286
 5949SOL    HW118590   5.037   3.030   3.226
 5949SOL    HW218591   5.060   3.090   3.363
 5950SOL     OW18592   4.540   1.863   2.373
 5950SOL    HW118593   4.581   1.947   2.351
 5950SOL    HW218594   4.447   1.883   2.380
 5951SOL     OW18595   3.912   2.828   3.137
 5951SOL    HW118596   3.992   2.781   3.115
 5951SOL    HW218597   3.842   2.779   3.094
 5952SOL     OW18598   4.895   3.670   3.487
 5952SOL    HW118599   4.914   3.731   3.415
 5952SOL    HW218600   4.919   3.584   3.453
 5953SOL     OW18601   4.060   2.110   3.681
 5953SOL    HW118602   4.101   2.196   3.694
 5953SOL    HW218603   3.969   2.123   3.707
 5954SOL     OW18604   5.167   3.299   2.795
 5954SOL    HW118605   5.106   3.305   2.869
 5954SOL    HW218606   5.161   3.207   2.767
 5955SOL     OW18607   4.319   2.582   2.130
 5955SOL    HW118608   4.323   2.664   2.081
 5955SOL    HW218609   4.254   2.597   2.198
 5956SOL     OW18610   4.995   2.199   2.780
 5956SOL    HW118611   4.906   2.170   2.802
 5956SOL    HW218612   5.049   2.164   2.850
 5957SOL     OW18613   4.515   2.480   3.311
 5957SOL    HW118614   4.489   2.455   3.400
 5957SOL    HW218615   4.477   2.412   3.256
 5958SOL     OW18616   5.114   2.344   3.543
 5958SOL    HW118617   5.117   2.380   3.632
 5958SOL    HW218618   5.190   2.287   3.538
 5959SOL     OW18619   4.676   2.749   3.446
 5959SOL    HW118620   4.729   2.678   3.409
 5959SOL    HW218621   4.628   2.784   3.371
 5960SOL     OW18622   4.715   2.274   3.099
 5960SOL    HW118623   4.628   2.293   3.132
 5960SOL    HW218624   4.700   2.229   3.016
 5961SOL     OW18625   4.776   2.560   2.287
 5961SOL    HW118626   4.793   2.554   2.381
 5961SOL    HW218627   4.693   2.514   2.274
 5962SOL     OW18628   3.812   2.685   2.638
 5962SOL    HW118629   3.893   2.676   2.689
 5962SOL    HW218630   3.768   2.761   2.675
 5963SOL     OW18631   3.851   3.720   3.443
 5963SOL    HW118632   3.853   3.697   3.535
 5963SOL    HW218633   3.762   3.697   3.414
 5964SOL     OW18634   4.620   2.210   2.056
 5964SOL    HW118635   4.659   2.272   1.994
 5964SOL    HW218636   4.633   2.125   2.016
 5965SOL     OW18637   5.094   3.011   2.412
 5965SOL    HW118638   5.183   3.015   2.376
 5965SOL    HW218639   5.043   3.069   2.355
 5966SOL     OW18640   4.275   2.042   2.756
 5966SOL    HW118641   4.276   2.072   2.847
 5966SOL    HW218642   4.274   2.122   2.705
 5967SOL     OW18643   4.728   3.304   2.333
 5967SOL    HW118644   4.691   3.378   2.283
 5967SOL    HW218645   4.708   3.325   2.424
 5968SOL     OW18646   4.078   3.673   2.728
 5968SOL    HW118647   4.122   3.588   2.734
 5968SOL    HW218648   4.147   3.737   2.746
 5969SOL     OW18649   4.939   3.402   3.380
 5969SOL    HW118650   4.926   3.330   3.442
 5969SOL    HW218651   4.877   3.385   3.309
 5970SOL     OW18652   4.042   2.820   2.114
 5970SOL    HW118653   4.124   2.839   2.068
 5970SOL    HW218654   4.012   2.738   2.075
 5971SOL     OW18655   4.191   3.128   3.600
 5971SOL    HW118656   4.165   3.132   3.508
 5971SOL    HW218657   4.109   3.125   3.649
 5972SOL     OW18658   4.831   3.636   2.099
 5972SOL    HW118659   4.758   3.593   2.143
 5972SOL    HW218660   4.856   3.577   2.029
 5973SOL     OW18661   3.925   2.142   3.365
 5973SOL    HW118662   3.844   2.192   3.360
 5973SOL    HW218663   3.904   2.066   3.419
 5974SOL     OW18664   4.189   3.598   2.182
 5974SOL    HW118665   4.232   3.655   2.246
 5974SOL    HW218666   4.260   3.566   2.126
 5975SOL     OW18667   5.118   1.969   2.286
 5975SOL    HW118668   5.099   1.950   2.194
 5975SOL    HW218669   5.212   1.985   2.288
 5976SOL     OW18670   3.979   3.653   3.092
 5976SOL    HW118671   4.029   3.586   3.138
 5976SOL    HW218672   3.972   3.621   3.002
 5977SOL     OW18673   4.662   3.560   2.760
 5977SOL    HW118674   4.742   3.511   2.778
 5977SOL    HW218675   4.619   3.511   2.690
 5978SOL     OW18676   4.119   2.557   2.337
 5978SOL    HW118677   4.138   2.464   2.349
 5978SOL    HW218678   4.025   2.565   2.354
 5979SOL     OW18679   4.363   1.983   1.965
 5979SOL    HW118680   4.429   1.915   1.980
 5979SOL    HW218681   4.312   1.952   1.891
 5980SOL     OW18682   4.489   2.141   3.618
 5980SOL    HW118683   4.566   2.086   3.616
 5980SOL    HW218684   4.441   2.113   3.696
 5981SOL     OW18685   4.599   3.384   3.056
 5981SOL    HW118686   4.583   3.348   2.969
 5981SOL    HW218687   4.669   3.331   3.092
 5982SOL     OW18688   5.057   2.454   3.294
 5982SOL    HW118689   5.088   2.423   3.379
 5982SOL    HW218690   5.100   2.539   3.282
 5983SOL     OW18691   4.540   3.255   2.804
 5983SOL    HW118692   4.624   3.243   2.761
 5983SOL    HW218693   4.476   3.258   2.732
 5984SOL     OW18694   4.652   2.371   2.764
 5984SOL    HW118695   4.628   2.362   2.671
 5984SOL    HW218696   4.682   2.284   2.789
 5985SOL     OW18697   4.274   1.925   2.362
 5985SOL    HW118698   4.194   1.925   2.414
 5985SOL    HW218699   4.267   2.003   2.307
 5986SOL     OW18700   5.134   3.044   1.906
 5986SOL    HW118701   5.139   2.964   1.959
 5986SOL    HW218702   5.047   3.079   1.926
 5987SOL     OW18703   4.015   1.910   2.047
 5987SOL    HW118704   4.074   1.974   2.007
 5987SOL    HW218705   4.074   1.847   2.089
 5988SOL     OW18706   4.663   2.110   2.320
 5988SOL    HW118707   4.637   2.149   2.236
 5988SOL    HW218708   4.757   2.123   2.324
 5989SOL     OW18709   4.801   2.544   3.322
 5989SOL    HW118710   4.734   2.476   3.323
 5989SOL    HW218711   4.884   2.497   3.313
 5990SOL     OW18712   4.939   3.433   2.656
 5990SOL    HW118713   4.960   3.500   2.591
 5990SOL    HW218714   5.021   3.419   2.703
 5991SOL     OW18715   4.194   3.012   2.593
 5991SOL    HW118716   4.126   2.993   2.658
 5991SOL    HW218717   4.152   2.997   2.509
 5992SOL     OW18718   4.994   3.656   2.468
 5992SOL    HW118719   5.036   3.717   2.408
 5992SOL    HW218720   4.927   3.708   2.512
 5993SOL     OW18721   4.747   2.403   1.885
 5993SOL    HW118722   4.703   2.485   1.866
 5993SOL    HW218723   4.808   2.425   1.956
 5994SOL     OW18724   3.807   2.420   3.253
 5994SOL    HW118725   3.900   2.419   3.227
 5994SOL    HW218726   3.801   2.488   3.320
 5995SOL     OW18727   4.282   2.089   3.030
 5995SOL    HW118728   4.324   2.014   3.072
 5995SOL    HW218729   4.191   2.086   3.059
 5996SOL     OW18730   4.592   2.321   2.501
 5996SOL    HW118731   4.545   2.376   2.438
 5996SOL    HW218732   4.613   2.241   2.452
 5997SOL     OW18733   4.740   1.915   2.612
 5997SOL    HW118734   4.681   1.909   2.537
 5997SOL    HW218735   4.717   1.840   2.666
 5998SOL     OW18736   5.156   3.039   2.713
 5998SOL    HW118737   5.101   2.962   2.727
 5998SOL    HW218738   5.167   3.042   2.618
 5999SOL     OW18739   4.214   3.282   2.016
 5999SOL    HW118740   4.139   3.253   2.068
 5999SOL    HW218741   4.203   3.237   1.932
 6000SOL     OW18742   5.128   2.422   1.944
 6000SOL    HW118743   5.054   2.413   2.003
 6000SOL    HW218744   5.202   2.385   1.992
 6001SOL     OW18745   4.249   2.124   2.177
 6001SOL    HW118746   4.297   2.079   2.108
 6001SOL    HW218747   4.225   2.208   2.139
 6002SOL     OW18748   4.778   3.217   3.195
 6002SOL    HW118749   4.703   3.185   3.245
 6002SOL    HW218750   4.853   3.173   3.236
 6003SOL     OW18751   0.007   3.468   3.477
 6003SOL    HW118752   0.041   3.470   3.387
 6003SOL    HW218753   0.083   3.446   3.531
 6004SOL     OW18754   4.856   3.068   2.967
 6004SOL    HW118755   4.792   3.102   3.031
 6004SOL    HW218756   4.823   3.097   2.882
 6005SOL     OW18757   4.642   1.958   3.257
 6005SOL    HW118758   4.664   1.940   3.166
 6005SOL    HW218759   4.722   1.997   3.294
 6006SOL     OW18760   4.709   2.975   3.588
 6006SOL    HW118761   4.617   2.993   3.609
 6006SOL    HW218762   4.705   2.898   3.531
 6007SOL     OW18763   4.433   2.924   2.233
 6007SOL    HW118764   4.419   2.906   2.326
 6007SOL    HW218765   4.509   2.870   2.209
 6008SOL     OW18766   4.143   2.677   3.112
 6008SOL    HW118767   4.210   2.688   3.179
 6008SOL    HW218768   4.108   2.589   3.126
 6009SOL     OW18769   4.987   2.237   3.140
 6009SOL    HW118770   5.022   2.316   3.181
 6009SOL    HW218771   4.897   2.259   3.116
 6010SOL     OW18772   3.796   3.438   3.219
 6010SOL    HW118773   3.769   3.508   3.159
 6010SOL    HW218774   3.891   3.435   3.211
 6011SOL     OW18775   4.070   2.974   2.352
 6011SOL    HW118776   4.074   3.047   2.291
 6011SOL    HW218777   4.067   2.896   2.296
 6012SOL     OW18778   4.275   2.397   2.722
 6012SOL    HW118779   4.289   2.456   2.647
 6012SOL    HW218780   4.340   2.423   2.786
 6013SOL     OW18781   4.971   3.212   2.249
 6013SOL    HW118782   5.026   3.284   2.279
 6013SOL    HW218783   4.884   3.232   2.282
 6014SOL     OW18784   4.997   3.319   3.002
 6014SOL    HW118785   5.051   3.320   3.082
 6014SOL    HW218786   4.943   3.241   3.011
 6015SOL     OW18787   4.069   3.392   3.175
 6015SOL    HW118788   4.056   3.347   3.091
 6015SOL    HW218789   4.164   3.402   3.183
 6016SOL     OW18790   4.139   2.608   3.464
 6016SOL    HW118791   4.202   2.651   3.406
 6016SOL    HW218792   4.176   2.521   3.479
 6017SOL     OW18793   4.718   1.990   3.617
 6017SOL    HW118794   4.776   2.062   3.593
 6017SOL    HW218795   4.765   1.911   3.591
 6018SOL     OW18796   4.221   1.901   3.611
 6018SOL    HW118797   4.176   1.847   3.545
 6018SOL    HW218798   4.163   1.976   3.624
 6019SOL     OW18799   4.308   2.735   2.894
 6019SOL    HW118800   4.337   2.826   2.894
 6019SOL    HW218801   4.251   2.728   2.970
 6020SOL     OW18802   5.086   2.718   2.898
 6020SOL    HW118803   5.009   2.696   2.846
 6020SOL    HW218804   5.142   2.640   2.891
 6021SOL     OW18805   4.925   2.393   2.124
 6021SOL    HW118806   4.932   2.313   2.177
 6021SOL    HW218807   4.882   2.456   2.182
 6022SOL     OW18808   4.022   2.059   3.109
 6022SOL    HW118809   3.984   2.092   3.191
 6022SOL    HW218810   4.003   1.966   3.110
 6023SOL     OW18811   3.792   3.175   3.133
 6023SOL    HW118812   3.813   3.117   3.206
 6023SOL    HW218813   3.784   3.262   3.172
 6024SOL     OW18814   4.446   2.492   2.918
 6024SOL    HW118815   4.522   2.478   2.861
 6024SOL    HW218816   4.418   2.581   2.898
 6025SOL     OW18817   4.029   1.925   2.485
 6025SOL    HW118818   4.007   2.016   2.507
 6025SOL    HW218819   4.036   1.881   2.570
 6026SOL     OW18820   0.034   2.260   2.219
 6026SOL    HW118821   0.051   2.183   2.273
 6026SOL    HW218822   0.023   2.332   2.282
 6027SOL     OW18823   4.752   2.620   2.820
 6027SOL    HW118824   4.748   2.638   2.914
 6027SOL    HW218825   4.726   2.529   2.812
 6028SOL     OW18826   4.696   3.423   3.577
 6028SOL    HW118827   4.685   3.471   3.494
 6028SOL    HW218828   4.744   3.344   3.553
 6029SOL     OW18829   4.078   2.776   3.673
 6029SOL    HW118830   4.161   2.795   3.717
 6029SOL    HW218831   4.101   2.714   3.604
 6030SOL     OW18832   5.028   2.690   1.899
 6030SOL    HW118833   5.065   2.602   1.901
 6030SOL    HW218834   5.055   2.726   1.814
 6031SOL     OW18835   4.790   3.197   2.718
 6031SOL    HW118836   4.794   3.125   2.655
 6031SOL    HW218837   4.846   3.265   2.682
 6032SOL     OW18838   4.033   2.670   2.807
 6032SOL    HW118839   4.126   2.691   2.802
 6032SOL    HW218840   4.030   2.581   2.841
 6033SOL     OW18841   4.054   2.388   2.875
 6033SOL    HW118842   4.020   2.300   2.860
 6033SOL    HW218843   4.130   2.394   2.817
 6034SOL     OW18844   4.856   2.237   3.544
 6034SOL    HW118845   4.807   2.292   3.606
 6034SOL    HW218846   4.943   2.277   3.540
 6035SOL     OW18847   4.886   2.062   3.332
 6035SOL    HW118848   4.873   2.125   3.403
 6035SOL    HW218849   4.925   2.114   3.261
 6036SOL     OW18850   3.730   3.182   2.057
 6036SOL    HW118851   3.643   3.197   2.020
 6036SOL    HW218852   3.726   3.092   2.091
 6037SOL     OW18853   3.814   3.648   2.801
 6037SOL    HW118854   3.784   3.569   2.756
 6037SOL    HW218855   3.904   3.661   2.770
 6038SOL     OW18856   4.219   3.436   2.766
 6038SOL    HW118857   4.287   3.498   2.791
 6038SOL    HW218858   4.263   3.373   2.710
 6039SOL     OW18859   4.703   2.652   3.087
 6039SOL    HW118860   4.760   2.631   3.161
 6039SOL    HW218861   4.618   2.615   3.110
 6040SOL     OW18862   3.772   2.392   2.978
 6040SOL    HW118863   3.855   2.393   2.930
 6040SOL    HW218864   3.797   2.405   3.070
 6041SOL     OW18865   3.919   2.381   3.591
 6041SOL    HW118866   3.971   2.339   3.523
 6041SOL    HW218867   3.878   2.456   3.548
 6042SOL     OW18868   5.115   2.798   3.528
 6042SOL    HW118869   5.122   2.892   3.515
 6042SOL    HW218870   5.118   2.761   3.440
 6043SOL     OW18871   4.541   2.432   2.223
 6043SOL    HW118872   4.544   2.357   2.164
 6043SOL    HW218873   4.466   2.484   2.193
 6044SOL     OW18874   3.965   3.412   3.588
 6044SOL    HW118875   3.944   3.476   3.656
 6044SOL    HW218876   3.969   3.328   3.634
 6045SOL     OW18877   4.430   2.310   3.119
 6045SOL    HW118878   4.374   2.237   3.091
 6045SOL    HW218879   4.424   2.374   3.048
 6046SOL     OW18880   4.643   3.542   3.331
 6046SOL    HW118881   4.621   3.507   3.244
 6046SOL    HW218882   4.642   3.637   3.320
 6047SOL     OW18883   4.187   2.354   2.047
 6047SOL    HW118884   4.245   2.426   2.070
 6047SOL    HW218885   4.101   2.396   2.035
 6048SOL     OW18886   3.871   3.004   3.337
 6048SOL    HW118887   3.874   2.955   3.419
 6048SOL    HW218888   3.887   2.938   3.269
 6049SOL     OW18889   5.052   2.910   3.085
 6049SOL    HW118890   5.073   2.844   3.018
 6049SOL    HW218891   4.982   2.963   3.046
 6050SOL     OW18892   5.036   2.723   2.178
 6050SOL    HW118893   4.955   2.689   2.216
 6050SOL    HW218894   5.024   2.713   2.084
 6051SOL     OW18895   4.958   3.593   2.982
 6051SOL    HW118896   5.044   3.616   2.946
 6051SOL    HW218897   4.961   3.498   2.992
 6052SOL     OW18898   3.808   3.132   2.868
 6052SOL    HW118899   3.799   3.144   2.963
 6052SOL    HW218900   3.736   3.073   2.845
 6053SOL     OW18901   4.402   3.529   3.594
 6053SOL    HW118902   4.348   3.607   3.586
 6053SOL    HW218903   4.472   3.541   3.531
 6054SOL     OW18904   0.076   2.025   2.395
 6054SOL    HW118905   0.157   2.007   2.347
 6054SOL    HW218906   0.063   1.947   2.449
 6055SOL     OW18907   5.111   3.433   2.345
 6055SOL    HW118908   5.181   3.475   2.295
 6055SOL    HW218909   5.059   3.505   2.380
 6056SOL     OW18910   3.860   3.659   3.706
 6056SOL    HW118911   3.810   3.592   3.753
 6056SOL    HW218912   3.908   3.706   3.773
 6057SOL     OW18913   5.018   2.782   2.533
 6057SOL    HW118914   5.096   2.728   2.520
 6057SOL    HW218915   5.036   2.863   2.485
 6058SOL     OW18916   4.534   3.136   3.290
 6058SOL    HW118917   4.506   3.176   3.373
 6058SOL    HW218918   4.465   3.158   3.228
 6059SOL     OW18919   4.394   3.484   2.017
 6059SOL    HW118920   4.406   3.497   1.923
 6059SOL    HW218921   4.338   3.406   2.024
 6060SOL     OW18922   3.984   2.177   2.578
 6060SOL    HW118923   3.898   2.212   2.554
 6060SOL    HW218924   3.982   2.169   2.673
 6061SOL     OW18925   4.907   3.470   1.905
 6061SOL    HW118926   4.919   3.376   1.915
 6061SOL    HW218927   4.852   3.479   1.827
 6062SOL     OW18928   4.548   2.868   3.235
 6062SOL    HW118929   4.590   2.863   3.150
 6062SOL    HW218930   4.546   2.962   3.256
 6063SOL     OW18931   4.641   2.773   2.152
 6063SOL    HW118932   4.702   2.805   2.086
 6063SOL    HW218933   4.688   2.703   2.197
 6064SOL     OW18934   4.094   3.167   3.354
 6064SOL    HW118935   4.079   3.242   3.297
 6064SOL    HW218936   4.018   3.110   3.338
 6065SOL     OW18937   4.779   2.970   2.570
 6065SOL    HW118938   4.708   2.920   2.610
 6065SOL    HW218939   4.837   2.903   2.533
 6066SOL     OW18940   4.739   2.101   2.831
 6066SOL    HW118941   4.737   2.054   2.747
 6066SOL    HW218942   4.735   2.032   2.897
 6067SOL     OW18943   4.328   3.350   2.343
 6067SOL    HW118944   4.374   3.300   2.276
 6067SOL    HW218945   4.256   3.393   2.296
 6068SOL     OW18946   3.984   3.206   2.151
 6068SOL    HW118947   3.891   3.203   2.128
 6068SOL    HW218948   3.986   3.243   2.239
 6069SOL     OW18949   3.845   2.900   3.590
 6069SOL    HW118950   3.767   2.870   3.636
 6069SOL    HW218951   3.917   2.852   3.631
 6070SOL     OW18952   4.399   2.057   3.362
 6070SOL    HW118953   4.483   2.037   3.321
 6070SOL    HW218954   4.422   2.091   3.449
 6071SOL     OW18955   3.804   2.193   1.896
 6071SOL    HW118956   3.716   2.175   1.862
 6071SOL    HW218957   3.833   2.269   1.846
 6072SOL     OW18958   5.163   2.722   3.265
 6072SOL    HW118959   5.111   2.779   3.209
 6072SOL    HW218960   5.252   2.728   3.230
 6073SOL     OW18961   3.790   2.017   2.169
 6073SOL    HW118962   3.777   2.097   2.119
 6073SOL    HW218963   3.875   1.984   2.140
 6074SOL     OW18964   4.905   3.190   1.976
 6074SOL    HW118965   4.811   3.171   1.977
 6074SOL    HW218966   4.929   3.197   2.068
 6075SOL     OW18967   4.343   2.693   3.295
 6075SOL    HW118968   4.400   2.768   3.280
 6075SOL    HW218969   4.403   2.619   3.303
 6076SOL     OW18970   4.443   2.424   3.564
 6076SOL    HW118971   4.484   2.484   3.626
 6076SOL    HW218972   4.464   2.337   3.598
 6077SOL     OW18973   5.180   3.064   3.494
 6077SOL    HW118974   5.171   3.078   3.588
 6077SOL    HW218975   5.274   3.074   3.477
 6078SOL     OW18976   4.101   3.601   3.427
 6078SOL    HW118977   4.017   3.645   3.413
 6078SOL    HW218978   4.078   3.518   3.468
 6079SOL     OW18979   4.938   2.182   2.317
 6079SOL    HW118980   4.999   2.110   2.305
 6079SOL    HW218981   4.969   2.227   2.396
 6080SOL     OW18982   4.314   2.598   2.532
 6080SOL    HW118983   4.352   2.684   2.518
 6080SOL    HW218984   4.247   2.590   2.465
 6081SOL     OW18985   4.591   3.227   1.900
 6081SOL    HW118986   4.550   3.258   1.981
 6081SOL    HW218987   4.606   3.307   1.849
 6082SOL     OW18988   4.385   3.651   2.804
 6082SOL    HW118989   4.366   3.742   2.782
 6082SOL    HW218990   4.480   3.644   2.798
 6083SOL     OW18991   4.593   2.831   2.717
 6083SOL    HW118992   4.642   2.758   2.755
 6083SOL    HW218993   4.556   2.877   2.792
 6084SOL     OW18994   4.807   2.849   1.952
 6084SOL    HW118995   4.782   2.899   1.874
 6084SOL    HW218996   4.881   2.796   1.925
 6085SOL     OW18997   3.948   3.163   3.716
 6085SOL    HW118998   3.889   3.096   3.683
 6085SOL    HW218999   3.926   3.173   3.808
 6086SOL     OW19000   3.808   3.094   2.527
 6086SOL    HW119001   3.813   3.048   2.611
 6086SOL    HW219002   3.876   3.054   2.474
 6087SOL     OW19003   4.407   3.265   3.492
 6087SOL    HW119004   4.326   3.224   3.523
 6087SOL    HW219005   4.403   3.354   3.528
 6088SOL     OW19006   4.154   2.296   2.388
 6088SOL    HW119007   4.183   2.225   2.331
 6088SOL    HW219008   4.104   2.252   2.457
 6089SOL     OW19009   0.094   3.381   2.962
 6089SOL    HW119010   0.026   3.360   2.897
 6089SOL    HW219011   0.094   3.305   3.021
 6090SOL     OW19012   4.058   2.419   3.154
 6090SOL    HW119013   4.112   2.362   3.210
 6090SOL    HW219014   4.076   2.389   3.065
 6091SOL     OW19015   4.553   3.439   2.538
 6091SOL    HW119016   4.538   3.497   2.464
 6091SOL    HW219017   4.477   3.382   2.540
 6092SOL     OW19018   5.145   2.081   2.977
 6092SOL    HW119019   5.190   2.016   3.032
 6092SOL    HW219020   5.098   2.136   3.040
 6093SOL     OW19021   4.729   1.879   3.002
 6093SOL    HW119022   4.676   1.812   2.960
 6093SOL    HW219023   4.817   1.841   3.007
 6094SOL     OW19024   4.495   3.195   2.180
 6094SOL    HW119025   4.466   3.104   2.186
 6094SOL    HW219026   4.578   3.197   2.228
 6095SOL     OW19027   4.343   3.418   3.148
 6095SOL    HW119028   4.345   3.500   3.196
 6095SOL    HW219029   4.431   3.410   3.110
 6096SOL     OW19030   5.055   1.907   2.029
 6096SOL    HW119031   5.076   1.866   1.945
 6096SOL    HW219032   4.971   1.870   2.053
 6097SOL     OW19033   5.027   2.320   2.542
 6097SOL    HW119034   4.973   2.399   2.546
 6097SOL    HW219035   5.015   2.279   2.628
 6098SOL     OW19036   0.002   2.089   2.745
 6098SOL    HW119037   5.237   2.075   2.814
 6098SOL    HW219038   5.272   2.167   2.698
 6099SOL     OW19039   3.767   2.931   2.169
 6099SOL    HW119040   3.860   2.923   2.151
 6099SOL    HW219041   3.739   2.842   2.191
 6100SOL     OW19042   4.604   3.514   2.207
 6100SOL    HW119043   4.533   3.499   2.145
 6100SOL    HW219044   4.577   3.590   2.258
 6101SOL     OW19045   3.953   2.484   3.849
 6101SOL    HW119046   3.863   2.484   3.883
 6101SOL    HW219047   3.943   2.459   3.757
 6102SOL     OW19048   3.949   2.144   4.717
 6102SOL    HW119049   3.977   2.109   4.802
 6102SOL    HW219050   3.860   2.112   4.706
 6103SOL     OW19051   3.752   2.237   4.346
 6103SOL    HW119052   3.665   2.259   4.380
 6103SOL    HW219053   3.737   2.158   4.293
 6104SOL     OW19054   4.291   3.153   4.902
 6104SOL    HW119055   4.204   3.158   4.862
 6104SOL    HW219056   4.308   3.242   4.935
 6105SOL     OW19057   5.288   3.398   4.430
 6105SOL    HW119058   5.248   3.356   4.506
 6105SOL    HW219059   5.222   3.391   4.361
 6106SOL     OW19060   4.860   2.561   4.422
 6106SOL    HW119061   4.911   2.641   4.412
 6106SOL    HW219062   4.811   2.572   4.503
 6107SOL     OW19063   4.476   3.003   4.767
 6107SOL    HW119064   4.408   3.038   4.825
 6107SOL    HW219065   4.512   3.079   4.722
 6108SOL     OW19066   4.595   2.632   5.547
 6108SOL    HW119067   4.577   2.703   5.609
 6108SOL    HW219068   4.617   2.676   5.465
 6109SOL     OW19069   4.410   2.862   4.370
 6109SOL    HW119070   4.475   2.853   4.439
 6109SOL    HW219071   4.341   2.915   4.409
 6110SOL     OW19072   4.436   3.012   5.539
 6110SOL    HW119073   4.484   3.090   5.567
 6110SOL    HW219074   4.355   3.046   5.502
 6111SOL     OW19075   4.055   3.285   4.792
 6111SOL    HW119076   3.982   3.247   4.744
 6111SOL    HW219077   4.103   3.336   4.726
 6112SOL     OW19078   5.160   3.342   5.079
 6112SOL    HW119079   5.211   3.419   5.103
 6112SOL    HW219080   5.098   3.331   5.152
 6113SOL     OW19081   4.175   2.259   5.208
 6113SOL    HW119082   4.249   2.199   5.215
 6113SOL    HW219083   4.098   2.204   5.223
 6114SOL     OW19084   3.943   3.578   4.194
 6114SOL    HW119085   3.964   3.654   4.249
 6114SOL    HW219086   4.017   3.569   4.135
 6115SOL     OW19087   4.859   3.203   5.419
 6115SOL    HW119088   4.898   3.198   5.506
 6115SOL    HW219089   4.807   3.123   5.411
 6116SOL     OW19090   3.959   3.306   4.258
 6116SOL    HW119091   3.938   3.399   4.262
 6116SOL    HW219092   3.901   3.265   4.323
 6117SOL     OW19093   3.981   2.949   4.612
 6117SOL    HW119094   3.982   2.864   4.655
 6117SOL    HW219095   3.929   3.005   4.670
 6118SOL     OW19096   4.329   3.655   5.149
 6118SOL    HW119097   4.250   3.637   5.198
 6118SOL    HW219098   4.355   3.743   5.176
 6119SOL     OW19099   4.309   2.844   3.860
 6119SOL    HW119100   4.355   2.893   3.791
 6119SOL    HW219101   4.347   2.876   3.941
 6120SOL     OW19102   3.843   2.515   4.283
 6120SOL    HW119103   3.822   2.424   4.303
 6120SOL    HW219104   3.834   2.560   4.366
 6121SOL     OW19105   3.755   3.455   3.847
 6121SOL    HW119106   3.741   3.363   3.868
 6121SOL    HW219107   3.733   3.502   3.927
 6122SOL     OW19108   0.112   2.801   4.300
 6122SOL    HW119109   0.200   2.764   4.308
 6122SOL    HW219110   0.127   2.889   4.266
 6123SOL     OW19111   3.848   2.605   5.308
 6123SOL    HW119112   3.940   2.631   5.313
 6123SOL    HW219113   3.799   2.687   5.320
 6124SOL     OW19114   4.338   3.249   4.460
 6124SOL    HW119115   4.292   3.166   4.468
 6124SOL    HW219116   4.322   3.276   4.369
 6125SOL     OW19117   5.003   3.096   5.148
 6125SOL    HW119118   5.037   3.030   5.088
 6125SOL    HW219119   5.060   3.090   5.225
 6126SOL     OW19120   4.540   1.864   4.235
 6126SOL    HW119121   4.581   1.948   4.213
 6126SOL    HW219122   4.447   1.883   4.242
 6127SOL     OW19123   3.913   2.829   4.997
 6127SOL    HW119124   3.996   2.784   4.980
 6127SOL    HW219125   3.848   2.773   4.954
 6128SOL     OW19126   4.895   3.670   5.349
 6128SOL    HW119127   4.915   3.731   5.277
 6128SOL    HW219128   4.919   3.584   5.315
 6129SOL     OW19129   4.060   2.111   5.542
 6129SOL    HW119130   4.102   2.196   5.558
 6129SOL    HW219131   3.969   2.124   5.569
 6130SOL     OW19132   5.167   3.299   4.657
 6130SOL    HW119133   5.106   3.305   4.731
 6130SOL    HW219134   5.161   3.207   4.629
 6131SOL     OW19135   4.320   2.582   3.992
 6131SOL    HW119136   4.323   2.664   3.943
 6131SOL    HW219137   4.254   2.598   4.060
 6132SOL     OW19138   4.995   2.199   4.642
 6132SOL    HW119139   4.906   2.170   4.664
 6132SOL    HW219140   5.049   2.164   4.712
 6133SOL     OW19141   4.514   2.480   5.173
 6133SOL    HW119142   4.489   2.455   5.262
 6133SOL    HW219143   4.476   2.412   5.118
 6134SOL     OW19144   5.114   2.344   5.405
 6134SOL    HW119145   5.116   2.380   5.494
 6134SOL    HW219146   5.191   2.287   5.400
 6135SOL     OW19147   4.676   2.749   5.308
 6135SOL    HW119148   4.729   2.678   5.271
 6135SOL    HW219149   4.628   2.784   5.233
 6136SOL     OW19150   4.715   2.274   4.961
 6136SOL    HW119151   4.628   2.293   4.994
 6136SOL    HW219152   4.700   2.229   4.878
 6137SOL     OW19153   4.776   2.560   4.149
 6137SOL    HW119154   4.792   2.554   4.243
 6137SOL    HW219155   4.693   2.514   4.136
 6138SOL     OW19156   3.815   2.670   4.506
 6138SOL    HW119157   3.896   2.672   4.558
 6138SOL    HW219158   3.772   2.753   4.526
 6139SOL     OW19159   3.849   3.717   5.303
 6139SOL    HW119160   3.852   3.695   5.397
 6139SOL    HW219161   3.759   3.698   5.277
 6140SOL     OW19162   4.621   2.211   3.919
 6140SOL    HW119163   4.659   2.272   3.856
 6140SOL    HW219164   4.632   2.125   3.878
 6141SOL     OW19165   5.094   3.011   4.274
 6141SOL    HW119166   5.182   3.015   4.238
 6141SOL    HW219167   5.042   3.068   4.217
 6142SOL     OW19168   4.274   2.041   4.619
 6142SOL    HW119169   4.277   2.072   4.709
 6142SOL    HW219170   4.274   2.121   4.566
 6143SOL     OW19171   4.728   3.305   4.195
 6143SOL    HW119172   4.691   3.378   4.145
 6143SOL    HW219173   4.708   3.325   4.286
 6144SOL     OW19174   4.079   3.673   4.590
 6144SOL    HW119175   4.122   3.588   4.596
 6144SOL    HW219176   4.147   3.737   4.607
 6145SOL     OW19177   4.939   3.402   5.242
 6145SOL    HW119178   4.926   3.330   5.304
 6145SOL    HW219179   4.877   3.384   5.171
 6146SOL     OW19180   4.043   2.820   3.976
 6146SOL    HW119181   4.125   2.839   3.929
 6146SOL    HW219182   4.011   2.739   3.937
 6147SOL     OW19183   4.191   3.127   5.462
 6147SOL    HW119184   4.164   3.132   5.370
 6147SOL    HW219185   4.109   3.125   5.511
 6148SOL     OW19186   4.831   3.636   3.961
 6148SOL    HW119187   4.758   3.593   4.005
 6148SOL    HW219188   4.856   3.577   3.891
 6149SOL     OW19189   3.926   2.142   5.226
 6149SOL    HW119190   3.845   2.192   5.218
 6149SOL    HW219191   3.903   2.067   5.281
 6150SOL     OW19192   4.189   3.598   4.044
 6150SOL    HW119193   4.232   3.655   4.108
 6150SOL    HW219194   4.259   3.566   3.988
 6151SOL     OW19195   5.118   1.969   4.148
 6151SOL    HW119196   5.099   1.950   4.056
 6151SOL    HW219197   5.213   1.985   4.150
 6152SOL     OW19198   3.978   3.652   4.955
 6152SOL    HW119199   4.031   3.586   5.000
 6152SOL    HW219200   3.972   3.621   4.865
 6153SOL     OW19201   4.662   3.560   4.622
 6153SOL    HW119202   4.743   3.512   4.639
 6153SOL    HW219203   4.619   3.511   4.552
 6154SOL     OW19204   4.119   2.558   4.199
 6154SOL    HW119205   4.138   2.465   4.211
 6154SOL    HW219206   4.025   2.566   4.214
 6155SOL     OW19207   4.364   1.983   3.828
 6155SOL    HW119208   4.429   1.914   3.841
 6155SOL    HW219209   4.312   1.952   3.753
 6156SOL     OW19210   4.488   2.141   5.480
 6156SOL    HW119211   4.566   2.086   5.478
 6156SOL    HW219212   4.441   2.114   5.558
 6157SOL     OW19213   4.599   3.384   4.918
 6157SOL    HW119214   4.584   3.348   4.830
 6157SOL    HW219215   4.669   3.330   4.954
 6158SOL     OW19216   5.057   2.454   5.156
 6158SOL    HW119217   5.089   2.423   5.241
 6158SOL    HW219218   5.100   2.539   5.144
 6159SOL     OW19219   4.539   3.255   4.666
 6159SOL    HW119220   4.624   3.243   4.623
 6159SOL    HW219221   4.476   3.258   4.594
 6160SOL     OW19222   4.652   2.371   4.626
 6160SOL    HW119223   4.628   2.362   4.533
 6160SOL    HW219224   4.682   2.284   4.651
 6161SOL     OW19225   4.274   1.925   4.224
 6161SOL    HW119226   4.193   1.925   4.276
 6161SOL    HW219227   4.267   2.003   4.169
 6162SOL     OW19228   5.134   3.044   3.768
 6162SOL    HW119229   5.139   2.963   3.820
 6162SOL    HW219230   5.047   3.079   3.788
 6163SOL     OW19231   4.014   1.910   3.911
 6163SOL    HW119232   4.071   1.974   3.867
 6163SOL    HW219233   4.074   1.848   3.951
 6164SOL     OW19234   4.663   2.110   4.182
 6164SOL    HW119235   4.637   2.149   4.098
 6164SOL    HW219236   4.757   2.123   4.186
 6165SOL     OW19237   4.801   2.544   5.184
 6165SOL    HW119238   4.735   2.475   5.186
 6165SOL    HW219239   4.884   2.498   5.175
 6166SOL     OW19240   4.939   3.433   4.518
 6166SOL    HW119241   4.960   3.500   4.453
 6166SOL    HW219242   5.021   3.419   4.565
 6167SOL     OW19243   4.193   3.012   4.455
 6167SOL    HW119244   4.124   2.991   4.518
 6167SOL    HW219245   4.153   2.998   4.370
 6168SOL     OW19246   4.994   3.656   4.330
 6168SOL    HW119247   5.036   3.717   4.270
 6168SOL    HW219248   4.927   3.708   4.374
 6169SOL     OW19249   4.747   2.403   3.747
 6169SOL    HW119250   4.702   2.485   3.727
 6169SOL    HW219251   4.808   2.425   3.818
 6170SOL     OW19252   3.808   2.410   5.117
 6170SOL    HW119253   3.900   2.413   5.090
 6170SOL    HW219254   3.799   2.482   5.179
 6171SOL     OW19255   4.282   2.090   4.892
 6171SOL    HW119256   4.325   2.014   4.933
 6171SOL    HW219257   4.191   2.085   4.921
 6172SOL     OW19258   4.592   2.321   4.363
 6172SOL    HW119259   4.546   2.376   4.299
 6172SOL    HW219260   4.613   2.241   4.314
 6173SOL     OW19261   4.740   1.915   4.474
 6173SOL    HW119262   4.681   1.909   4.398
 6173SOL    HW219263   4.717   1.840   4.528
 6174SOL     OW19264   5.156   3.038   4.575
 6174SOL    HW119265   5.101   2.961   4.589
 6174SOL    HW219266   5.167   3.042   4.480
 6175SOL     OW19267   4.213   3.282   3.878
 6175SOL    HW119268   4.138   3.253   3.929
 6175SOL    HW219269   4.203   3.237   3.794
 6176SOL     OW19270   5.128   2.422   3.806
 6176SOL    HW119271   5.054   2.413   3.865
 6176SOL    HW219272   5.202   2.385   3.854
 6177SOL     OW19273   4.250   2.125   4.040
 6177SOL    HW119274   4.296   2.078   3.970
 6177SOL    HW219275   4.225   2.208   4.001
 6178SOL     OW19276   4.778   3.217   5.057
 6178SOL    HW119277   4.703   3.185   5.107
 6178SOL    HW219278   4.854   3.173   5.097
 6179SOL     OW19279   0.007   3.468   5.338
 6179SOL    HW119280   0.041   3.470   5.249
 6179SOL    HW219281   0.082   3.446   5.393
 6180SOL     OW19282   4.855   3.068   4.829
 6180SOL    HW119283   4.792   3.102   4.893
 6180SOL    HW219284   4.823   3.097   4.744
 6181SOL     OW19285   4.642   1.959   5.119
 6181SOL    HW119286   4.664   1.940   5.028
 6181SOL    HW219287   4.721   1.997   5.156
 6182SOL     OW19288   4.709   2.975   5.450
 6182SOL    HW119289   4.617   2.993   5.471
 6182SOL    HW219290   4.705   2.898   5.393
 6183SOL     OW19291   4.433   2.924   4.095
 6183SOL    HW119292   4.419   2.906   4.188
 6183SOL    HW219293   4.509   2.870   4.071
 6184SOL     OW19294   4.143   2.679   4.976
 6184SOL    HW119295   4.211   2.688   5.042
 6184SOL    HW219296   4.109   2.590   4.989
 6185SOL     OW19297   4.987   2.237   5.002
 6185SOL    HW119298   5.022   2.316   5.043
 6185SOL    HW219299   4.897   2.259   4.978
 6186SOL     OW19300   3.797   3.435   5.078
 6186SOL    HW119301   3.769   3.511   5.026
 6186SOL    HW219302   3.893   3.436   5.072
 6187SOL     OW19303   4.070   2.974   4.213
 6187SOL    HW119304   4.074   3.048   4.152
 6187SOL    HW219305   4.067   2.896   4.158
 6188SOL     OW19306   4.274   2.398   4.584
 6188SOL    HW119307   4.289   2.456   4.509
 6188SOL    HW219308   4.341   2.423   4.648
 6189SOL     OW19309   4.971   3.212   4.111
 6189SOL    HW119310   5.026   3.284   4.141
 6189SOL    HW219311   4.884   3.232   4.144
 6190SOL     OW19312   4.997   3.319   4.864
 6190SOL    HW119313   5.051   3.320   4.944
 6190SOL    HW219314   4.943   3.241   4.874
 6191SOL     OW19315   4.070   3.390   5.038
 6191SOL    HW119316   4.059   3.347   4.953
 6191SOL    HW219317   4.165   3.402   5.046
 6192SOL     OW19318   4.139   2.607   5.326
 6192SOL    HW119319   4.202   2.651   5.269
 6192SOL    HW219320   4.177   2.521   5.342
 6193SOL     OW19321   4.718   1.990   5.479
 6193SOL    HW119322   4.776   2.062   5.455
 6193SOL    HW219323   4.764   1.911   5.453
 6194SOL     OW19324   4.221   1.901   5.473
 6194SOL    HW119325   4.177   1.847   5.407
 6194SOL    HW219326   4.163   1.976   5.486
 6195SOL     OW19327   4.308   2.735   4.756
 6195SOL    HW119328   4.340   2.826   4.757
 6195SOL    HW219329   4.252   2.729   4.833
 6196SOL     OW19330   5.086   2.718   4.760
 6196SOL    HW119331   5.009   2.696   4.707
 6196SOL    HW219332   5.142   2.640   4.753
 6197SOL     OW19333   4.926   2.393   3.987
 6197SOL    HW119334   4.932   2.313   4.039
 6197SOL    HW219335   4.882   2.456   4.044
 6198SOL     OW19336   4.022   2.059   4.971
 6198SOL    HW119337   3.985   2.092   5.053
 6198SOL    HW219338   4.003   1.966   4.972
 6199SOL     OW19339   3.764   3.175   4.998
 6199SOL    HW119340   3.797   3.117   5.066
 6199SOL    HW219341   3.775   3.263   5.034
 6200SOL     OW19342   4.446   2.492   4.780
 6200SOL    HW119343   4.522   2.478   4.724
 6200SOL    HW219344   4.418   2.581   4.760
 6201SOL     OW19345   4.028   1.924   4.348
 6201SOL    HW119346   4.012   2.015   4.371
 6201SOL    HW219347   4.037   1.879   4.432
 6202SOL     OW19348   0.034   2.260   4.081
 6202SOL    HW119349   0.051   2.183   4.135
 6202SOL    HW219350   0.023   2.332   4.144
 6203SOL     OW19351   4.751   2.620   4.682
 6203SOL    HW119352   4.748   2.638   4.776
 6203SOL    HW219353   4.726   2.529   4.674
 6204SOL     OW19354   4.696   3.423   5.439
 6204SOL    HW119355   4.685   3.470   5.356
 6204SOL    HW219356   4.744   3.344   5.415
 6205SOL     OW19357   4.077   2.778   5.533
 6205SOL    HW119358   4.159   2.797   5.579
 6205SOL    HW219359   4.101   2.716   5.465
 6206SOL     OW19360   5.028   2.690   3.761
 6206SOL    HW119361   5.065   2.602   3.763
 6206SOL    HW219362   5.055   2.726   3.676
 6207SOL     OW19363   4.790   3.197   4.581
 6207SOL    HW119364   4.794   3.125   4.517
 6207SOL    HW219365   4.846   3.265   4.544
 6208SOL     OW19366   4.035   2.671   4.673
 6208SOL    HW119367   4.128   2.691   4.666
 6208SOL    HW219368   4.032   2.581   4.704
 6209SOL     OW19369   4.053   2.390   4.736
 6209SOL    HW119370   4.019   2.301   4.722
 6209SOL    HW219371   4.130   2.395   4.679
 6210SOL     OW19372   4.856   2.237   5.406
 6210SOL    HW119373   4.808   2.292   5.468
 6210SOL    HW219374   4.943   2.277   5.402
 6211SOL     OW19375   4.885   2.062   5.194
 6211SOL    HW119376   4.873   2.125   5.265
 6211SOL    HW219377   4.925   2.114   5.123
 6212SOL     OW19378   3.728   3.183   3.919
 6212SOL    HW119379   3.642   3.194   3.879
 6212SOL    HW219380   3.727   3.093   3.952
 6213SOL     OW19381   3.814   3.648   4.664
 6213SOL    HW119382   3.784   3.569   4.619
 6213SOL    HW219383   3.904   3.661   4.632
 6214SOL     OW19384   4.219   3.436   4.629
 6214SOL    HW119385   4.288   3.498   4.653
 6214SOL    HW219386   4.263   3.373   4.572
 6215SOL     OW19387   4.703   2.653   4.949
 6215SOL    HW119388   4.760   2.631   5.023
 6215SOL    HW219389   4.618   2.614   4.972
 6216SOL     OW19390   3.765   2.400   4.839
 6216SOL    HW119391   3.845   2.395   4.787
 6216SOL    HW219392   3.795   2.401   4.930
 6217SOL     OW19393   3.916   2.383   5.453
 6217SOL    HW119394   3.969   2.340   5.385
 6217SOL    HW219395   3.875   2.457   5.408
 6218SOL     OW19396   5.115   2.798   5.390
 6218SOL    HW119397   5.122   2.892   5.377
 6218SOL    HW219398   5.118   2.761   5.302
 6219SOL     OW19399   4.541   2.432   4.086
 6219SOL    HW119400   4.544   2.357   4.026
 6219SOL    HW219401   4.466   2.484   4.055
 6220SOL     OW19402   3.965   3.412   5.450
 6220SOL    HW119403   3.943   3.477   5.517
 6220SOL    HW219404   3.969   3.329   5.497
 6221SOL     OW19405   4.429   2.310   4.981
 6221SOL    HW119406   4.374   2.237   4.953
 6221SOL    HW219407   4.424   2.374   4.909
 6222SOL     OW19408   4.642   3.542   5.193
 6222SOL    HW119409   4.621   3.508   5.106
 6222SOL    HW219410   4.642   3.637   5.182
 6223SOL     OW19411   4.187   2.354   3.910
 6223SOL    HW119412   4.245   2.427   3.933
 6223SOL    HW219413   4.102   2.395   3.897
 6224SOL     OW19414   3.867   3.004   5.196
 6224SOL    HW119415   3.870   2.954   5.277
 6224SOL    HW219416   3.885   2.940   5.127
 6225SOL     OW19417   5.052   2.910   4.947
 6225SOL    HW119418   5.073   2.844   4.880
 6225SOL    HW219419   4.982   2.962   4.908
 6226SOL     OW19420   5.036   2.723   4.040
 6226SOL    HW119421   4.955   2.689   4.078
 6226SOL    HW219422   5.025   2.714   3.946
 6227SOL     OW19423   4.958   3.593   4.844
 6227SOL    HW119424   5.044   3.616   4.809
 6227SOL    HW219425   4.961   3.498   4.854
 6228SOL     OW19426   3.814   3.132   4.734
 6228SOL    HW119427   3.794   3.142   4.827
 6228SOL    HW219428   3.745   3.075   4.701
 6229SOL     OW19429   4.401   3.529   5.456
 6229SOL    HW119430   4.348   3.608   5.448
 6229SOL    HW219431   4.472   3.541   5.393
 6230SOL     OW19432   0.076   2.025   4.257
 6230SOL    HW119433   0.157   2.007   4.210
 6230SOL    HW219434   0.063   1.947   4.311
 6231SOL     OW19435   5.111   3.433   4.207
 6231SOL    HW119436   5.181   3.475   4.157
 6231SOL    HW219437   5.059   3.505   4.242
 6232SOL     OW19438   3.861   3.658   5.567
 6232SOL    HW119439   3.811   3.593   5.615
 6232SOL    HW219440   3.909   3.706   5.635
 6233SOL     OW19441   5.018   2.782   4.395
 6233SOL    HW119442   5.096   2.728   4.382
 6233SOL    HW219443   5.036   2.863   4.347
 6234SOL     OW19444   4.535   3.136   5.153
 6234SOL    HW119445   4.506   3.176   5.235
 6234SOL    HW219446   4.466   3.159   5.090
 6235SOL     OW19447   4.394   3.484   3.879
 6235SOL    HW119448   4.406   3.497   3.785
 6235SOL    HW219449   4.338   3.406   3.886
 6236SOL     OW19450   3.997   2.175   4.444
 6236SOL    HW119451   3.912   2.209   4.415
 6236SOL    HW219452   3.989   2.168   4.539
 6237SOL     OW19453   4.907   3.470   3.767
 6237SOL    HW119454   4.919   3.376   3.777
 6237SOL    HW219455   4.851   3.479   3.689
 6238SOL     OW19456   4.547   2.868   5.097
 6238SOL    HW119457   4.591   2.863   5.012
 6238SOL    HW219458   4.546   2.962   5.118
 6239SOL     OW19459   4.641   2.773   4.015
 6239SOL    HW119460   4.702   2.805   3.948
 6239SOL    HW219461   4.688   2.703   4.059
 6240SOL     OW19462   4.092   3.166   5.216
 6240SOL    HW119463   4.079   3.242   5.160
 6240SOL    HW219464   4.015   3.111   5.200
 6241SOL     OW19465   4.779   2.970   4.432
 6241SOL    HW119466   4.707   2.920   4.472
 6241SOL    HW219467   4.837   2.904   4.395
 6242SOL     OW19468   4.739   2.101   4.693
 6242SOL    HW119469   4.737   2.054   4.609
 6242SOL    HW219470   4.735   2.032   4.759
 6243SOL     OW19471   4.328   3.350   4.205
 6243SOL    HW119472   4.374   3.300   4.138
 6243SOL    HW219473   4.256   3.392   4.158
 6244SOL     OW19474   3.984   3.206   4.013
 6244SOL    HW119475   3.891   3.202   3.991
 6244SOL    HW219476   3.986   3.244   4.101
 6245SOL     OW19477   3.838   2.886   5.443
 6245SOL    HW119478   3.761   2.863   5.496
 6245SOL    HW219479   3.912   2.848   5.490
 6246SOL     OW19480   4.399   2.058   5.224
 6246SOL    HW119481   4.483   2.037   5.183
 6246SOL    HW219482   4.422   2.090   5.311
 6247SOL     OW19483   3.804   2.190   3.760
 6247SOL    HW119484   3.712   2.175   3.739
 6247SOL    HW219485   3.828   2.266   3.708
 6248SOL     OW19486   5.163   2.722   5.127
 6248SOL    HW119487   5.112   2.780   5.071
 6248SOL    HW219488   5.252   2.728   5.093
 6249SOL     OW19489   3.791   2.019   4.033
 6249SOL    HW119490   3.774   2.094   3.976
 6249SOL    HW219491   3.875   1.985   4.005
 6250SOL     OW19492   4.905   3.190   3.837
 6250SOL    HW119493   4.811   3.171   3.838
 6250SOL    HW219494   4.929   3.197   3.930
 6251SOL     OW19495   4.343   2.693   5.158
 6251SOL    HW119496   4.400   2.768   5.143
 6251SOL    HW219497   4.403   2.619   5.166
 6252SOL     OW19498   4.442   2.424   5.427
 6252SOL    HW119499   4.484   2.484   5.488
 6252SOL    HW219500   4.464   2.337   5.460
 6253SOL     OW19501   5.180   3.064   5.356
 6253SOL    HW119502   5.171   3.078   5.450
 6253SOL    HW219503   5.274   3.074   5.339
 6254SOL     OW19504   4.100   3.602   5.289
 6254SOL    HW119505   4.016   3.644   5.274
 6254SOL    HW219506   4.078   3.518   5.331
 6255SOL     OW19507   4.938   2.182   4.179
 6255SOL    HW119508   4.999   2.110   4.167
 6255SOL    HW219509   4.969   2.226   4.258
 6256SOL     OW19510   4.313   2.598   4.395
 6256SOL    HW119511   4.352   2.684   4.380
 6256SOL    HW219512   4.247   2.590   4.327
 6257SOL     OW19513   4.592   3.228   3.762
 6257SOL    HW119514   4.550   3.258   3.843
 6257SOL    HW219515   4.606   3.307   3.711
 6258SOL     OW19516   4.385   3.651   4.666
 6258SOL    HW119517   4.366   3.742   4.644
 6258SOL    HW219518   4.480   3.644   4.660
 6259SOL     OW19519   4.593   2.831   4.579
 6259SOL    HW119520   4.642   2.758   4.617
 6259SOL    HW219521   4.556   2.877   4.654
 6260SOL     OW19522   4.807   2.850   3.815
 6260SOL    HW119523   4.782   2.899   3.736
 6260SOL    HW219524   4.881   2.796   3.787
 6261SOL     OW19525   3.949   3.164   5.579
 6261SOL    HW119526   3.883   3.102   5.549
 6261SOL    HW219527   3.930   3.176   5.672
 6262SOL     OW19528   3.819   3.100   4.390
 6262SOL    HW119529   3.827   3.051   4.472
 6262SOL    HW219530   3.879   3.056   4.331
 6263SOL     OW19531   4.406   3.265   5.354
 6263SOL    HW119532   4.326   3.224   5.386
 6263SOL    HW219533   4.403   3.354   5.389
 6264SOL     OW19534   4.154   2.296   4.249
 6264SOL    HW119535   4.184   2.226   4.192
 6264SOL    HW219536   4.109   2.251   4.321
 6265SOL     OW19537   0.093   3.381   4.824
 6265SOL    HW119538   0.026   3.360   4.759
 6265SOL    HW219539   0.094   3.305   4.882
 6266SOL     OW19540   4.058   2.419   5.016
 6266SOL    HW119541   4.113   2.363   5.071
 6266SOL    HW219542   4.077   2.390   4.927
 6267SOL     OW19543   4.553   3.440   4.400
 6267SOL    HW119544   4.539   3.498   4.326
 6267SOL    HW219545   4.477   3.382   4.401
 6268SOL     OW19546   5.145   2.081   4.839
 6268SOL    HW119547   5.191   2.017   4.893
 6268SOL    HW219548   5.098   2.136   4.902
 6269SOL     OW19549   4.729   1.879   4.864
 6269SOL    HW119550   4.676   1.812   4.822
 6269SOL    HW219551   4.817   1.841   4.869
 6270SOL     OW19552   4.495   3.195   4.042
 6270SOL    HW119553   4.466   3.104   4.048
 6270SOL    HW219554   4.578   3.197   4.090
 6271SOL     OW19555   4.344   3.418   5.010
 6271SOL    HW119556   4.345   3.500   5.058
 6271SOL    HW219557   4.432   3.410   4.973
 6272SOL     OW19558   5.056   1.907   3.891
 6272SOL    HW119559   5.076   1.866   3.806
 6272SOL    HW219560   4.971   1.870   3.915
 6273SOL     OW19561   5.027   2.320   4.404
 6273SOL    HW119562   4.973   2.399   4.408
 6273SOL    HW219563   5.015   2.279   4.490
 6274SOL     OW19564   0.002   2.089   4.607
 6274SOL    HW119565   5.237   2.075   4.676
 6274SOL    HW219566   5.272   2.168   4.561
 6275SOL     OW19567   3.773   2.934   4.031
 6275SOL    HW119568   3.866   2.921   4.012
 6275SOL    HW219569   3.741   2.846   4.053
 6276SOL     OW19570   4.604   3.514   4.069
 6276SOL    HW119571   4.533   3.499   4.007
 6276SOL    HW219572   4.577   3.590   4.120
 6277SOL     OW19573   3.951   2.486   5.711
 6277SOL    HW119574   3.862   2.482   5.746
 6277SOL    HW219575   3.942   2.461   5.619
 6278SOL     OW19576   3.949   2.144   6.578
 6278SOL    HW119577   3.977   2.109   6.663
 6278SOL    HW219578   3.859   2.112   6.568
 6279SOL     OW19579   3.727   2.245   6.224
 6279SOL    HW119580   3.645   2.272   6.266
 6279SOL    HW219581   3.704   2.166   6.175
 6280SOL     OW19582   4.291   3.153   6.764
 6280SOL    HW119583   4.204   3.157   6.724
 6280SOL    HW219584   4.307   3.242   6.796
 6281SOL     OW19585   5.288   3.398   6.292
 6281SOL    HW119586   5.248   3.356   6.368
 6281SOL    HW219587   5.222   3.391   6.223
 6282SOL     OW19588   4.860   2.561   6.284
 6282SOL    HW119589   4.911   2.641   6.274
 6282SOL    HW219590   4.811   2.572   6.365
 6283SOL     OW19591   4.476   3.003   6.629
 6283SOL    HW119592   4.408   3.038   6.686
 6283SOL    HW219593   4.513   3.079   6.585
 6284SOL     OW19594   4.594   2.633   7.407
 6284SOL    HW119595   4.571   2.707   7.463
 6284SOL    HW219596   4.618   2.673   7.323
 6285SOL     OW19597   4.410   2.862   6.232
 6285SOL    HW119598   4.475   2.852   6.301
 6285SOL    HW219599   4.341   2.915   6.271
 6286SOL     OW19600   4.436   3.013   7.401
 6286SOL    HW119601   4.484   3.091   7.429
 6286SOL    HW219602   4.355   3.047   7.363
 6287SOL     OW19603   4.054   3.285   6.654
 6287SOL    HW119604   3.981   3.246   6.605
 6287SOL    HW219605   4.103   3.335   6.588
 6288SOL     OW19606   5.161   3.341   6.942
 6288SOL    HW119607   5.211   3.419   6.965
 6288SOL    HW219608   5.098   3.331   7.013
 6289SOL     OW19609   4.174   2.259   7.071
 6289SOL    HW119610   4.249   2.200   7.077
 6289SOL    HW219611   4.098   2.203   7.086
 6290SOL     OW19612   3.943   3.577   6.057
 6290SOL    HW119613   3.964   3.653   6.111
 6290SOL    HW219614   4.017   3.569   5.997
 6291SOL     OW19615   4.858   3.202   7.278
 6291SOL    HW119616   4.898   3.199   7.365
 6291SOL    HW219617   4.807   3.121   7.272
 6292SOL     OW19618   3.955   3.304   6.122
 6292SOL    HW119619   3.937   3.398   6.124
 6292SOL    HW219620   3.895   3.267   6.186
 6293SOL     OW19621   3.985   2.953   6.478
 6293SOL    HW119622   3.981   2.865   6.517
 6293SOL    HW219623   3.927   3.006   6.531
 6294SOL     OW19624   4.329   3.655   7.010
 6294SOL    HW119625   4.250   3.637   7.060
 6294SOL    HW219626   4.355   3.743   7.038
 6295SOL     OW19627   4.308   2.845   5.722
 6295SOL    HW119628   4.354   2.892   5.653
 6295SOL    HW219629   4.346   2.876   5.804
 6296SOL     OW19630   3.840   2.516   6.146
 6296SOL    HW119631   3.810   2.427   6.167
 6296SOL    HW219632   3.832   2.564   6.228
 6297SOL     OW19633   3.758   3.456   5.709
 6297SOL    HW119634   3.740   3.364   5.729
 6297SOL    HW219635   3.734   3.503   5.789
 6298SOL     OW19636   0.112   2.801   6.162
 6298SOL    HW119637   0.199   2.763   6.170
 6298SOL    HW219638   0.127   2.889   6.128
 6299SOL     OW19639   3.847   2.605   7.172
 6299SOL    HW119640   3.938   2.633   7.176
 6299SOL    HW219641   3.796   2.686   7.178
 6300SOL     OW19642   4.338   3.249   6.321
 6300SOL    HW119643   4.293   3.166   6.330
 6300SOL    HW219644   4.322   3.276   6.231
 6301SOL     OW19645   5.003   3.096   7.010
 6301SOL    HW119646   5.037   3.030   6.950
 6301SOL    HW219647   5.059   3.090   7.087
 6302SOL     OW19648   4.540   1.863   6.097
 6302SOL    HW119649   4.581   1.947   6.075
 6302SOL    HW219650   4.447   1.883   6.104
 6303SOL     OW19651   3.913   2.826   6.860
 6303SOL    HW119652   3.998   2.785   6.845
 6303SOL    HW219653   3.852   2.774   6.809
 6304SOL     OW19654   4.895   3.671   7.210
 6304SOL    HW119655   4.915   3.730   7.138
 6304SOL    HW219656   4.920   3.584   7.177
 6305SOL     OW19657   4.059   2.110   7.405
 6305SOL    HW119658   4.101   2.195   7.417
 6305SOL    HW219659   3.969   2.124   7.431
 6306SOL     OW19660   5.167   3.299   6.519
 6306SOL    HW119661   5.106   3.305   6.593
 6306SOL    HW219662   5.161   3.207   6.491
 6307SOL     OW19663   4.319   2.582   5.854
 6307SOL    HW119664   4.323   2.664   5.805
 6307SOL    HW219665   4.254   2.597   5.922
 6308SOL     OW19666   4.995   2.199   6.504
 6308SOL    HW119667   4.906   2.170   6.526
 6308SOL    HW219668   5.049   2.164   6.574
 6309SOL     OW19669   4.514   2.480   7.036
 6309SOL    HW119670   4.488   2.455   7.125
 6309SOL    HW219671   4.476   2.412   6.980
 6310SOL     OW19672   5.114   2.345   7.267
 6310SOL    HW119673   5.117   2.380   7.356
 6310SOL    HW219674   5.192   2.289   7.261
 6311SOL     OW19675   4.676   2.749   7.169
 6311SOL    HW119676   4.729   2.679   7.132
 6311SOL    HW219677   4.628   2.785   7.095
 6312SOL     OW19678   4.715   2.274   6.823
 6312SOL    HW119679   4.628   2.293   6.856
 6312SOL    HW219680   4.700   2.229   6.740
 6313SOL     OW19681   4.776   2.560   6.011
 6313SOL    HW119682   4.793   2.554   6.105
 6313SOL    HW219683   4.693   2.514   5.998
 6314SOL     OW19684   3.812   2.683   6.363
 6314SOL    HW119685   3.893   2.676   6.414
 6314SOL    HW219686   3.769   2.761   6.398
 6315SOL     OW19687   3.849   3.719   7.167
 6315SOL    HW119688   3.851   3.696   7.260
 6315SOL    HW219689   3.760   3.697   7.139
 6316SOL     OW19690   4.620   2.211   5.781
 6316SOL    HW119691   4.659   2.272   5.718
 6316SOL    HW219692   4.633   2.125   5.740
 6317SOL     OW19693   5.094   3.011   6.136
 6317SOL    HW119694   5.183   3.015   6.100
 6317SOL    HW219695   5.043   3.069   6.079
 6318SOL     OW19696   4.275   2.042   6.481
 6318SOL    HW119697   4.277   2.072   6.571
 6318SOL    HW219698   4.274   2.122   6.429
 6319SOL     OW19699   4.728   3.304   6.057
 6319SOL    HW119700   4.691   3.378   6.007
 6319SOL    HW219701   4.708   3.325   6.148
 6320SOL     OW19702   4.078   3.673   6.451
 6320SOL    HW119703   4.122   3.588   6.458
 6320SOL    HW219704   4.147   3.737   6.470
 6321SOL     OW19705   4.940   3.402   7.103
 6321SOL    HW119706   4.927   3.331   7.165
 6321SOL    HW219707   4.876   3.385   7.033
 6322SOL     OW19708   4.042   2.820   5.838
 6322SOL    HW119709   4.124   2.839   5.792
 6322SOL    HW219710   4.012   2.738   5.799
 6323SOL     OW19711   4.191   3.126   7.324
 6323SOL    HW119712   4.164   3.131   7.232
 6323SOL    HW219713   4.108   3.124   7.372
 6324SOL     OW19714   4.831   3.636   5.823
 6324SOL    HW119715   4.758   3.593   5.867
 6324SOL    HW219716   4.856   3.577   5.753
 6325SOL     OW19717   3.926   2.141   7.089
 6325SOL    HW119718   3.843   2.190   7.084
 6325SOL    HW219719   3.904   2.064   7.141
 6326SOL     OW19720   4.189   3.598   5.906
 6326SOL    HW119721   4.232   3.656   5.970
 6326SOL    HW219722   4.260   3.566   5.850
 6327SOL     OW19723   5.118   1.969   6.010
 6327SOL    HW119724   5.099   1.950   5.918
 6327SOL    HW219725   5.212   1.985   6.012
 6328SOL     OW19726   3.979   3.653   6.817
 6328SOL    HW119727   4.031   3.586   6.862
 6328SOL    HW219728   3.971   3.621   6.727
 6329SOL     OW19729   4.662   3.560   6.484
 6329SOL    HW119730   4.743   3.511   6.502
 6329SOL    HW219731   4.619   3.511   6.414
 6330SOL     OW19732   4.119   2.557   6.061
 6330SOL    HW119733   4.138   2.464   6.073
 6330SOL    HW219734   4.025   2.565   6.078
 6331SOL     OW19735   4.363   1.983   5.689
 6331SOL    HW119736   4.429   1.914   5.704
 6331SOL    HW219737   4.312   1.952   5.615
 6332SOL     OW19738   4.488   2.140   7.342
 6332SOL    HW119739   4.566   2.085   7.340
 6332SOL    HW219740   4.445   2.119   7.424
 6333SOL     OW19741   4.599   3.384   6.780
 6333SOL    HW119742   4.584   3.348   6.692
 6333SOL    HW219743   4.669   3.331   6.816
 6334SOL     OW19744   5.057   2.454   7.018
 6334SOL    HW119745   5.089   2.423   7.103
 6334SOL    HW219746   5.100   2.539   7.006
 6335SOL     OW19747   4.540   3.255   6.528
 6335SOL    HW119748   4.624   3.243   6.485
 6335SOL    HW219749   4.476   3.259   6.456
 6336SOL     OW19750   4.652   2.371   6.488
 6336SOL    HW119751   4.628   2.362   6.395
 6336SOL    HW219752   4.682   2.284   6.513
 6337SOL     OW19753   4.274   1.925   6.086
 6337SOL    HW119754   4.194   1.925   6.138
 6337SOL    HW219755   4.267   2.003   6.031
 6338SOL     OW19756   5.134   3.044   5.630
 6338SOL    HW119757   5.139   2.964   5.682
 6338SOL    HW219758   5.047   3.079   5.650
 6339SOL     OW19759   4.015   1.910   5.771
 6339SOL    HW119760   4.073   1.974   5.730
 6339SOL    HW219761   4.074   1.847   5.813
 6340SOL     OW19762   4.663   2.110   6.044
 6340SOL    HW119763   4.637   2.149   5.960
 6340SOL    HW219764   4.757   2.123   6.048
 6341SOL     OW19765   4.801   2.544   7.046
 6341SOL    HW119766   4.735   2.475   7.048
 6341SOL    HW219767   4.884   2.498   7.037
 6342SOL     OW19768   4.939   3.433   6.380
 6342SOL    HW119769   4.960   3.500   6.315
 6342SOL    HW219770   5.021   3.419   6.427
 6343SOL     OW19771   4.194   3.013   6.317
 6343SOL    HW119772   4.126   2.993   6.381
 6343SOL    HW219773   4.153   2.997   6.232
 6344SOL     OW19774   4.994   3.656   6.192
 6344SOL    HW119775   5.036   3.717   6.132
 6344SOL    HW219776   4.927   3.708   6.236
 6345SOL     OW19777   4.747   2.403   5.609
 6345SOL    HW119778   4.703   2.485   5.590
 6345SOL    HW219779   4.808   2.425   5.680
 6346SOL     OW19780   3.805   2.416   6.978
 6346SOL    HW119781   3.897   2.416   6.952
 6346SOL    HW219782   3.800   2.486   7.044
 6347SOL     OW19783   4.282   2.089   6.754
 6347SOL    HW119784   4.324   2.014   6.795
 6347SOL    HW219785   4.191   2.085   6.783
 6348SOL     OW19786   4.592   2.321   6.225
 6348SOL    HW119787   4.545   2.376   6.161
 6348SOL    HW219788   4.613   2.241   6.176
 6349SOL     OW19789   4.740   1.915   6.336
 6349SOL    HW119790   4.681   1.909   6.260
 6349SOL    HW219791   4.717   1.840   6.390
 6350SOL     OW19792   5.156   3.039   6.437
 6350SOL    HW119793   5.101   2.961   6.451
 6350SOL    HW219794   5.167   3.042   6.342
 6351SOL     OW19795   4.214   3.282   5.740
 6351SOL    HW119796   4.139   3.253   5.792
 6351SOL    HW219797   4.203   3.237   5.656
 6352SOL     OW19798   5.128   2.422   5.668
 6352SOL    HW119799   5.054   2.413   5.727
 6352SOL    HW219800   5.202   2.385   5.716
 6353SOL     OW19801   4.250   2.125   5.902
 6353SOL    HW119802   4.296   2.078   5.832
 6353SOL    HW219803   4.225   2.208   5.863
 6354SOL     OW19804   4.778   3.217   6.919
 6354SOL    HW119805   4.703   3.185   6.969
 6354SOL    HW219806   4.854   3.174   6.959
 6355SOL     OW19807   0.007   3.469   7.200
 6355SOL    HW119808   0.042   3.471   7.111
 6355SOL    HW219809   0.083   3.447   7.255
 6356SOL     OW19810   4.855   3.068   6.691
 6356SOL    HW119811   4.793   3.102   6.755
 6356SOL    HW219812   4.823   3.097   6.607
 6357SOL     OW19813   4.642   1.959   6.981
 6357SOL    HW119814   4.664   1.940   6.890
 6357SOL    HW219815   4.721   1.997   7.018
 6358SOL     OW19816   4.709   2.973   7.315
 6358SOL    HW119817   4.618   2.993   7.334
 6358SOL    HW219818   4.706   2.897   7.257
 6359SOL     OW19819   4.433   2.924   5.957
 6359SOL    HW119820   4.419   2.906   6.050
 6359SOL    HW219821   4.509   2.870   5.933
 6360SOL     OW19822   4.144   2.678   6.837
 6360SOL    HW119823   4.212   2.688   6.904
 6360SOL    HW219824   4.109   2.590   6.851
 6361SOL     OW19825   4.987   2.237   6.864
 6361SOL    HW119826   5.022   2.316   6.904
 6361SOL    HW219827   4.897   2.259   6.840
 6362SOL     OW19828   3.796   3.436   6.941
 6362SOL    HW119829   3.767   3.508   6.885
 6362SOL    HW219830   3.892   3.437   6.934
 6363SOL     OW19831   4.069   2.974   6.076
 6363SOL    HW119832   4.074   3.047   6.015
 6363SOL    HW219833   4.067   2.896   6.020
 6364SOL     OW19834   4.275   2.397   6.446
 6364SOL    HW119835   4.289   2.455   6.371
 6364SOL    HW219836   4.341   2.423   6.510
 6365SOL     OW19837   4.971   3.212   5.973
 6365SOL    HW119838   5.026   3.284   6.003
 6365SOL    HW219839   4.884   3.232   6.006
 6366SOL     OW19840   4.997   3.319   6.727
 6366SOL    HW119841   5.051   3.320   6.806
 6366SOL    HW219842   4.943   3.241   6.736
 6367SOL     OW19843   4.070   3.391   6.899
 6367SOL    HW119844   4.058   3.347   6.815
 6367SOL    HW219845   4.165   3.402   6.907
 6368SOL     OW19846   4.139   2.608   7.188
 6368SOL    HW119847   4.202   2.651   7.131
 6368SOL    HW219848   4.176   2.521   7.203
 6369SOL     OW19849   4.718   1.991   7.340
 6369SOL    HW119850   4.777   2.062   7.315
 6369SOL    HW219851   4.765   1.911   7.315
 6370SOL     OW19852   4.222   1.900   7.335
 6370SOL    HW119853   4.178   1.847   7.269
 6370SOL    HW219854   4.164   1.976   7.347
 6371SOL     OW19855   4.308   2.735   6.618
 6371SOL    HW119856   4.338   2.826   6.618
 6371SOL    HW219857   4.251   2.729   6.695
 6372SOL     OW19858   5.086   2.718   6.622
 6372SOL    HW119859   5.009   2.696   6.569
 6372SOL    HW219860   5.142   2.640   6.615
 6373SOL     OW19861   4.925   2.393   5.849
 6373SOL    HW119862   4.932   2.313   5.901
 6373SOL    HW219863   4.882   2.456   5.906
 6374SOL     OW19864   4.022   2.060   6.833
 6374SOL    HW119865   3.984   2.092   6.915
 6374SOL    HW219866   4.003   1.966   6.834
 6375SOL     OW19867   3.771   3.173   6.861
 6375SOL    HW119868   3.803   3.118   6.932
 6375SOL    HW219869   3.777   3.262   6.896
 6376SOL     OW19870   4.446   2.492   6.642
 6376SOL    HW119871   4.522   2.478   6.585
 6376SOL    HW219872   4.418   2.581   6.622
 6377SOL     OW19873   4.029   1.925   6.209
 6377SOL    HW119874   4.007   2.016   6.231
 6377SOL    HW219875   4.036   1.881   6.294
 6378SOL     OW19876   0.034   2.260   5.943
 6378SOL    HW119877   0.051   2.183   5.998
 6378SOL    HW219878   0.023   2.332   6.006
 6379SOL     OW19879   4.751   2.620   6.544
 6379SOL    HW119880   4.748   2.638   6.638
 6379SOL    HW219881   4.726   2.529   6.536
 6380SOL     OW19882   4.697   3.423   7.301
 6380SOL    HW119883   4.686   3.471   7.219
 6380SOL    HW219884   4.745   3.344   7.277
 6381SOL     OW19885   4.077   2.776   7.397
 6381SOL    HW119886   4.160   2.797   7.439
 6381SOL    HW219887   4.100   2.714   7.328
 6382SOL     OW19888   5.028   2.690   5.623
 6382SOL    HW119889   5.065   2.602   5.625
 6382SOL    HW219890   5.055   2.725   5.538
 6383SOL     OW19891   4.790   3.197   6.442
 6383SOL    HW119892   4.794   3.125   6.379
 6383SOL    HW219893   4.846   3.265   6.406
 6384SOL     OW19894   4.032   2.671   6.533
 6384SOL    HW119895   4.125   2.692   6.526
 6384SOL    HW219896   4.030   2.581   6.565
 6385SOL     OW19897   4.054   2.390   6.599
 6385SOL    HW119898   4.019   2.302   6.585
 6385SOL    HW219899   4.131   2.394   6.542
 6386SOL     OW19900   4.857   2.237   7.267
 6386SOL    HW119901   4.808   2.292   7.329
 6386SOL    HW219902   4.944   2.277   7.262
 6387SOL     OW19903   4.885   2.062   7.055
 6387SOL    HW119904   4.873   2.124   7.127
 6387SOL    HW219905   4.925   2.114   6.985
 6388SOL     OW19906   3.730   3.182   5.781
 6388SOL    HW119907   3.643   3.197   5.744
 6388SOL    HW219908   3.726   3.092   5.815
 6389SOL     OW19909   3.814   3.647   6.525
 6389SOL    HW119910   3.784   3.568   6.480
 6389SOL    HW219911   3.904   3.661   6.494
 6390SOL     OW19912   4.219   3.436   6.491
 6390SOL    HW119913   4.287   3.498   6.515
 6390SOL    HW219914   4.263   3.373   6.434
 6391SOL     OW19915   4.703   2.653   6.811
 6391SOL    HW119916   4.760   2.631   6.885
 6391SOL    HW219917   4.618   2.614   6.834
 6392SOL     OW19918   3.759   2.407   6.703
 6392SOL    HW119919   3.840   2.396   6.653
 6392SOL    HW219920   3.788   2.410   6.795
 6393SOL     OW19921   3.917   2.382   7.315
 6393SOL    HW119922   3.969   2.339   7.247
 6393SOL    HW219923   3.876   2.457   7.271
 6394SOL     OW19924   5.113   2.797   7.253
 6394SOL    HW119925   5.121   2.892   7.240
 6394SOL    HW219926   5.117   2.761   7.165
 6395SOL     OW19927   4.541   2.432   5.948
 6395SOL    HW119928   4.544   2.357   5.888
 6395SOL    HW219929   4.466   2.484   5.917
 6396SOL     OW19930   3.964   3.412   7.312
 6396SOL    HW119931   3.944   3.477   7.379
 6396SOL    HW219932   3.970   3.329   7.359
 6397SOL     OW19933   4.429   2.310   6.843
 6397SOL    HW119934   4.374   2.237   6.815
 6397SOL    HW219935   4.424   2.374   6.771
 6398SOL     OW19936   4.643   3.541   7.055
 6398SOL    HW119937   4.621   3.508   6.968
 6398SOL    HW219938   4.643   3.637   7.044
 6399SOL     OW19939   4.187   2.354   5.771
 6399SOL    HW119940   4.245   2.426   5.794
 6399SOL    HW219941   4.101   2.396   5.759
 6400SOL     OW19942   3.868   3.003   7.059
 6400SOL    HW119943   3.870   2.953   7.141
 6400SOL    HW219944   3.885   2.938   6.991
 6401SOL     OW19945   5.052   2.910   6.809
 6401SOL    HW119946   5.073   2.844   6.742
 6401SOL    HW219947   4.982   2.962   6.770
 6402SOL     OW19948   5.036   2.723   5.902
 6402SOL    HW119949   4.955   2.689   5.940
 6402SOL    HW219950   5.024   2.713   5.808
 6403SOL     OW19951   4.958   3.593   6.705
 6403SOL    HW119952   5.045   3.616   6.670
 6403SOL    HW219953   4.961   3.498   6.716
 6404SOL     OW19954   3.809   3.129   6.597
 6404SOL    HW119955   3.794   3.142   6.690
 6404SOL    HW219956   3.737   3.073   6.568
 6405SOL     OW19957   4.401   3.527   7.316
 6405SOL    HW119958   4.349   3.608   7.311
 6405SOL    HW219959   4.472   3.541   7.254
 6406SOL     OW19960   0.076   2.025   6.119
 6406SOL    HW119961   0.158   2.008   6.072
 6406SOL    HW219962   0.063   1.947   6.173
 6407SOL     OW19963   5.111   3.433   6.069
 6407SOL    HW119964   5.181   3.475   6.020
 6407SOL    HW219965   5.059   3.505   6.104
 6408SOL     OW19966   3.861   3.657   7.430
 6408SOL    HW119967   3.810   3.593   7.479
 6408SOL    HW219968   3.909   3.706   7.497
 6409SOL     OW19969   5.018   2.782   6.257
 6409SOL    HW119970   5.096   2.728   6.244
 6409SOL    HW219971   5.036   2.863   6.209
 6410SOL     OW19972   4.534   3.136   7.015
 6410SOL    HW119973   4.506   3.176   7.097
 6410SOL    HW219974   4.466   3.159   6.952
 6411SOL     OW19975   4.394   3.484   5.741
 6411SOL    HW119976   4.406   3.497   5.647
 6411SOL    HW219977   4.338   3.406   5.748
 6412SOL     OW19978   3.984   2.177   6.302
 6412SOL    HW119979   3.898   2.212   6.278
 6412SOL    HW219980   3.982   2.170   6.397
 6413SOL     OW19981   4.907   3.470   5.629
 6413SOL    HW119982   4.919   3.376   5.639
 6413SOL    HW219983   4.851   3.479   5.551
 6414SOL     OW19984   4.547   2.868   6.959
 6414SOL    HW119985   4.591   2.863   6.874
 6414SOL    HW219986   4.546   2.962   6.980
 6415SOL     OW19987   4.641   2.773   5.876
 6415SOL    HW119988   4.702   2.805   5.810
 6415SOL    HW219989   4.688   2.703   5.921
 6416SOL     OW19990   4.092   3.166   7.078
 6416SOL    HW119991   4.079   3.242   7.022
 6416SOL    HW219992   4.015   3.111   7.062
 6417SOL     OW19993   4.779   2.970   6.294
 6417SOL    HW119994   4.708   2.920   6.334
 6417SOL    HW219995   4.837   2.903   6.257
 6418SOL     OW19996   4.739   2.101   6.555
 6418SOL    HW119997   4.737   2.054   6.471
 6418SOL    HW219998   4.735   2.032   6.621
 6419SOL     OW19999   4.328   3.350   6.067
 6419SOL    HW120000   4.374   3.300   6.000
 6419SOL    HW220001   4.257   3.393   6.020
 6420SOL     OW20002   3.984   3.206   5.876
 6420SOL    HW120003   3.891   3.203   5.852
 6420SOL    HW220004   3.986   3.243   5.964
 6421SOL     OW20005   3.838   2.887   7.307
 6421SOL    HW120006   3.761   2.863   7.358
 6421SOL    HW220007   3.911   2.847   7.354
 6422SOL     OW20008   4.399   2.058   7.086
 6422SOL    HW120009   4.483   2.037   7.045
 6422SOL    HW220010   4.421   2.089   7.173
 6423SOL     OW20011   3.804   2.194   5.620
 6423SOL    HW120012   3.717   2.175   5.585
 6423SOL    HW220013   3.834   2.270   5.570
 6424SOL     OW20014   5.163   2.722   6.990
 6424SOL    HW120015   5.111   2.780   6.933
 6424SOL    HW220016   5.252   2.728   6.955
 6425SOL     OW20017   3.790   2.017   5.893
 6425SOL    HW120018   3.776   2.097   5.843
 6425SOL    HW220019   3.875   1.984   5.864
 6426SOL     OW20020   4.905   3.190   5.700
 6426SOL    HW120021   4.811   3.171   5.701
 6426SOL    HW220022   4.929   3.197   5.792
 6427SOL     OW20023   4.343   2.693   7.020
 6427SOL    HW120024   4.400   2.768   7.005
 6427SOL    HW220025   4.403   2.619   7.028
 6428SOL     OW20026   4.442   2.423   7.289
 6428SOL    HW120027   4.484   2.483   7.350
 6428SOL    HW220028   4.464   2.336   7.321
 6429SOL     OW20029   5.180   3.064   7.216
 6429SOL    HW120030   5.170   3.076   7.311
 6429SOL    HW220031   5.274   3.074   7.200
 6430SOL     OW20032   4.100   3.602   7.151
 6430SOL    HW120033   4.016   3.645   7.137
 6430SOL    HW220034   4.078   3.518   7.192
 6431SOL     OW20035   4.938   2.182   6.041
 6431SOL    HW120036   4.999   2.110   6.029
 6431SOL    HW220037   4.969   2.226   6.120
 6432SOL     OW20038   4.313   2.598   6.257
 6432SOL    HW120039   4.352   2.684   6.242
 6432SOL    HW220040   4.247   2.590   6.189
 6433SOL     OW20041   4.591   3.227   5.624
 6433SOL    HW120042   4.550   3.258   5.705
 6433SOL    HW220043   4.606   3.307   5.573
 6434SOL     OW20044   4.385   3.651   6.528
 6434SOL    HW120045   4.366   3.742   6.506
 6434SOL    HW220046   4.480   3.644   6.522
 6435SOL     OW20047   4.593   2.831   6.441
 6435SOL    HW120048   4.642   2.758   6.479
 6435SOL    HW220049   4.556   2.877   6.516
 6436SOL     OW20050   4.807   2.849   5.676
 6436SOL    HW120051   4.782   2.899   5.598
 6436SOL    HW220052   4.881   2.796   5.649
 6437SOL     OW20053   3.949   3.163   7.442
 6437SOL    HW120054   3.884   3.102   7.409
 6437SOL    HW220055   3.925   3.178   7.534
 6438SOL     OW20056   3.808   3.094   6.251
 6438SOL    HW120057   3.815   3.047   6.334
 6438SOL    HW220058   3.876   3.055   6.196
 6439SOL     OW20059   4.406   3.265   7.216
 6439SOL    HW120060   4.325   3.224   7.247
 6439SOL    HW220061   4.403   3.354   7.251
 6440SOL     OW20062   4.154   2.296   6.112
 6440SOL    HW120063   4.183   2.225   6.055
 6440SOL    HW220064   4.104   2.252   6.181
 6441SOL     OW20065   0.093   3.381   6.687
 6441SOL    HW120066   0.026   3.361   6.621
 6441SOL    HW220067   0.095   3.305   6.745
 6442SOL     OW20068   4.057   2.419   6.878
 6442SOL    HW120069   4.112   2.363   6.933
 6442SOL    HW220070   4.074   2.390   6.789
 6443SOL     OW20071   4.553   3.440   6.262
 6443SOL    HW120072   4.538   3.498   6.188
 6443SOL    HW220073   4.477   3.382   6.264
 6444SOL     OW20074   5.145   2.081   6.701
 6444SOL    HW120075   5.191   2.017   6.755
 6444SOL    HW220076   5.098   2.136   6.764
 6445SOL     OW20077   4.729   1.879   6.726
 6445SOL    HW120078   4.676   1.812   6.684
 6445SOL    HW220079   4.817   1.841   6.731
 6446SOL     OW20080   4.495   3.195   5.904
 6446SOL    HW120081   4.466   3.104   5.910
 6446SOL    HW220082   4.578   3.197   5.952
 6447SOL     OW20083   4.344   3.418   6.872
 6447SOL    HW120084   4.345   3.500   6.920
 6447SOL    HW220085   4.431   3.410   6.834
 6448SOL     OW20086   5.055   1.907   5.753
 6448SOL    HW120087   5.076   1.866   5.669
 6448SOL    HW220088   4.971   1.870   5.777
 6449SOL     OW20089   5.027   2.320   6.266
 6449SOL    HW120090   4.973   2.399   6.270
 6449SOL    HW220091   5.015   2.279   6.352
 6450SOL     OW20092   0.002   2.089   6.468
 6450SOL    HW120093   5.237   2.075   6.538
 6450SOL    HW220094   5.272   2.167   6.423
 6451SOL     OW20095   3.767   2.931   5.893
 6451SOL    HW120096   3.860   2.923   5.875
 6451SOL    HW220097   3.739   2.842   5.915
 6452SOL     OW20098   4.604   3.514   5.931
 6452SOL    HW120099   4.533   3.499   5.869
 6452SOL    HW220100   4.577   3.590   5.982
 6453SOL     OW20101   3.951   2.481   7.573
 6453SOL    HW120102   3.861   2.489   7.605
 6453SOL    HW220103   3.943   2.459   7.481
 6454SOL     OW20104   3.945   3.578   7.919
 6454SOL    HW120105   3.972   3.618   8.001
 6454SOL    HW220106   4.024   3.578   7.865
 6455SOL     OW20107   3.939   3.301   7.993
 6455SOL    HW120108   3.926   3.395   7.988
 6455SOL    HW220109   3.879   3.272   8.061
 6456SOL     OW20110   4.309   2.845   7.580
 6456SOL    HW120111   4.353   2.894   7.511
 6456SOL    HW220112   4.347   2.877   7.661
 6457SOL     OW20113   3.755   3.460   7.578
 6457SOL    HW120114   3.739   3.367   7.593
 6457SOL    HW220115   3.728   3.503   7.659
 6458SOL     OW20116   0.115   2.791   8.013
 6458SOL    HW120117   0.209   2.782   8.031
 6458SOL    HW220118   0.102   2.885   8.003
 6459SOL     OW20119   4.525   1.857   7.938
 6459SOL    HW120120   4.575   1.937   7.920
 6459SOL    HW220121   4.434   1.887   7.946
 6460SOL     OW20122   4.315   2.587   7.709
 6460SOL    HW120123   4.315   2.669   7.660
 6460SOL    HW220124   4.254   2.602   7.782
 6461SOL     OW20125   3.782   2.725   0.086
 6461SOL    HW120126   3.846   2.659   0.112
 6461SOL    HW220127   3.784   2.789   0.158
 6462SOL     OW20128   4.612   2.210   7.640
 6462SOL    HW120129   4.651   2.268   7.575
 6462SOL    HW220130   4.640   2.122   7.615
 6463SOL     OW20131   4.046   2.818   7.698
 6463SOL    HW120132   4.125   2.836   7.647
 6463SOL    HW220133   4.008   2.741   7.657
 6464SOL     OW20134   4.836   3.638   7.685
 6464SOL    HW120135   4.761   3.595   7.728
 6464SOL    HW220136   4.861   3.578   7.615
 6465SOL     OW20137   4.190   3.601   7.770
 6465SOL    HW120138   4.240   3.653   7.833
 6465SOL    HW220139   4.256   3.563   7.712
 6466SOL     OW20140   5.132   1.989   7.853
 6466SOL    HW120141   5.095   1.965   7.768
 6466SOL    HW220142   5.227   1.990   7.839
 6467SOL     OW20143   4.117   2.561   7.917
 6467SOL    HW120144   4.115   2.466   7.928
 6467SOL    HW220145   4.026   2.588   7.926
 6468SOL     OW20146   4.357   1.981   7.558
 6468SOL    HW120147   4.428   1.917   7.571
 6468SOL    HW220148   4.311   1.950   7.480
 6469SOL     OW20149   4.256   1.938   7.959
 6469SOL    HW120150   4.171   1.942   8.002
 6469SOL    HW220151   4.255   2.008   7.895
 6470SOL     OW20152   5.134   3.043   7.489
 6470SOL    HW120153   5.147   2.970   7.550
 6470SOL    HW220154   5.048   3.077   7.510
 6471SOL     OW20155   4.016   1.911   7.633
 6471SOL    HW120156   4.073   1.972   7.586
 6471SOL    HW220157   4.075   1.848   7.673
 6472SOL     OW20158   4.667   2.089   7.908
 6472SOL    HW120159   4.625   2.151   7.849
 6472SOL    HW220160   4.758   2.117   7.912
 6473SOL     OW20161   4.159   3.007   0.100
 6473SOL    HW120162   4.089   3.057   0.143
 6473SOL    HW220163   4.130   2.998   0.009
 6474SOL     OW20164   5.010   3.667   8.011
 6474SOL    HW120165   5.050   3.733   7.954
 6474SOL    HW220166   4.935   3.712   8.050
 6475SOL     OW20167   4.750   2.403   7.468
 6475SOL    HW120168   4.702   2.485   7.451
 6475SOL    HW220169   4.803   2.422   7.545
 6476SOL     OW20170   4.210   3.280   7.602
 6476SOL    HW120171   4.136   3.251   7.656
 6476SOL    HW220172   4.198   3.235   7.518
 6477SOL     OW20173   5.129   2.420   7.532
 6477SOL    HW120174   5.052   2.412   7.588
 6477SOL    HW220175   5.201   2.382   7.583
 6478SOL     OW20176   4.249   2.128   7.769
 6478SOL    HW120177   4.295   2.079   7.700
 6478SOL    HW220178   4.225   2.211   7.727
 6479SOL     OW20179   4.438   2.925   7.810
 6479SOL    HW120180   4.410   2.910   7.900
 6479SOL    HW220181   4.517   2.871   7.800
 6480SOL     OW20182   4.088   2.969   7.924
 6480SOL    HW120183   4.068   3.048   7.873
 6480SOL    HW220184   4.075   2.897   7.863
 6481SOL     OW20185   4.957   3.222   7.817
 6481SOL    HW120186   5.014   3.293   7.844
 6481SOL    HW220187   4.908   3.200   7.897
 6482SOL     OW20188   0.040   2.513   7.924
 6482SOL    HW120189   5.281   2.518   7.999
 6482SOL    HW220190   0.036   2.600   7.885
 6483SOL     OW20191   4.924   2.391   7.711
 6483SOL    HW120192   4.927   2.308   7.758
 6483SOL    HW220193   4.895   2.454   7.776
 6484SOL     OW20194   0.022   2.270   7.802
 6484SOL    HW120195   0.032   2.202   7.868
 6484SOL    HW220196   0.026   2.353   7.851
 6485SOL     OW20197   5.036   2.694   7.492
 6485SOL    HW120198   5.067   2.603   7.489
 6485SOL    HW220199   5.059   2.729   7.406
 6486SOL     OW20200   3.730   3.186   7.639
 6486SOL    HW120201   3.643   3.199   7.602
 6486SOL    HW220202   3.729   3.096   7.673
 6487SOL     OW20203   4.569   2.471   7.753
 6487SOL    HW120204   4.562   2.378   7.733
 6487SOL    HW220205   4.478   2.501   7.757
 6488SOL     OW20206   4.184   2.355   7.642
 6488SOL    HW120207   4.243   2.429   7.657
 6488SOL    HW220208   4.099   2.396   7.623
 6489SOL     OW20209   5.030   2.710   7.775
 6489SOL    HW120210   4.938   2.732   7.790
 6489SOL    HW220211   5.039   2.706   7.680
 6490SOL     OW20212   0.186   2.004   7.991
 6490SOL    HW120213   0.155   1.990   7.901
 6490SOL    HW220214   0.139   1.939   8.043
 6491SOL     OW20215   5.105   3.435   7.906
 6491SOL    HW120216   5.200   3.440   7.919
 6491SOL    HW220217   5.071   3.517   7.941
 6492SOL     OW20218   4.388   3.484   7.603
 6492SOL    HW120219   4.403   3.495   7.509
 6492SOL    HW220220   4.336   3.404   7.609
 6493SOL     OW20221   4.910   3.472   7.487
 6493SOL    HW120222   4.920   3.378   7.501
 6493SOL    HW220223   4.850   3.480   7.413
 6494SOL     OW20224   4.654   2.767   7.759
 6494SOL    HW120225   4.705   2.791   7.682
 6494SOL    HW220226   4.640   2.673   7.751
 6495SOL     OW20227   4.331   3.370   7.936
 6495SOL    HW120228   4.378   3.310   7.877
 6495SOL    HW220229   4.256   3.399   7.884
 6496SOL     OW20230   3.983   3.206   7.745
 6496SOL    HW120231   3.891   3.205   7.717
 6496SOL    HW220232   3.981   3.243   7.833
 6497SOL     OW20233   3.802   2.193   7.482
 6497SOL    HW120234   3.716   2.174   7.444
 6497SOL    HW220235   3.833   2.270   7.434
 6498SOL     OW20236   3.791   2.019   7.755
 6498SOL    HW120237   3.776   2.094   7.699
 6498SOL    HW220238   3.875   1.983   7.725
 6499SOL     OW20239   4.903   3.190   7.554
 6499SOL    HW120240   4.808   3.176   7.553
 6499SOL    HW220241   4.924   3.203   7.646
 6500SOL     OW20242   5.273   3.604   0.322
 6500SOL    HW120243   5.276   3.691   0.283
 6500SOL    HW220244   0.050   3.602   0.379
 6501SOL     OW20245   4.937   2.183   7.900
 6501SOL    HW120246   5.009   2.120   7.889
 6501SOL    HW220247   4.953   2.224   7.985
 6502SOL     OW20248   4.354   2.597   8.053
 6502SOL    HW120249   4.356   2.678   0.024
 6502SOL    HW220250   4.267   2.596   8.014
 6503SOL     OW20251   4.592   3.228   7.487
 6503SOL    HW120252   4.552   3.257   7.568
 6503SOL    HW220253   4.606   3.308   7.437
 6504SOL     OW20254   4.801   2.838   7.541
 6504SOL    HW120255   4.778   2.893   7.466
 6504SOL    HW220256   4.880   2.791   7.512
 6505SOL     OW20257   4.110   2.291   7.985
 6505SOL    HW120258   4.160   2.239   7.922
 6505SOL    HW220259   4.162   2.288   8.065
 6506SOL     OW20260   4.488   3.199   7.763
 6506SOL    HW120261   4.460   3.107   7.765
 6506SOL    HW220262   4.567   3.201   7.817
 6507SOL     OW20263   5.059   1.906   7.608
 6507SOL    HW120264   5.077   1.861   7.526
 6507SOL    HW220265   4.976   1.869   7.637
 6508SOL     OW20266   3.776   2.940   7.749
 6508SOL    HW120267   3.871   2.931   7.736
 6508SOL    HW220268   3.746   2.850   7.764
 6509SOL     OW20269   4.613   3.510   7.782
 6509SOL    HW120270   4.536   3.490   7.728
 6509SOL    HW220271   4.581   3.573   7.846
 6510SOL     OW20272   3.939   4.346   0.123
 6510SOL    HW120273   3.860   4.311   0.163
 6510SOL    HW220274   3.961   4.284   0.054
 6511SOL     OW20275   3.949   4.006   0.992
 6511SOL    HW120276   3.977   3.971   1.077
 6511SOL    HW220277   3.859   3.974   0.982
 6512SOL     OW20278   3.726   4.108   0.638
 6512SOL    HW120279   3.644   4.134   0.680
 6512SOL    HW220280   3.704   4.028   0.590
 6513SOL     OW20281   4.291   5.008   1.182
 6513SOL    HW120282   4.206   5.007   1.137
 6513SOL    HW220283   4.304   5.100   1.206
 6514SOL     OW20284   5.275   5.233   0.690
 6514SOL    HW120285   5.269   5.216   0.784
 6514SOL    HW220286   5.185   5.227   0.658
 6515SOL     OW20287   4.860   4.423   0.699
 6515SOL    HW120288   4.911   4.503   0.688
 6515SOL    HW220289   4.811   4.436   0.780
 6516SOL     OW20290   4.476   4.865   1.040
 6516SOL    HW120291   4.410   4.899   1.101
 6516SOL    HW220292   4.508   4.943   0.994
 6517SOL     OW20293   4.595   4.494   1.823
 6517SOL    HW120294   4.577   4.565   1.884
 6517SOL    HW220295   4.617   4.538   1.741
 6518SOL     OW20296   4.407   4.722   0.651
 6518SOL    HW120297   4.474   4.714   0.719
 6518SOL    HW220298   4.340   4.778   0.689
 6519SOL     OW20299   4.434   4.872   1.815
 6519SOL    HW120300   4.482   4.952   1.838
 6519SOL    HW220301   4.352   4.905   1.777
 6520SOL     OW20302   4.061   5.146   1.059
 6520SOL    HW120303   3.983   5.102   1.026
 6520SOL    HW220304   4.098   5.189   0.981
 6521SOL     OW20305   5.122   5.240   1.340
 6521SOL    HW120306   5.144   0.008   1.404
 6521SOL    HW220307   5.104   5.163   1.393
 6522SOL     OW20308   4.174   4.121   1.484
 6522SOL    HW120309   4.249   4.062   1.491
 6522SOL    HW220310   4.098   4.065   1.499
 6523SOL     OW20311   4.867   5.048   1.702
 6523SOL    HW120312   4.885   5.064   1.795
 6523SOL    HW220313   4.804   4.975   1.702
 6524SOL     OW20314   3.931   5.156   0.515
 6524SOL    HW120315   3.961   5.236   0.558
 6524SOL    HW220316   3.881   5.110   0.582
 6525SOL     OW20317   3.984   4.811   0.892
 6525SOL    HW120318   3.982   4.723   0.931
 6525SOL    HW220319   3.927   4.864   0.948
 6526SOL     OW20320   4.350   4.682   0.135
 6526SOL    HW120321   4.297   4.758   0.111
 6526SOL    HW220322   4.402   4.713   0.210
 6527SOL     OW20323   3.840   4.375   0.563
 6527SOL    HW120324   3.809   4.287   0.585
 6527SOL    HW220325   3.831   4.424   0.645
 6528SOL     OW20326   3.699   0.022   0.093
 6528SOL    HW120327   3.713   5.231   0.119
 6528SOL    HW220328   3.729   0.073   0.168
 6529SOL     OW20329   0.117   4.653   0.586
 6529SOL    HW120330   0.211   4.638   0.582
 6529SOL    HW220331   0.105   4.744   0.559
 6530SOL     OW20332   3.848   4.467   1.585
 6530SOL    HW120333   3.940   4.494   1.590
 6530SOL    HW220334   3.798   4.549   1.593
 6531SOL     OW20335   4.346   5.100   0.740
 6531SOL    HW120336   4.292   5.021   0.735
 6531SOL    HW220337   4.330   5.145   0.657
 6532SOL     OW20338   5.022   4.974   1.419
 6532SOL    HW120339   5.048   4.902   1.362
 6532SOL    HW220340   5.068   4.957   1.501
 6533SOL     OW20341   4.541   3.728   0.514
 6533SOL    HW120342   4.580   3.812   0.490
 6533SOL    HW220343   4.447   3.746   0.520
 6534SOL     OW20344   3.913   4.688   1.272
 6534SOL    HW120345   3.999   4.646   1.258
 6534SOL    HW220346   3.852   4.635   1.221
 6535SOL     OW20347   4.060   3.973   1.817
 6535SOL    HW120348   4.103   4.057   1.834
 6535SOL    HW220349   3.969   3.986   1.845
 6536SOL     OW20350   5.179   5.155   0.949
 6536SOL    HW120351   5.110   5.164   1.015
 6536SOL    HW220352   5.165   5.067   0.913
 6537SOL     OW20353   0.047   0.164   0.560
 6537SOL    HW120354   0.091   0.123   0.486
 6537SOL    HW220355   0.036   0.093   0.624
 6538SOL     OW20356   4.322   4.436   0.283
 6538SOL    HW120357   4.340   4.516   0.234
 6538SOL    HW220358   4.258   4.462   0.349
 6539SOL     OW20359   4.995   4.061   0.918
 6539SOL    HW120360   4.906   4.032   0.940
 6539SOL    HW220361   5.050   4.026   0.988
 6540SOL     OW20362   4.513   4.342   1.449
 6540SOL    HW120363   4.488   4.317   1.538
 6540SOL    HW220364   4.476   4.274   1.394
 6541SOL     OW20365   5.114   4.206   1.681
 6541SOL    HW120366   5.116   4.242   1.770
 6541SOL    HW220367   5.192   4.151   1.675
 6542SOL     OW20368   4.675   4.610   1.583
 6542SOL    HW120369   4.729   4.540   1.547
 6542SOL    HW220370   4.628   4.646   1.508
 6543SOL     OW20371   4.715   4.136   1.237
 6543SOL    HW120372   4.627   4.155   1.270
 6543SOL    HW220373   4.700   4.091   1.154
 6544SOL     OW20374   4.778   4.422   0.425
 6544SOL    HW120375   4.795   4.417   0.520
 6544SOL    HW220376   4.695   4.376   0.414
 6545SOL     OW20377   3.812   4.546   0.776
 6545SOL    HW120378   3.893   4.539   0.827
 6545SOL    HW220379   3.768   4.623   0.812
 6546SOL     OW20380   4.610   4.081   0.201
 6546SOL    HW120381   4.655   4.131   0.133
 6546SOL    HW220382   4.611   3.991   0.170
 6547SOL     OW20383   5.094   4.871   0.548
 6547SOL    HW120384   5.182   4.869   0.512
 6547SOL    HW220385   5.045   4.929   0.489
 6548SOL     OW20386   4.274   3.904   0.894
 6548SOL    HW120387   4.276   3.933   0.985
 6548SOL    HW220388   4.276   3.984   0.843
 6549SOL     OW20389   4.739   5.163   0.469
 6549SOL    HW120390   4.665   5.223   0.474
 6549SOL    HW220391   4.767   5.151   0.560
 6550SOL     OW20392   4.934   5.264   1.563
 6550SOL    HW120393   4.914   5.179   1.603
 6550SOL    HW220394   4.900   5.258   1.474
 6551SOL     OW20395   4.047   4.665   0.257
 6551SOL    HW120396   4.113   4.709   0.204
 6551SOL    HW220397   4.053   4.573   0.232
 6552SOL     OW20398   4.188   4.987   1.742
 6552SOL    HW120399   4.162   4.990   1.650
 6552SOL    HW220400   4.105   4.987   1.790
 6553SOL     OW20401   4.879   0.190   0.212
 6553SOL    HW120402   4.805   0.186   0.273
 6553SOL    HW220403   4.847   0.147   0.132
 6554SOL     OW20404   3.926   4.003   1.502
 6554SOL    HW120405   3.844   4.053   1.500
 6554SOL    HW220406   3.906   3.927   1.557
 6555SOL     OW20407   5.114   3.849   0.441
 6555SOL    HW120408   5.099   3.830   0.349
 6555SOL    HW220409   5.209   3.857   0.449
 6556SOL     OW20410   4.111   4.421   0.476
 6556SOL    HW120411   4.133   4.329   0.488
 6556SOL    HW220412   4.018   4.427   0.498
 6557SOL     OW20413   4.355   3.833   0.138
 6557SOL    HW120414   4.450   3.822   0.144
 6557SOL    HW220415   4.335   3.814   0.046
 6558SOL     OW20416   4.488   4.003   1.755
 6558SOL    HW120417   4.566   3.948   1.754
 6558SOL    HW220418   4.441   3.976   1.834
 6559SOL     OW20419   5.057   4.316   1.432
 6559SOL    HW120420   5.089   4.285   1.517
 6559SOL    HW220421   5.100   4.401   1.419
 6560SOL     OW20422   4.537   5.116   0.939
 6560SOL    HW120423   4.618   5.106   0.889
 6560SOL    HW220424   4.469   5.124   0.872
 6561SOL     OW20425   4.651   4.232   0.902
 6561SOL    HW120426   4.627   4.224   0.810
 6561SOL    HW220427   4.682   4.145   0.927
 6562SOL     OW20428   4.274   3.787   0.503
 6562SOL    HW120429   4.194   3.786   0.556
 6562SOL    HW220430   4.266   3.866   0.449
 6563SOL     OW20431   5.126   4.895   0.033
 6563SOL    HW120432   5.137   4.829   0.101
 6563SOL    HW220433   5.044   4.939   0.056
 6564SOL     OW20434   4.036   3.782   0.172
 6564SOL    HW120435   4.102   3.850   0.189
 6564SOL    HW220436   4.072   3.703   0.212
 6565SOL     OW20437   4.662   3.972   0.457
 6565SOL    HW120438   4.635   4.013   0.375
 6565SOL    HW220439   4.756   3.990   0.463
 6566SOL     OW20440   4.801   4.406   1.460
 6566SOL    HW120441   4.735   4.337   1.461
 6566SOL    HW220442   4.885   4.360   1.451
 6567SOL     OW20443   4.982   5.264   0.770
 6567SOL    HW120444   4.951   0.051   0.746
 6567SOL    HW220445   5.039   5.278   0.845
 6568SOL     OW20446   4.189   4.874   0.728
 6568SOL    HW120447   4.122   4.853   0.793
 6568SOL    HW220448   4.147   4.856   0.644
 6569SOL     OW20449   4.758   4.251   0.032
 6569SOL    HW120450   4.712   4.331   0.006
 6569SOL    HW220451   4.818   4.278   0.101
 6570SOL     OW20452   3.804   4.278   1.392
 6570SOL    HW120453   3.896   4.277   1.366
 6570SOL    HW220454   3.799   4.348   1.458
 6571SOL     OW20455   4.282   3.951   1.167
 6571SOL    HW120456   4.325   3.877   1.210
 6571SOL    HW220457   4.191   3.947   1.197
 6572SOL     OW20458   4.591   4.182   0.639
 6572SOL    HW120459   4.550   4.238   0.573
 6572SOL    HW220460   4.613   4.102   0.591
 6573SOL     OW20461   4.739   3.777   0.750
 6573SOL    HW120462   4.680   3.771   0.675
 6573SOL    HW220463   4.717   3.702   0.804
 6574SOL     OW20464   5.151   4.903   0.849
 6574SOL    HW120465   5.100   4.823   0.859
 6574SOL    HW220466   5.171   4.907   0.755
 6575SOL     OW20467   4.187   5.161   0.152
 6575SOL    HW120468   4.141   5.106   0.216
 6575SOL    HW220469   4.233   5.098   0.095
 6576SOL     OW20470   5.128   4.306   0.073
 6576SOL    HW120471   5.070   4.284   0.145
 6576SOL    HW220472   5.195   4.238   0.074
 6577SOL     OW20473   4.239   3.988   0.322
 6577SOL    HW120474   4.291   3.936   0.261
 6577SOL    HW220475   4.226   4.072   0.278
 6578SOL     OW20476   4.786   5.073   1.328
 6578SOL    HW120477   4.708   5.048   1.378
 6578SOL    HW220478   4.859   5.036   1.379
 6579SOL     OW20479   4.849   4.923   1.108
 6579SOL    HW120480   4.799   4.967   1.177
 6579SOL    HW220481   4.806   4.950   1.027
 6580SOL     OW20482   4.642   3.821   1.395
 6580SOL    HW120483   4.664   3.802   1.304
 6580SOL    HW220484   4.721   3.859   1.431
 6581SOL     OW20485   4.705   4.831   1.732
 6581SOL    HW120486   4.613   4.851   1.749
 6581SOL    HW220487   4.702   4.757   1.671
 6582SOL     OW20488   4.436   4.786   0.382
 6582SOL    HW120489   4.419   4.767   0.474
 6582SOL    HW220490   4.515   4.735   0.362
 6583SOL     OW20491   4.144   4.540   1.252
 6583SOL    HW120492   4.212   4.550   1.318
 6583SOL    HW220493   4.109   4.452   1.265
 6584SOL     OW20494   4.987   4.098   1.278
 6584SOL    HW120495   5.023   4.178   1.318
 6584SOL    HW220496   4.898   4.121   1.254
 6585SOL     OW20497   4.062   4.832   0.490
 6585SOL    HW120498   4.064   4.904   0.426
 6585SOL    HW220499   4.072   4.753   0.436
 6586SOL     OW20500   4.274   4.259   0.859
 6586SOL    HW120501   4.289   4.317   0.785
 6586SOL    HW220502   4.340   4.284   0.924
 6587SOL     OW20503   4.980   5.069   0.382
 6587SOL    HW120504   5.030   5.151   0.377
 6587SOL    HW220505   4.893   5.096   0.411
 6588SOL     OW20506   4.977   5.183   1.128
 6588SOL    HW120507   5.030   5.207   1.204
 6588SOL    HW220508   4.940   5.097   1.150
 6589SOL     OW20509   4.073   5.236   1.312
 6589SOL    HW120510   4.062   5.200   1.224
 6589SOL    HW220511   4.167   5.256   1.319
 6590SOL     OW20512   4.139   4.469   1.602
 6590SOL    HW120513   4.202   4.513   1.545
 6590SOL    HW220514   4.179   4.383   1.619
 6591SOL     OW20515   4.718   3.853   1.755
 6591SOL    HW120516   4.776   3.924   1.731
 6591SOL    HW220517   4.764   3.773   1.729
 6592SOL     OW20518   4.221   3.763   1.749
 6592SOL    HW120519   4.177   3.709   1.683
 6592SOL    HW220520   4.163   3.838   1.761
 6593SOL     OW20521   4.307   4.597   1.031
 6593SOL    HW120522   4.340   4.687   1.031
 6593SOL    HW220523   4.252   4.592   1.109
 6594SOL     OW20524   5.085   4.578   1.037
 6594SOL    HW120525   5.011   4.559   0.981
 6594SOL    HW220526   5.144   4.504   1.025
 6595SOL     OW20527   4.932   4.255   0.267
 6595SOL    HW120528   4.934   4.175   0.319
 6595SOL    HW220529   4.886   4.319   0.322
 6596SOL     OW20530   4.021   3.921   1.247
 6596SOL    HW120531   3.985   3.954   1.329
 6596SOL    HW220532   4.003   3.827   1.248
 6597SOL     OW20533   3.779   5.048   1.285
 6597SOL    HW120534   3.802   4.982   1.350
 6597SOL    HW220535   3.814   5.130   1.321
 6598SOL     OW20536   4.446   4.354   1.055
 6598SOL    HW120537   4.522   4.339   1.000
 6598SOL    HW220538   4.418   4.443   1.035
 6599SOL     OW20539   4.027   3.787   0.624
 6599SOL    HW120540   4.007   3.878   0.646
 6599SOL    HW220541   4.036   3.743   0.708
 6600SOL     OW20542   0.049   4.100   0.354
 6600SOL    HW120543   0.061   4.045   0.432
 6600SOL    HW220544   0.024   4.186   0.389
 6601SOL     OW20545   4.750   4.482   0.958
 6601SOL    HW120546   4.748   4.500   1.052
 6601SOL    HW220547   4.725   4.390   0.950
 6602SOL     OW20548   4.077   4.640   1.809
 6602SOL    HW120549   4.158   4.660   1.855
 6602SOL    HW220550   4.102   4.577   1.741
 6603SOL     OW20551   5.029   4.557   0.025
 6603SOL    HW120552   5.062   4.469   0.043
 6603SOL    HW220553   5.058   4.576   8.016
 6604SOL     OW20554   4.780   5.082   0.824
 6604SOL    HW120555   4.787   4.996   0.782
 6604SOL    HW220556   4.865   5.123   0.810
 6605SOL     OW20557   4.033   4.532   0.946
 6605SOL    HW120558   4.126   4.554   0.941
 6605SOL    HW220559   4.030   4.442   0.979
 6606SOL     OW20560   4.053   4.252   1.012
 6606SOL    HW120561   4.019   4.164   0.998
 6606SOL    HW220562   4.130   4.257   0.956
 6607SOL     OW20563   4.856   4.099   1.683
 6607SOL    HW120564   4.808   4.154   1.744
 6607SOL    HW220565   4.943   4.139   1.678
 6608SOL     OW20566   4.885   3.925   1.470
 6608SOL    HW120567   4.873   3.987   1.541
 6608SOL    HW220568   4.925   3.976   1.399
 6609SOL     OW20569   3.737   5.042   0.174
 6609SOL    HW120570   3.649   5.055   0.140
 6609SOL    HW220571   3.735   4.956   0.217
 6610SOL     OW20572   4.702   4.514   1.225
 6610SOL    HW120573   4.761   4.494   1.298
 6610SOL    HW220574   4.619   4.475   1.251
 6611SOL     OW20575   3.760   4.270   1.117
 6611SOL    HW120576   3.841   4.259   1.067
 6611SOL    HW220577   3.789   4.272   1.208
 6612SOL     OW20578   3.916   4.245   1.729
 6612SOL    HW120579   3.972   4.204   1.662
 6612SOL    HW220580   3.876   4.319   1.684
 6613SOL     OW20581   5.115   4.659   1.666
 6613SOL    HW120582   5.121   4.754   1.653
 6613SOL    HW220583   5.119   4.623   1.577
 6614SOL     OW20584   4.543   4.293   0.370
 6614SOL    HW120585   4.552   4.222   0.307
 6614SOL    HW220586   4.467   4.343   0.340
 6615SOL     OW20587   3.927   5.275   1.746
 6615SOL    HW120588   3.910   0.027   1.824
 6615SOL    HW220589   3.940   5.186   1.778
 6616SOL     OW20590   4.429   4.172   1.257
 6616SOL    HW120591   4.374   4.099   1.228
 6616SOL    HW220592   4.424   4.236   1.185
 6617SOL     OW20593   4.192   4.215   0.176
 6617SOL    HW120594   4.259   4.281   0.197
 6617SOL    HW220595   4.109   4.261   0.190
 6618SOL     OW20596   3.867   4.863   1.471
 6618SOL    HW120597   3.869   4.813   1.553
 6618SOL    HW220598   3.885   4.798   1.403
 6619SOL     OW20599   5.047   4.768   1.227
 6619SOL    HW120600   5.071   4.706   1.159
 6619SOL    HW220601   4.978   4.821   1.188
 6620SOL     OW20602   5.022   4.596   0.319
 6620SOL    HW120603   4.946   4.549   0.353
 6620SOL    HW220604   5.024   4.575   0.226
 6621SOL     OW20605   3.819   4.987   1.022
 6621SOL    HW120606   3.799   5.006   1.113
 6621SOL    HW220607   3.739   4.949   0.986
 6622SOL     OW20608   4.470   0.028   1.715
 6622SOL    HW120609   4.378   0.056   1.715
 6622SOL    HW220610   4.507   0.065   1.635
 6623SOL     OW20611   4.630   3.815   0.131
 6623SOL    HW120612   4.644   3.796   0.038
 6623SOL    HW220613   4.694   3.761   0.177
 6624SOL     OW20614   0.077   3.874   0.524
 6624SOL    HW120615   0.169   3.865   0.498
 6624SOL    HW220616   0.065   3.808   0.592
 6625SOL     OW20617   5.019   4.643   0.672
 6625SOL    HW120618   5.097   4.590   0.658
 6625SOL    HW220619   5.035   4.723   0.623
 6626SOL     OW20620   4.540   4.991   1.416
 6626SOL    HW120621   4.508   5.027   1.499
 6626SOL    HW220622   4.466   5.002   1.356
 6627SOL     OW20623   3.984   4.039   0.717
 6627SOL    HW120624   3.898   4.074   0.694
 6627SOL    HW220625   3.983   4.032   0.812
 6628SOL     OW20626   4.854   0.017   0.002
 6628SOL    HW120627   4.880   5.230   0.033
 6628SOL    HW220628   4.871   0.016   7.988
 6629SOL     OW20629   4.549   4.726   1.370
 6629SOL    HW120630   4.596   4.718   1.287
 6629SOL    HW220631   4.551   4.820   1.390
 6630SOL     OW20632   4.643   4.639   0.301
 6630SOL    HW120633   4.697   4.664   0.225
 6630SOL    HW220634   4.692   4.567   0.342
 6631SOL     OW20635   4.087   5.027   1.498
 6631SOL    HW120636   4.078   5.100   1.437
 6631SOL    HW220637   4.012   4.971   1.480
 6632SOL     OW20638   4.780   4.835   0.714
 6632SOL    HW120639   4.709   4.783   0.751
 6632SOL    HW220640   4.838   4.771   0.673
 6633SOL     OW20641   4.739   3.963   0.968
 6633SOL    HW120642   4.738   3.916   0.885
 6633SOL    HW220643   4.735   3.894   1.035
 6634SOL     OW20644   3.989   5.025   0.289
 6634SOL    HW120645   3.908   5.041   0.239
 6634SOL    HW220646   3.978   5.077   0.368
 6635SOL     OW20647   3.836   4.748   1.720
 6635SOL    HW120648   3.761   4.724   1.773
 6635SOL    HW220649   3.911   4.710   1.765
 6636SOL     OW20650   4.399   3.920   1.500
 6636SOL    HW120651   4.483   3.899   1.459
 6636SOL    HW220652   4.422   3.952   1.587
 6637SOL     OW20653   3.782   4.085   0.039
 6637SOL    HW120654   3.703   4.036   0.015
 6637SOL    HW220655   3.832   4.092   8.038
 6638SOL     OW20656   5.165   4.583   1.403
 6638SOL    HW120657   5.111   4.641   1.348
 6638SOL    HW220658   5.253   4.591   1.367
 6639SOL     OW20659   3.794   3.877   0.301
 6639SOL    HW120660   3.780   3.962   0.261
 6639SOL    HW220661   3.879   3.848   0.266
 6640SOL     OW20662   4.906   5.050   0.104
 6640SOL    HW120663   4.810   5.047   0.100
 6640SOL    HW220664   4.926   5.057   0.197
 6641SOL     OW20665   4.343   4.555   1.434
 6641SOL    HW120666   4.400   4.630   1.418
 6641SOL    HW220667   4.403   4.481   1.442
 6642SOL     OW20668   4.441   4.286   1.703
 6642SOL    HW120669   4.484   4.347   1.763
 6642SOL    HW220670   4.465   4.199   1.736
 6643SOL     OW20671   5.183   4.926   1.633
 6643SOL    HW120672   5.172   4.938   1.727
 6643SOL    HW220673   5.278   4.931   1.619
 6644SOL     OW20674   4.931   4.050   0.461
 6644SOL    HW120675   4.993   3.978   0.451
 6644SOL    HW220676   4.961   4.097   0.539
 6645SOL     OW20677   4.311   4.459   0.670
 6645SOL    HW120678   4.351   4.545   0.659
 6645SOL    HW220679   4.243   4.455   0.603
 6646SOL     OW20680   4.638   5.094   0.040
 6646SOL    HW120681   4.578   5.075   0.111
 6646SOL    HW220682   4.591   5.155   8.064
 6647SOL     OW20683   4.593   4.692   0.855
 6647SOL    HW120684   4.643   4.621   0.894
 6647SOL    HW220685   4.557   4.740   0.930
 6648SOL     OW20686   4.800   4.698   0.087
 6648SOL    HW120687   4.787   4.757   0.013
 6648SOL    HW220688   4.883   4.653   0.067
 6649SOL     OW20689   3.946   5.022   1.852
 6649SOL    HW120690   3.879   4.958   1.827
 6649SOL    HW220691   3.935   5.032   1.947
 6650SOL     OW20692   3.813   4.953   0.669
 6650SOL    HW120693   3.811   4.902   0.751
 6650SOL    HW220694   3.881   4.910   0.617
 6651SOL     OW20695   4.397   5.099   1.609
 6651SOL    HW120696   4.319   5.072   1.657
 6651SOL    HW220697   4.429   5.176   1.657
 6652SOL     OW20698   4.147   4.160   0.523
 6652SOL    HW120699   4.182   4.089   0.470
 6652SOL    HW220700   4.103   4.116   0.596
 6653SOL     OW20701   0.124   5.231   1.050
 6653SOL    HW120702   0.039   5.206   1.012
 6653SOL    HW220703   0.105   5.242   1.143
 6654SOL     OW20704   4.056   4.281   1.292
 6654SOL    HW120705   4.111   4.225   1.347
 6654SOL    HW220706   4.075   4.252   1.203
 6655SOL     OW20707   5.146   3.942   1.115
 6655SOL    HW120708   5.192   3.878   1.170
 6655SOL    HW220709   5.100   3.999   1.177
 6656SOL     OW20710   4.729   3.741   1.140
 6656SOL    HW120711   4.676   3.673   1.098
 6656SOL    HW220712   4.817   3.704   1.146
 6657SOL     OW20713   4.520   5.038   0.281
 6657SOL    HW120714   4.470   4.961   0.309
 6657SOL    HW220715   4.579   5.056   0.354
 6658SOL     OW20716   4.347   5.300   1.294
 6658SOL    HW120717   4.352   0.053   1.373
 6658SOL    HW220718   4.438   5.281   1.272
 6659SOL     OW20719   5.049   3.784   0.189
 6659SOL    HW120720   5.090   3.736   0.117
 6659SOL    HW220721   4.969   3.734   0.209
 6660SOL     OW20722   5.027   4.186   0.682
 6660SOL    HW120723   4.973   4.265   0.686
 6660SOL    HW220724   5.014   4.144   0.767
 6661SOL     OW20725   5.299   3.951   0.879
 6661SOL    HW120726   5.238   3.934   0.951
 6661SOL    HW220727   5.271   4.035   0.843
 6662SOL     OW20728   3.766   4.790   0.305
 6662SOL    HW120729   3.861   4.793   0.311
 6662SOL    HW220730   3.742   4.705   0.343
 6663SOL     OW20731   3.952   4.347   1.987
 6663SOL    HW120732   3.862   4.345   2.022
 6663SOL    HW220733   3.942   4.323   1.895
 6664SOL     OW20734   3.949   4.006   2.854
 6664SOL    HW120735   3.977   3.971   2.938
 6664SOL    HW220736   3.859   3.974   2.844
 6665SOL     OW20737   3.726   4.107   2.500
 6665SOL    HW120738   3.644   4.133   2.542
 6665SOL    HW220739   3.705   4.028   2.451
 6666SOL     OW20740   4.291   5.008   3.044
 6666SOL    HW120741   4.206   5.007   2.999
 6666SOL    HW220742   4.304   5.100   3.068
 6667SOL     OW20743   5.274   5.231   2.553
 6667SOL    HW120744   5.271   5.216   2.647
 6667SOL    HW220745   5.182   5.231   2.525
 6668SOL     OW20746   4.860   4.423   2.560
 6668SOL    HW120747   4.910   4.503   2.550
 6668SOL    HW220748   4.811   4.434   2.641
 6669SOL     OW20749   4.477   4.866   2.902
 6669SOL    HW120750   4.410   4.899   2.963
 6669SOL    HW220751   4.508   4.944   2.856
 6670SOL     OW20752   4.595   4.494   3.685
 6670SOL    HW120753   4.577   4.565   3.746
 6670SOL    HW220754   4.617   4.538   3.603
 6671SOL     OW20755   4.410   4.724   2.509
 6671SOL    HW120756   4.475   4.715   2.578
 6671SOL    HW220757   4.341   4.778   2.547
 6672SOL     OW20758   4.434   4.873   3.677
 6672SOL    HW120759   4.482   4.952   3.700
 6672SOL    HW220760   4.352   4.905   3.639
 6673SOL     OW20761   4.061   5.146   2.921
 6673SOL    HW120762   3.983   5.101   2.889
 6673SOL    HW220763   4.098   5.189   2.843
 6674SOL     OW20764   5.124   5.238   3.202
 6674SOL    HW120765   5.143   0.007   3.266
 6674SOL    HW220766   5.103   5.162   3.256
 6675SOL     OW20767   4.174   4.122   3.347
 6675SOL    HW120768   4.249   4.063   3.353
 6675SOL    HW220769   4.098   4.065   3.361
 6676SOL     OW20770   4.866   5.048   3.564
 6676SOL    HW120771   4.885   5.065   3.657
 6676SOL    HW220772   4.804   4.976   3.564
 6677SOL     OW20773   3.933   5.158   2.383
 6677SOL    HW120774   3.962   5.237   2.428
 6677SOL    HW220775   3.883   5.110   2.449
 6678SOL     OW20776   3.985   4.811   2.754
 6678SOL    HW120777   3.982   4.723   2.792
 6678SOL    HW220778   3.928   4.864   2.810
 6679SOL     OW20779   4.307   4.706   1.998
 6679SOL    HW120780   4.354   4.754   1.930
 6679SOL    HW220781   4.345   4.737   2.080
 6680SOL     OW20782   3.840   4.378   2.422
 6680SOL    HW120783   3.811   4.289   2.443
 6680SOL    HW220784   3.832   4.426   2.504
 6681SOL     OW20785   3.710   0.012   1.959
 6681SOL    HW120786   3.725   5.223   1.990
 6681SOL    HW220787   3.731   0.068   2.033
 6682SOL     OW20788   0.112   4.656   2.426
 6682SOL    HW120789   0.201   4.626   2.444
 6682SOL    HW220790   0.121   4.751   2.415
 6683SOL     OW20791   3.848   4.467   3.447
 6683SOL    HW120792   3.940   4.494   3.452
 6683SOL    HW220793   3.798   4.549   3.455
 6684SOL     OW20794   4.347   5.099   2.601
 6684SOL    HW120795   4.293   5.020   2.598
 6684SOL    HW220796   4.329   5.144   2.518
 6685SOL     OW20797   5.022   4.974   3.281
 6685SOL    HW120798   5.048   4.901   3.224
 6685SOL    HW220799   5.068   4.957   3.363
 6686SOL     OW20800   4.540   3.726   2.372
 6686SOL    HW120801   4.581   3.810   2.351
 6686SOL    HW220802   4.447   3.745   2.380
 6687SOL     OW20803   3.913   4.688   3.134
 6687SOL    HW120804   3.998   4.646   3.120
 6687SOL    HW220805   3.852   4.636   3.082
 6688SOL     OW20806   4.060   3.973   3.679
 6688SOL    HW120807   4.103   4.057   3.696
 6688SOL    HW220808   3.969   3.987   3.707
 6689SOL     OW20809   5.179   5.154   2.812
 6689SOL    HW120810   5.110   5.164   2.878
 6689SOL    HW220811   5.164   5.067   2.776
 6690SOL     OW20812   0.042   0.165   2.425
 6690SOL    HW120813   0.085   0.127   2.349
 6690SOL    HW220814   0.031   0.092   2.486
 6691SOL     OW20815   4.320   4.444   2.130
 6691SOL    HW120816   4.324   4.526   2.081
 6691SOL    HW220817   4.255   4.460   2.198
 6692SOL     OW20818   4.994   4.061   2.780
 6692SOL    HW120819   4.906   4.032   2.802
 6692SOL    HW220820   5.049   4.027   2.850
 6693SOL     OW20821   4.514   4.342   3.311
 6693SOL    HW120822   4.488   4.317   3.400
 6693SOL    HW220823   4.476   4.274   3.256
 6694SOL     OW20824   5.114   4.206   3.543
 6694SOL    HW120825   5.116   4.242   3.632
 6694SOL    HW220826   5.192   4.150   3.537
 6695SOL     OW20827   4.675   4.610   3.445
 6695SOL    HW120828   4.729   4.540   3.409
 6695SOL    HW220829   4.627   4.645   3.370
 6696SOL     OW20830   4.715   4.136   3.099
 6696SOL    HW120831   4.627   4.155   3.132
 6696SOL    HW220832   4.700   4.091   3.016
 6697SOL     OW20833   4.776   4.422   2.287
 6697SOL    HW120834   4.793   4.416   2.381
 6697SOL    HW220835   4.693   4.376   2.274
 6698SOL     OW20836   3.811   4.545   2.639
 6698SOL    HW120837   3.892   4.538   2.690
 6698SOL    HW220838   3.768   4.623   2.674
 6699SOL     OW20839   4.620   4.073   2.056
 6699SOL    HW120840   4.659   4.135   1.994
 6699SOL    HW220841   4.634   3.987   2.016
 6700SOL     OW20842   5.094   4.871   2.410
 6700SOL    HW120843   5.185   4.873   2.380
 6700SOL    HW220844   5.048   4.929   2.350
 6701SOL     OW20845   4.274   3.904   2.756
 6701SOL    HW120846   4.276   3.934   2.847
 6701SOL    HW220847   4.275   3.984   2.704
 6702SOL     OW20848   4.743   5.165   2.334
 6702SOL    HW120849   4.667   5.224   2.331
 6702SOL    HW220850   4.761   5.154   2.427
 6703SOL     OW20851   4.937   5.263   3.424
 6703SOL    HW120852   4.915   5.179   3.465
 6703SOL    HW220853   4.898   5.258   3.336
 6704SOL     OW20854   4.043   4.681   2.113
 6704SOL    HW120855   4.125   4.700   2.069
 6704SOL    HW220856   4.013   4.599   2.074
 6705SOL     OW20857   4.188   4.987   3.604
 6705SOL    HW120858   4.162   4.990   3.512
 6705SOL    HW220859   4.105   4.987   3.652
 6706SOL     OW20860   4.789   0.170   2.073
 6706SOL    HW120861   4.803   0.116   2.150
 6706SOL    HW220862   4.864   0.151   2.016
 6707SOL     OW20863   3.926   4.002   3.364
 6707SOL    HW120864   3.844   4.053   3.363
 6707SOL    HW220865   3.906   3.926   3.418
 6708SOL     OW20866   5.118   3.831   2.286
 6708SOL    HW120867   5.099   3.813   2.194
 6708SOL    HW220868   5.212   3.847   2.288
 6709SOL     OW20869   4.119   4.419   2.337
 6709SOL    HW120870   4.138   4.326   2.349
 6709SOL    HW220871   4.025   4.427   2.354
 6710SOL     OW20872   4.363   3.845   1.966
 6710SOL    HW120873   4.429   3.777   1.980
 6710SOL    HW220874   4.312   3.814   1.891
 6711SOL     OW20875   4.488   4.003   3.617
 6711SOL    HW120876   4.566   3.948   3.616
 6711SOL    HW220877   4.441   3.976   3.696
 6712SOL     OW20878   5.057   4.316   3.294
 6712SOL    HW120879   5.089   4.285   3.379
 6712SOL    HW220880   5.100   4.401   3.282
 6713SOL     OW20881   4.538   5.117   2.800
 6713SOL    HW120882   4.618   5.106   2.749
 6713SOL    HW220883   4.469   5.124   2.734
 6714SOL     OW20884   4.652   4.233   2.764
 6714SOL    HW120885   4.628   4.224   2.672
 6714SOL    HW220886   4.682   4.146   2.789
 6715SOL     OW20887   4.274   3.787   2.362
 6715SOL    HW120888   4.194   3.787   2.414
 6715SOL    HW220889   4.267   3.865   2.307
 6716SOL     OW20890   5.133   4.905   1.905
 6716SOL    HW120891   5.136   4.824   1.957
 6716SOL    HW220892   5.045   4.939   1.920
 6717SOL     OW20893   4.015   3.772   2.047
 6717SOL    HW120894   4.074   3.836   2.007
 6717SOL    HW220895   4.074   3.709   2.089
 6718SOL     OW20896   4.663   3.972   2.320
 6718SOL    HW120897   4.637   4.011   2.236
 6718SOL    HW220898   4.757   3.985   2.324
 6719SOL     OW20899   4.801   4.406   3.322
 6719SOL    HW120900   4.735   4.337   3.323
 6719SOL    HW220901   4.884   4.360   3.313
 6720SOL     OW20902   4.986   5.265   2.629
 6720SOL    HW120903   4.944   0.050   2.614
 6720SOL    HW220904   5.039   5.277   2.707
 6721SOL     OW20905   4.190   4.872   2.589
 6721SOL    HW120906   4.123   4.852   2.654
 6721SOL    HW220907   4.149   4.856   2.505
 6722SOL     OW20908   4.747   4.265   1.886
 6722SOL    HW120909   4.703   4.347   1.866
 6722SOL    HW220910   4.808   4.287   1.956
 6723SOL     OW20911   3.804   4.278   3.255
 6723SOL    HW120912   3.896   4.277   3.228
 6723SOL    HW220913   3.799   4.348   3.320
 6724SOL     OW20914   4.282   3.951   3.029
 6724SOL    HW120915   4.324   3.876   3.071
 6724SOL    HW220916   4.191   3.947   3.059
 6725SOL     OW20917   4.592   4.183   2.501
 6725SOL    HW120918   4.546   4.238   2.437
 6725SOL    HW220919   4.613   4.103   2.452
 6726SOL     OW20920   4.739   3.778   2.612
 6726SOL    HW120921   4.681   3.771   2.536
 6726SOL    HW220922   4.717   3.702   2.667
 6727SOL     OW20923   5.151   4.902   2.711
 6727SOL    HW120924   5.099   4.823   2.723
 6727SOL    HW220925   5.167   4.906   2.617
 6728SOL     OW20926   4.200   5.149   2.011
 6728SOL    HW120927   4.141   5.096   2.064
 6728SOL    HW220928   4.211   5.099   1.930
 6729SOL     OW20929   5.128   4.284   1.944
 6729SOL    HW120930   5.054   4.275   2.003
 6729SOL    HW220931   5.203   4.248   1.992
 6730SOL     OW20932   4.249   3.987   2.178
 6730SOL    HW120933   4.296   3.940   2.108
 6730SOL    HW220934   4.225   4.071   2.139
 6731SOL     OW20935   4.786   5.073   3.190
 6731SOL    HW120936   4.708   5.049   3.240
 6731SOL    HW220937   4.858   5.037   3.241
 6732SOL     OW20938   4.850   4.923   2.970
 6732SOL    HW120939   4.800   4.966   3.040
 6732SOL    HW220940   4.805   4.948   2.889
 6733SOL     OW20941   4.642   3.821   3.257
 6733SOL    HW120942   4.664   3.802   3.166
 6733SOL    HW220943   4.721   3.859   3.294
 6734SOL     OW20944   4.705   4.832   3.593
 6734SOL    HW120945   4.613   4.851   3.611
 6734SOL    HW220946   4.702   4.757   3.533
 6735SOL     OW20947   4.429   4.783   2.233
 6735SOL    HW120948   4.416   4.766   2.327
 6735SOL    HW220949   4.506   4.732   2.210
 6736SOL     OW20950   4.144   4.540   3.114
 6736SOL    HW120951   4.212   4.549   3.180
 6736SOL    HW220952   4.109   4.452   3.127
 6737SOL     OW20953   4.987   4.099   3.140
 6737SOL    HW120954   5.022   4.178   3.181
 6737SOL    HW220955   4.897   4.121   3.116
 6738SOL     OW20956   4.066   4.835   2.350
 6738SOL    HW120957   4.068   4.908   2.288
 6738SOL    HW220958   4.066   4.757   2.294
 6739SOL     OW20959   4.274   4.259   2.722
 6739SOL    HW120960   4.289   4.317   2.647
 6739SOL    HW220961   4.341   4.285   2.786
 6740SOL     OW20962   4.985   5.079   2.249
 6740SOL    HW120963   5.037   5.155   2.273
 6740SOL    HW220964   4.896   5.101   2.277
 6741SOL     OW20965   4.977   5.183   2.990
 6741SOL    HW120966   5.030   5.206   3.066
 6741SOL    HW220967   4.940   5.097   3.013
 6742SOL     OW20968   4.073   5.236   3.174
 6742SOL    HW120969   4.062   5.200   3.086
 6742SOL    HW220970   4.166   5.256   3.180
 6743SOL     OW20971   4.139   4.469   3.464
 6743SOL    HW120972   4.202   4.513   3.407
 6743SOL    HW220973   4.178   4.383   3.480
 6744SOL     OW20974   4.718   3.853   3.617
 6744SOL    HW120975   4.776   3.924   3.593
 6744SOL    HW220976   4.764   3.773   3.591
 6745SOL     OW20977   4.221   3.763   3.611
 6745SOL    HW120978   4.177   3.709   3.546
 6745SOL    HW220979   4.163   3.838   3.623
 6746SOL     OW20980   4.308   4.597   2.893
 6746SOL    HW120981   4.339   4.687   2.893
 6746SOL    HW220982   4.251   4.591   2.971
 6747SOL     OW20983   5.086   4.580   2.896
 6747SOL    HW120984   5.009   4.558   2.845
 6747SOL    HW220985   5.142   4.502   2.890
 6748SOL     OW20986   4.925   4.254   2.124
 6748SOL    HW120987   4.933   4.175   2.177
 6748SOL    HW220988   4.882   4.318   2.182
 6749SOL     OW20989   4.021   3.921   3.109
 6749SOL    HW120990   3.985   3.953   3.191
 6749SOL    HW220991   4.003   3.827   3.109
 6750SOL     OW20992   3.779   5.048   3.147
 6750SOL    HW120993   3.801   4.982   3.212
 6750SOL    HW220994   3.813   5.130   3.183
 6751SOL     OW20995   4.446   4.354   2.918
 6751SOL    HW120996   4.522   4.339   2.862
 6751SOL    HW220997   4.418   4.443   2.898
 6752SOL     OW20998   4.028   3.787   2.486
 6752SOL    HW120999   4.008   3.878   2.508
 6752SOL    HW221000   4.036   3.743   2.570
 6753SOL     OW21001   0.033   4.122   2.219
 6753SOL    HW121002   0.050   4.046   2.274
 6753SOL    HW221003   0.026   4.195   2.281
 6754SOL     OW21004   4.751   4.482   2.820
 6754SOL    HW121005   4.748   4.500   2.914
 6754SOL    HW221006   4.726   4.390   2.812
 6755SOL     OW21007   4.077   4.640   3.671
 6755SOL    HW121008   4.158   4.660   3.717
 6755SOL    HW221009   4.102   4.577   3.603
 6756SOL     OW21010   5.028   4.552   1.898
 6756SOL    HW121011   5.066   4.464   1.901
 6756SOL    HW221012   5.055   4.587   1.814
 6757SOL     OW21013   4.780   5.083   2.683
 6757SOL    HW121014   4.787   4.996   2.643
 6757SOL    HW221015   4.866   5.122   2.671
 6758SOL     OW21016   4.032   4.532   2.809
 6758SOL    HW121017   4.126   4.553   2.802
 6758SOL    HW221018   4.030   4.442   2.841
 6759SOL     OW21019   4.054   4.252   2.875
 6759SOL    HW121020   4.019   4.164   2.860
 6759SOL    HW221021   4.130   4.257   2.818
 6760SOL     OW21022   4.856   4.099   3.544
 6760SOL    HW121023   4.808   4.154   3.606
 6760SOL    HW221024   4.943   4.139   3.540
 6761SOL     OW21025   4.885   3.925   3.332
 6761SOL    HW121026   4.873   3.987   3.403
 6761SOL    HW221027   4.925   3.976   3.262
 6762SOL     OW21028   3.730   5.038   2.053
 6762SOL    HW121029   3.639   5.056   2.028
 6762SOL    HW221030   3.728   4.950   2.090
 6763SOL     OW21031   4.703   4.514   3.087
 6763SOL    HW121032   4.761   4.494   3.160
 6763SOL    HW221033   4.619   4.475   3.111
 6764SOL     OW21034   3.760   4.269   2.979
 6764SOL    HW121035   3.840   4.259   2.928
 6764SOL    HW221036   3.789   4.272   3.070
 6765SOL     OW21037   3.916   4.244   3.591
 6765SOL    HW121038   3.972   4.204   3.525
 6765SOL    HW221039   3.876   4.319   3.546
 6766SOL     OW21040   5.115   4.659   3.528
 6766SOL    HW121041   5.121   4.754   3.515
 6766SOL    HW221042   5.119   4.623   3.439
 6767SOL     OW21043   4.541   4.294   2.224
 6767SOL    HW121044   4.544   4.219   2.164
 6767SOL    HW221045   4.467   4.346   2.193
 6768SOL     OW21046   3.927   5.275   3.608
 6768SOL    HW121047   3.910   0.027   3.686
 6768SOL    HW221048   3.940   5.186   3.640
 6769SOL     OW21049   4.429   4.172   3.119
 6769SOL    HW121050   4.374   4.099   3.090
 6769SOL    HW221051   4.424   4.236   3.047
 6770SOL     OW21052   4.187   4.216   2.047
 6770SOL    HW121053   4.245   4.288   2.070
 6770SOL    HW221054   4.101   4.258   2.035
 6771SOL     OW21055   3.867   4.863   3.333
 6771SOL    HW121056   3.869   4.813   3.415
 6771SOL    HW221057   3.885   4.798   3.265
 6772SOL     OW21058   5.048   4.768   3.089
 6772SOL    HW121059   5.072   4.706   3.020
 6772SOL    HW221060   4.978   4.821   3.050
 6773SOL     OW21061   5.035   4.585   2.178
 6773SOL    HW121062   4.954   4.551   2.216
 6773SOL    HW221063   5.024   4.576   2.084
 6774SOL     OW21064   3.820   4.987   2.884
 6774SOL    HW121065   3.798   5.006   2.975
 6774SOL    HW221066   3.740   4.949   2.848
 6775SOL     OW21067   4.470   0.028   3.577
 6775SOL    HW121068   4.378   0.056   3.577
 6775SOL    HW221069   4.506   0.065   3.497
 6776SOL     OW21070   0.076   3.887   2.395
 6776SOL    HW121071   0.157   3.869   2.347
 6776SOL    HW221072   0.063   3.809   2.449
 6777SOL     OW21073   5.018   4.643   2.533
 6777SOL    HW121074   5.096   4.589   2.521
 6777SOL    HW221075   5.036   4.723   2.484
 6778SOL     OW21076   4.540   4.992   3.278
 6778SOL    HW121077   4.508   5.027   3.361
 6778SOL    HW221078   4.466   5.002   3.218
 6779SOL     OW21079   3.984   4.038   2.578
 6779SOL    HW121080   3.899   4.074   2.555
 6779SOL    HW221081   3.982   4.032   2.674
 6780SOL     OW21082   4.549   4.726   3.232
 6780SOL    HW121083   4.596   4.718   3.149
 6780SOL    HW221084   4.551   4.820   3.252
 6781SOL     OW21085   4.640   4.636   2.153
 6781SOL    HW121086   4.702   4.669   2.088
 6781SOL    HW221087   4.688   4.566   2.198
 6782SOL     OW21088   4.088   5.027   3.359
 6782SOL    HW121089   4.078   5.100   3.299
 6782SOL    HW221090   4.012   4.971   3.342
 6783SOL     OW21091   4.781   4.835   2.576
 6783SOL    HW121092   4.708   4.784   2.613
 6783SOL    HW221093   4.839   4.769   2.538
 6784SOL     OW21094   4.739   3.963   2.831
 6784SOL    HW121095   4.737   3.916   2.747
 6784SOL    HW221096   4.735   3.894   2.897
 6785SOL     OW21097   3.982   5.049   2.147
 6785SOL    HW121098   3.890   5.050   2.119
 6785SOL    HW221099   3.983   5.095   2.231
 6786SOL     OW21100   3.836   4.748   3.581
 6786SOL    HW121101   3.761   4.724   3.635
 6786SOL    HW221102   3.911   4.710   3.627
 6787SOL     OW21103   4.399   3.920   3.362
 6787SOL    HW121104   4.483   3.899   3.321
 6787SOL    HW221105   4.422   3.952   3.449
 6788SOL     OW21106   3.803   4.056   1.896
 6788SOL    HW121107   3.716   4.037   1.861
 6788SOL    HW221108   3.833   4.131   1.846
 6789SOL     OW21109   5.164   4.583   3.265
 6789SOL    HW121110   5.112   4.641   3.210
 6789SOL    HW221111   5.253   4.591   3.229
 6790SOL     OW21112   3.790   3.879   2.169
 6790SOL    HW121113   3.777   3.959   2.118
 6790SOL    HW221114   3.875   3.846   2.140
 6791SOL     OW21115   4.907   5.058   1.983
 6791SOL    HW121116   4.813   5.041   1.983
 6791SOL    HW221117   4.932   5.055   2.075
 6792SOL     OW21118   4.343   4.555   3.296
 6792SOL    HW121119   4.400   4.630   3.280
 6792SOL    HW221120   4.403   4.481   3.304
 6793SOL     OW21121   4.441   4.286   3.565
 6793SOL    HW121122   4.484   4.347   3.625
 6793SOL    HW221123   4.464   4.199   3.598
 6794SOL     OW21124   5.183   4.926   3.495
 6794SOL    HW121125   5.171   4.938   3.589
 6794SOL    HW221126   5.278   4.930   3.482
 6795SOL     OW21127   4.938   4.044   2.317
 6795SOL    HW121128   4.999   3.972   2.305
 6795SOL    HW221129   4.969   4.089   2.396
 6796SOL     OW21130   4.313   4.460   2.533
 6796SOL    HW121131   4.352   4.546   2.519
 6796SOL    HW221132   4.247   4.452   2.464
 6797SOL     OW21133   4.582   5.094   1.883
 6797SOL    HW121134   4.558   5.097   1.975
 6797SOL    HW221135   4.583   5.186   1.855
 6798SOL     OW21136   4.593   4.693   2.717
 6798SOL    HW121137   4.642   4.621   2.756
 6798SOL    HW221138   4.556   4.740   2.791
 6799SOL     OW21139   4.809   4.712   1.955
 6799SOL    HW121140   4.781   4.760   1.877
 6799SOL    HW221141   4.882   4.658   1.925
 6800SOL     OW21142   3.946   5.022   3.714
 6800SOL    HW121143   3.879   4.958   3.689
 6800SOL    HW221144   3.934   5.032   3.809
 6801SOL     OW21145   3.811   4.954   2.532
 6801SOL    HW121146   3.812   4.902   2.613
 6801SOL    HW221147   3.875   4.910   2.475
 6802SOL     OW21148   4.397   5.099   3.471
 6802SOL    HW121149   4.319   5.071   3.519
 6802SOL    HW221150   4.429   5.176   3.519
 6803SOL     OW21151   4.153   4.158   2.388
 6803SOL    HW121152   4.183   4.087   2.331
 6803SOL    HW221153   4.104   4.113   2.457
 6804SOL     OW21154   0.124   5.231   2.911
 6804SOL    HW121155   0.039   5.205   2.874
 6804SOL    HW221156   0.107   5.245   3.004
 6805SOL     OW21157   4.055   4.281   3.154
 6805SOL    HW121158   4.111   4.225   3.209
 6805SOL    HW221159   4.074   4.252   3.065
 6806SOL     OW21160   5.145   3.943   2.977
 6806SOL    HW121161   5.191   3.879   3.031
 6806SOL    HW221162   5.098   3.998   3.040
 6807SOL     OW21163   4.729   3.741   3.002
 6807SOL    HW121164   4.676   3.674   2.960
 6807SOL    HW221165   4.817   3.703   3.007
 6808SOL     OW21166   4.528   5.046   2.146
 6808SOL    HW121167   4.471   4.971   2.168
 6808SOL    HW221168   4.584   5.056   2.223
 6809SOL     OW21169   4.346   5.300   3.156
 6809SOL    HW121170   4.351   0.053   3.235
 6809SOL    HW221171   4.437   5.281   3.134
 6810SOL     OW21172   5.055   3.769   2.029
 6810SOL    HW121173   5.077   3.728   1.945
 6810SOL    HW221174   4.970   3.732   2.053
 6811SOL     OW21175   5.026   4.182   2.542
 6811SOL    HW121176   4.973   4.261   2.546
 6811SOL    HW221177   5.015   4.141   2.628
 6812SOL     OW21178   0.002   3.951   2.745
 6812SOL    HW121179   5.237   3.938   2.814
 6812SOL    HW221180   5.273   4.029   2.699
 6813SOL     OW21181   3.766   4.792   2.170
 6813SOL    HW121182   3.860   4.786   2.154
 6813SOL    HW221183   3.740   4.703   2.192
 6814SOL     OW21184   3.952   4.347   3.849
 6814SOL    HW121185   3.862   4.345   3.884
 6814SOL    HW221186   3.942   4.323   3.757
 6815SOL     OW21187   3.949   4.006   4.716
 6815SOL    HW121188   3.977   3.971   4.801
 6815SOL    HW221189   3.859   3.974   4.706
 6816SOL     OW21190   3.727   4.107   4.362
 6816SOL    HW121191   3.644   4.133   4.404
 6816SOL    HW221192   3.705   4.029   4.312
 6817SOL     OW21193   4.291   5.008   4.906
 6817SOL    HW121194   4.206   5.007   4.862
 6817SOL    HW221195   4.304   5.100   4.930
 6818SOL     OW21196   5.274   5.231   4.415
 6818SOL    HW121197   5.271   5.216   4.509
 6818SOL    HW221198   5.182   5.231   4.387
 6819SOL     OW21199   4.860   4.423   4.422
 6819SOL    HW121200   4.910   4.503   4.412
 6819SOL    HW221201   4.811   4.434   4.503
 6820SOL     OW21202   4.477   4.866   4.764
 6820SOL    HW121203   4.410   4.899   4.825
 6820SOL    HW221204   4.508   4.944   4.718
 6821SOL     OW21205   4.595   4.494   5.547
 6821SOL    HW121206   4.577   4.565   5.608
 6821SOL    HW221207   4.617   4.538   5.465
 6822SOL     OW21208   4.410   4.724   4.371
 6822SOL    HW121209   4.475   4.715   4.440
 6822SOL    HW221210   4.341   4.778   4.409
 6823SOL     OW21211   4.434   4.873   5.539
 6823SOL    HW121212   4.482   4.952   5.562
 6823SOL    HW221213   4.352   4.905   5.501
 6824SOL     OW21214   4.061   5.146   4.783
 6824SOL    HW121215   3.983   5.101   4.751
 6824SOL    HW221216   4.098   5.189   4.705
 6825SOL     OW21217   5.124   5.238   5.064
 6825SOL    HW121218   5.143   0.007   5.128
 6825SOL    HW221219   5.103   5.162   5.118
 6826SOL     OW21220   4.174   4.121   5.208
 6826SOL    HW121221   4.249   4.062   5.215
 6826SOL    HW221222   4.098   4.065   5.223
 6827SOL     OW21223   4.866   5.048   5.426
 6827SOL    HW121224   4.885   5.065   5.519
 6827SOL    HW221225   4.804   4.976   5.426
 6828SOL     OW21226   3.933   5.158   4.245
 6828SOL    HW121227   3.962   5.237   4.290
 6828SOL    HW221228   3.883   5.110   4.311
 6829SOL     OW21229   3.985   4.811   4.616
 6829SOL    HW121230   3.982   4.723   4.654
 6829SOL    HW221231   3.928   4.864   4.672
 6830SOL     OW21232   4.307   4.706   3.860
 6830SOL    HW121233   4.354   4.754   3.792
 6830SOL    HW221234   4.345   4.737   3.942
 6831SOL     OW21235   3.840   4.378   4.284
 6831SOL    HW121236   3.811   4.289   4.305
 6831SOL    HW221237   3.832   4.426   4.366
 6832SOL     OW21238   3.710   0.012   3.821
 6832SOL    HW121239   3.725   5.223   3.853
 6832SOL    HW221240   3.731   0.068   3.895
 6833SOL     OW21241   0.112   4.656   4.287
 6833SOL    HW121242   0.200   4.626   4.306
 6833SOL    HW221243   0.121   4.751   4.277
 6834SOL     OW21244   3.848   4.467   5.309
 6834SOL    HW121245   3.940   4.494   5.314
 6834SOL    HW221246   3.798   4.549   5.317
 6835SOL     OW21247   4.347   5.099   4.463
 6835SOL    HW121248   4.293   5.020   4.459
 6835SOL    HW221249   4.329   5.144   4.381
 6836SOL     OW21250   5.022   4.974   5.143
 6836SOL    HW121251   5.048   4.901   5.086
 6836SOL    HW221252   5.068   4.957   5.225
 6837SOL     OW21253   4.540   3.726   4.235
 6837SOL    HW121254   4.581   3.810   4.213
 6837SOL    HW221255   4.447   3.745   4.242
 6838SOL     OW21256   3.913   4.688   4.996
 6838SOL    HW121257   3.999   4.646   4.982
 6838SOL    HW221258   3.852   4.635   4.944
 6839SOL     OW21259   4.060   3.973   5.541
 6839SOL    HW121260   4.103   4.057   5.558
 6839SOL    HW221261   3.969   3.986   5.569
 6840SOL     OW21262   5.179   5.154   4.674
 6840SOL    HW121263   5.110   5.164   4.740
 6840SOL    HW221264   5.164   5.067   4.638
 6841SOL     OW21265   0.042   0.165   4.287
 6841SOL    HW121266   0.085   0.127   4.211
 6841SOL    HW221267   0.031   0.092   4.348
 6842SOL     OW21268   4.320   4.444   3.992
 6842SOL    HW121269   4.324   4.526   3.943
 6842SOL    HW221270   4.255   4.460   4.060
 6843SOL     OW21271   4.995   4.061   4.642
 6843SOL    HW121272   4.906   4.032   4.664
 6843SOL    HW221273   5.049   4.027   4.712
 6844SOL     OW21274   4.514   4.342   5.173
 6844SOL    HW121275   4.488   4.317   5.262
 6844SOL    HW221276   4.476   4.274   5.118
 6845SOL     OW21277   5.114   4.206   5.405
 6845SOL    HW121278   5.116   4.242   5.494
 6845SOL    HW221279   5.191   4.150   5.399
 6846SOL     OW21280   4.675   4.610   5.307
 6846SOL    HW121281   4.729   4.540   5.271
 6846SOL    HW221282   4.627   4.645   5.232
 6847SOL     OW21283   4.715   4.136   4.961
 6847SOL    HW121284   4.627   4.155   4.994
 6847SOL    HW221285   4.700   4.091   4.878
 6848SOL     OW21286   4.776   4.422   4.149
 6848SOL    HW121287   4.793   4.416   4.243
 6848SOL    HW221288   4.693   4.376   4.136
 6849SOL     OW21289   3.811   4.545   4.501
 6849SOL    HW121290   3.892   4.538   4.552
 6849SOL    HW221291   3.768   4.623   4.536
 6850SOL     OW21292   4.620   4.073   3.918
 6850SOL    HW121293   4.659   4.135   3.856
 6850SOL    HW221294   4.634   3.987   3.878
 6851SOL     OW21295   5.094   4.871   4.272
 6851SOL    HW121296   5.185   4.873   4.242
 6851SOL    HW221297   5.048   4.929   4.212
 6852SOL     OW21298   4.274   3.904   4.618
 6852SOL    HW121299   4.276   3.934   4.709
 6852SOL    HW221300   4.275   3.984   4.566
 6853SOL     OW21301   4.743   5.165   4.196
 6853SOL    HW121302   4.667   5.224   4.193
 6853SOL    HW221303   4.761   5.154   4.289
 6854SOL     OW21304   4.937   5.263   5.286
 6854SOL    HW121305   4.915   5.179   5.326
 6854SOL    HW221306   4.898   5.258   5.198
 6855SOL     OW21307   4.043   4.681   3.975
 6855SOL    HW121308   4.125   4.701   3.931
 6855SOL    HW221309   4.013   4.599   3.935
 6856SOL     OW21310   4.188   4.987   5.466
 6856SOL    HW121311   4.162   4.990   5.374
 6856SOL    HW221312   4.105   4.987   5.514
 6857SOL     OW21313   4.789   0.170   3.935
 6857SOL    HW121314   4.803   0.116   4.013
 6857SOL    HW221315   4.864   0.151   3.879
 6858SOL     OW21316   3.926   4.003   5.226
 6858SOL    HW121317   3.844   4.053   5.224
 6858SOL    HW221318   3.906   3.927   5.281
 6859SOL     OW21319   5.118   3.831   4.148
 6859SOL    HW121320   5.099   3.812   4.056
 6859SOL    HW221321   5.212   3.847   4.150
 6860SOL     OW21322   4.119   4.419   4.199
 6860SOL    HW121323   4.137   4.326   4.211
 6860SOL    HW221324   4.025   4.427   4.216
 6861SOL     OW21325   4.363   3.845   3.828
 6861SOL    HW121326   4.429   3.777   3.842
 6861SOL    HW221327   4.312   3.814   3.753
 6862SOL     OW21328   4.488   4.003   5.479
 6862SOL    HW121329   4.566   3.948   5.478
 6862SOL    HW221330   4.441   3.976   5.558
 6863SOL     OW21331   5.057   4.316   5.156
 6863SOL    HW121332   5.089   4.285   5.241
 6863SOL    HW221333   5.100   4.401   5.144
 6864SOL     OW21334   4.538   5.117   4.662
 6864SOL    HW121335   4.618   5.106   4.611
 6864SOL    HW221336   4.469   5.124   4.596
 6865SOL     OW21337   4.652   4.233   4.626
 6865SOL    HW121338   4.628   4.224   4.534
 6865SOL    HW221339   4.682   4.146   4.651
 6866SOL     OW21340   4.274   3.787   4.224
 6866SOL    HW121341   4.194   3.788   4.276
 6866SOL    HW221342   4.267   3.865   4.169
 6867SOL     OW21343   5.133   4.905   3.767
 6867SOL    HW121344   5.136   4.824   3.819
 6867SOL    HW221345   5.045   4.939   3.782
 6868SOL     OW21346   4.015   3.772   3.909
 6868SOL    HW121347   4.073   3.835   3.868
 6868SOL    HW221348   4.074   3.709   3.951
 6869SOL     OW21349   4.663   3.972   4.182
 6869SOL    HW121350   4.637   4.011   4.098
 6869SOL    HW221351   4.757   3.985   4.186
 6870SOL     OW21352   4.801   4.406   5.184
 6870SOL    HW121353   4.735   4.337   5.185
 6870SOL    HW221354   4.884   4.360   5.175
 6871SOL     OW21355   4.986   5.265   4.491
 6871SOL    HW121356   4.944   0.050   4.476
 6871SOL    HW221357   5.039   5.277   4.569
 6872SOL     OW21358   4.190   4.872   4.451
 6872SOL    HW121359   4.123   4.852   4.516
 6872SOL    HW221360   4.149   4.856   4.367
 6873SOL     OW21361   4.747   4.265   3.748
 6873SOL    HW121362   4.703   4.347   3.728
 6873SOL    HW221363   4.808   4.287   3.818
 6874SOL     OW21364   3.805   4.278   5.117
 6874SOL    HW121365   3.896   4.277   5.090
 6874SOL    HW221366   3.800   4.348   5.182
 6875SOL     OW21367   4.282   3.951   4.891
 6875SOL    HW121368   4.325   3.876   4.933
 6875SOL    HW221369   4.191   3.947   4.921
 6876SOL     OW21370   4.592   4.183   4.363
 6876SOL    HW121371   4.546   4.238   4.299
 6876SOL    HW221372   4.613   4.103   4.314
 6877SOL     OW21373   4.739   3.778   4.474
 6877SOL    HW121374   4.681   3.771   4.398
 6877SOL    HW221375   4.716   3.702   4.529
 6878SOL     OW21376   5.151   4.902   4.573
 6878SOL    HW121377   5.099   4.823   4.586
 6878SOL    HW221378   5.167   4.906   4.478
 6879SOL     OW21379   4.200   5.149   3.873
 6879SOL    HW121380   4.141   5.096   3.926
 6879SOL    HW221381   4.211   5.100   3.792
 6880SOL     OW21382   5.128   4.284   3.806
 6880SOL    HW121383   5.054   4.275   3.865
 6880SOL    HW221384   5.203   4.248   3.854
 6881SOL     OW21385   4.249   3.987   4.040
 6881SOL    HW121386   4.296   3.940   3.970
 6881SOL    HW221387   4.225   4.071   4.001
 6882SOL     OW21388   4.786   5.073   5.052
 6882SOL    HW121389   4.708   5.049   5.102
 6882SOL    HW221390   4.858   5.036   5.103
 6883SOL     OW21391   4.850   4.923   4.832
 6883SOL    HW121392   4.800   4.966   4.902
 6883SOL    HW221393   4.805   4.948   4.751
 6884SOL     OW21394   4.642   3.821   5.119
 6884SOL    HW121395   4.664   3.802   5.028
 6884SOL    HW221396   4.721   3.859   5.156
 6885SOL     OW21397   4.705   4.832   5.455
 6885SOL    HW121398   4.613   4.851   5.473
 6885SOL    HW221399   4.702   4.757   5.395
 6886SOL     OW21400   4.429   4.783   4.095
 6886SOL    HW121401   4.416   4.766   4.189
 6886SOL    HW221402   4.506   4.732   4.072
 6887SOL     OW21403   4.144   4.540   4.975
 6887SOL    HW121404   4.212   4.549   5.042
 6887SOL    HW221405   4.109   4.452   4.989
 6888SOL     OW21406   4.987   4.099   5.002
 6888SOL    HW121407   5.022   4.178   5.043
 6888SOL    HW221408   4.897   4.121   4.978
 6889SOL     OW21409   4.066   4.835   4.212
 6889SOL    HW121410   4.068   4.908   4.150
 6889SOL    HW221411   4.066   4.757   4.156
 6890SOL     OW21412   4.274   4.259   4.584
 6890SOL    HW121413   4.289   4.317   4.509
 6890SOL    HW221414   4.341   4.285   4.648
 6891SOL     OW21415   4.985   5.079   4.111
 6891SOL    HW121416   5.037   5.155   4.136
 6891SOL    HW221417   4.896   5.101   4.139
 6892SOL     OW21418   4.977   5.183   4.852
 6892SOL    HW121419   5.031   5.206   4.928
 6892SOL    HW221420   4.940   5.097   4.875
 6893SOL     OW21421   4.073   5.236   5.036
 6893SOL    HW121422   4.062   5.200   4.948
 6893SOL    HW221423   4.166   5.256   5.042
 6894SOL     OW21424   4.139   4.469   5.326
 6894SOL    HW121425   4.202   4.513   5.269
 6894SOL    HW221426   4.178   4.383   5.343
 6895SOL     OW21427   4.718   3.853   5.479
 6895SOL    HW121428   4.776   3.924   5.455
 6895SOL    HW221429   4.764   3.773   5.453
 6896SOL     OW21430   4.221   3.763   5.473
 6896SOL    HW121431   4.177   3.709   5.407
 6896SOL    HW221432   4.163   3.838   5.485
 6897SOL     OW21433   4.308   4.597   4.755
 6897SOL    HW121434   4.339   4.687   4.755
 6897SOL    HW221435   4.251   4.591   4.833
 6898SOL     OW21436   5.086   4.580   4.758
 6898SOL    HW121437   5.009   4.558   4.707
 6898SOL    HW221438   5.142   4.502   4.752
 6899SOL     OW21439   4.925   4.255   3.986
 6899SOL    HW121440   4.933   4.175   4.039
 6899SOL    HW221441   4.882   4.318   4.044
 6900SOL     OW21442   4.021   3.921   4.971
 6900SOL    HW121443   3.985   3.954   5.053
 6900SOL    HW221444   4.002   3.827   4.972
 6901SOL     OW21445   3.779   5.048   5.009
 6901SOL    HW121446   3.801   4.982   5.074
 6901SOL    HW221447   3.813   5.130   5.045
 6902SOL     OW21448   4.446   4.354   4.780
 6902SOL    HW121449   4.522   4.339   4.724
 6902SOL    HW221450   4.418   4.443   4.760
 6903SOL     OW21451   4.029   3.787   4.348
 6903SOL    HW121452   4.008   3.878   4.370
 6903SOL    HW221453   4.037   3.743   4.432
 6904SOL     OW21454   0.033   4.122   4.081
 6904SOL    HW121455   0.050   4.046   4.136
 6904SOL    HW221456   0.026   4.195   4.143
 6905SOL     OW21457   4.751   4.482   4.682
 6905SOL    HW121458   4.748   4.500   4.776
 6905SOL    HW221459   4.726   4.390   4.674
 6906SOL     OW21460   4.077   4.640   5.533
 6906SOL    HW121461   4.158   4.660   5.579
 6906SOL    HW221462   4.102   4.577   5.465
 6907SOL     OW21463   5.028   4.552   3.760
 6907SOL    HW121464   5.066   4.464   3.763
 6907SOL    HW221465   5.055   4.587   3.676
 6908SOL     OW21466   4.780   5.083   4.545
 6908SOL    HW121467   4.787   4.996   4.505
 6908SOL    HW221468   4.866   5.122   4.533
 6909SOL     OW21469   4.032   4.532   4.671
 6909SOL    HW121470   4.126   4.553   4.664
 6909SOL    HW221471   4.030   4.442   4.703
 6910SOL     OW21472   4.054   4.252   4.737
 6910SOL    HW121473   4.019   4.164   4.722
 6910SOL    HW221474   4.130   4.257   4.680
 6911SOL     OW21475   4.856   4.099   5.406
 6911SOL    HW121476   4.808   4.154   5.468
 6911SOL    HW221477   4.943   4.139   5.402
 6912SOL     OW21478   4.885   3.925   5.194
 6912SOL    HW121479   4.873   3.987   5.265
 6912SOL    HW221480   4.925   3.976   5.124
 6913SOL     OW21481   3.730   5.038   3.915
 6913SOL    HW121482   3.639   5.056   3.890
 6913SOL    HW221483   3.728   4.950   3.952
 6914SOL     OW21484   4.703   4.514   4.949
 6914SOL    HW121485   4.761   4.494   5.022
 6914SOL    HW221486   4.619   4.476   4.973
 6915SOL     OW21487   3.760   4.270   4.841
 6915SOL    HW121488   3.840   4.259   4.790
 6915SOL    HW221489   3.789   4.272   4.932
 6916SOL     OW21490   3.916   4.245   5.453
 6916SOL    HW121491   3.972   4.204   5.386
 6916SOL    HW221492   3.876   4.319   5.408
 6917SOL     OW21493   5.115   4.659   5.390
 6917SOL    HW121494   5.121   4.754   5.377
 6917SOL    HW221495   5.119   4.623   5.301
 6918SOL     OW21496   4.541   4.294   4.086
 6918SOL    HW121497   4.545   4.219   4.026
 6918SOL    HW221498   4.467   4.346   4.055
 6919SOL     OW21499   3.927   5.275   5.470
 6919SOL    HW121500   3.909   0.027   5.548
 6919SOL    HW221501   3.940   5.186   5.502
 6920SOL     OW21502   4.429   4.172   4.981
 6920SOL    HW121503   4.374   4.099   4.952
 6920SOL    HW221504   4.424   4.236   4.909
 6921SOL     OW21505   4.187   4.216   3.909
 6921SOL    HW121506   4.245   4.288   3.932
 6921SOL    HW221507   4.101   4.258   3.897
 6922SOL     OW21508   3.867   4.863   5.195
 6922SOL    HW121509   3.869   4.813   5.277
 6922SOL    HW221510   3.885   4.798   5.127
 6923SOL     OW21511   5.048   4.768   4.951
 6923SOL    HW121512   5.072   4.706   4.882
 6923SOL    HW221513   4.978   4.821   4.912
 6924SOL     OW21514   5.035   4.585   4.040
 6924SOL    HW121515   4.954   4.551   4.078
 6924SOL    HW221516   5.024   4.576   3.946
 6925SOL     OW21517   3.820   4.987   4.746
 6925SOL    HW121518   3.798   5.006   4.837
 6925SOL    HW221519   3.740   4.949   4.710
 6926SOL     OW21520   4.470   0.028   5.439
 6926SOL    HW121521   4.378   0.056   5.439
 6926SOL    HW221522   4.506   0.065   5.359
 6927SOL     OW21523   0.076   3.887   4.257
 6927SOL    HW121524   0.157   3.869   4.209
 6927SOL    HW221525   0.063   3.809   4.311
 6928SOL     OW21526   5.018   4.643   4.395
 6928SOL    HW121527   5.096   4.589   4.383
 6928SOL    HW221528   5.036   4.723   4.346
 6929SOL     OW21529   4.540   4.992   5.140
 6929SOL    HW121530   4.508   5.027   5.223
 6929SOL    HW221531   4.466   5.002   5.080
 6930SOL     OW21532   3.984   4.038   4.440
 6930SOL    HW121533   3.899   4.074   4.417
 6930SOL    HW221534   3.982   4.032   4.536
 6931SOL     OW21535   4.549   4.726   5.094
 6931SOL    HW121536   4.596   4.718   5.011
 6931SOL    HW221537   4.551   4.820   5.114
 6932SOL     OW21538   4.640   4.636   4.015
 6932SOL    HW121539   4.702   4.669   3.949
 6932SOL    HW221540   4.688   4.566   4.060
 6933SOL     OW21541   4.088   5.027   5.221
 6933SOL    HW121542   4.078   5.100   5.161
 6933SOL    HW221543   4.012   4.971   5.204
 6934SOL     OW21544   4.781   4.835   4.438
 6934SOL    HW121545   4.708   4.784   4.475
 6934SOL    HW221546   4.839   4.769   4.399
 6935SOL     OW21547   4.739   3.963   4.693
 6935SOL    HW121548   4.737   3.916   4.609
 6935SOL    HW221549   4.735   3.894   4.759
 6936SOL     OW21550   3.982   5.049   4.009
 6936SOL    HW121551   3.890   5.050   3.981
 6936SOL    HW221552   3.983   5.095   4.093
 6937SOL     OW21553   3.836   4.748   5.443
 6937SOL    HW121554   3.761   4.724   5.497
 6937SOL    HW221555   3.911   4.710   5.489
 6938SOL     OW21556   4.399   3.920   5.224
 6938SOL    HW121557   4.483   3.899   5.183
 6938SOL    HW221558   4.422   3.952   5.311
 6939SOL     OW21559   3.803   4.056   3.758
 6939SOL    HW121560   3.716   4.037   3.723
 6939SOL    HW221561   3.834   4.132   3.708
 6940SOL     OW21562   5.164   4.583   5.127
 6940SOL    HW121563   5.112   4.641   5.072
 6940SOL    HW221564   5.253   4.591   5.091
 6941SOL     OW21565   3.790   3.880   4.031
 6941SOL    HW121566   3.777   3.959   3.980
 6941SOL    HW221567   3.875   3.846   4.003
 6942SOL     OW21568   4.907   5.058   3.845
 6942SOL    HW121569   4.813   5.041   3.845
 6942SOL    HW221570   4.932   5.055   3.937
 6943SOL     OW21571   4.343   4.555   5.158
 6943SOL    HW121572   4.400   4.630   5.142
 6943SOL    HW221573   4.403   4.481   5.166
 6944SOL     OW21574   4.441   4.286   5.427
 6944SOL    HW121575   4.484   4.347   5.487
 6944SOL    HW221576   4.464   4.199   5.460
 6945SOL     OW21577   5.183   4.926   5.357
 6945SOL    HW121578   5.171   4.938   5.451
 6945SOL    HW221579   5.278   4.930   5.344
 6946SOL     OW21580   4.938   4.044   4.179
 6946SOL    HW121581   4.999   3.972   4.167
 6946SOL    HW221582   4.969   4.089   4.258
 6947SOL     OW21583   4.313   4.460   4.395
 6947SOL    HW121584   4.352   4.546   4.381
 6947SOL    HW221585   4.247   4.452   4.326
 6948SOL     OW21586   4.582   5.094   3.745
 6948SOL    HW121587   4.558   5.097   3.837
 6948SOL    HW221588   4.583   5.186   3.718
 6949SOL     OW21589   4.593   4.693   4.579
 6949SOL    HW121590   4.642   4.621   4.618
 6949SOL    HW221591   4.556   4.740   4.653
 6950SOL     OW21592   4.809   4.712   3.817
 6950SOL    HW121593   4.781   4.760   3.739
 6950SOL    HW221594   4.882   4.658   3.787
 6951SOL     OW21595   3.946   5.022   5.576
 6951SOL    HW121596   3.879   4.958   5.551
 6951SOL    HW221597   3.934   5.032   5.671
 6952SOL     OW21598   3.811   4.953   4.394
 6952SOL    HW121599   3.812   4.902   4.475
 6952SOL    HW221600   3.875   4.910   4.337
 6953SOL     OW21601   4.397   5.099   5.333
 6953SOL    HW121602   4.319   5.071   5.381
 6953SOL    HW221603   4.429   5.176   5.381
 6954SOL     OW21604   4.153   4.158   4.250
 6954SOL    HW121605   4.183   4.087   4.193
 6954SOL    HW221606   4.104   4.113   4.319
 6955SOL     OW21607   0.124   5.231   4.773
 6955SOL    HW121608   0.039   5.205   4.736
 6955SOL    HW221609   0.107   5.245   4.866
 6956SOL     OW21610   4.055   4.281   5.016
 6956SOL    HW121611   4.111   4.225   5.071
 6956SOL    HW221612   4.074   4.252   4.927
 6957SOL     OW21613   5.145   3.943   4.839
 6957SOL    HW121614   5.192   3.879   4.893
 6957SOL    HW221615   5.098   3.998   4.902
 6958SOL     OW21616   4.729   3.741   4.864
 6958SOL    HW121617   4.676   3.674   4.822
 6958SOL    HW221618   4.817   3.704   4.869
 6959SOL     OW21619   4.528   5.045   4.008
 6959SOL    HW121620   4.471   4.971   4.030
 6959SOL    HW221621   4.584   5.056   4.085
 6960SOL     OW21622   4.346   5.300   5.018
 6960SOL    HW121623   4.351   0.053   5.097
 6960SOL    HW221624   4.438   5.281   4.996
 6961SOL     OW21625   5.055   3.769   3.891
 6961SOL    HW121626   5.076   3.728   3.807
 6961SOL    HW221627   4.970   3.732   3.915
 6962SOL     OW21628   5.026   4.182   4.404
 6962SOL    HW121629   4.973   4.261   4.408
 6962SOL    HW221630   5.015   4.141   4.490
 6963SOL     OW21631   0.002   3.951   4.607
 6963SOL    HW121632   5.237   3.938   4.676
 6963SOL    HW221633   5.273   4.029   4.561
 6964SOL     OW21634   3.766   4.792   4.032
 6964SOL    HW121635   3.860   4.786   4.016
 6964SOL    HW221636   3.740   4.703   4.054
 6965SOL     OW21637   3.952   4.347   5.711
 6965SOL    HW121638   3.863   4.345   5.746
 6965SOL    HW221639   3.942   4.323   5.619
 6966SOL     OW21640   3.949   4.006   6.578
 6966SOL    HW121641   3.977   3.971   6.663
 6966SOL    HW221642   3.859   3.974   6.568
 6967SOL     OW21643   3.726   4.107   6.224
 6967SOL    HW121644   3.644   4.133   6.266
 6967SOL    HW221645   3.705   4.028   6.175
 6968SOL     OW21646   4.291   5.008   6.768
 6968SOL    HW121647   4.206   5.006   6.724
 6968SOL    HW221648   4.304   5.100   6.792
 6969SOL     OW21649   5.274   5.231   6.277
 6969SOL    HW121650   5.271   5.216   6.371
 6969SOL    HW221651   5.182   5.231   6.249
 6970SOL     OW21652   4.860   4.423   6.284
 6970SOL    HW121653   4.910   4.503   6.274
 6970SOL    HW221654   4.811   4.434   6.365
 6971SOL     OW21655   4.477   4.866   6.626
 6971SOL    HW121656   4.410   4.899   6.687
 6971SOL    HW221657   4.508   4.944   6.580
 6972SOL     OW21658   4.595   4.496   7.407
 6972SOL    HW121659   4.571   4.570   7.463
 6972SOL    HW221660   4.618   4.535   7.323
 6973SOL     OW21661   4.410   4.724   6.233
 6973SOL    HW121662   4.475   4.715   6.302
 6973SOL    HW221663   4.341   4.778   6.271
 6974SOL     OW21664   4.434   4.873   7.401
 6974SOL    HW121665   4.483   4.952   7.423
 6974SOL    HW221666   4.352   4.906   7.363
 6975SOL     OW21667   4.061   5.146   6.645
 6975SOL    HW121668   3.983   5.101   6.613
 6975SOL    HW221669   4.097   5.189   6.567
 6976SOL     OW21670   5.124   5.238   6.926
 6976SOL    HW121671   5.143   0.007   6.989
 6976SOL    HW221672   5.102   5.162   6.980
 6977SOL     OW21673   4.174   4.122   7.071
 6977SOL    HW121674   4.249   4.063   7.077
 6977SOL    HW221675   4.098   4.065   7.086
 6978SOL     OW21676   4.866   5.047   7.286
 6978SOL    HW121677   4.887   5.064   7.378
 6978SOL    HW221678   4.804   4.975   7.288
 6979SOL     OW21679   3.933   5.158   6.107
 6979SOL    HW121680   3.962   5.237   6.152
 6979SOL    HW221681   3.883   5.110   6.173
 6980SOL     OW21682   3.985   4.811   6.478
 6980SOL    HW121683   3.982   4.723   6.516
 6980SOL    HW221684   3.928   4.864   6.534
 6981SOL     OW21685   4.307   4.706   5.722
 6981SOL    HW121686   4.354   4.754   5.654
 6981SOL    HW221687   4.345   4.737   5.804
 6982SOL     OW21688   3.840   4.378   6.146
 6982SOL    HW121689   3.811   4.289   6.167
 6982SOL    HW221690   3.832   4.426   6.228
 6983SOL     OW21691   3.710   0.012   5.682
 6983SOL    HW121692   3.725   5.223   5.714
 6983SOL    HW221693   3.731   0.068   5.757
 6984SOL     OW21694   0.112   4.656   6.150
 6984SOL    HW121695   0.201   4.625   6.167
 6984SOL    HW221696   0.121   4.751   6.139
 6985SOL     OW21697   3.848   4.467   7.172
 6985SOL    HW121698   3.939   4.495   7.176
 6985SOL    HW221699   3.797   4.548   7.178
 6986SOL     OW21700   4.347   5.099   6.325
 6986SOL    HW121701   4.293   5.020   6.322
 6986SOL    HW221702   4.329   5.144   6.243
 6987SOL     OW21703   5.022   4.974   7.004
 6987SOL    HW121704   5.048   4.901   6.948
 6987SOL    HW221705   5.068   4.957   7.087
 6988SOL     OW21706   4.540   3.726   6.097
 6988SOL    HW121707   4.581   3.810   6.075
 6988SOL    HW221708   4.447   3.745   6.104
 6989SOL     OW21709   3.913   4.687   6.858
 6989SOL    HW121710   3.998   4.646   6.844
 6989SOL    HW221711   3.852   4.636   6.806
 6990SOL     OW21712   4.059   3.972   7.404
 6990SOL    HW121713   4.102   4.057   7.418
 6990SOL    HW221714   3.969   3.986   7.431
 6991SOL     OW21715   5.179   5.154   6.536
 6991SOL    HW121716   5.110   5.164   6.602
 6991SOL    HW221717   5.164   5.067   6.500
 6992SOL     OW21718   0.042   0.165   6.149
 6992SOL    HW121719   0.085   0.127   6.073
 6992SOL    HW221720   0.031   0.092   6.210
 6993SOL     OW21721   4.320   4.444   5.854
 6993SOL    HW121722   4.324   4.526   5.805
 6993SOL    HW221723   4.255   4.460   5.922
 6994SOL     OW21724   4.995   4.061   6.504
 6994SOL    HW121725   4.906   4.032   6.526
 6994SOL    HW221726   5.049   4.027   6.574
 6995SOL     OW21727   4.513   4.342   7.036
 6995SOL    HW121728   4.488   4.317   7.125
 6995SOL    HW221729   4.476   4.274   6.980
 6996SOL     OW21730   5.114   4.207   7.267
 6996SOL    HW121731   5.117   4.242   7.356
 6996SOL    HW221732   5.192   4.151   7.261
 6997SOL     OW21733   4.676   4.611   7.169
 6997SOL    HW121734   4.729   4.540   7.132
 6997SOL    HW221735   4.628   4.646   7.094
 6998SOL     OW21736   4.715   4.136   6.823
 6998SOL    HW121737   4.627   4.155   6.856
 6998SOL    HW221738   4.700   4.091   6.740
 6999SOL     OW21739   4.776   4.422   6.011
 6999SOL    HW121740   4.793   4.416   6.105
 6999SOL    HW221741   4.693   4.376   5.998
 7000SOL     OW21742   3.812   4.545   6.363
 7000SOL    HW121743   3.892   4.538   6.414
 7000SOL    HW221744   3.768   4.623   6.398
 7001SOL     OW21745   4.620   4.073   5.780
 7001SOL    HW121746   4.659   4.135   5.718
 7001SOL    HW221747   4.634   3.987   5.740
 7002SOL     OW21748   5.094   4.871   6.134
 7002SOL    HW121749   5.185   4.873   6.104
 7002SOL    HW221750   5.048   4.929   6.074
 7003SOL     OW21751   4.274   3.904   6.480
 7003SOL    HW121752   4.277   3.934   6.571
 7003SOL    HW221753   4.275   3.984   6.429
 7004SOL     OW21754   4.743   5.165   6.058
 7004SOL    HW121755   4.667   5.224   6.055
 7004SOL    HW221756   4.761   5.154   6.151
 7005SOL     OW21757   4.938   5.263   7.148
 7005SOL    HW121758   4.915   5.179   7.188
 7005SOL    HW221759   4.898   5.260   7.061
 7006SOL     OW21760   4.043   4.681   5.838
 7006SOL    HW121761   4.125   4.700   5.793
 7006SOL    HW221762   4.013   4.599   5.798
 7007SOL     OW21763   4.187   4.987   7.329
 7007SOL    HW121764   4.160   4.990   7.237
 7007SOL    HW221765   4.104   4.987   7.378
 7008SOL     OW21766   4.789   0.170   5.797
 7008SOL    HW121767   4.803   0.116   5.875
 7008SOL    HW221768   4.864   0.151   5.741
 7009SOL     OW21769   3.926   4.002   7.089
 7009SOL    HW121770   3.844   4.051   7.085
 7009SOL    HW221771   3.905   3.925   7.141
 7010SOL     OW21772   5.118   3.831   6.010
 7010SOL    HW121773   5.099   3.813   5.918
 7010SOL    HW221774   5.212   3.847   6.012
 7011SOL     OW21775   4.119   4.419   6.061
 7011SOL    HW121776   4.138   4.326   6.073
 7011SOL    HW221777   4.025   4.427   6.078
 7012SOL     OW21778   4.363   3.845   5.690
 7012SOL    HW121779   4.429   3.777   5.704
 7012SOL    HW221780   4.312   3.814   5.615
 7013SOL     OW21781   4.488   4.002   7.342
 7013SOL    HW121782   4.566   3.948   7.340
 7013SOL    HW221783   4.445   3.981   7.424
 7014SOL     OW21784   5.057   4.316   7.018
 7014SOL    HW121785   5.089   4.286   7.103
 7014SOL    HW221786   5.101   4.401   7.005
 7015SOL     OW21787   4.538   5.117   6.524
 7015SOL    HW121788   4.618   5.106   6.474
 7015SOL    HW221789   4.469   5.124   6.458
 7016SOL     OW21790   4.652   4.233   6.488
 7016SOL    HW121791   4.628   4.224   6.396
 7016SOL    HW221792   4.682   4.146   6.513
 7017SOL     OW21793   4.274   3.787   6.086
 7017SOL    HW121794   4.194   3.787   6.138
 7017SOL    HW221795   4.267   3.865   6.031
 7018SOL     OW21796   5.133   4.905   5.629
 7018SOL    HW121797   5.136   4.824   5.680
 7018SOL    HW221798   5.045   4.939   5.644
 7019SOL     OW21799   4.015   3.772   5.771
 7019SOL    HW121800   4.074   3.836   5.731
 7019SOL    HW221801   4.074   3.709   5.813
 7020SOL     OW21802   4.663   3.972   6.044
 7020SOL    HW121803   4.637   4.011   5.960
 7020SOL    HW221804   4.757   3.985   6.048
 7021SOL     OW21805   4.801   4.406   7.046
 7021SOL    HW121806   4.735   4.337   7.048
 7021SOL    HW221807   4.884   4.360   7.037
 7022SOL     OW21808   4.986   5.265   6.353
 7022SOL    HW121809   4.944   0.050   6.338
 7022SOL    HW221810   5.039   5.277   6.431
 7023SOL     OW21811   4.191   4.872   6.314
 7023SOL    HW121812   4.123   4.852   6.378
 7023SOL    HW221813   4.149   4.856   6.229
 7024SOL     OW21814   4.747   4.265   5.610
 7024SOL    HW121815   4.703   4.347   5.590
 7024SOL    HW221816   4.808   4.287   5.680
 7025SOL     OW21817   3.805   4.278   6.978
 7025SOL    HW121818   3.897   4.277   6.952
 7025SOL    HW221819   3.800   4.348   7.044
 7026SOL     OW21820   4.282   3.951   6.753
 7026SOL    HW121821   4.325   3.876   6.796
 7026SOL    HW221822   4.191   3.947   6.783
 7027SOL     OW21823   4.592   4.183   6.225
 7027SOL    HW121824   4.546   4.238   6.161
 7027SOL    HW221825   4.613   4.103   6.176
 7028SOL     OW21826   4.739   3.778   6.336
 7028SOL    HW121827   4.681   3.771   6.261
 7028SOL    HW221828   4.717   3.702   6.391
 7029SOL     OW21829   5.151   4.902   6.435
 7029SOL    HW121830   5.099   4.823   6.447
 7029SOL    HW221831   5.167   4.906   6.341
 7030SOL     OW21832   4.200   5.149   5.735
 7030SOL    HW121833   4.141   5.096   5.788
 7030SOL    HW221834   4.211   5.100   5.654
 7031SOL     OW21835   5.128   4.284   5.668
 7031SOL    HW121836   5.054   4.275   5.727
 7031SOL    HW221837   5.203   4.247   5.716
 7032SOL     OW21838   4.249   3.987   5.902
 7032SOL    HW121839   4.296   3.940   5.832
 7032SOL    HW221840   4.225   4.071   5.863
 7033SOL     OW21841   4.786   5.073   6.914
 7033SOL    HW121842   4.708   5.049   6.964
 7033SOL    HW221843   4.858   5.037   6.965
 7034SOL     OW21844   4.850   4.923   6.694
 7034SOL    HW121845   4.800   4.966   6.764
 7034SOL    HW221846   4.805   4.948   6.613
 7035SOL     OW21847   4.641   3.821   6.981
 7035SOL    HW121848   4.664   3.802   6.890
 7035SOL    HW221849   4.721   3.859   7.018
 7036SOL     OW21850   4.706   4.830   7.321
 7036SOL    HW121851   4.614   4.852   7.335
 7036SOL    HW221852   4.703   4.757   7.259
 7037SOL     OW21853   4.429   4.783   5.957
 7037SOL    HW121854   4.416   4.766   6.051
 7037SOL    HW221855   4.506   4.732   5.934
 7038SOL     OW21856   4.144   4.540   6.837
 7038SOL    HW121857   4.212   4.549   6.904
 7038SOL    HW221858   4.109   4.452   6.851
 7039SOL     OW21859   4.987   4.099   6.864
 7039SOL    HW121860   5.022   4.178   6.904
 7039SOL    HW221861   4.897   4.122   6.840
 7040SOL     OW21862   4.066   4.835   6.074
 7040SOL    HW121863   4.068   4.908   6.012
 7040SOL    HW221864   4.066   4.757   6.018
 7041SOL     OW21865   4.274   4.259   6.446
 7041SOL    HW121866   4.289   4.317   6.371
 7041SOL    HW221867   4.341   4.285   6.510
 7042SOL     OW21868   4.985   5.079   5.973
 7042SOL    HW121869   5.037   5.155   5.997
 7042SOL    HW221870   4.896   5.101   6.001
 7043SOL     OW21871   4.977   5.183   6.714
 7043SOL    HW121872   5.030   5.206   6.790
 7043SOL    HW221873   4.940   5.097   6.736
 7044SOL     OW21874   4.073   5.236   6.899
 7044SOL    HW121875   4.062   5.200   6.810
 7044SOL    HW221876   4.166   5.256   6.904
 7045SOL     OW21877   4.139   4.469   7.188
 7045SOL    HW121878   4.202   4.513   7.131
 7045SOL    HW221879   4.177   4.382   7.203
 7046SOL     OW21880   4.718   3.853   7.340
 7046SOL    HW121881   4.777   3.924   7.315
 7046SOL    HW221882   4.765   3.773   7.315
 7047SOL     OW21883   4.222   3.762   7.335
 7047SOL    HW121884   4.178   3.709   7.269
 7047SOL    HW221885   4.165   3.838   7.347
 7048SOL     OW21886   4.308   4.597   6.617
 7048SOL    HW121887   4.339   4.687   6.617
 7048SOL    HW221888   4.251   4.591   6.695
 7049SOL     OW21889   5.086   4.580   6.621
 7049SOL    HW121890   5.009   4.558   6.569
 7049SOL    HW221891   5.142   4.502   6.614
 7050SOL     OW21892   4.925   4.255   5.848
 7050SOL    HW121893   4.933   4.175   5.901
 7050SOL    HW221894   4.882   4.318   5.906
 7051SOL     OW21895   4.022   3.921   6.833
 7051SOL    HW121896   3.985   3.954   6.915
 7051SOL    HW221897   4.003   3.828   6.834
 7052SOL     OW21898   3.779   5.048   6.871
 7052SOL    HW121899   3.801   4.982   6.936
 7052SOL    HW221900   3.813   5.130   6.907
 7053SOL     OW21901   4.446   4.354   6.642
 7053SOL    HW121902   4.522   4.339   6.586
 7053SOL    HW221903   4.418   4.443   6.622
 7054SOL     OW21904   4.028   3.787   6.210
 7054SOL    HW121905   4.008   3.878   6.232
 7054SOL    HW221906   4.036   3.743   6.294
 7055SOL     OW21907   0.033   4.122   5.943
 7055SOL    HW121908   0.050   4.046   5.998
 7055SOL    HW221909   0.025   4.195   6.005
 7056SOL     OW21910   4.751   4.482   6.544
 7056SOL    HW121911   4.748   4.500   6.638
 7056SOL    HW221912   4.726   4.391   6.536
 7057SOL     OW21913   4.077   4.639   7.396
 7057SOL    HW121914   4.160   4.659   7.440
 7057SOL    HW221915   4.101   4.577   7.327
 7058SOL     OW21916   5.028   4.552   5.622
 7058SOL    HW121917   5.066   4.464   5.625
 7058SOL    HW221918   5.055   4.587   5.538
 7059SOL     OW21919   4.780   5.083   6.407
 7059SOL    HW121920   4.787   4.996   6.367
 7059SOL    HW221921   4.866   5.122   6.395
 7060SOL     OW21922   4.032   4.532   6.533
 7060SOL    HW121923   4.125   4.553   6.526
 7060SOL    HW221924   4.030   4.442   6.565
 7061SOL     OW21925   4.054   4.252   6.599
 7061SOL    HW121926   4.019   4.164   6.584
 7061SOL    HW221927   4.131   4.257   6.542
 7062SOL     OW21928   4.857   4.099   7.267
 7062SOL    HW121929   4.809   4.154   7.329
 7062SOL    HW221930   4.944   4.139   7.262
 7063SOL     OW21931   4.885   3.924   7.055
 7063SOL    HW121932   4.873   3.987   7.127
 7063SOL    HW221933   4.925   3.976   6.985
 7064SOL     OW21934   3.730   5.038   5.777
 7064SOL    HW121935   3.639   5.056   5.752
 7064SOL    HW221936   3.728   4.950   5.814
 7065SOL     OW21937   4.703   4.514   6.811
 7065SOL    HW121938   4.761   4.493   6.884
 7065SOL    HW221939   4.619   4.475   6.835
 7066SOL     OW21940   3.760   4.270   6.703
 7066SOL    HW121941   3.840   4.259   6.652
 7066SOL    HW221942   3.789   4.272   6.794
 7067SOL     OW21943   3.917   4.244   7.315
 7067SOL    HW121944   3.970   4.202   7.247
 7067SOL    HW221945   3.877   4.319   7.270
 7068SOL     OW21946   5.114   4.659   7.253
 7068SOL    HW121947   5.120   4.754   7.240
 7068SOL    HW221948   5.118   4.623   7.165
 7069SOL     OW21949   4.541   4.294   5.948
 7069SOL    HW121950   4.544   4.219   5.888
 7069SOL    HW221951   4.467   4.346   5.917
 7070SOL     OW21952   3.927   5.274   7.330
 7070SOL    HW121953   3.889   0.021   7.405
 7070SOL    HW221954   3.942   5.185   7.363
 7071SOL     OW21955   4.429   4.172   6.843
 7071SOL    HW121956   4.374   4.099   6.814
 7071SOL    HW221957   4.424   4.236   6.771
 7072SOL     OW21958   4.187   4.216   5.771
 7072SOL    HW121959   4.245   4.288   5.794
 7072SOL    HW221960   4.101   4.258   5.759
 7073SOL     OW21961   3.867   4.863   7.058
 7073SOL    HW121962   3.869   4.813   7.139
 7073SOL    HW221963   3.885   4.798   6.989
 7074SOL     OW21964   5.048   4.768   6.813
 7074SOL    HW121965   5.072   4.706   6.744
 7074SOL    HW221966   4.978   4.821   6.774
 7075SOL     OW21967   5.035   4.586   5.902
 7075SOL    HW121968   4.954   4.551   5.940
 7075SOL    HW221969   5.024   4.576   5.808
 7076SOL     OW21970   3.820   4.987   6.608
 7076SOL    HW121971   3.798   5.006   6.699
 7076SOL    HW221972   3.740   4.949   6.572
 7077SOL     OW21973   4.468   0.025   7.304
 7077SOL    HW121974   4.378   0.056   7.302
 7077SOL    HW221975   4.509   0.066   7.228
 7078SOL     OW21976   0.076   3.887   6.119
 7078SOL    HW121977   0.157   3.869   6.072
 7078SOL    HW221978   0.063   3.809   6.173
 7079SOL     OW21979   5.018   4.643   6.257
 7079SOL    HW121980   5.096   4.589   6.245
 7079SOL    HW221981   5.036   4.723   6.208
 7080SOL     OW21982   4.540   4.992   7.002
 7080SOL    HW121983   4.507   5.027   7.085
 7080SOL    HW221984   4.466   5.002   6.941
 7081SOL     OW21985   3.984   4.038   6.302
 7081SOL    HW121986   3.898   4.074   6.279
 7081SOL    HW221987   3.982   4.032   6.398
 7082SOL     OW21988   4.549   4.726   6.957
 7082SOL    HW121989   4.596   4.718   6.873
 7082SOL    HW221990   4.551   4.820   6.976
 7083SOL     OW21991   4.640   4.636   5.877
 7083SOL    HW121992   4.702   4.669   5.812
 7083SOL    HW221993   4.688   4.566   5.922
 7084SOL     OW21994   4.087   5.027   7.085
 7084SOL    HW121995   4.078   5.100   7.023
 7084SOL    HW221996   4.012   4.971   7.066
 7085SOL     OW21997   4.781   4.835   6.300
 7085SOL    HW121998   4.708   4.784   6.337
 7085SOL    HW221999   4.839   4.769   6.262
 7086SOL     OW22000   4.739   3.963   6.555
 7086SOL    HW122001   4.737   3.916   6.471
 7086SOL    HW222002   4.735   3.894   6.621
 7087SOL     OW22003   3.982   5.049   5.871
 7087SOL    HW122004   3.890   5.050   5.843
 7087SOL    HW222005   3.983   5.095   5.955
 7088SOL     OW22006   3.837   4.749   7.307
 7088SOL    HW122007   3.761   4.725   7.358
 7088SOL    HW222008   3.911   4.709   7.352
 7089SOL     OW22009   4.399   3.920   7.086
 7089SOL    HW122010   4.483   3.899   7.045
 7089SOL    HW222011   4.421   3.951   7.173
 7090SOL     OW22012   3.803   4.056   5.620
 7090SOL    HW122013   3.716   4.037   5.585
 7090SOL    HW222014   3.833   4.131   5.570
 7091SOL     OW22015   5.165   4.584   6.990
 7091SOL    HW122016   5.112   4.641   6.935
 7091SOL    HW222017   5.253   4.591   6.953
 7092SOL     OW22018   3.790   3.879   5.893
 7092SOL    HW122019   3.777   3.959   5.842
 7092SOL    HW222020   3.875   3.846   5.864
 7093SOL     OW22021   4.907   5.058   5.707
 7093SOL    HW122022   4.813   5.041   5.707
 7093SOL    HW222023   4.932   5.055   5.799
 7094SOL     OW22024   4.343   4.555   7.020
 7094SOL    HW122025   4.400   4.630   7.004
 7094SOL    HW222026   4.403   4.481   7.028
 7095SOL     OW22027   4.442   4.285   7.289
 7095SOL    HW122028   4.484   4.345   7.351
 7095SOL    HW222029   4.464   4.198   7.321
 7096SOL     OW22030   5.183   4.925   7.218
 7096SOL    HW122031   5.171   4.939   7.312
 7096SOL    HW222032   5.278   4.930   7.205
 7097SOL     OW22033   4.938   4.044   6.041
 7097SOL    HW122034   4.999   3.972   6.029
 7097SOL    HW222035   4.969   4.089   6.120
 7098SOL     OW22036   4.313   4.460   6.257
 7098SOL    HW122037   4.352   4.546   6.243
 7098SOL    HW222038   4.247   4.452   6.188
 7099SOL     OW22039   4.582   5.094   5.607
 7099SOL    HW122040   4.558   5.097   5.699
 7099SOL    HW222041   4.583   5.186   5.580
 7100SOL     OW22042   4.593   4.693   6.441
 7100SOL    HW122043   4.642   4.621   6.480
 7100SOL    HW222044   4.556   4.740   6.515
 7101SOL     OW22045   4.809   4.712   5.679
 7101SOL    HW122046   4.781   4.760   5.601
 7101SOL    HW222047   4.882   4.658   5.649
 7102SOL     OW22048   3.944   5.020   7.441
 7102SOL    HW122049   3.881   4.956   7.409
 7102SOL    HW222050   3.920   5.034   7.532
 7103SOL     OW22051   3.811   4.954   6.256
 7103SOL    HW122052   3.811   4.902   6.337
 7103SOL    HW222053   3.875   4.910   6.199
 7104SOL     OW22054   4.396   5.098   7.195
 7104SOL    HW122055   4.317   5.072   7.242
 7104SOL    HW222056   4.428   5.175   7.243
 7105SOL     OW22057   4.153   4.158   6.112
 7105SOL    HW122058   4.183   4.087   6.055
 7105SOL    HW222059   4.104   4.113   6.181
 7106SOL     OW22060   0.124   5.231   6.635
 7106SOL    HW122061   0.039   5.205   6.598
 7106SOL    HW222062   0.106   5.245   6.728
 7107SOL     OW22063   4.056   4.281   6.878
 7107SOL    HW122064   4.111   4.225   6.933
 7107SOL    HW222065   4.074   4.252   6.789
 7108SOL     OW22066   5.145   3.943   6.701
 7108SOL    HW122067   5.191   3.879   6.755
 7108SOL    HW222068   5.099   3.998   6.764
 7109SOL     OW22069   4.729   3.741   6.726
 7109SOL    HW122070   4.676   3.674   6.684
 7109SOL    HW222071   4.817   3.704   6.731
 7110SOL     OW22072   4.528   5.046   5.870
 7110SOL    HW122073   4.471   4.971   5.892
 7110SOL    HW222074   4.584   5.056   5.947
 7111SOL     OW22075   4.346   5.300   6.881
 7111SOL    HW122076   4.352   0.053   6.960
 7111SOL    HW222077   4.438   5.281   6.858
 7112SOL     OW22078   5.055   3.769   5.753
 7112SOL    HW122079   5.077   3.728   5.669
 7112SOL    HW222080   4.970   3.732   5.777
 7113SOL     OW22081   5.026   4.182   6.266
 7113SOL    HW122082   4.973   4.261   6.270
 7113SOL    HW222083   5.015   4.141   6.352
 7114SOL     OW22084   0.002   3.951   6.469
 7114SOL    HW122085   5.237   3.938   6.538
 7114SOL    HW222086   5.272   4.029   6.423
 7115SOL     OW22087   3.766   4.792   5.894
 7115SOL    HW122088   3.860   4.786   5.878
 7115SOL    HW222089   3.740   4.703   5.916
 7116SOL     OW22090   3.951   4.344   7.573
 7116SOL    HW122091   3.861   4.351   7.605
 7116SOL    HW222092   3.942   4.321   7.481
 7117SOL     OW22093   4.002   0.124   7.958
 7117SOL    HW122094   3.976   0.209   7.993
 7117SOL    HW222095   4.007   0.137   7.864
 7118SOL     OW22096   3.940   5.157   7.992
 7118SOL    HW122097   3.956   5.251   7.997
 7118SOL    HW222098   3.883   5.138   8.067
 7119SOL     OW22099   4.308   4.706   7.580
 7119SOL    HW122100   4.353   4.755   7.512
 7119SOL    HW222101   4.346   4.738   7.662
 7120SOL     OW22102   3.725   0.009   7.535
 7120SOL    HW122103   3.727   5.221   7.572
 7120SOL    HW222104   3.724   0.067   7.612
 7121SOL     OW22105   0.117   4.652   8.012
 7121SOL    HW122106   0.209   4.641   8.035
 7121SOL    HW222107   0.106   4.746   8.001
 7122SOL     OW22108   4.525   3.719   7.938
 7122SOL    HW122109   4.575   3.799   7.920
 7122SOL    HW222110   4.434   3.749   7.946
 7123SOL     OW22111   4.315   4.448   7.709
 7123SOL    HW122112   4.315   4.531   7.661
 7123SOL    HW222113   4.255   4.464   7.782
 7124SOL     OW22114   3.781   4.588   0.086
 7124SOL    HW122115   3.846   4.521   0.111
 7124SOL    HW222116   3.784   4.652   0.157
 7125SOL     OW22117   4.611   4.071   7.640
 7125SOL    HW122118   4.651   4.130   7.576
 7125SOL    HW222119   4.641   3.984   7.615
 7126SOL     OW22120   4.046   4.680   7.698
 7126SOL    HW122121   4.126   4.697   7.648
 7126SOL    HW222122   4.008   4.602   7.658
 7127SOL     OW22123   4.795   0.181   7.647
 7127SOL    HW122124   4.790   0.143   7.735
 7127SOL    HW222125   4.877   0.147   7.611
 7128SOL     OW22126   5.132   3.851   7.853
 7128SOL    HW122127   5.095   3.827   7.768
 7128SOL    HW222128   5.227   3.852   7.839
 7129SOL     OW22129   4.117   4.423   7.917
 7129SOL    HW122130   4.115   4.327   7.928
 7129SOL    HW222131   4.026   4.450   7.930
 7130SOL     OW22132   4.357   3.843   7.558
 7130SOL    HW122133   4.428   3.780   7.571
 7130SOL    HW222134   4.311   3.812   7.480
 7131SOL     OW22135   4.256   3.800   7.959
 7131SOL    HW122136   4.171   3.805   8.003
 7131SOL    HW222137   4.254   3.870   7.895
 7132SOL     OW22138   5.134   4.908   7.490
 7132SOL    HW122139   5.141   4.828   7.544
 7132SOL    HW222140   5.046   4.940   7.508
 7133SOL     OW22141   4.016   3.773   7.633
 7133SOL    HW122142   4.074   3.834   7.587
 7133SOL    HW222143   4.075   3.709   7.673
 7134SOL     OW22144   4.667   3.950   7.908
 7134SOL    HW122145   4.625   4.013   7.849
 7134SOL    HW222146   4.758   3.978   7.913
 7135SOL     OW22147   4.161   4.871   0.099
 7135SOL    HW122148   4.089   4.915   0.144
 7135SOL    HW222149   4.131   4.861   0.009
 7136SOL     OW22150   4.750   4.266   7.468
 7136SOL    HW122151   4.702   4.347   7.451
 7136SOL    HW222152   4.803   4.284   7.545
 7137SOL     OW22153   4.191   5.153   7.598
 7137SOL    HW122154   4.136   5.098   7.655
 7137SOL    HW222155   4.206   5.099   7.521
 7138SOL     OW22156   5.129   4.283   7.532
 7138SOL    HW122157   5.052   4.274   7.589
 7138SOL    HW222158   5.201   4.244   7.582
 7139SOL     OW22159   4.249   3.990   7.769
 7139SOL    HW122160   4.295   3.941   7.700
 7139SOL    HW222161   4.225   4.073   7.727
 7140SOL     OW22162   4.434   4.784   7.811
 7140SOL    HW122163   4.407   4.769   7.902
 7140SOL    HW222164   4.515   4.733   7.801
 7141SOL     OW22165   4.088   4.830   7.924
 7141SOL    HW122166   4.064   4.909   7.876
 7141SOL    HW222167   4.076   4.758   7.862
 7142SOL     OW22168   4.953   5.102   7.834
 7142SOL    HW122169   5.035   5.126   7.878
 7142SOL    HW222170   4.902   5.057   7.901
 7143SOL     OW22171   0.039   4.376   7.924
 7143SOL    HW122172   5.280   4.380   8.000
 7143SOL    HW222173   0.038   4.464   7.888
 7144SOL     OW22174   4.923   4.253   7.711
 7144SOL    HW122175   4.928   4.169   7.758
 7144SOL    HW222176   4.892   4.315   7.777
 7145SOL     OW22177   0.022   4.132   7.802
 7145SOL    HW122178   0.032   4.065   7.869
 7145SOL    HW222179   0.025   4.215   7.850
 7146SOL     OW22180   5.037   4.556   7.491
 7146SOL    HW122181   5.067   4.465   7.489
 7146SOL    HW222182   5.060   4.590   7.405
 7147SOL     OW22183   3.733   5.044   7.640
 7147SOL    HW122184   3.643   5.057   7.612
 7147SOL    HW222185   3.734   4.955   7.675
 7148SOL     OW22186   4.569   4.333   7.753
 7148SOL    HW122187   4.562   4.240   7.733
 7148SOL    HW222188   4.478   4.364   7.757
 7149SOL     OW22189   4.184   4.217   7.641
 7149SOL    HW122190   4.243   4.291   7.657
 7149SOL    HW222191   4.099   4.258   7.623
 7150SOL     OW22192   5.032   4.575   7.774
 7150SOL    HW122193   4.939   4.591   7.790
 7150SOL    HW222194   5.039   4.570   7.679
 7151SOL     OW22195   0.186   3.867   7.991
 7151SOL    HW122196   0.155   3.852   7.901
 7151SOL    HW222197   0.139   3.802   8.043
 7152SOL     OW22198   4.654   4.630   7.761
 7152SOL    HW122199   4.705   4.655   7.683
 7152SOL    HW222200   4.641   4.536   7.751
 7153SOL     OW22201   3.983   5.054   7.750
 7153SOL    HW122202   3.892   5.058   7.720
 7153SOL    HW222203   3.981   5.095   7.836
 7154SOL     OW22204   3.802   4.055   7.482
 7154SOL    HW122205   3.716   4.036   7.445
 7154SOL    HW222206   3.833   4.131   7.434
 7155SOL     OW22207   3.792   3.880   7.755
 7155SOL    HW122208   3.776   3.956   7.699
 7155SOL    HW222209   3.875   3.844   7.725
 7156SOL     OW22210   4.905   5.056   7.568
 7156SOL    HW122211   4.811   5.040   7.561
 7156SOL    HW222212   4.921   5.067   7.662
 7157SOL     OW22213   4.937   4.044   7.900
 7157SOL    HW122214   5.009   3.982   7.890
 7157SOL    HW222215   4.954   4.086   7.985
 7158SOL     OW22216   4.355   4.460   8.051
 7158SOL    HW122217   4.357   4.540   0.024
 7158SOL    HW222218   4.267   4.458   8.013
 7159SOL     OW22219   4.585   5.093   7.467
 7159SOL    HW122220   4.562   5.096   7.560
 7159SOL    HW222221   4.583   5.185   7.439
 7160SOL     OW22222   4.804   4.700   7.544
 7160SOL    HW122223   4.777   4.754   7.469
 7160SOL    HW222224   4.881   4.653   7.513
 7161SOL     OW22225   4.110   4.152   7.985
 7161SOL    HW122226   4.161   4.101   7.922
 7161SOL    HW222227   4.162   4.151   8.065
 7162SOL     OW22228   4.530   5.049   7.731
 7162SOL    HW122229   4.481   4.970   7.753
 7162SOL    HW222230   4.541   5.095   7.814
 7163SOL     OW22231   5.059   3.768   7.608
 7163SOL    HW122232   5.078   3.722   7.526
 7163SOL    HW222233   4.975   3.732   7.637
 7164SOL     OW22234   3.776   4.800   7.750
 7164SOL    HW122235   3.870   4.793   7.739
 7164SOL    HW222236   3.747   4.709   7.764
   5.30000   5.30000   8.08000
